Title
82254
    1SAPS     N    1   4.382   4.555  10.804  0.2805 -0.2335 -0.2623
    1SAPS   HN1    2   4.385   4.481  10.730 -2.3592 -0.3450 -0.3331
    1SAPS   HN2    3   4.283   4.584  10.812  0.2056 -0.8431  1.1966
    1SAPS   HN3    4   4.443   4.631  10.768  2.9107 -1.9543  0.2301
    1SAPS   C12    5   4.428   4.474  10.921 -0.2746  0.4173  0.5962
    1SAPS  H12A    6   4.520   4.434  10.881  0.2540  2.0250  0.1474
    1SAPS   C13    7   4.471   4.560  11.043 -0.2640  0.1228  1.2050
    1SAPS  O13A    8   4.435   4.680  11.053 -0.1319 -0.1793  0.3119
    1SAPS  O13B    9   4.516   4.495  11.137  0.1157 -0.5144  0.0255
    1SAPS   C11   10   4.308   4.381  10.960  0.8019  0.3923  0.1092
    1SAPS  H11A   11   4.215   4.439  10.981  1.1174  0.7267  0.6240
    1SAPS  H11B   12   4.333   4.314  11.045  2.5064 -0.1111 -0.7472
    1SAPS     P   13   4.235   4.133  10.856  0.0178 -0.2396  0.3199
    1SAPS   O13   14   4.241   4.084  10.998 -0.4814  0.0675 -0.7515
    1SAPS   O14   15   4.107   4.154  10.789 -0.1052  0.0220  0.1410
    1SAPS   O12   16   4.296   4.286  10.850 -0.0346 -0.4894 -0.3990
    1SAPS   O11   17   4.326   4.041  10.779 -0.1626  0.2864  0.1196
    1SAPS    C1   18   4.454   4.065  10.722 -0.0129  0.1665 -0.0673
    1SAPS    HA   19   4.512   4.124  10.796 -0.6857 -1.0724  1.5188
    1SAPS    HB   20   4.503   3.967  10.702 -0.0869 -0.2144  1.5037
    1SAPS    C2   21   4.449   4.154  10.596 -0.3979 -0.7343  0.3138
    1SAPS    HS   22   4.371   4.229  10.621 -0.2085 -1.2468  2.6477
    1SAPS   O21   23   4.420   4.071  10.483  0.0565  0.2914 -0.0711
    1SAPS   C21   24   4.321   4.096  10.397  0.2599 -0.6238 -0.1756
    1SAPS   O22   25   4.243   4.188  10.396  0.4119  0.0961 -0.3870
    1SAPS   C22   26   4.324   3.980  10.294 -0.3451 -0.0972  0.3616
    1SAPS   H2R   27   4.305   3.887  10.353 -0.2675 -0.8575 -0.7802
    1SAPS   H2S   28   4.239   4.003  10.227  0.9556  2.3691 -0.5447
    1SAPS    C3   29   4.585   4.218  10.575  0.7485 -0.1316 -0.0729
    1SAPS    HX   30   4.661   4.138  10.561  1.0726  0.5379 -2.8477
    1SAPS    HY   31   4.611   4.276  10.666 -0.2998  0.3537 -0.0608
    1SAPS   O31   32   4.583   4.297  10.458 -0.7179 -0.6626  0.2193
    1SAPS   C31   33   4.510   4.406  10.454  0.3467 -0.3919 -0.4459
    1SAPS   O32   34   4.443   4.448  10.546  0.0828  0.2908  0.4966
    1SAPS   C32   35   4.504   4.461  10.318 -0.2107 -0.7738  0.4868
    1SAPS   H2X   36   4.607   4.472  10.278 -0.4142 -0.8080 -0.0574
    1SAPS   H2Y   37   4.479   4.569  10.320 -1.8503 -1.1340  0.7928
    1SAPS   C23   38   4.453   3.968  10.212 -0.0458 -0.2850  0.2792
    1SAPS   H3R   39   4.542   3.955  10.277  0.3323  3.0344  0.6001
    1SAPS   H3S   40   4.488   4.061  10.161  1.3498  1.0477  3.4401
    1SAPS   C24   41   4.444   3.861  10.103  0.1367  0.3183 -0.1359
    1SAPS   H4R   42   4.354   3.862  10.038 -1.0047  0.8010  1.3841
    1SAPS   H4S   43   4.418   3.767  10.157 -1.3974  1.9042  2.1015
    1SAPS   C25   44   4.576   3.832  10.035  0.4220 -0.7175  0.5688
    1SAPS   H5R   45   4.650   3.781  10.098 -0.6480 -1.3515  1.3698
    1SAPS   C26   46   4.609   3.872   9.909  0.3687  0.0473 -0.4454
    1SAPS   H6R   47   4.717   3.863   9.889  0.1806 -0.9399 -1.1249
    1SAPS   C27   48   4.526   3.952   9.815  1.1901 -0.1084  0.1370
    1SAPS   H7R   49   4.420   3.971   9.844  0.4681  0.2802 -2.4309
    1SAPS   H7S   50   4.511   3.896   9.720  0.3514  0.0965  0.1380
    1SAPS   C28   51   4.585   4.088   9.808 -0.0277 -0.1670  0.4591
    1SAPS   H8R   52   4.609   4.133   9.906 -0.9881  1.0031  0.1892
    1SAPS   C29   53   4.605   4.157   9.696  0.2754 -0.9759 -0.5080
    1SAPS   H9R   54   4.656   4.254   9.699 -1.0127 -0.2212 -1.7920
    1SAPS  C210   55   4.569   4.105   9.566  0.4032 -0.0082  0.4808
    1SAPS  H10R   56   4.464   4.069   9.560  0.5589 -0.8083  1.9154
    1SAPS  H10S   57   4.621   4.011   9.535  0.5850  1.2062 -3.3650
    1SAPS  C211   58   4.591   4.193   9.449  0.1422 -0.5608 -0.5403
    1SAPS  H11R   59   4.665   4.274   9.460  3.3462 -3.2468 -0.7445
    1SAPS  C212   60   4.551   4.156   9.327  0.4872 -0.1237 -0.0073
    1SAPS  H12R   61   4.581   4.217   9.241  0.6320 -0.1607  0.0177
    1SAPS  C213   62   4.479   4.029   9.286 -0.0278 -0.5699 -0.3169
    1SAPS  H13R   63   4.414   3.992   9.368  0.2234 -1.2557 -0.4127
    1SAPS  H13S   64   4.561   3.961   9.255 -0.1261  1.0498 -4.8536
    1SAPS  C214   65   4.392   4.050   9.162 -0.2158 -0.2669 -0.1546
    1SAPS  H14R   66   4.398   4.149   9.113  0.8271  0.2268  0.9284
    1SAPS  C215   67   4.316   3.951   9.103 -0.2199 -0.1080  0.6317
    1SAPS  H15R   68   4.250   3.975   9.019  0.8668  2.9113  0.5397
    1SAPS  C216   69   4.302   3.807   9.155  0.8142 -0.3649  0.0874
    1SAPS  H16R   70   4.356   3.789   9.251  1.2886 -1.3190 -0.3414
    1SAPS  H16S   71   4.349   3.739   9.080 -0.7098 -0.6875 -0.6106
    1SAPS  C217   72   4.161   3.758   9.189 -0.1118 -0.2121 -0.8632
    1SAPS  H17R   73   4.158   3.666   9.251 -0.9302  0.1287 -0.3761
    1SAPS  H17S   74   4.091   3.753   9.102 -1.7186 -0.6554  0.3903
    1SAPS  C218   75   4.100   3.863   9.284 -0.1469 -0.4362  0.4461
    1SAPS  H18R   76   4.083   3.962   9.237 -0.1479 -0.6991 -0.1212
    1SAPS  H18S   77   4.170   3.889   9.367 -1.3988  1.1822  1.0491
    1SAPS  C219   78   3.965   3.815   9.342 -0.4022 -0.0528  0.2635
    1SAPS  H19R   79   3.981   3.707   9.366  1.3553  0.3792  1.2229
    1SAPS  H19S   80   3.892   3.805   9.259 -2.7848 -1.0985  2.3556
    1SAPS  C220   81   3.927   3.888   9.468  0.0194 -0.3575  0.0877
    1SAPS  H20R   82   4.005   3.889   9.546 -1.0793 -1.4483  1.2513
    1SAPS  H20S   83   3.841   3.838   9.520 -0.2363  1.2772  1.3038
    1SAPS  H20T   84   3.906   3.994   9.443  1.2913 -0.3293 -0.9706
    1SAPS   C33   85   4.417   4.382  10.220  0.1291 -0.3147 -0.7176
    1SAPS   H3X   86   4.315   4.367  10.262 -1.0841  3.2556 -1.9847
    1SAPS   H3Y   87   4.460   4.280  10.208  1.2436  0.1016 -0.3565
    1SAPS   C34   88   4.420   4.440  10.078 -0.7798 -0.5623  0.3287
    1SAPS   H4X   89   4.524   4.456  10.042  0.7760 -0.7930  4.2119
    1SAPS   H4Y   90   4.373   4.541  10.084  0.3732 -0.0860  2.0762
    1SAPS   C35   91   4.343   4.349   9.983 -0.1428  0.3169  0.3356
    1SAPS   H5X   92   4.235   4.335  10.002 -0.3246 -1.2653 -1.5024
    1SAPS   H5Y   93   4.393   4.250   9.980 -1.3738 -0.3017 -1.7598
    1SAPS   C36   94   4.354   4.398   9.838 -0.9160  0.1419 -0.1355
    1SAPS   H6X   95   4.459   4.388   9.801 -0.9154 -1.7382  0.2622
    1SAPS   H6Y   96   4.315   4.502   9.833 -1.2079  0.1193  1.2200
    1SAPS   C37   97   4.277   4.301   9.749  0.5651 -0.0699  0.4319
    1SAPS   H7X   98   4.171   4.321   9.775  0.5791  0.7565 -0.1003
    1SAPS   H7Y   99   4.304   4.193   9.751  0.8832  0.0255  1.3093
    1SAPS   C38  100   4.275   4.341   9.602 -0.1134 -0.2759 -0.2048
    1SAPS   H8X  101   4.380   4.349   9.565  0.3379  2.3603  1.4335
    1SAPS   H8Y  102   4.240   4.446   9.597  1.5774  0.3314 -0.0722
    1SAPS   C39  103   4.193   4.240   9.528 -0.3011 -0.1258 -1.1251
    1SAPS   H9X  104   4.088   4.251   9.564  0.2601  0.9577  0.2702
    1SAPS   H9Y  105   4.236   4.138   9.533  0.0275  0.0573  0.1106
    1SAPS  C310  106   4.187   4.271   9.379 -0.0578 -1.1783 -0.1240
    1SAPS  H10X  107   4.172   4.181   9.316 -0.8963 -0.4958 -0.9290
    1SAPS  H10Y  108   4.282   4.310   9.336 -2.0611  0.7267 -3.2098
    1SAPS  C311  109   4.061   4.356   9.346  0.0035 -1.0575  0.5698
    1SAPS  H11X  110   4.078   4.456   9.391 -0.6731 -0.0186 -1.3528
    1SAPS  H11Y  111   3.969   4.308   9.385 -1.2124 -0.6140 -1.5774
    1SAPS  C312  112   4.052   4.398   9.194 -0.3161  0.0982  0.2418
    1SAPS  H12X  113   4.135   4.468   9.170  0.9424 -1.6450 -0.7911
    1SAPS  H12Y  114   3.957   4.454   9.181 -0.3359  0.4155  1.6766
    1SAPS  C313  115   4.049   4.274   9.095  0.3134  1.0457 -0.3570
    1SAPS  H13X  116   3.962   4.210   9.119  3.6746 -3.6249  0.6730
    1SAPS  H13Y  117   4.144   4.221   9.116 -1.6426 -1.5986  2.7152
    1SAPS  C314  118   4.049   4.324   8.956 -0.3289  0.0964 -0.2870
    1SAPS  H14X  119   4.152   4.354   8.928 -0.4535  0.3621 -0.4639
    1SAPS  H14Y  120   3.998   4.422   8.940  0.7457  0.6858 -0.1909
    1SAPS  C315  121   4.004   4.226   8.849 -0.0789 -0.1562 -0.8691
    1SAPS  H15X  122   4.005   4.279   8.752 -2.3878 -0.6506 -1.2182
    1SAPS  H15Y  123   3.898   4.202   8.868 -0.2766  0.5529 -1.0475
    1SAPS  C316  124   4.087   4.104   8.855  0.3310  0.0046  0.1800
    1SAPS  H16X  125   4.078   4.044   8.949  1.7262 -0.3610  0.0933
    1SAPS  H16Y  126   4.191   4.141   8.854  0.3846 -0.0395  1.5315
    1SAPS  C317  127   4.057   4.007   8.748  0.8532 -0.1069 -0.5737
    1SAPS  H17X  128   4.071   4.069   8.657 -1.4213 -1.4258 -1.9317
    1SAPS  H17Y  129   3.952   3.972   8.758  1.2451 -1.1191  0.1513
    1SAPS  C318  130   4.150   3.890   8.754  0.0941 -0.1184  0.4878
    1SAPS  H18X  131   4.147   3.846   8.856  1.5818  0.0515  0.6294
    1SAPS  H18Y  132   4.256   3.924   8.744 -0.6610  2.4323  0.3375
    1SAPS  H18Z  133   4.124   3.814   8.677  1.6402  0.4597 -0.6695
    2SAPS     N  134   2.229   0.330  11.045  0.2945  0.0354  0.4741
    2SAPS   HN1  135   2.196   0.407  10.983 -2.7479 -2.2481 -1.0396
    2SAPS   HN2  136   2.247   0.245  10.987  1.2673 -0.2051  1.1068
    2SAPS   HN3  137   2.150   0.299  11.106 -0.0224 -1.7781 -0.7522
    2SAPS   C12  138   2.348   0.370  11.121  0.2294 -0.1875  0.0410
    2SAPS  H12A  139   2.338   0.477  11.133 -1.4442 -0.5573  2.6708
    2SAPS   C13  140   2.373   0.303  11.250 -0.1083  0.1314 -0.1666
    2SAPS  O13A  141   2.294   0.213  11.282  0.3273 -0.4281 -0.5483
    2SAPS  O13B  142   2.458   0.345  11.332  0.0822 -0.8390 -0.1698
    2SAPS   C11  143   2.471   0.348  11.031  0.9447  0.1091 -0.1326
    2SAPS  H11A  144   2.458   0.391  10.929  2.4266  1.9634  0.4102
    2SAPS  H11B  145   2.486   0.240  11.009  0.0040 -0.1073  0.2373
    2SAPS     P  146   2.722   0.401  11.013 -0.0463  0.0517 -0.1453
    2SAPS   O13  147   2.761   0.526  10.951 -0.3047  0.1730  0.2269
    2SAPS   O14  148   2.816   0.343  11.113 -0.2496  0.5623 -0.6075
    2SAPS   O12  149   2.587   0.418  11.079  0.3233  0.5273 -0.4002
    2SAPS   O11  150   2.696   0.305  10.883 -0.1398  0.2153  0.0164
    2SAPS    C1  151   2.788   0.206  10.851  0.3444 -0.2272 -0.1786
    2SAPS    HA  152   2.887   0.257  10.844 -0.6927  1.8890 -0.1914
    2SAPS    HB  153   2.784   0.128  10.930 -1.7563 -0.3884 -0.3977
    2SAPS    C2  154   2.758   0.133  10.716 -0.3734  0.9236 -0.1814
    2SAPS    HS  155   2.808   0.034  10.727 -0.0413  0.9803 -1.0912
    2SAPS   O21  156   2.795   0.205  10.601  0.0258 -0.1567 -0.2338
    2SAPS   C21  157   2.925   0.241  10.587  0.3527  0.3620  0.0414
    2SAPS   O22  158   3.011   0.214  10.665  0.4883  0.4079  0.2755
    2SAPS   C22  159   2.939   0.308  10.454  0.1871  0.4069 -0.7565
    2SAPS   H2R  160   2.847   0.363  10.426 -0.5064 -0.1440  0.3766
    2SAPS   H2S  161   3.018   0.382  10.481  0.9979 -1.2413  1.7694
    2SAPS    C3  162   2.608   0.105  10.707  0.0175 -0.4550 -0.2189
    2SAPS    HX  163   2.560   0.205  10.696  0.1262  0.0101  2.6503
    2SAPS    HY  164   2.578   0.074  10.810 -1.8240 -0.2555 -0.6669
    2SAPS   O31  165   2.581   0.008  10.614  0.6290 -0.0676  0.0324
    2SAPS   C31  166   2.457   0.021  10.558  0.0157 -0.0601  0.2674
    2SAPS   O32  167   2.378   0.100  10.599 -0.0938  0.3748 -0.1711
    2SAPS   C32  168   2.439  -0.077  10.441  0.8055  0.2824 -0.1072
    2SAPS   H2X  169   2.431  -0.177  10.489 -2.4029  0.2658 -0.4942
    2SAPS   H2Y  170   2.533  -0.069  10.381  0.7289  2.0096 -0.0480
    2SAPS   C23  171   2.975   0.196  10.344  0.2762  0.6883 -0.1927
    2SAPS   H3R  172   2.896   0.121  10.324  2.3704 -1.1136 -2.3429
    2SAPS   H3S  173   3.058   0.132  10.380 -0.7719 -2.0442 -2.2734
    2SAPS   C24  174   3.029   0.279  10.230 -0.5807  0.2758 -0.8106
    2SAPS   H4R  175   3.116   0.330  10.275  0.5615 -1.1099 -1.3678
    2SAPS   H4S  176   2.938   0.339  10.208 -2.7369 -2.7913 -1.0645
    2SAPS   C25  177   3.075   0.208  10.114 -0.1916 -0.1639 -0.3615
    2SAPS   H5R  178   3.138   0.125  10.148  0.7002 -0.3411 -2.2949
    2SAPS   C26  179   3.055   0.230   9.978  0.7191 -0.1830 -0.5936
    2SAPS   H6R  180   3.104   0.156   9.913  1.8709 -1.3516  1.4878
    2SAPS   C27  181   2.967   0.333   9.921 -0.3676  0.2283 -0.8288
    2SAPS   H7R  182   3.022   0.411   9.865 -0.6158  0.0049 -1.3877
    2SAPS   H7S  183   2.896   0.382   9.991  1.4290 -1.2725  2.2447
    2SAPS   C28  184   2.859   0.261   9.836 -0.2771 -0.3392 -0.1370
    2SAPS   H8R  185   2.789   0.201   9.895 -4.6919  0.4080 -4.0558
    2SAPS   C29  186   2.838   0.280   9.709  0.3882 -0.1907 -0.4510
    2SAPS   H9R  187   2.741   0.254   9.665  0.5295  0.9481 -1.5073
    2SAPS  C210  188   2.928   0.366   9.623 -0.0943  0.0400 -0.6194
    2SAPS  H10R  189   3.029   0.377   9.668 -0.9251 -0.9112  1.6095
    2SAPS  H10S  190   2.902   0.474   9.613  0.0799  0.0096 -1.5426
    2SAPS  C211  191   2.951   0.313   9.485  0.1636  1.0411 -0.3100
    2SAPS  H11R  192   2.944   0.203   9.490 -1.3520  1.1647  2.0181
    2SAPS  C212  193   2.969   0.376   9.368  0.3726  0.2989 -0.0367
    2SAPS  H12R  194   2.985   0.314   9.278 -1.2741  1.8032 -1.4496
    2SAPS  C213  195   2.972   0.523   9.343  0.3761 -0.7396 -0.2312
    2SAPS  H13R  196   3.075   0.563   9.348  0.0941  0.0689 -0.7349
    2SAPS  H13S  197   2.915   0.572   9.424  0.7484 -1.4860  0.5058
    2SAPS  C214  198   2.912   0.561   9.206 -0.1482  0.0844  0.3488
    2SAPS  H14R  199   2.802   0.550   9.206  0.0002 -1.4945  0.1753
    2SAPS  C215  200   2.973   0.581   9.090 -0.1125 -0.9421 -0.3623
    2SAPS  H15R  201   2.919   0.628   9.007  0.1611  1.7897  0.9150
    2SAPS  C216  202   3.120   0.582   9.073 -0.9757  0.0183  0.7876
    2SAPS  H16R  203   3.174   0.567   9.170 -0.6685  0.8812  0.7606
    2SAPS  H16S  204   3.156   0.681   9.038  0.4533  0.2477  2.7297
    2SAPS  C217  205   3.158   0.449   8.996  0.5768 -0.4996 -0.5550
    2SAPS  H17R  206   3.101   0.360   9.029  0.2953 -0.6200 -1.3434
    2SAPS  H17S  207   3.259   0.418   9.030 -0.3513 -2.0297  0.9566
    2SAPS  C218  208   3.158   0.461   8.837  0.4093  0.1094  0.4958
    2SAPS  H18R  209   3.221   0.540   8.792  0.5666 -0.5468 -0.4671
    2SAPS  H18S  210   3.053   0.490   8.817  0.9973  1.1514 -1.2311
    2SAPS  C219  211   3.191   0.325   8.772 -0.2026  0.0779 -0.2157
    2SAPS  H19R  212   3.135   0.237   8.808 -1.2203  1.0077  0.5410
    2SAPS  H19S  213   3.296   0.299   8.795 -0.3796  0.5377  1.2003
    2SAPS  C220  214   3.181   0.341   8.618  0.4838  0.0476  0.4011
    2SAPS  H20R  215   3.073   0.348   8.591  0.2576  5.2652  1.5133
    2SAPS  H20S  216   3.231   0.257   8.566 -0.5919  0.0464 -0.6878
    2SAPS  H20T  217   3.227   0.437   8.587 -2.8687  1.2673 -1.3487
    2SAPS   C33  218   2.309  -0.067  10.356 -0.1324 -0.5482  0.5850
    2SAPS   H3X  219   2.223  -0.063  10.426 -0.8477  1.8056 -0.3156
    2SAPS   H3Y  220   2.294  -0.158  10.295  0.7029  0.3164 -0.9881
    2SAPS   C34  221   2.301   0.053  10.261 -0.8530  0.0577 -0.0566
    2SAPS   H4X  222   2.292   0.141  10.328 -2.4243  0.2904 -0.5314
    2SAPS   H4Y  223   2.210   0.047  10.196  0.4210 -1.9078 -1.7751
    2SAPS   C35  224   2.410   0.072  10.151 -0.3670 -0.0453 -0.3366
    2SAPS   H5X  225   2.398  -0.012  10.079 -0.5335  0.2885 -0.6992
    2SAPS   H5Y  226   2.506   0.054  10.205 -2.0829 -1.0634  2.5977
    2SAPS   C36  227   2.413   0.201  10.070  0.0246 -0.3174 -0.4871
    2SAPS   H6X  228   2.466   0.276  10.132 -0.9979 -0.1515  0.2161
    2SAPS   H6Y  229   2.309   0.232  10.046 -0.5829 -2.2290 -0.4605
    2SAPS   C37  230   2.503   0.181   9.949  0.5514 -0.2757 -0.1771
    2SAPS   H7X  231   2.582   0.107   9.976  0.1148  0.0862  2.3401
    2SAPS   H7Y  232   2.560   0.268   9.909 -2.4714  1.7084 -0.4432
    2SAPS   C38  233   2.413   0.143   9.828 -0.1418  0.4805  0.3986
    2SAPS   H8X  234   2.327   0.212   9.841 -1.3317 -0.9948  0.5652
    2SAPS   H8Y  235   2.388   0.035   9.835  1.8350 -0.0405  0.0405
    2SAPS   C39  236   2.476   0.167   9.688 -0.8080 -0.2319 -0.4566
    2SAPS   H9X  237   2.581   0.131   9.690 -1.4232 -2.0666  0.6564
    2SAPS   H9Y  238   2.469   0.275   9.663 -1.0552 -0.0429  0.4023
    2SAPS  C310  239   2.392   0.100   9.579  0.4931 -0.2945 -0.3080
    2SAPS  H10X  240   2.282   0.102   9.597  1.1021 -0.4431  4.6000
    2SAPS  H10Y  241   2.420  -0.007   9.592  0.4809 -0.1568  0.9213
    2SAPS  C311  242   2.419   0.145   9.433  0.3700 -0.4747 -0.7251
    2SAPS  H11X  243   2.397   0.254   9.425  1.4496 -0.2936 -1.4398
    2SAPS  H11Y  244   2.355   0.086   9.365  1.8454 -2.0917 -0.7604
    2SAPS  C312  245   2.568   0.132   9.406  0.5632 -0.0887 -0.9374
    2SAPS  H12X  246   2.593   0.024   9.403 -0.5161 -0.3545 -0.8470
    2SAPS  H12Y  247   2.632   0.175   9.486 -0.2385 -2.2919  0.9883
    2SAPS  C313  248   2.609   0.188   9.271  0.0651 -0.0345  0.1564
    2SAPS  H13X  249   2.718   0.200   9.261 -0.1328  1.2870 -0.6214
    2SAPS  H13Y  250   2.560   0.288   9.277 -2.1248 -0.9682 -1.0064
    2SAPS  C314  251   2.558   0.109   9.144 -0.2074  0.8004  0.1341
    2SAPS  H14X  252   2.447   0.105   9.134 -0.2330  1.4663  0.0958
    2SAPS  H14Y  253   2.603   0.009   9.153  0.9810  1.1094 -1.7402
    2SAPS  C315  254   2.621   0.155   9.010  0.2216  0.6817  0.4760
    2SAPS  H15X  255   2.729   0.173   9.030  0.3033  1.5540 -0.6817
    2SAPS  H15Y  256   2.577   0.251   8.976 -0.6884 -0.3856 -1.5025
    2SAPS  C316  257   2.616   0.058   8.894  0.4053  0.1684 -0.6361
    2SAPS  H16X  258   2.514   0.017   8.872 -0.4050  1.3680  0.7280
    2SAPS  H16Y  259   2.692  -0.023   8.904 -0.4528 -0.5298  0.4726
    2SAPS  C317  260   2.677   0.101   8.753 -0.1394 -0.1326  0.1080
    2SAPS  H17X  261   2.777   0.144   8.772 -0.7803  1.6423 -0.3101
    2SAPS  H17Y  262   2.614   0.179   8.705  1.3073  0.3179 -1.1306
    2SAPS  C318  263   2.696  -0.019   8.663  1.1469 -0.7770  0.5137
    2SAPS  H18X  264   2.603  -0.073   8.637  0.0725  1.7095 -1.2545
    2SAPS  H18Y  265   2.767  -0.093   8.705 -1.4877 -3.9585 -0.2813
    2SAPS  H18Z  266   2.739   0.008   8.564 -0.6433 -1.2578 -0.4405
    3SAPS     N  267   2.976   1.085  10.940 -0.2718 -0.5274 -0.2474
    3SAPS   HN1  268   2.986   1.111  10.840  0.1052 -0.2340 -0.1353
    3SAPS   HN2  269   2.876   1.061  10.959 -0.3902 -0.7922 -1.1978
    3SAPS   HN3  270   2.998   1.174  10.990  0.8122 -0.0220 -1.5605
    3SAPS   C12  271   3.062   0.962  10.983  0.0763 -0.4684  0.2688
    3SAPS  H12A  272   3.068   0.972  11.091 -3.3223  4.8237  0.3609
    3SAPS   C13  273   2.981   0.830  10.962 -0.0815  0.9873 -0.0160
    3SAPS  O13A  274   2.880   0.828  10.887  0.5634  0.0615  0.6922
    3SAPS  O13B  275   3.037   0.724  10.992 -0.2150 -0.4601  0.1894
    3SAPS   C11  276   3.200   0.967  10.918 -0.5824  0.0308  0.8109
    3SAPS  H11A  277   3.179   0.958  10.809  0.8848  0.3946  0.4770
    3SAPS  H11B  278   3.263   0.879  10.942 -1.5600 -0.7939  0.4525
    3SAPS     P  279   3.393   1.120  11.011 -0.4842  0.2000  0.0030
    3SAPS   O13  280   3.451   1.249  10.965  0.2004 -0.3722  0.5336
    3SAPS   O14  281   3.371   1.101  11.160 -0.4127  0.6394 -0.0219
    3SAPS   O12  282   3.260   1.095  10.930 -0.1538  0.4328 -0.3522
    3SAPS   O11  283   3.495   1.004  10.956 -0.0844  0.6243 -0.2054
    3SAPS    C1  284   3.583   1.029  10.853  0.6084 -0.3559 -0.4561
    3SAPS    HA  285   3.587   1.131  10.810 -0.1049 -0.7919 -1.6260
    3SAPS    HB  286   3.691   1.013  10.876  2.2207  4.0322 -3.5047
    3SAPS    C2  287   3.529   0.947  10.728 -0.9342  0.3758  0.3192
    3SAPS    HS  288   3.439   1.003  10.693 -0.7696  0.7983  0.5588
    3SAPS   O21  289   3.504   0.807  10.764  0.2089  0.3491  0.1317
    3SAPS   C21  290   3.394   0.760  10.720  0.3422  0.7332  0.4448
    3SAPS   O22  291   3.321   0.813  10.639 -0.7299 -0.0100  0.3601
    3SAPS   C22  292   3.358   0.624  10.780 -0.4981  0.4394 -0.2828
    3SAPS   H2R  293   3.379   0.617  10.889 -0.4912  0.1180 -0.3037
    3SAPS   H2S  294   3.248   0.609  10.775 -0.1807 -2.2658 -0.5303
    3SAPS    C3  295   3.636   0.956  10.620 -0.0058  0.2077 -0.5156
    3SAPS    HX  296   3.724   0.906  10.666 -0.2306 -0.0967 -0.4082
    3SAPS    HY  297   3.665   1.063  10.624  0.4919  0.0455  0.5936
    3SAPS   O31  298   3.609   0.886  10.501 -0.1463  0.5764  0.0866
    3SAPS   C31  299   3.550   0.969  10.413  0.6740 -0.1090  0.5856
    3SAPS   O32  300   3.524   1.086  10.426 -0.2509  0.3043 -0.4593
    3SAPS   C32  301   3.507   0.892  10.290  0.1036 -0.1017 -0.4323
    3SAPS   H2X  302   3.402   0.859  10.297  0.0716 -0.1388 -0.9969
    3SAPS   H2Y  303   3.577   0.805  10.290  2.0190  1.3553  0.9086
    3SAPS   C23  304   3.432   0.496  10.721 -0.4524  0.2751  0.1745
    3SAPS   H3R  305   3.415   0.408  10.786  2.2617 -1.5660 -1.4204
    3SAPS   H3S  306   3.541   0.515  10.721 -0.3291 -0.4122  0.2296
    3SAPS   C24  307   3.383   0.459  10.583 -0.1263 -0.1181  0.1771
    3SAPS   H4R  308   3.387   0.550  10.519 -1.1541 -0.7605 -0.8249
    3SAPS   H4S  309   3.279   0.426  10.600  0.4717 -1.5969  1.1052
    3SAPS   C25  310   3.476   0.362  10.516 -0.2971  0.0823 -0.9808
    3SAPS   H5R  311   3.491   0.270  10.574 -1.5838  0.2236 -0.3959
    3SAPS   C26  312   3.544   0.370  10.402 -0.2284 -0.4881 -0.0380
    3SAPS   H6R  313   3.592   0.284  10.354  0.6683 -0.5210  0.8777
    3SAPS   C27  314   3.527   0.490  10.308 -0.0155 -0.0474  0.0983
    3SAPS   H7R  315   3.504   0.590  10.352 -3.2088  0.1426 -1.7156
    3SAPS   H7S  316   3.440   0.458  10.247  2.0191  0.4595 -3.2832
    3SAPS   C28  317   3.637   0.515  10.208  0.2391  0.6287 -0.4970
    3SAPS   H8R  318   3.736   0.512  10.257  0.0263 -0.4642 -0.0847
    3SAPS   C29  319   3.622   0.548  10.079 -0.6832 -0.2471  0.1164
    3SAPS   H9R  320   3.714   0.568  10.022 -0.7326 -0.2377  0.0394
    3SAPS  C210  321   3.498   0.570   9.998 -0.1179  0.4241 -0.6405
    3SAPS  H10R  322   3.506   0.637   9.910  0.2181  0.0052 -0.9350
    3SAPS  H10S  323   3.419   0.609  10.065  0.4406 -0.3049  0.4706
    3SAPS  C211  324   3.452   0.434   9.945 -0.3785  0.0080  0.3390
    3SAPS  H11R  325   3.467   0.350  10.015  1.7818  3.0457  3.9147
    3SAPS  C212  326   3.379   0.416   9.830 -0.2712 -0.0912 -0.1457
    3SAPS  H12R  327   3.358   0.309   9.814 -1.6393 -0.0185  0.9002
    3SAPS  C213  328   3.347   0.532   9.734  0.0297  0.0310  0.3201
    3SAPS  H13R  329   3.444   0.579   9.706  1.0760 -1.6465  0.9907
    3SAPS  H13S  330   3.296   0.612   9.791 -2.0921 -0.1158 -1.2554
    3SAPS  C214  331   3.281   0.499   9.602 -0.2881  0.8684  0.1030
    3SAPS  H14R  332   3.188   0.548   9.569  0.7506  1.5666 -1.9870
    3SAPS  C215  333   3.340   0.425   9.507 -0.5244  0.0462  0.0384
    3SAPS  H15R  334   3.299   0.406   9.407 -1.3161 -1.2543  0.5875
    3SAPS  C216  335   3.483   0.362   9.509 -0.3543 -0.8451 -0.2286
    3SAPS  H16R  336   3.480   0.251   9.510 -0.2713 -0.9155  3.0077
    3SAPS  H16S  337   3.533   0.385   9.605  0.3195  4.6371 -1.5569
    3SAPS  C217  338   3.590   0.404   9.403  0.3589 -0.0512 -0.3985
    3SAPS  H17R  339   3.679   0.341   9.421  2.7274  2.4584 -2.5046
    3SAPS  H17S  340   3.612   0.513   9.413  0.6247 -0.2636  1.8488
    3SAPS  C218  341   3.543   0.392   9.257 -0.4759 -0.7846 -0.4598
    3SAPS  H18R  342   3.435   0.420   9.255  0.1453  1.9482  0.6333
    3SAPS  H18S  343   3.547   0.284   9.229  3.5467 -0.4122 -1.9004
    3SAPS  C219  344   3.626   0.473   9.148 -0.3099 -0.5755 -0.2404
    3SAPS  H19R  345   3.628   0.574   9.193 -0.6199 -1.2463  1.3382
    3SAPS  H19S  346   3.571   0.489   9.052  0.4617  2.4334 -0.2777
    3SAPS  C220  347   3.774   0.423   9.111 -0.2990  0.1499  0.0268
    3SAPS  H20R  348   3.789   0.313   9.118  1.7012  0.4029  0.0727
    3SAPS  H20S  349   3.842   0.458   9.191 -2.3254  1.8202  1.1446
    3SAPS  H20T  350   3.803   0.465   9.013 -1.9850  1.5904  0.0966
    3SAPS   C33  351   3.508   0.990  10.172 -0.7078  0.1947  0.5806
    3SAPS   H3X  352   3.611   1.025  10.152  0.1464 -0.9670  2.6892
    3SAPS   H3Y  353   3.432   1.071  10.182 -1.7644 -0.2523 -2.8738
    3SAPS   C34  354   3.482   0.913  10.038 -0.2608  0.4768  0.2428
    3SAPS   H4X  355   3.389   0.853  10.042 -0.3947  0.7321  1.3144
    3SAPS   H4Y  356   3.559   0.834  10.028  0.0345  0.7652  0.1885
    3SAPS   C35  357   3.496   1.003   9.915 -0.3300 -0.1909 -0.0939
    3SAPS   H5X  358   3.602   1.037   9.911  0.3816 -2.0198  1.5254
    3SAPS   H5Y  359   3.431   1.092   9.928 -1.4672 -1.1279  0.9328
    3SAPS   C36  360   3.474   0.928   9.786  0.5327 -0.4025 -0.5442
    3SAPS   H6X  361   3.367   0.899   9.785 -0.3027  2.3095  1.1498
    3SAPS   H6Y  362   3.532   0.835   9.807  0.7029  0.0306  0.9944
    3SAPS   C37  363   3.536   0.972   9.653  0.1975 -0.9505 -0.0203
    3SAPS   H7X  364   3.647   0.974   9.649  0.1831  1.0823 -1.4774
    3SAPS   H7Y  365   3.498   1.074   9.631 -1.2482 -1.2803  0.8621
    3SAPS   C38  366   3.495   0.875   9.537 -0.4150  0.0421  0.0893
    3SAPS   H8X  367   3.406   0.815   9.567  0.4688 -0.3539  2.0970
    3SAPS   H8Y  368   3.584   0.814   9.511 -1.3541 -0.5591 -1.9250
    3SAPS   C39  369   3.454   0.953   9.409  0.0041 -0.0970 -0.2693
    3SAPS   H9X  370   3.536   1.027   9.391 -1.0183  0.8492 -1.1672
    3SAPS   H9Y  371   3.355   1.002   9.417  1.3652  2.8211 -0.0080
    3SAPS  C310  372   3.448   0.862   9.290 -0.0440  0.5242 -0.6316
    3SAPS  H10X  373   3.399   0.766   9.318  3.6305 -0.9899  1.2749
    3SAPS  H10Y  374   3.540   0.825   9.240  0.5544  0.8315  0.2200
    3SAPS  C311  375   3.356   0.924   9.181 -0.5360 -0.7782 -0.0060
    3SAPS  H11X  376   3.357   1.035   9.191 -2.7877 -0.5220 -1.8770
    3SAPS  H11Y  377   3.250   0.900   9.203 -0.2951 -0.1985  1.9833
    3SAPS  C312  378   3.379   0.876   9.036  0.1915  0.3155  0.5060
    3SAPS  H12X  379   3.371   0.765   9.025 -0.2254  0.0203  3.1493
    3SAPS  H12Y  380   3.480   0.905   9.002 -0.7437  0.3183 -2.5325
    3SAPS  C313  381   3.301   0.955   8.918 -0.0984  0.1997 -0.3297
    3SAPS  H13X  382   3.316   1.064   8.928  0.6027 -0.0487  1.8966
    3SAPS  H13Y  383   3.192   0.959   8.937 -0.1324  0.3606 -0.5611
    3SAPS  C314  384   3.311   0.896   8.777  0.9694 -0.5718 -0.1064
    3SAPS  H14X  385   3.227   0.937   8.715  1.1223  0.4089  0.3077
    3SAPS  H14Y  386   3.300   0.786   8.786 -2.1575 -0.2454  2.0182
    3SAPS  C315  387   3.447   0.930   8.698  0.1607 -0.2211 -0.2741
    3SAPS  H15X  388   3.528   0.875   8.750 -1.7062 -2.8209  0.0939
    3SAPS  H15Y  389   3.453   1.041   8.704 -0.2782 -0.1922 -0.3589
    3SAPS  C316  390   3.453   0.883   8.551  0.1629 -0.4994 -0.5217
    3SAPS  H16X  391   3.562   0.879   8.527 -0.5751 -0.2839 -4.5533
    3SAPS  H16Y  392   3.419   0.965   8.485  2.6811  3.5362  2.6690
    3SAPS  C317  393   3.391   0.750   8.504  0.9828  0.0155  0.0440
    3SAPS  H17X  394   3.398   0.739   8.393  0.7575  1.1340 -0.0946
    3SAPS  H17Y  395   3.285   0.747   8.534  0.6199  4.0782 -0.2441
    3SAPS  C318  396   3.455   0.618   8.559  0.2840  0.4264  0.2742
    3SAPS  H18X  397   3.401   0.536   8.507 -1.0898  0.8575  0.9634
    3SAPS  H18Y  398   3.439   0.600   8.668 -1.2380  0.0813  0.0250
    3SAPS  H18Z  399   3.557   0.598   8.519 -0.7551 -2.2862 -1.2459
    4SAPS     N  400   5.681   0.615  11.052  0.6052 -0.7239  0.5562
    4SAPS   HN1  401   5.646   0.693  11.112  1.9450  0.4395 -0.1021
    4SAPS   HN2  402   5.775   0.638  11.013  0.5455 -3.7479 -1.7139
    4SAPS   HN3  403   5.619   0.592  10.972  2.1957 -0.4266 -0.8289
    4SAPS   C12  404   5.691   0.492  11.134 -0.5584 -0.9120  0.8248
    4SAPS  H12A  405   5.764   0.502  11.213  0.7113  2.0254 -0.5641
    4SAPS   C13  406   5.554   0.441  11.186  0.3738 -0.4846  0.5548
    4SAPS  O13A  407   5.453   0.485  11.121  0.3481 -0.1717 -0.7076
    4SAPS  O13B  408   5.560   0.330  11.248  0.6061  0.1269 -0.0533
    4SAPS   C11  409   5.751   0.377  11.046  0.8636  0.4409 -0.1701
    4SAPS  H11A  410   5.676   0.351  10.968  1.1695 -2.8001  0.4661
    4SAPS  H11B  411   5.781   0.287  11.104  1.7251  0.1367 -1.0599
    4SAPS     P  412   5.948   0.321  10.885  0.1456 -0.1659  0.0120
    4SAPS   O13  413   6.080   0.384  10.849  0.4616 -0.2145 -0.0585
    4SAPS   O14  414   5.946   0.181  10.937 -0.4247 -0.3286  0.1962
    4SAPS   O12  415   5.875   0.421  10.991  0.5024 -0.7836 -0.0417
    4SAPS   O11  416   5.859   0.338  10.748  0.2688  0.1872  0.4629
    4SAPS    C1  417   5.825   0.469  10.701  0.3043  0.3907 -0.4111
    4SAPS    HA  418   5.727   0.456  10.651  0.1427  1.8449 -0.5338
    4SAPS    HB  419   5.818   0.547  10.780 -1.2552  0.9235 -1.0334
    4SAPS    C2  420   5.928   0.518  10.595 -0.3486 -0.5194 -0.9915
    4SAPS    HS  421   6.026   0.539  10.643 -1.4712  1.2600  0.6563
    4SAPS   O21  422   5.888   0.640  10.529  0.3092 -0.9911 -0.3327
    4SAPS   C21  423   5.874   0.750  10.606 -1.0206  0.3133 -0.5557
    4SAPS   O22  424   5.913   0.757  10.724 -0.2686 -0.0120  0.0205
    4SAPS   C22  425   5.835   0.872  10.526 -0.1853  0.4199 -0.0023
    4SAPS   H2R  426   5.879   0.862  10.424 -1.1571  2.3019 -0.6415
    4SAPS   H2S  427   5.725   0.884  10.520  0.0336  2.2228 -1.1312
    4SAPS    C3  428   5.952   0.416  10.480 -0.2275  0.1587  0.1163
    4SAPS    HX  429   5.875   0.422  10.399 -0.3161  0.4146  0.2183
    4SAPS    HY  430   5.946   0.314  10.524 -0.2501 -1.2018 -2.7769
    4SAPS   O31  431   6.082   0.428  10.409  0.1362 -0.5681 -0.2264
    4SAPS   C31  432   6.176   0.339  10.439  0.8079  0.2134 -0.1903
    4SAPS   O32  433   6.159   0.238  10.506 -0.1372 -0.1210 -0.3210
    4SAPS   C32  434   6.314   0.389  10.391 -0.2353 -0.1138 -0.1518
    4SAPS   H2X  435   6.381   0.341  10.466 -0.7039  1.0997  1.0885
    4SAPS   H2Y  436   6.315   0.498  10.407  0.5661 -0.3612  1.7049
    4SAPS   C23  437   5.884   1.003  10.587 -0.0431 -0.4320 -0.1857
    4SAPS   H3R  438   5.994   1.004  10.595 -0.0520 -0.4537 -0.0514
    4SAPS   H3S  439   5.842   1.007  10.690 -0.8364 -0.2739 -0.5068
    4SAPS   C24  440   5.844   1.129  10.509 -0.0453 -0.0173 -0.1871
    4SAPS   H4R  441   5.852   1.116  10.398  0.5449  0.6936 -0.2363
    4SAPS   H4S  442   5.915   1.211  10.535 -1.8646  1.4721  0.2454
    4SAPS   C25  443   5.709   1.188  10.537  0.2248 -0.3045 -0.1644
    4SAPS   H5R  444   5.697   1.228  10.639 -1.1230 -0.2926 -0.3124
    4SAPS   C26  445   5.605   1.172  10.451  0.1418  0.0218 -0.2032
    4SAPS   H6R  446   5.510   1.217  10.485 -0.3368  0.4319 -1.9958
    4SAPS   C27  447   5.610   1.095  10.317  0.2659  0.1373  0.4460
    4SAPS   H7R  448   5.686   1.014  10.319  0.6928  0.3470 -2.2924
    4SAPS   H7S  449   5.646   1.169  10.242  1.3445 -0.8735 -0.0762
    4SAPS   C28  450   5.484   1.026  10.275  0.2961  0.7649 -0.0961
    4SAPS   H8R  451   5.432   0.978  10.360  1.5871  1.2423  1.0124
    4SAPS   C29  452   5.425   1.016  10.154 -0.8647 -0.2706 -0.6569
    4SAPS   H9R  453   5.321   0.982  10.148 -1.6810  1.9612 -0.0702
    4SAPS  C210  454   5.474   1.084  10.023  0.1000 -0.0613  0.0441
    4SAPS  H10R  455   5.511   1.179  10.067 -0.6029 -0.6628  2.0927
    4SAPS  H10S  456   5.396   1.111   9.949  1.2526  0.8832 -0.8664
    4SAPS  C211  457   5.585   1.005   9.966 -0.0552 -0.1063 -0.3226
    4SAPS  H11R  458   5.660   0.973  10.039 -0.5170  1.3641  0.8406
    4SAPS  C212  459   5.601   0.968   9.833  0.0555 -0.3036  0.5903
    4SAPS  H12R  460   5.684   0.899   9.813 -0.1173 -0.7335  1.3062
    4SAPS  C213  461   5.521   1.010   9.712 -0.1629 -0.1655  0.1785
    4SAPS  H13R  462   5.578   1.075   9.642  3.6869 -0.8512  2.3558
    4SAPS  H13S  463   5.431   1.071   9.732 -0.8863 -0.0682 -2.9018
    4SAPS  C214  464   5.475   0.885   9.639  0.5544  0.8978 -0.1934
    4SAPS  H14R  465   5.438   0.810   9.710  1.5452 -1.0716 -1.6520
    4SAPS  C215  466   5.476   0.862   9.504  0.5405  0.0820  0.6111
    4SAPS  H15R  467   5.445   0.766   9.461 -0.2719  1.7440 -2.8113
    4SAPS  C216  468   5.516   0.967   9.398 -0.2876 -0.0081  0.3284
    4SAPS  H16R  469   5.594   0.927   9.329  0.4618 -2.3776  2.3854
    4SAPS  H16S  470   5.572   1.052   9.441  1.4021  0.2565 -2.1834
    4SAPS  C217  471   5.393   1.027   9.336 -0.4118 -0.5444  0.1346
    4SAPS  H17R  472   5.421   1.124   9.288  0.1303 -0.8358 -0.1481
    4SAPS  H17S  473   5.337   1.070   9.422  2.1624 -1.7086  2.5365
    4SAPS  C218  474   5.312   0.944   9.239 -1.1577 -0.1613  0.2522
    4SAPS  H18R  475   5.275   0.851   9.289  0.0119  0.5910  2.6481
    4SAPS  H18S  476   5.386   0.907   9.164 -0.7754 -2.8832  1.8167
    4SAPS  C219  477   5.191   1.016   9.178  0.5569  0.2039  0.7682
    4SAPS  H19R  478   5.148   0.960   9.092  0.6012 -0.6810  1.3092
    4SAPS  H19S  479   5.224   1.110   9.129 -1.6233  1.1653  1.0173
    4SAPS  C220  480   5.079   1.039   9.277  0.5121 -0.3882 -0.0630
    4SAPS  H20R  481   5.026   0.941   9.276  0.4885 -0.3836  0.4629
    4SAPS  H20S  482   5.019   1.129   9.250  0.7184 -0.3621 -0.4436
    4SAPS  H20T  483   5.122   1.048   9.379  1.9763  0.4862 -0.7228
    4SAPS   C33  484   6.340   0.361  10.241 -0.4024  0.1267 -0.0399
    4SAPS   H3X  485   6.329   0.252  10.222 -1.2120 -0.0946  1.5699
    4SAPS   H3Y  486   6.446   0.393  10.227  0.2793 -2.0734 -0.3800
    4SAPS   C34  487   6.276   0.449  10.136  1.4284 -0.5142  0.2348
    4SAPS   H4X  488   6.282   0.560  10.145 -0.1452 -0.3663 -0.1727
    4SAPS   H4Y  489   6.168   0.422  10.131  1.1563  0.7140 -2.6050
    4SAPS   C35  490   6.322   0.414   9.998 -0.4966  0.0178  0.1834
    4SAPS   H5X  491   6.329   0.304   9.988  1.7436  0.0173  1.2446
    4SAPS   H5Y  492   6.426   0.453  10.004  0.5737 -2.6110 -0.2718
    4SAPS   C36  493   6.250   0.489   9.886  0.1890 -0.1430 -0.2061
    4SAPS   H6X  494   6.272   0.597   9.897  0.4090 -0.1786 -0.2868
    4SAPS   H6Y  495   6.140   0.498   9.878  0.1534  1.2007  1.2867
    4SAPS   C37  496   6.311   0.459   9.746  0.5421 -0.0357 -0.0892
    4SAPS   H7X  497   6.297   0.351   9.723  0.4986  0.2930 -1.7350
    4SAPS   H7Y  498   6.417   0.493   9.741  1.0031 -1.5428 -3.3064
    4SAPS   C38  499   6.239   0.531   9.637 -0.0473  0.6308 -0.0190
    4SAPS   H8X  500   6.239   0.640   9.660 -2.4740  0.5130  0.7922
    4SAPS   H8Y  501   6.136   0.491   9.627  0.7504 -1.2339 -1.3445
    4SAPS   C39  502   6.313   0.520   9.499 -0.0727 -0.3144  1.0704
    4SAPS   H9X  503   6.315   0.412   9.475 -0.4464 -0.6242  2.3794
    4SAPS   H9Y  504   6.416   0.561   9.505 -0.8817  2.0913 -0.1416
    4SAPS  C310  505   6.238   0.605   9.399  0.4150 -0.4784  0.3064
    4SAPS  H10X  506   6.263   0.712   9.418  2.0307 -0.6529 -0.6829
    4SAPS  H10Y  507   6.130   0.581   9.411  0.4352  0.2951  2.5110
    4SAPS  C311  508   6.276   0.574   9.250  0.2046  0.4795 -0.0678
    4SAPS  H11X  509   6.243   0.470   9.231  2.3119 -0.4046  0.8153
    4SAPS  H11Y  510   6.386   0.583   9.238  0.4724 -1.7606  0.2327
    4SAPS  C312  511   6.202   0.664   9.149  0.2109  0.1601  0.5923
    4SAPS  H12X  512   6.222   0.773   9.160  3.1884  0.1850 -3.2164
    4SAPS  H12Y  513   6.092   0.656   9.166 -0.1256  2.9027  0.1772
    4SAPS  C313  514   6.237   0.634   9.005 -0.6359  0.0403  0.2223
    4SAPS  H13X  515   6.216   0.525   8.995 -2.2969  0.3105  0.5220
    4SAPS  H13Y  516   6.343   0.653   8.977 -0.9687 -0.8718 -1.9182
    4SAPS  C314  517   6.152   0.705   8.892  0.1628 -0.7588 -0.2223
    4SAPS  H14X  518   6.044   0.679   8.901  0.1470 -1.0451 -1.1157
    4SAPS  H14Y  519   6.189   0.678   8.791  0.4685  2.1569 -0.9514
    4SAPS  C315  520   6.161   0.861   8.915  0.2514  0.2691  0.2435
    4SAPS  H15X  521   6.269   0.887   8.919  0.0929  2.0286 -3.0504
    4SAPS  H15Y  522   6.110   0.886   9.010  0.6208 -2.4039  1.2352
    4SAPS  C316  523   6.104   0.941   8.793 -0.1453 -0.1693  0.1631
    4SAPS  H16X  524   5.993   0.943   8.798 -0.4556 -1.2156 -3.2874
    4SAPS  H16Y  525   6.133   0.886   8.701 -1.3837  0.4273 -0.6074
    4SAPS  C317  526   6.174   1.082   8.787  0.2536  0.0335 -0.9202
    4SAPS  H17X  527   6.284   1.067   8.791  0.2921  0.4567  2.3280
    4SAPS  H17Y  528   6.160   1.133   8.885 -0.0332 -1.3295 -0.2270
    4SAPS  C318  529   6.139   1.171   8.672 -0.1446 -0.1909 -0.7228
    4SAPS  H18X  530   6.148   1.131   8.568 -0.4828  0.4861 -1.0172
    4SAPS  H18Y  531   6.198   1.264   8.686  1.0257 -0.5131 -2.9696
    4SAPS  H18Z  532   6.031   1.196   8.675  0.3322  2.0819 -0.7903
    5SAPS     N  533   2.180   1.020  10.967  0.4870  0.1849 -0.3642
    5SAPS   HN1  534   2.213   0.925  10.939  0.5537 -0.0744  0.5778
    5SAPS   HN2  535   2.233   1.029  11.056  2.4294 -0.7752 -1.3623
    5SAPS   HN3  536   2.078   1.019  10.986  0.7753  0.3914  1.3160
    5SAPS   C12  537   2.194   1.143  10.881 -0.1461  0.4819  0.0334
    5SAPS  H12A  538   2.142   1.125  10.788  2.0490 -0.0904 -1.1547
    5SAPS   C13  539   2.150   1.274  10.946  0.0871 -0.0985  0.0420
    5SAPS  O13A  540   2.122   1.273  11.069  0.1110 -1.0643  0.2283
    5SAPS  O13B  541   2.164   1.380  10.879  0.0102  0.1454 -0.7409
    5SAPS   C11  542   2.343   1.137  10.825  0.1253  0.6436  0.0227
    5SAPS  H11A  543   2.337   1.198  10.732  2.6201 -2.3961 -2.3882
    5SAPS  H11B  544   2.348   1.032  10.789 -3.5348 -0.4487  2.2438
    5SAPS     P  545   2.585   1.201  10.858 -0.2811  0.4390  0.1312
    5SAPS   O13  546   2.594   1.348  10.826  0.2864  0.2734 -0.6696
    5SAPS   O14  547   2.684   1.155  10.957  0.3667 -0.5296 -0.1397
    5SAPS   O12  548   2.444   1.176  10.910  0.3717 -0.2615 -0.0400
    5SAPS   O11  549   2.597   1.118  10.724  0.0978 -0.0983  0.1278
    5SAPS    C1  550   2.706   1.127  10.631  0.0422  0.5693 -0.5762
    5SAPS    HA  551   2.795   1.164  10.686 -0.3062 -1.0905  1.2357
    5SAPS    HB  552   2.739   1.024  10.604 -1.1182 -0.7896  2.7108
    5SAPS    C2  553   2.679   1.225  10.510  0.3409  0.8605 -0.4650
    5SAPS    HS  554   2.647   1.323  10.551 -0.2163  0.0570  1.1292
    5SAPS   O21  555   2.571   1.164  10.426  0.2093  0.2346  0.6245
    5SAPS   C21  556   2.450   1.221  10.425  0.2888  0.5223  0.4696
    5SAPS   O22  557   2.406   1.311  10.493 -0.3419  0.2953  0.2924
    5SAPS   C22  558   2.375   1.150  10.319  0.3620 -0.4465 -0.0993
    5SAPS   H2R  559   2.445   1.110  10.243 -2.2401 -1.4360 -2.1482
    5SAPS   H2S  560   2.317   1.062  10.353 -0.0463 -0.3920 -0.6500
    5SAPS    C3  561   2.803   1.249  10.429 -0.0458 -0.0810  0.2729
    5SAPS    HX  562   2.859   1.157  10.403 -2.6248 -1.4880 -0.7287
    5SAPS    HY  563   2.873   1.320  10.479  1.1403 -1.5261  0.7399
    5SAPS   O31  564   2.757   1.303  10.298 -0.5878 -0.1790 -0.2288
    5SAPS   C31  565   2.736   1.438  10.278  0.0632 -0.2168  0.0109
    5SAPS   O32  566   2.752   1.515  10.368  0.3519  0.7173 -0.3545
    5SAPS   C32  567   2.677   1.475  10.145  0.0107 -0.4427  0.0312
    5SAPS   H2X  568   2.683   1.586  10.140 -0.5998 -0.4163 -0.1178
    5SAPS   H2Y  569   2.575   1.433  10.146 -0.1853 -0.0015  1.6293
    5SAPS   C23  570   2.293   1.255  10.231  0.4182 -0.1890  0.2210
    5SAPS   H3R  571   2.347   1.332  10.172 -1.2376 -0.3919 -1.6766
    5SAPS   H3S  572   2.217   1.303  10.295  0.5432 -0.0953  0.3001
    5SAPS   C24  573   2.204   1.179  10.129 -0.6204 -0.7832  0.7260
    5SAPS   H4R  574   2.162   1.253  10.058  3.4316  0.8673 -0.2214
    5SAPS   H4S  575   2.117   1.130  10.177 -1.7910  1.8385  1.4484
    5SAPS   C25  576   2.281   1.076  10.053  0.4180 -0.0865 -0.1629
    5SAPS   H5R  577   2.302   0.991  10.119 -0.4266  1.2796  1.9295
    5SAPS   C26  578   2.329   1.092   9.925 -0.7596  0.0582  0.1345
    5SAPS   H6R  579   2.372   0.999   9.884  2.1163  0.5031  1.8735
    5SAPS   C27  580   2.320   1.212   9.831 -0.2634  0.7203 -0.4206
    5SAPS   H7R  581   2.410   1.234   9.770 -0.1398  0.3618 -0.3685
    5SAPS   H7S  582   2.301   1.304   9.891 -0.0778  0.0555  0.6959
    5SAPS   C28  583   2.200   1.191   9.731 -0.0859  0.3717  0.0915
    5SAPS   H8R  584   2.099   1.203   9.772 -0.1058  0.6010 -0.0215
    5SAPS   C29  585   2.205   1.118   9.616  0.1626 -0.7816 -0.5824
    5SAPS   H9R  586   2.108   1.106   9.565 -0.4889 -2.2617  0.9248
    5SAPS  C210  587   2.335   1.053   9.560 -0.4874  0.2742 -0.1153
    5SAPS  H10R  588   2.311   0.957   9.509  1.6869  0.9141 -2.5572
    5SAPS  H10S  589   2.394   1.039   9.653  0.3411  1.4187 -0.4490
    5SAPS  C211  590   2.395   1.149   9.454 -0.7240  0.1773  0.3856
    5SAPS  H11R  591   2.465   1.225   9.490  1.0446  0.2443 -2.8061
    5SAPS  C212  592   2.355   1.159   9.329 -0.0723  0.2307  0.4603
    5SAPS  H12R  593   2.403   1.238   9.268 -0.9762 -0.0330 -0.6217
    5SAPS  C213  594   2.254   1.069   9.266 -0.8431 -0.0453 -0.2127
    5SAPS  H13R  595   2.172   1.124   9.213 -0.7116 -0.8696 -1.3068
    5SAPS  H13S  596   2.198   1.007   9.340 -0.3711 -1.0951 -0.7195
    5SAPS  C214  597   2.327   0.987   9.154 -0.3704 -0.1894 -0.4486
    5SAPS  H14R  598   2.381   0.898   9.187  0.4732  0.4474 -0.0849
    5SAPS  C215  599   2.314   1.015   9.023  0.1918 -0.2837 -0.3192
    5SAPS  H15R  600   2.389   0.952   8.972  1.2293 -0.7652  1.7311
    5SAPS  C216  601   2.236   1.130   8.954 -0.7659  0.2136 -0.7834
    5SAPS  H16R  602   2.234   1.226   9.009  1.3233  0.6869 -1.4367
    5SAPS  H16S  603   2.129   1.104   8.938 -1.2486  1.7728 -0.2182
    5SAPS  C217  604   2.303   1.172   8.816  0.1383 -0.2376  0.1785
    5SAPS  H17R  605   2.414   1.173   8.828  0.3318 -1.6526 -1.2136
    5SAPS  H17S  606   2.270   1.271   8.779 -2.0218 -1.2899 -0.8817
    5SAPS  C218  607   2.275   1.072   8.704 -0.4540 -0.1001  0.1865
    5SAPS  H18R  608   2.293   0.968   8.739  0.2381 -0.1771 -0.3904
    5SAPS  H18S  609   2.169   1.086   8.672 -0.6200 -1.4784  0.0743
    5SAPS  C219  610   2.371   1.093   8.584  0.5543 -0.5501  0.5837
    5SAPS  H19R  611   2.361   1.197   8.545  0.5079 -1.8734 -3.3361
    5SAPS  H19S  612   2.333   1.028   8.503  1.7955 -0.3112 -0.2019
    5SAPS  C220  613   2.516   1.050   8.610 -0.1820  0.1997 -0.2722
    5SAPS  H20R  614   2.570   1.080   8.517 -2.3662 -0.9076 -1.9941
    5SAPS  H20S  615   2.521   0.939   8.607  0.6412  0.2078 -3.2186
    5SAPS  H20T  616   2.557   1.085   8.707  0.1730  0.1019 -0.3852
    5SAPS   C33  617   2.752   1.417  10.027  0.0395 -0.1274  1.1283
    5SAPS   H3X  618   2.747   1.306  10.033  1.5215 -0.2453  0.6548
    5SAPS   H3Y  619   2.859   1.444  10.038  0.4133  1.3614 -3.9698
    5SAPS   C34  620   2.697   1.469   9.891 -0.6430  0.0043  0.1395
    5SAPS   H4X  621   2.677   1.578   9.900 -0.5065 -0.0077  0.6451
    5SAPS   H4Y  622   2.604   1.414   9.863 -0.7274  0.6757 -0.9256
    5SAPS   C35  623   2.799   1.436   9.778 -0.0039 -0.0656  0.9702
    5SAPS   H5X  624   2.819   1.327   9.788 -1.9575 -0.6267 -0.6487
    5SAPS   H5Y  625   2.890   1.499   9.787 -0.5272  0.8645  0.0218
    5SAPS   C36  626   2.732   1.453   9.638  0.2005 -0.1412  0.2256
    5SAPS   H6X  627   2.650   1.528   9.649 -0.1410 -0.4095 -0.3923
    5SAPS   H6Y  628   2.675   1.362   9.608 -2.0360  1.5340 -1.0265
    5SAPS   C37  629   2.833   1.510   9.534 -0.5090 -0.1624 -0.3781
    5SAPS   H7X  630   2.938   1.488   9.565 -0.2849  2.8181  1.3581
    5SAPS   H7Y  631   2.825   1.620   9.537 -1.7899 -0.2345 -0.8922
    5SAPS   C38  632   2.802   1.462   9.389 -0.5802  0.1508 -0.3428
    5SAPS   H8X  633   2.696   1.491   9.372 -0.5002  0.9064  0.3361
    5SAPS   H8Y  634   2.805   1.351   9.389 -1.5571  0.1142 -0.3679
    5SAPS   C39  635   2.895   1.541   9.293 -0.0392  0.1213  0.7816
    5SAPS   H9X  636   2.997   1.545   9.337 -0.5118  0.6138  1.8717
    5SAPS   H9Y  637   2.861   1.646   9.301 -0.6220 -0.0083  0.1116
    5SAPS  C310  638   2.883   1.477   9.159  0.0985 -0.3403  0.0145
    5SAPS  H10X  639   2.790   1.416   9.147  0.7970 -1.7064  1.1704
    5SAPS  H10Y  640   2.955   1.394   9.173 -1.0606 -1.5905 -1.0642
    5SAPS  C311  641   2.902   1.565   9.036  0.5350  0.3955  0.2798
    5SAPS  H11X  642   3.000   1.616   9.038  0.0467  1.5687 -1.8844
    5SAPS  H11Y  643   2.828   1.647   9.021  1.0810  0.5890 -1.6283
    5SAPS  C312  644   2.881   1.487   8.900  0.0553 -0.4060 -0.6336
    5SAPS  H12X  645   2.807   1.404   8.907  1.0001 -1.1298  2.1669
    5SAPS  H12Y  646   2.984   1.452   8.875  1.7107  2.7041  1.1873
    5SAPS  C313  647   2.836   1.581   8.783  0.2961 -0.5433 -0.9045
    5SAPS  H13X  648   2.767   1.648   8.838 -1.1528 -2.6716 -0.0153
    5SAPS  H13Y  649   2.779   1.504   8.729 -1.2630 -0.9383  1.1692
    5SAPS  C314  650   2.946   1.652   8.712  0.1549 -0.0956 -0.4473
    5SAPS  H14X  651   3.021   1.579   8.675 -0.2742 -0.2160 -1.1011
    5SAPS  H14Y  652   2.994   1.718   8.787  3.0004 -2.1889 -0.2405
    5SAPS  C315  653   2.901   1.718   8.581 -0.2440  0.3589 -0.5060
    5SAPS  H15X  654   2.851   1.812   8.612 -5.1933 -1.9082 -0.8299
    5SAPS  H15Y  655   2.825   1.655   8.530  0.8193 -1.6303  0.2407
    5SAPS  C316  656   3.012   1.739   8.476 -0.0159 -0.2820 -0.1495
    5SAPS  H16X  657   2.954   1.767   8.385 -4.2068 -0.9110  2.0458
    5SAPS  H16Y  658   3.064   1.642   8.462 -0.6533 -0.4717 -1.2782
    5SAPS  C317  659   3.110   1.852   8.514 -0.3612 -0.3611 -0.5037
    5SAPS  H17X  660   3.168   1.826   8.605  1.1146 -2.2511 -1.8820
    5SAPS  H17Y  661   3.053   1.948   8.517 -1.3886 -0.9719 -0.0046
    5SAPS  C318  662   3.221   1.883   8.417 -0.0527 -0.2260 -0.0373
    5SAPS  H18X  663   3.184   1.889   8.313 -2.4459 -0.3143  0.7642
    5SAPS  H18Y  664   3.301   1.806   8.403 -0.0126 -0.3551  0.8393
    5SAPS  H18Z  665   3.279   1.973   8.448 -0.2397 -0.1953  0.2263
    6SAPS     N  666   1.978   5.959  11.190  0.0613  0.7473 -0.5857
    6SAPS   HN1  667   2.016   6.055  11.181 -1.0245  1.3960  1.0681
    6SAPS   HN2  668   2.049   5.888  11.217 -1.0683 -0.1359  0.1757
    6SAPS   HN3  669   1.937   5.930  11.099 -2.6139 -2.3155  1.3668
    6SAPS   C12  670   1.869   5.980  11.288  0.2564 -0.1423 -0.4886
    6SAPS  H12A  671   1.863   5.891  11.350  2.6662 -1.1542 -1.5868
    6SAPS   C13  672   1.884   6.102  11.382 -0.4435  0.0552  0.2787
    6SAPS  O13A  673   1.978   6.186  11.359 -0.7821  0.3420  0.0694
    6SAPS  O13B  674   1.806   6.128  11.478 -0.1068  0.0524  0.5361
    6SAPS   C11  675   1.733   5.995  11.216  0.1600 -0.0591 -0.3800
    6SAPS  H11A  676   1.733   6.099  11.178  1.8714 -0.4954 -1.6708
    6SAPS  H11B  677   1.660   5.994  11.300  0.6438  1.2217  0.0700
    6SAPS     P  678   1.599   5.907  11.008 -0.1494 -0.1508  0.0185
    6SAPS   O13  679   1.537   5.771  10.997 -0.3138 -0.0131  0.2548
    6SAPS   O14  680   1.508   6.021  11.020  0.1225  0.1392 -1.2672
    6SAPS   O12  681   1.707   5.899  11.121  0.5359  0.6873  0.0124
    6SAPS   O11  682   1.696   5.936  10.883 -0.0888 -0.0719 -0.6419
    6SAPS    C1  683   1.637   5.972  10.760 -0.2388 -0.5609  0.9583
    6SAPS    HA  684   1.612   5.881  10.701 -1.0977  1.8949 -2.8762
    6SAPS    HB  685   1.557   6.049  10.764 -0.2018 -0.3703 -0.8987
    6SAPS    C2  686   1.745   6.044  10.667 -0.3743  0.1908 -0.0796
    6SAPS    HS  687   1.691   6.088  10.580 -2.2236  0.7887  1.2905
    6SAPS   O21  688   1.851   5.950  10.634 -0.0722 -0.0856  0.4526
    6SAPS   C21  689   1.899   5.972  10.507 -0.2408 -0.4401 -0.1172
    6SAPS   O22  690   1.840   6.034  10.420  0.1366  0.2438  0.5303
    6SAPS   C22  691   2.027   5.911  10.493  0.2536 -0.3642 -0.1555
    6SAPS   H2R  692   2.103   5.962  10.557  0.8419  2.6802 -3.0100
    6SAPS   H2S  693   2.020   5.805  10.525  0.7848  0.0841  1.5613
    6SAPS    C3  694   1.803   6.162  10.749 -0.4300 -0.2782 -0.4310
    6SAPS    HX  695   1.850   6.134  10.846 -0.0650 -2.0534 -1.0875
    6SAPS    HY  696   1.713   6.224  10.763 -1.3877 -1.3465 -1.5912
    6SAPS   O31  697   1.911   6.225  10.674 -0.3172 -0.1159  0.7787
    6SAPS   C31  698   1.883   6.353  10.616  0.1590 -0.6469 -0.0593
    6SAPS   O32  699   1.779   6.411  10.631  0.4728 -0.3903 -0.3187
    6SAPS   C32  700   2.005   6.408  10.538 -0.1224 -0.3696  0.4909
    6SAPS   H2X  701   2.092   6.373  10.599 -1.6899 -2.9383  1.4207
    6SAPS   H2Y  702   1.998   6.519  10.533 -2.2944 -0.5170 -1.8686
    6SAPS   C23  703   2.068   5.920  10.348 -0.0704  0.2825  0.6860
    6SAPS   H3R  704   2.101   6.025  10.338 -1.2941  0.8473  2.0495
    6SAPS   H3S  705   1.982   5.890  10.284  1.2172  0.0373 -1.0032
    6SAPS   C24  706   2.180   5.825  10.306  0.6726 -0.2931  0.1645
    6SAPS   H4R  707   2.256   5.844  10.385 -1.5567  1.0336  2.1627
    6SAPS   H4S  708   2.214   5.855  10.205 -0.8574 -2.7979 -1.1824
    6SAPS   C25  709   2.147   5.676  10.301  0.2509 -0.5121 -0.2215
    6SAPS   H5R  710   2.119   5.632  10.398 -1.4499  1.2011  0.1289
    6SAPS   C26  711   2.136   5.588  10.199  0.3381  0.0480  0.0816
    6SAPS   H6R  712   2.105   5.484  10.214 -3.3174  1.1365  0.9092
    6SAPS   C27  713   2.146   5.629  10.052  0.3857  0.2015 -0.0535
    6SAPS   H7R  714   2.163   5.539   9.990 -0.0069  1.1819 -1.6474
    6SAPS   H7S  715   2.233   5.697  10.039 -0.1699  1.2237  1.2828
    6SAPS   C28  716   2.024   5.702  10.003  0.3891  0.6732  0.8492
    6SAPS   H8R  717   1.973   5.767  10.075 -1.9195  0.8647 -0.8556
    6SAPS   C29  718   1.976   5.703   9.876 -0.0275 -0.5578 -0.0127
    6SAPS   H9R  719   1.895   5.775   9.854 -0.4149 -1.0967 -0.3777
    6SAPS  C210  720   2.050   5.651   9.755 -0.0864  0.6740  0.5264
    6SAPS  H10R  721   1.972   5.627   9.680 -1.2390  0.6528  1.6888
    6SAPS  H10S  722   2.094   5.550   9.771 -1.1260  0.0531 -0.4299
    6SAPS  C211  723   2.171   5.739   9.703  0.8869  0.2207 -0.8850
    6SAPS  H11R  724   2.206   5.806   9.784 -0.7764  1.3790 -1.0687
    6SAPS  C212  725   2.218   5.736   9.577  0.1673  0.5538 -0.5049
    6SAPS  H12R  726   2.304   5.800   9.551  1.2767 -0.7184 -0.0560
    6SAPS  C213  727   2.182   5.657   9.457 -0.3475 -0.7631 -0.5711
    6SAPS  H13R  728   2.127   5.565   9.486 -0.5015 -0.1859  1.0550
    6SAPS  H13S  729   2.271   5.611   9.411  1.3008 -2.3680  3.6936
    6SAPS  C214  730   2.105   5.751   9.371 -0.2809  0.0129 -0.2220
    6SAPS  H14R  731   2.025   5.809   9.419 -0.0612  1.1844 -1.2207
    6SAPS  C215  732   2.112   5.735   9.239 -0.2602 -0.2677 -0.0623
    6SAPS  H15R  733   2.056   5.809   9.180  0.1183  0.7229  0.7994
    6SAPS  C216  734   2.201   5.644   9.153  0.0817 -0.8275 -0.6135
    6SAPS  H16R  735   2.161   5.618   9.053 -1.4440 -3.4319  0.5771
    6SAPS  H16S  736   2.230   5.553   9.210  1.8778  0.6021  0.9034
    6SAPS  C217  737   2.335   5.715   9.111 -0.8343 -0.0722  0.6070
    6SAPS  H17R  738   2.390   5.751   9.201 -0.5437 -0.0357  0.4168
    6SAPS  H17S  739   2.320   5.806   9.049 -0.7054 -0.7052 -0.3581
    6SAPS  C218  740   2.419   5.613   9.036  0.4402  0.2105  0.8249
    6SAPS  H18R  741   2.372   5.572   8.944  3.0950 -1.3207  0.0613
    6SAPS  H18S  742   2.444   5.528   9.102 -0.1167 -0.8535 -0.3011
    6SAPS  C219  743   2.549   5.679   8.985 -0.1302  0.0480  0.2153
    6SAPS  H19R  744   2.593   5.734   9.071 -0.5305  1.0282 -0.1921
    6SAPS  H19S  745   2.518   5.750   8.905  2.7524  1.4829  0.2324
    6SAPS  C220  746   2.658   5.586   8.922 -0.1099 -0.2379 -0.2759
    6SAPS  H20R  747   2.689   5.502   8.988  0.5266  0.5770  0.4823
    6SAPS  H20S  748   2.750   5.647   8.909 -0.5965  1.3108  2.6053
    6SAPS  H20T  749   2.624   5.536   8.829  2.9074 -2.0530 -0.5369
    6SAPS   C33  750   2.003   6.352  10.397  0.0762  0.1920  0.5006
    6SAPS   H3X  751   1.902   6.348  10.352  1.0609 -0.3499 -1.8014
    6SAPS   H3Y  752   2.044   6.249  10.398 -1.5729 -0.4803  1.1167
    6SAPS   C34  753   2.093   6.425  10.293  0.3588  0.4871 -0.4027
    6SAPS   H4X  754   2.193   6.436  10.340  0.4736 -2.1259  0.0963
    6SAPS   H4Y  755   2.058   6.530  10.280  0.1764  0.4936  0.1041
    6SAPS   C35  756   2.113   6.357  10.156  0.3104 -0.1681  0.2872
    6SAPS   H5X  757   2.010   6.337  10.119  0.1211 -0.6485  1.0458
    6SAPS   H5Y  758   2.169   6.262  10.171  3.5258  0.7626 -3.9147
    6SAPS   C36  759   2.208   6.435  10.061  0.1553  0.3165 -0.7055
    6SAPS   H6X  760   2.315   6.422  10.090  0.2097  2.0807  0.0430
    6SAPS   H6Y  761   2.177   6.541  10.051 -1.3368 -0.1526 -1.3028
    6SAPS   C37  762   2.183   6.394   9.915  0.4662  0.0888 -0.1249
    6SAPS   H7X  763   2.074   6.378   9.901  0.3855 -1.1293  1.5583
    6SAPS   H7Y  764   2.236   6.299   9.889  0.0377 -0.0691 -0.4293
    6SAPS   C38  765   2.247   6.482   9.809  0.6616 -0.4052 -0.5666
    6SAPS   H8X  766   2.355   6.503   9.829  0.4695  0.9082 -0.8259
    6SAPS   H8Y  767   2.208   6.586   9.814  1.0202 -0.2976  0.1483
    6SAPS   C39  768   2.232   6.434   9.661 -0.1154  0.0277 -0.1874
    6SAPS   H9X  769   2.125   6.424   9.632 -0.7198  1.8176  1.2278
    6SAPS   H9Y  770   2.282   6.335   9.649  0.0982 -0.1927  2.0465
    6SAPS  C310  771   2.294   6.526   9.563 -0.2182 -0.6552  0.0473
    6SAPS  H10X  772   2.403   6.534   9.584 -0.1832  0.1452 -0.4097
    6SAPS  H10Y  773   2.251   6.628   9.572 -2.1378 -1.2676 -1.4323
    6SAPS  C311  774   2.268   6.481   9.416  0.4358 -0.3766 -0.2766
    6SAPS  H11X  775   2.158   6.478   9.401  0.3142 -0.4409  0.5468
    6SAPS  H11Y  776   2.284   6.372   9.397 -1.2917 -0.4921 -1.2571
    6SAPS  C312  777   2.332   6.570   9.310 -0.2038 -0.5102  0.5399
    6SAPS  H12X  778   2.442   6.555   9.316 -0.3036 -0.8973  1.6152
    6SAPS  H12Y  779   2.311   6.670   9.354 -0.5108 -0.2505 -0.1919
    6SAPS  C313  780   2.287   6.537   9.169  0.6910 -0.1662 -1.0083
    6SAPS  H13X  781   2.176   6.529   9.167  0.4576  2.3281 -0.8097
    6SAPS  H13Y  782   2.323   6.435   9.142  1.6792 -0.2387  0.4873
    6SAPS  C314  783   2.337   6.631   9.069  0.3295  0.1416  0.0057
    6SAPS  H14X  784   2.432   6.600   9.020  0.2499 -0.1295  0.0185
    6SAPS  H14Y  785   2.339   6.737   9.101 -1.5984  0.7959 -1.7867
    6SAPS  C315  786   2.226   6.625   8.957  0.5480  0.6560 -0.1968
    6SAPS  H15X  787   2.137   6.678   8.997 -0.4844 -0.1251 -1.3953
    6SAPS  H15Y  788   2.190   6.523   8.933 -4.3383  2.3941 -1.4256
    6SAPS  C316  789   2.253   6.702   8.828 -1.1903  0.2906 -0.5335
    6SAPS  H16X  790   2.287   6.806   8.846  0.9120 -0.2674 -0.9156
    6SAPS  H16Y  791   2.153   6.708   8.780 -0.4734  1.2579 -2.0088
    6SAPS  C317  792   2.343   6.632   8.723 -0.1595  0.0217  0.5020
    6SAPS  H17X  793   2.304   6.529   8.719 -0.5029  0.2006 -1.4269
    6SAPS  H17Y  794   2.450   6.626   8.754  0.6327  1.2185 -1.7806
    6SAPS  C318  795   2.337   6.685   8.582 -0.8864 -0.1546 -0.1888
    6SAPS  H18X  796   2.380   6.787   8.579 -2.4517  0.5558  0.4520
    6SAPS  H18Y  797   2.236   6.708   8.542 -1.8581 -2.3326  0.8006
    6SAPS  H18Z  798   2.380   6.616   8.506 -0.9067  0.8050 -1.0927
    7SAPS     N  799   5.274   0.566  10.921  0.3360  0.1974  0.0126
    7SAPS   HN1  800   5.362   0.564  10.978  0.9886  0.6353 -0.9533
    7SAPS   HN2  801   5.218   0.488  10.961 -1.1765  0.5090 -1.4204
    7SAPS   HN3  802   5.291   0.546  10.821 -0.0115 -1.0413  0.1841
    7SAPS   C12  803   5.211   0.698  10.930  0.7640 -0.4262 -0.1642
    7SAPS  H12A  804   5.125   0.689  10.995 -0.4701  0.8443 -1.5674
    7SAPS   C13  805   5.302   0.811  10.988  0.0056  0.0716 -0.0560
    7SAPS  O13A  806   5.410   0.782  11.044  0.5707  0.7021  0.3446
    7SAPS  O13B  807   5.262   0.928  10.985 -0.0444 -0.7834 -0.3650
    7SAPS   C11  808   5.160   0.740  10.788 -0.3688 -0.1482  0.7918
    7SAPS  H11A  809   5.253   0.733  10.728 -0.3810 -1.3604  0.8879
    7SAPS  H11B  810   5.107   0.838  10.787 -0.8954 -0.4183 -0.5675
    7SAPS     P  811   4.908   0.633  10.785  0.0686 -0.0225  0.2377
    7SAPS   O13  812   4.894   0.562  10.912 -0.2422  0.8681 -0.1119
    7SAPS   O14  813   4.843   0.768  10.777  0.3869  0.3516  0.1996
    7SAPS   O12  814   5.065   0.639  10.741  0.1680  0.3654  0.6257
    7SAPS   O11  815   4.840   0.542  10.674 -0.1212 -0.2042  0.1263
    7SAPS    C1  816   4.914   0.439  10.609  0.3572 -0.7246 -0.1064
    7SAPS    HA  817   5.011   0.416  10.658  0.4271  2.2876  1.4346
    7SAPS    HB  818   4.852   0.347  10.612 -1.0129  0.1585 -0.2869
    7SAPS    C2  819   4.937   0.469  10.456  0.1629  0.6626  0.5147
    7SAPS    HS  820   5.021   0.407  10.416 -2.3322 -2.2702 -0.5747
    7SAPS   O21  821   4.953   0.606  10.428  0.2626  0.2946  0.3335
    7SAPS   C21  822   5.078   0.645  10.438 -0.1152 -0.1478  0.7719
    7SAPS   O22  823   5.169   0.568  10.446 -0.7051 -0.6197 -0.0103
    7SAPS   C22  824   5.085   0.800  10.446 -0.0652 -0.0431 -0.0553
    7SAPS   H2R  825   4.985   0.841  10.473  0.4903  2.7331 -1.7703
    7SAPS   H2S  826   5.164   0.818  10.523  1.1794 -3.5865 -0.3444
    7SAPS    C3  827   4.813   0.407  10.371  0.0022 -0.0220  0.3514
    7SAPS    HX  828   4.723   0.470  10.389  1.2243  2.1845 -0.7579
    7SAPS    HY  829   4.805   0.300  10.399  0.3416 -0.1647 -0.0830
    7SAPS   O31  830   4.829   0.416  10.226 -0.4862  0.6198  0.3799
    7SAPS   C31  831   4.922   0.336  10.172  0.8394 -0.4190 -0.3929
    7SAPS   O32  832   4.988   0.248  10.229  0.6725 -0.0963  0.0182
    7SAPS   C32  833   4.930   0.387  10.028 -0.2818  0.4532  0.0709
    7SAPS   H2X  834   5.031   0.433  10.018 -0.5282  0.8836 -0.5647
    7SAPS   H2Y  835   4.858   0.470  10.006  1.5240  1.9322 -0.4755
    7SAPS   C23  836   5.147   0.861  10.317  0.3522 -0.2201  0.0291
    7SAPS   H3R  837   5.245   0.812  10.299 -0.4026 -1.7115 -0.2249
    7SAPS   H3S  838   5.176   0.966  10.336  1.6939 -0.6454  0.3934
    7SAPS   C24  839   5.068   0.845  10.191 -0.2225  0.0367 -0.8347
    7SAPS   H4R  840   5.105   0.930  10.130  0.3351 -0.3881 -1.0965
    7SAPS   H4S  841   4.960   0.869  10.208  0.5084  1.8298  1.9076
    7SAPS   C25  842   5.077   0.711  10.124  0.5168 -0.1410  0.9951
    7SAPS   H5R  843   5.038   0.627  10.182  1.9418  0.1164  2.3855
    7SAPS   C26  844   5.140   0.696  10.003  0.1537  0.5098 -0.2110
    7SAPS   H6R  845   5.148   0.591   9.969  0.3271 -0.0469  1.4720
    7SAPS   C27  846   5.194   0.798   9.912 -0.2073 -0.2972 -0.0594
    7SAPS   H7R  847   5.305   0.792   9.916 -0.2365 -1.5669 -0.6968
    7SAPS   H7S  848   5.171   0.903   9.940  1.1259  0.3882 -1.4456
    7SAPS   C28  849   5.139   0.757   9.773  0.2051 -0.4289 -0.5968
    7SAPS   H8R  850   5.171   0.660   9.732 -1.4004 -0.0653 -2.8967
    7SAPS   C29  851   5.062   0.832   9.689  0.1278 -0.0527  0.1747
    7SAPS   H9R  852   5.026   0.780   9.598 -1.1302 -0.8500  1.0999
    7SAPS  C210  853   5.017   0.977   9.715  0.5206  0.8184  0.1501
    7SAPS  H10R  854   4.987   1.012   9.614  1.4390 -1.8180 -1.1191
    7SAPS  H10S  855   5.103   1.042   9.739  1.4710  0.0540 -1.0383
    7SAPS  C211  856   4.899   0.976   9.812  0.1896 -0.4415  0.2319
    7SAPS  H11R  857   4.935   0.956   9.914  1.8826  0.9897 -0.0414
    7SAPS  C212  858   4.764   0.996   9.791  0.0765 -0.2707  0.1081
    7SAPS  H12R  859   4.684   0.989   9.866  0.4348  1.1009  0.6444
    7SAPS  C213  860   4.717   1.023   9.653 -0.0203  0.2978  0.3825
    7SAPS  H13R  861   4.606   1.021   9.656 -0.0971 -0.0915 -1.4847
    7SAPS  H13S  862   4.735   0.933   9.591 -1.7931 -0.7400  1.3022
    7SAPS  C214  863   4.765   1.149   9.581 -0.0957  0.2266  0.1176
    7SAPS  H14R  864   4.845   1.204   9.633  0.1349  0.2505 -0.2565
    7SAPS  C215  865   4.701   1.201   9.470 -0.3616  0.4552 -0.1328
    7SAPS  H15R  866   4.735   1.299   9.433  1.9014  0.2054  1.1162
    7SAPS  C216  867   4.578   1.136   9.413 -0.3051 -0.1342 -0.3704
    7SAPS  H16R  868   4.492   1.175   9.471 -1.2810 -0.1615 -1.7512
    7SAPS  H16S  869   4.583   1.027   9.436  1.6832 -0.4369 -1.9146
    7SAPS  C217  870   4.564   1.144   9.262  0.2712  0.0844  0.1942
    7SAPS  H17R  871   4.569   1.244   9.213 -0.1705  0.3466  0.6656
    7SAPS  H17S  872   4.459   1.115   9.244  0.3304  0.9479 -1.7577
    7SAPS  C218  873   4.669   1.055   9.189  0.1282 -0.0110  0.0160
    7SAPS  H18R  874   4.684   0.965   9.251  3.9060  1.9156  2.2896
    7SAPS  H18S  875   4.770   1.100   9.189 -0.1442  0.6459 -1.0491
    7SAPS  C219  876   4.630   1.020   9.048 -0.1606 -0.6429  0.6009
    7SAPS  H19R  877   4.613   1.113   8.990  0.4549  1.0519  2.9537
    7SAPS  H19S  878   4.527   0.981   9.061 -0.6511  1.1207  2.7757
    7SAPS  C220  879   4.725   0.923   8.978  0.4959 -0.3789  0.6704
    7SAPS  H20R  880   4.664   0.882   8.895 -2.2915  1.4218  1.6948
    7SAPS  H20S  881   4.769   0.842   9.041 -0.4504 -1.1126  0.4263
    7SAPS  H20T  882   4.815   0.977   8.942 -0.1156  1.2186  1.4648
    7SAPS   C33  883   4.919   0.258   9.943 -0.5668  0.3020  0.7534
    7SAPS   H3X  884   4.813   0.228   9.928 -0.9036  0.9304  1.8103
    7SAPS   H3Y  885   4.970   0.170   9.985 -0.3012 -1.0966 -2.2371
    7SAPS   C34  886   4.976   0.257   9.796  0.2333 -0.1724  0.0959
    7SAPS   H4X  887   4.946   0.157   9.758  0.8738 -1.2192  2.2184
    7SAPS   H4Y  888   5.086   0.271   9.786 -0.0502  1.7074 -0.9786
    7SAPS   C35  889   4.907   0.364   9.713 -0.3819 -0.8022 -0.4341
    7SAPS   H5X  890   4.929   0.462   9.761  2.6217 -1.9088  0.5985
    7SAPS   H5Y  891   4.800   0.334   9.705 -0.6948  0.3747 -1.0942
    7SAPS   C36  892   4.975   0.370   9.576  0.2291  0.1434  0.4421
    7SAPS   H6X  893   4.954   0.273   9.527 -1.7859  0.5490  0.4026
    7SAPS   H6Y  894   5.085   0.387   9.581  0.7868 -2.4038 -1.5639
    7SAPS   C37  895   4.919   0.489   9.492  0.6374  0.1512  0.2075
    7SAPS   H7X  896   4.928   0.584   9.549  1.7828 -0.5084  1.1714
    7SAPS   H7Y  897   4.811   0.465   9.481  0.8050 -1.1893  1.3070
    7SAPS   C38  898   4.988   0.515   9.355  0.4746  1.0753 -0.4338
    7SAPS   H8X  899   4.975   0.423   9.295  2.5501  1.4754 -1.6000
    7SAPS   H8Y  900   5.095   0.546   9.352  0.7994  0.0343 -0.0610
    7SAPS   C39  901   4.926   0.632   9.283  0.9686  0.4380 -0.4331
    7SAPS   H9X  902   4.921   0.728   9.338 -1.9917  0.6911 -1.0018
    7SAPS   H9Y  903   4.825   0.593   9.258  1.0751  1.1539 -2.1464
    7SAPS  C310  904   4.998   0.669   9.151  0.3649 -0.3129  0.1535
    7SAPS  H10X  905   5.104   0.640   9.164  0.5002 -1.2046 -2.3918
    7SAPS  H10Y  906   4.991   0.779   9.135 -2.6381 -0.0835  2.2263
    7SAPS  C311  907   4.949   0.583   9.037 -0.3139 -0.2474  0.8822
    7SAPS  H11X  908   4.841   0.559   9.026 -0.0060 -1.0602 -0.7093
    7SAPS  H11Y  909   4.995   0.482   9.043 -1.9082 -1.2518 -1.6908
    7SAPS  C312  910   4.989   0.649   8.902  0.9045  0.5369  0.0433
    7SAPS  H12X  911   4.953   0.753   8.896 -0.5667 -0.0360 -2.6288
    7SAPS  H12Y  912   4.948   0.593   8.815  2.9539 -1.2703  0.1253
    7SAPS  C313  913   5.142   0.671   8.878 -0.5704  0.3139 -0.9280
    7SAPS  H13X  914   5.198   0.578   8.902 -1.0315  0.3348  0.2963
    7SAPS  H13Y  915   5.184   0.749   8.944 -1.8570 -1.1762  1.8340
    7SAPS  C314  916   5.173   0.710   8.733 -0.3580  0.2863 -0.2859
    7SAPS  H14X  917   5.113   0.798   8.701 -1.8313 -0.0292  1.4760
    7SAPS  H14Y  918   5.150   0.625   8.667 -0.4553  1.4402 -1.7998
    7SAPS  C315  919   5.323   0.739   8.707  0.8147 -0.8935  0.2313
    7SAPS  H15X  920   5.383   0.647   8.719  3.3923  0.5035 -1.1560
    7SAPS  H15Y  921   5.371   0.806   8.782  2.3135 -0.4530 -1.0844
    7SAPS  C316  922   5.337   0.811   8.574 -0.0104  0.2953  0.7693
    7SAPS  H16X  923   5.284   0.909   8.578 -0.7811  0.1431 -2.4676
    7SAPS  H16Y  924   5.279   0.768   8.489  0.4542  1.2459 -0.0590
    7SAPS  C317  925   5.475   0.829   8.523 -0.6585  0.5870 -0.7699
    7SAPS  H17X  926   5.540   0.823   8.613  0.2419  1.0763 -1.3795
    7SAPS  H17Y  927   5.490   0.933   8.486  0.0460  0.9329  0.4481
    7SAPS  C318  928   5.507   0.732   8.401 -0.5959 -0.1999 -0.0204
    7SAPS  H18X  929   5.439   0.760   8.318 -0.7152 -0.6094 -0.0626
    7SAPS  H18Y  930   5.482   0.628   8.433  1.5321 -0.9249 -0.5552
    7SAPS  H18Z  931   5.614   0.736   8.372  0.1244  0.3905  2.4552
    8SAPS     N  932   1.445   1.090  10.889  0.1488  0.3609  0.0808
    8SAPS   HN1  933   1.457   0.997  10.844 -1.5807 -0.3487  0.9783
    8SAPS   HN2  934   1.353   1.138  10.878 -0.6289 -1.2295 -0.6847
    8SAPS   HN3  935   1.530   1.147  10.874 -1.0937  1.8359 -2.0253
    8SAPS   C12  936   1.450   1.045  11.034  0.1632  0.0609 -0.2152
    8SAPS  H12A  937   1.475   1.132  11.093  0.2668  0.2756 -0.5753
    8SAPS   C13  938   1.311   0.990  11.085 -0.0426  0.8907  0.0374
    8SAPS  O13A  939   1.207   1.020  11.023 -0.4918 -0.0559 -0.0057
    8SAPS  O13B  940   1.308   0.943  11.203  0.2710 -0.1754 -0.0197
    8SAPS   C11  941   1.548   0.923  11.037  0.3552 -0.1172 -0.5875
    8SAPS  H11A  942   1.499   0.845  10.974  0.1673  0.7085 -1.4876
    8SAPS  H11B  943   1.558   0.893  11.144 -0.1758  2.2990  0.2142
    8SAPS     P  944   1.812   0.949  11.033 -0.2149  0.0245 -0.1513
    8SAPS   O13  945   1.909   1.038  10.966 -0.7674 -0.4657 -0.1131
    8SAPS   O14  946   1.804   0.966  11.182  0.2630 -0.4050 -0.5742
    8SAPS   O12  947   1.670   0.951  10.970 -0.8113  0.6115 -0.4398
    8SAPS   O11  948   1.856   0.797  11.001 -0.3841 -0.4277 -0.1769
    8SAPS    C1  949   1.808   0.727  10.882  0.0923  0.4818  0.2110
    8SAPS    HA  950   1.834   0.620  10.900 -2.4322 -0.2564 -0.1652
    8SAPS    HB  951   1.698   0.732  10.866  0.3684  0.3378 -2.2118
    8SAPS    C2  952   1.883   0.765  10.751 -0.8951  0.5517 -0.1151
    8SAPS    HS  953   1.987   0.778  10.786 -1.1792 -1.1786  1.5379
    8SAPS   O21  954   1.821   0.884  10.704 -0.4692 -0.2145  0.1929
    8SAPS   C21  955   1.898   0.968  10.641 -0.2081 -0.1399 -0.4173
    8SAPS   O22  956   2.018   0.956  10.625 -0.2335  0.4349 -0.7424
    8SAPS   C22  957   1.813   1.089  10.600  0.3801 -0.1059  0.2031
    8SAPS   H2R  958   1.710   1.088  10.641 -0.2699 -0.6024 -1.3342
    8SAPS   H2S  959   1.877   1.172  10.636 -0.1521  0.1375  0.6007
    8SAPS    C3  960   1.883   0.651  10.641 -0.2822  0.1189 -0.1581
    8SAPS    HX  961   1.773   0.636  10.635 -0.3707  0.0347  1.3519
    8SAPS    HY  962   1.930   0.562  10.689 -1.5411 -0.8333 -0.6110
    8SAPS   O31  963   1.950   0.687  10.520 -0.1797  0.1078 -0.3928
    8SAPS   C31  964   1.872   0.713  10.412 -0.2441 -0.1536  0.0599
    8SAPS   O32  965   1.753   0.714  10.413  0.0118 -0.0816  0.4917
    8SAPS   C32  966   1.958   0.759  10.298  0.1958 -0.3844  0.3001
    8SAPS   H2X  967   2.046   0.693  10.284  1.3078  0.8662  1.0909
    8SAPS   H2Y  968   2.009   0.855  10.322 -0.1043  0.0439 -0.7110
    8SAPS   C23  969   1.793   1.105  10.449  0.0806  0.4641 -0.1664
    8SAPS   H3R  970   1.733   1.016  10.418  0.3924 -0.0125  0.5733
    8SAPS   H3S  971   1.891   1.106  10.396 -0.0055  0.5246 -0.3272
    8SAPS   C24  972   1.701   1.229  10.418  0.1118  0.8127  0.0656
    8SAPS   H4R  973   1.628   1.241  10.501  1.0832  2.1292  0.7665
    8SAPS   H4S  974   1.641   1.212  10.326  0.0515 -0.9651  0.4042
    8SAPS   C25  975   1.775   1.355  10.437 -0.6503 -0.1411 -0.0747
    8SAPS   H5R  976   1.796   1.393  10.538  1.2773 -3.3122  0.8366
    8SAPS   C26  977   1.811   1.438  10.333  0.2075 -0.3028 -0.1219
    8SAPS   H6R  978   1.852   1.536  10.361 -2.4323  1.2906 -1.4008
    8SAPS   C27  979   1.805   1.424  10.189  0.0677 -0.5371 -0.1380
    8SAPS   H7R  980   1.853   1.515  10.146  0.0853 -0.7782 -0.6280
    8SAPS   H7S  981   1.697   1.430  10.165  0.2859 -0.4632 -1.1676
    8SAPS   C28  982   1.848   1.298  10.124 -0.1722  0.0036 -0.4796
    8SAPS   H8R  983   1.863   1.212  10.190 -0.8782 -0.3337 -0.7455
    8SAPS   C29  984   1.874   1.286   9.988 -0.4250 -0.2480  0.1442
    8SAPS   H9R  985   1.919   1.194   9.948  1.0413  0.3993  0.2464
    8SAPS  C210  986   1.871   1.399   9.896 -0.2175  0.0235  0.6282
    8SAPS  H10R  987   1.975   1.422   9.865 -1.3231 -0.2268 -4.0519
    8SAPS  H10S  988   1.838   1.490   9.951 -0.9604  0.0132  0.2214
    8SAPS  C211  989   1.793   1.377   9.766 -0.5610  0.2993  0.1893
    8SAPS  H11R  990   1.693   1.335   9.782 -0.7042  0.9256  1.0319
    8SAPS  C212  991   1.843   1.394   9.641 -0.2670  0.0451  0.0384
    8SAPS  H12R  992   1.775   1.356   9.563 -0.7081  0.5433  0.1687
    8SAPS  C213  993   1.981   1.432   9.581 -0.4465 -0.3671 -0.2254
    8SAPS  H13R  994   2.016   1.350   9.516  0.5044 -0.1012 -0.0580
    8SAPS  H13S  995   2.058   1.411   9.658 -0.2048 -0.8626 -0.5954
    8SAPS  C214  996   1.986   1.566   9.518  0.4802  0.4083  0.0156
    8SAPS  H14R  997   1.988   1.650   9.589 -0.3110 -0.6845  1.3887
    8SAPS  C215  998   2.008   1.583   9.388 -0.1227  0.5390  0.5978
    8SAPS  H15R  999   1.998   1.686   9.351  0.1183  0.1011 -0.7329
    8SAPS  C216 1000   2.031   1.485   9.274 -0.7114 -0.3389  0.3837
    8SAPS  H16R 1001   2.008   1.380   9.299  1.0678 -0.5421  1.3047
    8SAPS  H16S 1002   2.135   1.477   9.237 -0.0962 -2.5151  2.3888
    8SAPS  C217 1003   1.941   1.523   9.151 -0.0238 -0.4917  0.4409
    8SAPS  H17R 1004   1.968   1.627   9.121  1.0911 -0.7381  0.5364
    8SAPS  H17S 1005   1.836   1.529   9.185 -0.5858  1.7896 -1.4351
    8SAPS  C218 1006   1.964   1.424   9.037  0.7885 -0.0759 -0.1999
    8SAPS  H18R 1007   2.073   1.411   9.017  0.9076 -0.2335  0.5124
    8SAPS  H18S 1008   1.911   1.472   8.952  1.8544  3.3270  0.8643
    8SAPS  C219 1009   1.894   1.287   9.046 -0.2293  0.2309  0.0751
    8SAPS  H19R 1010   1.971   1.217   9.085  0.0649 -0.5376 -1.7993
    8SAPS  H19S 1011   1.860   1.245   8.949 -1.6514  3.5358 -1.0051
    8SAPS  C220 1012   1.771   1.272   9.139  0.3478  0.1291  0.2320
    8SAPS  H20R 1013   1.746   1.165   9.154 -0.3416  0.1544 -0.6431
    8SAPS  H20S 1014   1.683   1.323   9.095  1.1953 -0.8987 -2.8998
    8SAPS  H20T 1015   1.790   1.321   9.237 -2.4092  1.0764  0.3857
    8SAPS   C33 1016   1.873   0.764  10.164 -0.0024 -0.4349  0.0776
    8SAPS   H3X 1017   1.797   0.844  10.179  0.4877 -0.1326  1.0686
    8SAPS   H3Y 1018   1.821   0.670  10.138 -3.6921  1.1261  1.1390
    8SAPS   C34 1019   1.965   0.804  10.046 -0.0730 -0.5120 -0.2867
    8SAPS   H4X 1020   2.040   0.722  10.040 -1.8614 -2.3059  0.5684
    8SAPS   H4Y 1021   2.029   0.892  10.066  1.2217 -1.4090 -0.3488
    8SAPS   C35 1022   1.905   0.845   9.914  0.2729  0.6827  0.7332
    8SAPS   H5X 1023   1.877   0.951   9.930 -1.0193  0.3852  0.5612
    8SAPS   H5Y 1024   1.816   0.781   9.895  1.9710 -0.9308 -2.8870
    8SAPS   C36 1025   1.993   0.824   9.788 -0.1722  0.0654 -0.6026
    8SAPS   H6X 1026   2.013   0.715   9.782  1.2387  0.3761 -2.2071
    8SAPS   H6Y 1027   2.087   0.882   9.802 -0.6271  0.8913 -0.8915
    8SAPS   C37 1028   1.918   0.864   9.659 -0.2800  0.5859 -0.6880
    8SAPS   H7X 1029   1.880   0.967   9.643  2.0243  1.9420  1.7004
    8SAPS   H7Y 1030   1.830   0.798   9.671  0.1880  0.2545  1.1847
    8SAPS   C38 1031   1.990   0.811   9.536  0.3402 -0.1190  1.6533
    8SAPS   H8X 1032   2.048   0.720   9.560 -0.0506 -1.1007 -0.7790
    8SAPS   H8Y 1033   2.073   0.878   9.505  0.6476 -2.3571 -3.3707
    8SAPS   C39 1034   1.899   0.780   9.420  0.6645  0.1641  0.3075
    8SAPS   H9X 1035   1.815   0.851   9.428  1.1013  1.6548 -4.9926
    8SAPS   H9Y 1036   1.862   0.675   9.417  0.5856  0.2013 -0.0570
    8SAPS  C310 1037   1.978   0.805   9.296  0.2924  0.1193  0.2502
    8SAPS  H10X 1038   2.080   0.770   9.320  0.6594  1.0829  0.1309
    8SAPS  H10Y 1039   1.973   0.916   9.292 -3.2047  0.0475 -0.6436
    8SAPS  C311 1040   1.917   0.745   9.172 -0.1467 -0.4386  0.4551
    8SAPS  H11X 1041   1.817   0.791   9.153 -1.0139 -1.6247  1.9483
    8SAPS  H11Y 1042   1.905   0.635   9.182  0.5039 -0.5001  0.5672
    8SAPS  C312 1043   1.997   0.777   9.042 -0.5837 -0.8929 -0.6956
    8SAPS  H12X 1044   2.091   0.719   9.050 -1.0464 -1.4503  1.2145
    8SAPS  H12Y 1045   2.029   0.883   9.057  1.3888 -1.5270 -0.1385
    8SAPS  C313 1046   1.919   0.761   8.910 -1.1985 -0.2600  0.6079
    8SAPS  H13X 1047   1.848   0.845   8.901 -0.5915  0.1592 -0.6203
    8SAPS  H13Y 1048   1.871   0.661   8.906 -1.0140 -0.3141 -1.5661
    8SAPS  C314 1049   2.012   0.786   8.790 -0.3288  0.7197 -0.0868
    8SAPS  H14X 1050   2.108   0.736   8.814 -2.1151 -2.0097  2.0850
    8SAPS  H14Y 1051   2.036   0.894   8.783 -0.9334  0.8898  0.4046
    8SAPS  C315 1052   1.945   0.742   8.651 -0.7830 -0.3921 -0.5377
    8SAPS  H15X 1053   1.855   0.804   8.632 -0.0079  1.1648  0.6202
    8SAPS  H15Y 1054   1.908   0.637   8.658  2.1522 -1.4751  0.7987
    8SAPS  C316 1055   2.048   0.735   8.533 -0.5282  0.7943  0.3047
    8SAPS  H16X 1056   2.086   0.833   8.498  1.7882 -0.2021 -0.1778
    8SAPS  H16Y 1057   1.984   0.686   8.457  1.1457 -1.9670  0.5166
    8SAPS  C317 1058   2.170   0.648   8.559 -0.2452 -0.4944  0.0847
    8SAPS  H17X 1059   2.130   0.553   8.601  0.4874 -0.2616  1.3341
    8SAPS  H17Y 1060   2.233   0.700   8.634 -1.1348  3.8052 -1.8651
    8SAPS  C318 1061   2.239   0.604   8.430 -0.1987  0.1860  0.5796
    8SAPS  H18X 1062   2.172   0.555   8.357  1.8167  1.3632 -2.2335
    8SAPS  H18Y 1063   2.318   0.529   8.450 -0.8729 -0.2333  1.7506
    8SAPS  H18Z 1064   2.291   0.696   8.395  1.3771 -0.3305  1.4753
    9SAPS     N 1065   0.065   5.428   6.440 -0.1126 -0.1945 -0.2954
    9SAPS   HN1 1066   0.141   5.492   6.412  1.3160 -1.2265  1.0229
    9SAPS   HN2 1067  -0.013   5.482   6.482  0.9633 -0.3013  1.9881
    9SAPS   HN3 1068   0.120   5.370   6.506  0.6955  0.1540 -0.6553
    9SAPS   C12 1069   0.025   5.354   6.322  0.0829 -0.4812  0.0990
    9SAPS  H12A 1070   0.115   5.301   6.293  0.5419  0.9921 -1.3155
    9SAPS   C13 1071  -0.098   5.256   6.343 -0.0737 -0.6360  0.0915
    9SAPS  O13A 1072  -0.167   5.254   6.447  0.0419  0.5001 -0.0068
    9SAPS  O13B 1073  -0.127   5.177   6.252 -0.2509  0.8747 -0.2180
    9SAPS   C11 1074   0.004   5.458   6.207  0.2964 -0.2466  0.3603
    9SAPS  H11A 1075  -0.084   5.526   6.216 -0.3762 -0.7953 -1.4618
    9SAPS  H11B 1076  -0.016   5.398   6.115 -0.2621  0.1199  0.2364
    9SAPS     P 1077   0.138   5.679   6.203  0.2958 -0.3139  0.4483
    9SAPS   O13 1078   0.284   5.704   6.173 -0.0418  0.1038 -0.7925
    9SAPS   O14 1079   0.028   5.755   6.137  0.3268 -0.2548 -0.3167
    9SAPS   O12 1080   0.119   5.532   6.178 -0.1109  0.8419  0.3109
    9SAPS   O11 1081   0.129   5.698   6.358  0.0155  0.1333  0.0733
    9SAPS    C1 1082   0.031   5.782   6.424  0.0600  0.3449  0.2688
    9SAPS    HA 1083   0.029   5.886   6.385  1.1690 -0.1755 -1.2158
    9SAPS    HB 1084  -0.070   5.738   6.408  0.3473 -1.4895  2.7868
    9SAPS    C2 1085   0.063   5.802   6.569 -0.0990  0.5918 -0.0769
    9SAPS    HS 1086   0.162   5.854   6.567 -0.5879  1.5419 -1.3438
    9SAPS   O21 1087   0.077   5.673   6.624  0.1492  0.3418 -0.1616
    9SAPS   C21 1088   0.164   5.668   6.724  0.0762  0.1003  0.5603
    9SAPS   O22 1089   0.235   5.766   6.751  0.7292 -0.4352 -0.0421
    9SAPS   C22 1090   0.167   5.534   6.792 -0.3328  0.4262 -0.2640
    9SAPS   H2R 1091   0.067   5.486   6.785  0.0755 -0.2417 -1.9616
    9SAPS   H2S 1092   0.248   5.465   6.759  1.0531  1.6843  0.3457
    9SAPS    C3 1093  -0.056   5.882   6.638 -0.5583  0.1862  0.5330
    9SAPS    HX 1094  -0.147   5.820   6.632 -0.7293  0.3116  1.6018
    9SAPS    HY 1095  -0.084   5.974   6.582 -1.1004  1.6904  3.0827
    9SAPS   O31 1096  -0.027   5.914   6.781  0.1046 -0.1543 -0.3787
    9SAPS   C31 1097   0.052   6.018   6.801 -0.0103 -0.4567 -0.7044
    9SAPS   O32 1098   0.097   6.093   6.717  0.7837  0.4340  0.4853
    9SAPS   C32 1099   0.079   6.030   6.950 -0.2355  0.1674 -0.2727
    9SAPS   H2X 1100   0.182   5.995   6.974 -0.9574 -0.0379  3.0618
    9SAPS   H2Y 1101   0.010   5.957   6.997 -0.3509  0.5013  0.0747
    9SAPS   C23 1102   0.199   5.559   6.942 -0.4709 -0.4686  0.0077
    9SAPS   H3R 1103   0.295   5.614   6.944 -0.5975 -0.1367 -1.7877
    9SAPS   H3S 1104   0.201   5.457   6.985 -0.2118  0.8889  3.5388
    9SAPS   C24 1105   0.099   5.645   7.024 -0.1201  0.1360  0.1199
    9SAPS   H4R 1106  -0.003   5.603   7.037  0.3754 -0.7091  1.3810
    9SAPS   H4S 1107   0.077   5.742   6.974 -1.8544 -1.6434 -2.8193
    9SAPS   C25 1108   0.163   5.664   7.158 -0.5335 -0.5321 -0.2000
    9SAPS   H5R 1109   0.225   5.755   7.154 -0.9745 -0.1586  1.0117
    9SAPS   C26 1110   0.147   5.593   7.274  0.3713  0.1220  0.6016
    9SAPS   H6R 1111   0.184   5.644   7.365 -3.8678  2.2795  1.3810
    9SAPS   C27 1112   0.050   5.480   7.293 -0.3896  0.0453 -0.3137
    9SAPS   H7R 1113   0.094   5.389   7.247  0.5731  0.3950 -0.1204
    9SAPS   H7S 1114  -0.046   5.498   7.240 -1.6974  0.4858  2.0937
    9SAPS   C28 1115   0.017   5.450   7.437 -0.3172  0.4371  0.5889
    9SAPS   H8R 1116   0.077   5.371   7.484 -1.5664 -0.2728  1.0398
    9SAPS   C29 1117  -0.095   5.491   7.504  0.1482  0.0953  0.6379
    9SAPS   H9R 1118  -0.110   5.465   7.610  1.3905 -3.3060  0.1004
    9SAPS  C210 1119  -0.206   5.584   7.461 -0.8799 -0.8161 -0.1346
    9SAPS  H10R 1120  -0.303   5.531   7.469 -2.5137  1.9326 -0.2908
    9SAPS  H10S 1121  -0.192   5.602   7.352 -0.7203 -0.7395 -0.1019
    9SAPS  C211 1122  -0.211   5.718   7.522 -0.0637 -0.4836 -0.3475
    9SAPS  H11R 1123  -0.173   5.803   7.463 -2.4379  2.8193  2.4873
    9SAPS  C212 1124  -0.261   5.738   7.648 -0.0194  0.2468  0.0488
    9SAPS  H12R 1125  -0.252   5.833   7.702  2.0652 -1.5478  3.1698
    9SAPS  C213 1126  -0.311   5.633   7.747  0.8808 -0.2476  0.0188
    9SAPS  H13R 1127  -0.245   5.611   7.834  0.1040 -1.5576  0.3042
    9SAPS  H13S 1128  -0.331   5.538   7.693 -2.4461  0.3762 -0.0619
    9SAPS  C214 1129  -0.444   5.688   7.789  0.6455 -0.4703 -0.8605
    9SAPS  H14R 1130  -0.518   5.702   7.709  0.5743  1.8314 -0.4706
    9SAPS  C215 1131  -0.480   5.749   7.904  0.2348  0.4033  0.3368
    9SAPS  H15R 1132  -0.586   5.777   7.914  0.4887  1.7014 -0.4321
    9SAPS  C216 1133  -0.390   5.766   8.026  0.2877  0.2694 -1.1578
    9SAPS  H16R 1134  -0.382   5.870   8.062 -1.7670 -0.3090  1.2933
    9SAPS  H16S 1135  -0.283   5.746   8.005  0.7744 -1.4048  2.1330
    9SAPS  C217 1136  -0.435   5.695   8.153 -0.2072 -0.1114  0.3049
    9SAPS  H17R 1137  -0.417   5.590   8.122  0.3912  0.0024  0.2577
    9SAPS  H17S 1138  -0.546   5.702   8.158 -0.3687 -1.0623 -1.3082
    9SAPS  C218 1139  -0.373   5.751   8.275  0.1926  0.3563 -0.6562
    9SAPS  H18R 1140  -0.380   5.861   8.265 -1.3961  0.1470 -2.2974
    9SAPS  H18S 1141  -0.263   5.736   8.274  0.0728 -1.0916  1.4115
    9SAPS  C219 1142  -0.423   5.692   8.415 -0.0811 -0.1631  0.3014
    9SAPS  H19R 1143  -0.532   5.712   8.427  0.1342  0.7205  0.9051
    9SAPS  H19S 1144  -0.369   5.741   8.498  1.1278 -1.8537  0.5662
    9SAPS  C220 1145  -0.396   5.543   8.433  0.6835 -0.2689  0.2286
    9SAPS  H20R 1146  -0.291   5.527   8.403  0.5134 -0.7984 -0.1043
    9SAPS  H20S 1147  -0.466   5.491   8.364 -0.3518  1.0401  0.2311
    9SAPS  H20T 1148  -0.408   5.501   8.535 -2.3860 -2.5755 -0.9052
    9SAPS   C33 1149   0.052   6.168   6.993 -1.0345  0.0318  0.8617
    9SAPS   H3X 1150   0.014   6.235   6.913 -0.1108  0.1481  0.5073
    9SAPS   H3Y 1151   0.146   6.214   7.030 -0.3522  0.1778 -0.9867
    9SAPS   C34 1152  -0.044   6.169   7.113 -0.1290 -0.0989  0.3603
    9SAPS   H4X 1153  -0.119   6.088   7.104 -0.4448 -0.1755  2.9579
    9SAPS   H4Y 1154  -0.105   6.261   7.127  0.3238 -0.0203  1.9997
    9SAPS   C35 1155   0.029   6.150   7.243 -0.3897  0.4028  0.7494
    9SAPS   H5X 1156   0.072   6.248   7.274 -0.3855  0.1585  1.5342
    9SAPS   H5Y 1157   0.106   6.069   7.244  0.9487  1.6239  0.1319
    9SAPS   C36 1158  -0.073   6.109   7.359  0.1533 -0.4042  0.4055
    9SAPS   H6X 1159  -0.119   6.010   7.338 -1.1133  0.1781  0.3120
    9SAPS   H6Y 1160  -0.156   6.181   7.340  0.4790 -0.1721 -0.1690
    9SAPS   C37 1161  -0.021   6.150   7.498  0.4643  0.7273  0.1469
    9SAPS   H7X 1162   0.011   6.256   7.498  0.0417  0.8716 -1.1972
    9SAPS   H7Y 1163   0.070   6.087   7.509 -2.6509 -4.6649 -0.8864
    9SAPS   C38 1164  -0.122   6.119   7.612 -0.1990  0.0161 -0.6822
    9SAPS   H8X 1165  -0.157   6.013   7.606 -0.5001  0.0914 -0.3174
    9SAPS   H8Y 1166  -0.212   6.182   7.595  0.2659  1.0661  0.5694
    9SAPS   C39 1167  -0.054   6.169   7.748  0.6128 -0.0631 -0.0323
    9SAPS   H9X 1168  -0.029   6.277   7.738 -0.3529  0.1338 -0.4257
    9SAPS   H9Y 1169   0.037   6.108   7.761  0.4962 -0.1749  0.2780
    9SAPS  C310 1170  -0.144   6.147   7.872 -0.0093  0.3715  0.6726
    9SAPS  H10X 1171  -0.146   6.039   7.900 -1.3368  0.1977 -0.0047
    9SAPS  H10Y 1172  -0.246   6.179   7.840  0.3340  1.7500  0.9207
    9SAPS  C311 1173  -0.090   6.223   7.992 -0.0295  0.4916  0.2624
    9SAPS  H11X 1174  -0.087   6.334   7.980 -1.9334  0.7360  1.5242
    9SAPS  H11Y 1175   0.013   6.185   8.009 -0.6375 -1.3686  0.0403
    9SAPS  C312 1176  -0.171   6.188   8.120 -0.0128 -0.4268 -0.3216
    9SAPS  H12X 1177  -0.239   6.099   8.114  0.0984 -0.4172 -3.5359
    9SAPS  H12Y 1178  -0.236   6.276   8.140  0.2481 -0.3368  0.1428
    9SAPS  C313 1179  -0.068   6.173   8.237 -0.3389 -0.5449  0.2196
    9SAPS  H13X 1180  -0.014   6.270   8.232 -0.0225 -0.7805 -1.8892
    9SAPS  H13Y 1181   0.006   6.094   8.211  0.4225 -0.1377  1.1210
    9SAPS  C314 1182  -0.131   6.138   8.374  0.1368 -0.1288  0.1363
    9SAPS  H14X 1183  -0.159   6.031   8.364  0.8066 -0.1781 -1.6198
    9SAPS  H14Y 1184  -0.226   6.196   8.373  0.0603 -0.2492  0.3005
    9SAPS  C315 1185  -0.046   6.183   8.489 -0.3017 -0.4572  0.5377
    9SAPS  H15X 1186  -0.020   6.291   8.478 -1.1141 -0.3040  0.0152
    9SAPS  H15Y 1187   0.050   6.128   8.493  1.5391  2.5469  0.4296
    9SAPS  C316 1188  -0.127   6.167   8.617 -0.4799  0.2844 -0.8015
    9SAPS  H16X 1189  -0.151   6.060   8.636  0.2232 -0.1599 -2.2486
    9SAPS  H16Y 1190  -0.215   6.234   8.622  0.8767  2.0488  2.5048
    9SAPS  C317 1191  -0.042   6.202   8.740 -0.8726 -0.2775 -0.3942
    9SAPS  H17X 1192   0.064   6.169   8.741 -0.2620  1.5176  1.3684
    9SAPS  H17Y 1193  -0.090   6.158   8.830 -1.3145  1.6129  0.3295
    9SAPS  C318 1194  -0.044   6.348   8.778 -0.8258  0.3640  0.2324
    9SAPS  H18X 1195  -0.019   6.420   8.697  2.3484 -0.0874  0.6979
    9SAPS  H18Y 1196   0.033   6.368   8.855  0.4436  1.0264 -1.1563
    9SAPS  H18Z 1197  -0.143   6.371   8.823 -0.5227 -0.3782  1.3181
   10SAPS     N 1198   0.371   2.312   6.287  0.5164 -0.5393 -0.4692
   10SAPS   HN1 1199   0.306   2.319   6.206  0.3154  0.9807 -0.2107
   10SAPS   HN2 1200   0.471   2.327   6.262  0.5523  2.3365  0.9580
   10SAPS   HN3 1201   0.360   2.214   6.319 -0.8798  0.1262  1.2169
   10SAPS   C12 1202   0.343   2.409   6.410  0.2393  1.0349 -0.0217
   10SAPS  H12A 1203   0.348   2.508   6.369 -0.9157  0.3422 -1.9979
   10SAPS   C13 1204   0.195   2.383   6.466 -0.9493  0.5096 -0.7876
   10SAPS  O13A 1205   0.119   2.301   6.405 -0.3209  0.0034  0.1456
   10SAPS  O13B 1206   0.153   2.462   6.556 -0.1190  0.0989  0.0032
   10SAPS   C11 1207   0.450   2.391   6.518  0.0289  0.0788  0.5256
   10SAPS  H11A 1208   0.462   2.290   6.561  0.9308  0.9659  2.4959
   10SAPS  H11B 1209   0.415   2.463   6.595 -1.3004  0.7724 -0.6767
   10SAPS     P 1210   0.620   2.570   6.434  0.2280  0.2973 -0.4722
   10SAPS   O13 1211   0.652   2.585   6.291 -0.4853  0.2302 -0.5219
   10SAPS   O14 1212   0.517   2.666   6.487  0.2289  0.3063  0.0630
   10SAPS   O12 1213   0.578   2.426   6.468 -0.0179  0.1525  0.2683
   10SAPS   O11 1214   0.744   2.609   6.507 -0.4642 -0.5285 -0.5593
   10SAPS    C1 1215   0.820   2.515   6.592 -0.0607 -0.1105 -0.0090
   10SAPS    HA 1216   0.819   2.409   6.558 -1.7150 -0.6235  1.5178
   10SAPS    HB 1217   0.928   2.540   6.582 -0.0841 -0.7605 -2.4406
   10SAPS    C2 1218   0.788   2.517   6.744 -0.2776 -0.0710  0.0483
   10SAPS    HS 1219   0.704   2.446   6.754 -1.3802  1.1731 -0.1053
   10SAPS   O21 1220   0.752   2.653   6.793 -0.6286  0.5039 -0.6451
   10SAPS   C21 1221   0.658   2.659   6.892 -0.3487 -0.2092 -0.0430
   10SAPS   O22 1222   0.588   2.564   6.926 -0.1597 -0.8007  0.4718
   10SAPS   C22 1223   0.655   2.805   6.942  0.5120 -0.4826  0.3140
   10SAPS   H2R 1224   0.761   2.833   6.962  0.4209 -0.4201  0.7090
   10SAPS   H2S 1225   0.616   2.873   6.862  1.6063  1.7649  1.5802
   10SAPS    C3 1226   0.912   2.465   6.819  0.5020 -0.0521  0.2066
   10SAPS    HX 1227   1.001   2.524   6.787 -0.7779  2.1702  0.4961
   10SAPS    HY 1228   0.939   2.365   6.779 -1.5685  0.4627 -2.7504
   10SAPS   O31 1229   0.899   2.478   6.964  0.0479  0.0192 -0.0186
   10SAPS   C31 1230   0.843   2.369   7.014 -0.0449  0.5531  0.3408
   10SAPS   O32 1231   0.796   2.279   6.944 -0.2082  0.5854 -0.3106
   10SAPS   C32 1232   0.828   2.376   7.163 -0.2729 -0.3579  0.1659
   10SAPS   H2X 1233   0.778   2.473   7.182 -1.1287 -0.3665 -1.7761
   10SAPS   H2Y 1234   0.928   2.365   7.209  0.5029 -0.1533 -1.4188
   10SAPS   C23 1235   0.568   2.820   7.067  1.0088  0.1841 -0.7004
   10SAPS   H3R 1236   0.614   2.774   7.158  0.5810 -1.0806 -1.1051
   10SAPS   H3S 1237   0.476   2.759   7.058  2.1043 -1.4854 -0.9396
   10SAPS   C24 1238   0.511   2.963   7.082 -0.3875  0.8678 -0.4823
   10SAPS   H4R 1239   0.419   2.957   7.144 -0.9648 -0.5955 -1.4126
   10SAPS   H4S 1240   0.486   3.005   6.982  1.1931  0.2969 -1.1428
   10SAPS   C25 1241   0.622   3.040   7.152 -0.2540 -0.4859 -0.2401
   10SAPS   H5R 1242   0.694   3.091   7.086 -0.8778 -1.6817 -1.8930
   10SAPS   C26 1243   0.640   3.065   7.282  0.4034 -1.0655 -0.1713
   10SAPS   H6R 1244   0.729   3.118   7.319  0.6474 -0.7945 -1.1336
   10SAPS   C27 1245   0.549   3.022   7.395  0.1283  0.4133  0.1024
   10SAPS   H7R 1246   0.558   2.918   7.432 -4.0851 -0.3425 -0.4779
   10SAPS   H7S 1247   0.444   3.015   7.358  0.5590  0.1052 -1.1231
   10SAPS   C28 1248   0.540   3.107   7.517  0.2511 -0.5264 -0.0297
   10SAPS   H8R 1249   0.571   3.212   7.501  1.0801 -0.5936  1.0648
   10SAPS   C29 1250   0.499   3.066   7.642 -0.2332 -0.1482 -0.1684
   10SAPS   H9R 1251   0.501   3.146   7.716 -1.9209  2.0469 -2.3129
   10SAPS  C210 1252   0.451   2.930   7.693 -0.0490 -0.3650 -0.3137
   10SAPS  H10R 1253   0.533   2.858   7.713  0.2237 -0.7040 -2.3598
   10SAPS  H10S 1254   0.402   2.884   7.604  1.0384  0.8000 -1.5646
   10SAPS  C211 1255   0.348   2.930   7.795  0.2906 -0.1001 -0.0857
   10SAPS  H11R 1256   0.278   3.016   7.793  0.5574  0.1946  1.5713
   10SAPS  C212 1257   0.331   2.834   7.884  0.1964 -0.1477  0.0484
   10SAPS  H12R 1258   0.252   2.855   7.957  1.9980 -0.1251  2.0774
   10SAPS  C213 1259   0.422   2.719   7.918  0.0574  0.3695  0.4024
   10SAPS  H13R 1260   0.491   2.693   7.835  0.1905  0.6558  0.4228
   10SAPS  H13S 1261   0.351   2.634   7.931  2.1786 -1.4344  0.8083
   10SAPS  C214 1262   0.504   2.738   8.043 -0.4522  0.3992 -0.3665
   10SAPS  H14R 1263   0.572   2.824   8.029 -0.1717  0.0780 -1.0454
   10SAPS  C215 1264   0.498   2.680   8.161  0.2882 -0.3818 -0.3439
   10SAPS  H15R 1265   0.577   2.705   8.233  0.5323 -1.5045 -0.2131
   10SAPS  C216 1266   0.402   2.572   8.207 -0.3102  0.5821 -0.0687
   10SAPS  H16R 1267   0.461   2.494   8.259  0.3697  1.4547  0.5007
   10SAPS  H16S 1268   0.348   2.522   8.123  1.0607  0.1418 -0.7162
   10SAPS  C217 1269   0.292   2.637   8.289  0.3660 -0.2458 -0.8500
   10SAPS  H17R 1270   0.257   2.725   8.231  0.3124 -0.3002 -0.8999
   10SAPS  H17S 1271   0.341   2.666   8.384  1.8363 -1.3837 -1.2286
   10SAPS  C218 1272   0.160   2.551   8.313 -0.4207  0.6663 -0.3778
   10SAPS  H18R 1273   0.102   2.550   8.219 -0.5613  0.1402 -0.2890
   10SAPS  H18S 1274   0.098   2.591   8.396 -0.9865 -1.6090  0.3644
   10SAPS  C219 1275   0.193   2.405   8.344 -0.2278 -0.3221 -0.5023
   10SAPS  H19R 1276   0.250   2.359   8.262  0.4478 -2.6605  1.1916
   10SAPS  H19S 1277   0.099   2.346   8.346 -2.4364  2.7959 -2.5548
   10SAPS  C220 1278   0.269   2.404   8.478 -1.3918 -0.2834  0.0926
   10SAPS  H20R 1279   0.352   2.478   8.478 -1.3246 -0.3522  0.5630
   10SAPS  H20S 1280   0.316   2.304   8.490  2.2198  1.4707  2.2276
   10SAPS  H20T 1281   0.194   2.436   8.554 -0.7054  0.7572  0.3493
   10SAPS   C33 1282   0.741   2.264   7.226 -0.5273  0.6285  0.2815
   10SAPS   H3X 1283   0.810   2.178   7.241  2.1670  2.8044  1.1843
   10SAPS   H3Y 1284   0.662   2.231   7.155 -0.9249 -0.6819  1.2907
   10SAPS   C34 1285   0.692   2.309   7.358  0.3061 -0.1252 -0.1449
   10SAPS   H4X 1286   0.598   2.254   7.380 -0.1038  0.3986 -0.5684
   10SAPS   H4Y 1287   0.648   2.411   7.349  1.4640  0.2787 -1.5070
   10SAPS   C35 1288   0.792   2.294   7.467  1.1749  0.8960 -0.2473
   10SAPS   H5X 1289   0.884   2.354   7.452  1.8971  0.1975  1.2209
   10SAPS   H5Y 1290   0.818   2.186   7.467  1.4657  0.9029  2.5739
   10SAPS   C36 1291   0.742   2.324   7.610  0.6560  0.5998 -0.5369
   10SAPS   H6X 1292   0.634   2.303   7.623  0.5437  0.6217 -1.3542
   10SAPS   H6Y 1293   0.762   2.433   7.618 -0.6439  0.7693  0.7906
   10SAPS   C37 1294   0.816   2.238   7.713  0.3842 -0.1937 -0.5722
   10SAPS   H7X 1295   0.926   2.253   7.713  0.5257 -0.2232  3.4146
   10SAPS   H7Y 1296   0.792   2.134   7.680 -0.9191 -0.1743  0.2630
   10SAPS   C38 1297   0.755   2.271   7.853 -0.2947  0.6419 -0.9710
   10SAPS   H8X 1298   0.644   2.281   7.848 -0.3825  0.0141 -0.3977
   10SAPS   H8Y 1299   0.791   2.367   7.895 -1.9004  0.5846  0.6979
   10SAPS   C39 1300   0.783   2.167   7.966  0.0682 -0.6965  0.8945
   10SAPS   H9X 1301   0.761   2.199   8.070  0.4908  1.9643  0.2476
   10SAPS   H9Y 1302   0.893   2.155   7.963  0.1699  0.3085  0.1166
   10SAPS  C310 1303   0.725   2.022   7.935  0.3384 -0.3433  0.2860
   10SAPS  H10X 1304   0.771   1.983   7.842  2.1113 -1.1406  1.4423
   10SAPS  H10Y 1305   0.615   2.030   7.925  0.5243  1.4573 -0.7806
   10SAPS  C311 1306   0.762   1.923   8.045  0.2913 -0.2979  0.6911
   10SAPS  H11X 1307   0.732   1.955   8.147 -2.5588  1.3160 -0.5177
   10SAPS  H11Y 1308   0.873   1.932   8.045  0.3645 -1.1808  0.8703
   10SAPS  C312 1309   0.720   1.777   8.023  0.4287 -0.3325  0.4738
   10SAPS  H12X 1310   0.609   1.772   8.015  0.4851 -3.5067  0.2826
   10SAPS  H12Y 1311   0.755   1.714   8.107  0.3685  0.3759  1.0421
   10SAPS  C313 1312   0.770   1.714   7.891  0.0595  0.1484  0.3606
   10SAPS  H13X 1313   0.814   1.613   7.905 -1.0347 -0.0957  2.4246
   10SAPS  H13Y 1314   0.857   1.771   7.853 -0.1080  0.3712  0.3087
   10SAPS  C314 1315   0.664   1.709   7.787  0.2517 -0.3285  0.8082
   10SAPS  H14X 1316   0.636   1.817   7.780  0.5472 -0.2951  0.0484
   10SAPS  H14Y 1317   0.577   1.656   7.830 -0.0700  0.5754  1.3006
   10SAPS  C315 1318   0.711   1.637   7.661 -0.1446  0.2504  0.1524
   10SAPS  H15X 1319   0.728   1.529   7.682  1.6566  0.4796 -0.0037
   10SAPS  H15Y 1320   0.810   1.681   7.636  0.3168 -0.2133  1.1191
   10SAPS  C316 1321   0.623   1.652   7.535 -0.0681 -0.2597  0.0532
   10SAPS  H16X 1322   0.630   1.752   7.487  0.4722 -0.6806 -0.7615
   10SAPS  H16Y 1323   0.520   1.621   7.560  0.2356  0.0804  1.9104
   10SAPS  C317 1324   0.658   1.553   7.425  0.3964 -0.6868 -0.6185
   10SAPS  H17X 1325   0.668   1.449   7.465 -0.1415 -0.1274  1.0588
   10SAPS  H17Y 1326   0.757   1.580   7.382  0.8226  1.2388  1.3656
   10SAPS  C318 1327   0.559   1.544   7.306 -0.2570  0.0214 -0.0688
   10SAPS  H18X 1328   0.610   1.494   7.221  1.7443 -0.9787  1.6167
   10SAPS  H18Y 1329   0.530   1.643   7.265  0.0539  0.5924  1.0433
   10SAPS  H18Z 1330   0.461   1.506   7.341 -0.8937  0.7993 -0.9657
   11SAPS     N 1331   2.344   6.325   5.743 -0.1907 -0.3387 -0.4503
   11SAPS   HN1 1332   2.400   6.388   5.804 -0.5415 -0.1277 -0.3471
   11SAPS   HN2 1333   2.383   6.319   5.647  1.5998 -2.9302  0.3122
   11SAPS   HN3 1334   2.245   6.354   5.758  0.0217 -0.9690  2.8989
   11SAPS   C12 1335   2.346   6.183   5.782 -0.0034 -0.4121 -0.8282
   11SAPS  H12A 1336   2.298   6.124   5.706  1.0228 -1.3406 -0.7765
   11SAPS   C13 1337   2.487   6.123   5.804 -0.0198 -0.1151 -0.1680
   11SAPS  O13A 1338   2.591   6.197   5.781 -0.1065 -0.3625  0.9277
   11SAPS  O13B 1339   2.500   5.999   5.831 -0.0757  0.0647 -0.8131
   11SAPS   C11 1340   2.266   6.161   5.913 -0.1941 -0.1798  0.6297
   11SAPS  H11A 1341   2.319   6.199   6.003  0.4585  0.6366 -0.0915
   11SAPS  H11B 1342   2.267   6.050   5.918 -0.0967 -0.5470 -3.9268
   11SAPS     P 1343   2.070   6.326   5.956 -0.1944 -0.0730 -0.1637
   11SAPS   O13 1344   2.123   6.436   5.870 -0.1766 -0.3025  0.0504
   11SAPS   O14 1345   1.928   6.320   5.970  0.0151  0.0712  0.2107
   11SAPS   O12 1346   2.127   6.193   5.894  0.0962  0.1344  0.2323
   11SAPS   O11 1347   2.135   6.342   6.100  0.7612 -0.4086  0.2617
   11SAPS    C1 1348   2.114   6.250   6.204 -0.1485  0.5517  0.0723
   11SAPS    HA 1349   2.006   6.224   6.211  0.0473  0.1843  2.1616
   11SAPS    HB 1350   2.182   6.163   6.201  1.5751  1.5273  4.1570
   11SAPS    C2 1351   2.151   6.318   6.341 -0.2647 -0.1553 -0.1413
   11SAPS    HS 1352   2.256   6.293   6.365 -0.4185 -1.0957 -0.4099
   11SAPS   O21 1353   2.062   6.263   6.442  0.1789 -0.1375 -0.4528
   11SAPS   C21 1354   2.094   6.139   6.471 -0.0237  0.0329 -0.1042
   11SAPS   O22 1355   2.192   6.077   6.429  0.8747  0.1537 -0.6084
   11SAPS   C22 1356   1.993   6.091   6.572 -0.1999  0.0196  0.5316
   11SAPS   H2R 1357   1.915   6.168   6.592  0.5860  1.0543 -0.2550
   11SAPS   H2S 1358   1.945   5.999   6.532  1.1455 -1.1392  1.5152
   11SAPS    C3 1359   2.126   6.472   6.339  0.8092  0.2137 -0.0018
   11SAPS    HX 1360   2.021   6.491   6.307  0.9682  0.1338 -0.5808
   11SAPS    HY 1361   2.184   6.520   6.257  0.3765 -1.1192 -1.1219
   11SAPS   O31 1362   2.160   6.544   6.455 -0.1652  0.2005 -0.2191
   11SAPS   C31 1363   2.071   6.575   6.552  0.9526  0.2995  0.5172
   11SAPS   O32 1364   1.949   6.566   6.539 -0.4650 -0.2169 -0.0565
   11SAPS   C32 1365   2.136   6.610   6.688 -0.1949 -0.4899 -0.2979
   11SAPS   H2X 1366   2.063   6.576   6.764 -0.5601  1.8927  0.5139
   11SAPS   H2Y 1367   2.128   6.720   6.705 -0.7265 -0.7120  0.9785
   11SAPS   C23 1368   2.058   6.067   6.707 -0.1605  0.5535  0.1619
   11SAPS   H3R 1369   1.978   6.055   6.784  0.3956 -1.1443  0.5156
   11SAPS   H3S 1370   2.130   6.147   6.737  0.6060 -0.9146  2.5246
   11SAPS   C24 1371   2.138   5.928   6.712  0.2907 -0.9479  0.3095
   11SAPS   H4R 1372   2.201   5.914   6.802  0.1530  0.3052  0.6107
   11SAPS   H4S 1373   2.219   5.927   6.635  0.2745  0.8848  0.2269
   11SAPS   C25 1374   2.051   5.811   6.698 -0.3065  0.6422 -0.1186
   11SAPS   H5R 1375   2.025   5.777   6.597  1.1728  0.1295 -0.3466
   11SAPS   C26 1376   1.995   5.750   6.808  0.1077  0.2564 -0.1579
   11SAPS   H6R 1377   1.939   5.656   6.801  0.2368  0.0513  1.2991
   11SAPS   C27 1378   2.009   5.795   6.957 -0.0708 -0.0849  0.2623
   11SAPS   H7R 1379   1.910   5.798   7.007 -1.8635 -1.9932 -2.8306
   11SAPS   H7S 1380   2.055   5.896   6.958 -1.3286  0.5277 -0.5456
   11SAPS   C28 1381   2.105   5.695   7.012 -1.0790  0.3599  0.0082
   11SAPS   H8R 1382   2.178   5.660   6.938 -1.9192 -1.1183 -0.1479
   11SAPS   C29 1383   2.127   5.650   7.132  0.4548 -0.1215 -0.4474
   11SAPS   H9R 1384   2.203   5.570   7.142  2.5706  1.5185 -2.3250
   11SAPS  C210 1385   2.048   5.674   7.261  0.0403  0.1668  0.1935
   11SAPS  H10R 1386   2.042   5.579   7.317  1.8937 -1.1929 -1.7706
   11SAPS  H10S 1387   1.942   5.706   7.244  0.5729  1.5258 -0.7497
   11SAPS  C211 1388   2.105   5.772   7.354  0.3178  0.1229 -1.3098
   11SAPS  H11R 1389   2.197   5.824   7.323  0.3662  0.5133 -0.5357
   11SAPS  C212 1390   2.058   5.801   7.476  0.4443 -0.8752 -0.3832
   11SAPS  H12R 1391   2.114   5.880   7.529  2.7666 -1.5959 -1.6382
   11SAPS  C213 1392   1.938   5.741   7.549  0.5896 -0.6190  0.1322
   11SAPS  H13R 1393   1.979   5.659   7.613  0.6003 -0.6616  0.0703
   11SAPS  H13S 1394   1.867   5.699   7.475  1.4269 -0.4157 -0.8043
   11SAPS  C214 1395   1.859   5.845   7.624 -0.5729 -0.4009 -0.3266
   11SAPS  H14R 1396   1.798   5.918   7.568  0.8091 -0.2844 -1.7518
   11SAPS  C215 1397   1.837   5.842   7.753 -0.7090  0.5889  0.2073
   11SAPS  H15R 1398   1.772   5.919   7.797 -0.1978  0.6051  0.9502
   11SAPS  C216 1399   1.904   5.746   7.854  0.1549 -0.1187 -0.5450
   11SAPS  H16R 1400   1.983   5.679   7.813 -1.4635 -1.8330 -1.0109
   11SAPS  H16S 1401   1.829   5.670   7.884 -0.1678  0.9017  1.4168
   11SAPS  C217 1402   1.961   5.833   7.974  0.6373  0.0091 -0.4447
   11SAPS  H17R 1403   1.881   5.903   8.007  2.4289  2.3153 -0.6913
   11SAPS  H17S 1404   2.044   5.895   7.934 -0.2136 -0.6754 -3.4882
   11SAPS  C218 1405   2.002   5.751   8.104  0.9361  0.4683  0.0116
   11SAPS  H18R 1406   2.089   5.688   8.074  0.8629  0.6083 -0.5167
   11SAPS  H18S 1407   1.910   5.690   8.121 -1.0004  2.5891 -2.0258
   11SAPS  C219 1408   2.038   5.835   8.222  0.0934  0.2106  0.3548
   11SAPS  H19R 1409   2.132   5.886   8.194  0.2390 -0.5723 -0.6164
   11SAPS  H19S 1410   2.069   5.763   8.301  1.8110  0.1329 -0.3689
   11SAPS  C220 1411   1.924   5.925   8.271 -0.3572  0.5766 -0.3533
   11SAPS  H20R 1412   1.822   5.896   8.238 -1.1762  2.4712  0.4062
   11SAPS  H20S 1413   1.938   6.025   8.224 -1.8265  1.2460  0.5532
   11SAPS  H20T 1414   1.920   5.942   8.380 -1.2866  1.0732 -0.4484
   11SAPS   C33 1415   2.282   6.556   6.707 -0.2501 -0.1703 -0.3446
   11SAPS   H3X 1416   2.339   6.607   6.627  0.8130  0.6781  0.9101
   11SAPS   H3Y 1417   2.293   6.448   6.686  0.1753 -0.6938  2.2588
   11SAPS   C34 1418   2.346   6.586   6.832  1.0625  0.1607  0.2675
   11SAPS   H4X 1419   2.353   6.697   6.837  0.1358  0.1876  1.2993
   11SAPS   H4Y 1420   2.441   6.533   6.854  0.6036 -0.2908  1.2167
   11SAPS   C35 1421   2.253   6.527   6.948 -0.6326  0.4639  0.4217
   11SAPS   H5X 1422   2.273   6.419   6.932  3.2247  1.2127 -0.9714
   11SAPS   H5Y 1423   2.146   6.557   6.941 -1.9020 -2.4860  4.0024
   11SAPS   C36 1424   2.309   6.577   7.085 -0.5172  0.3202  0.6023
   11SAPS   H6X 1425   2.311   6.688   7.083  1.3763  0.2966 -0.5824
   11SAPS   H6Y 1426   2.406   6.533   7.117 -0.0740  0.8832  0.0480
   11SAPS   C37 1427   2.219   6.549   7.204 -0.6811  0.1019  0.2601
   11SAPS   H7X 1428   2.196   6.440   7.205 -3.1845  0.4925 -2.0375
   11SAPS   H7Y 1429   2.120   6.599   7.193 -0.0643  1.7508  1.7454
   11SAPS   C38 1430   2.287   6.574   7.338 -0.2530 -0.9180  0.1674
   11SAPS   H8X 1431   2.347   6.667   7.337 -1.1430 -0.3357  0.3507
   11SAPS   H8Y 1432   2.363   6.494   7.351 -0.0469 -0.5162  1.6675
   11SAPS   C39 1433   2.185   6.575   7.449  0.5123  0.6802  0.3817
   11SAPS   H9X 1434   2.140   6.474   7.461  2.7512 -0.8370 -2.5823
   11SAPS   H9Y 1435   2.102   6.643   7.417 -0.2618 -1.4693 -2.6343
   11SAPS  C310 1436   2.253   6.618   7.580 -0.1525  0.9397  0.5431
   11SAPS  H10X 1437   2.279   6.724   7.556  1.3493  0.6756  0.9177
   11SAPS  H10Y 1438   2.349   6.564   7.588 -0.0067  1.3624  2.0610
   11SAPS  C311 1439   2.185   6.595   7.711  0.3120 -0.1476 -0.4151
   11SAPS  H11X 1440   2.161   6.489   7.731  1.1196 -0.5262 -1.4139
   11SAPS  H11Y 1441   2.093   6.657   7.709  1.1651  1.2199  0.7326
   11SAPS  C312 1442   2.276   6.644   7.828 -0.3293  0.1148  0.6952
   11SAPS  H12X 1443   2.290   6.753   7.816 -0.2053 -0.0088 -0.3328
   11SAPS  H12Y 1444   2.382   6.612   7.821 -1.1629 -2.6544 -1.3496
   11SAPS  C313 1445   2.204   6.625   7.963  0.2998  0.3393  0.6547
   11SAPS  H13X 1446   2.096   6.645   7.944  0.6012 -0.7644 -2.8933
   11SAPS  H13Y 1447   2.229   6.707   8.033 -0.9409  1.1487  0.1973
   11SAPS  C314 1448   2.228   6.482   8.019 -0.7978  0.7759  0.0739
   11SAPS  H14X 1449   2.335   6.454   8.032 -0.3626  2.8296  1.3037
   11SAPS  H14Y 1450   2.171   6.405   7.962 -0.1217 -1.4466  2.1809
   11SAPS  C315 1451   2.167   6.465   8.163  0.1045 -0.5265 -0.0548
   11SAPS  H15X 1452   2.065   6.508   8.152  0.0063  0.2476  2.9345
   11SAPS  H15Y 1453   2.210   6.538   8.235 -1.9951  1.5595 -0.7904
   11SAPS  C316 1454   2.181   6.324   8.224  0.4119  0.1313  0.1293
   11SAPS  H16X 1455   2.290   6.306   8.221  0.6453  1.2155  1.2547
   11SAPS  H16Y 1456   2.133   6.252   8.154 -0.3616  2.2343 -1.6414
   11SAPS  C317 1457   2.116   6.302   8.359 -0.4938  1.0107 -0.0205
   11SAPS  H17X 1458   2.153   6.388   8.419  0.4247 -0.8851  2.3371
   11SAPS  H17Y 1459   2.157   6.214   8.415 -1.3062  0.4267 -0.3224
   11SAPS  C318 1460   1.967   6.296   8.370  0.3455  0.0115  0.0021
   11SAPS  H18X 1461   1.920   6.350   8.286 -1.3083  1.2283  1.6244
   11SAPS  H18Y 1462   1.925   6.332   8.466 -0.0161 -0.9583  0.2158
   11SAPS  H18Z 1463   1.927   6.192   8.371  0.3327  0.0107  1.3046
   12SAPS     N 1464   6.619   0.844   5.894 -0.1753  0.8699 -0.2073
   12SAPS   HN1 1465   6.582   0.903   5.817 -0.2985 -0.5561 -1.2974
   12SAPS   HN2 1466   6.576   0.884   5.980  2.8184  1.6214  1.0651
   12SAPS   HN3 1467   6.720   0.866   5.901 -0.5080  2.1237  4.9462
   12SAPS   C12 1468   6.585   0.703   5.884 -1.2206 -0.2531  0.2983
   12SAPS  H12A 1469   6.489   0.694   5.836  0.2009  2.2332 -3.5251
   12SAPS   C13 1470   6.671   0.620   5.791 -0.1750 -0.6080  0.1632
   12SAPS  O13A 1471   6.770   0.670   5.737 -0.3346  0.1633  0.1424
   12SAPS  O13B 1472   6.620   0.509   5.761  0.6499  0.2539 -0.0403
   12SAPS   C11 1473   6.585   0.639   6.026  0.2487  0.3307 -0.2844
   12SAPS  H11A 1474   6.691   0.635   6.059  1.0475  2.0200 -2.4589
   12SAPS  H11B 1475   6.547   0.534   6.018  1.5095 -0.7663  4.5564
   12SAPS     P 1476   6.368   0.697   6.146 -0.3820 -0.0014 -0.0679
   12SAPS   O13 1477   6.288   0.799   6.069 -0.6025  0.1909  0.1130
   12SAPS   O14 1478   6.335   0.555   6.130  0.1158  0.3165  0.3629
   12SAPS   O12 1479   6.518   0.723   6.118  0.2993  0.4323 -1.2978
   12SAPS   O11 1480   6.330   0.732   6.289 -0.5765  0.1196 -0.1526
   12SAPS    C1 1481   6.417   0.822   6.360  0.2520 -0.2968 -0.5960
   12SAPS    HA 1482   6.516   0.773   6.356 -0.2338 -1.1977 -3.0482
   12SAPS    HB 1483   6.422   0.925   6.319 -0.0046  1.5166  3.4713
   12SAPS    C2 1484   6.374   0.838   6.513  0.4597  0.0215 -0.4150
   12SAPS    HS 1485   6.459   0.872   6.575 -0.5921 -1.0856  1.7433
   12SAPS   O21 1486   6.315   0.724   6.567 -0.4316  0.4898 -0.3558
   12SAPS   C21 1487   6.402   0.643   6.618 -0.2314 -0.7902  0.1240
   12SAPS   O22 1488   6.527   0.657   6.613  0.5686  0.2071  0.0759
   12SAPS   C22 1489   6.341   0.541   6.705  0.7529  0.1887 -0.4877
   12SAPS   H2R 1490   6.263   0.484   6.650 -1.3912 -0.5500  3.0497
   12SAPS   H2S 1491   6.423   0.469   6.725  1.4856  1.2858  0.5481
   12SAPS    C3 1492   6.266   0.955   6.527 -0.3094 -0.1769 -0.2474
   12SAPS    HX 1493   6.178   0.954   6.459 -1.0563  1.5193  0.6386
   12SAPS    HY 1494   6.306   1.053   6.495 -0.3131  0.1468  0.7073
   12SAPS   O31 1495   6.229   0.977   6.666  0.2202 -0.0472  0.0003
   12SAPS   C31 1496   6.114   0.921   6.695 -0.2658 -0.6183 -0.4551
   12SAPS   O32 1497   6.046   0.861   6.612  0.0874 -0.6137 -0.1358
   12SAPS   C32 1498   6.079   0.936   6.847  0.3201 -0.0243  0.0555
   12SAPS   H2X 1499   6.096   1.043   6.874  1.2518 -0.1688  0.0625
   12SAPS   H2Y 1500   6.162   0.877   6.890  0.3260 -0.2755 -0.2950
   12SAPS   C23 1501   6.281   0.585   6.845 -0.3330 -0.0608 -0.0851
   12SAPS   H3R 1502   6.223   0.676   6.817 -0.5001  0.6526  2.2680
   12SAPS   H3S 1503   6.350   0.614   6.928 -0.8957 -0.3973  0.5145
   12SAPS   C24 1504   6.186   0.489   6.916 -1.0213  0.1190  0.2370
   12SAPS   H4R 1505   6.097   0.490   6.849  0.9024  1.0834 -2.4814
   12SAPS   H4S 1506   6.154   0.540   7.009  0.3349 -1.0311  1.3912
   12SAPS   C25 1507   6.253   0.357   6.953  0.1520 -0.2864 -0.1795
   12SAPS   H5R 1508   6.315   0.314   6.873  0.1064  1.6036 -1.2911
   12SAPS   C26 1509   6.255   0.306   7.076  0.4040 -0.0227  0.5724
   12SAPS   H6R 1510   6.286   0.200   7.079 -0.3183 -0.2445  0.5804
   12SAPS   C27 1511   6.175   0.360   7.200 -0.4607  0.7737 -0.6381
   12SAPS   H7R 1512   6.125   0.272   7.246  0.8557  2.1082  3.8561
   12SAPS   H7S 1513   6.094   0.429   7.168  0.3228  1.0354 -2.1371
   12SAPS   C28 1514   6.272   0.429   7.295 -0.2577 -0.1651  0.8418
   12SAPS   H8R 1515   6.354   0.489   7.252 -0.7146 -1.0072 -1.2849
   12SAPS   C29 1516   6.255   0.440   7.432 -0.6629  0.1135 -0.0981
   12SAPS   H9R 1517   6.334   0.489   7.491 -0.7253 -1.0981  1.0423
   12SAPS  C210 1518   6.144   0.373   7.509  0.1997  0.1428 -0.5861
   12SAPS  H10R 1519   6.180   0.269   7.524  2.3947  0.6745 -1.6857
   12SAPS  H10S 1520   6.059   0.384   7.438 -0.2204  1.3998  0.0882
   12SAPS  C211 1521   6.120   0.444   7.642  0.3033 -0.0908  0.9744
   12SAPS  H11R 1522   6.040   0.519   7.646  0.7393  0.5586 -1.1043
   12SAPS  C212 1523   6.196   0.425   7.751  0.5124  0.0706 -0.4926
   12SAPS  H12R 1524   6.163   0.477   7.841  1.0093 -1.8577  0.8807
   12SAPS  C213 1525   6.319   0.344   7.766 -0.3003  0.3012 -0.3145
   12SAPS  H13R 1526   6.410   0.407   7.763 -0.3126  0.2733 -1.7998
   12SAPS  H13S 1527   6.332   0.263   7.690 -2.3617 -2.0129  1.6002
   12SAPS  C214 1528   6.311   0.268   7.900  0.2757 -0.0667 -0.3108
   12SAPS  H14R 1529   6.218   0.211   7.911  0.9338 -1.2000 -0.4622
   12SAPS  C215 1530   6.397   0.278   8.003  0.5326  0.2256  0.2123
   12SAPS  H15R 1531   6.370   0.220   8.093  1.0474 -0.6786 -0.1936
   12SAPS  C216 1532   6.529   0.349   8.023  0.6435 -0.1967  0.4221
   12SAPS  H16R 1533   6.543   0.426   7.944 -0.0561  1.4828  1.8381
   12SAPS  H16S 1534   6.609   0.274   8.008 -2.0810 -3.0293 -1.3684
   12SAPS  C217 1535   6.527   0.429   8.157  0.4067 -0.4412  0.1767
   12SAPS  H17R 1536   6.628   0.471   8.175 -0.4155  1.1952  1.2577
   12SAPS  H17S 1537   6.508   0.369   8.249 -0.9362 -0.8823 -0.3696
   12SAPS  C218 1538   6.420   0.537   8.172 -0.3482 -0.6929  0.4125
   12SAPS  H18R 1539   6.447   0.596   8.263  0.2308 -1.9682  1.0972
   12SAPS  H18S 1540   6.326   0.483   8.196 -2.4380  3.1683  1.9100
   12SAPS  C219 1541   6.410   0.640   8.060 -0.3664 -0.1546  0.0440
   12SAPS  H19R 1542   6.334   0.713   8.094  0.1331 -0.1338  1.1641
   12SAPS  H19S 1543   6.372   0.572   7.981 -0.9493 -0.4326  0.5491
   12SAPS  C220 1544   6.544   0.705   8.029  0.1018 -0.1265  0.1071
   12SAPS  H20R 1545   6.522   0.784   7.954 -0.3025 -0.9331 -0.6464
   12SAPS  H20S 1546   6.624   0.633   8.002 -1.4455 -1.8404 -0.1091
   12SAPS  H20T 1547   6.590   0.742   8.123 -1.2187 -2.0533  1.5985
   12SAPS   C33 1548   5.946   0.858   6.885 -0.1420  0.2827  0.8441
   12SAPS   H3X 1549   5.956   0.748   6.874 -0.2447  0.3255  0.3065
   12SAPS   H3Y 1550   5.867   0.907   6.824  0.8677  2.7094  1.3582
   12SAPS   C34 1551   5.893   0.897   7.022  0.6414 -0.3473  0.3171
   12SAPS   H4X 1552   5.783   0.881   7.024  0.0142  2.1448 -3.4776
   12SAPS   H4Y 1553   5.911   1.007   7.023  1.8994 -0.4175 -2.8703
   12SAPS   C35 1554   5.977   0.840   7.136 -0.5517  0.7920 -0.3197
   12SAPS   H5X 1555   6.073   0.896   7.136 -1.2369  2.0198 -0.8477
   12SAPS   H5Y 1556   6.006   0.737   7.106 -0.2189  0.4902  0.9912
   12SAPS   C36 1557   5.907   0.836   7.278  0.0966 -0.3986 -0.2421
   12SAPS   H6X 1558   5.799   0.814   7.262 -0.2583 -0.1497  1.5166
   12SAPS   H6Y 1559   5.925   0.941   7.310 -2.2077 -0.6216  2.0970
   12SAPS   C37 1560   5.973   0.743   7.376  0.7767 -0.8130 -0.1027
   12SAPS   H7X 1561   6.083   0.744   7.360  1.3772 -1.4477  3.2936
   12SAPS   H7Y 1562   5.947   0.636   7.358  1.4125 -0.8543 -0.8180
   12SAPS   C38 1563   5.944   0.785   7.518 -0.1601 -0.0274 -0.1822
   12SAPS   H8X 1564   5.969   0.892   7.539 -1.9051  0.3065  0.3780
   12SAPS   H8Y 1565   6.017   0.727   7.578  3.0809  3.1592 -0.7002
   12SAPS   C39 1566   5.805   0.760   7.568  0.5118  0.7827  0.8960
   12SAPS   H9X 1567   5.794   0.654   7.537  1.1003  0.4995  1.6226
   12SAPS   H9Y 1568   5.739   0.817   7.499  1.6741  1.2211  0.1016
   12SAPS  C310 1569   5.770   0.781   7.719 -0.4525 -0.0220 -0.6567
   12SAPS  H10X 1570   5.661   0.762   7.731 -0.3660  0.3920  1.0722
   12SAPS  H10Y 1571   5.793   0.886   7.749 -0.6505 -0.8423  2.8818
   12SAPS  C311 1572   5.856   0.680   7.805  0.2086 -0.3390  0.4470
   12SAPS  H11X 1573   5.962   0.712   7.797  0.1834 -0.4723 -0.6259
   12SAPS  H11Y 1574   5.848   0.576   7.767  0.0586  0.0822 -0.7346
   12SAPS  C312 1575   5.824   0.689   7.958 -0.0770 -0.1421  0.1235
   12SAPS  H12X 1576   5.714   0.683   7.971 -0.1583  1.4267  0.4080
   12SAPS  H12Y 1577   5.852   0.792   7.990 -1.8760  0.6817 -0.8090
   12SAPS  C313 1578   5.886   0.577   8.032 -0.2755  0.4356  0.1991
   12SAPS  H13X 1579   5.995   0.578   8.010 -0.2393 -0.7871  0.2502
   12SAPS  H13Y 1580   5.853   0.478   7.993  0.5154  0.8330 -1.6136
   12SAPS  C314 1581   5.872   0.598   8.187  0.3855  0.6738  0.3063
   12SAPS  H14X 1582   5.775   0.548   8.209 -0.2502  0.8867 -1.8277
   12SAPS  H14Y 1583   5.882   0.706   8.212  0.3738  0.7208  0.1123
   12SAPS  C315 1584   5.981   0.524   8.268 -0.1969 -0.2709  0.2205
   12SAPS  H15X 1585   6.076   0.570   8.234  0.7541 -0.9553  1.8082
   12SAPS  H15Y 1586   5.972   0.414   8.251  0.3304 -0.5484  1.5626
   12SAPS  C316 1587   5.973   0.554   8.421  0.2124 -0.3314 -0.0809
   12SAPS  H16X 1588   5.917   0.475   8.475 -2.3146  1.5265  0.2269
   12SAPS  H16Y 1589   5.908   0.643   8.434  2.7014  1.6611 -0.4299
   12SAPS  C317 1590   6.107   0.551   8.489  0.3574 -0.4350  0.3741
   12SAPS  H17X 1591   6.136   0.653   8.519 -0.4436 -0.5458  1.5900
   12SAPS  H17Y 1592   6.176   0.503   8.416  1.5732  0.0108  1.2054
   12SAPS  C318 1593   6.094   0.480   8.626 -0.1348 -0.3914 -0.0386
   12SAPS  H18X 1594   6.026   0.527   8.700  0.5963 -0.4950  0.7167
   12SAPS  H18Y 1595   6.185   0.498   8.687 -1.1748  2.7636  0.7805
   12SAPS  H18Z 1596   6.072   0.372   8.611 -2.3202  0.2215 -1.6802
   13SAPS     N 1597   3.002   4.653   6.100 -0.3930 -0.1259 -0.6479
   13SAPS   HN1 1598   2.997   4.600   6.190 -1.3058 -0.4268 -0.8625
   13SAPS   HN2 1599   3.084   4.716   6.097 -1.3227  1.2041  0.5532
   13SAPS   HN3 1600   2.919   4.715   6.104  0.7789  1.4808 -0.0872
   13SAPS   C12 1601   3.014   4.570   5.983  0.1778  0.3820  0.7700
   13SAPS  H12A 1602   3.005   4.622   5.889  0.7624  1.3298  1.2214
   13SAPS   C13 1603   3.155   4.486   5.982  0.0536 -0.2370  0.2485
   13SAPS  O13A 1604   3.221   4.474   6.088  0.0794  0.1490 -0.1369
   13SAPS  O13B 1605   3.179   4.410   5.886 -0.0397  0.1475  0.1137
   13SAPS   C11 1606   2.891   4.473   5.993  0.1748 -0.1509  0.0595
   13SAPS  H11A 1607   2.904   4.398   6.074 -2.0462 -0.6019  0.0431
   13SAPS  H11B 1608   2.877   4.422   5.895  1.2392 -0.0527 -0.1569
   13SAPS     P 1609   2.651   4.478   6.094 -0.2029  0.1934 -0.2791
   13SAPS   O13 1610   2.526   4.527   6.039  0.2402 -0.4748  0.0014
   13SAPS   O14 1611   2.682   4.331   6.092  0.3406 -0.1141 -0.0711
   13SAPS   O12 1612   2.769   4.548   6.014  0.5500 -0.5871 -0.4615
   13SAPS   O11 1613   2.669   4.522   6.241 -0.8034  0.1732 -0.0478
   13SAPS    C1 1614   2.589   4.477   6.353  0.7025  0.6008 -0.2293
   13SAPS    HA 1615   2.491   4.435   6.322  2.5727 -2.7301 -2.2599
   13SAPS    HB 1616   2.644   4.396   6.406 -0.7027 -1.6621 -2.0447
   13SAPS    C2 1617   2.564   4.588   6.455 -0.1357 -0.3077  0.3449
   13SAPS    HS 1618   2.507   4.669   6.405 -2.9999 -0.7316  2.6352
   13SAPS   O21 1619   2.687   4.643   6.506 -0.4109  0.9577  0.1601
   13SAPS   C21 1620   2.681   4.752   6.580  0.1190  0.5615 -0.1075
   13SAPS   O22 1621   2.586   4.823   6.590  0.3944 -0.1354  0.3216
   13SAPS   C22 1622   2.819   4.771   6.650 -0.2911  0.4874  0.0810
   13SAPS   H2R 1623   2.873   4.674   6.651 -0.5022  0.3710  0.5569
   13SAPS   H2S 1624   2.872   4.830   6.573 -0.3963 -0.9133 -1.1179
   13SAPS    C3 1625   2.469   4.545   6.564  0.2108  0.1688 -0.0112
   13SAPS    HX 1626   2.399   4.470   6.522 -1.8828  0.8670  2.0348
   13SAPS    HY 1627   2.417   4.637   6.596 -0.6059 -1.2470  3.1496
   13SAPS   O31 1628   2.532   4.490   6.677 -0.8396  0.2419 -0.7864
   13SAPS   C31 1629   2.561   4.356   6.683  0.9588 -0.3688 -0.2127
   13SAPS   O32 1630   2.544   4.281   6.593  0.3206  0.4445 -0.2740
   13SAPS   C32 1631   2.614   4.320   6.818 -0.6777 -0.0695  0.1403
   13SAPS   H2X 1632   2.581   4.391   6.896 -0.0392 -1.6907  1.9473
   13SAPS   H2Y 1633   2.725   4.325   6.819 -0.6694 -0.3351  0.9351
   13SAPS   C23 1634   2.800   4.828   6.793  0.5382 -0.7135  0.0243
   13SAPS   H3R 1635   2.768   4.932   6.775 -0.1059 -1.1988 -1.9409
   13SAPS   H3S 1636   2.899   4.845   6.840  0.3886 -0.9045  0.4160
   13SAPS   C24 1637   2.706   4.749   6.891 -0.0301  0.5642  0.2420
   13SAPS   H4R 1638   2.723   4.640   6.885 -1.2297  0.1414  3.0869
   13SAPS   H4S 1639   2.611   4.754   6.834  0.1568 -1.1509 -0.2638
   13SAPS   C25 1640   2.695   4.821   7.023  0.0365 -0.3513 -0.2284
   13SAPS   H5R 1641   2.631   4.907   7.002  0.9481 -0.1719 -2.5997
   13SAPS   C26 1642   2.740   4.781   7.148 -0.6511 -0.0042  0.1868
   13SAPS   H6R 1643   2.712   4.831   7.242 -2.4758 -0.0134 -0.3013
   13SAPS   C27 1644   2.822   4.649   7.165  0.7588 -0.3392 -0.2764
   13SAPS   H7R 1645   2.871   4.658   7.265 -1.7624 -1.0501  1.1237
   13SAPS   H7S 1646   2.906   4.663   7.094  0.3838  1.9951 -0.3104
   13SAPS   C28 1647   2.749   4.519   7.155  0.2558  0.4557  0.0371
   13SAPS   H8R 1648   2.716   4.484   7.056 -0.0273 -1.7105  0.8462
   13SAPS   C29 1649   2.697   4.455   7.265 -0.1005  0.9127 -0.4408
   13SAPS   H9R 1650   2.661   4.352   7.254 -1.1207  1.0796  1.0356
   13SAPS  C210 1651   2.694   4.506   7.410  0.0960  0.3291  0.3243
   13SAPS  H10R 1652   2.592   4.520   7.452 -1.4605 -0.0957 -2.9827
   13SAPS  H10S 1653   2.749   4.602   7.422 -0.6714  0.8417 -0.1480
   13SAPS  C211 1654   2.770   4.393   7.481 -0.3167  0.4114 -0.4942
   13SAPS  H11R 1655   2.879   4.392   7.495 -0.5301 -0.3158  1.2889
   13SAPS  C212 1656   2.709   4.299   7.551 -0.3837  0.9098  0.5900
   13SAPS  H12R 1657   2.770   4.213   7.580 -1.5461 -0.9751 -2.1865
   13SAPS  C213 1658   2.564   4.294   7.588  0.6494 -0.5357  0.7883
   13SAPS  H13R 1659   2.506   4.328   7.500 -1.1738 -1.4022  1.5958
   13SAPS  H13S 1660   2.551   4.373   7.665 -1.0174 -0.0967  0.1039
   13SAPS  C214 1661   2.512   4.154   7.632  0.8675  0.3258 -0.7618
   13SAPS  H14R 1662   2.473   4.091   7.551  1.7254 -0.2842 -0.7163
   13SAPS  C215 1663   2.501   4.104   7.759  0.1179  0.8624  0.1865
   13SAPS  H15R 1664   2.460   4.003   7.775 -2.5466  1.7611 -0.4393
   13SAPS  C216 1665   2.536   4.167   7.895  0.4228  1.6864  0.7497
   13SAPS  H16R 1666   2.624   4.234   7.888  2.9230 -1.3727  0.7651
   13SAPS  H16S 1667   2.578   4.088   7.961 -1.4212 -0.3483 -0.3660
   13SAPS  C217 1668   2.416   4.238   7.966 -0.5856  0.7038 -0.5268
   13SAPS  H17R 1669   2.444   4.243   8.073  0.3569  2.2496 -0.8144
   13SAPS  H17S 1670   2.316   4.190   7.964  0.0518 -1.0634  2.9730
   13SAPS  C218 1671   2.390   4.382   7.918 -0.7897 -0.0636  0.4254
   13SAPS  H18R 1672   2.370   4.372   7.809 -0.8994 -2.4122  0.6176
   13SAPS  H18S 1673   2.485   4.438   7.922 -0.7524 -0.1381  0.5864
   13SAPS  C219 1674   2.261   4.441   7.982 -0.6675 -0.4584  0.0728
   13SAPS  H19R 1675   2.271   4.428   8.092 -0.2669 -1.2365 -0.0550
   13SAPS  H19S 1676   2.170   4.384   7.953 -0.1555 -0.6637 -1.1822
   13SAPS  C220 1677   2.249   4.590   7.944  0.4473  0.5587  0.1505
   13SAPS  H20R 1678   2.208   4.589   7.841  3.1595  1.3368 -1.0240
   13SAPS  H20S 1679   2.343   4.647   7.959  0.5197  1.6407 -3.5671
   13SAPS  H20T 1680   2.161   4.632   7.998  0.2883  0.1907  0.1776
   13SAPS   C33 1681   2.567   4.185   6.876 -0.4086  0.0727  0.4786
   13SAPS   H3X 1682   2.618   4.099   6.827 -2.3925  0.8279 -3.3187
   13SAPS   H3Y 1683   2.459   4.165   6.861 -0.0055 -0.9333 -1.5158
   13SAPS   C34 1684   2.597   4.175   7.024 -0.6195 -0.0611 -0.6875
   13SAPS   H4X 1685   2.526   4.239   7.081  1.0350  0.7518  0.5249
   13SAPS   H4Y 1686   2.699   4.218   7.029  0.2528 -2.0842 -0.2304
   13SAPS   C35 1687   2.591   4.031   7.074  0.2002  0.3629  0.5263
   13SAPS   H5X 1688   2.684   3.999   7.022  0.2543  0.8135  0.3451
   13SAPS   H5Y 1689   2.496   3.979   7.048  0.2294 -0.4591  1.9749
   13SAPS   C36 1690   2.619   4.006   7.221 -0.1368 -0.0199  0.0552
   13SAPS   H6X 1691   2.528   3.970   7.274 -0.0517 -3.3783 -1.7943
   13SAPS   H6Y 1692   2.669   4.096   7.264  1.6041 -0.3575 -1.1579
   13SAPS   C37 1693   2.724   3.890   7.245  0.9025 -0.2167  0.7847
   13SAPS   H7X 1694   2.798   3.908   7.164  0.4727  2.8212  0.9456
   13SAPS   H7Y 1695   2.670   3.794   7.228 -0.6145  0.3262  2.2209
   13SAPS   C38 1696   2.784   3.909   7.381  0.1882  0.4828 -0.4362
   13SAPS   H8X 1697   2.695   3.919   7.446  1.0646 -0.8451  1.0500
   13SAPS   H8Y 1698   2.837   4.004   7.402 -2.1481  1.5603  1.0288
   13SAPS   C39 1699   2.878   3.794   7.415 -0.0429 -0.3032 -0.9106
   13SAPS   H9X 1700   2.949   3.797   7.330  1.4242  2.0102  0.2990
   13SAPS   H9Y 1701   2.825   3.697   7.420 -0.7499  0.0710  3.7885
   13SAPS  C310 1702   2.970   3.823   7.534 -0.3988 -0.7467 -0.1267
   13SAPS  H10X 1703   3.050   3.896   7.509 -0.3972  0.0210  1.9022
   13SAPS  H10Y 1704   3.025   3.733   7.568 -0.1952  0.1130  1.9555
   13SAPS  C311 1705   2.898   3.885   7.656  0.4227 -0.0055 -0.0369
   13SAPS  H11X 1706   2.813   3.817   7.679  0.8082 -1.2807 -2.1469
   13SAPS  H11Y 1707   2.844   3.978   7.625  0.1520 -0.6942 -1.7141
   13SAPS  C312 1708   2.989   3.913   7.777  0.6420  0.1700 -0.3167
   13SAPS  H12X 1709   3.073   3.981   7.753 -0.0140  0.9035 -0.5807
   13SAPS  H12Y 1710   3.035   3.815   7.805  3.1796  0.8641 -1.7833
   13SAPS  C313 1711   2.919   3.975   7.894 -0.3837 -0.7123 -0.0162
   13SAPS  H13X 1712   2.814   3.943   7.910 -1.0278  0.0569 -2.2883
   13SAPS  H13Y 1713   2.920   4.086   7.885  1.2322 -0.5401  1.7554
   13SAPS  C314 1714   3.005   3.951   8.019 -0.1095  0.7234  0.9433
   13SAPS  H14X 1715   3.104   3.997   8.001 -0.9015  1.6774 -1.2038
   13SAPS  H14Y 1716   3.016   3.841   8.032 -2.0739  0.5676  1.7122
   13SAPS  C315 1717   2.938   4.012   8.138  0.1476  0.7969 -0.0947
   13SAPS  H15X 1718   2.988   3.991   8.235 -1.2244  2.6737  1.0632
   13SAPS  H15Y 1719   2.835   3.973   8.152  0.6504  0.4055  3.3153
   13SAPS  C316 1720   2.923   4.162   8.132 -0.1925 -0.0762 -0.4540
   13SAPS  H16X 1721   2.826   4.188   8.084  0.4735  1.1552 -1.1875
   13SAPS  H16Y 1722   2.998   4.197   8.058 -0.9303  1.9784 -0.3130
   13SAPS  C317 1723   2.955   4.248   8.256  0.1355 -0.2768 -0.5843
   13SAPS  H17X 1724   2.934   4.355   8.233 -0.0149 -0.0037  0.7015
   13SAPS  H17Y 1725   3.060   4.228   8.284 -0.3917  0.3257  2.1779
   13SAPS  C318 1726   2.848   4.212   8.360 -0.6900  0.0725  0.7542
   13SAPS  H18X 1727   2.874   4.231   8.466 -0.1049 -2.4678  1.1448
   13SAPS  H18Y 1728   2.829   4.102   8.363  0.1045 -0.1348 -0.7725
   13SAPS  H18Z 1729   2.759   4.266   8.322  0.7626  0.2742 -2.6862
   14SAPS     N 1730   2.762   5.996   5.912 -0.5914  0.3655 -0.1553
   14SAPS   HN1 1731   2.675   6.044   5.881 -0.4963 -0.4149 -1.7040
   14SAPS   HN2 1732   2.842   6.020   5.851  0.3643  0.7466  1.1854
   14SAPS   HN3 1733   2.738   5.895   5.903  0.0102 -0.1603  2.7915
   14SAPS   C12 1734   2.792   6.018   6.054 -1.4194 -0.0049 -0.1318
   14SAPS  H12A 1735   2.769   6.121   6.077 -0.4128 -0.3078  2.6499
   14SAPS   C13 1736   2.724   5.931   6.158  0.2972 -0.6172 -0.2162
   14SAPS  O13A 1737   2.655   5.832   6.118 -0.3908 -0.0160  0.1158
   14SAPS  O13B 1738   2.708   5.977   6.273 -0.1892  0.4088  0.0936
   14SAPS   C11 1739   2.946   5.993   6.071  0.0098 -0.1138 -0.4497
   14SAPS  H11A 1740   2.968   5.886   6.048  3.1852  0.0782  1.1271
   14SAPS  H11B 1741   2.976   5.996   6.178 -0.5241  0.8035 -0.3168
   14SAPS     P 1742   3.159   6.141   6.008  0.1593 -0.0457  0.0565
   14SAPS   O13 1743   3.229   6.077   6.119  0.3390 -0.3090 -0.0141
   14SAPS   O14 1744   3.233   6.137   5.878  0.0393 -0.4668  0.0027
   14SAPS   O12 1745   3.017   6.080   5.993  0.2075  0.2816  0.2270
   14SAPS   O11 1746   3.134   6.290   6.051  0.4046 -0.0900  0.3094
   14SAPS    C1 1747   3.040   6.333   6.153 -0.8174  0.4085  0.1376
   14SAPS    HA 1748   2.993   6.427   6.118 -1.8887 -0.0464  0.3140
   14SAPS    HB 1749   2.951   6.269   6.170 -0.9757  0.6920  0.3729
   14SAPS    C2 1750   3.109   6.373   6.298  1.0603 -0.1485 -0.1505
   14SAPS    HS 1751   3.151   6.472   6.270 -1.2480  1.0875  0.5120
   14SAPS   O21 1752   3.225   6.292   6.329  0.2770 -0.1674  0.6325
   14SAPS   C21 1753   3.202   6.175   6.380 -0.3440  0.2004 -0.6481
   14SAPS   O22 1754   3.098   6.116   6.389  0.0661  0.5719 -0.4983
   14SAPS   C22 1755   3.332   6.108   6.414 -0.4965  0.6279 -0.6577
   14SAPS   H2R 1756   3.378   6.068   6.322 -0.3307  0.2270 -0.4032
   14SAPS   H2S 1757   3.407   6.184   6.447 -1.9083  2.4693 -1.5100
   14SAPS    C3 1758   3.001   6.393   6.416  0.4339  0.3507 -0.5234
   14SAPS    HX 1759   2.936   6.305   6.395  1.1232 -0.3613  0.2740
   14SAPS    HY 1760   2.950   6.492   6.415  0.3538  0.3216  0.2339
   14SAPS   O31 1761   3.056   6.382   6.547  0.0493  0.3308 -0.7505
   14SAPS   C31 1762   2.973   6.389   6.649  0.0344  0.1474 -0.7395
   14SAPS   O32 1763   2.854   6.410   6.648  0.6523 -0.0359 -0.1477
   14SAPS   C32 1764   3.060   6.365   6.774  0.3517  0.1818  0.1442
   14SAPS   H2X 1765   3.106   6.456   6.818 -1.1933 -0.4164  3.3639
   14SAPS   H2Y 1766   3.131   6.286   6.743  0.1623 -0.1823  0.6137
   14SAPS   C23 1767   3.313   5.990   6.515  0.6979  0.1905 -0.8164
   14SAPS   H3R 1768   3.250   5.914   6.466 -1.7649  0.5705  1.5157
   14SAPS   H3S 1769   3.249   6.029   6.597 -0.2126  0.8511 -1.8244
   14SAPS   C24 1770   3.446   5.936   6.581  0.3927 -0.3103  0.6532
   14SAPS   H4R 1771   3.496   6.022   6.630  0.8793  0.6552 -1.4032
   14SAPS   H4S 1772   3.511   5.903   6.497  0.3633  0.5360  0.2853
   14SAPS   C25 1773   3.424   5.823   6.674 -0.1069  0.2940  0.4475
   14SAPS   H5R 1774   3.405   5.733   6.613 -1.7718  0.1429  1.1073
   14SAPS   C26 1775   3.423   5.824   6.809 -0.8259 -0.2433  0.0285
   14SAPS   H6R 1776   3.411   5.728   6.862  2.1870  0.5329  2.3767
   14SAPS   C27 1777   3.450   5.939   6.905 -0.3970 -0.0064  0.1831
   14SAPS   H7R 1778   3.464   6.034   6.850  2.0074  1.1459  2.5506
   14SAPS   H7S 1779   3.543   5.921   6.964 -0.4260 -1.3147 -0.1432
   14SAPS   C28 1780   3.337   5.968   6.998 -0.6638 -0.3084 -0.2340
   14SAPS   H8R 1781   3.248   5.994   6.939  0.0600 -0.9002 -1.6105
   14SAPS   C29 1782   3.345   5.968   7.133  0.3902 -0.8390 -0.8443
   14SAPS   H9R 1783   3.252   6.002   7.180 -0.0132 -1.3664 -1.2441
   14SAPS  C210 1784   3.469   5.944   7.222  0.5555  0.0521  0.8108
   14SAPS  H10R 1785   3.478   6.023   7.299  2.4550  1.2417 -0.5379
   14SAPS  H10S 1786   3.568   5.956   7.173 -0.0176  1.5021 -0.0607
   14SAPS  C211 1787   3.463   5.804   7.282  0.0726 -0.4708  0.2246
   14SAPS  H11R 1788   3.464   5.724   7.206  0.3599  0.6923 -1.0212
   14SAPS  C212 1789   3.438   5.766   7.411  0.2166  0.2570  0.6174
   14SAPS  H12R 1790   3.427   5.658   7.430  0.0329 -0.3572 -2.5548
   14SAPS  C213 1791   3.413   5.862   7.524  0.2862 -0.4539  0.6387
   14SAPS  H13R 1792   3.327   5.927   7.496 -0.1715 -1.6711 -0.9239
   14SAPS  H13S 1793   3.492   5.938   7.538 -0.3787 -0.2335  3.8999
   14SAPS  C214 1794   3.383   5.798   7.658 -0.6862  0.6814  0.3084
   14SAPS  H14R 1795   3.356   5.692   7.653 -2.1358  0.7155  4.1777
   14SAPS  C215 1796   3.371   5.852   7.786 -0.1852 -0.0624  0.7235
   14SAPS  H15R 1797   3.361   5.779   7.868 -0.6985  0.3511  1.0405
   14SAPS  C216 1798   3.397   5.995   7.825 -0.3720 -0.2059  0.1722
   14SAPS  H16R 1799   3.302   6.039   7.862  0.1862  2.6567 -1.4097
   14SAPS  H16S 1800   3.414   6.049   7.729  0.5550 -0.0070  0.4332
   14SAPS  C217 1801   3.525   6.019   7.916 -0.4088  0.5319 -0.0868
   14SAPS  H17R 1802   3.561   6.123   7.898 -0.8714  0.7981  0.4647
   14SAPS  H17S 1803   3.603   5.947   7.886 -0.4565 -0.0838  1.1941
   14SAPS  C218 1804   3.492   6.001   8.059  0.5654 -0.1364  0.5944
   14SAPS  H18R 1805   3.410   5.926   8.068 -0.5529  0.9110 -0.4170
   14SAPS  H18S 1806   3.443   6.085   8.112  1.5563  0.0373  1.2630
   14SAPS  C219 1807   3.605   5.951   8.158 -0.6118 -0.5597 -0.2577
   14SAPS  H19R 1808   3.613   5.840   8.156  1.6665 -0.4342 -1.8339
   14SAPS  H19S 1809   3.565   5.970   8.260 -2.0543 -3.6232 -0.1451
   14SAPS  C220 1810   3.741   6.007   8.137  0.7093 -0.1293  0.0997
   14SAPS  H20R 1811   3.815   5.998   8.219  1.5024 -0.4343 -0.6363
   14SAPS  H20S 1812   3.737   6.118   8.129 -3.7799 -0.1152  0.0653
   14SAPS  H20T 1813   3.781   5.957   8.046  0.4662 -0.1287 -0.0104
   14SAPS   C33 1814   2.967   6.302   6.881 -0.8538 -0.1966  0.1023
   14SAPS   H3X 1815   2.908   6.216   6.844 -2.1332  0.5742  0.2917
   14SAPS   H3Y 1816   2.897   6.381   6.915 -1.2286 -0.9623  1.1668
   14SAPS   C34 1817   3.044   6.256   7.003  0.2576  0.0501 -0.0010
   14SAPS   H4X 1818   3.098   6.338   7.055  0.6598 -1.0233  1.3481
   14SAPS   H4Y 1819   3.128   6.191   6.970  1.5553  1.8836 -0.4403
   14SAPS   C35 1820   2.963   6.161   7.090 -0.0060  0.2945 -0.0248
   14SAPS   H5X 1821   3.027   6.092   7.150 -1.8192 -1.5515 -0.1054
   14SAPS   H5Y 1822   2.903   6.098   7.021 -0.8198  1.1777 -0.1475
   14SAPS   C36 1823   2.867   6.236   7.187  0.1054  0.3173  0.3567
   14SAPS   H6X 1824   2.790   6.268   7.114  1.2968 -1.3864 -1.7476
   14SAPS   H6Y 1825   2.933   6.317   7.226 -0.3234 -0.0066  1.8324
   14SAPS   C37 1826   2.794   6.156   7.298 -0.1164  0.0769 -0.4568
   14SAPS   H7X 1827   2.738   6.070   7.255  1.2157 -1.8355  1.4636
   14SAPS   H7Y 1828   2.727   6.228   7.350  1.4294  1.4785 -0.3366
   14SAPS   C38 1829   2.879   6.090   7.396 -0.0007 -0.6234  0.2033
   14SAPS   H8X 1830   2.934   6.174   7.444  1.3538 -1.4580  0.1696
   14SAPS   H8Y 1831   2.952   6.026   7.342  1.2126  1.1084 -0.3204
   14SAPS   C39 1832   2.809   6.024   7.512 -0.1913 -0.4571 -0.2250
   14SAPS   H9X 1833   2.767   5.927   7.479 -0.0848  0.0381 -1.8867
   14SAPS   H9Y 1834   2.717   6.082   7.535 -0.3517 -0.6008 -0.5122
   14SAPS  C310 1835   2.911   6.008   7.631  0.2026 -0.2693 -0.5180
   14SAPS  H10X 1836   2.958   6.106   7.655  0.2469 -0.6644  1.0801
   14SAPS  H10Y 1837   2.993   5.944   7.594  1.3453  1.2446 -0.7205
   14SAPS  C311 1838   2.855   5.938   7.760  1.2413  0.2551  0.1448
   14SAPS  H11X 1839   2.833   5.830   7.744  0.3939  0.4454 -0.0393
   14SAPS  H11Y 1840   2.764   5.991   7.796  0.4874  0.4306 -1.8379
   14SAPS  C312 1841   2.965   5.928   7.868 -0.9287 -0.5273  0.2140
   14SAPS  H12X 1842   2.994   6.033   7.891  2.4794 -1.0326 -1.2437
   14SAPS  H12Y 1843   3.060   5.889   7.826  0.5626  0.8383  2.1095
   14SAPS  C313 1844   2.937   5.850   7.996 -0.0778 -0.5155 -0.0263
   14SAPS  H13X 1845   2.916   5.747   7.960  2.6199 -1.0394 -0.2848
   14SAPS  H13Y 1846   2.845   5.886   8.047 -0.6787 -3.8010  1.4988
   14SAPS  C314 1847   3.054   5.817   8.086 -0.5273  0.5245 -0.4197
   14SAPS  H14X 1848   3.120   5.755   8.023 -0.3513  1.1227 -0.8393
   14SAPS  H14Y 1849   3.032   5.757   8.177 -1.1600  1.9734  0.4245
   14SAPS  C315 1850   3.132   5.941   8.140  0.1159  0.0733  0.2349
   14SAPS  H15X 1851   3.155   6.003   8.051 -0.0001  0.0222  0.1693
   14SAPS  H15Y 1852   3.221   5.903   8.195 -2.3387 -2.4828  2.8180
   14SAPS  C316 1853   3.047   6.020   8.232  0.5227 -1.2867  0.3233
   14SAPS  H16X 1854   3.002   5.948   8.304  0.4245 -0.7295  0.8306
   14SAPS  H16Y 1855   2.973   6.076   8.171 -0.5632 -1.0493  1.7999
   14SAPS  C317 1856   3.135   6.121   8.305  0.2344 -0.4963  0.0195
   14SAPS  H17X 1857   3.198   6.182   8.238  0.4293 -1.0481 -0.3080
   14SAPS  H17Y 1858   3.204   6.060   8.368  0.3594 -1.6936 -1.2216
   14SAPS  C318 1859   3.058   6.217   8.398  0.1925 -0.0989  0.4103
   14SAPS  H18X 1860   2.976   6.154   8.440 -0.2043 -0.3202 -0.6752
   14SAPS  H18Y 1861   3.008   6.299   8.341 -1.1807  0.3315  2.1399
   14SAPS  H18Z 1862   3.129   6.250   8.478  1.2192 -1.9516  0.3148
   15SAPS     N 1863   3.721   0.872   5.785 -0.6368 -0.5722 -0.0628
   15SAPS   HN1 1864   3.784   0.802   5.827 -2.2948 -3.3737 -1.9129
   15SAPS   HN2 1865   3.622   0.850   5.809 -0.3749 -2.4413 -0.5647
   15SAPS   HN3 1866   3.745   0.866   5.684  2.8587  1.7953  0.4250
   15SAPS   C12 1867   3.775   1.008   5.819  0.5518  0.1527 -0.4236
   15SAPS  H12A 1868   3.878   1.003   5.788  0.5573  0.3327 -0.4339
   15SAPS   C13 1869   3.711   1.119   5.739  0.6092  0.0387 -0.4048
   15SAPS  O13A 1870   3.610   1.102   5.665 -0.3115  0.6778  0.6424
   15SAPS  O13B 1871   3.757   1.233   5.761  0.5896  0.5130  0.4958
   15SAPS   C11 1872   3.761   1.037   5.980  0.2962  0.5388  0.3191
   15SAPS  H11A 1873   3.653   1.052   6.000  0.4612  0.6997  1.1336
   15SAPS  H11B 1874   3.802   1.135   6.012 -0.2578  1.2843 -1.1705
   15SAPS     P 1875   3.961   0.908   6.084  0.1323  0.0269  0.0699
   15SAPS   O13 1876   3.986   0.780   6.152 -1.0038  0.0921  0.1729
   15SAPS   O14 1877   4.050   0.951   5.968 -0.3939  0.7729  0.0878
   15SAPS   O12 1878   3.811   0.921   6.050  0.5250  0.1083 -0.6074
   15SAPS   O11 1879   3.987   1.015   6.195 -0.0752 -0.5827 -0.3389
   15SAPS    C1 1880   3.888   1.025   6.302 -1.0142 -0.2133 -0.2633
   15SAPS    HA 1881   3.795   1.084   6.284 -1.5532 -0.2505  2.0937
   15SAPS    HB 1882   3.860   0.925   6.342 -1.4720 -0.3172 -0.8271
   15SAPS    C2 1883   3.957   1.095   6.424  0.0389  0.4310 -0.0518
   15SAPS    HS 1884   4.040   1.034   6.467  0.2505  0.5450 -0.2935
   15SAPS   O21 1885   3.861   1.124   6.522  0.4109 -0.2627 -0.3467
   15SAPS   C21 1886   3.796   1.032   6.591  0.9766 -0.1879  0.4636
   15SAPS   O22 1887   3.816   0.912   6.579 -0.3235 -0.1078  0.0195
   15SAPS   C22 1888   3.697   1.101   6.689 -0.5067  0.7186 -0.0053
   15SAPS   H2R 1889   3.747   1.186   6.740  2.6020 -0.7456 -0.3408
   15SAPS   H2S 1890   3.616   1.144   6.628 -1.3323 -0.5079  0.1823
   15SAPS    C3 1891   4.026   1.229   6.376  0.1399 -0.2110  0.3143
   15SAPS    HX 1892   3.943   1.284   6.327  0.8533 -1.7012 -2.8292
   15SAPS    HY 1893   4.100   1.197   6.300  1.7380  1.4490  1.0689
   15SAPS   O31 1894   4.085   1.307   6.487  0.1377 -0.3849  0.5145
   15SAPS   C31 1895   4.185   1.239   6.547 -0.0019 -0.4727  0.1160
   15SAPS   O32 1896   4.243   1.140   6.510  0.1037 -0.1616 -0.0862
   15SAPS   C32 1897   4.231   1.316   6.671 -0.3898 -0.3827  0.1005
   15SAPS   H2X 1898   4.177   1.412   6.672 -2.4523 -1.4902  0.0653
   15SAPS   H2Y 1899   4.342   1.323   6.667 -0.2465 -1.5773  1.2713
   15SAPS   C23 1900   3.629   1.007   6.785 -0.3473 -0.1298 -0.0745
   15SAPS   H3R 1901   3.606   0.907   6.744  1.1016  0.3245 -2.1542
   15SAPS   H3S 1902   3.538   1.055   6.827 -0.2301 -0.2963  0.3828
   15SAPS   C24 1903   3.724   0.991   6.913  0.4171  0.2933  0.3549
   15SAPS   H4R 1904   3.818   0.938   6.885 -0.3590 -0.3036 -1.3022
   15SAPS   H4S 1905   3.679   0.924   6.989  0.9093 -2.0516 -1.2783
   15SAPS   C25 1906   3.766   1.114   6.993  0.7509 -0.7784  0.4950
   15SAPS   H5R 1907   3.834   1.178   6.935  2.8267 -2.2350  1.1682
   15SAPS   C26 1908   3.738   1.152   7.114 -0.8878  0.4571 -0.7158
   15SAPS   H6R 1909   3.778   1.246   7.155 -2.7943 -0.0249  2.6304
   15SAPS   C27 1910   3.659   1.070   7.216  0.2814  0.6680  0.4478
   15SAPS   H7R 1911   3.610   0.978   7.179 -0.8589  1.3952  0.0918
   15SAPS   H7S 1912   3.575   1.135   7.250 -0.5128 -0.2889  0.3426
   15SAPS   C28 1913   3.736   1.028   7.337 -0.2615 -0.1685  0.5127
   15SAPS   H8R 1914   3.843   1.008   7.318  0.5297  0.4309  3.6169
   15SAPS   C29 1915   3.701   1.012   7.463 -0.2998  0.6093 -0.2980
   15SAPS   H9R 1916   3.769   0.968   7.537 -1.4920  0.1591  0.5586
   15SAPS  C210 1917   3.563   1.023   7.501 -0.1167 -0.1960 -1.0313
   15SAPS  H10R 1918   3.532   0.950   7.579 -1.2505 -1.5506 -2.6701
   15SAPS  H10S 1919   3.486   0.998   7.425  0.2460 -0.8113 -1.2015
   15SAPS  C211 1920   3.526   1.159   7.548  0.2725  0.2111 -0.2248
   15SAPS  H11R 1921   3.453   1.206   7.481  1.9998  0.7466 -1.8405
   15SAPS  C212 1922   3.574   1.217   7.661 -0.4628 -0.3055 -0.6739
   15SAPS  H12R 1923   3.527   1.314   7.683  0.4050  0.0258 -0.2446
   15SAPS  C213 1924   3.679   1.166   7.763 -0.9732  0.0722 -0.2533
   15SAPS  H13R 1925   3.778   1.209   7.736  1.2478 -3.3416  1.7528
   15SAPS  H13S 1926   3.684   1.055   7.753  1.5064  0.3028 -3.6545
   15SAPS  C214 1927   3.667   1.213   7.902 -0.5936 -0.0112 -0.4183
   15SAPS  H14R 1928   3.660   1.322   7.914  3.1015  0.1862  1.6246
   15SAPS  C215 1929   3.674   1.141   8.015  0.0572 -0.2783  0.3195
   15SAPS  H15R 1930   3.672   1.190   8.113 -0.1064 -1.4955  0.9395
   15SAPS  C216 1931   3.707   0.995   8.034  0.1508 -0.6667 -0.5467
   15SAPS  H16R 1932   3.785   0.998   8.113  0.0509 -1.6208 -0.3969
   15SAPS  H16S 1933   3.753   0.946   7.945 -1.1939 -1.9113 -0.5995
   15SAPS  C217 1934   3.597   0.895   8.079 -0.2012 -0.0876 -0.0480
   15SAPS  H17R 1935   3.567   0.921   8.182  0.3060 -1.0261  0.3469
   15SAPS  H17S 1936   3.630   0.789   8.068  1.1171  0.3578 -0.6855
   15SAPS  C218 1937   3.470   0.918   8.001 -0.5882  0.0573  0.1883
   15SAPS  H18R 1938   3.483   0.877   7.899 -1.8317 -1.9850  0.8075
   15SAPS  H18S 1939   3.447   1.026   7.987  1.7528  0.5447 -0.2782
   15SAPS  C219 1940   3.341   0.864   8.071 -0.2799 -0.1918 -0.4745
   15SAPS  H19R 1941   3.372   0.804   8.160  1.4740 -0.8709 -1.4866
   15SAPS  H19S 1942   3.292   0.802   7.993  0.7010 -2.3032  0.5149
   15SAPS  C220 1943   3.241   0.985   8.105  0.2397  0.0090  0.2760
   15SAPS  H20R 1944   3.262   1.062   8.027 -1.0778 -0.0016 -0.1139
   15SAPS  H20S 1945   3.268   1.026   8.204 -1.5781  0.5241  0.5936
   15SAPS  H20T 1946   3.133   0.960   8.108  0.2975 -0.1720  0.9470
   15SAPS   C33 1947   4.202   1.233   6.799 -0.1261  0.2098 -0.4168
   15SAPS   H3X 1948   4.266   1.143   6.811 -0.7211 -0.1327  0.2475
   15SAPS   H3Y 1949   4.097   1.199   6.791  0.0888 -0.9615  1.1502
   15SAPS   C34 1950   4.220   1.313   6.927  0.8096  0.8404 -0.8558
   15SAPS   H4X 1951   4.178   1.416   6.926 -0.8129  0.2112 -0.6084
   15SAPS   H4Y 1952   4.329   1.313   6.946  0.8178  0.2170 -0.8864
   15SAPS   C35 1953   4.164   1.251   7.056  0.3445  0.1587  0.1920
   15SAPS   H5X 1954   4.198   1.145   7.047 -0.9873 -0.3123  0.4450
   15SAPS   H5Y 1955   4.053   1.252   7.042  0.4702  0.6795 -0.8137
   15SAPS   C36 1956   4.205   1.312   7.186 -0.7899  0.4143 -0.4054
   15SAPS   H6X 1957   4.177   1.419   7.197 -0.2427  0.5085  0.1454
   15SAPS   H6Y 1958   4.315   1.303   7.195 -1.0799 -1.5727  3.0715
   15SAPS   C37 1959   4.144   1.234   7.309 -0.2428 -0.4183  0.1680
   15SAPS   H7X 1960   4.136   1.123   7.298  3.2724 -0.8943  1.0222
   15SAPS   H7Y 1961   4.043   1.279   7.317  0.0198 -0.1855  3.0936
   15SAPS   C38 1962   4.218   1.267   7.441  0.6705  0.2803  0.0560
   15SAPS   H8X 1963   4.224   1.378   7.451  2.3969  0.2281 -0.1518
   15SAPS   H8Y 1964   4.327   1.247   7.434  0.8856  1.4147 -0.0475
   15SAPS   C39 1965   4.154   1.202   7.571 -0.0490 -0.3590  0.4892
   15SAPS   H9X 1966   4.173   1.094   7.553 -0.0914 -0.1080 -1.2475
   15SAPS   H9Y 1967   4.045   1.224   7.577  0.0705  0.5857 -0.4104
   15SAPS  C310 1968   4.216   1.247   7.702  0.1713  0.0316 -0.8212
   15SAPS  H10X 1969   4.207   1.357   7.689 -0.9596  0.3631  2.0671
   15SAPS  H10Y 1970   4.323   1.217   7.710 -0.2107 -0.8652  1.7983
   15SAPS  C311 1971   4.128   1.215   7.823 -0.1791 -0.2098  0.1188
   15SAPS  H11X 1972   4.137   1.113   7.864 -0.0685 -1.2562 -2.3465
   15SAPS  H11Y 1973   4.022   1.211   7.789 -0.2979  0.8218  0.3240
   15SAPS  C312 1974   4.152   1.313   7.940  0.4131 -0.1223 -0.4691
   15SAPS  H12X 1975   4.098   1.407   7.916 -2.7315 -0.8390  2.9997
   15SAPS  H12Y 1976   4.263   1.314   7.951  0.3785 -1.8673  0.3783
   15SAPS  C313 1977   4.091   1.261   8.081 -0.7731 -0.3651  0.9276
   15SAPS  H13X 1978   4.148   1.178   8.129  1.9855  0.4039 -0.7495
   15SAPS  H13Y 1979   3.989   1.227   8.052  1.3300 -3.6920 -4.0037
   15SAPS  C314 1980   4.081   1.373   8.184  0.1855  0.8756 -0.0845
   15SAPS  H14X 1981   4.004   1.448   8.157 -0.4504 -0.0449 -0.9047
   15SAPS  H14Y 1982   4.179   1.420   8.208 -0.2251  0.9954  1.4944
   15SAPS  C315 1983   4.038   1.306   8.308  0.3833  0.1401  0.1585
   15SAPS  H15X 1984   4.047   1.368   8.400  1.6010 -0.5250  0.5132
   15SAPS  H15Y 1985   4.101   1.220   8.338  2.3627  2.0339  1.7949
   15SAPS  C316 1986   3.887   1.258   8.306 -0.0417  0.6785  0.5687
   15SAPS  H16X 1987   3.880   1.174   8.234  0.5904 -1.4482  2.8454
   15SAPS  H16Y 1988   3.830   1.345   8.267  0.7814  2.0900  2.3719
   15SAPS  C317 1989   3.835   1.195   8.439 -1.0249 -0.6528  0.1950
   15SAPS  H17X 1990   3.841   1.272   8.519  2.3075 -1.3340  0.7393
   15SAPS  H17Y 1991   3.901   1.111   8.471  1.1184  0.1545 -1.8742
   15SAPS  C318 1992   3.690   1.139   8.422 -0.4678 -0.6381  0.2412
   15SAPS  H18X 1993   3.689   1.061   8.343 -0.2575  0.7200 -1.1594
   15SAPS  H18Y 1994   3.631   1.229   8.395 -0.4447 -0.2617  1.4020
   15SAPS  H18Z 1995   3.644   1.095   8.513 -0.0519 -0.4565  0.5456
   16SAPS     N 1996   4.296   2.939   6.549  0.4092 -0.0631 -0.1550
   16SAPS   HN1 1997   4.222   3.011   6.560 -2.2992 -2.6298 -0.4341
   16SAPS   HN2 1998   4.263   2.841   6.542  1.7872 -0.5631 -0.0013
   16SAPS   HN3 1999   4.357   2.943   6.633 -0.7894  1.6756  0.6867
   16SAPS   C12 2000   4.369   2.971   6.426  0.4959  0.0384  0.3963
   16SAPS  H12A 2001   4.454   2.905   6.419  0.9389  0.4339  1.6901
   16SAPS   C13 2002   4.284   2.951   6.296 -0.0017 -0.7487 -0.3690
   16SAPS  O13A 2003   4.169   2.901   6.311  0.4420 -0.8133 -0.3200
   16SAPS  O13B 2004   4.348   2.940   6.191 -0.3712 -0.1528  0.5907
   16SAPS   C11 2005   4.426   3.120   6.433  0.3575 -0.4840  0.0503
   16SAPS  H11A 2006   4.342   3.192   6.423  0.2001 -0.8405 -1.3583
   16SAPS  H11B 2007   4.487   3.145   6.343 -2.9921  2.0651 -1.7276
   16SAPS     P 2008   4.562   3.283   6.579 -0.0149  0.0850  0.3312
   16SAPS   O13 2009   4.652   3.277   6.698 -0.7253  0.6145 -0.1168
   16SAPS   O14 2010   4.617   3.332   6.451  0.4560 -0.5085  0.0673
   16SAPS   O12 2011   4.493   3.144   6.553 -0.0084  0.5234  0.3547
   16SAPS   O11 2012   4.432   3.369   6.616 -0.0639  0.5547  0.0690
   16SAPS    C1 2013   4.359   3.354   6.736  0.7431 -0.3861 -1.1269
   16SAPS    HA 2014   4.254   3.338   6.703  0.6684  2.8728 -2.8900
   16SAPS    HB 2015   4.384   3.264   6.795  2.2944 -0.4274 -1.8086
   16SAPS    C2 2016   4.367   3.485   6.820 -0.5983 -0.0507 -0.2390
   16SAPS    HS 2017   4.467   3.488   6.869 -0.2551 -1.5299 -0.7828
   16SAPS   O21 2018   4.270   3.480   6.926  0.3738 -0.2701  0.1173
   16SAPS   C21 2019   4.291   3.397   7.035 -0.0213 -0.3343  0.2670
   16SAPS   O22 2020   4.380   3.319   7.037  0.1308  0.4380  0.5954
   16SAPS   C22 2021   4.192   3.424   7.142 -0.6452 -0.0022 -0.7101
   16SAPS   H2R 2022   4.215   3.522   7.189 -0.4279 -1.3510  2.2266
   16SAPS   H2S 2023   4.097   3.425   7.085  0.0602  1.2072 -1.9483
   16SAPS    C3 2024   4.357   3.613   6.726  0.0652 -0.2888 -0.0914
   16SAPS    HX 2025   4.270   3.631   6.659 -0.7022 -2.0157  0.4004
   16SAPS    HY 2026   4.447   3.602   6.662  0.7797 -1.6271  1.1005
   16SAPS   O31 2027   4.386   3.735   6.806 -0.2661 -0.6656  0.2758
   16SAPS   C31 2028   4.278   3.794   6.860  0.1400 -0.8425 -0.3727
   16SAPS   O32 2029   4.163   3.761   6.845 -0.1822 -0.2140  0.4479
   16SAPS   C32 2030   4.334   3.921   6.925 -0.4720 -0.6501  0.4014
   16SAPS   H2X 2031   4.286   4.016   6.894  2.6786  0.9821  0.1226
   16SAPS   H2Y 2032   4.441   3.944   6.904 -1.2541  1.5108 -1.7041
   16SAPS   C23 2033   4.203   3.327   7.263  0.3935 -0.0795  0.2826
   16SAPS   H3R 2034   4.209   3.222   7.228 -1.8903  0.1401 -0.9263
   16SAPS   H3S 2035   4.108   3.332   7.319 -1.1661 -1.0370 -2.1304
   16SAPS   C24 2036   4.313   3.365   7.368 -0.0998  0.0466  0.6933
   16SAPS   H4R 2037   4.416   3.370   7.328  0.1165 -0.0435  1.2365
   16SAPS   H4S 2038   4.330   3.275   7.431  1.3462 -1.8128 -2.1306
   16SAPS   C25 2039   4.283   3.485   7.443  0.7714  0.2014 -0.5559
   16SAPS   H5R 2040   4.265   3.574   7.382 -4.4668 -0.5881 -0.5640
   16SAPS   C26 2041   4.285   3.505   7.577 -0.1051  0.0967 -0.2015
   16SAPS   H6R 2042   4.247   3.600   7.618  0.3432  0.1850  0.0144
   16SAPS   C27 2043   4.330   3.401   7.678  0.2505  0.1644  0.1719
   16SAPS   H7R 2044   4.375   3.312   7.629 -1.1916 -1.2694  1.3101
   16SAPS   H7S 2045   4.236   3.357   7.719  0.7055 -3.0979 -1.8833
   16SAPS   C28 2046   4.413   3.426   7.805 -0.6546 -0.0980 -0.2758
   16SAPS   H8R 2047   4.517   3.390   7.799 -1.0087 -0.9983 -1.4308
   16SAPS   C29 2048   4.375   3.477   7.926  0.4006  0.2834  0.2458
   16SAPS   H9R 2049   4.435   3.472   8.018 -2.2570  0.0413  2.0577
   16SAPS  C210 2050   4.237   3.531   7.960  0.1879 -0.0981 -0.2192
   16SAPS  H10R 2051   4.150   3.508   7.895 -0.7763  0.5548  0.7878
   16SAPS  H10S 2052   4.243   3.642   7.958 -0.9656 -0.0156 -0.1818
   16SAPS  C211 2053   4.197   3.486   8.099  0.2678  0.2850  0.1459
   16SAPS  H11R 2054   4.119   3.408   8.096 -0.8849  1.4349 -0.6928
   16SAPS  C212 2055   4.229   3.538   8.218  0.3494 -0.5800 -1.2658
   16SAPS  H12R 2056   4.195   3.477   8.303  1.9253 -1.5022 -1.2575
   16SAPS  C213 2057   4.308   3.668   8.262 -0.4622 -0.1183 -0.0138
   16SAPS  H13R 2058   4.248   3.746   8.312  1.1007  1.0532  0.1195
   16SAPS  H13S 2059   4.346   3.727   8.176 -0.7115  0.8705  0.5454
   16SAPS  C214 2060   4.422   3.622   8.343 -0.2487  0.7313  0.0487
   16SAPS  H14R 2061   4.511   3.614   8.279 -0.4900  0.2303 -0.2226
   16SAPS  C215 2062   4.430   3.577   8.473  0.0146  0.6222  0.3478
   16SAPS  H15R 2063   4.530   3.572   8.518  0.3224 -2.0410 -0.4862
   16SAPS  C216 2064   4.321   3.572   8.570  0.4198 -0.6031  0.0702
   16SAPS  H16R 2065   4.225   3.618   8.535 -0.3137 -0.5200  2.0802
   16SAPS  H16S 2066   4.336   3.635   8.660 -0.9633  0.3484 -0.3134
   16SAPS  C217 2067   4.286   3.429   8.612 -0.9793  0.1820 -0.2331
   16SAPS  H17R 2068   4.381   3.374   8.632  0.7208  3.0435  0.1251
   16SAPS  H17S 2069   4.242   3.368   8.531  1.8867 -1.6778 -0.5347
   16SAPS  C218 2070   4.198   3.427   8.741  0.1949  0.1371  1.0222
   16SAPS  H18R 2071   4.243   3.489   8.822 -0.7475  0.8386  1.0193
   16SAPS  H18S 2072   4.186   3.323   8.778 -2.0111 -0.0497 -0.0833
   16SAPS  C219 2073   4.052   3.473   8.720  0.3441 -0.3891 -0.8896
   16SAPS  H19R 2074   3.982   3.389   8.700 -1.5716  0.7097  0.7510
   16SAPS  H19S 2075   4.041   3.541   8.633  2.6695  0.1343 -0.8289
   16SAPS  C220 2076   3.996   3.551   8.843 -0.4577  0.3669  0.3725
   16SAPS  H20R 2077   4.036   3.654   8.854  1.6343 -0.4621  0.8693
   16SAPS  H20S 2078   4.033   3.490   8.928  2.8606  0.1093 -1.0863
   16SAPS  H20T 2079   3.885   3.546   8.849 -0.3297 -1.5989  2.7542
   16SAPS   C33 2080   4.320   3.918   7.083 -0.5324 -0.1246 -0.1988
   16SAPS   H3X 2081   4.378   3.836   7.130 -0.2826 -0.5489 -1.2202
   16SAPS   H3Y 2082   4.214   3.912   7.115 -0.4093 -1.3406  0.0269
   16SAPS   C34 2083   4.378   4.051   7.140 -0.6845  0.1430 -1.0616
   16SAPS   H4X 2084   4.326   4.139   7.097  1.1815  0.4784 -2.7874
   16SAPS   H4Y 2085   4.480   4.050   7.098 -1.4196 -1.0295 -2.9598
   16SAPS   C35 2086   4.388   4.045   7.296  0.2269 -0.3496  0.4741
   16SAPS   H5X 2087   4.301   3.983   7.323 -0.3499 -0.2649 -1.1075
   16SAPS   H5Y 2088   4.371   4.140   7.351 -0.8225 -0.2437 -0.0023
   16SAPS   C36 2089   4.513   3.983   7.357  1.0625 -0.4945  0.3365
   16SAPS   H6X 2090   4.600   4.041   7.320 -0.2747  1.3691 -0.0648
   16SAPS   H6Y 2091   4.518   3.880   7.315 -0.2336 -0.1765 -0.6959
   16SAPS   C37 2092   4.506   3.972   7.506 -0.1114 -0.4665 -0.1601
   16SAPS   H7X 2093   4.409   3.933   7.543 -1.0285  1.7475 -0.0699
   16SAPS   H7Y 2094   4.519   4.075   7.547 -0.5016 -0.6521  0.4441
   16SAPS   C38 2095   4.611   3.883   7.567  0.9657 -0.3245  0.2976
   16SAPS   H8X 2096   4.711   3.887   7.517  0.5190  3.5811 -0.5868
   16SAPS   H8Y 2097   4.570   3.780   7.572 -0.1662  0.0985 -0.1489
   16SAPS   C39 2098   4.630   3.939   7.703 -0.3455 -0.1680 -0.6209
   16SAPS   H9X 2099   4.531   3.939   7.752  0.1133  0.0928  0.3291
   16SAPS   H9Y 2100   4.651   4.048   7.701 -0.7585 -0.0762 -0.0616
   16SAPS  C310 2101   4.732   3.851   7.784 -0.3062  0.1139 -1.1369
   16SAPS  H10X 2102   4.835   3.869   7.745  0.1379 -0.2970 -0.1751
   16SAPS  H10Y 2103   4.701   3.746   7.767 -0.6280  0.4021 -2.4515
   16SAPS  C311 2104   4.736   3.885   7.936  0.5960  0.4214  0.6365
   16SAPS  H11X 2105   4.766   3.807   8.010 -3.8734 -0.4910  1.7843
   16SAPS  H11Y 2106   4.627   3.893   7.957  0.4171  0.1486 -0.1740
   16SAPS  C312 2107   4.818   4.010   7.964  0.0373 -0.6282  0.4788
   16SAPS  H12X 2108   4.759   4.088   7.910 -1.5578 -0.4125  2.4260
   16SAPS  H12Y 2109   4.927   4.006   7.943  0.4750  1.0307  2.1361
   16SAPS  C313 2110   4.824   4.066   8.105  0.0339 -0.0830 -0.0599
   16SAPS  H13X 2111   4.741   4.136   8.131  0.9072  0.9098  0.1371
   16SAPS  H13Y 2112   4.904   4.142   8.124 -0.0701 -0.0009  0.0548
   16SAPS  C314 2113   4.846   3.964   8.220 -0.0241  0.2933 -0.3611
   16SAPS  H14X 2114   4.928   3.907   8.170  1.8368  0.5030  2.2605
   16SAPS  H14Y 2115   4.757   3.900   8.237 -0.2202  0.3131 -1.2282
   16SAPS  C315 2116   4.910   4.019   8.345 -0.4609 -0.1566 -0.6335
   16SAPS  H15X 2117   5.012   4.058   8.327  0.6290 -1.4559  2.0933
   16SAPS  H15Y 2118   4.925   3.932   8.412  1.2951  1.0685  0.6710
   16SAPS  C316 2119   4.835   4.135   8.416 -0.0028  0.7067 -0.3044
   16SAPS  H16X 2120   4.731   4.111   8.444  0.0759  0.8832  0.1467
   16SAPS  H16Y 2121   4.841   4.221   8.346  1.3961  1.4152  0.6372
   16SAPS  C317 2122   4.899   4.186   8.545  0.4569 -0.0461  0.3064
   16SAPS  H17X 2123   4.897   4.106   8.622 -1.2618  1.3546  1.8371
   16SAPS  H17Y 2124   4.839   4.270   8.586 -0.1235 -0.0482 -0.4961
   16SAPS  C318 2125   5.035   4.257   8.513 -0.0289 -0.2233  0.1464
   16SAPS  H18X 2126   5.109   4.197   8.456  0.4841 -1.6352  2.1862
   16SAPS  H18Y 2127   5.087   4.307   8.598  2.1064  1.3019 -1.9105
   16SAPS  H18Z 2128   5.000   4.339   8.447 -0.7743 -0.3273  0.4015
   17SAPC     N 2129   0.768   6.311  10.802 -0.3374 -0.0308  0.1551
   17SAPC   C12 2130   0.734   6.348  10.662 -0.1654  0.6810  0.2684
   17SAPC  H12A 2131   0.788   6.441  10.660  0.3450  0.4433  1.7452
   17SAPC  H12B 2132   0.629   6.368  10.651 -0.5315 -0.8122  0.8495
   17SAPC   C13 2133   0.913   6.349  10.827  0.1883 -0.2498  0.2620
   17SAPC  H13A 2134   0.982   6.301  10.759 -1.1154  0.3057 -1.5261
   17SAPC  H13B 2135   0.933   6.455  10.820  2.1893 -0.6459 -0.7549
   17SAPC  H13C 2136   0.938   6.310  10.925 -0.4043  1.5742  1.2041
   17SAPC   C14 2137   0.688   6.404  10.898 -0.2156 -0.4372  0.9562
   17SAPC  H14A 2138   0.584   6.376  10.887 -0.4363  0.1379  1.4795
   17SAPC  H14B 2139   0.724   6.399  11.000 -0.4500  0.4766  1.0961
   17SAPC  H14C 2140   0.694   6.508  10.870 -0.2521 -0.9312 -1.0088
   17SAPC   C15 2141   0.734   6.168  10.823 -0.5512 -0.4824 -0.3455
   17SAPC  H15A 2142   0.641   6.138  10.777  0.0267 -0.5592 -1.5081
   17SAPC  H15B 2143   0.808   6.114  10.766 -1.2770  0.2174 -2.0383
   17SAPC  H15C 2144   0.746   6.149  10.928  0.1453 -0.8148 -0.4784
   17SAPC   C11 2145   0.789   6.259  10.548 -0.1580 -0.3946 -0.0836
   17SAPC  H11A 2146   0.888   6.222  10.583 -0.6062 -0.1929  1.4959
   17SAPC  H11B 2147   0.812   6.324  10.461 -1.0467 -0.0733 -0.0843
   17SAPC     P 2148   0.560   6.123  10.486 -0.0828 -0.0185 -0.1389
   17SAPC   O13 2149   0.528   5.978  10.504  0.1785  0.2757 -0.3743
   17SAPC   O14 2150   0.486   6.231  10.558  0.9367  0.8716 -1.1027
   17SAPC   O12 2151   0.713   6.144  10.528 -0.3504 -0.2612  0.4362
   17SAPC   O11 2152   0.567   6.165  10.333 -0.1661 -0.3225 -0.6213
   17SAPC    C1 2153   0.608   6.065  10.238  0.1625  0.2261  0.1303
   17SAPC    HA 2154   0.659   6.110  10.150  1.7536 -0.1037  0.8593
   17SAPC    HB 2155   0.679   5.996  10.288 -0.0065  0.2733  0.4418
   17SAPC    C2 2156   0.504   5.966  10.191  0.0498 -0.1501 -0.0889
   17SAPC    HS 2157   0.497   5.886  10.268 -0.6968 -0.7768 -0.7911
   17SAPC   O21 2158   0.553   5.911  10.068 -0.0959  0.1012  0.7852
   17SAPC   C21 2159   0.631   5.802  10.073 -0.1666 -0.6481 -0.2440
   17SAPC   O22 2160   0.665   5.753  10.178  0.2983 -0.0076  0.7668
   17SAPC   C22 2161   0.674   5.767   9.931 -0.0988 -0.3350  0.1791
   17SAPC   H2R 2162   0.597   5.807   9.862  0.0794  4.5078  2.3763
   17SAPC   H2S 2163   0.767   5.817   9.898 -1.1035  2.0908  0.7964
   17SAPC    C3 2164   0.373   6.026  10.172 -0.4735 -0.8760  0.0447
   17SAPC    HX 2165   0.373   6.114  10.104 -1.4287  0.6551  1.9343
   17SAPC    HY 2166   0.344   6.068  10.270  0.7601  0.0904  0.0228
   17SAPC   O31 2167   0.267   5.948  10.117 -0.0526  0.2458 -0.0402
   17SAPC   C31 2168   0.202   5.873  10.203  0.0245  0.0536  0.3025
   17SAPC   O32 2169   0.231   5.847  10.320  0.5353 -0.2510 -0.6779
   17SAPC   C32 2170   0.080   5.801  10.129  0.7909 -0.4836 -0.6504
   17SAPC   H2X 2171  -0.003   5.876  10.130  0.9189 -0.3025 -1.9031
   17SAPC   H2Y 2172   0.046   5.721  10.198  1.7988 -1.0233 -0.7598
   17SAPC   C23 2173   0.683   5.606   9.918  0.1900 -0.4450 -0.0608
   17SAPC   H3R 2174   0.586   5.558   9.946 -1.0111  1.4123 -0.7962
   17SAPC   H3S 2175   0.771   5.569   9.975  0.2264 -2.7012 -1.4522
   17SAPC   C24 2176   0.716   5.567   9.770 -0.2916  0.4876  0.3632
   17SAPC   H4R 2177   0.776   5.474   9.782 -1.4254 -0.1183  1.6249
   17SAPC   H4S 2178   0.779   5.641   9.716 -2.5218  1.3036 -1.2549
   17SAPC   C25 2179   0.588   5.542   9.690 -0.8901  0.0344  0.2546
   17SAPC   H5R 2180   0.538   5.447   9.717  1.8858 -1.2770  1.1967
   17SAPC   C26 2181   0.538   5.620   9.597 -0.1753 -0.1788 -0.0117
   17SAPC   H6R 2182   0.442   5.590   9.553 -0.0033 -1.4289  0.4158
   17SAPC   C27 2183   0.592   5.756   9.565  0.4801  1.0071  0.2260
   17SAPC   H7R 2184   0.584   5.832   9.646 -1.6565  1.8247 -0.6678
   17SAPC   H7S 2185   0.513   5.796   9.498  0.0272 -0.0958  0.0881
   17SAPC   C28 2186   0.720   5.795   9.493 -0.1078 -0.0734 -0.1331
   17SAPC   H8R 2187   0.799   5.807   9.568 -0.2821 -2.1329  0.4490
   17SAPC   C29 2188   0.746   5.815   9.359 -0.3610  0.0927 -0.2823
   17SAPC   H9R 2189   0.848   5.855   9.346  0.0528  0.0834  2.2843
   17SAPC  C210 2190   0.656   5.811   9.246  0.2493  0.3080 -0.1976
   17SAPC  H10R 2191   0.628   5.915   9.217 -2.0497  0.4910  2.3260
   17SAPC  H10S 2192   0.561   5.759   9.270  0.6622 -0.8132 -0.9263
   17SAPC  C211 2193   0.714   5.740   9.132 -0.1960 -0.1020 -0.2186
   17SAPC  H11R 2194   0.821   5.713   9.129 -0.0803  0.4187 -1.1859
   17SAPC  C212 2195   0.645   5.709   9.021  0.0651 -0.0294  0.2298
   17SAPC  H12R 2196   0.697   5.648   8.945  1.2591  0.8671  0.2958
   17SAPC  C213 2197   0.498   5.745   8.989  0.1920  0.0253  0.9575
   17SAPC  H13R 2198   0.496   5.856   8.984  1.1536 -0.0086 -0.9995
   17SAPC  H13S 2199   0.434   5.701   9.069  1.2613 -3.6483 -0.0071
   17SAPC  C214 2200   0.468   5.694   8.843 -0.0172 -0.5269  0.4460
   17SAPC  H14R 2201   0.475   5.759   8.755  0.2890  0.3751  1.1288
   17SAPC  C215 2202   0.402   5.574   8.819  0.5270  0.1978 -0.4787
   17SAPC  H15R 2203   0.373   5.554   8.714 -1.9394 -0.7969  0.3228
   17SAPC  C216 2204   0.356   5.471   8.917  0.0809  0.0267  0.0446
   17SAPC  H16R 2205   0.248   5.483   8.938 -0.0234 -1.2060  0.2449
   17SAPC  H16S 2206   0.413   5.489   9.011  0.4332  1.9069 -0.4843
   17SAPC  C217 2207   0.379   5.325   8.879 -0.1485  0.0561  0.4472
   17SAPC  H17R 2208   0.327   5.268   8.959  0.3721  0.3911  1.0324
   17SAPC  H17S 2209   0.485   5.294   8.890 -0.7234 -1.5939  1.7676
   17SAPC  C218 2210   0.321   5.283   8.747  0.9306 -0.1671  0.1732
   17SAPC  H18R 2211   0.374   5.345   8.672 -0.3597  0.7147 -0.0526
   17SAPC  H18S 2212   0.215   5.317   8.747  0.9337 -0.1413 -0.2642
   17SAPC  C219 2213   0.332   5.134   8.725  0.2502 -0.0885 -0.1570
   17SAPC  H19R 2214   0.308   5.116   8.618 -2.1025 -1.7364  0.5605
   17SAPC  H19S 2215   0.246   5.086   8.776 -0.0550  1.0694  0.4512
   17SAPC  C220 2216   0.459   5.065   8.751 -0.8031  0.3339 -0.6303
   17SAPC  H20R 2217   0.453   4.957   8.721 -0.5144  0.2295 -0.3157
   17SAPC  H20S 2218   0.492   5.063   8.856  0.6784  1.4390 -1.0435
   17SAPC  H20T 2219   0.542   5.115   8.697  0.7177  0.5674  1.7928
   17SAPC   C33 2220   0.104   5.754   9.987  0.0163 -0.3677  0.5338
   17SAPC   H3X 2221   0.200   5.700   9.975 -1.5995 -2.7859 -4.3685
   17SAPC   H3Y 2222   0.126   5.841   9.921 -0.5630 -1.2560 -0.9032
   17SAPC   C34 2223  -0.011   5.688   9.910 -0.5706  0.0914 -0.4835
   17SAPC   H4X 2224  -0.087   5.768   9.919  1.3784  1.8169  2.6313
   17SAPC   H4Y 2225  -0.042   5.597   9.967 -2.1859 -0.5692 -2.3188
   17SAPC   C35 2226   0.024   5.648   9.770 -0.3583 -0.3379 -0.3692
   17SAPC   H5X 2227  -0.067   5.595   9.734  0.6809 -2.6125  0.1641
   17SAPC   H5Y 2228   0.104   5.571   9.774 -0.4877 -0.5082 -0.9403
   17SAPC   C36 2229   0.051   5.761   9.675  0.6064 -0.0367  0.1865
   17SAPC   H6X 2230   0.124   5.830   9.721  2.2414 -2.1491  0.8874
   17SAPC   H6Y 2231  -0.045   5.810   9.647  0.0923 -1.2341 -0.2145
   17SAPC   C37 2232   0.104   5.712   9.542  0.0031 -0.1752 -0.5368
   17SAPC   H7X 2233   0.024   5.660   9.486  0.2668  0.6829 -1.7539
   17SAPC   H7Y 2234   0.188   5.642   9.563 -0.7752 -0.4912  1.8097
   17SAPC   C38 2235   0.161   5.822   9.448 -0.6450  0.5468 -0.1613
   17SAPC   H8X 2236   0.247   5.867   9.503 -1.0134 -0.5721  1.4275
   17SAPC   H8Y 2237   0.095   5.904   9.414  0.1396  1.2183 -0.1026
   17SAPC   C39 2238   0.231   5.755   9.325 -0.0702  0.6613  0.1895
   17SAPC   H9X 2239   0.325   5.710   9.365 -0.5543  0.6570  1.3604
   17SAPC   H9Y 2240   0.264   5.828   9.248  2.3217 -0.8049 -0.2751
   17SAPC  C310 2241   0.159   5.633   9.250  0.6048  0.1061 -0.5711
   17SAPC  H10X 2242   0.116   5.562   9.323  1.6854 -0.5835 -0.5801
   17SAPC  H10Y 2243   0.232   5.571   9.194  0.0659 -0.5939 -0.4990
   17SAPC  C311 2244   0.053   5.676   9.154 -0.1593 -0.2751  0.0977
   17SAPC  H11X 2245   0.109   5.733   9.077  0.4905 -1.2449 -0.1802
   17SAPC  H11Y 2246  -0.008   5.754   9.204  0.3191 -0.9011  1.7238
   17SAPC  C312 2247  -0.048   5.570   9.107  0.0151 -0.4487  0.4331
   17SAPC  H12X 2248  -0.127   5.542   9.181 -0.6640  0.5202  0.1000
   17SAPC  H12Y 2249   0.008   5.476   9.089  1.1974  0.5455 -1.3458
   17SAPC  C313 2250  -0.135   5.616   8.982  0.2265 -0.2781 -0.0970
   17SAPC  H13X 2251  -0.195   5.530   8.946  0.5934 -0.7796  0.4683
   17SAPC  H13Y 2252  -0.058   5.647   8.907 -0.3149 -2.2691 -1.5691
   17SAPC  C314 2253  -0.235   5.740   8.999  0.2212  0.2299  0.8121
   17SAPC  H14X 2254  -0.224   5.813   8.917 -2.1460  1.0785  1.1897
   17SAPC  H14Y 2255  -0.218   5.788   9.098  0.3521  1.5296  0.1773
   17SAPC  C315 2256  -0.385   5.699   8.983 -1.1041 -0.3265 -0.7091
   17SAPC  H15X 2257  -0.434   5.794   9.014  1.0048  0.5073  0.2933
   17SAPC  H15Y 2258  -0.409   5.621   9.059  1.4480  0.3367  0.9304
   17SAPC  C316 2259  -0.422   5.644   8.845 -0.3188  0.2962  0.6739
   17SAPC  H16X 2260  -0.370   5.547   8.829  0.9489  0.7538  1.8290
   17SAPC  H16Y 2261  -0.384   5.700   8.757 -1.0183 -0.4876 -0.1537
   17SAPC  C317 2262  -0.570   5.622   8.827 -0.1502 -0.0970 -0.2310
   17SAPC  H17X 2263  -0.595   5.543   8.901  0.7182  0.8156  1.0975
   17SAPC  H17Y 2264  -0.596   5.583   8.726  2.6916  0.6867 -1.3754
   17SAPC  C318 2265  -0.645   5.757   8.842  0.2419 -0.0107  0.6415
   17SAPC  H18X 2266  -0.604   5.838   8.777 -0.8612  0.3367  0.3598
   17SAPC  H18Y 2267  -0.751   5.741   8.811  0.5489 -1.6030  0.3292
   17SAPC  H18Z 2268  -0.650   5.785   8.949 -1.1521 -1.4172  0.9936
   18SAPC     N 2269   0.139   6.749  10.922  0.0755 -0.3892  0.6571
   18SAPC   C12 2270   0.242   6.744  10.805 -0.2467  1.0300 -0.1964
   18SAPC  H12A 2271   0.266   6.639  10.792 -2.4377  0.6004 -1.2250
   18SAPC  H12B 2272   0.334   6.787  10.841 -1.0010  2.2930  0.3020
   18SAPC   C13 2273   0.008   6.698  10.881  0.3742 -0.7316 -0.6109
   18SAPC  H13A 2274  -0.079   6.729  10.937 -1.3579  0.1344 -3.5402
   18SAPC  H13B 2275  -0.011   6.736  10.782  2.1157  1.6095 -0.1480
   18SAPC  H13C 2276  -0.002   6.593  10.901  2.9805 -0.7624  1.1100
   18SAPC   C14 2277   0.194   6.683  11.044 -0.1414  0.2360 -0.0636
   18SAPC  H14A 2278   0.127   6.697  11.128 -0.7363  0.6988 -0.6105
   18SAPC  H14B 2279   0.200   6.577  11.026 -2.9400  0.0924 -0.6115
   18SAPC  H14C 2280   0.294   6.717  11.065  1.0380 -1.8303 -1.9349
   18SAPC   C15 2281   0.114   6.892  10.957 -0.1024 -0.3451 -0.0139
   18SAPC  H15A 2282   0.205   6.943  10.985 -0.6368  2.8589 -3.3675
   18SAPC  H15B 2283   0.069   6.951  10.878  0.2392 -1.1971 -0.8701
   18SAPC  H15C 2284   0.048   6.899  11.042  1.2482  1.9518  0.9398
   18SAPC   C11 2285   0.213   6.808  10.657 -0.2292  0.5886  0.1225
   18SAPC  H11A 2286   0.299   6.796  10.588 -1.3577 -0.3712 -1.2033
   18SAPC  H11B 2287   0.191   6.915  10.679  3.8312  1.2950  1.4577
   18SAPC     P 2288   0.112   6.613  10.512 -0.0778  0.1968  0.4205
   18SAPC   O13 2289   0.167   6.502  10.597  0.0910 -0.2618  0.1344
   18SAPC   O14 2290  -0.019   6.590  10.452 -0.3853 -0.1904 -0.0573
   18SAPC   O12 2291   0.095   6.741  10.606 -0.0785 -0.0728 -0.2209
   18SAPC   O11 2292   0.211   6.658  10.405 -0.6175  0.2725 -0.2064
   18SAPC    C1 2293   0.296   6.574  10.330  0.3336  0.0142 -0.1628
   18SAPC    HA 2294   0.291   6.464  10.342  1.8640  0.1093  1.8696
   18SAPC    HB 2295   0.277   6.597  10.223  0.0522  2.3390  0.3239
   18SAPC    C2 2296   0.449   6.600  10.355 -0.2957  0.0367 -0.2130
   18SAPC    HS 2297   0.469   6.559  10.456  2.2541 -1.7387 -1.3381
   18SAPC   O21 2298   0.477   6.741  10.335 -0.8768  0.5164 -0.3551
   18SAPC   C21 2299   0.591   6.775  10.388 -0.3207  0.6077 -0.0799
   18SAPC   O22 2300   0.664   6.705  10.458  0.2056  0.1136  0.9067
   18SAPC   C22 2301   0.620   6.921  10.341  0.2523 -0.1371  0.3914
   18SAPC   H2R 2302   0.597   6.914  10.232 -4.1481  1.2748  0.9979
   18SAPC   H2S 2303   0.536   6.986  10.374 -1.5287  0.0163 -3.8113
   18SAPC    C3 2304   0.526   6.503  10.255  0.7520  0.3422  0.9047
   18SAPC    HX 2305   0.482   6.403  10.275 -1.0941  1.2293  1.6175
   18SAPC    HY 2306   0.632   6.501  10.286  1.4898 -0.3406 -1.4588
   18SAPC   O31 2307   0.505   6.538  10.114  0.2368 -0.0334 -0.4124
   18SAPC   C31 2308   0.603   6.618  10.068  0.1024 -0.0359  0.4158
   18SAPC   O32 2309   0.700   6.649  10.134 -0.5415 -0.5834  0.1848
   18SAPC   C32 2310   0.557   6.684   9.936  0.3591  0.0372  0.4661
   18SAPC   H2X 2311   0.532   6.789   9.960  1.8630  0.4759  0.2397
   18SAPC   H2Y 2312   0.463   6.632   9.906  1.3329 -1.8989  0.6020
   18SAPC   C23 2313   0.770   6.970  10.356  0.3424  0.2714 -0.0993
   18SAPC   H3R 2314   0.833   6.880  10.338  0.0833  0.0486  0.1132
   18SAPC   H3S 2315   0.787   6.997  10.462  3.1867  1.6617 -0.7955
   18SAPC   C24 2316   0.805   7.093  10.261 -0.0008 -0.1044 -0.4162
   18SAPC   H4R 2317   0.727   7.171  10.274 -1.5636 -1.5599 -0.7015
   18SAPC   H4S 2318   0.811   7.066  10.153  1.2401  0.2846 -0.4562
   18SAPC   C25 2319   0.939   7.145  10.295 -0.1170 -0.0183 -0.1162
   18SAPC   H5R 2320   0.966   7.143  10.402  0.4049 -0.8301 -0.2482
   18SAPC   C26 2321   1.047   7.163  10.214 -0.0430  0.0945 -0.2883
   18SAPC   H6R 2322   1.137   7.202  10.263  0.5788 -0.1550 -1.2042
   18SAPC   C27 2323   1.069   7.149  10.058  0.2995 -0.6266 -0.5847
   18SAPC   H7R 2324   1.121   7.240  10.024 -1.4917  1.3510  1.6357
   18SAPC   H7S 2325   0.971   7.146  10.004 -0.5452 -0.3869  0.8659
   18SAPC   C28 2326   1.149   7.022  10.022  0.3094 -0.4504  0.1444
   18SAPC   H8R 2327   1.176   6.960  10.109  0.3495  0.0010  0.4578
   18SAPC   C29 2328   1.165   6.982   9.897 -0.9463 -0.1002  0.4569
   18SAPC   H9R 2329   1.233   6.896   9.888  0.3738  0.4466  3.5501
   18SAPC  C210 2330   1.108   7.048   9.774 -0.4609 -0.2280  0.0774
   18SAPC  H10R 2331   1.046   7.138   9.790  1.0750  0.8655  0.0719
   18SAPC  H10S 2332   1.042   6.966   9.738 -1.7857  1.3452 -1.1748
   18SAPC  C211 2333   1.217   7.073   9.677  0.0362 -0.0748 -0.4212
   18SAPC  H11R 2334   1.309   7.108   9.725 -0.0111 -0.2531 -0.2006
   18SAPC  C212 2335   1.215   7.075   9.548  0.6652 -0.1293  0.5551
   18SAPC  H12R 2336   1.303   7.103   9.489 -1.5001 -0.9417 -3.4103
   18SAPC  C213 2337   1.094   7.053   9.459 -0.1706 -0.1736  0.0344
   18SAPC  H13R 2338   1.055   7.153   9.431 -0.2461 -0.5798 -1.3866
   18SAPC  H13S 2339   1.012   7.004   9.516  0.1591  1.1620  1.7346
   18SAPC  C214 2340   1.130   6.958   9.343  0.5300  0.1300 -0.2225
   18SAPC  H14R 2341   1.119   6.852   9.372 -1.6458 -0.9243 -4.1221
   18SAPC  C215 2342   1.173   6.983   9.220 -0.2624 -0.2452  0.1124
   18SAPC  H15R 2343   1.193   6.898   9.153  1.6991 -0.3045  0.7070
   18SAPC  C216 2344   1.197   7.121   9.152  0.0610  1.1011 -0.3296
   18SAPC  H16R 2345   1.306   7.141   9.148  0.2239  0.4770  0.5650
   18SAPC  H16S 2346   1.149   7.197   9.217  1.7465  0.9442  1.1535
   18SAPC  C217 2347   1.135   7.156   9.009  0.2532  0.6686  0.0150
   18SAPC  H17R 2348   1.024   7.165   9.011  0.0416 -1.4525  0.2265
   18SAPC  H17S 2349   1.148   7.073   8.935 -1.2758  0.7082 -0.3371
   18SAPC  C218 2350   1.182   7.290   8.950  0.0659 -0.1217  0.1851
   18SAPC  H18R 2351   1.292   7.285   8.934 -0.0822 -0.6534 -0.7667
   18SAPC  H18S 2352   1.173   7.370   9.026  0.7271  0.7737 -0.6707
   18SAPC  C219 2353   1.100   7.337   8.831  0.0439  0.8168  0.1085
   18SAPC  H19R 2354   1.142   7.435   8.803 -1.0154  0.7234 -1.9768
   18SAPC  H19S 2355   0.993   7.351   8.859 -0.4630 -1.1264 -0.7236
   18SAPC  C220 2356   1.091   7.243   8.716  0.3931 -0.1664  0.2573
   18SAPC  H20R 2357   1.017   7.276   8.640 -1.6558 -0.7907  1.8700
   18SAPC  H20S 2358   1.078   7.135   8.740  1.6491 -0.5658 -0.7348
   18SAPC  H20T 2359   1.186   7.256   8.661 -0.8140  2.9520 -1.3262
   18SAPC   C33 2360   0.644   6.673   9.814  0.0694  0.0461 -0.2314
   18SAPC   H3X 2361   0.601   6.612   9.732 -0.5640  0.3983 -0.1631
   18SAPC   H3Y 2362   0.736   6.627   9.856  1.0686  2.1816  0.0444
   18SAPC   C34 2363   0.676   6.813   9.768 -0.0087 -0.3238  0.5583
   18SAPC   H4X 2364   0.719   6.870   9.853 -2.6848 -1.7405  3.0412
   18SAPC   H4Y 2365   0.581   6.863   9.738  0.7913  0.9374  0.0373
   18SAPC   C35 2366   0.773   6.809   9.650  0.1849  0.0580 -0.2853
   18SAPC   H5X 2367   0.859   6.744   9.678  0.2569 -0.0533 -0.7492
   18SAPC   H5Y 2368   0.806   6.914   9.637 -1.3977  0.7563  1.0425
   18SAPC   C36 2369   0.704   6.770   9.515 -0.4915 -0.2418 -0.5353
   18SAPC   H6X 2370   0.617   6.836   9.494  0.4569  1.2153  0.0101
   18SAPC   H6Y 2371   0.672   6.664   9.508 -1.8075 -0.0347  1.5852
   18SAPC   C37 2372   0.801   6.801   9.405 -0.9093 -0.9233  0.0470
   18SAPC   H7X 2373   0.894   6.741   9.418  0.3576  0.3480 -2.4452
   18SAPC   H7Y 2374   0.819   6.911   9.405 -0.7864 -0.8866 -2.2625
   18SAPC   C38 2375   0.746   6.770   9.259  0.7755 -0.5724  0.1803
   18SAPC   H8X 2376   0.651   6.828   9.268  0.1625 -1.6578  0.9746
   18SAPC   H8Y 2377   0.717   6.664   9.274 -4.1351  0.3992 -0.7265
   18SAPC   C39 2378   0.814   6.809   9.129 -0.2178 -0.9549 -0.2188
   18SAPC   H9X 2379   0.918   6.772   9.131  0.0493 -0.2007  0.7933
   18SAPC   H9Y 2380   0.825   6.919   9.120 -0.2412 -0.7983  1.3193
   18SAPC  C310 2381   0.742   6.753   9.006  0.1824 -0.6038 -0.8689
   18SAPC  H10X 2382   0.643   6.803   9.007  1.0507  1.5743  3.9401
   18SAPC  H10Y 2383   0.751   6.643   9.016  0.9816 -0.5357 -0.8026
   18SAPC  C311 2384   0.816   6.797   8.885 -0.1990  0.4331  0.6365
   18SAPC  H11X 2385   0.920   6.764   8.907 -0.7203 -2.0928 -0.3557
   18SAPC  H11Y 2386   0.812   6.907   8.872 -0.6680  0.3901  0.4083
   18SAPC  C312 2387   0.767   6.723   8.753 -0.9686 -1.1097  0.1514
   18SAPC  H12X 2388   0.667   6.764   8.725  0.3734  0.0755 -3.5316
   18SAPC  H12Y 2389   0.753   6.613   8.758  1.7758 -1.5825 -0.9819
   18SAPC  C313 2390   0.865   6.755   8.637  0.1007 -0.4665  0.1896
   18SAPC  H13X 2391   0.891   6.862   8.619  0.6401 -0.3905  1.3638
   18SAPC  H13Y 2392   0.802   6.714   8.555 -2.5820  0.2611  1.7629
   18SAPC  C314 2393   0.990   6.672   8.641  0.4130  0.1148  0.3231
   18SAPC  H14X 2394   0.964   6.570   8.676 -2.7993  0.4648 -0.7527
   18SAPC  H14Y 2395   1.051   6.720   8.721 -1.2102  1.1593  0.9991
   18SAPC  C315 2396   1.066   6.662   8.504  0.4586 -0.2006 -0.0444
   18SAPC  H15X 2397   1.005   6.591   8.444  1.0608 -0.3191 -0.5211
   18SAPC  H15Y 2398   1.161   6.607   8.516  1.0803  0.5605 -1.2481
   18SAPC  C316 2399   1.079   6.791   8.426  0.3550  0.0567 -0.6102
   18SAPC  H16X 2400   0.976   6.825   8.401  0.3435 -0.3763 -1.1770
   18SAPC  H16Y 2401   1.119   6.766   8.326 -1.8754 -0.7945 -1.3458
   18SAPC  C317 2402   1.166   6.890   8.497 -0.3011  0.1336 -0.0824
   18SAPC  H17X 2403   1.264   6.839   8.510  0.0956 -0.0584 -3.0871
   18SAPC  H17Y 2404   1.117   6.925   8.590 -0.1432  3.3341 -1.0855
   18SAPC  C318 2405   1.200   7.013   8.413 -0.0300 -0.7386  0.4839
   18SAPC  H18X 2406   1.250   6.987   8.317 -0.0053  0.3996  0.1829
   18SAPC  H18Y 2407   1.258   7.091   8.465 -3.2282  0.9600  1.7465
   18SAPC  H18Z 2408   1.111   7.072   8.382  0.0955 -0.7525  0.0839
   19SAPC     N 2409   6.207   2.109  11.100  0.6181  0.3422 -0.1663
   19SAPC   C12 2410   6.130   2.078  10.976 -0.6811 -0.1170  0.3153
   19SAPC  H12A 2411   6.157   1.979  10.941  1.9684  0.7564 -0.2866
   19SAPC  H12B 2412   6.156   2.147  10.897  0.7972  1.6626  2.2509
   19SAPC   C13 2413   6.348   2.071  11.086 -0.6676  0.4083  0.2626
   19SAPC  H13A 2414   6.391   2.083  11.185  0.5963  0.1079 -0.2370
   19SAPC  H13B 2415   6.360   1.964  11.073  1.8320  0.5407  0.9164
   19SAPC  H13C 2416   6.409   2.127  11.017  1.6901 -1.6396  0.5252
   19SAPC   C14 2417   6.192   2.254  11.135 -0.0014  0.7773 -0.0969
   19SAPC  H14A 2418   6.246   2.269  11.227  1.5781  1.0373 -1.0202
   19SAPC  H14B 2419   6.239   2.322  11.066 -1.5484  2.2715  0.2681
   19SAPC  H14C 2420   6.088   2.277  11.147 -0.2036 -0.5748  0.9544
   19SAPC   C15 2421   6.147   2.035  11.221  0.1685  0.2045 -0.3134
   19SAPC  H15A 2422   6.207   2.036  11.310 -0.1738 -0.9561 -0.0457
   19SAPC  H15B 2423   6.046   2.072  11.233  0.4346  1.4745 -1.7816
   19SAPC  H15C 2424   6.135   1.931  11.191  0.3892  0.2167 -0.4404
   19SAPC   C11 2425   5.974   2.082  11.000  0.2387 -0.8432 -0.0981
   19SAPC  H11A 2426   5.940   2.003  11.070 -2.2297 -1.6012 -2.0015
   19SAPC  H11B 2427   5.929   2.039  10.908 -1.5370  0.3283  0.1922
   19SAPC     P 2428   5.913   2.321  10.921  0.1055  0.4451  0.0734
   19SAPC   O13 2429   5.791   2.305  10.844  0.5696 -0.7581 -0.4196
   19SAPC   O14 2430   5.934   2.449  10.992  0.3971  0.2517 -0.1244
   19SAPC   O12 2431   5.926   2.213  11.036 -0.3532  0.0852  0.0461
   19SAPC   O11 2432   6.046   2.302  10.831 -0.2501  0.7031 -0.1787
   19SAPC    C1 2433   6.083   2.419  10.756 -0.6207  0.5712  0.1444
   19SAPC    HA 2434   6.084   2.512  10.817  2.2224  0.8597 -0.2171
   19SAPC    HB 2435   6.191   2.401  10.736 -0.9483  0.0353 -1.2553
   19SAPC    C2 2436   6.012   2.421  10.620 -0.4643  0.1492 -0.3467
   19SAPC    HS 2437   5.905   2.431  10.651 -0.1930 -2.3460  1.7475
   19SAPC   O21 2438   6.045   2.308  10.544 -0.1411 -0.2311  0.2922
   19SAPC   C21 2439   5.946   2.270  10.462 -0.5148  0.3377 -0.0001
   19SAPC   O22 2440   5.832   2.305  10.469 -1.2173 -0.2510 -0.2097
   19SAPC   C22 2441   6.004   2.184  10.347 -0.2986  0.7130  0.4931
   19SAPC   H2R 2442   6.110   2.212  10.326 -0.1863 -0.1964 -0.2264
   19SAPC   H2S 2443   5.997   2.077  10.377  1.2704  1.3995  3.8180
   19SAPC    C3 2444   6.040   2.558  10.545  0.9146 -0.4151 -1.0699
   19SAPC    HX 2445   6.149   2.560  10.522  1.3861  2.5594  0.7545
   19SAPC    HY 2446   6.035   2.644  10.615 -1.2436 -2.1877  1.1301
   19SAPC   O31 2447   5.951   2.580  10.432  0.5286  0.3307 -0.4164
   19SAPC   C31 2448   5.828   2.633  10.460 -0.2307  0.3864 -0.9915
   19SAPC   O32 2449   5.794   2.658  10.577  0.1283 -0.5791  0.1426
   19SAPC   C32 2450   5.743   2.659  10.342  0.1609  0.2885 -0.1538
   19SAPC   H2X 2451   5.798   2.736  10.284 -0.4907 -1.1658 -2.9205
   19SAPC   H2Y 2452   5.648   2.693  10.387 -0.5035 -2.0049  0.3029
   19SAPC   C23 2453   5.929   2.188  10.210 -0.0012 -0.3299 -0.3793
   19SAPC   H3R 2454   5.933   2.294  10.180 -1.8837  0.1702  0.9453
   19SAPC   H3S 2455   5.823   2.159  10.225 -0.1087 -1.0589 -2.2883
   19SAPC   C24 2456   5.993   2.093  10.108 -0.2627 -0.3880 -0.2611
   19SAPC   H4R 2457   5.981   1.988  10.143  1.2553 -1.3625 -2.4543
   19SAPC   H4S 2458   6.100   2.120  10.096 -0.3905  0.8957  1.1578
   19SAPC   C25 2459   5.916   2.097   9.977 -0.0045  0.3520 -0.1719
   19SAPC   H5R 2460   5.830   2.030   9.971  1.2410 -1.1959 -1.8169
   19SAPC   C26 2461   5.943   2.183   9.870  0.4461  0.6878 -0.0582
   19SAPC   H6R 2462   5.877   2.174   9.783 -0.6816 -0.1717  0.8572
   19SAPC   C27 2463   6.054   2.284   9.868 -0.1727  1.4013 -0.3568
   19SAPC   H7R 2464   6.129   2.228   9.808 -0.7529 -0.2571  0.3847
   19SAPC   H7S 2465   6.102   2.310   9.965  0.2652  1.7472 -0.6634
   19SAPC   C28 2466   6.013   2.403   9.789  0.2171  0.4227  0.0180
   19SAPC   H8R 2467   5.955   2.482   9.839  1.5416  1.9440 -0.7604
   19SAPC   C29 2468   6.014   2.410   9.656  0.2790  0.1619 -0.0377
   19SAPC   H9R 2469   5.998   2.509   9.610 -0.3889  1.2398  2.3832
   19SAPC  C210 2470   6.067   2.306   9.558 -0.2977 -0.2681  0.3390
   19SAPC  H10R 2471   6.030   2.210   9.600 -2.4520 -0.6311 -2.1221
   19SAPC  H10S 2472   6.178   2.297   9.555 -0.4989 -3.8698 -0.4307
   19SAPC  C211 2473   6.005   2.331   9.421 -0.0713  0.1052 -0.6653
   19SAPC  H11R 2474   5.899   2.304   9.418 -0.0605 -0.8479  3.1459
   19SAPC  C212 2475   6.068   2.368   9.302  0.6770  0.1275 -0.8044
   19SAPC  H12R 2476   6.012   2.376   9.207 -2.4665  1.7899  1.0471
   19SAPC  C213 2477   6.213   2.396   9.280 -0.2560  0.3079 -0.3805
   19SAPC  H13R 2478   6.273   2.362   9.368 -0.5970 -0.7472 -0.5382
   19SAPC  H13S 2479   6.227   2.506   9.290  0.0960  0.2763 -0.4878
   19SAPC  C214 2480   6.271   2.335   9.154 -0.5105  0.0530 -0.0127
   19SAPC  H14R 2481   6.288   2.226   9.160  1.3892  0.3056 -0.3201
   19SAPC  C215 2482   6.291   2.398   9.033  0.0940 -0.0194 -0.0808
   19SAPC  H15R 2483   6.347   2.335   8.962 -0.0428  0.4656 -0.6303
   19SAPC  C216 2484   6.272   2.547   9.001  0.1019  0.1116  0.1525
   19SAPC  H16R 2485   6.368   2.594   8.971 -0.5411  1.5599  0.2820
   19SAPC  H16S 2486   6.238   2.600   9.093  0.7695  0.4446  0.2067
   19SAPC  C217 2487   6.171   2.567   8.890  0.1457 -0.3295 -0.8779
   19SAPC  H17R 2488   6.173   2.676   8.870 -2.1861 -0.3516 -1.4750
   19SAPC  H17S 2489   6.072   2.548   8.936  0.9697 -0.9141  0.7462
   19SAPC  C218 2490   6.206   2.501   8.759  0.4937 -0.3025  0.0038
   19SAPC  H18R 2491   6.207   2.390   8.770  0.9589 -0.3506 -0.4590
   19SAPC  H18S 2492   6.308   2.542   8.744 -0.3071  2.2668  1.1203
   19SAPC  C219 2493   6.137   2.570   8.643  0.3579  0.1291 -0.3809
   19SAPC  H19R 2494   6.171   2.526   8.547  1.4844  0.1589 -0.0178
   19SAPC  H19S 2495   6.169   2.677   8.650 -2.6846  1.0932  0.3359
   19SAPC  C220 2496   5.988   2.568   8.644  0.5943  0.6495  0.0791
   19SAPC  H20R 2497   5.959   2.465   8.672  1.4549  0.3690 -0.0148
   19SAPC  H20S 2498   5.946   2.606   8.548  0.4203 -0.0248 -0.1196
   19SAPC  H20T 2499   5.957   2.640   8.722 -1.5608 -0.5725  0.4186
   19SAPC   C33 2500   5.742   2.545  10.234  0.6601  0.2747 -0.8123
   19SAPC   H3X 2501   5.685   2.456  10.267 -2.2253  1.8456 -1.2032
   19SAPC   H3Y 2502   5.842   2.509  10.200  0.7074 -0.1248 -0.2538
   19SAPC   C34 2503   5.662   2.581  10.102 -0.1442  0.3608 -0.8660
   19SAPC   H4X 2504   5.704   2.675  10.060 -0.8399  1.1669  0.2163
   19SAPC   H4Y 2505   5.563   2.607  10.144 -0.0919 -0.0406 -0.4730
   19SAPC   C35 2506   5.660   2.464  10.007 -0.2345 -0.2967  0.6790
   19SAPC   H5X 2507   5.609   2.381  10.061  1.5816 -1.3914  0.8014
   19SAPC   H5Y 2508   5.762   2.423   9.994  1.2519  3.1510  0.3106
   19SAPC   C36 2509   5.590   2.499   9.879  0.3414  0.3049  0.4081
   19SAPC   H6X 2510   5.627   2.581   9.815 -1.0822 -1.5888 -3.1147
   19SAPC   H6Y 2511   5.492   2.546   9.904  1.4322  2.3097  1.1581
   19SAPC   C37 2512   5.583   2.377   9.790  0.1992  0.0090  0.2959
   19SAPC   H7X 2513   5.494   2.314   9.811 -0.5125  1.4454  1.7784
   19SAPC   H7Y 2514   5.680   2.323   9.789  2.1130  3.1652  1.0058
   19SAPC   C38 2515   5.572   2.426   9.638  0.5057  0.1568 -0.2969
   19SAPC   H8X 2516   5.545   2.339   9.575 -1.3875  0.0256  0.6141
   19SAPC   H8Y 2517   5.672   2.463   9.607  1.7601 -1.5975  1.4217
   19SAPC   C39 2518   5.455   2.523   9.613 -0.5426  0.4491  0.6014
   19SAPC   H9X 2519   5.451   2.602   9.691  2.8886 -0.8527  2.3200
   19SAPC   H9Y 2520   5.358   2.471   9.603  0.3924 -1.0386 -1.4261
   19SAPC  C310 2521   5.476   2.598   9.481  0.5336  0.0897 -0.1537
   19SAPC  H10X 2522   5.577   2.642   9.495  0.0095  1.3661 -0.2858
   19SAPC  H10Y 2523   5.398   2.676   9.468  1.5969  1.0203 -1.1368
   19SAPC  C311 2524   5.482   2.508   9.355  0.2988 -0.0387  0.5876
   19SAPC  H11X 2525   5.550   2.422   9.370 -0.2756 -0.3986  1.2034
   19SAPC  H11Y 2526   5.534   2.566   9.276 -1.4496  0.2553 -0.3926
   19SAPC  C312 2527   5.344   2.487   9.302  0.6056 -1.0545  0.4099
   19SAPC  H12X 2528   5.286   2.580   9.320  1.4211 -1.0106  3.4625
   19SAPC  H12Y 2529   5.290   2.403   9.352 -1.1872  0.9466  2.0365
   19SAPC  C313 2530   5.343   2.446   9.160  0.0259  0.4258 -0.4068
   19SAPC  H13X 2531   5.421   2.368   9.164 -0.2022  0.2403  0.6558
   19SAPC  H13Y 2532   5.383   2.525   9.094  0.3339  1.1600  0.6420
   19SAPC  C314 2533   5.202   2.394   9.109 -0.2629 -0.2764 -0.8383
   19SAPC  H14X 2534   5.147   2.490   9.108  1.3674  0.7003 -1.2943
   19SAPC  H14Y 2535   5.157   2.330   9.188 -0.7440  0.9650 -0.0784
   19SAPC  C315 2536   5.218   2.323   8.980 -0.1528  0.2616  0.8721
   19SAPC  H15X 2537   5.306   2.256   8.992 -0.2286  0.0590  0.3356
   19SAPC  H15Y 2538   5.248   2.408   8.916  0.0040  0.7614  1.6028
   19SAPC  C316 2539   5.100   2.247   8.925  0.3992 -0.8135 -0.1498
   19SAPC  H16X 2540   5.044   2.185   8.997  2.4311 -3.2473 -0.5313
   19SAPC  H16Y 2541   5.126   2.172   8.848  0.9074  0.0839 -0.8751
   19SAPC  C317 2542   4.996   2.335   8.841  0.0601  0.6310 -0.2219
   19SAPC  H17X 2543   4.945   2.255   8.784 -0.0803 -0.0133  0.8030
   19SAPC  H17Y 2544   5.054   2.393   8.765  1.6153  0.0615  0.4896
   19SAPC  C318 2545   4.906   2.416   8.935 -0.3537  0.2310 -0.0710
   19SAPC  H18X 2546   4.860   2.358   9.018 -0.4327 -1.0120 -0.9442
   19SAPC  H18Y 2547   4.819   2.459   8.881 -0.2377  1.7690  0.9327
   19SAPC  H18Z 2548   4.963   2.499   8.982  1.1132 -0.6466 -0.2354
   20SAPC     N 2549   0.068   2.743  11.021 -0.2084 -0.0141  0.0421
   20SAPC   C12 2550   0.092   2.837  10.899  0.7950 -0.2946  1.1534
   20SAPC  H12A 2551   0.000   2.890  10.875  1.0726 -1.1770 -2.3680
   20SAPC  H12B 2552   0.109   2.773  10.814  0.8699 -0.4724  1.3023
   20SAPC   C13 2553  -0.033   2.637  10.986 -0.4777  0.2574 -0.0255
   20SAPC  H13A 2554  -0.081   2.582  11.066  1.1880  1.2336  1.7224
   20SAPC  H13B 2555  -0.112   2.679  10.925  1.0434  2.2705 -0.7114
   20SAPC  H13C 2556   0.012   2.568  10.917 -0.2537 -1.0735  1.4025
   20SAPC   C14 2557   0.197   2.662  11.051  0.3928  0.2158 -0.1409
   20SAPC  H14A 2558   0.164   2.580  11.114 -1.8269  1.4881  0.4622
   20SAPC  H14B 2559   0.227   2.615  10.959  0.4780 -0.3174  0.1560
   20SAPC  H14C 2560   0.276   2.718  11.097  0.9317 -0.2917 -0.4406
   20SAPC   C15 2561   0.032   2.809  11.146  0.3166 -0.2362 -0.6296
   20SAPC  H15A 2562   0.110   2.874  11.181  0.4064 -0.9946  0.6507
   20SAPC  H15B 2563  -0.049   2.876  11.122  1.4267  1.6947  0.7410
   20SAPC  H15C 2564   0.001   2.730  11.214  0.1098  1.3594  1.1988
   20SAPC   C11 2565   0.209   2.936  10.913 -0.0303  0.3973 -0.0322
   20SAPC  H11A 2566   0.242   2.978  10.816  0.6701  0.4791  0.2326
   20SAPC  H11B 2567   0.293   2.874  10.952 -1.3748 -0.5349  1.5307
   20SAPC     P 2568   0.063   3.150  10.972  0.0010  0.4591  0.4764
   20SAPC   O13 2569  -0.068   3.088  10.947  0.1485  0.1450 -0.1228
   20SAPC   O14 2570   0.069   3.255  11.075 -0.0714 -0.1371  0.0637
   20SAPC   O12 2571   0.169   3.038  11.002 -0.1443  0.4799 -0.2318
   20SAPC   O11 2572   0.120   3.206  10.842  0.1915 -0.3753  0.4815
   20SAPC    C1 2573   0.087   3.343  10.814  0.4685 -0.0917 -0.3880
   20SAPC    HA 2574   0.006   3.390  10.872  2.2995  1.6824  0.8590
   20SAPC    HB 2575   0.172   3.408  10.843 -0.1879  1.6518 -2.2002
   20SAPC    C2 2576   0.043   3.360  10.661 -0.2189  0.1883  0.2834
   20SAPC    HS 2577   0.033   3.470  10.649 -2.7392 -0.1085 -0.8294
   20SAPC   O21 2578  -0.082   3.291  10.641 -0.0940 -0.2684 -0.8533
   20SAPC   C21 2579  -0.158   3.341  10.546  0.0839 -1.0122 -0.3305
   20SAPC   O22 2580  -0.154   3.457  10.506  0.2846 -0.3464 -0.2272
   20SAPC   C22 2581  -0.254   3.234  10.500 -0.2441  0.2647  0.1695
   20SAPC   H2R 2582  -0.231   3.134  10.544 -1.2792  0.2867  0.7987
   20SAPC   H2S 2583  -0.356   3.272  10.521 -0.1991  0.7637 -0.4931
   20SAPC    C3 2584   0.147   3.313  10.566  0.1152  0.6264  0.2835
   20SAPC    HX 2585   0.163   3.204  10.583 -1.0843  0.4216  0.1722
   20SAPC    HY 2586   0.242   3.354  10.606 -0.3341 -0.7690  3.0215
   20SAPC   O31 2587   0.125   3.356  10.430  0.4953  0.7226  0.4016
   20SAPC   C31 2588   0.172   3.278  10.336  0.8944 -0.4679  0.2636
   20SAPC   O32 2589   0.257   3.186  10.355  0.3820 -0.4454  0.6442
   20SAPC   C32 2590   0.124   3.319  10.201  0.1534 -0.7937 -0.6609
   20SAPC   H2X 2591   0.205   3.386  10.164  2.3702 -0.8650  3.4687
   20SAPC   H2Y 2592   0.025   3.368  10.208 -0.2081 -1.6906  0.9434
   20SAPC   C23 2593  -0.242   3.232  10.341  0.5830  0.2070  0.7803
   20SAPC   H3R 2594  -0.133   3.233  10.317  0.3813 -1.5732 -0.4363
   20SAPC   H3S 2595  -0.274   3.328  10.295 -2.0028 -0.5939  0.7480
   20SAPC   C24 2596  -0.298   3.111  10.263 -0.8660  0.3597 -0.1758
   20SAPC   H4R 2597  -0.294   3.124  10.153  1.5280 -1.9073 -0.4510
   20SAPC   H4S 2598  -0.407   3.098  10.285 -0.8210  1.4003  0.7735
   20SAPC   C25 2599  -0.234   2.978  10.288  0.0603  0.0063  0.6748
   20SAPC   H5R 2600  -0.219   2.953  10.394  2.6769  0.0090  0.3893
   20SAPC   C26 2601  -0.194   2.887  10.194 -0.2434 -0.0034  0.6535
   20SAPC   H6R 2602  -0.146   2.793  10.224 -1.8100 -0.3967  2.0793
   20SAPC   C27 2603  -0.208   2.906  10.042 -0.0179  0.1241  0.0256
   20SAPC   H7R 2604  -0.137   2.987  10.016  0.8567 -0.3334  0.8950
   20SAPC   H7S 2605  -0.313   2.936  10.024 -0.3907 -0.5373  0.9741
   20SAPC   C28 2606  -0.167   2.783   9.975  0.0936  0.5788  0.7498
   20SAPC   H8R 2607  -0.112   2.710  10.035  3.3684  2.0925 -0.1667
   20SAPC   C29 2608  -0.187   2.770   9.840  0.6433 -0.0111 -0.9466
   20SAPC   H9R 2609  -0.150   2.682   9.785  0.1082 -0.6200 -0.3564
   20SAPC  C210 2610  -0.252   2.876   9.758  0.3229 -0.4260 -0.3966
   20SAPC  H10R 2611  -0.246   2.977   9.804  1.7491 -1.2299  1.3063
   20SAPC  H10S 2612  -0.361   2.877   9.780  0.4431  1.1197  0.2150
   20SAPC  C211 2613  -0.236   2.891   9.608  0.3353  0.0136  0.3363
   20SAPC  H11R 2614  -0.162   2.826   9.560  0.2102  0.2492 -0.1773
   20SAPC  C212 2615  -0.317   2.978   9.536 -0.3952  0.0715  0.2132
   20SAPC  H12R 2616  -0.289   2.978   9.430  0.2901 -1.9371  0.3551
   20SAPC  C213 2617  -0.425   3.078   9.583  0.4110 -0.7143 -0.2060
   20SAPC  H13R 2618  -0.443   3.077   9.693 -1.6218 -1.3300 -0.5152
   20SAPC  H13S 2619  -0.523   3.052   9.538  0.0529  0.2681 -0.0188
   20SAPC  C214 2620  -0.402   3.217   9.529 -0.3783  0.4753  0.6084
   20SAPC  H14R 2621  -0.333   3.231   9.444 -3.0143  0.0902 -1.7619
   20SAPC  C215 2622  -0.461   3.333   9.568 -0.2525 -0.3501  1.1551
   20SAPC  H15R 2623  -0.429   3.422   9.512  1.7858 -2.8611 -2.0208
   20SAPC  C216 2624  -0.552   3.338   9.685  0.0783  0.5440  0.0878
   20SAPC  H16R 2625  -0.605   3.242   9.700  1.0759  0.0370  0.4247
   20SAPC  H16S 2626  -0.623   3.421   9.662  0.4907  0.9148  0.1386
   20SAPC  C217 2627  -0.472   3.374   9.816  0.1949  0.4454  0.2372
   20SAPC  H17R 2628  -0.435   3.477   9.801 -0.5341  0.8215  0.9317
   20SAPC  H17S 2629  -0.385   3.306   9.821 -1.2157 -1.3913  1.7165
   20SAPC  C218 2630  -0.553   3.373   9.946  0.3407  0.5857 -0.1232
   20SAPC  H18R 2631  -0.599   3.274   9.963 -1.2167  0.9372 -1.9649
   20SAPC  H18S 2632  -0.640   3.442   9.938  0.1008  0.3401  0.3539
   20SAPC  C219 2633  -0.469   3.420  10.068 -0.3433  0.1966  0.7726
   20SAPC  H19R 2634  -0.409   3.504  10.028 -0.3672  0.7216  1.7943
   20SAPC  H19S 2635  -0.388   3.347  10.087 -0.1326  0.3022  0.3014
   20SAPC  C220 2636  -0.543   3.457  10.200 -0.9096 -0.0390  0.5072
   20SAPC  H20R 2637  -0.632   3.392  10.214 -1.8394  0.1687 -3.4068
   20SAPC  H20S 2638  -0.579   3.562  10.202  0.8758  0.6056  1.2158
   20SAPC  H20T 2639  -0.480   3.446  10.292 -0.0855 -1.1778 -0.1641
   20SAPC   C33 2640   0.135   3.194  10.110 -0.0912 -0.2043 -0.7640
   20SAPC   H3X 2641   0.075   3.115  10.160  1.5196 -1.3166 -0.4984
   20SAPC   H3Y 2642   0.240   3.157  10.113 -0.6462 -1.8429  0.3112
   20SAPC   C34 2643   0.080   3.200   9.966  0.2490 -0.0243 -0.5000
   20SAPC   H4X 2644  -0.027   3.230   9.971  1.0996  3.3390  3.5549
   20SAPC   H4Y 2645   0.087   3.100   9.918  0.2393  1.2536 -3.3014
   20SAPC   C35 2646   0.148   3.307   9.877  0.4371 -0.1870 -0.0421
   20SAPC   H5X 2647   0.256   3.283   9.866  0.4854  0.9680 -3.0459
   20SAPC   H5Y 2648   0.145   3.407   9.926 -1.1228 -0.1519 -0.1635
   20SAPC   C36 2649   0.073   3.313   9.740 -0.9312 -0.2915  0.1943
   20SAPC   H6X 2650   0.121   3.386   9.672 -0.5149 -0.9059 -0.1826
   20SAPC   H6Y 2651  -0.022   3.366   9.765  0.4147  2.1064  0.5697
   20SAPC   C37 2652   0.034   3.179   9.677 -0.7234 -0.4608 -0.2727
   20SAPC   H7X 2653  -0.056   3.143   9.731 -0.8353 -0.5990 -0.5545
   20SAPC   H7Y 2654   0.114   3.102   9.682 -0.5608 -0.3320 -0.8728
   20SAPC   C38 2655  -0.011   3.176   9.526 -0.3223  0.1187 -0.4191
   20SAPC   H8X 2656  -0.117   3.204   9.505 -0.9073 -1.4295  0.3094
   20SAPC   H8Y 2657  -0.014   3.067   9.503  1.4983 -0.4379  1.6528
   20SAPC   C39 2658   0.075   3.256   9.431 -0.0525  0.5846 -0.3279
   20SAPC   H9X 2659   0.179   3.220   9.437 -0.4148 -0.3504  0.8228
   20SAPC   H9Y 2660   0.068   3.363   9.461 -1.2963  0.1366  1.1404
   20SAPC  C310 2661   0.030   3.244   9.287  0.2535 -0.5197 -0.3429
   20SAPC  H10X 2662  -0.075   3.280   9.276 -0.1596 -1.1965  1.1566
   20SAPC  H10Y 2663   0.030   3.138   9.254  1.7424 -0.0182 -2.0905
   20SAPC  C311 2664   0.118   3.336   9.194 -0.1257  0.3063 -0.2118
   20SAPC  H11X 2665   0.214   3.336   9.249 -1.1944  0.9320  1.7557
   20SAPC  H11Y 2666   0.088   3.442   9.206  1.6764  0.9357 -1.0581
   20SAPC  C312 2667   0.105   3.296   9.046 -0.2421 -0.2388 -0.0614
   20SAPC  H12X 2668   0.123   3.186   9.040 -0.6285 -0.4931  2.5366
   20SAPC  H12Y 2669   0.187   3.346   8.990  0.1278 -0.9209 -0.1481
   20SAPC  C313 2670  -0.023   3.340   8.973 -0.5905  0.0159 -0.3051
   20SAPC  H13X 2671  -0.043   3.447   8.994 -0.9710 -0.5637  2.7280
   20SAPC  H13Y 2672  -0.101   3.276   9.019  1.1876 -0.7906  1.7195
   20SAPC  C314 2673  -0.012   3.304   8.823  0.6742  0.2252 -0.6325
   20SAPC  H14X 2674  -0.100   3.333   8.763  0.5591 -0.4234 -0.7935
   20SAPC  H14Y 2675  -0.001   3.193   8.816  0.2086  0.2866 -3.4891
   20SAPC  C315 2676   0.110   3.354   8.746  0.4103  0.3226  0.3817
   20SAPC  H15X 2677   0.213   3.324   8.778  1.4152  0.6218 -2.3308
   20SAPC  H15Y 2678   0.104   3.464   8.759 -0.2771  0.4024 -0.5606
   20SAPC  C316 2679   0.091   3.320   8.597  0.0897  0.1959 -0.1374
   20SAPC  H16X 2680  -0.009   3.336   8.551  0.6609 -1.1505 -2.0022
   20SAPC  H16Y 2681   0.118   3.212   8.588  0.9846  0.5561 -2.8365
   20SAPC  C317 2682   0.182   3.408   8.511  0.1993  0.1561 -0.2292
   20SAPC  H17X 2683   0.289   3.390   8.536  1.0063  3.8231 -0.3711
   20SAPC  H17Y 2684   0.169   3.512   8.548  1.1647 -0.5312  2.2299
   20SAPC  C318 2685   0.143   3.386   8.364  0.7615  0.4938 -0.2807
   20SAPC  H18X 2686   0.046   3.436   8.347  0.2978 -0.4334 -0.4404
   20SAPC  H18Y 2687   0.140   3.276   8.346  1.0229  0.2640  0.9478
   20SAPC  H18Z 2688   0.210   3.440   8.295  0.3128  1.0858 -0.2580
   21SAPC     N 2689   5.220   3.996  11.123 -0.0887  0.2196 -0.7526
   21SAPC   C12 2690   5.261   3.925  10.996  0.6907  0.2679  0.4227
   21SAPC  H12A 2691   5.186   3.850  10.974  0.0235  0.8082  0.8375
   21SAPC  H12B 2692   5.353   3.869  11.011 -0.2207 -1.2083  0.6947
   21SAPC   C13 2693   5.086   4.072  11.097  0.2285  0.0883  0.3284
   21SAPC  H13A 2694   5.058   4.146  11.171 -1.3988 -0.1985  0.0331
   21SAPC  H13B 2695   5.102   4.124  11.004  0.1114  1.0752  0.8485
   21SAPC  H13C 2696   5.001   4.007  11.080  0.3936 -0.6774  2.1516
   21SAPC   C14 2697   5.184   3.889  11.227 -0.4984  0.5379 -0.2928
   21SAPC  H14A 2698   5.265   3.822  11.250 -0.5427  0.7550  0.5057
   21SAPC  H14B 2699   5.153   3.934  11.320 -0.6420 -0.8972  0.3850
   21SAPC  H14C 2700   5.095   3.830  11.209 -0.4055 -0.5098  2.2875
   21SAPC   C15 2701   5.325   4.097  11.168  0.1288 -0.0913  0.3712
   21SAPC  H15A 2702   5.422   4.062  11.203  1.3781  0.6466 -2.1358
   21SAPC  H15B 2703   5.348   4.156  11.081  1.6404  2.0347  2.1041
   21SAPC  H15C 2704   5.284   4.160  11.246 -0.6298 -1.3463  1.0167
   21SAPC   C11 2705   5.293   4.007  10.871 -0.0262  0.3853  0.3251
   21SAPC  H11A 2706   5.201   4.067  10.853 -1.5371 -1.6575  0.7287
   21SAPC  H11B 2707   5.311   3.937  10.787 -2.0585 -1.3244  1.2038
   21SAPC     P 2708   5.549   4.043  10.852  0.3587  0.5506 -0.0382
   21SAPC   O13 2709   5.656   4.143  10.879 -0.3433  0.0074  0.6874
   21SAPC   O14 2710   5.567   3.910  10.914 -0.3846  0.0728  0.8153
   21SAPC   O12 2711   5.404   4.099  10.886  0.5856 -0.0164 -0.0302
   21SAPC   O11 2712   5.561   4.022  10.697  0.0613  0.0649  0.2998
   21SAPC    C1 2713   5.500   4.110  10.608 -0.3932 -0.3234 -0.4011
   21SAPC    HA 2714   5.392   4.120  10.634  0.0521  0.1565  1.3963
   21SAPC    HB 2715   5.538   4.213  10.623 -0.9303  0.0681 -1.6650
   21SAPC    C2 2716   5.513   4.069  10.451 -0.6565  0.2755  0.0646
   21SAPC    HS 2717   5.420   4.100  10.400 -0.5582  0.6807  0.1305
   21SAPC   O21 2718   5.542   3.925  10.439  0.0555 -0.7512  0.1234
   21SAPC   C21 2719   5.439   3.851  10.483 -0.3011 -0.0124 -0.4214
   21SAPC   O22 2720   5.328   3.890  10.506  0.0247 -0.2441  0.1430
   21SAPC   C22 2721   5.480   3.707  10.471 -0.4665  0.3895  0.2429
   21SAPC   H2R 2722   5.538   3.698  10.376  2.1344 -0.9349  1.8339
   21SAPC   H2S 2723   5.557   3.696  10.550 -0.7972  0.2983  0.5540
   21SAPC    C3 2724   5.631   4.151  10.382 -0.6055  0.3467 -0.7848
   21SAPC    HX 2725   5.721   4.131  10.444 -2.9394  1.4510  3.3469
   21SAPC    HY 2726   5.616   4.260  10.400 -1.3912  0.1663 -0.2716
   21SAPC   O31 2727   5.630   4.120  10.242 -0.5302 -0.4088 -0.2328
   21SAPC   C31 2728   5.708   4.031  10.192 -0.1352 -0.0369 -0.3816
   21SAPC   O32 2729   5.779   3.957  10.254 -0.1345 -0.0539 -0.2556
   21SAPC   C32 2730   5.687   4.022  10.041 -0.3842  0.1776 -0.6237
   21SAPC   H2X 2731   5.715   4.123  10.004  0.5027  0.5595  0.9967
   21SAPC   H2Y 2732   5.580   4.012  10.011 -0.8605  2.3057  0.2006
   21SAPC   C23 2733   5.372   3.603  10.510 -0.0125  0.5903  0.2805
   21SAPC   H3R 2734   5.303   3.640  10.589  0.4225  1.8727  0.0807
   21SAPC   H3S 2735   5.425   3.522  10.565 -0.5228  1.7861  2.6812
   21SAPC   C24 2736   5.298   3.554  10.380  0.2998  0.1200 -0.2979
   21SAPC   H4R 2737   5.258   3.645  10.330 -2.3255 -1.0064 -0.3848
   21SAPC   H4S 2738   5.197   3.510  10.394 -1.1589  3.4302  0.6761
   21SAPC   C25 2739   5.372   3.471  10.285 -0.0568 -0.4581  0.4915
   21SAPC   H5R 2740   5.434   3.394  10.333 -1.3592 -0.3214  2.5181
   21SAPC   C26 2741   5.364   3.481  10.145 -0.4649  0.5283 -0.7143
   21SAPC   H6R 2742   5.424   3.407  10.090 -0.1837  0.7793 -0.7451
   21SAPC   C27 2743   5.284   3.584  10.068  0.1941  0.1442  0.1877
   21SAPC   H7R 2744   5.337   3.680  10.051  0.0622  0.2436  0.3320
   21SAPC   H7S 2745   5.193   3.611  10.125 -0.9876  1.1173 -2.0301
   21SAPC   C28 2746   5.246   3.524   9.938  0.1936 -0.2794 -0.0801
   21SAPC   H8R 2747   5.168   3.446   9.939 -2.0141  1.6790 -3.2431
   21SAPC   C29 2748   5.300   3.541   9.810 -0.2645  0.3149 -0.5557
   21SAPC   H9R 2749   5.274   3.469   9.731  0.6176  0.4485 -0.9900
   21SAPC  C210 2750   5.412   3.635   9.774 -0.0239  0.0479  0.4544
   21SAPC  H10R 2751   5.505   3.588   9.736 -0.2321 -0.3900  0.4857
   21SAPC  H10S 2752   5.441   3.708   9.852 -0.4836 -1.2111  1.8474
   21SAPC  C211 2753   5.361   3.733   9.664  0.2596 -0.3755 -0.2494
   21SAPC  H11R 2754   5.307   3.821   9.701  1.4905  0.0530  0.5777
   21SAPC  C212 2755   5.374   3.729   9.529 -0.5612 -0.5255  1.1726
   21SAPC  H12R 2756   5.312   3.800   9.474  1.2762  1.2705  1.2964
   21SAPC  C213 2757   5.452   3.625   9.438  0.3820  0.0457  0.7964
   21SAPC  H13R 2758   5.525   3.569   9.499  0.4747 -1.1868 -0.4008
   21SAPC  H13S 2759   5.498   3.688   9.359 -2.9384  0.3501 -1.1031
   21SAPC  C214 2760   5.362   3.521   9.374  0.2969 -0.0891  0.2066
   21SAPC  H14R 2761   5.288   3.476   9.443  0.8767  1.8757  2.2466
   21SAPC  C215 2762   5.364   3.468   9.251 -0.3548  0.1446  0.1538
   21SAPC  H15R 2763   5.279   3.404   9.222  0.6605 -1.0825 -0.1992
   21SAPC  C216 2764   5.465   3.507   9.145  0.1086  0.0844 -0.5487
   21SAPC  H16R 2765   5.537   3.427   9.120  1.4344  1.3318 -0.8768
   21SAPC  H16S 2766   5.536   3.589   9.171  1.3816 -0.2501 -2.8103
   21SAPC  C217 2767   5.398   3.543   9.009  0.7082  0.1979  0.0992
   21SAPC  H17R 2768   5.317   3.473   8.979 -1.4426  2.5251  0.1925
   21SAPC  H17S 2769   5.481   3.530   8.936 -0.1284 -1.2818 -0.6362
   21SAPC  C218 2770   5.360   3.694   8.995 -0.0338 -0.5710  0.1948
   21SAPC  H18R 2771   5.354   3.720   8.887 -1.3154  0.1471  0.4299
   21SAPC  H18S 2772   5.436   3.760   9.042  1.3080 -0.2176 -2.2450
   21SAPC  C219 2773   5.225   3.718   9.058  0.4252 -0.4696 -0.2532
   21SAPC  H19R 2774   5.208   3.827   9.072 -0.5069 -0.4886 -1.1642
   21SAPC  H19S 2775   5.238   3.675   9.160 -1.7707 -1.0711 -0.1873
   21SAPC  C220 2776   5.099   3.674   8.980 -0.3401 -0.0087  0.3889
   21SAPC  H20R 2777   5.116   3.699   8.873 -1.2586  1.0960  0.4701
   21SAPC  H20S 2778   5.008   3.723   9.023 -0.5767 -0.9780  1.0298
   21SAPC  H20T 2779   5.085   3.564   8.989 -0.1837 -0.3713 -2.7103
   21SAPC   C33 2780   5.788   3.921   9.978  0.4791  0.0698  0.2350
   21SAPC   H3X 2781   5.805   3.833  10.043  0.2260  0.7653  1.2781
   21SAPC   H3Y 2782   5.881   3.981   9.976 -0.0733  0.9350 -0.6035
   21SAPC   C34 2783   5.760   3.875   9.834 -0.5183  0.8624  0.2662
   21SAPC   H4X 2784   5.654   3.840   9.837 -1.4294  3.3310 -0.1806
   21SAPC   H4Y 2785   5.828   3.791   9.813  0.9022  2.3375 -1.3155
   21SAPC   C35 2786   5.787   3.972   9.718  0.1086 -0.2942  0.6047
   21SAPC   H5X 2787   5.895   3.989   9.699 -0.3815 -0.0432 -2.4024
   21SAPC   H5Y 2788   5.745   4.071   9.742 -0.2328  0.5555 -3.0258
   21SAPC   C36 2789   5.728   3.926   9.589 -0.3275 -0.4921 -0.0367
   21SAPC   H6X 2790   5.664   4.007   9.548 -1.0370 -0.7135  0.6221
   21SAPC   H6Y 2791   5.671   3.831   9.599  2.2808 -2.0663  0.9095
   21SAPC   C37 2792   5.834   3.894   9.473 -0.3865 -0.6611 -0.0722
   21SAPC   H7X 2793   5.883   3.798   9.501 -1.2523 -0.4141  2.5949
   21SAPC   H7Y 2794   5.912   3.973   9.475  1.4446 -2.2575 -2.6911
   21SAPC   C38 2795   5.767   3.887   9.332  0.1403  0.4186 -0.1139
   21SAPC   H8X 2796   5.779   3.991   9.295  1.2703  0.7937  1.2128
   21SAPC   H8Y 2797   5.657   3.873   9.340  0.0451  1.0486 -0.2962
   21SAPC   C39 2798   5.841   3.803   9.218 -0.0600  0.0508  0.0764
   21SAPC   H9X 2799   5.833   3.700   9.259  1.0923  0.0956  0.4707
   21SAPC   H9Y 2800   5.949   3.829   9.223 -0.9144  4.0190  1.2126
   21SAPC  C310 2801   5.776   3.815   9.080  0.2197 -0.6722 -0.3893
   21SAPC  H10X 2802   5.777   3.920   9.041  0.6371 -0.8117 -0.7700
   21SAPC  H10Y 2803   5.671   3.780   9.088 -1.0818  2.8510 -0.1373
   21SAPC  C311 2804   5.847   3.724   8.976 -0.5014 -0.9020 -0.1781
   21SAPC  H11X 2805   5.841   3.623   9.023  0.2493  0.0675  2.1253
   21SAPC  H11Y 2806   5.954   3.751   8.969 -1.0570  1.7251  0.4317
   21SAPC  C312 2807   5.784   3.717   8.836 -0.0348 -0.3968 -0.0216
   21SAPC  H12X 2808   5.675   3.731   8.856  0.1157 -1.0639  1.4293
   21SAPC  H12Y 2809   5.801   3.613   8.801  0.2114 -0.7055  0.9693
   21SAPC  C313 2810   5.848   3.813   8.737 -0.0808 -0.3176  0.3215
   21SAPC  H13X 2811   5.956   3.786   8.736 -0.0403 -0.2146 -1.8514
   21SAPC  H13Y 2812   5.849   3.920   8.768  0.3858 -0.3504  0.4281
   21SAPC  C314 2813   5.785   3.820   8.597 -0.5552  0.2893  0.1431
   21SAPC  H14X 2814   5.675   3.838   8.593 -0.6591 -0.4715 -1.5219
   21SAPC  H14Y 2815   5.807   3.723   8.546  1.0838  1.2836 -1.1191
   21SAPC  C315 2816   5.850   3.920   8.501  0.4696 -0.5061  0.1271
   21SAPC  H15X 2817   5.959   3.902   8.493  0.5805 -0.0392  0.5438
   21SAPC  H15Y 2818   5.831   4.019   8.548 -2.6976 -1.0734  0.2788
   21SAPC  C316 2819   5.784   3.920   8.359 -0.0055 -0.1702  0.0286
   21SAPC  H16X 2820   5.676   3.928   8.382 -0.0961 -1.8916  0.3751
   21SAPC  H16Y 2821   5.792   3.814   8.327  0.2424  0.1820 -1.1266
   21SAPC  C317 2822   5.812   4.028   8.257 -0.3337  0.7598 -0.1331
   21SAPC  H17X 2823   5.905   4.010   8.199 -0.5741  1.5930 -0.7963
   21SAPC  H17Y 2824   5.812   4.125   8.312 -1.3130  0.2919  0.7307
   21SAPC  C318 2825   5.703   4.033   8.149  0.2454 -0.1380 -0.8754
   21SAPC  H18X 2826   5.687   3.927   8.117 -0.1794 -0.5401  0.6143
   21SAPC  H18Y 2827   5.737   4.097   8.064 -2.5128 -1.0479 -2.8339
   21SAPC  H18Z 2828   5.615   4.083   8.193  0.3550  0.4101 -1.2774
   22SAPC     N 2829   2.865   5.506  11.112  0.4073  0.7815  0.6590
   22SAPC   C12 2830   3.013   5.523  11.124 -0.4108  0.0023 -0.1889
   22SAPC  H12A 2831   3.066   5.439  11.081  3.2072  1.8677  0.2334
   22SAPC  H12B 2832   3.042   5.516  11.228 -1.0000  1.1691  0.0723
   22SAPC   C13 2833   2.814   5.413  11.223 -0.0990 -0.1314 -0.3204
   22SAPC  H13A 2834   2.825   5.466  11.317  1.2736 -1.2989  0.2035
   22SAPC  H13B 2835   2.709   5.394  11.205 -0.4543  1.2736  0.1625
   22SAPC  H13C 2836   2.864   5.318  11.225 -1.3663 -0.8079  0.5250
   22SAPC   C14 2837   2.787   5.634  11.136  0.0721  0.4180 -0.1556
   22SAPC  H14A 2838   2.810   5.709  11.061 -0.0652  0.7930  0.1704
   22SAPC  H14B 2839   2.682   5.609  11.131  0.5187 -1.5095 -0.5886
   22SAPC  H14C 2840   2.827   5.669  11.230  0.2691  0.7549 -0.3621
   22SAPC   C15 2841   2.826   5.465  10.976 -0.7397  0.4387  1.1737
   22SAPC  H15A 2842   2.724   5.430  10.971  0.0114 -1.7927 -0.3056
   22SAPC  H15B 2843   2.858   5.533  10.898 -4.4726 -0.4187 -1.3922
   22SAPC  H15C 2844   2.868   5.374  10.935 -3.1563 -0.4977  0.5765
   22SAPC   C11 2845   3.080   5.648  11.067 -0.0781  0.9972 -0.2369
   22SAPC  H11A 2846   3.055   5.738  11.127  1.9761  0.4385  1.6166
   22SAPC  H11B 2847   3.051   5.654  10.960 -3.6993 -1.3509  0.4655
   22SAPC     P 2848   3.304   5.532  10.990 -0.0915  0.3415 -0.1820
   22SAPC   O13 2849   3.416   5.472  11.072  0.2710 -0.3196 -0.1642
   22SAPC   O14 2850   3.213   5.445  10.916 -0.4776 -0.1798 -0.2671
   22SAPC   O12 2851   3.224   5.627  11.089  0.4863  0.8465 -0.4338
   22SAPC   O11 2852   3.353   5.642  10.881  0.0273 -0.4760  0.5862
   22SAPC    C1 2853   3.469   5.607  10.804 -0.1531 -0.1359  1.0531
   22SAPC    HA 2854   3.563   5.643  10.852  0.3194 -1.5452  1.2192
   22SAPC    HB 2855   3.481   5.499  10.782 -1.2444  0.3592 -2.7051
   22SAPC    C2 2856   3.474   5.684  10.665  0.3559  0.1460 -0.2120
   22SAPC    HS 2857   3.488   5.791  10.689  0.9345  0.1713 -0.6497
   22SAPC   O21 2858   3.346   5.665  10.602 -0.3553 -0.4496  0.3029
   22SAPC   C21 2859   3.309   5.757  10.520 -0.8733  0.1406 -0.5842
   22SAPC   O22 2860   3.362   5.872  10.511 -0.1819  0.8134  0.1794
   22SAPC   C22 2861   3.189   5.706  10.431  0.9079 -0.6314 -0.8416
   22SAPC   H2R 2862   3.103   5.686  10.498  1.8582  0.0687  0.6616
   22SAPC   H2S 2863   3.167   5.787  10.359 -2.3689 -0.8583 -0.2346
   22SAPC    C3 2864   3.597   5.645  10.587  0.1128 -0.1603  0.1422
   22SAPC    HX 2865   3.599   5.535  10.577 -0.5548 -0.0820 -1.0542
   22SAPC    HY 2866   3.696   5.664  10.633  0.4729 -0.3125 -0.5524
   22SAPC   O31 2867   3.588   5.696  10.450  0.1673  0.4868 -0.1129
   22SAPC   C31 2868   3.618   5.821  10.426  0.3292  0.4699 -1.8338
   22SAPC   O32 2869   3.659   5.897  10.511 -0.2583 -0.0975  0.3522
   22SAPC   C32 2870   3.600   5.853  10.277 -0.2149  0.1354 -0.2797
   22SAPC   H2X 2871   3.643   5.954  10.261 -2.0489  0.6173 -2.8555
   22SAPC   H2Y 2872   3.493   5.838  10.251 -0.3104 -0.6792  0.5289
   22SAPC   C23 2873   3.216   5.581  10.345 -0.3096  1.1909  0.2000
   22SAPC   H3R 2874   3.119   5.558  10.296 -0.5482  3.4116 -0.4765
   22SAPC   H3S 2875   3.246   5.495  10.408  1.0213  1.6258  0.1876
   22SAPC   C24 2876   3.321   5.602  10.232 -0.0629 -0.0063 -0.6321
   22SAPC   H4R 2877   3.418   5.608  10.286 -0.0502  0.6621 -0.7139
   22SAPC   H4S 2878   3.300   5.705  10.195  1.7802  0.9571  0.8069
   22SAPC   C25 2879   3.317   5.496  10.131  0.3025  0.0881  0.0252
   22SAPC   H5R 2880   3.379   5.408  10.151  0.6889  0.6023  1.2346
   22SAPC   C26 2881   3.269   5.502  10.002 -0.2309 -0.5573  0.1690
   22SAPC   H6R 2882   3.265   5.409   9.944  0.7838 -0.5469  0.0794
   22SAPC   C27 2883   3.200   5.620   9.939  0.2387  0.5234  0.3480
   22SAPC   H7R 2884   3.137   5.662  10.020  1.6878  0.9679  1.2787
   22SAPC   H7S 2885   3.120   5.587   9.870 -0.8245  1.2687  1.1825
   22SAPC   C28 2886   3.286   5.728   9.885  0.1383  0.4845 -0.1051
   22SAPC   H8R 2887   3.324   5.790   9.968  0.9275 -2.5812  2.0066
   22SAPC   C29 2888   3.311   5.769   9.763 -0.5010 -0.6390  0.3235
   22SAPC   H9R 2889   3.370   5.862   9.752  1.1622 -1.4996  1.5559
   22SAPC  C210 2890   3.256   5.699   9.640 -0.3009 -0.6701  0.1536
   22SAPC  H10R 2891   3.145   5.695   9.643 -0.3412  0.4045  1.7066
   22SAPC  H10S 2892   3.285   5.592   9.644  1.2120 -0.3576 -1.4254
   22SAPC  C211 2893   3.292   5.752   9.507 -0.0101 -0.0205 -0.0632
   22SAPC  H11R 2894   3.356   5.841   9.500 -0.3052  0.2587  0.7445
   22SAPC  C212 2895   3.247   5.708   9.389  0.3789 -0.7402  0.4495
   22SAPC  H12R 2896   3.297   5.747   9.300 -1.3365 -2.8954 -1.6118
   22SAPC  C213 2897   3.150   5.593   9.364  0.7533  0.5023 -0.4116
   22SAPC  H13R 2898   3.045   5.626   9.355  0.8367  1.4371  1.6788
   22SAPC  H13S 2899   3.146   5.534   9.457 -0.2148  1.2145  0.0114
   22SAPC  C214 2900   3.186   5.508   9.239  0.7784  0.2986  0.0195
   22SAPC  H14R 2901   3.200   5.401   9.264 -1.1038 -0.2863 -1.2638
   22SAPC  C215 2902   3.210   5.545   9.113 -0.3751  0.5120  0.0511
   22SAPC  H15R 2903   3.242   5.472   9.038 -0.6031  0.1279  0.3244
   22SAPC  C216 2904   3.209   5.676   9.039 -0.0558  0.1888  0.1909
   22SAPC  H16R 2905   3.313   5.706   9.017 -0.4616  0.5049 -1.4605
   22SAPC  H16S 2906   3.166   5.760   9.097 -0.0335  2.2133 -2.5430
   22SAPC  C217 2907   3.131   5.675   8.901 -0.5516  0.5597  0.3439
   22SAPC  H17R 2908   3.029   5.635   8.921 -0.0734 -1.6322 -1.2103
   22SAPC  H17S 2909   3.163   5.593   8.833 -0.8598  0.4808  0.2885
   22SAPC  C218 2910   3.132   5.800   8.827 -0.0953 -0.4663 -0.3599
   22SAPC  H18R 2911   3.239   5.829   8.812  0.1692 -1.6806 -1.0378
   22SAPC  H18S 2912   3.086   5.876   8.892 -2.1797  0.4192 -2.7012
   22SAPC  C219 2913   3.062   5.794   8.690  0.3335 -0.0388 -0.4819
   22SAPC  H19R 2914   2.952   5.793   8.706 -0.1960 -2.1413 -3.3741
   22SAPC  H19S 2915   3.106   5.703   8.644  1.5292  0.7267 -0.8902
   22SAPC  C220 2916   3.103   5.919   8.605 -0.3106  0.2153  0.1893
   22SAPC  H20R 2917   3.033   5.922   8.518 -0.4461 -0.2405  0.2827
   22SAPC  H20S 2918   3.208   5.913   8.571 -0.1290 -0.0525  0.7943
   22SAPC  H20T 2919   3.087   6.016   8.656  0.8970  0.7332 -0.3725
   22SAPC   C33 2920   3.684   5.757  10.200  0.2975  1.0337 -0.2630
   22SAPC   H3X 2921   3.632   5.660  10.215 -0.4676  1.4887  0.1303
   22SAPC   H3Y 2922   3.791   5.754  10.227 -0.1794  0.2481  1.7905
   22SAPC   C34 2923   3.667   5.799  10.054  0.0978  0.0989  0.4020
   22SAPC   H4X 2924   3.709   5.902  10.058 -1.1262  0.6797 -0.7159
   22SAPC   H4Y 2925   3.561   5.799  10.022  0.5458  0.6513 -1.2057
   22SAPC   C35 2926   3.756   5.707   9.967 -0.0384 -0.0605 -0.6916
   22SAPC   H5X 2927   3.851   5.705  10.025 -0.1872  0.6240 -0.4181
   22SAPC   H5Y 2928   3.781   5.759   9.872  2.8873  1.0944  0.5683
   22SAPC   C36 2929   3.724   5.553   9.946 -0.0868  0.4532  0.7820
   22SAPC   H6X 2930   3.670   5.510  10.033  1.5399 -1.3785  0.9605
   22SAPC   H6Y 2931   3.813   5.493   9.918 -2.1225 -1.9317 -1.0458
   22SAPC   C37 2932   3.626   5.540   9.827 -0.2521  0.1469 -0.6244
   22SAPC   H7X 2933   3.557   5.625   9.813 -1.1100 -0.0265  2.0066
   22SAPC   H7Y 2934   3.572   5.443   9.831  1.1211 -0.8843 -3.5585
   22SAPC   C38 2935   3.688   5.516   9.690 -0.4265  0.5524 -0.2234
   22SAPC   H8X 2936   3.752   5.428   9.709 -1.9747 -0.4949  0.3820
   22SAPC   H8Y 2937   3.765   5.593   9.668  1.7164 -1.4800 -0.2665
   22SAPC   C39 2938   3.595   5.496   9.566 -0.0028 -0.4057  0.6865
   22SAPC   H9X 2939   3.535   5.590   9.562  1.4709  0.5980 -3.6872
   22SAPC   H9Y 2940   3.518   5.417   9.579 -0.7114 -0.0476 -1.0288
   22SAPC  C310 2941   3.673   5.465   9.440 -0.6134  1.0345 -0.8682
   22SAPC  H10X 2942   3.711   5.361   9.446  0.0710  1.3134  4.1316
   22SAPC  H10Y 2943   3.768   5.523   9.429  0.8114 -1.3090 -1.5138
   22SAPC  C311 2944   3.590   5.476   9.311 -0.4745 -0.1143  0.5778
   22SAPC  H11X 2945   3.483   5.459   9.333 -0.6808  1.1668  0.6234
   22SAPC  H11Y 2946   3.632   5.399   9.242 -1.5124 -0.6801  0.5652
   22SAPC  C312 2947   3.604   5.606   9.233  0.3143 -0.2290  0.9279
   22SAPC  H12X 2948   3.706   5.643   9.257  0.6848 -0.9153  0.4453
   22SAPC  H12Y 2949   3.527   5.673   9.276  0.4763  0.3079  0.4024
   22SAPC  C313 2950   3.590   5.604   9.078  0.7992  0.2613 -0.5533
   22SAPC  H13X 2951   3.489   5.578   9.041  0.9392  2.5835 -2.8538
   22SAPC  H13Y 2952   3.662   5.529   9.039 -1.1015 -2.6849  1.2662
   22SAPC  C314 2953   3.616   5.743   9.027 -0.3294  0.6662  0.5919
   22SAPC  H14X 2954   3.720   5.769   9.054 -0.6368  2.6014  0.1180
   22SAPC  H14Y 2955   3.539   5.815   9.063 -3.6036 -0.4999 -3.2469
   22SAPC  C315 2956   3.619   5.745   8.871 -0.5279  0.3871 -0.2544
   22SAPC  H15X 2957   3.519   5.731   8.824 -0.9349  1.6481  0.2030
   22SAPC  H15Y 2958   3.684   5.665   8.829 -0.6055  0.5832 -0.7530
   22SAPC  C316 2959   3.666   5.883   8.830  0.6065 -0.2975 -0.0148
   22SAPC  H16X 2960   3.769   5.889   8.870  0.4544 -1.2567  0.5558
   22SAPC  H16Y 2961   3.606   5.962   8.880  1.1108 -0.1446  0.3590
   22SAPC  C317 2962   3.672   5.913   8.684 -0.7673 -0.1043 -0.6825
   22SAPC  H17X 2963   3.571   5.921   8.638 -2.7016 -1.2415  3.0015
   22SAPC  H17Y 2964   3.706   5.819   8.635 -0.8428 -0.8178  0.5926
   22SAPC  C318 2965   3.763   6.035   8.660  0.2208 -0.0225 -0.1558
   22SAPC  H18X 2966   3.783   6.028   8.550 -0.5272 -0.0642 -0.2970
   22SAPC  H18Y 2967   3.860   6.014   8.709 -0.5571 -0.9296  1.0417
   22SAPC  H18Z 2968   3.717   6.132   8.687 -0.2335 -0.2341 -0.1618
   23SAPC     N 2969   5.988   3.224  11.121  0.0618 -0.0800 -0.0179
   23SAPC   C12 2970   5.954   3.149  10.999  0.0486  0.0217  0.3193
   23SAPC  H12A 2971   5.869   3.200  10.956 -1.4530 -1.5342  1.3072
   23SAPC  H12B 2972   5.906   3.056  11.027  1.2875 -0.4987  0.7846
   23SAPC   C13 2973   6.052   3.352  11.099  0.1926 -0.1592 -0.6696
   23SAPC  H13A 2974   6.070   3.389  11.199  3.5199 -1.0790 -0.8268
   23SAPC  H13B 2975   6.140   3.348  11.038  1.0289 -0.4357  0.5087
   23SAPC  H13C 2976   5.979   3.422  11.060  0.3448 -1.0672 -2.7110
   23SAPC   C14 2977   5.863   3.241  11.204  0.0460  0.8905  0.3439
   23SAPC  H14A 2978   5.807   3.151  11.186 -1.3790  1.6278  0.8847
   23SAPC  H14B 2979   5.883   3.253  11.310 -0.6552 -0.5509  0.6580
   23SAPC  H14C 2980   5.806   3.324  11.164  0.8012  0.3964 -1.8647
   23SAPC   C15 2981   6.078   3.127  11.199  0.0483  1.3253  0.2735
   23SAPC  H15A 2982   6.011   3.051  11.236  2.4758 -1.2137 -0.2033
   23SAPC  H15B 2983   6.152   3.078  11.138 -0.3980 -0.0273  0.7860
   23SAPC  H15C 2984   6.120   3.177  11.286 -1.9095 -1.5967  3.1487
   23SAPC   C11 2985   6.055   3.128  10.893  0.0691  0.3345 -0.1671
   23SAPC  H11A 2986   6.089   3.232  10.871 -0.8107  1.3736  2.8851
   23SAPC  H11B 2987   6.004   3.079  10.808  0.6380 -1.6138  0.5654
   23SAPC     P 2988   6.145   2.882  10.916 -0.0638 -0.4167  0.1320
   23SAPC   O13 2989   6.236   2.797  10.994 -0.1315 -1.1435 -0.1841
   23SAPC   O14 2990   6.001   2.848  10.927  0.1062 -0.4206  0.2160
   23SAPC   O12 2991   6.165   3.042  10.940 -0.0949  0.2962  0.6807
   23SAPC   O11 2992   6.189   2.860  10.766  0.8621  0.1444  0.3218
   23SAPC    C1 2993   6.283   2.948  10.704 -0.2168  0.1089  0.3020
   23SAPC    HA 2994   6.232   3.046  10.691 -2.9688 -1.3085 -0.3278
   23SAPC    HB 2995   6.373   2.966  10.767 -0.6461 -0.6432  1.1603
   23SAPC    C2 2996   6.324   2.893  10.563  0.1532  0.2692  0.8067
   23SAPC    HS 2997   6.399   2.961  10.517  0.9788 -0.1882  1.4276
   23SAPC   O21 2998   6.204   2.881  10.473 -0.1539  0.3837 -0.6296
   23SAPC   C21 2999   6.165   2.995  10.420  0.1036  0.2269 -0.7628
   23SAPC   O22 3000   6.214   3.102  10.446 -0.3481  0.3371 -0.1098
   23SAPC   C22 3001   6.047   2.957  10.323 -1.0031 -0.2077  1.0607
   23SAPC   H2R 3002   6.049   2.848  10.303  1.2297  0.1025 -0.9578
   23SAPC   H2S 3003   5.949   2.975  10.372 -2.0860 -2.3809 -0.1589
   23SAPC    C3 3004   6.388   2.749  10.569 -0.4398 -0.4100 -0.0877
   23SAPC    HX 3005   6.307   2.694  10.621 -1.9460  0.8856 -0.9593
   23SAPC    HY 3006   6.485   2.751  10.622  0.3929  0.0379 -1.5474
   23SAPC   O31 3007   6.412   2.689  10.441 -0.2463  0.2651  0.3252
   23SAPC   C31 3008   6.424   2.559  10.438 -0.2417 -0.0012 -0.4572
   23SAPC   O32 3009   6.424   2.484  10.534 -0.2772  0.1580 -0.5779
   23SAPC   C32 3010   6.432   2.507  10.292 -0.8009 -0.3477  0.3053
   23SAPC   H2X 3011   6.521   2.567  10.264  0.5905 -1.2623  2.4708
   23SAPC   H2Y 3012   6.345   2.553  10.240  0.6608  1.4117 -0.6702
   23SAPC   C23 3013   6.033   3.033  10.193  0.1682 -0.1822 -0.0201
   23SAPC   H3R 3014   6.021   3.142  10.207 -0.7015 -0.1254 -1.0796
   23SAPC   H3S 3015   5.934   3.008  10.148  0.1704 -0.9569  0.3754
   23SAPC   C24 3016   6.154   3.018  10.093  0.3135  0.2114  1.1180
   23SAPC   H4R 3017   6.244   3.068  10.136  0.4766  2.2024 -1.3016
   23SAPC   H4S 3018   6.123   3.084  10.009 -1.0555 -1.7902 -0.0294
   23SAPC   C25 3019   6.172   2.875  10.044 -0.2982 -0.6015 -0.1840
   23SAPC   H5R 3020   6.217   2.814  10.124 -0.5045 -1.7180 -0.8948
   23SAPC   C26 3021   6.129   2.814   9.933 -0.5872  0.5876  0.1570
   23SAPC   H6R 3022   6.164   2.710   9.921  0.0378  0.6580  1.1587
   23SAPC   C27 3023   6.047   2.869   9.815 -0.2932  0.0556  0.3671
   23SAPC   H7R 3024   6.114   2.849   9.729 -0.6751 -3.4378  0.7372
   23SAPC   H7S 3025   6.022   2.974   9.838 -0.1817  0.1185  0.1974
   23SAPC   C28 3026   5.921   2.790   9.797  0.5675 -0.4833 -0.6650
   23SAPC   H8R 3027   5.883   2.738   9.886 -0.2160  1.7130  0.3683
   23SAPC   C29 3028   5.844   2.781   9.683 -0.0122 -0.4163 -0.3264
   23SAPC   H9R 3029   5.749   2.725   9.687 -0.3894  0.1683 -0.8765
   23SAPC  C210 3030   5.870   2.841   9.549 -0.2401 -0.7763  0.1926
   23SAPC  H10R 3031   5.952   2.911   9.578 -2.0622  1.7948 -0.5483
   23SAPC  H10S 3032   5.800   2.920   9.516  0.2242 -1.0881 -1.6364
   23SAPC  C211 3033   5.907   2.751   9.439 -0.6322  0.6456 -0.8660
   23SAPC  H11R 3034   5.974   2.668   9.466  0.4416  0.9759 -2.3852
   23SAPC  C212 3035   5.872   2.763   9.310  0.0891  0.1308 -0.1433
   23SAPC  H12R 3036   5.911   2.693   9.234  1.5685 -0.4645  1.1067
   23SAPC  C213 3037   5.780   2.870   9.252  0.3893 -0.6043  0.3085
   23SAPC  H13R 3038   5.730   2.925   9.335  0.2236  0.4687 -0.4920
   23SAPC  H13S 3039   5.693   2.817   9.208 -0.0740  0.3726  0.0132
   23SAPC  C214 3040   5.850   2.961   9.162  0.5784  0.2506  0.9279
   23SAPC  H14R 3041   5.955   2.984   9.186  0.9703 -0.9248  0.4267
   23SAPC  C215 3042   5.796   3.016   9.052 -0.4513 -0.0606 -0.2556
   23SAPC  H15R 3043   5.854   3.092   8.997 -2.0905  1.5349  0.1018
   23SAPC  C216 3044   5.656   2.999   9.007  0.2945 -0.5972  1.2337
   23SAPC  H16R 3045   5.625   3.095   8.961  2.2235 -0.2432  0.5591
   23SAPC  H16S 3046   5.583   2.970   9.086 -2.3785  3.1380  0.3994
   23SAPC  C217 3047   5.633   2.902   8.882 -0.0225 -0.1942 -0.1755
   23SAPC  H17R 3048   5.691   2.926   8.791  0.4775 -1.8947 -0.3411
   23SAPC  H17S 3049   5.526   2.913   8.856 -0.2535 -1.2032  0.2839
   23SAPC  C218 3050   5.654   2.757   8.909 -0.6080 -0.0008  0.4458
   23SAPC  H18R 3051   5.596   2.725   8.999 -1.1992 -2.1925 -0.6317
   23SAPC  H18S 3052   5.760   2.740   8.937 -0.2667 -0.8434 -1.2435
   23SAPC  C219 3053   5.599   2.662   8.798 -0.6364  0.4993  0.1589
   23SAPC  H19R 3054   5.654   2.696   8.708 -1.3781  2.6639  0.4598
   23SAPC  H19S 3055   5.493   2.688   8.778 -0.9424  0.1350  1.2130
   23SAPC  C220 3056   5.614   2.517   8.836  0.9044  0.0175  0.0831
   23SAPC  H20R 3057   5.527   2.489   8.900  1.5999 -1.8643  0.2888
   23SAPC  H20S 3058   5.694   2.514   8.913 -0.9673  1.7724  2.2339
   23SAPC  H20T 3059   5.629   2.455   8.745 -0.2113 -0.3513  0.1322
   23SAPC   C33 3060   6.459   2.352  10.261  0.5657 -0.1760  0.4162
   23SAPC   H3X 3061   6.369   2.295  10.291  1.7303 -1.2408  2.1419
   23SAPC   H3Y 3062   6.531   2.323  10.341 -1.7418 -1.2540  2.2221
   23SAPC   C34 3063   6.509   2.324  10.120 -0.7602  0.3048  0.0733
   23SAPC   H4X 3064   6.528   2.214  10.118 -0.1762  0.2995  2.3962
   23SAPC   H4Y 3065   6.605   2.377  10.104 -1.0012  0.5930 -0.4355
   23SAPC   C35 3066   6.400   2.365  10.016 -0.5959  0.6620  0.6309
   23SAPC   H5X 3067   6.383   2.474  10.000  1.5914  0.9521 -0.0400
   23SAPC   H5Y 3068   6.301   2.324  10.045  0.4084 -2.1120  0.4422
   23SAPC   C36 3069   6.430   2.311   9.872 -0.4822 -0.0388  0.2909
   23SAPC   H6X 3070   6.362   2.228   9.842  0.8421 -1.1188  0.1181
   23SAPC   H6Y 3071   6.522   2.248   9.877  0.2381  0.9089 -0.4089
   23SAPC   C37 3072   6.454   2.415   9.760  0.0225  0.4016 -1.1188
   23SAPC   H7X 3073   6.541   2.477   9.790  1.5072 -2.0885  0.1464
   23SAPC   H7Y 3074   6.359   2.470   9.749 -0.4931  0.1963  1.6861
   23SAPC   C38 3075   6.484   2.347   9.628  0.6558  0.2483 -0.1844
   23SAPC   H8X 3076   6.394   2.290   9.597  2.3779 -2.7510 -0.0192
   23SAPC   H8Y 3077   6.562   2.271   9.647  0.9049  0.1814 -1.3704
   23SAPC   C39 3078   6.511   2.445   9.508  0.5538 -0.3291 -0.4662
   23SAPC   H9X 3079   6.583   2.528   9.524 -1.1247  1.0872 -0.0408
   23SAPC   H9Y 3080   6.414   2.494   9.483 -0.4634 -2.6338 -1.3179
   23SAPC  C310 3081   6.561   2.368   9.388  0.4648 -0.8855  0.0994
   23SAPC  H10X 3082   6.488   2.291   9.356 -0.6295  1.2451 -2.9888
   23SAPC  H10Y 3083   6.647   2.307   9.424 -0.1674 -1.8291  0.0095
   23SAPC  C311 3084   6.614   2.453   9.280  0.0244  0.2479  1.2919
   23SAPC  H11X 3085   6.703   2.515   9.304  1.4985 -1.1921 -0.0679
   23SAPC  H11Y 3086   6.531   2.512   9.237  1.2205 -0.2843 -2.1169
   23SAPC  C312 3087   6.673   2.376   9.154  0.2075  0.0143  0.1743
   23SAPC  H12X 3088   6.590   2.307   9.128 -0.2083  0.1114  1.1964
   23SAPC  H12Y 3089   6.753   2.305   9.183 -0.2798 -0.1852  1.0675
   23SAPC  C313 3090   6.713   2.478   9.038 -0.2425 -0.3518 -0.9554
   23SAPC  H13X 3091   6.815   2.516   9.059 -0.6080 -0.0311  0.3007
   23SAPC  H13Y 3092   6.642   2.564   9.037 -0.5855 -0.5419  1.2965
   23SAPC  C314 3093   6.736   2.416   8.897 -0.2223 -0.6526 -0.4593
   23SAPC  H14X 3094   6.770   2.488   8.820  0.5326 -1.2663 -0.7149
   23SAPC  H14Y 3095   6.636   2.391   8.857 -0.6574  2.7288 -1.8440
   23SAPC  C315 3096   6.823   2.285   8.891 -0.1384 -0.7150  0.4023
   23SAPC  H15X 3097   6.777   2.212   8.961 -1.4682 -0.5441 -0.2568
   23SAPC  H15Y 3098   6.928   2.302   8.924 -0.7216  0.3123  1.8394
   23SAPC  C316 3099   6.837   2.232   8.747 -0.0642  0.0753 -0.8369
   23SAPC  H16X 3100   6.899   2.301   8.686  0.2432  0.0779 -0.5182
   23SAPC  H16Y 3101   6.740   2.240   8.692 -0.4170  2.4933  0.0299
   23SAPC  C317 3102   6.885   2.086   8.737  0.5473 -0.4176  0.0516
   23SAPC  H17X 3103   6.807   2.019   8.780  0.3321  0.2158  0.6587
   23SAPC  H17Y 3104   6.977   2.063   8.796 -0.2582 -2.4869  0.5966
   23SAPC  C318 3105   6.936   2.054   8.596 -0.5170 -0.1384  0.6509
   23SAPC  H18X 3106   6.937   1.944   8.582  0.4225 -0.1459  0.6724
   23SAPC  H18Y 3107   7.032   2.108   8.578 -1.3710  1.0218 -0.6779
   23SAPC  H18Z 3108   6.861   2.087   8.521 -1.8624 -0.2708  1.9036
   24SAPC     N 3109   3.164   1.857  11.154 -0.5307 -0.4947  0.3285
   24SAPC   C12 3110   3.254   1.781  11.059  0.6945 -0.7421 -0.5682
   24SAPC  H12A 3111   3.223   1.679  11.074 -1.6812  0.1029  0.7893
   24SAPC  H12B 3112   3.357   1.782  11.090  0.8677 -3.6477 -0.7248
   24SAPC   C13 3113   3.019   1.849  11.113 -0.3659 -0.2305 -0.3689
   24SAPC  H13A 3114   2.997   1.883  11.013 -2.6572  0.1635  0.2143
   24SAPC  H13B 3115   2.978   1.749  11.110 -1.1989  0.1165 -2.4932
   24SAPC  H13C 3116   2.972   1.918  11.182  0.4953  1.0838 -1.0673
   24SAPC   C14 3117   3.184   1.800  11.291  0.0409  0.1653 -0.1789
   24SAPC  H14A 3118   3.136   1.871  11.357 -1.8190 -0.6727 -0.5759
   24SAPC  H14B 3119   3.152   1.699  11.308  1.8390 -0.4012  0.0325
   24SAPC  H14C 3120   3.288   1.798  11.320 -0.2277  0.6282  0.8608
   24SAPC   C15 3121   3.190   1.999  11.160 -0.0339 -0.5597  0.5446
   24SAPC  H15A 3122   3.197   2.043  11.062  1.7813 -0.5892  0.6251
   24SAPC  H15B 3123   3.115   2.046  11.221 -0.5292  0.8198 -1.0539
   24SAPC  H15C 3124   3.289   2.017  11.200 -0.7082 -0.2766  2.1684
   24SAPC   C11 3125   3.254   1.830  10.910 -0.4159  0.4669 -0.0991
   24SAPC  H11A 3126   3.150   1.855  10.880  0.3085  3.2363 -0.6154
   24SAPC  H11B 3127   3.280   1.746  10.842 -1.1368  0.0193  0.1759
   24SAPC     P 3128   3.489   1.930  10.908  0.0180  0.2734  0.5226
   24SAPC   O13 3129   3.555   2.029  10.822  0.0023 -0.3920  0.0890
   24SAPC   O14 3130   3.521   1.928  11.047  0.3192  0.3190 -0.8356
   24SAPC   O12 3131   3.337   1.949  10.887  0.0402  0.0368 -0.4480
   24SAPC   O11 3132   3.516   1.790  10.851 -0.1338 -0.3327 -0.2386
   24SAPC    C1 3133   3.639   1.749  10.798 -0.3154  0.4603  0.0310
   24SAPC    HA 3134   3.653   1.776  10.691  0.4191 -0.5747 -0.1597
   24SAPC    HB 3135   3.718   1.797  10.859 -2.4074  0.7678  2.6636
   24SAPC    C2 3136   3.644   1.596  10.810  0.2707  0.4058 -0.1405
   24SAPC    HS 3137   3.603   1.571  10.910 -1.4086  0.2502 -0.8351
   24SAPC   O21 3138   3.774   1.553  10.777  0.3697  0.2715  0.2262
   24SAPC   C21 3139   3.846   1.491  10.863 -0.6743  0.7688 -0.1937
   24SAPC   O22 3140   3.808   1.460  10.974 -0.0766 -0.0770  0.3180
   24SAPC   C22 3141   3.985   1.469  10.804  0.0729  0.0473 -0.7038
   24SAPC   H2R 3142   3.991   1.531  10.712 -1.6928  2.1930  0.5509
   24SAPC   H2S 3143   4.065   1.511  10.870  1.0161 -0.1864 -1.6596
   24SAPC    C3 3144   3.548   1.530  10.708 -0.0765  0.0819 -0.3269
   24SAPC    HX 3145   3.448   1.577  10.723  0.0114 -0.5847  3.0877
   24SAPC    HY 3146   3.545   1.422  10.734  0.8603  0.1087 -0.0853
   24SAPC   O31 3147   3.597   1.538  10.572 -0.5521  0.0957  0.3926
   24SAPC   C31 3148   3.510   1.512  10.482 -0.0379  0.2799 -0.3393
   24SAPC   O32 3149   3.389   1.477  10.499  0.1232  0.1947 -0.5022
   24SAPC   C32 3150   3.577   1.536  10.345  0.0942  0.2617  0.0489
   24SAPC   H2X 3151   3.684   1.513  10.361  0.4828  1.7212 -0.2848
   24SAPC   H2Y 3152   3.558   1.645  10.329  2.1040  0.7131  0.4513
   24SAPC   C23 3153   4.031   1.325  10.766  0.6036  0.2068  0.6341
   24SAPC   H3R 3154   3.963   1.255  10.819  2.7915 -1.8501  0.9554
   24SAPC   H3S 3155   4.132   1.315  10.813  0.6003  2.4067  1.2104
   24SAPC   C24 3156   4.037   1.286  10.620  0.4216  0.1218 -0.7015
   24SAPC   H4R 3157   3.939   1.312  10.573 -0.0525  1.1251  0.7599
   24SAPC   H4S 3158   4.058   1.180  10.595  2.7558  0.4093 -0.1769
   24SAPC   C25 3159   4.143   1.366  10.556  0.3198 -0.6752  0.0277
   24SAPC   H5R 3160   4.228   1.389  10.623 -0.4103  0.2113  0.6898
   24SAPC   C26 3161   4.144   1.388  10.423 -1.2815  0.3106 -0.3658
   24SAPC   H6R 3162   4.232   1.434  10.375 -1.8010  1.9545  0.1910
   24SAPC   C27 3163   4.049   1.316  10.329 -0.0313  0.0597  0.2448
   24SAPC   H7R 3164   3.961   1.384  10.318  0.8528  1.3663  1.0813
   24SAPC   H7S 3165   4.028   1.210  10.354  1.0735 -1.6876 -5.0004
   24SAPC   C28 3166   4.093   1.312  10.186 -0.9548  1.1410 -0.6832
   24SAPC   H8R 3167   4.136   1.215  10.154  0.3638  0.9411  1.5164
   24SAPC   C29 3168   4.104   1.408  10.094 -0.0695 -0.1312  0.1725
   24SAPC   H9R 3169   4.146   1.393   9.994 -1.1065  1.5576 -0.5470
   24SAPC  C210 3170   4.072   1.552  10.118  0.0170 -0.2763  0.1925
   24SAPC  H10R 3171   4.076   1.576  10.227 -3.5055 -0.3803  0.4684
   24SAPC  H10S 3172   3.962   1.560  10.104 -0.4298 -0.2609  3.0061
   24SAPC  C211 3173   4.149   1.659  10.040 -0.7751 -0.1314 -0.8943
   24SAPC  H11R 3174   4.258   1.657  10.053 -0.6704  0.6139 -1.5855
   24SAPC  C212 3175   4.113   1.767   9.968 -0.1094 -0.1935  0.1895
   24SAPC  H12R 3176   4.183   1.827   9.907 -1.3480  0.7198 -0.3760
   24SAPC  C213 3177   3.969   1.808   9.942  0.5415  0.1303 -0.2314
   24SAPC  H13R 3178   3.925   1.863  10.028  0.2076 -0.5357  0.0303
   24SAPC  H13S 3179   3.906   1.717   9.936 -0.8293  1.0387 -0.1183
   24SAPC  C214 3180   3.959   1.884   9.815  0.0074 -0.4803  0.1785
   24SAPC  H14R 3181   3.936   1.828   9.723 -0.2503 -1.3414  0.7578
   24SAPC  C215 3182   3.983   2.013   9.798 -0.4253  0.3578  0.3422
   24SAPC  H15R 3183   3.964   2.055   9.698 -0.9753 -2.7155 -0.9432
   24SAPC  C216 3184   4.017   2.107   9.912 -0.7413  0.1665  0.3681
   24SAPC  H16R 3185   4.096   2.173   9.870  0.2495  0.6724  2.8514
   24SAPC  H16S 3186   4.070   2.046   9.988 -0.4785  0.9517  0.8226
   24SAPC  C217 3187   3.914   2.185   9.993  0.1796  0.4457  0.4332
   24SAPC  H17R 3188   3.840   2.118  10.042  0.9024  0.2085  1.2378
   24SAPC  H17S 3189   3.875   2.267   9.929  1.2990  2.5127  2.2594
   24SAPC  C218 3190   3.990   2.256  10.100 -0.0121 -0.0575  0.2229
   24SAPC  H18R 3191   4.074   2.311  10.052 -1.0484  0.5371 -0.9682
   24SAPC  H18S 3192   4.020   2.184  10.180  0.8465 -0.2085 -0.2281
   24SAPC  C219 3193   3.898   2.349  10.190 -0.7345  0.3888  0.6115
   24SAPC  H19R 3194   3.824   2.399  10.124 -2.5948 -0.7436  1.7341
   24SAPC  H19S 3195   3.969   2.424  10.229  2.3827 -1.1321 -1.6343
   24SAPC  C220 3196   3.827   2.274  10.306 -0.2376 -0.4381 -0.3486
   24SAPC  H20R 3197   3.901   2.222  10.371 -0.2162 -0.6661 -0.5529
   24SAPC  H20S 3198   3.745   2.206  10.275 -2.9101  2.4600 -0.1863
   24SAPC  H20T 3199   3.777   2.352  10.368 -0.9129 -0.6740 -0.5842
   24SAPC   C33 3200   3.509   1.460  10.232 -0.5090  0.9535 -0.3840
   24SAPC   H3X 3201   3.403   1.492  10.231 -1.6306 -2.2724  0.8079
   24SAPC   H3Y 3202   3.506   1.351  10.256 -0.4109  0.5406 -2.1544
   24SAPC   C34 3203   3.569   1.496  10.096 -0.3733 -0.3647 -0.1499
   24SAPC   H4X 3204   3.608   1.599  10.076  1.0776 -1.0570 -1.1040
   24SAPC   H4Y 3205   3.485   1.491  10.024  1.1969 -0.9918 -2.0505
   24SAPC   C35 3206   3.676   1.404  10.033  0.0715 -0.0396  0.1178
   24SAPC   H5X 3207   3.655   1.297  10.053 -2.0312  0.8380  3.2888
   24SAPC   H5Y 3208   3.779   1.431  10.065  0.6096 -1.2407 -0.5306
   24SAPC   C36 3209   3.686   1.429   9.875 -0.0671  0.4010  0.0014
   24SAPC   H6X 3210   3.685   1.538   9.854 -0.3503  0.1067 -1.6730
   24SAPC   H6Y 3211   3.601   1.393   9.814 -1.2685  0.1269  1.7558
   24SAPC   C37 3212   3.801   1.361   9.804 -0.1512 -0.3040  0.2596
   24SAPC   H7X 3213   3.798   1.250   9.803  0.9481 -0.3597 -1.3699
   24SAPC   H7Y 3214   3.894   1.388   9.858 -0.1138 -0.7250  0.4077
   24SAPC   C38 3215   3.812   1.417   9.658 -0.7849 -0.9720 -0.2131
   24SAPC   H8X 3216   3.712   1.409   9.610 -1.1745 -2.5169  0.7949
   24SAPC   H8Y 3217   3.867   1.347   9.591  0.6491  1.1114 -1.3062
   24SAPC   C39 3218   3.883   1.555   9.659 -0.1931  0.3104  0.5199
   24SAPC   H9X 3219   3.988   1.531   9.686  0.1024  1.1736  0.1872
   24SAPC   H9Y 3220   3.845   1.629   9.733  0.6210 -0.0784  1.3487
   24SAPC  C310 3221   3.882   1.639   9.533  0.5819  0.6511  0.0883
   24SAPC  H10X 3222   3.972   1.602   9.479  0.3308 -0.5016  0.4395
   24SAPC  H10Y 3223   3.880   1.745   9.567 -0.6269  0.5935  0.2554
   24SAPC  C311 3224   3.762   1.606   9.435  0.0870  0.1200  0.1565
   24SAPC  H11X 3225   3.668   1.604   9.494 -0.4356 -5.4354 -0.3225
   24SAPC  H11Y 3226   3.780   1.499   9.411  2.7362  0.3965  0.5866
   24SAPC  C312 3227   3.759   1.677   9.301  0.0321  0.4517  0.2455
   24SAPC  H12X 3228   3.719   1.780   9.314 -0.4237  0.7323 -2.6278
   24SAPC  H12Y 3229   3.691   1.621   9.233  2.4786 -1.6861 -0.5911
   24SAPC  C313 3230   3.904   1.690   9.237 -0.2275 -0.8541 -0.4832
   24SAPC  H13X 3231   3.947   1.589   9.220 -0.6468 -1.2486  0.6901
   24SAPC  H13Y 3232   3.952   1.762   9.307 -1.5185 -0.9531  0.5498
   24SAPC  C314 3233   3.885   1.764   9.102  0.1993  0.6311 -0.2899
   24SAPC  H14X 3234   3.795   1.828   9.115 -1.1083 -1.3908  1.2212
   24SAPC  H14Y 3235   3.862   1.703   9.012  0.9219  1.2759 -0.9210
   24SAPC  C315 3236   4.003   1.860   9.072 -0.3073 -0.1458  0.9335
   24SAPC  H15X 3237   4.088   1.799   9.035 -0.6636 -0.3506  0.4460
   24SAPC  H15Y 3238   4.032   1.897   9.173 -0.2327 -0.3564  0.9910
   24SAPC  C316 3239   3.969   1.968   8.968  0.0631 -0.4340 -0.1130
   24SAPC  H16X 3240   3.889   2.035   9.007  0.0194 -1.8756  2.4321
   24SAPC  H16Y 3241   3.922   1.915   8.882  1.7316 -0.4027 -1.0958
   24SAPC  C317 3242   4.080   2.066   8.929 -1.0360 -0.1682 -0.4339
   24SAPC  H17X 3243   4.164   2.012   8.881 -1.4930 -0.4723 -0.9095
   24SAPC  H17Y 3244   4.108   2.115   9.025 -2.6188  0.4756 -0.2664
   24SAPC  C318 3245   4.029   2.181   8.828 -0.0880  0.5147 -0.7067
   24SAPC  H18X 3246   4.029   2.142   8.724  0.0077 -1.3524 -0.0437
   24SAPC  H18Y 3247   4.102   2.265   8.831 -0.6921  1.0251 -0.1258
   24SAPC  H18Z 3248   3.923   2.206   8.845  0.2916  2.0326 -0.3834
   25SAPC     N 3249   1.478   6.064   6.025 -0.1967 -0.4004 -0.2096
   25SAPC   C12 3250   1.416   5.954   5.934 -0.5557  0.0494 -0.6857
   25SAPC  H12A 3251   1.498   5.888   5.908 -1.3486 -0.9541 -0.7134
   25SAPC  H12B 3252   1.372   5.997   5.846 -1.4020  1.2300  0.2914
   25SAPC   C13 3253   1.371   6.157   6.068 -0.1021 -0.6859 -0.1988
   25SAPC  H13A 3254   1.327   6.190   5.975 -1.7538 -0.3679  0.6528
   25SAPC  H13B 3255   1.297   6.115   6.134  1.3810  1.9683  3.4686
   25SAPC  H13C 3256   1.414   6.239   6.124 -0.1420  0.8186 -2.2537
   25SAPC   C14 3257   1.538   6.008   6.146  0.6075  0.0393 -0.2332
   25SAPC  H14A 3258   1.592   6.076   6.210 -0.1402 -0.0060  0.4606
   25SAPC  H14B 3259   1.456   5.965   6.201 -0.3391  0.8085 -0.9962
   25SAPC  H14C 3260   1.592   5.918   6.119 -3.1665 -2.1603 -1.2343
   25SAPC   C15 3261   1.585   6.122   5.938 -0.7735 -0.3524 -0.1324
   25SAPC  H15A 3262   1.647   6.045   5.895 -2.2242 -1.1549 -0.8491
   25SAPC  H15B 3263   1.546   6.194   5.867  2.0522  3.4205  1.7619
   25SAPC  H15C 3264   1.646   6.188   5.998  0.1383 -1.5654  0.3110
   25SAPC   C11 3265   1.296   5.879   5.983 -0.6250  0.5103  0.3645
   25SAPC  H11A 3266   1.281   5.801   5.906 -1.0991  0.6870  0.2728
   25SAPC  H11B 3267   1.208   5.945   5.967 -1.0129 -0.0191  0.2824
   25SAPC     P 3268   1.184   5.725   6.146 -0.1143  0.1718  0.3121
   25SAPC   O13 3269   1.072   5.748   6.053  0.2066  0.4053 -0.1069
   25SAPC   O14 3270   1.225   5.581   6.163  0.0781  0.4683  0.4698
   25SAPC   O12 3271   1.309   5.818   6.107  0.1519 -0.0943  0.3129
   25SAPC   O11 3272   1.142   5.784   6.280  1.1191 -0.3271  0.0987
   25SAPC    C1 3273   1.214   5.881   6.354  0.7263 -0.0318  0.2556
   25SAPC    HA 3274   1.317   5.848   6.377  1.3124  1.6016  0.0607
   25SAPC    HB 3275   1.213   5.983   6.310  2.3138 -0.0950  0.0268
   25SAPC    C2 3276   1.147   5.901   6.497 -0.7804 -0.4330 -0.0666
   25SAPC    HS 3277   1.044   5.936   6.479  0.2949  2.3781 -1.3518
   25SAPC   O21 3278   1.218   6.003   6.580  0.5145 -0.5104 -0.2165
   25SAPC   C21 3279   1.182   6.132   6.549 -0.1596  0.7367 -0.5247
   25SAPC   O22 3280   1.096   6.164   6.467 -1.3052  0.2793 -0.2240
   25SAPC   C22 3281   1.278   6.221   6.628 -0.5709 -0.7667  0.8189
   25SAPC   H2R 3282   1.321   6.168   6.716  2.4916  0.1954  0.0008
   25SAPC   H2S 3283   1.364   6.245   6.562 -0.7514 -0.7923  0.5737
   25SAPC    C3 3284   1.138   5.766   6.580 -0.3285  0.3845 -0.2547
   25SAPC    HX 3285   1.220   5.693   6.558 -0.0995  0.4784  0.2876
   25SAPC    HY 3286   1.045   5.718   6.544 -0.4219 -0.3013  0.8586
   25SAPC   O31 3287   1.106   5.797   6.717 -0.3106 -0.0548  0.1451
   25SAPC   C31 3288   1.200   5.757   6.808  1.4365 -0.0748  0.0109
   25SAPC   O32 3289   1.305   5.714   6.775  0.5481 -1.0686  0.3973
   25SAPC   C32 3290   1.145   5.793   6.946 -0.6875 -0.0379 -0.1809
   25SAPC   H2X 3291   1.035   5.780   6.931 -0.7152  1.2285 -1.2336
   25SAPC   H2Y 3292   1.161   5.901   6.962  1.2941 -0.5799  2.0224
   25SAPC   C23 3293   1.223   6.350   6.679  0.0539 -0.6958 -0.3566
   25SAPC   H3R 3294   1.177   6.415   6.602 -1.1648 -2.2699 -1.0313
   25SAPC   H3S 3295   1.299   6.419   6.721 -0.2415 -0.0973 -0.7890
   25SAPC   C24 3296   1.118   6.335   6.789  0.5202  0.3390  0.3024
   25SAPC   H4R 3297   1.144   6.249   6.855 -0.2129 -0.6343 -0.6399
   25SAPC   H4S 3298   1.030   6.295   6.735  1.7360  0.1161 -1.6167
   25SAPC   C25 3299   1.085   6.450   6.878  0.3332  0.0537  0.4048
   25SAPC   H5R 3300   1.010   6.507   6.821 -1.2318 -1.9581  0.3412
   25SAPC   C26 3301   1.141   6.503   6.987 -0.3792  0.1116  0.0685
   25SAPC   H6R 3302   1.121   6.607   7.017 -0.2931 -0.1936  1.2428
   25SAPC   C27 3303   1.271   6.447   7.045  0.2566  0.0347 -0.1338
   25SAPC   H7R 3304   1.358   6.516   7.029  1.0020 -0.8294  0.0979
   25SAPC   H7S 3305   1.305   6.344   7.021  1.3887 -0.3769  2.8386
   25SAPC   C28 3306   1.233   6.437   7.189  0.1474 -0.5310 -0.5961
   25SAPC   H8R 3307   1.126   6.426   7.215  0.5485 -0.7434  1.1411
   25SAPC   C29 3308   1.325   6.455   7.291  0.5255  0.5123  0.4289
   25SAPC   H9R 3309   1.295   6.439   7.396 -2.3618  2.2657 -0.0035
   25SAPC  C210 3310   1.470   6.493   7.281  0.4901  0.0571  0.9551
   25SAPC  H10R 3311   1.486   6.589   7.334 -3.5707  0.8362  1.1461
   25SAPC  H10S 3312   1.497   6.514   7.175  0.1859 -0.5249  0.7529
   25SAPC  C211 3313   1.552   6.375   7.322 -0.3577  0.4094  0.2510
   25SAPC  H11R 3314   1.590   6.313   7.239 -0.8331  1.9574 -1.1986
   25SAPC  C212 3315   1.590   6.342   7.448 -0.0138  0.2158 -0.1200
   25SAPC  H12R 3316   1.645   6.248   7.464 -0.3258  0.2694  1.3700
   25SAPC  C213 3317   1.558   6.425   7.567  0.2761  0.1857  0.0047
   25SAPC  H13R 3318   1.519   6.527   7.546 -2.3246 -0.6215  0.5217
   25SAPC  H13S 3319   1.652   6.446   7.622  0.6814 -0.5270 -0.3968
   25SAPC  C214 3320   1.451   6.357   7.655 -0.5782 -0.1968  0.4377
   25SAPC  H14R 3321   1.375   6.292   7.609 -1.9040  1.2808  0.4894
   25SAPC  C215 3322   1.436   6.392   7.789 -1.0107 -0.4258 -0.1701
   25SAPC  H15R 3323   1.351   6.356   7.849  0.1142  1.3521  2.7213
   25SAPC  C216 3324   1.511   6.495   7.876  0.1472  0.0124  0.3910
   25SAPC  H16R 3325   1.446   6.585   7.878 -0.7931 -0.6619  1.2945
   25SAPC  H16S 3326   1.614   6.511   7.838  0.3176  0.2533  0.9388
   25SAPC  C217 3327   1.516   6.440   8.013  0.1156  0.1078 -0.0574
   25SAPC  H17R 3328   1.569   6.342   8.019  0.2731  0.2044  0.1412
   25SAPC  H17S 3329   1.409   6.420   8.038 -0.7326  1.1638 -2.4628
   25SAPC  C218 3330   1.593   6.538   8.101 -0.2656  0.4548  0.2722
   25SAPC  H18R 3331   1.552   6.638   8.077 -1.1896 -0.4489 -2.2508
   25SAPC  H18S 3332   1.698   6.534   8.064 -0.4016  2.9102 -0.5504
   25SAPC  C219 3333   1.596   6.515   8.249 -0.2448 -0.3481 -1.0465
   25SAPC  H19R 3334   1.661   6.599   8.282  1.9618 -1.1133 -3.1379
   25SAPC  H19S 3335   1.649   6.421   8.274 -1.3541 -0.7984 -0.3051
   25SAPC  C220 3336   1.464   6.518   8.325 -0.4004 -0.1921  0.0834
   25SAPC  H20R 3337   1.434   6.620   8.359 -2.2403 -0.4488 -0.6747
   25SAPC  H20S 3338   1.477   6.448   8.411 -0.7134 -1.7010 -1.0694
   25SAPC  H20T 3339   1.374   6.497   8.264  0.2954  2.9386 -2.3140
   25SAPC   C33 3340   1.199   5.690   7.049 -0.1990  0.2625 -0.0803
   25SAPC   H3X 3341   1.237   5.749   7.135  1.2197  0.5520 -0.8798
   25SAPC   H3Y 3342   1.285   5.638   7.002  0.7985  0.3111  1.6159
   25SAPC   C34 3343   1.096   5.580   7.079  0.1102 -0.2333 -0.0337
   25SAPC   H4X 3344   1.160   5.500   7.123  0.8840  0.9297  1.0287
   25SAPC   H4Y 3345   1.042   5.557   6.985 -0.6379  0.3173  0.2516
   25SAPC   C35 3346   0.991   5.628   7.180 -0.7568  0.1611 -0.2396
   25SAPC   H5X 3347   0.917   5.548   7.203 -0.8455  0.4198  0.3921
   25SAPC   H5Y 3348   0.932   5.708   7.131 -0.8647 -0.3355 -0.9374
   25SAPC   C36 3349   1.053   5.672   7.307  0.3727  0.0339 -0.1924
   25SAPC   H6X 3350   1.131   5.750   7.300  0.8730 -0.5206 -0.9387
   25SAPC   H6Y 3351   1.095   5.581   7.355  0.7958 -0.4012 -1.3584
   25SAPC   C37 3352   0.952   5.742   7.401  0.8345 -0.2705  0.0135
   25SAPC   H7X 3353   0.859   5.681   7.411  0.6761  0.3057  2.7272
   25SAPC   H7Y 3354   0.927   5.838   7.352 -1.8248 -1.0576 -0.3834
   25SAPC   C38 3355   1.012   5.765   7.542 -0.4730  0.2439 -0.1341
   25SAPC   H8X 3356   1.105   5.826   7.543 -0.6397  0.4942  0.3033
   25SAPC   H8Y 3357   1.042   5.664   7.580 -0.4800  0.9734  1.9431
   25SAPC   C39 3358   0.905   5.817   7.641 -0.6871  0.4689  0.1146
   25SAPC   H9X 3359   0.812   5.756   7.636  1.5962 -3.5787  1.5898
   25SAPC   H9Y 3360   0.869   5.916   7.608  2.3607  1.7547  0.3133
   25SAPC  C310 3361   0.968   5.835   7.784 -0.0347  0.5477 -0.1682
   25SAPC  H10X 3362   1.070   5.878   7.784 -0.2452  1.0563  0.2714
   25SAPC  H10Y 3363   0.987   5.732   7.821  2.0270  1.4472  1.4850
   25SAPC  C311 3364   0.884   5.928   7.873 -0.2592 -0.2826 -0.3684
   25SAPC  H11X 3365   0.777   5.898   7.866 -0.6598  1.2705 -1.5175
   25SAPC  H11Y 3366   0.880   6.028   7.825 -2.0036 -0.9739 -1.8084
   25SAPC  C312 3367   0.938   5.944   8.013 -0.5324 -0.3912 -0.2655
   25SAPC  H12X 3368   0.855   5.989   8.071 -1.5256  2.4409 -3.5118
   25SAPC  H12Y 3369   1.029   6.006   7.997 -1.3157  0.5817 -1.1239
   25SAPC  C313 3370   0.993   5.810   8.080  0.7385 -0.1062  0.3452
   25SAPC  H13X 3371   1.037   5.847   8.175 -0.7724 -1.9954  1.8837
   25SAPC  H13Y 3372   1.081   5.772   8.024 -0.3092 -0.5388 -1.0745
   25SAPC  C314 3373   0.899   5.686   8.092  0.0457  0.0114  0.0274
   25SAPC  H14X 3374   0.888   5.647   7.988  0.7256  0.5301 -0.2456
   25SAPC  H14Y 3375   0.799   5.707   8.137  0.8667  0.9676  1.4699
   25SAPC  C315 3376   0.978   5.575   8.156 -0.2676  0.3329  0.2886
   25SAPC  H15X 3377   1.068   5.564   8.091 -0.4042  1.0719 -0.0350
   25SAPC  H15Y 3378   0.912   5.486   8.149 -0.5339  0.5565 -0.0717
   25SAPC  C316 3379   1.019   5.595   8.307 -0.2076  0.1328 -0.4121
   25SAPC  H16X 3380   0.928   5.615   8.368  1.2733  1.6083  1.4291
   25SAPC  H16Y 3381   1.085   5.683   8.314 -1.6325  1.1806  0.5196
   25SAPC  C317 3382   1.080   5.464   8.370  0.7169  1.2825 -0.4949
   25SAPC  H17X 3383   1.147   5.414   8.297 -1.6197  0.7012 -2.3568
   25SAPC  H17Y 3384   0.994   5.395   8.384  0.6842 -0.0512 -5.3210
   25SAPC  C318 3385   1.164   5.482   8.496  0.4698 -0.6333  0.0162
   25SAPC  H18X 3386   1.120   5.563   8.558  0.8636 -0.2146 -0.2381
   25SAPC  H18Y 3387   1.266   5.521   8.476  0.7815 -0.9527  0.9074
   25SAPC  H18Z 3388   1.172   5.388   8.555  1.1124 -1.6388 -1.6151
   26SAPC     N 3389   0.701   0.930   5.900  0.3900 -0.0131  0.6032
   26SAPC   C12 3390   0.645   0.921   6.047  0.1958 -0.5568  0.3911
   26SAPC  H12A 3391   0.570   0.844   6.057  0.3986 -0.6016  1.7159
   26SAPC  H12B 3392   0.589   1.012   6.064  1.6576  0.8981 -1.9328
   26SAPC   C13 3393   0.776   0.800   5.874 -0.0296  0.4863 -0.5413
   26SAPC  H13A 3394   0.800   0.801   5.768 -1.6913  1.4066 -0.9446
   26SAPC  H13B 3395   0.861   0.788   5.938  1.1375 -1.6480 -2.3538
   26SAPC  H13C 3396   0.705   0.721   5.897  0.3313  0.6710  1.3165
   26SAPC   C14 3397   0.596   0.930   5.804  0.3207  0.3219  0.7235
   26SAPC  H14A 3398   0.536   1.019   5.809  0.6088  0.8111 -2.5115
   26SAPC  H14B 3399   0.634   0.925   5.703  0.8997 -0.1699  0.9560
   26SAPC  H14C 3400   0.530   0.845   5.801 -0.8121  1.1450  1.7268
   26SAPC   C15 3401   0.788   1.047   5.880 -1.1621 -0.2026 -0.4256
   26SAPC  H15A 3402   0.870   1.056   5.949 -0.5817  0.2688 -1.1535
   26SAPC  H15B 3403   0.823   1.068   5.779 -1.3781  0.4132 -0.3745
   26SAPC  H15C 3404   0.737   1.141   5.894 -0.2867  0.2072  0.0562
   26SAPC   C11 3405   0.739   0.898   6.161 -0.2577  0.1639  0.3450
   26SAPC  H11A 3406   0.794   0.802   6.151 -1.1248 -0.3061  0.0288
   26SAPC  H11B 3407   0.689   0.904   6.260 -0.0252  0.3652  0.4520
   26SAPC     P 3408   0.818   1.132   6.228  0.0342  0.1813 -0.1835
   26SAPC   O13 3409   0.953   1.207   6.242  0.4539  0.2836 -0.4344
   26SAPC   O14 3410   0.706   1.209   6.174 -0.2454 -0.4428 -0.1044
   26SAPC   O12 3411   0.841   1.000   6.152 -0.0426  0.0090 -0.0419
   26SAPC   O11 3412   0.771   1.091   6.372 -0.4392  0.1191  0.0882
   26SAPC    C1 3413   0.873   1.063   6.473  0.6537 -0.2037  0.6636
   26SAPC    HA 3414   0.974   1.059   6.429  0.3908  1.1064 -0.0946
   26SAPC    HB 3415   0.875   1.140   6.553 -1.0557  0.7548 -0.1610
   26SAPC    C2 3416   0.860   0.924   6.555 -0.2293  0.0542  0.5537
   26SAPC    HS 3417   0.829   0.849   6.478 -1.5297 -0.4336  1.5033
   26SAPC   O21 3418   0.759   0.940   6.662  0.5134  0.4987 -0.1128
   26SAPC   C21 3419   0.708   0.830   6.707 -0.6565  0.5371  0.3055
   26SAPC   O22 3420   0.734   0.715   6.664  0.5070 -0.7440 -0.1445
   26SAPC   C22 3421   0.607   0.857   6.818  0.1094 -0.4624 -0.3839
   26SAPC   H2R 3422   0.653   0.872   6.918  0.4439  2.3104 -0.8914
   26SAPC   H2S 3423   0.546   0.943   6.783  0.3604 -0.0157  0.2472
   26SAPC    C3 3424   0.999   0.888   6.622 -0.9968 -0.0888  0.1334
   26SAPC    HX 3425   1.064   0.895   6.532 -0.9036  0.8486  0.2675
   26SAPC    HY 3426   0.993   0.784   6.661 -2.9687 -0.8396 -1.9276
   26SAPC   O31 3427   1.040   0.977   6.722  0.0609  0.6390 -0.8285
   26SAPC   C31 3428   1.145   1.059   6.700  0.0156 -0.9017 -0.0223
   26SAPC   O32 3429   1.217   1.056   6.598 -0.0443 -0.1122  0.1126
   26SAPC   C32 3430   1.147   1.158   6.816  0.0511  0.1425 -0.8848
   26SAPC   H2X 3431   1.085   1.124   6.902  0.1826  3.0509  0.4749
   26SAPC   H2Y 3432   1.104   1.252   6.777 -1.0520 -0.0496 -0.1734
   26SAPC   C23 3433   0.503   0.743   6.831 -0.1763 -0.3352 -0.1393
   26SAPC   H3R 3434   0.560   0.657   6.872 -2.5530 -1.3848  1.1590
   26SAPC   H3S 3435   0.490   0.705   6.727  2.7999  1.1274 -1.1771
   26SAPC   C24 3436   0.371   0.781   6.901 -0.1497  0.3416 -0.0545
   26SAPC   H4R 3437   0.322   0.855   6.835  0.4234  0.1144 -0.7507
   26SAPC   H4S 3438   0.390   0.833   6.998 -1.3185  0.7281 -0.0211
   26SAPC   C25 3439   0.291   0.651   6.919 -0.3345 -0.0063  0.2435
   26SAPC   H5R 3440   0.226   0.628   6.833 -1.2902 -0.4962  1.0811
   26SAPC   C26 3441   0.287   0.568   7.019 -0.7208 -0.1805  0.0966
   26SAPC   H6R 3442   0.212   0.488   7.011  0.5797 -1.3899 -0.3310
   26SAPC   C27 3443   0.353   0.569   7.154 -0.0655 -0.0507  1.0662
   26SAPC   H7R 3444   0.403   0.666   7.174 -0.2841 -0.0110  1.4221
   26SAPC   H7S 3445   0.439   0.499   7.155  0.1640  0.0262 -2.5234
   26SAPC   C28 3446   0.256   0.551   7.259  0.2887  0.7237  0.2880
   26SAPC   H8R 3447   0.160   0.601   7.240  1.4008  2.4800 -0.9852
   26SAPC   C29 3448   0.275   0.492   7.377  0.0646  0.6770  0.2230
   26SAPC   H9R 3449   0.183   0.492   7.437 -0.1614  3.3297  0.0110
   26SAPC  C210 3450   0.403   0.428   7.438 -0.0417 -0.6966  0.7543
   26SAPC  H10R 3451   0.463   0.359   7.375  0.1873 -1.5168  1.8432
   26SAPC  H10S 3452   0.371   0.362   7.521  2.2808 -1.5322  1.0268
   26SAPC  C211 3453   0.498   0.532   7.480  0.0201 -0.8554 -0.3340
   26SAPC  H11R 3454   0.560   0.584   7.406  1.1521  0.4035  1.3987
   26SAPC  C212 3455   0.505   0.582   7.607 -1.0482 -0.8993 -0.3695
   26SAPC  H12R 3456   0.571   0.669   7.620 -0.0114 -1.9095  1.5640
   26SAPC  C213 3457   0.428   0.546   7.726  0.2581 -0.0330 -0.2905
   26SAPC  H13R 3458   0.327   0.519   7.689 -0.6063  3.8493 -1.2328
   26SAPC  H13S 3459   0.416   0.638   7.786  0.7727 -0.6289  0.7587
   26SAPC  C214 3460   0.501   0.442   7.804 -0.3326 -0.1065  0.4221
   26SAPC  H14R 3461   0.470   0.340   7.776  0.7685 -0.4446  0.3737
   26SAPC  C215 3462   0.599   0.469   7.896 -1.5085  0.6792  0.6222
   26SAPC  H15R 3463   0.655   0.387   7.942  0.2890  0.7321 -1.2932
   26SAPC  C216 3464   0.649   0.608   7.932  0.5790  0.1220  0.0885
   26SAPC  H16R 3465   0.627   0.677   7.848 -2.7999  0.1442  0.8343
   26SAPC  H16S 3466   0.757   0.599   7.955  0.1428  0.5763  2.5636
   26SAPC  C217 3467   0.586   0.664   8.060 -0.1752 -0.0991 -1.0865
   26SAPC  H17R 3468   0.590   0.581   8.134 -0.1684  0.9260  0.0888
   26SAPC  H17S 3469   0.479   0.689   8.046 -0.0899  1.3280  0.5037
   26SAPC  C218 3470   0.660   0.776   8.123 -0.2866 -0.1011  0.3653
   26SAPC  H18R 3471   0.700   0.841   8.042 -0.5888 -1.4359 -0.9082
   26SAPC  H18S 3472   0.747   0.727   8.172  0.2309 -2.2571 -2.4931
   26SAPC  C219 3473   0.581   0.842   8.225 -0.5104 -0.3592  0.5444
   26SAPC  H19R 3474   0.542   0.771   8.301 -1.7895 -0.2442  0.0116
   26SAPC  H19S 3475   0.484   0.869   8.179 -0.6668  0.5645  1.3991
   26SAPC  C220 3476   0.641   0.972   8.294  0.9413 -0.2173 -0.4315
   26SAPC  H20R 3477   0.570   1.023   8.363  0.2483  1.7876 -2.4965
   26SAPC  H20S 3478   0.666   1.056   8.226  0.4146  0.3587  0.0673
   26SAPC  H20T 3479   0.736   0.948   8.346  0.6545  1.9028  1.2285
   26SAPC   C33 3480   1.286   1.197   6.860  0.8005  0.0829 -1.2847
   26SAPC   H3X 3481   1.271   1.278   6.935 -2.3419 -0.3170 -1.3501
   26SAPC   H3Y 3482   1.358   1.239   6.786  1.4848 -0.4595 -0.9456
   26SAPC   C34 3483   1.331   1.072   6.942 -0.3824  0.4310  0.3873
   26SAPC   H4X 3484   1.376   1.003   6.867 -1.2011  2.9090 -2.5612
   26SAPC   H4Y 3485   1.252   1.015   6.995 -0.7866  1.7119  1.1828
   26SAPC   C35 3486   1.440   1.087   7.047  0.0980  0.1472  0.5126
   26SAPC   H5X 3487   1.403   1.167   7.114 -1.0271  0.2790 -0.2459
   26SAPC   H5Y 3488   1.527   1.139   7.000 -0.8025  1.2484  0.0162
   26SAPC   C36 3489   1.478   0.950   7.113  0.4141 -1.0326  0.0857
   26SAPC   H6X 3490   1.550   0.896   7.048  1.1049 -1.9306  1.5293
   26SAPC   H6Y 3491   1.382   0.894   7.118 -0.7237  0.8132 -0.2287
   26SAPC   C37 3492   1.536   0.973   7.255 -1.2252  0.3100  0.2372
   26SAPC   H7X 3493   1.633   1.026   7.246 -0.0664 -1.8925 -1.2604
   26SAPC   H7Y 3494   1.571   0.878   7.301  0.7499  0.8300 -0.0974
   26SAPC   C38 3495   1.440   1.048   7.357  0.0398  0.6465  0.4108
   26SAPC   H8X 3496   1.349   0.985   7.368  0.8333 -0.3689  1.3859
   26SAPC   H8Y 3497   1.406   1.145   7.314  0.8298  0.6965 -0.1106
   26SAPC   C39 3498   1.506   1.076   7.502 -0.3164  0.0490  0.5269
   26SAPC   H9X 3499   1.424   1.134   7.549 -1.1814  2.2708 -3.2430
   26SAPC   H9Y 3500   1.598   1.133   7.480 -1.7324  2.4919  0.6010
   26SAPC  C310 3501   1.539   0.952   7.584 -0.8162 -0.1367  0.0131
   26SAPC  H10X 3502   1.603   0.886   7.521  1.4000  0.9871  0.9502
   26SAPC  H10Y 3503   1.447   0.893   7.598 -1.0548 -0.1160 -1.2915
   26SAPC  C311 3504   1.621   0.985   7.709 -0.6609  0.5609 -0.5311
   26SAPC  H11X 3505   1.727   1.003   7.684 -0.6044  1.2575  0.1584
   26SAPC  H11Y 3506   1.621   0.898   7.778 -0.6157 -2.2295 -3.8054
   26SAPC  C312 3507   1.572   1.117   7.777 -0.1196 -0.8752  0.4349
   26SAPC  H12X 3508   1.461   1.117   7.770 -0.1535 -3.0396  0.2496
   26SAPC  H12Y 3509   1.601   1.206   7.718 -1.2702  0.8301  2.3006
   26SAPC  C313 3510   1.625   1.130   7.921 -0.1844 -0.1443  0.3913
   26SAPC  H13X 3511   1.733   1.153   7.910 -0.2152  0.3929  1.1460
   26SAPC  H13Y 3512   1.603   1.029   7.964  1.1758 -0.8951 -0.6063
   26SAPC  C314 3513   1.571   1.242   8.008 -0.0569  0.5387  0.3020
   26SAPC  H14X 3514   1.590   1.342   7.964  0.3560  0.7143  0.8646
   26SAPC  H14Y 3515   1.621   1.239   8.107 -2.1959  1.4753  1.4741
   26SAPC  C315 3516   1.430   1.226   8.033  0.9607 -0.0497 -0.2102
   26SAPC  H15X 3517   1.409   1.119   8.051 -2.4504  0.7849  1.5621
   26SAPC  H15Y 3518   1.372   1.250   7.941  0.1055 -0.6174  0.1724
   26SAPC  C316 3519   1.363   1.298   8.161 -0.5574 -0.1460 -0.1318
   26SAPC  H16X 3520   1.256   1.268   8.167 -0.4546 -0.4507  0.1918
   26SAPC  H16Y 3521   1.362   1.407   8.139 -2.0397 -0.1810 -0.3490
   26SAPC  C317 3522   1.442   1.278   8.292 -0.1756  0.6317 -0.2020
   26SAPC  H17X 3523   1.551   1.281   8.270 -0.2989 -0.2579 -0.9982
   26SAPC  H17Y 3524   1.421   1.173   8.319  0.2146  0.8930  1.2452
   26SAPC  C318 3525   1.397   1.362   8.410 -0.7735 -0.2363 -0.1983
   26SAPC  H18X 3526   1.440   1.464   8.404 -2.8826  0.6356 -1.9405
   26SAPC  H18Y 3527   1.427   1.316   8.506 -0.9255  0.8483  0.3814
   26SAPC  H18Z 3528   1.287   1.370   8.400 -1.0416 -0.7506  1.9298
   27SAPC     N 3529   6.486   2.991   6.509  0.2451 -0.0252 -0.7325
   27SAPC   C12 3530   6.460   2.979   6.657  0.1955  0.5309  0.0894
   27SAPC  H12A 3531   6.391   2.901   6.685  2.5201 -1.1829  1.3525
   27SAPC  H12B 3532   6.409   3.068   6.692  1.0218  0.6593  1.0087
   27SAPC   C13 3533   6.371   3.049   6.440 -0.0994 -0.0575  0.2200
   27SAPC  H13A 3534   6.389   3.058   6.334 -0.3841  0.5900  0.2232
   27SAPC  H13B 3535   6.281   2.992   6.459  0.6697 -1.6107 -0.5850
   27SAPC  H13C 3536   6.347   3.145   6.483 -0.4955 -0.2339  0.3957
   27SAPC   C14 3537   6.598   3.085   6.488  0.3370 -0.0941 -0.0818
   27SAPC  H14A 3538   6.686   3.057   6.544 -1.1016 -0.5083  2.0835
   27SAPC  H14B 3539   6.623   3.089   6.383  0.9452 -0.6681  0.0319
   27SAPC  H14C 3540   6.572   3.187   6.513  1.1219  0.1928 -0.3832
   27SAPC   C15 3541   6.537   2.866   6.438 -1.1965  1.3378 -0.2263
   27SAPC  H15A 3542   6.546   2.891   6.333 -0.7960 -0.1702 -0.5597
   27SAPC  H15B 3543   6.637   2.853   6.476 -1.1016  0.0768 -0.8814
   27SAPC  H15C 3544   6.476   2.778   6.450  0.0877  0.4521 -0.0329
   27SAPC   C11 3545   6.590   2.965   6.744  0.6324 -0.0442 -0.2596
   27SAPC  H11A 3546   6.550   2.963   6.848 -0.5180 -2.3011 -0.6965
   27SAPC  H11B 3547   6.644   3.061   6.731 -1.3150  0.9061 -1.8718
   27SAPC     P 3548   6.695   2.739   6.794 -0.0260 -0.3886  0.1900
   27SAPC   O13 3549   6.562   2.677   6.831  0.4413 -0.8497  0.2035
   27SAPC   O14 3550   6.793   2.643   6.731  0.1986  0.5313 -0.2173
   27SAPC   O12 3551   6.671   2.858   6.701 -0.6657  0.6254  0.0807
   27SAPC   O11 3552   6.751   2.809   6.924  1.0750 -0.2464 -0.6235
   27SAPC    C1 3553   6.868   2.888   6.917  0.9427  0.3754 -0.5502
   27SAPC    HA 3554   6.941   2.865   6.837 -0.9144 -1.3159 -1.8677
   27SAPC    HB 3555   6.833   2.991   6.894 -3.2045 -0.5637  0.6051
   27SAPC    C2 3556   6.936   2.908   7.056 -0.1749 -0.0352  0.2675
   27SAPC    HS 3557   7.044   2.921   7.031  0.4116 -0.8402  2.2102
   27SAPC   O21 3558   6.922   2.798   7.148  0.2412 -0.0774 -0.3181
   27SAPC   C21 3559   6.953   2.678   7.103  0.2769  0.5936 -0.2638
   27SAPC   O22 3560   6.992   2.643   6.994 -0.0496  0.0657 -0.0831
   27SAPC   C22 3561   6.931   2.576   7.218  0.4483 -0.1317  0.2808
   27SAPC   H2R 3562   6.839   2.597   7.276  0.9629 -1.6571  1.6998
   27SAPC   H2S 3563   6.900   2.478   7.177 -1.7520  0.6010  0.0338
   27SAPC    C3 3564   6.877   3.030   7.120 -0.1402 -0.5105  0.0010
   27SAPC    HX 3565   6.767   3.016   7.118 -0.1178 -1.7182  2.7613
   27SAPC    HY 3566   6.914   3.119   7.064  1.1011  0.6567  2.5054
   27SAPC   O31 3567   6.931   3.046   7.259 -0.4098 -0.2319  0.5826
   27SAPC   C31 3568   6.875   3.148   7.318 -0.5967 -0.8694 -0.3531
   27SAPC   O32 3569   6.800   3.233   7.278  0.2719  0.0579 -0.4604
   27SAPC   C32 3570   6.935   3.139   7.461  0.3266  0.2983 -0.0557
   27SAPC   H2X 3571   7.045   3.148   7.453  0.3503  1.9940  1.5923
   27SAPC   H2Y 3572   6.908   3.039   7.499  1.8717 -1.3463 -2.9197
   27SAPC   C23 3573   7.057   2.554   7.301  0.3369  0.0203  0.2986
   27SAPC   H3R 3574   7.150   2.535   7.242  1.3359  1.2958  1.4077
   27SAPC   H3S 3575   7.052   2.466   7.368  0.7821 -0.2593 -0.0251
   27SAPC   C24 3576   7.083   2.664   7.407 -0.5995 -1.2906 -0.4211
   27SAPC   H4R 3577   6.994   2.672   7.473  0.9848 -0.8744  1.7558
   27SAPC   H4S 3578   7.100   2.754   7.345 -0.3693  0.2070  1.7373
   27SAPC   C25 3579   7.204   2.635   7.485 -0.7440  0.0843  0.2244
   27SAPC   H5R 3580   7.299   2.686   7.461  0.5909 -1.0761  2.6547
   27SAPC   C26 3581   7.219   2.541   7.579  0.8023  0.6036 -0.2603
   27SAPC   H6R 3582   7.312   2.552   7.637 -0.3699  0.4473  1.7363
   27SAPC   C27 3583   7.106   2.464   7.651 -0.1730 -0.4404 -0.4511
   27SAPC   H7R 3584   7.004   2.488   7.615 -0.0514 -1.9329 -1.9081
   27SAPC   H7S 3585   7.103   2.505   7.754 -1.7391  1.3812 -1.1734
   27SAPC   C28 3586   7.126   2.315   7.657  0.4954  0.6418  0.2950
   27SAPC   H8R 3587   7.131   2.263   7.560  1.9245  1.0983  0.1079
   27SAPC   C29 3588   7.146   2.233   7.764 -0.2288  0.7347 -0.6336
   27SAPC   H9R 3589   7.165   2.128   7.741  1.0490  0.8039  0.0017
   27SAPC  C210 3590   7.145   2.280   7.911  0.4677 -0.4265 -0.1397
   27SAPC  H10R 3591   7.040   2.294   7.944  0.9030 -1.5817  1.9187
   27SAPC  H10S 3592   7.198   2.377   7.921 -0.9946  0.3489  0.5073
   27SAPC  C211 3593   7.203   2.185   8.006 -0.6910 -0.0836  0.1379
   27SAPC  H11R 3594   7.312   2.185   8.018 -0.7659  0.7838  0.9028
   27SAPC  C212 3595   7.138   2.092   8.083 -0.1659  0.2213  0.3095
   27SAPC  H12R 3596   7.197   2.017   8.138 -1.3500 -0.9455  0.0298
   27SAPC  C213 3597   6.992   2.064   8.103  0.3765  0.4477  0.5012
   27SAPC  H13R 3598   6.943   2.080   8.005  0.1579 -0.1736  0.5055
   27SAPC  H13S 3599   6.956   2.145   8.170 -1.8114 -0.4247  0.4560
   27SAPC  C214 3600   6.950   1.929   8.159  1.3041  0.7404  0.5928
   27SAPC  H14R 3601   7.029   1.854   8.177  1.3265  0.6893  0.2835
   27SAPC  C215 3602   6.821   1.893   8.190 -0.1599  0.2828 -0.7651
   27SAPC  H15R 3603   6.800   1.790   8.224  1.0895  0.3527  0.3080
   27SAPC  C216 3604   6.702   1.983   8.184  0.2946  0.1452  0.7605
   27SAPC  H16R 3605   6.627   1.940   8.113  1.3997  1.0282 -1.0166
   27SAPC  H16S 3606   6.738   2.079   8.141  2.5038 -0.1574  1.7927
   27SAPC  C217 3607   6.626   2.018   8.311  0.3320  0.5632  0.1758
   27SAPC  H17R 3608   6.545   2.086   8.276  0.2942 -0.6047 -2.1557
   27SAPC  H17S 3609   6.697   2.066   8.382  1.8205 -1.0138 -0.1842
   27SAPC  C218 3610   6.576   1.895   8.394  0.2957  0.6787  0.5606
   27SAPC  H18R 3611   6.549   1.933   8.495 -0.8071 -0.4294  0.7059
   27SAPC  H18S 3612   6.659   1.823   8.410  0.8649  0.8858 -1.2916
   27SAPC  C219 3613   6.447   1.825   8.331 -0.2152 -0.1049  0.4497
   27SAPC  H19R 3614   6.470   1.778   8.233 -3.9317  0.2606 -0.7252
   27SAPC  H19S 3615   6.368   1.901   8.317 -0.6151 -0.7053 -0.6673
   27SAPC  C220 3616   6.396   1.724   8.428  0.4549 -0.2554 -0.0064
   27SAPC  H20R 3617   6.470   1.641   8.436  4.4176  2.4880 -3.5742
   27SAPC  H20S 3618   6.296   1.686   8.399  0.5923  1.8681 -3.8872
   27SAPC  H20T 3619   6.379   1.764   8.530 -2.2755 -1.4712  0.1056
   27SAPC   C33 3620   6.871   3.236   7.564 -0.0967 -0.0214 -0.6328
   27SAPC   H3X 3621   6.760   3.248   7.560  0.1419  2.6521 -0.7849
   27SAPC   H3Y 3622   6.908   3.337   7.538  0.3435 -0.0590 -0.1683
   27SAPC   C34 3623   6.920   3.210   7.709 -0.1466 -0.1970  0.1755
   27SAPC   H4X 3624   7.026   3.235   7.732 -0.0510 -0.7337  0.3185
   27SAPC   H4Y 3625   6.890   3.105   7.725 -0.8819  0.0719  0.5856
   27SAPC   C35 3626   6.844   3.295   7.813 -0.4227  0.6307  0.0645
   27SAPC   H5X 3627   6.734   3.287   7.802 -0.2297 -2.0297 -0.6542
   27SAPC   H5Y 3628   6.858   3.404   7.797 -0.1431  1.2233  3.5570
   27SAPC   C36 3629   6.877   3.249   7.951  0.0393  0.1415 -0.3331
   27SAPC   H6X 3630   6.880   3.336   8.019  2.9256  1.7465 -2.3144
   27SAPC   H6Y 3631   6.977   3.200   7.953  1.2938  2.5830  0.2371
   27SAPC   C37 3632   6.776   3.144   8.002 -0.0856  0.9338  0.4113
   27SAPC   H7X 3633   6.769   3.066   7.924 -0.2525 -0.1355  1.4738
   27SAPC   H7Y 3634   6.681   3.196   8.025 -1.3771 -0.1326 -2.1095
   27SAPC   C38 3635   6.840   3.074   8.126  0.4234 -0.0816  0.1994
   27SAPC   H8X 3636   6.914   3.147   8.168 -0.5445  0.7875  0.4385
   27SAPC   H8Y 3637   6.907   2.988   8.104 -0.5939 -0.6235 -0.8736
   27SAPC   C39 3638   6.736   3.034   8.228  0.1609  0.2117  0.4582
   27SAPC   H9X 3639   6.682   2.948   8.181  0.3944  1.3706 -2.1336
   27SAPC   H9Y 3640   6.688   3.131   8.251  1.1942  0.8277  0.0901
   27SAPC  C310 3641   6.794   2.980   8.353  0.2973 -0.1285  0.1046
   27SAPC  H10X 3642   6.872   3.051   8.387  1.6779 -1.6002  0.1203
   27SAPC  H10Y 3643   6.849   2.883   8.346  1.3926  0.3887  1.2221
   27SAPC  C311 3644   6.683   2.963   8.462  0.5318 -0.3421  0.1956
   27SAPC  H11X 3645   6.619   2.874   8.444 -0.9139  0.5472  0.7302
   27SAPC  H11Y 3646   6.619   3.054   8.453 -0.3646 -0.9351  0.4299
   27SAPC  C312 3647   6.727   2.942   8.617 -0.2291 -0.0606  0.0794
   27SAPC  H12X 3648   6.784   3.037   8.630  0.8042 -0.4611 -1.2215
   27SAPC  H12Y 3649   6.797   2.857   8.628  0.1512  0.4065  1.3306
   27SAPC  C313 3650   6.606   2.921   8.708 -0.6288 -0.7294 -0.1351
   27SAPC  H13X 3651   6.530   2.846   8.679  0.2063 -1.4497 -0.4955
   27SAPC  H13Y 3652   6.553   3.019   8.716  1.5541  0.3863  2.7845
   27SAPC  C314 3653   6.634   2.886   8.853 -0.0410 -0.4721  0.7890
   27SAPC  H14X 3654   6.706   2.953   8.904  2.5717 -0.0071 -3.1074
   27SAPC  H14Y 3655   6.689   2.790   8.843  1.7051  0.6354 -0.7087
   27SAPC  C315 3656   6.496   2.887   8.928 -0.5429 -0.4250  0.4833
   27SAPC  H15X 3657   6.425   2.826   8.868 -0.5365 -0.7564  0.8102
   27SAPC  H15Y 3658   6.451   2.988   8.932  0.8192  0.2367 -0.2399
   27SAPC  C316 3659   6.512   2.834   9.067 -0.3904 -0.8240 -0.2285
   27SAPC  H16X 3660   6.600   2.882   9.116  1.5042 -1.5024 -2.7428
   27SAPC  H16Y 3661   6.538   2.726   9.057 -0.6458 -1.1802  2.4047
   27SAPC  C317 3662   6.382   2.865   9.145  0.0783 -0.2332 -0.4626
   27SAPC  H17X 3663   6.298   2.862   9.073  0.7093  0.2916 -1.2385
   27SAPC  H17Y 3664   6.382   2.965   9.192  3.1239  0.0349 -0.8207
   27SAPC  C318 3665   6.371   2.768   9.272 -0.0859 -0.8155 -0.4090
   27SAPC  H18X 3666   6.375   2.660   9.245 -0.5595 -0.8181 -0.4901
   27SAPC  H18Y 3667   6.278   2.794   9.327 -1.7058 -5.8982 -0.2668
   27SAPC  H18Z 3668   6.453   2.778   9.345  0.0145  0.3709 -0.6560
   28SAPC     N 3669   5.865   5.269   6.424 -0.5140 -0.0002 -0.9220
   28SAPC   C12 3670   5.854   5.413   6.371  0.0340 -0.2669 -0.5443
   28SAPC  H12A 3671   5.753   5.442   6.398  0.2160 -0.2981  0.2100
   28SAPC  H12B 3672   5.847   5.413   6.264 -3.2515 -0.7477 -0.4464
   28SAPC   C13 3673   5.962   5.180   6.348 -0.6896 -0.4197  0.1894
   28SAPC  H13A 3674   5.959   5.077   6.381  1.1412 -1.3871 -2.3542
   28SAPC  H13B 3675   5.932   5.174   6.244 -1.9873 -1.6640  0.6081
   28SAPC  H13C 3676   6.063   5.219   6.347 -0.9205  0.2616 -1.8899
   28SAPC   C14 3677   5.904   5.267   6.567  0.2046  0.0345 -0.3105
   28SAPC  H14A 3678   5.903   5.166   6.605 -0.6603  0.8327  1.9539
   28SAPC  H14B 3679   6.003   5.304   6.587  0.8821 -0.1643 -3.0124
   28SAPC  H14C 3680   5.830   5.315   6.629  0.3508 -1.7896  1.4011
   28SAPC   C15 3681   5.735   5.202   6.404 -0.0353  0.6585  0.3455
   28SAPC  H15A 3682   5.713   5.211   6.298  2.2509  1.4638 -0.0989
   28SAPC  H15B 3683   5.741   5.097   6.428  0.8752  0.0245 -2.2665
   28SAPC  H15C 3684   5.651   5.244   6.457 -1.8440 -0.6925 -1.2453
   28SAPC   C11 3685   5.967   5.518   6.429  0.4851 -0.3545  0.6851
   28SAPC  H11A 3686   5.953   5.535   6.538 -0.0872 -0.0290  0.5633
   28SAPC  H11B 3687   5.930   5.609   6.379  0.0674 -1.0965 -0.3964
   28SAPC     P 3688   6.217   5.462   6.495 -0.3091  0.2410  0.4039
   28SAPC   O13 3689   6.204   5.338   6.576 -0.4281  0.0912 -0.1023
   28SAPC   O14 3690   6.342   5.478   6.424  0.1872 -0.1957 -0.2987
   28SAPC   O12 3691   6.098   5.486   6.390  0.6306  0.1196  0.8961
   28SAPC   O11 3692   6.193   5.580   6.600 -0.0206  0.0585  0.6984
   28SAPC    C1 3693   6.261   5.707   6.563  0.5845  0.1524  0.0742
   28SAPC    HA 3694   6.371   5.696   6.568  0.8148  1.3954 -1.5121
   28SAPC    HB 3695   6.237   5.735   6.458 -1.4209 -0.5998  0.2781
   28SAPC    C2 3696   6.212   5.826   6.650 -0.3989  0.3224 -0.1512
   28SAPC    HS 3697   6.253   5.923   6.615 -1.5566  0.8296 -0.1486
   28SAPC   O21 3698   6.250   5.800   6.788 -0.6265  0.1226  0.1691
   28SAPC   C21 3699   6.372   5.840   6.825 -0.2246  0.1547 -0.1178
   28SAPC   O22 3700   6.446   5.920   6.767  0.9690 -0.1824 -0.0021
   28SAPC   C22 3701   6.395   5.789   6.970  0.2780  0.0939  0.2602
   28SAPC   H2R 3702   6.408   5.681   6.991 -2.9998 -0.6571 -0.9438
   28SAPC   H2S 3703   6.487   5.843   7.000  1.0022  0.0054 -1.6777
   28SAPC    C3 3704   6.054   5.844   6.649 -1.5373  0.2378  0.1472
   28SAPC    HX 3705   6.021   5.742   6.676  0.5391 -0.0927  1.6195
   28SAPC    HY 3706   6.026   5.878   6.547  0.9466 -0.5791 -0.8763
   28SAPC   O31 3707   6.001   5.937   6.750  0.1433  0.0945 -0.1270
   28SAPC   C31 3708   6.051   6.064   6.743  0.3815  1.0601  0.4064
   28SAPC   O32 3709   6.112   6.112   6.648  0.1553 -0.6206  0.1515
   28SAPC   C32 3710   6.030   6.123   6.881  0.5786 -0.2435  0.0313
   28SAPC   H2X 3711   6.024   6.044   6.958  1.8421  1.6678  2.2213
   28SAPC   H2Y 3712   5.934   6.180   6.891  0.8245  0.2016 -0.1153
   28SAPC   C23 3713   6.270   5.821   7.058 -0.1261  0.2446 -0.3680
   28SAPC   H3R 3714   6.187   5.749   7.044 -1.2046  0.7958  2.5184
   28SAPC   H3S 3715   6.232   5.917   7.019  1.7106  1.0581 -0.2539
   28SAPC   C24 3716   6.308   5.825   7.206  0.4994 -0.4583  0.0292
   28SAPC   H4R 3717   6.399   5.887   7.224  1.4657 -1.2052 -1.8756
   28SAPC   H4S 3718   6.230   5.888   7.253  0.7458  0.3240 -0.5719
   28SAPC   C25 3719   6.314   5.697   7.280  0.1515  0.3619 -0.2670
   28SAPC   H5R 3720   6.395   5.631   7.245 -0.7777 -1.7683  1.4183
   28SAPC   C26 3721   6.248   5.657   7.393  0.3987  0.2095  0.5088
   28SAPC   H6R 3722   6.268   5.552   7.419  1.8787  0.0185 -1.2049
   28SAPC   C27 3723   6.135   5.727   7.470 -0.0334 -0.1741 -0.1996
   28SAPC   H7R 3724   6.137   5.836   7.448  1.5251 -0.3636 -1.1900
   28SAPC   H7S 3725   6.164   5.736   7.577 -2.6085 -0.1833  0.5581
   28SAPC   C28 3726   5.998   5.669   7.451 -0.1155  0.8240 -0.2302
   28SAPC   H8R 3727   5.982   5.630   7.349  1.2023  2.8239 -1.2584
   28SAPC   C29 3728   5.903   5.645   7.546 -0.6330  0.1353  0.4977
   28SAPC   H9R 3729   5.803   5.603   7.527 -0.3416 -1.4604  2.2802
   28SAPC  C210 3730   5.926   5.679   7.691 -0.1955 -0.0096 -0.1203
   28SAPC  H10R 3731   6.030   5.709   7.714 -0.2924  2.1670 -2.1195
   28SAPC  H10S 3732   5.918   5.587   7.752 -0.4550 -1.1603 -1.8246
   28SAPC  C211 3733   5.840   5.793   7.734  0.3421  0.4677 -0.6741
   28SAPC  H11R 3734   5.822   5.868   7.656  0.9886 -0.4186 -1.7087
   28SAPC  C212 3735   5.788   5.819   7.853  0.5485  0.5225  0.6329
   28SAPC  H12R 3736   5.735   5.914   7.871 -1.2158 -0.3585  0.3185
   28SAPC  C213 3737   5.798   5.723   7.969 -0.2369 -0.8030 -0.2530
   28SAPC  H13R 3738   5.789   5.613   7.955 -0.1327 -0.8722  0.2317
   28SAPC  H13S 3739   5.724   5.751   8.047  1.2529 -1.1536  1.3370
   28SAPC  C214 3740   5.937   5.732   8.035  0.2049 -1.1083  0.2325
   28SAPC  H14R 3741   6.016   5.775   7.971  1.1793 -0.8161  1.5856
   28SAPC  C215 3742   5.965   5.703   8.160 -0.3744  0.3005  0.6192
   28SAPC  H15R 3743   6.071   5.722   8.186  0.0205  0.3752 -0.9340
   28SAPC  C216 3744   5.878   5.656   8.272  0.4482  0.4556 -0.4029
   28SAPC  H16R 3745   5.784   5.604   8.243 -0.3887 -0.0088  2.8117
   28SAPC  H16S 3746   5.848   5.741   8.337 -2.0716  0.1424 -1.0429
   28SAPC  C217 3747   5.951   5.564   8.366  0.1054 -0.2421 -0.0347
   28SAPC  H17R 3748   6.037   5.624   8.403  0.3661 -0.0359 -0.9507
   28SAPC  H17S 3749   6.000   5.477   8.318  1.1659  0.8446 -0.9993
   28SAPC  C218 3750   5.874   5.525   8.499 -0.5557 -0.0523  0.9701
   28SAPC  H18R 3751   5.806   5.438   8.486 -0.9004  0.4053 -0.5611
   28SAPC  H18S 3752   5.808   5.609   8.529 -1.4213 -0.6680  0.8429
   28SAPC  C219 3753   5.977   5.489   8.615  0.2348  0.1087  0.2800
   28SAPC  H19R 3754   6.021   5.585   8.649  1.9902 -1.0446  1.4435
   28SAPC  H19S 3755   6.041   5.414   8.565 -1.7636 -1.1562 -0.5148
   28SAPC  C220 3756   5.912   5.425   8.729 -0.1495  0.0643  0.1550
   28SAPC  H20R 3757   5.981   5.384   8.805 -0.9215  0.6532  1.2106
   28SAPC  H20S 3758   5.845   5.343   8.697  1.7645 -1.8324  0.8075
   28SAPC  H20T 3759   5.846   5.498   8.783  0.4922 -0.1024  1.1977
   28SAPC   C33 3760   6.153   6.221   6.897  0.4589  0.1961 -0.9199
   28SAPC   H3X 3761   6.137   6.310   6.833 -1.7146  0.4717 -0.0558
   28SAPC   H3Y 3762   6.245   6.164   6.868 -0.0406 -0.9527 -0.3063
   28SAPC   C34 3763   6.154   6.279   7.040  0.3428 -0.4746  0.1785
   28SAPC   H4X 3764   6.051   6.285   7.080 -0.2096 -2.9536 -0.6423
   28SAPC   H4Y 3765   6.193   6.383   7.036 -0.7837 -0.0457 -0.0326
   28SAPC   C35 3766   6.228   6.191   7.145 -0.4232 -0.4973  0.1121
   28SAPC   H5X 3767   6.332   6.161   7.123 -0.6298 -2.7451  1.8559
   28SAPC   H5Y 3768   6.171   6.096   7.155 -1.1110 -0.1701 -0.6000
   28SAPC   C36 3769   6.212   6.253   7.286  0.0104  0.5505  0.2206
   28SAPC   H6X 3770   6.103   6.268   7.301  0.1922  2.7095 -0.3810
   28SAPC   H6Y 3771   6.252   6.356   7.292 -1.5505  1.1301  1.7757
   28SAPC   C37 3772   6.262   6.159   7.400  0.1029 -1.1451  0.3834
   28SAPC   H7X 3773   6.372   6.142   7.400  0.1604 -0.8484 -0.3020
   28SAPC   H7Y 3774   6.217   6.059   7.388  1.1974 -1.6522  0.3869
   28SAPC   C38 3775   6.214   6.216   7.536 -0.0884 -0.7366  0.3396
   28SAPC   H8X 3776   6.103   6.220   7.530 -0.0828  0.3426  0.8323
   28SAPC   H8Y 3777   6.248   6.322   7.532  1.9663 -1.3810 -0.2744
   28SAPC   C39 3778   6.258   6.130   7.657 -0.5580 -0.1713  0.7200
   28SAPC   H9X 3779   6.367   6.109   7.657 -0.6135 -0.5781 -0.9064
   28SAPC   H9Y 3780   6.216   6.027   7.649  0.8468 -0.7628  0.7071
   28SAPC  C310 3781   6.204   6.196   7.783  0.0839  0.6330 -0.0100
   28SAPC  H10X 3782   6.103   6.236   7.759 -0.2398  0.0910  0.4217
   28SAPC  H10Y 3783   6.274   6.275   7.819 -0.5142  0.8939  0.6203
   28SAPC  C311 3784   6.208   6.097   7.905 -0.2466 -0.8924 -0.4331
   28SAPC  H11X 3785   6.304   6.041   7.910 -0.1972 -1.0265 -2.2416
   28SAPC  H11Y 3786   6.128   6.024   7.878 -1.5060 -0.0287  0.8133
   28SAPC  C312 3787   6.169   6.169   8.037  0.6299  0.1069  0.3846
   28SAPC  H12X 3788   6.079   6.231   8.015 -0.2362  0.0395  3.2907
   28SAPC  H12Y 3789   6.249   6.235   8.076  0.8110  1.4023 -1.9897
   28SAPC  C313 3790   6.126   6.071   8.156 -0.1708 -0.0069 -0.4743
   28SAPC  H13X 3791   6.174   5.976   8.124 -0.7123 -0.9952  1.4687
   28SAPC  H13Y 3792   6.015   6.059   8.162 -0.3646  2.0327  1.2497
   28SAPC  C314 3793   6.192   6.110   8.291 -0.4249  0.1011  0.1787
   28SAPC  H14X 3794   6.156   6.210   8.323  2.5597  0.9736  1.0925
   28SAPC  H14Y 3795   6.301   6.125   8.273 -0.0574 -1.3160  1.0688
   28SAPC  C315 3796   6.152   6.006   8.393 -0.5499 -0.6705 -0.4625
   28SAPC  H15X 3797   6.220   6.024   8.479  0.6191  2.0319 -1.8309
   28SAPC  H15Y 3798   6.152   5.901   8.355  0.6540  0.2311 -3.1996
   28SAPC  C316 3799   6.008   6.018   8.445 -0.4958  0.1890  0.1883
   28SAPC  H16X 3800   5.942   5.986   8.361  2.3911 -0.9586 -1.7976
   28SAPC  H16Y 3801   5.988   6.124   8.472  0.7325  0.7276 -0.9129
   28SAPC  C317 3802   5.974   5.918   8.556 -0.0115  0.1960 -0.0603
   28SAPC  H17X 3803   6.021   5.957   8.648 -0.7595  0.9626 -0.0000
   28SAPC  H17Y 3804   6.021   5.819   8.537  0.4357  0.1716  1.1433
   28SAPC  C318 3805   5.817   5.900   8.574 -0.0598 -0.5791 -0.0145
   28SAPC  H18X 3806   5.768   5.998   8.556  0.4785 -0.6168 -1.9714
   28SAPC  H18Y 3807   5.794   5.848   8.669 -1.4499 -0.6155 -0.3549
   28SAPC  H18Z 3808   5.791   5.835   8.488  2.4994 -1.5373 -0.1736
   29SAPC     N 3809   6.251   1.212   5.841 -0.5624  1.0793 -0.3109
   29SAPC   C12 3810   6.368   1.288   5.899  0.0507 -0.0001  0.0806
   29SAPC  H12A 3811   6.360   1.383   5.848  0.5273 -0.1352 -0.2520
   29SAPC  H12B 3812   6.455   1.237   5.861 -0.6551 -1.2300  0.0642
   29SAPC   C13 3813   6.228   1.075   5.899  0.4926  0.3724 -0.1533
   29SAPC  H13A 3814   6.309   1.008   5.875  2.3467  1.7099  2.0459
   29SAPC  H13B 3815   6.234   1.075   6.006 -3.2117 -0.2024  0.1966
   29SAPC  H13C 3816   6.139   1.025   5.864 -0.5310  2.3307 -0.5028
   29SAPC   C14 3817   6.131   1.289   5.862  1.7234 -0.4787  0.1194
   29SAPC  H14A 3818   6.101   1.303   5.965 -1.4726  2.3555 -0.9957
   29SAPC  H14B 3819   6.139   1.390   5.826  0.6378  0.0532  1.2816
   29SAPC  H14C 3820   6.048   1.238   5.815  0.4793  1.5446 -0.0293
   29SAPC   C15 3821   6.264   1.209   5.695 -0.2955 -0.0170  0.0785
   29SAPC  H15A 3822   6.176   1.162   5.653  1.2052 -2.3157 -0.7093
   29SAPC  H15B 3823   6.284   1.304   5.648  1.5646 -0.8380 -0.9004
   29SAPC  H15C 3824   6.345   1.149   5.657 -0.4063 -0.1133 -0.0113
   29SAPC   C11 3825   6.373   1.302   6.054 -0.2576 -0.8151  0.1027
   29SAPC  H11A 3826   6.271   1.326   6.093 -0.5950 -4.0658  1.5920
   29SAPC  H11B 3827   6.436   1.389   6.080 -1.4397 -0.5310  2.2743
   29SAPC     P 3828   6.567   1.145   6.110 -0.2832 -0.1507  0.1469
   29SAPC   O13 3829   6.579   0.998   6.110  0.4760 -0.5307 -0.1858
   29SAPC   O14 3830   6.646   1.206   6.003 -0.4263 -0.0975  0.1092
   29SAPC   O12 3831   6.418   1.173   6.105 -0.3124 -0.0752 -0.3399
   29SAPC   O11 3832   6.615   1.210   6.249 -0.1631  0.8454  0.1163
   29SAPC    C1 3833   6.525   1.273   6.341 -0.6208  0.8637  0.1761
   29SAPC    HA 3834   6.496   1.375   6.309  0.0380  0.5390 -1.5297
   29SAPC    HB 3835   6.440   1.201   6.344  1.0671 -1.6256 -3.7132
   29SAPC    C2 3836   6.572   1.286   6.488  0.1102 -0.4961  0.3169
   29SAPC    HS 3837   6.664   1.348   6.486  0.3894 -0.8945 -1.5699
   29SAPC   O21 3838   6.594   1.155   6.539  0.3639 -0.1145 -0.2711
   29SAPC   C21 3839   6.722   1.123   6.568 -0.0847 -0.4464 -0.3234
   29SAPC   O22 3840   6.816   1.196   6.553 -0.1045  0.0524 -0.1126
   29SAPC   C22 3841   6.722   0.985   6.644 -0.6285 -0.0657  0.0818
   29SAPC   H2R 3842   6.619   0.942   6.643 -1.0297  0.8761 -0.1619
   29SAPC   H2S 3843   6.794   0.918   6.593 -1.6168 -1.7061  0.7404
   29SAPC    C3 3844   6.464   1.359   6.579 -0.5096 -0.1405  0.1143
   29SAPC    HX 3845   6.378   1.290   6.588 -0.7287 -0.0343 -1.0002
   29SAPC    HY 3846   6.440   1.459   6.535  2.3733  0.9058  0.6861
   29SAPC   O31 3847   6.513   1.390   6.709  0.5637 -0.0761  0.5532
   29SAPC   C31 3848   6.437   1.452   6.786  0.9595  0.5940  0.6247
   29SAPC   O32 3849   6.319   1.481   6.764 -0.8076 -0.2660  0.4342
   29SAPC   C32 3850   6.518   1.468   6.914 -0.0417 -0.3491  0.9799
   29SAPC   H2X 3851   6.532   1.578   6.921  0.4639 -0.1186 -2.0319
   29SAPC   H2Y 3852   6.613   1.412   6.902  0.5240  0.9412 -1.1064
   29SAPC   C23 3853   6.767   0.990   6.791  0.5362 -0.6818  0.2210
   29SAPC   H3R 3854   6.697   1.062   6.839  2.0686  1.0934 -0.1315
   29SAPC   H3S 3855   6.862   1.046   6.782 -1.5229  2.8165 -1.9007
   29SAPC   C24 3856   6.786   0.853   6.853 -0.3093 -0.2677 -0.6122
   29SAPC   H4R 3857   6.860   0.791   6.798  1.7113  3.2380 -2.2193
   29SAPC   H4S 3858   6.687   0.803   6.847 -0.5501 -0.1636  1.5376
   29SAPC   C25 3859   6.816   0.877   7.003 -1.2170  0.3474  0.1286
   29SAPC   H5R 3860   6.906   0.939   7.016 -1.3901  0.6807 -0.2417
   29SAPC   C26 3861   6.747   0.821   7.102  0.0763 -0.6906 -0.3387
   29SAPC   H6R 3862   6.778   0.837   7.207 -2.0378  0.1867  0.2183
   29SAPC   C27 3863   6.615   0.746   7.096  0.7071 -0.0204  0.1029
   29SAPC   H7R 3864   6.552   0.786   7.014  0.6966  0.7027  0.4537
   29SAPC   H7S 3865   6.553   0.763   7.187  1.6342  3.0568  0.2482
   29SAPC   C28 3866   6.641   0.593   7.093 -0.2911  0.5201 -0.3138
   29SAPC   H8R 3867   6.653   0.547   6.994  1.3999 -1.5014  0.7528
   29SAPC   C29 3868   6.645   0.498   7.193 -0.3103 -0.7010  0.7628
   29SAPC   H9R 3869   6.683   0.397   7.172  1.7570  0.3434 -0.8824
   29SAPC  C210 3870   6.621   0.541   7.334 -0.5326 -0.3315 -0.3529
   29SAPC  H10R 3871   6.529   0.603   7.340  0.6172  1.7007 -2.1667
   29SAPC  H10S 3872   6.709   0.607   7.352 -0.2433 -0.2476 -1.9593
   29SAPC  C211 3873   6.606   0.430   7.430  0.4836  0.5009 -0.1149
   29SAPC  H11R 3874   6.594   0.333   7.380  0.2128  0.3401  0.2524
   29SAPC  C212 3875   6.601   0.442   7.568  0.1284 -0.1411 -0.0011
   29SAPC  H12R 3876   6.591   0.347   7.622 -0.6832 -0.6387 -1.0053
   29SAPC  C213 3877   6.617   0.569   7.650  0.3585 -0.3970  0.2081
   29SAPC  H13R 3878   6.520   0.579   7.703  0.6587  0.4281  0.6118
   29SAPC  H13S 3879   6.632   0.655   7.581  0.9325  0.4973  1.4191
   29SAPC  C214 3880   6.724   0.563   7.750 -0.2206  0.1677 -0.6933
   29SAPC  H14R 3881   6.735   0.472   7.811  0.0738  1.8610  1.9612
   29SAPC  C215 3882   6.811   0.662   7.785  0.1916  0.4792  0.0647
   29SAPC  H15R 3883   6.881   0.641   7.868  0.3586 -0.9317 -0.3984
   29SAPC  C216 3884   6.808   0.801   7.734 -0.4104 -0.4935 -0.2176
   29SAPC  H16R 3885   6.703   0.835   7.724  0.0233  2.4494  3.0360
   29SAPC  H16S 3886   6.852   0.798   7.632  1.7265  0.0606  0.6226
   29SAPC  C217 3887   6.879   0.898   7.828 -1.1104 -0.4433 -0.2162
   29SAPC  H17R 3888   6.874   1.005   7.797 -0.3323  0.1731  1.6477
   29SAPC  H17S 3889   6.988   0.876   7.822 -1.4286 -1.7545 -3.7771
   29SAPC  C218 3890   6.835   0.899   7.970 -0.1553 -0.5628  0.2695
   29SAPC  H18R 3891   6.838   0.798   8.016 -0.2499 -0.3242  0.8117
   29SAPC  H18S 3892   6.727   0.922   7.970 -0.3128 -1.2363 -1.1294
   29SAPC  C219 3893   6.918   0.976   8.069  0.4062 -0.6264  0.1277
   29SAPC  H19R 3894   7.021   0.943   8.045  0.9975 -0.2826  2.0605
   29SAPC  H19S 3895   6.894   0.948   8.173 -2.5899 -1.2805 -0.6245
   29SAPC  C220 3896   6.909   1.128   8.046 -0.5310  0.5901  0.4605
   29SAPC  H20R 3897   6.911   1.144   7.937 -0.2787 -0.7449  0.2431
   29SAPC  H20S 3898   7.007   1.164   8.084 -0.2570 -0.1622  0.4958
   29SAPC  H20T 3899   6.824   1.173   8.100 -1.1217 -0.7449  0.6965
   29SAPC   C33 3900   6.445   1.409   7.037  0.2312 -0.0319 -1.0582
   29SAPC   H3X 3901   6.341   1.448   7.046  0.7481  1.0135  1.3345
   29SAPC   H3Y 3902   6.497   1.435   7.131  1.5783  1.1639 -2.0977
   29SAPC   C34 3903   6.448   1.257   7.043  0.0010  0.1762  0.4140
   29SAPC   H4X 3904   6.557   1.238   7.039 -0.0802 -1.1004  2.8073
   29SAPC   H4Y 3905   6.395   1.212   6.956  2.1922 -0.7684 -0.5036
   29SAPC   C35 3906   6.392   1.207   7.174 -0.3171  0.2405  0.0960
   29SAPC   H5X 3907   6.282   1.222   7.176 -0.1718  1.7537 -1.4808
   29SAPC   H5Y 3908   6.444   1.251   7.263 -0.3160  0.2937  0.0689
   29SAPC   C36 3909   6.407   1.054   7.182 -0.4432 -0.0769 -0.6937
   29SAPC   H6X 3910   6.515   1.027   7.175 -0.1179  0.7288  0.8946
   29SAPC   H6Y 3911   6.362   0.998   7.096  2.1003 -0.4071 -1.9169
   29SAPC   C37 3912   6.352   0.999   7.314 -0.1301 -0.3947  0.0589
   29SAPC   H7X 3913   6.286   0.913   7.287  0.6401 -0.9998  0.0936
   29SAPC   H7Y 3914   6.290   1.083   7.354  1.5729  1.7999 -1.6337
   29SAPC   C38 3915   6.467   0.957   7.406  0.3053  0.0102  0.2269
   29SAPC   H8X 3916   6.560   1.013   7.386 -0.6885  1.8270  0.4503
   29SAPC   H8Y 3917   6.486   0.849   7.385 -0.6237 -0.4517  1.5791
   29SAPC   C39 3918   6.429   0.973   7.554 -0.0266  0.2580 -0.6238
   29SAPC   H9X 3919   6.404   1.074   7.594  0.6269 -0.5117  1.9774
   29SAPC   H9Y 3920   6.513   0.923   7.608  0.5353  0.2842 -1.4634
   29SAPC  C310 3921   6.298   0.896   7.581 -0.4330 -0.3709  0.1040
   29SAPC  H10X 3922   6.286   0.813   7.507 -0.5953  0.3714 -0.7126
   29SAPC  H10Y 3923   6.219   0.964   7.543  1.3778  1.3934 -0.6310
   29SAPC  C311 3924   6.287   0.852   7.722 -0.1873 -0.0722 -0.5767
   29SAPC  H11X 3925   6.384   0.833   7.772  0.2657  2.8197 -0.1874
   29SAPC  H11Y 3926   6.229   0.758   7.731 -0.3154  0.1352  0.9847
   29SAPC  C312 3927   6.212   0.950   7.808  0.1758  0.7899 -1.0524
   29SAPC  H12X 3928   6.109   0.971   7.772 -0.6815 -0.2795  0.6849
   29SAPC  H12Y 3929   6.267   1.047   7.805  0.2410  0.7762 -0.3913
   29SAPC  C313 3930   6.199   0.912   7.955  0.0589 -0.2542 -0.3735
   29SAPC  H13X 3931   6.294   0.920   8.012 -0.7910 -0.6042  1.1717
   29SAPC  H13Y 3932   6.170   0.805   7.965 -0.9905  0.1016  0.6293
   29SAPC  C314 3933   6.086   0.996   8.031  0.6330  0.5608 -0.1172
   29SAPC  H14X 3934   5.991   0.987   7.975 -0.3853 -0.3584  1.6496
   29SAPC  H14Y 3935   6.111   1.104   8.028 -0.0418  0.7264  0.0688
   29SAPC  C315 3936   6.078   0.934   8.175  0.3909 -0.9251 -0.0292
   29SAPC  H15X 3937   6.176   0.950   8.225  0.3661  0.3526 -0.3448
   29SAPC  H15Y 3938   6.039   0.830   8.166  2.1889 -1.6033 -0.4379
   29SAPC  C316 3939   5.975   1.013   8.250  0.8839  0.2449 -0.9951
   29SAPC  H16X 3940   5.876   1.030   8.204  0.2051  2.3305  1.0628
   29SAPC  H16Y 3941   6.003   1.119   8.268  1.2503 -0.3006  2.5105
   29SAPC  C317 3942   5.936   0.939   8.386 -0.5530 -0.3540  1.0639
   29SAPC  H17X 3943   6.031   0.940   8.444 -0.6061  0.1884  1.1526
   29SAPC  H17Y 3944   5.911   0.832   8.371 -1.5984 -0.0937  0.8652
   29SAPC  C318 3945   5.817   1.001   8.454 -0.9229  0.0198 -0.1003
   29SAPC  H18X 3946   5.846   1.103   8.488 -1.6553  1.2190 -2.7839
   29SAPC  H18Y 3947   5.805   0.950   8.552  0.2141 -2.1069 -1.0032
   29SAPC  H18Z 3948   5.723   1.001   8.395  0.0188  0.7343 -1.6554
   30SAPC     N 3949   1.453   2.741   6.187 -0.7438  0.0979  0.0618
   30SAPC   C12 3950   1.399   2.603   6.155  0.2264  0.2876 -0.2832
   30SAPC  H12A 3951   1.462   2.556   6.081  0.2249 -4.0512  2.1071
   30SAPC  H12B 3952   1.293   2.609   6.134  0.5417  1.4795 -1.6459
   30SAPC   C13 3953   1.429   2.830   6.069  0.6964  0.0364  1.0629
   30SAPC  H13A 3954   1.323   2.841   6.048  0.4482 -0.5107  1.9507
   30SAPC  H13B 3955   1.457   2.932   6.090 -2.2538  0.6758  2.3419
   30SAPC  H13C 3956   1.487   2.799   5.983  2.9017  1.2500  2.0571
   30SAPC   C14 3957   1.378   2.806   6.303  0.1095  0.2786  0.0787
   30SAPC  H14A 3958   1.424   2.900   6.328 -0.4214  1.1130 -1.8575
   30SAPC  H14B 3959   1.273   2.818   6.278  0.1318  2.3849  0.8861
   30SAPC  H14C 3960   1.378   2.730   6.380 -0.7007 -0.0555 -0.2353
   30SAPC   C15 3961   1.597   2.751   6.221 -0.1080 -0.0889  0.4183
   30SAPC  H15A 3962   1.658   2.713   6.140 -0.0037  1.3096 -0.1917
   30SAPC  H15B 3963   1.622   2.855   6.230 -1.4552  0.4699 -1.6874
   30SAPC  H15C 3964   1.631   2.697   6.308  0.7779 -0.6852 -0.2725
   30SAPC   C11 3965   1.407   2.499   6.270  0.1226 -0.7477  0.1400
   30SAPC  H11A 3966   1.358   2.407   6.231 -1.1992  0.9972 -2.5944
   30SAPC  H11B 3967   1.348   2.531   6.359 -0.2991 -2.0808  0.3674
   30SAPC     P 3968   1.622   2.354   6.291 -0.0419 -0.2260 -0.3121
   30SAPC   O13 3969   1.581   2.310   6.155  0.3366  0.8086  0.0380
   30SAPC   O14 3970   1.763   2.391   6.316 -0.2879 -0.3617  0.2244
   30SAPC   O12 3971   1.535   2.485   6.327 -0.0484 -0.2694  0.3211
   30SAPC   O11 3972   1.570   2.253   6.397  0.5749  0.0225  0.0762
   30SAPC    C1 3973   1.511   2.282   6.523  0.2312  0.2729  0.1491
   30SAPC    HA 3974   1.515   2.391   6.545 -1.6639  0.3194  0.4581
   30SAPC    HB 3975   1.403   2.253   6.520  0.2770  0.1641 -0.6225
   30SAPC    C2 3976   1.566   2.199   6.643  0.0204 -0.0208 -0.5986
   30SAPC    HS 3977   1.674   2.225   6.652 -0.1594  0.4456  0.3114
   30SAPC   O21 3978   1.558   2.058   6.613  0.1438 -0.2511 -0.3621
   30SAPC   C21 3979   1.623   1.974   6.692  0.0756 -0.1955 -0.3913
   30SAPC   O22 3980   1.692   1.998   6.791  0.4908 -0.0797 -0.1620
   30SAPC   C22 3981   1.624   1.842   6.625 -0.2219 -0.4846 -0.5966
   30SAPC   H2R 3982   1.523   1.796   6.625 -0.4259 -0.0466 -0.7776
   30SAPC   H2S 3983   1.642   1.853   6.516  0.6661  3.5212 -0.2142
   30SAPC    C3 3984   1.500   2.244   6.778  0.2889 -0.4277 -0.6531
   30SAPC    HX 3985   1.531   2.182   6.864 -0.1691  0.2580  0.0240
   30SAPC    HY 3986   1.391   2.227   6.764 -0.2028  1.6073  0.2661
   30SAPC   O31 3987   1.527   2.387   6.804  0.3082  0.3887  0.1322
   30SAPC   C31 3988   1.427   2.479   6.781 -0.7866  0.4286  0.7128
   30SAPC   O32 3989   1.318   2.454   6.733  0.0810 -0.1933 -0.4680
   30SAPC   C32 3990   1.476   2.614   6.831 -0.2183 -0.2481 -0.2656
   30SAPC   H2X 3991   1.493   2.677   6.741  2.6884 -2.0749 -1.1328
   30SAPC   H2Y 3992   1.570   2.598   6.888 -0.7947 -0.9405  0.5130
   30SAPC   C23 3993   1.733   1.748   6.688 -0.7191 -0.7968  0.1631
   30SAPC   H3R 3994   1.708   1.727   6.795 -1.2454  0.2537  0.2604
   30SAPC   H3S 3995   1.829   1.803   6.687 -1.7660  1.1658 -1.9355
   30SAPC   C24 3996   1.758   1.617   6.599 -0.0572 -0.1314 -0.1076
   30SAPC   H4R 3997   1.852   1.566   6.629 -1.0021 -0.4176  2.6267
   30SAPC   H4S 3998   1.784   1.644   6.494  4.1363 -1.5778  0.3424
   30SAPC   C25 3999   1.642   1.518   6.593  0.7159  0.1217 -0.1655
   30SAPC   H5R 4000   1.580   1.511   6.503  0.2701  1.1126  0.0495
   30SAPC   C26 4001   1.619   1.432   6.699 -0.7959 -0.0093 -0.8150
   30SAPC   H6R 4002   1.531   1.366   6.693 -0.9258  0.0388  0.3904
   30SAPC   C27 4003   1.689   1.400   6.830 -0.2534 -0.2620  0.1074
   30SAPC   H7R 4004   1.796   1.429   6.829 -0.2333 -0.0224  2.6327
   30SAPC   H7S 4005   1.684   1.289   6.843  0.2930 -0.1768  1.1921
   30SAPC   C28 4006   1.625   1.463   6.951  0.0725 -0.8177 -0.0851
   30SAPC   H8R 4007   1.521   1.436   6.973 -0.4926  0.2392 -1.3183
   30SAPC   C29 4008   1.680   1.551   7.035 -0.5351  0.3245 -0.2230
   30SAPC   H9R 4009   1.622   1.577   7.125 -0.7476 -0.7722 -0.0213
   30SAPC  C210 4010   1.816   1.618   7.028  0.2960 -0.0984 -0.1453
   30SAPC  H10R 4011   1.845   1.617   6.921  0.2112  0.8136 -0.1873
   30SAPC  H10S 4012   1.887   1.553   7.083  0.0992  0.1069  0.3558
   30SAPC  C211 4013   1.833   1.760   7.073  0.7842 -0.0671  0.0982
   30SAPC  H11R 4014   1.821   1.834   6.993  1.5283  0.2195  0.2358
   30SAPC  C212 4015   1.874   1.805   7.194 -0.7592 -0.0781 -0.6169
   30SAPC  H12R 4016   1.873   1.914   7.208  1.5819 -0.2721  1.8333
   30SAPC  C213 4017   1.915   1.736   7.319 -0.7044  0.1862 -0.0306
   30SAPC  H13R 4018   1.920   1.627   7.296 -2.7128 -0.0115  0.2300
   30SAPC  H13S 4019   1.836   1.747   7.397 -0.5766 -1.3719  0.3632
   30SAPC  C214 4020   2.046   1.791   7.371 -0.2713 -0.2753 -0.7106
   30SAPC  H14R 4021   2.120   1.803   7.291  0.8466 -3.3028 -0.2618
   30SAPC  C215 4022   2.091   1.810   7.494  0.5015  0.0178 -0.3637
   30SAPC  H15R 4023   2.188   1.861   7.504  0.0907  0.8332 -0.4818
   30SAPC  C216 4024   2.025   1.780   7.623 -0.3334  0.1354 -0.7638
   30SAPC  H16R 4025   2.098   1.728   7.688  0.8385 -1.5657 -3.2420
   30SAPC  H16S 4026   1.940   1.713   7.601 -0.0384 -0.4317 -0.1851
   30SAPC  C217 4027   1.985   1.906   7.697 -0.2454  0.9914 -0.1033
   30SAPC  H17R 4028   1.911   1.876   7.774 -1.7423 -2.0451 -2.4526
   30SAPC  H17S 4029   1.936   1.976   7.625 -0.0838  2.2258  0.9585
   30SAPC  C218 4030   2.105   1.982   7.769  0.4373  0.5299 -0.0684
   30SAPC  H18R 4031   2.167   2.032   7.692  1.6085  2.0122  1.7337
   30SAPC  H18S 4032   2.162   1.903   7.823  1.1659  0.3142 -1.1177
   30SAPC  C219 4033   2.058   2.091   7.860  0.4166  0.5862  0.0815
   30SAPC  H19R 4034   1.958   2.131   7.832  1.1528  0.7456 -2.5994
   30SAPC  H19S 4035   2.127   2.177   7.846  1.3229  0.0341  1.0502
   30SAPC  C220 4036   2.064   2.047   8.004 -0.4697  0.2339  0.0757
   30SAPC  H20R 4037   2.002   2.113   8.068 -2.6746 -0.4801 -1.2360
   30SAPC  H20S 4038   2.168   2.033   8.043 -0.9831  1.2345  1.9375
   30SAPC  H20T 4039   2.019   1.946   8.019  0.5216  0.0376  2.1936
   30SAPC   C33 4040   1.366   2.686   6.924 -1.0044  0.2178 -0.6016
   30SAPC   H3X 4041   1.265   2.706   6.881 -1.0289  1.1291 -0.1310
   30SAPC   H3Y 4042   1.405   2.787   6.947  1.0907 -1.1662  2.6933
   30SAPC   C34 4043   1.342   2.627   7.062 -0.1336 -0.3475 -0.1990
   30SAPC   H4X 4044   1.302   2.706   7.129  0.7672 -0.8481  0.9648
   30SAPC   H4Y 4045   1.436   2.590   7.109 -1.6096 -0.2062  3.1840
   30SAPC   C35 4046   1.239   2.513   7.076  0.1638 -0.1831  0.1753
   30SAPC   H5X 4047   1.258   2.438   6.995 -3.1321 -2.7823  1.5777
   30SAPC   H5Y 4048   1.139   2.546   7.041  1.4048  2.2795 -1.2988
   30SAPC   C36 4049   1.250   2.431   7.209 -0.3961 -0.1321 -0.4273
   30SAPC   H6X 4050   1.356   2.399   7.216 -0.5739 -0.5659  0.5056
   30SAPC   H6Y 4051   1.178   2.346   7.202 -0.9660  0.2029  0.9289
   30SAPC   C37 4052   1.220   2.517   7.332  0.5541 -0.5076 -0.2255
   30SAPC   H7X 4053   1.112   2.545   7.328  1.0241  2.2467  2.7128
   30SAPC   H7Y 4054   1.273   2.614   7.333 -0.9750  0.3660  0.4356
   30SAPC   C38 4055   1.252   2.448   7.461 -0.1048 -0.3054  0.3338
   30SAPC   H8X 4056   1.360   2.468   7.477 -0.0991  1.5689 -1.6707
   30SAPC   H8Y 4057   1.244   2.337   7.454  0.1421 -0.2316 -1.6452
   30SAPC   C39 4058   1.161   2.507   7.574  0.1438  0.3098 -0.7143
   30SAPC   H9X 4059   1.054   2.486   7.553 -0.3921  1.6818  0.5131
   30SAPC   H9Y 4060   1.167   2.617   7.574  0.6006  0.3206  1.2515
   30SAPC  C310 4061   1.189   2.461   7.716 -0.0127  0.4230  0.2581
   30SAPC  H10X 4062   1.201   2.353   7.696  1.2723  0.6115 -0.1214
   30SAPC  H10Y 4063   1.104   2.469   7.788 -0.4938  3.6335 -0.4905
   30SAPC  C311 4064   1.318   2.521   7.774  0.0312 -0.3016  0.0700
   30SAPC  H11X 4065   1.327   2.629   7.751 -1.1454 -0.2952 -0.4486
   30SAPC  H11Y 4066   1.403   2.469   7.726 -1.0900 -1.2399 -0.9823
   30SAPC  C312 4067   1.317   2.488   7.927  0.1085  0.3923 -0.0369
   30SAPC  H12X 4068   1.315   2.377   7.937  2.8670  0.1161 -1.4367
   30SAPC  H12Y 4069   1.231   2.536   7.977 -0.8713 -2.1401  0.9016
   30SAPC  C313 4070   1.446   2.542   7.982  0.6602  0.3340  0.1273
   30SAPC  H13X 4071   1.466   2.646   7.950  3.4597 -0.3904 -0.7815
   30SAPC  H13Y 4072   1.531   2.479   7.949  0.1701  0.3922 -1.3304
   30SAPC  C314 4073   1.444   2.539   8.131  0.6623 -0.6201 -0.6946
   30SAPC  H14X 4074   1.547   2.511   8.163  0.4578 -1.3278 -0.6389
   30SAPC  H14Y 4075   1.375   2.460   8.165 -0.3607  0.5144 -0.0519
   30SAPC  C315 4076   1.401   2.671   8.195 -0.2207  0.0007  0.4473
   30SAPC  H15X 4077   1.326   2.718   8.128 -1.3661 -2.4706 -0.0991
   30SAPC  H15Y 4078   1.491   2.737   8.199  1.3316 -1.9596 -0.5633
   30SAPC  C316 4079   1.338   2.648   8.334 -0.2880 -0.0887 -0.1872
   30SAPC  H16X 4080   1.405   2.598   8.407  0.1193  0.1613 -0.3859
   30SAPC  H16Y 4081   1.253   2.580   8.313 -0.3415 -0.2745  0.5936
   30SAPC  C317 4082   1.303   2.778   8.396  0.7023 -0.4285 -0.0052
   30SAPC  H17X 4083   1.211   2.814   8.345  0.7478  0.4627  0.5165
   30SAPC  H17Y 4084   1.380   2.856   8.381  1.4175 -1.2612 -0.7649
   30SAPC  C318 4085   1.270   2.772   8.554  0.8791  0.0859 -0.5527
   30SAPC  H18X 4086   1.351   2.716   8.606  0.8990 -1.4840 -2.1775
   30SAPC  H18Y 4087   1.171   2.727   8.576  0.7327  0.4884 -0.3798
   30SAPC  H18Z 4088   1.266   2.880   8.582 -2.2837 -0.2670  0.6607
   31SAPC     N 4089   4.990   3.435   6.672 -0.7464 -0.7622 -0.4410
   31SAPC   C12 4090   4.866   3.520   6.704 -0.3903  0.3287 -0.3280
   31SAPC  H12A 4091   4.814   3.475   6.787 -0.8615  1.2221 -0.1261
   31SAPC  H12B 4092   4.797   3.515   6.621  1.0307 -1.8602 -1.5118
   31SAPC   C13 4093   4.941   3.295   6.656  0.0381 -0.7174 -0.0508
   31SAPC  H13A 4094   4.927   3.244   6.751 -0.1217 -1.2011 -0.3270
   31SAPC  H13B 4095   4.847   3.287   6.604 -0.5618  1.1576  0.6709
   31SAPC  H13C 4096   5.014   3.233   6.605  1.6201  0.4227  0.7663
   31SAPC   C14 4097   5.052   3.494   6.544  0.9983 -0.7161 -0.0148
   31SAPC  H14A 4098   4.995   3.481   6.453 -0.3064  0.9764  0.4967
   31SAPC  H14B 4099   5.059   3.602   6.556 -0.2003 -0.6837  0.5976
   31SAPC  H14C 4100   5.149   3.455   6.520  2.6132  3.0864 -0.4700
   31SAPC   C15 4101   5.088   3.433   6.787  0.1211 -0.2135 -0.7115
   31SAPC  H15A 4102   5.040   3.385   6.872 -1.9479  2.5495 -0.1544
   31SAPC  H15B 4103   5.173   3.379   6.750  1.6812  2.3278 -1.0943
   31SAPC  H15C 4104   5.121   3.529   6.824  0.0444 -1.0084  1.5812
   31SAPC   C11 4105   4.872   3.668   6.744  0.1944 -0.5904 -0.6973
   31SAPC  H11A 4106   4.922   3.689   6.841 -1.3653 -2.4654  0.5938
   31SAPC  H11B 4107   4.764   3.693   6.754  0.3687 -0.2684  0.4836
   31SAPC     P 4108   4.860   3.809   6.530 -0.1275 -0.3251  0.2331
   31SAPC   O13 4109   4.947   3.912   6.459  0.1703 -0.0454 -0.4354
   31SAPC   O14 4110   4.798   3.698   6.455 -0.2811  0.1688 -0.6495
   31SAPC   O12 4111   4.943   3.748   6.648  0.0139 -0.5217  0.3891
   31SAPC   O11 4112   4.754   3.887   6.613 -0.9207 -0.0377 -0.3277
   31SAPC    C1 4113   4.769   4.019   6.670  0.5716 -0.1637  0.2095
   31SAPC    HA 4114   4.847   4.076   6.616 -0.8162 -0.4344 -2.2414
   31SAPC    HB 4115   4.670   4.069   6.672  0.6112 -0.0643  2.4721
   31SAPC    C2 4116   4.833   4.012   6.815  0.3394 -0.2638  0.6073
   31SAPC    HS 4117   4.930   3.959   6.803  1.0904  1.1429  0.2469
   31SAPC   O21 4118   4.738   3.947   6.907 -0.3898  0.9547  0.8244
   31SAPC   C21 4119   4.797   3.892   7.013 -0.1271  0.4745  0.1754
   31SAPC   O22 4120   4.917   3.908   7.044  0.2780  0.7924 -0.3720
   31SAPC   C22 4121   4.703   3.804   7.084  0.3870 -0.2308 -0.3242
   31SAPC   H2R 4122   4.704   3.848   7.186  1.2111  1.2387 -0.9492
   31SAPC   H2S 4123   4.600   3.802   7.043  0.3725 -1.6980 -0.2885
   31SAPC    C3 4124   4.877   4.154   6.868  0.2990  0.1677  0.7877
   31SAPC    HX 4125   4.945   4.182   6.785 -0.9652  0.6020 -0.1465
   31SAPC    HY 4126   4.941   4.143   6.958 -0.2366  2.7500  1.5649
   31SAPC   O31 4127   4.768   4.249   6.882 -0.3726 -0.8416 -0.1343
   31SAPC   C31 4128   4.710   4.258   7.001 -0.8294 -0.0762 -0.0966
   31SAPC   O32 4129   4.739   4.181   7.095  0.4675 -0.0766  0.0671
   31SAPC   C32 4130   4.624   4.385   7.004 -0.0263  0.0216 -0.8251
   31SAPC   H2X 4131   4.554   4.374   6.919  0.3022  0.0935 -1.1033
   31SAPC   H2Y 4132   4.696   4.467   6.984  0.7538 -0.2485  0.6867
   31SAPC   C23 4133   4.753   3.657   7.100 -0.1493 -0.7160  0.2039
   31SAPC   H3R 4134   4.854   3.661   7.147 -0.7985  0.2447  1.5490
   31SAPC   H3S 4135   4.773   3.626   6.995 -1.3853 -0.6174 -0.0702
   31SAPC   C24 4136   4.639   3.564   7.170  0.2508  1.0493 -0.4995
   31SAPC   H4R 4137   4.677   3.460   7.163  0.2507  0.8529  1.8625
   31SAPC   H4S 4138   4.549   3.566   7.104 -0.2815 -2.6138 -0.0916
   31SAPC   C25 4139   4.615   3.598   7.314 -0.3294 -0.1256 -0.3259
   31SAPC   H5R 4140   4.522   3.648   7.345 -1.2221 -1.6731 -0.4304
   31SAPC   C26 4141   4.699   3.570   7.414 -0.2498 -0.3553 -0.4260
   31SAPC   H6R 4142   4.669   3.595   7.516  0.0068  2.2390 -0.9331
   31SAPC   C27 4143   4.833   3.497   7.416 -0.7372 -0.1817 -0.0075
   31SAPC   H7R 4144   4.853   3.463   7.312 -1.4900 -1.4175  0.2233
   31SAPC   H7S 4145   4.825   3.400   7.469 -1.1159 -0.3526 -0.3679
   31SAPC   C28 4146   4.957   3.582   7.458  0.5793 -1.0617 -0.0218
   31SAPC   H8R 4147   5.013   3.633   7.378 -1.6109 -0.5782 -1.3564
   31SAPC   C29 4148   5.009   3.596   7.583 -0.5161 -0.1156  0.5359
   31SAPC   H9R 4149   5.112   3.633   7.594 -1.0923  1.4217  0.9972
   31SAPC  C210 4150   4.966   3.546   7.721  0.2461 -0.2567  0.7341
   31SAPC  H10R 4151   4.866   3.500   7.726 -0.3153  1.0296  2.2322
   31SAPC  H10S 4152   4.966   3.638   7.783  2.2401 -0.0468  0.5144
   31SAPC  C211 4153   5.061   3.441   7.779  0.7582 -0.1275 -0.1249
   31SAPC  H11R 4154   5.117   3.380   7.708  1.3301  1.3955 -1.0249
   31SAPC  C212 4155   5.092   3.441   7.914 -0.2272  0.1779  0.4664
   31SAPC  H12R 4156   5.167   3.368   7.947 -1.0364 -0.7518  0.2880
   31SAPC  C213 4157   5.034   3.525   8.032  0.4203 -0.3037 -0.4303
   31SAPC  H13R 4158   4.925   3.527   8.007  0.8832 -1.6178 -2.8837
   31SAPC  H13S 4159   5.068   3.630   8.021 -1.4675  0.2523 -1.4991
   31SAPC  C214 4160   5.061   3.462   8.170  0.2528  0.5423 -0.3761
   31SAPC  H14R 4161   5.159   3.416   8.188  0.1461  0.9879  1.4984
   31SAPC  C215 4162   4.974   3.458   8.278 -0.2962  0.1345 -0.8079
   31SAPC  H15R 4163   5.017   3.407   8.365  0.9551  1.5930 -0.5320
   31SAPC  C216 4164   4.840   3.522   8.283  0.5481  0.0182 -0.3381
   31SAPC  H16R 4165   4.764   3.447   8.312 -0.4398  0.8133 -0.8172
   31SAPC  H16S 4166   4.808   3.553   8.181 -1.2608 -0.3206  0.0961
   31SAPC  C217 4167   4.849   3.643   8.374  0.0917 -0.7923 -0.6059
   31SAPC  H17R 4168   4.748   3.689   8.378 -0.9860 -2.9128 -1.3484
   31SAPC  H17S 4169   4.926   3.714   8.337  0.8803 -1.9614 -1.2891
   31SAPC  C218 4170   4.890   3.616   8.518 -0.0331  0.5956  0.0911
   31SAPC  H18R 4171   4.995   3.579   8.511 -0.8474 -1.6212 -1.2729
   31SAPC  H18S 4172   4.827   3.530   8.550  0.8546  0.1476  0.6910
   31SAPC  C219 4173   4.852   3.722   8.625  0.7039  0.2813  0.0163
   31SAPC  H19R 4174   4.885   3.819   8.583  4.1623 -0.5908  0.3414
   31SAPC  H19S 4175   4.916   3.703   8.714 -0.1375 -1.1171  0.3537
   31SAPC  C220 4176   4.704   3.724   8.669 -0.7031  0.6446  0.3484
   31SAPC  H20R 4177   4.684   3.623   8.709  0.2032  1.1013  2.0852
   31SAPC  H20S 4178   4.645   3.767   8.585  0.0526 -0.5887 -0.8254
   31SAPC  H20T 4179   4.691   3.803   8.747  1.0466  1.5181 -0.2095
   31SAPC   C33 4180   4.553   4.403   7.141  0.3316  0.4347 -0.3548
   31SAPC   H3X 4181   4.532   4.304   7.186  0.4298  0.8291  0.5889
   31SAPC   H3Y 4182   4.458   4.457   7.120  0.4669  1.0600  0.6008
   31SAPC   C34 4183   4.636   4.494   7.227 -0.7097 -0.4346  0.0284
   31SAPC   H4X 4184   4.672   4.585   7.175 -0.2146 -1.7053 -1.9555
   31SAPC   H4Y 4185   4.727   4.437   7.255 -2.0694 -1.8365  1.7960
   31SAPC   C35 4186   4.561   4.528   7.357  0.3117  0.6211  0.8484
   31SAPC   H5X 4187   4.517   4.438   7.404  0.7774 -1.3984 -2.2638
   31SAPC   H5Y 4188   4.466   4.584   7.341 -0.7270 -0.8948  1.4468
   31SAPC   C36 4189   4.650   4.613   7.456  0.3522  0.0197 -0.0542
   31SAPC   H6X 4190   4.577   4.677   7.511  0.2120  0.0244 -0.2453
   31SAPC   H6Y 4191   4.723   4.675   7.399 -0.4125 -0.6398 -1.8209
   31SAPC   C37 4192   4.702   4.528   7.570 -0.2740 -0.6179  0.2851
   31SAPC   H7X 4193   4.761   4.442   7.533 -2.8635 -2.3560 -0.0915
   31SAPC   H7Y 4194   4.613   4.473   7.610 -0.2500  0.7595  2.3888
   31SAPC   C38 4195   4.760   4.622   7.671  0.3475  1.1520 -0.3679
   31SAPC   H8X 4196   4.682   4.699   7.691 -1.0329  0.3892 -2.4988
   31SAPC   H8Y 4197   4.834   4.683   7.615 -0.1578  0.6307 -1.6392
   31SAPC   C39 4198   4.798   4.565   7.808  0.5439  0.5640  0.4863
   31SAPC   H9X 4199   4.713   4.511   7.856  1.4245 -0.3947  1.0108
   31SAPC   H9Y 4200   4.822   4.650   7.875  0.1196  0.6130  0.5777
   31SAPC  C310 4201   4.919   4.466   7.803 -0.0636 -0.4294 -0.2331
   31SAPC  H10X 4202   4.992   4.522   7.742 -1.2500  1.4847  0.0262
   31SAPC  H10Y 4203   4.886   4.377   7.746  0.6368 -0.6845 -0.2522
   31SAPC  C311 4204   4.967   4.440   7.950  0.6780  0.4741  0.2687
   31SAPC  H11X 4205   4.889   4.388   8.008  2.0499 -1.1295  0.7473
   31SAPC  H11Y 4206   4.993   4.539   7.994  0.7534  2.0405 -3.0018
   31SAPC  C312 4207   5.097   4.357   7.953  0.2474  0.4607 -0.5666
   31SAPC  H12X 4208   5.168   4.385   7.872 -0.0741 -2.1598 -1.8346
   31SAPC  H12Y 4209   5.067   4.254   7.924 -1.5642  1.1428 -1.2902
   31SAPC  C313 4210   5.168   4.370   8.089 -0.0779  0.4315 -0.2730
   31SAPC  H13X 4211   5.103   4.358   8.179  2.5305  0.4182  1.7269
   31SAPC  H13Y 4212   5.215   4.471   8.088  0.9231  0.1138  2.8237
   31SAPC  C314 4213   5.275   4.258   8.112  0.0705 -0.2948 -0.4603
   31SAPC  H14X 4214   5.338   4.253   8.021 -1.0705  2.2284 -1.5027
   31SAPC  H14Y 4215   5.230   4.160   8.138 -1.4260  0.6213  0.5913
   31SAPC  C315 4216   5.372   4.294   8.227  0.1428  0.3145  0.5709
   31SAPC  H15X 4217   5.423   4.196   8.244 -2.1389 -1.1471 -0.4707
   31SAPC  H15Y 4218   5.303   4.318   8.310 -1.3014 -0.3272 -0.3839
   31SAPC  C316 4219   5.461   4.413   8.208 -0.2751  0.8805  0.3661
   31SAPC  H16X 4220   5.396   4.503   8.211 -1.0887  0.2672  2.0961
   31SAPC  H16Y 4221   5.513   4.419   8.109  1.7910  0.2722  1.3609
   31SAPC  C317 4222   5.559   4.429   8.318 -0.2223  0.0659  0.2124
   31SAPC  H17X 4223   5.615   4.334   8.326 -1.4512 -0.6964  0.0446
   31SAPC  H17Y 4224   5.503   4.446   8.413 -0.8410 -0.9216  0.0453
   31SAPC  C318 4225   5.651   4.548   8.317 -0.0666  0.8174  0.4506
   31SAPC  H18X 4226   5.692   4.560   8.419  0.9182 -3.7818  0.8249
   31SAPC  H18Y 4227   5.593   4.640   8.293  0.1838  1.0981  0.9170
   31SAPC  H18Z 4228   5.738   4.536   8.249  0.9452  0.3635  1.7976
   32SAPC     N 4229   3.184   2.897   6.076 -0.2305 -0.1502 -0.5163
   32SAPC   C12 4230   3.144   2.816   6.197 -0.4609  0.1279  0.3454
   32SAPC  H12A 4231   3.189   2.718   6.192 -0.3011 -0.0965  3.6704
   32SAPC  H12B 4232   3.037   2.822   6.201 -0.4195  0.7329  0.8341
   32SAPC   C13 4233   3.327   2.891   6.056 -0.5948  0.0747 -0.0108
   32SAPC  H13A 4234   3.355   2.932   5.960 -2.4104 -0.9945 -1.0639
   32SAPC  H13B 4235   3.384   2.940   6.132  0.8125 -0.5488 -0.6282
   32SAPC  H13C 4236   3.364   2.790   6.050  0.9892  0.6486 -0.3457
   32SAPC   C14 4237   3.122   2.843   5.951 -0.7756 -0.0133  0.3084
   32SAPC  H14A 4238   3.014   2.855   5.954 -0.8123  0.6211 -1.9256
   32SAPC  H14B 4239   3.161   2.890   5.862  1.4809  1.4999  1.9790
   32SAPC  H14C 4240   3.141   2.737   5.942 -0.5002  0.1518 -1.2868
   32SAPC   C15 4241   3.140   3.039   6.082 -0.2469  0.0140 -0.1894
   32SAPC  H15A 4242   3.147   3.093   5.989 -1.4154  1.8941  0.7588
   32SAPC  H15B 4243   3.038   3.048   6.115  0.0507  0.3605  0.6622
   32SAPC  H15C 4244   3.212   3.083   6.150 -0.0413 -0.7988  0.1359
   32SAPC   C11 4245   3.195   2.863   6.331  0.1381  0.3898  0.4915
   32SAPC  H11A 4246   3.303   2.874   6.309 -0.0619 -0.6175 -1.2555
   32SAPC  H11B 4247   3.179   2.777   6.400 -2.7700 -1.2765 -1.9468
   32SAPC     P 4248   3.183   3.056   6.498 -0.3074  0.2683  0.2931
   32SAPC   O13 4249   3.250   3.185   6.457 -0.4992  0.1768  0.0190
   32SAPC   O14 4250   3.062   3.073   6.582  0.0077 -0.5351  0.1680
   32SAPC   O12 4251   3.141   2.987   6.368 -0.7456 -0.4617  0.3393
   32SAPC   O11 4252   3.287   2.952   6.560 -0.1079 -0.3577 -0.3287
   32SAPC    C1 4253   3.256   2.846   6.651 -0.1155  0.2465 -0.4108
   32SAPC    HA 4254   3.148   2.837   6.675  0.2657 -1.5755  0.7990
   32SAPC    HB 4255   3.283   2.756   6.593  0.4502  1.2311 -1.7216
   32SAPC    C2 4256   3.336   2.863   6.784 -0.5009 -0.6266  0.7150
   32SAPC    HS 4257   3.299   2.786   6.855 -2.1092 -0.8530 -0.3101
   32SAPC   O21 4258   3.305   2.994   6.842  0.1811 -0.2767  0.2765
   32SAPC   C21 4259   3.196   2.998   6.911  0.5153 -0.0386 -0.0663
   32SAPC   O22 4260   3.116   2.906   6.930 -0.0233  0.5181 -0.1097
   32SAPC   C22 4261   3.176   3.139   6.976 -0.0164 -0.0148 -0.1250
   32SAPC   H2R 4262   3.165   3.215   6.896 -0.3889  1.0607  0.9079
   32SAPC   H2S 4263   3.078   3.132   7.028 -0.4121  1.7886 -0.5429
   32SAPC    C3 4264   3.494   2.853   6.766  0.4759  0.1956 -0.5778
   32SAPC    HX 4265   3.520   2.904   6.671  1.3406  0.8731  0.0014
   32SAPC    HY 4266   3.511   2.743   6.767  0.2277  0.1200  1.4928
   32SAPC   O31 4267   3.567   2.914   6.879 -0.3507 -0.3228 -1.0925
   32SAPC   C31 4268   3.555   2.854   6.998 -0.6555 -0.7302  0.3259
   32SAPC   O32 4269   3.514   2.739   7.015 -0.4611 -0.6102  0.4973
   32SAPC   C32 4270   3.596   2.957   7.103  0.5985 -0.3010  0.2270
   32SAPC   H2X 4271   3.560   3.060   7.083 -0.4352 -0.2156  2.2439
   32SAPC   H2Y 4272   3.707   2.947   7.103  0.6334  0.0010 -0.8407
   32SAPC   C23 4273   3.307   3.173   7.069 -0.4239 -1.5041  0.6085
   32SAPC   H3R 4274   3.397   3.155   7.006 -0.4371 -1.0042  0.4437
   32SAPC   H3S 4275   3.303   3.095   7.148 -2.2790 -2.9772 -0.8236
   32SAPC   C24 4276   3.282   3.313   7.129  0.5408 -0.4033  0.6284
   32SAPC   H4R 4277   3.292   3.376   7.038  2.4826  2.7616  2.8126
   32SAPC   H4S 4278   3.360   3.338   7.204 -0.2690  2.8807  0.5118
   32SAPC   C25 4279   3.151   3.329   7.207 -0.3186  0.9004  0.3814
   32SAPC   H5R 4280   3.065   3.354   7.142  0.1881 -0.5775 -0.9312
   32SAPC   C26 4281   3.133   3.312   7.341 -0.3885 -0.4527 -0.0487
   32SAPC   H6R 4282   3.035   3.335   7.384 -0.1560  0.2723  0.0967
   32SAPC   C27 4283   3.247   3.263   7.424 -0.1428 -0.7503 -0.0427
   32SAPC   H7R 4284   3.315   3.350   7.437 -1.7613  0.4601  0.7955
   32SAPC   H7S 4285   3.302   3.180   7.376 -0.4940 -0.9467 -0.1070
   32SAPC   C28 4286   3.198   3.199   7.555  0.6266 -0.7874  0.2030
   32SAPC   H8R 4287   3.149   3.101   7.543  0.8384 -0.6289 -2.9170
   32SAPC   C29 4288   3.219   3.253   7.677 -0.1116  0.4130 -0.6522
   32SAPC   H9R 4289   3.173   3.207   7.766 -1.0647  0.3199 -1.1795
   32SAPC  C210 4290   3.280   3.393   7.697  0.1744 -0.5017  0.5684
   32SAPC  H10R 4291   3.326   3.442   7.609  1.3938 -0.9722  0.9217
   32SAPC  H10S 4292   3.364   3.368   7.765  0.3208 -1.3344  0.1050
   32SAPC  C211 4293   3.170   3.482   7.759 -0.1382  0.5825  0.0481
   32SAPC  H11R 4294   3.077   3.499   7.701  0.9617  0.2970 -1.8858
   32SAPC  C212 4295   3.180   3.543   7.875 -0.4629 -0.0087  0.6654
   32SAPC  H12R 4296   3.095   3.607   7.905  0.3873  0.7534  1.5043
   32SAPC  C213 4297   3.291   3.526   7.968 -0.2677  0.2085  0.5818
   32SAPC  H13R 4298   3.386   3.533   7.912 -0.7527  2.0287 -0.0907
   32SAPC  H13S 4299   3.281   3.424   8.011  0.4159 -0.2314 -0.2909
   32SAPC  C214 4300   3.298   3.608   8.091 -0.1621  0.4406 -0.1484
   32SAPC  H14R 4301   3.266   3.709   8.061 -1.9285  0.2740  1.0444
   32SAPC  C215 4302   3.317   3.577   8.217  0.3119 -0.1115 -0.3036
   32SAPC  H15R 4303   3.299   3.657   8.289 -1.9112  0.4984 -1.4333
   32SAPC  C216 4304   3.347   3.439   8.285 -0.2689  0.1596  0.6469
   32SAPC  H16R 4305   3.447   3.405   8.253 -1.3575 -3.4936  0.7317
   32SAPC  H16S 4306   3.279   3.360   8.247  2.2814 -0.9532 -1.9100
   32SAPC  C217 4307   3.342   3.440   8.440 -0.4584 -0.6824  0.0591
   32SAPC  H17R 4308   3.376   3.338   8.469  0.2298  0.0191  1.8438
   32SAPC  H17S 4309   3.242   3.451   8.487 -0.6456  1.7997 -0.7614
   32SAPC  C218 4310   3.445   3.536   8.505 -0.2876 -0.2282  0.8231
   32SAPC  H18R 4311   3.382   3.623   8.535  1.2374  0.3209  2.6063
   32SAPC  H18S 4312   3.514   3.576   8.427 -2.1452  0.4286 -0.5606
   32SAPC  C219 4313   3.523   3.469   8.617 -0.4157 -0.0915 -0.2466
   32SAPC  H19R 4314   3.578   3.382   8.574 -2.1092 -0.8060 -1.0920
   32SAPC  H19S 4315   3.451   3.434   8.695 -0.4313 -0.8700 -0.5985
   32SAPC  C220 4316   3.623   3.562   8.683 -0.6835  0.4269  0.6967
   32SAPC  H20R 4317   3.692   3.607   8.607  0.8389 -0.2816  1.6068
   32SAPC  H20S 4318   3.689   3.509   8.755 -0.1090 -2.8262 -1.9731
   32SAPC  H20T 4319   3.584   3.651   8.737 -1.4285 -0.9661  2.5555
   32SAPC   C33 4320   3.536   2.909   7.243  0.3032 -0.2208 -0.2450
   32SAPC   H3X 4321   3.579   2.811   7.274  2.0164  0.4967 -0.2347
   32SAPC   H3Y 4322   3.426   2.898   7.239 -0.0689  1.5781  2.4760
   32SAPC   C34 4323   3.582   3.009   7.349 -0.0030  0.3553  0.1679
   32SAPC   H4X 4324   3.545   3.113   7.332 -1.6968  0.1285  2.1060
   32SAPC   H4Y 4325   3.692   3.016   7.365  0.0831  0.3387 -0.4170
   32SAPC   C35 4326   3.506   2.982   7.484 -0.2510 -0.0937  0.5217
   32SAPC   H5X 4327   3.541   2.882   7.518  3.1120 -1.1920 -4.9307
   32SAPC   H5Y 4328   3.395   2.975   7.477 -0.2772  0.0417  0.7785
   32SAPC   C36 4329   3.548   3.094   7.587  0.3107 -0.1537  0.3690
   32SAPC   H6X 4330   3.497   3.190   7.566 -0.6053 -0.7146 -0.0636
   32SAPC   H6Y 4331   3.658   3.103   7.573 -0.0744  0.5055 -3.6178
   32SAPC   C37 4332   3.520   3.054   7.733  0.3035 -0.5977  0.1424
   32SAPC   H7X 4333   3.555   2.951   7.756  2.8969  0.1398 -0.1912
   32SAPC   H7Y 4334   3.411   3.039   7.747  0.5026 -0.9911  1.4039
   32SAPC   C38 4335   3.590   3.134   7.839  0.2208 -0.4560 -0.0089
   32SAPC   H8X 4336   3.547   3.236   7.842  1.9172  0.2748  0.9949
   32SAPC   H8Y 4337   3.697   3.143   7.809  0.1918 -2.0442 -0.6800
   32SAPC   C39 4338   3.567   3.070   7.981  0.1809 -0.4216 -0.4423
   32SAPC   H9X 4339   3.644   3.105   8.053 -1.6310  0.4547  1.1580
   32SAPC   H9Y 4340   3.594   2.962   7.975  0.1193 -0.4193 -0.7645
   32SAPC  C310 4341   3.424   3.075   8.050 -0.3491 -0.7756 -0.1663
   32SAPC  H10X 4342   3.350   3.043   7.974 -0.0239 -0.0631 -0.7991
   32SAPC  H10Y 4343   3.397   3.179   8.079  0.2377 -0.8866  0.8244
   32SAPC  C311 4344   3.410   2.993   8.177  0.3408 -1.0025  0.0280
   32SAPC  H11X 4345   3.437   2.891   8.141  0.4376  0.0743 -3.2727
   32SAPC  H11Y 4346   3.301   2.995   8.200 -0.2255 -1.7643 -2.3748
   32SAPC  C312 4347   3.486   3.058   8.289 -0.1489  0.1637  0.2314
   32SAPC  H12X 4348   3.465   3.165   8.310 -0.4937  0.0501  0.4677
   32SAPC  H12Y 4349   3.595   3.040   8.280 -0.6401 -1.9456 -2.8054
   32SAPC  C313 4350   3.439   2.979   8.411 -0.1408 -0.2271  0.1316
   32SAPC  H13X 4351   3.478   2.875   8.403  0.0655 -0.1395 -0.0174
   32SAPC  H13Y 4352   3.329   2.967   8.420 -0.1224  0.1599  1.0215
   32SAPC  C314 4353   3.504   3.026   8.547  0.1748  0.2158 -0.4215
   32SAPC  H14X 4354   3.428   3.083   8.603 -0.3106  0.1292 -0.9768
   32SAPC  H14Y 4355   3.592   3.092   8.530 -0.9610  2.0067  0.4063
   32SAPC  C315 4356   3.564   2.918   8.639 -0.8334  0.3505 -0.3836
   32SAPC  H15X 4357   3.644   2.851   8.601 -0.2448 -0.0367  1.4626
   32SAPC  H15Y 4358   3.482   2.846   8.658 -0.3209 -0.3108 -0.6337
   32SAPC  C316 4359   3.628   2.967   8.769 -0.1909  0.4362  0.2094
   32SAPC  H16X 4360   3.540   3.000   8.829 -0.9987 -0.8180 -0.2464
   32SAPC  H16Y 4361   3.693   3.056   8.755  0.6332 -0.2978 -0.7580
   32SAPC  C317 4362   3.686   2.853   8.853 -0.3642 -0.4456  0.3028
   32SAPC  H17X 4363   3.745   2.797   8.777  1.4994  0.4209  1.0605
   32SAPC  H17Y 4364   3.606   2.794   8.903  0.4377 -2.6337 -0.8425
   32SAPC  C318 4365   3.776   2.910   8.958 -0.5833 -0.1715  0.5713
   32SAPC  H18X 4366   3.795   2.833   9.036  1.2073  0.0250  0.3682
   32SAPC  H18Y 4367   3.727   2.997   9.005 -2.0983 -0.3038 -0.6545
   32SAPC  H18Z 4368   3.872   2.947   8.918 -1.2688 -0.0235 -1.0527
   33POPC     N 4369   6.772   5.878  11.046  0.3459  0.5853 -0.0111
   33POPC   C12 4370   6.716   5.991  10.969 -0.4903 -0.3266 -0.5582
   33POPC  H12A 4371   6.806   6.047  10.949 -0.3834 -0.6718 -1.0440
   33POPC  H12B 4372   6.650   6.059  11.021  2.9518  3.1848 -0.2760
   33POPC   C13 4373   6.676   5.764  11.066  0.2550 -0.3447 -0.7365
   33POPC  H13A 4374   6.582   5.800  11.107  0.0889 -1.1783 -0.3385
   33POPC  H13B 4375   6.649   5.704  10.980 -1.2276  0.7825 -1.1100
   33POPC  H13C 4376   6.708   5.689  11.137 -0.9421 -1.0606 -0.9232
   33POPC   C14 4377   6.889   5.817  10.980 -0.3160  0.3255  0.6878
   33POPC  H14A 4378   6.855   5.766  10.891 -0.8242 -0.1711  1.1630
   33POPC  H14B 4379   6.966   5.892  10.963 -0.8377  0.1855 -3.2796
   33POPC  H14C 4380   6.931   5.732  11.031  0.0802  0.0993  0.0062
   33POPC   C15 4381   6.822   5.933  11.179 -0.3902 -0.0887 -0.4080
   33POPC  H15A 4382   6.893   5.866  11.224 -1.9627 -1.1640  0.5839
   33POPC  H15B 4383   6.740   5.950  11.248 -0.4049  0.4266 -0.5501
   33POPC  H15C 4384   6.875   6.026  11.169  0.7688 -0.6885  0.0008
   33POPC   C11 4385   6.657   5.969  10.825  0.1631  0.5315 -0.3766
   33POPC  H11A 4386   6.725   5.926  10.748  2.9826  4.2984 -0.2780
   33POPC  H11B 4387   6.654   6.072  10.783  2.1656  1.9762  2.6631
   33POPC     P 4388   6.494   5.796  10.712 -0.0934  0.0546  0.2573
   33POPC   O13 4389   6.349   5.780  10.720  0.2147 -0.4272 -0.4994
   33POPC   O14 4390   6.577   5.676  10.731 -0.1434  0.3217 -0.0736
   33POPC   O12 4391   6.535   5.905  10.829 -0.7232 -0.1789  0.4935
   33POPC   O11 4392   6.544   5.870  10.579  0.3324  0.0468 -0.3930
   33POPC    C1 4393   6.495   6.002  10.543  0.5604 -0.2069 -0.2186
   33POPC    HA 4394   6.387   6.004  10.517  0.9295 -1.3131 -1.9923
   33POPC    HB 4395   6.512   6.075  10.625 -2.7146 -1.0570  1.3848
   33POPC    C2 4396   6.567   6.061  10.421  0.6438 -0.2047  0.1351
   33POPC    HS 4397   6.536   6.168  10.417 -0.0523 -0.2381  2.6403
   33POPC   O21 4398   6.536   5.985  10.300  0.3339 -0.1343  0.1157
   33POPC   C21 4399   6.471   6.052  10.207 -0.2943 -0.1649  0.4404
   33POPC   O22 4400   6.446   6.171  10.205  0.9281  0.0231 -0.2989
   33POPC   C22 4401   6.437   5.959  10.094 -0.0169  0.9165 -0.0907
   33POPC   H2R 4402   6.333   5.922  10.107  1.0521 -2.1204  0.6237
   33POPC   H2S 4403   6.493   5.864  10.107  2.6245  2.3102 -0.6672
   33POPC    C3 4404   6.722   6.064  10.443  0.6346  0.7373  0.7885
   33POPC    HX 4405   6.756   5.958  10.449  0.4020  0.6221  0.2392
   33POPC    HY 4406   6.757   6.105  10.540 -1.4804 -2.5671  3.1767
   33POPC   O31 4407   6.789   6.115  10.329 -0.4560 -0.1081  0.2751
   33POPC   C31 4408   6.779   6.249  10.309  0.5847 -0.5319  0.1564
   33POPC   O32 4409   6.704   6.327  10.360  0.0446  0.8012  0.0075
   33POPC   C32 4410   6.886   6.286  10.208  0.4414  0.1418 -0.1786
   33POPC   H2X 4411   6.980   6.266  10.265  1.5899  0.1096 -1.9881
   33POPC   H2Y 4412   6.891   6.395  10.185  3.0009  0.0975 -0.1539
   33POPC   C23 4413   6.439   6.025   9.955  0.0058  0.8843  0.1279
   33POPC   H3R 4414   6.527   6.090   9.939 -1.4887  2.4115 -2.6227
   33POPC   H3S 4415   6.344   6.083   9.949 -0.8869 -0.4587  0.7407
   33POPC   C24 4416   6.431   5.925   9.844 -0.9258 -0.2652  0.2332
   33POPC   H4R 4417   6.349   5.854   9.869  0.6261 -0.6895  5.2930
   33POPC   H4S 4418   6.516   5.855   9.849  0.1320  0.8677 -1.1820
   33POPC   C25 4419   6.400   5.994   9.709 -0.1713 -0.5262  0.2135
   33POPC   H5R 4420   6.471   6.075   9.682  0.0636 -0.3859  1.2220
   33POPC   H5S 4421   6.305   6.052   9.714  1.2836  2.0288  0.0395
   33POPC   C26 4422   6.383   5.897   9.589  0.6555 -0.3682  0.2697
   33POPC   H6R 4423   6.321   5.809   9.615 -0.5416  0.3703  0.0487
   33POPC   H6S 4424   6.483   5.853   9.570  0.8531 -0.6217  1.7865
   33POPC   C27 4425   6.331   5.961   9.454 -0.1543 -0.8318 -0.2918
   33POPC   H7R 4426   6.356   5.891   9.371  2.0023 -0.4262 -0.0612
   33POPC   H7S 4427   6.381   6.059   9.433  0.6774 -1.2724 -0.4308
   33POPC   C28 4428   6.174   5.971   9.453  0.3881 -0.5989 -0.5548
   33POPC   H8R 4429   6.151   6.047   9.531 -0.0312 -1.3090  0.0281
   33POPC   H8S 4430   6.129   5.872   9.474  0.4884 -1.1063 -2.5999
   33POPC   C29 4431   6.130   6.020   9.317  0.5569 -0.6393  0.2078
   33POPC   H91 4432   6.166   6.121   9.293  1.2283 -0.7403  0.7614
   33POPC  C210 4433   6.069   5.958   9.214 -0.4737  0.4324  0.3717
   33POPC  H101 4434   6.057   6.012   9.119 -1.9622  0.1919  0.3944
   33POPC  C211 4435   6.017   5.812   9.215 -0.3130 -0.4934  0.4023
   33POPC  H11R 4436   6.047   5.767   9.312 -2.3492  1.0582  1.8536
   33POPC  H11S 4437   6.066   5.757   9.131  0.6423  1.4876 -0.4170
   33POPC  C212 4438   5.867   5.815   9.183 -0.0824  0.1283 -0.5076
   33POPC  H12R 4439   5.811   5.865   9.264  0.4562 -1.5223  0.9535
   33POPC  H12S 4440   5.846   5.706   9.178  1.9608 -0.2662 -1.4038
   33POPC  C213 4441   5.825   5.868   9.047 -0.9423 -0.3595  0.3385
   33POPC  H13R 4442   5.898   5.820   8.979  0.0406  0.3199  0.8804
   33POPC  H13S 4443   5.843   5.978   9.049 -2.0163 -0.1449 -0.7660
   33POPC  C214 4444   5.684   5.862   9.003 -0.3638  0.5391 -0.0415
   33POPC  H14R 4445   5.651   5.941   8.933  0.7774  2.3695  1.3983
   33POPC  H14S 4446   5.613   5.869   9.088 -2.4751 -1.4999 -1.5221
   33POPC  C215 4447   5.654   5.722   8.938 -0.7324  0.3938 -0.1084
   33POPC  H15R 4448   5.674   5.644   9.015 -0.2390 -0.5271 -1.1361
   33POPC  H15S 4449   5.725   5.705   8.855 -0.3099 -2.7264  0.7393
   33POPC  C216 4450   5.502   5.707   8.900  0.1221  0.5961  0.3112
   33POPC  H16R 4451   5.501   5.623   8.827 -0.9897  1.7749 -1.1078
   33POPC  H16S 4452   5.468   5.800   8.850  0.1960  0.4234 -0.0659
   33POPC  C217 4453   5.398   5.679   9.012 -0.0968 -0.0213 -0.8304
   33POPC  H17R 4454   5.295   5.701   8.979 -0.0079 -1.8567 -2.4529
   33POPC  H17S 4455   5.420   5.738   9.104  1.2148  2.1236 -2.4139
   33POPC  C218 4456   5.396   5.530   9.073  0.6887  0.3622 -0.5121
   33POPC  H18R 4457   5.334   5.501   9.160  1.4130 -0.2659 -0.2005
   33POPC  H18S 4458   5.501   5.510   9.103  1.2865  1.7811 -1.5261
   33POPC  H18T 4459   5.369   5.459   8.991  0.4548  0.3679 -0.4414
   33POPC   C33 4460   6.881   6.203  10.079  0.3926  0.0988  0.4415
   33POPC   H3X 4461   6.853   6.098  10.099  0.2338 -0.2794 -1.5955
   33POPC   H3Y 4462   6.984   6.197  10.038  0.4613 -2.7566  0.8455
   33POPC   C34 4463   6.782   6.261   9.973 -0.4126  0.6527 -0.2962
   33POPC   H4X 4464   6.802   6.370   9.966 -1.3905  1.0702  2.4489
   33POPC   H4Y 4465   6.685   6.248  10.026  0.9207 -3.5724  1.5269
   33POPC   C35 4466   6.771   6.184   9.838 -0.0982 -0.1600  0.0365
   33POPC   H5X 4467   6.682   6.221   9.782  1.6767  0.6011 -2.4847
   33POPC   H5Y 4468   6.767   6.073   9.847  0.1986 -0.2288 -0.5777
   33POPC   C36 4469   6.886   6.229   9.741  1.4743 -0.5874 -0.3980
   33POPC   H6X 4470   6.980   6.213   9.798  0.1705 -0.7930  1.8189
   33POPC   H6Y 4471   6.861   6.335   9.719  0.9374  0.0622  2.7423
   33POPC   C37 4472   6.889   6.145   9.615 -0.1420  0.0454 -0.3368
   33POPC   H7X 4473   6.913   6.040   9.641  2.9236  0.2964 -1.7434
   33POPC   H7Y 4474   6.959   6.192   9.542 -0.3183 -1.3233 -1.4405
   33POPC   C38 4475   6.755   6.153   9.541 -1.0178 -0.2708 -0.1756
   33POPC   H8X 4476   6.700   6.247   9.565  0.0082  0.3755 -0.3221
   33POPC   H8Y 4477   6.696   6.069   9.586 -0.1514 -0.0017  1.5485
   33POPC   C39 4478   6.769   6.154   9.390 -0.9031  0.0780 -0.0301
   33POPC   H9X 4479   6.845   6.081   9.357 -2.1172 -0.6699 -1.2852
   33POPC   H9Y 4480   6.816   6.252   9.364  0.3456 -0.7865 -1.1345
   33POPC  C310 4481   6.640   6.109   9.312  0.4193 -0.5654  0.5672
   33POPC  H10X 4482   6.564   6.186   9.337  0.5648  0.2116 -1.2554
   33POPC  H10Y 4483   6.598   6.015   9.352  2.1640 -2.2592 -1.3696
   33POPC  C311 4484   6.647   6.097   9.162 -0.5849 -0.3092 -0.0160
   33POPC  H11X 4485   6.682   5.997   9.130 -0.6199  0.0886 -1.3775
   33POPC  H11Y 4486   6.715   6.174   9.121 -0.6706 -1.2013 -1.9572
   33POPC  C312 4487   6.511   6.094   9.082 -0.0957  0.7318 -0.3541
   33POPC  H12X 4488   6.423   6.058   9.139 -2.1705  0.2183 -3.6253
   33POPC  H12Y 4489   6.520   6.032   8.991 -2.4617 -0.8122  0.3527
   33POPC  C313 4490   6.468   6.228   9.028 -0.0365  0.0685 -0.3681
   33POPC  H13X 4491   6.546   6.272   8.962  0.8549  2.0655  1.8783
   33POPC  H13Y 4492   6.463   6.289   9.120 -3.2858 -1.5607  0.6714
   33POPC  C314 4493   6.337   6.219   8.956 -0.3996 -0.4190 -0.5696
   33POPC  H14X 4494   6.272   6.302   8.992 -0.2182  0.5288 -2.3106
   33POPC  H14Y 4495   6.281   6.127   8.984 -0.3939 -0.3615 -0.3631
   33POPC  C315 4496   6.341   6.235   8.799  0.2759 -0.2964  0.0766
   33POPC  H15X 4497   6.421   6.163   8.769  1.8414  1.2699  0.3193
   33POPC  H15Y 4498   6.368   6.337   8.766  1.6998 -0.3838  0.9196
   33POPC  C316 4499   6.205   6.210   8.734 -0.6115  0.5424  0.2951
   33POPC  H16X 4500   6.138   6.298   8.746 -1.6024 -0.1017 -0.3147
   33POPC  H16Y 4501   6.159   6.123   8.786  0.0460 -0.2534 -0.4298
   33POPC  H16Z 4502   6.223   6.186   8.627 -0.1681  3.0011 -0.2492
   34POPC     N 4503   0.599   5.435  10.533  0.3107  0.1347 -0.5968
   34POPC   C12 4504   0.517   5.499  10.421  0.0278 -0.4010 -0.0795
   34POPC  H12A 4505   0.492   5.427  10.344  2.4066 -0.0688 -1.2610
   34POPC  H12B 4506   0.583   5.575  10.381 -2.0566  1.6984  0.2598
   34POPC   C13 4507   0.529   5.327  10.602  0.5040  0.0052 -0.1660
   34POPC  H13A 4508   0.514   5.253  10.525  0.9551  0.4836 -0.7159
   34POPC  H13B 4509   0.589   5.305  10.689  2.3464  1.0301 -1.1300
   34POPC  H13C 4510   0.430   5.350  10.639  0.4970  0.0444 -0.2081
   34POPC   C14 4511   0.720   5.374  10.471 -0.1473 -0.5602 -0.7772
   34POPC  H14A 4512   0.776   5.449  10.417 -2.0601  1.0605 -0.6365
   34POPC  H14B 4513   0.786   5.322  10.539 -0.2262 -1.4721 -1.3819
   34POPC  H14C 4514   0.691   5.296  10.403 -0.2999 -0.5667 -0.7058
   34POPC   C15 4515   0.637   5.532  10.641  0.5242  0.1497  1.2269
   34POPC  H15A 4516   0.718   5.506  10.707  2.1437  0.7060 -0.4203
   34POPC  H15B 4517   0.551   5.560  10.700 -0.3375 -0.1177  0.1334
   34POPC  H15C 4518   0.675   5.621  10.592  0.5010 -0.8343 -0.6738
   34POPC   C11 4519   0.390   5.573  10.460 -0.4220 -0.2005  0.4124
   34POPC  H11A 4520   0.355   5.622  10.366 -1.6888  0.9178  1.4314
   34POPC  H11B 4521   0.428   5.661  10.516 -1.1013  0.6513 -0.4266
   34POPC     P 4522   0.192   5.412  10.476 -0.0453  0.3629  0.2777
   34POPC   O13 4523   0.060   5.438  10.547  0.3417  0.0754  0.8076
   34POPC   O14 4524   0.249   5.277  10.492 -0.1041  0.8621 -0.8772
   34POPC   O12 4525   0.290   5.515  10.534  0.3317  0.3725  0.3629
   34POPC   O11 4526   0.184   5.447  10.316 -0.4926  0.0826  0.7917
   34POPC    C1 4527   0.070   5.453  10.237  0.2996 -0.0218  0.2531
   34POPC    HA 4528   0.101   5.504  10.144 -1.2934  2.4346  0.9827
   34POPC    HB 4529  -0.012   5.514  10.281 -1.0018 -1.2992 -0.2940
   34POPC    C2 4530   0.012   5.318  10.196  0.1151  0.1990 -0.5317
   34POPC    HS 4531  -0.040   5.281  10.287 -1.4243 -0.7385 -1.7430
   34POPC   O21 4532   0.130   5.237  10.159  0.5529  0.0316 -0.2743
   34POPC   C21 4533   0.101   5.122  10.110  0.4974  0.2714 -0.1976
   34POPC   O22 4534   0.001   5.056  10.143  0.8473  0.1255 -0.0882
   34POPC   C22 4535   0.208   5.071  10.011 -0.5633 -0.0571 -0.3976
   34POPC   H2R 4536   0.180   4.969   9.977  0.9812 -0.5896 -0.1311
   34POPC   H2S 4537   0.304   5.064  10.066 -1.1964  0.3558  0.7863
   34POPC    C3 4538  -0.102   5.339  10.080 -0.3103 -0.0239  0.2303
   34POPC    HX 4539  -0.154   5.243  10.058  0.5611 -0.1639 -1.3088
   34POPC    HY 4540  -0.048   5.375   9.990 -1.2766  2.2944  0.4962
   34POPC   O31 4541  -0.196   5.447  10.113  0.1087 -0.5596 -0.0683
   34POPC   C31 4542  -0.289   5.426  10.208  0.1187 -0.1865 -0.7674
   34POPC   O32 4543  -0.298   5.323  10.269  0.5874  0.2937  0.4157
   34POPC   C32 4544  -0.379   5.545  10.221 -0.7733 -0.5066 -0.4450
   34POPC   H2X 4545  -0.427   5.566  10.123 -1.4677  0.5150  0.0904
   34POPC   H2Y 4546  -0.309   5.628  10.248 -0.0959 -1.7528  1.8848
   34POPC   C23 4547   0.228   5.171   9.896  0.4909  0.5311  0.5567
   34POPC   H3R 4548   0.323   5.149   9.842  0.4907  0.4601  0.5853
   34POPC   H3S 4549   0.244   5.274   9.935  1.0800  0.3462  0.8172
   34POPC   C24 4550   0.110   5.170   9.790 -0.5434  0.5372 -0.8445
   34POPC   H4R 4551   0.016   5.198   9.843  0.3052 -0.6445  1.4205
   34POPC   H4S 4552   0.093   5.063   9.770 -1.3447  0.2705  1.0392
   34POPC   C25 4553   0.126   5.259   9.665 -0.3659  0.2141 -0.0662
   34POPC   H5R 4554   0.234   5.268   9.638  0.1928 -1.3015  1.3901
   34POPC   H5S 4555   0.107   5.364   9.696  0.6841  0.3464  0.1932
   34POPC   C26 4556   0.049   5.197   9.551 -0.2768  0.5089 -0.0171
   34POPC   H6R 4557  -0.058   5.198   9.579  0.0404  2.3236  1.2941
   34POPC   H6S 4558   0.084   5.092   9.542 -0.1219  0.6222 -0.7818
   34POPC   C27 4559   0.064   5.249   9.411 -0.2082 -0.2277  1.0368
   34POPC   H7R 4560   0.168   5.239   9.373 -0.6471  3.4358 -1.7971
   34POPC   H7S 4561   0.037   5.357   9.419 -0.0219 -0.0790 -0.0918
   34POPC   C28 4562  -0.017   5.170   9.304 -0.3464 -0.6242  0.3074
   34POPC   H8R 4563   0.000   5.062   9.318  0.2903 -0.6384 -0.5009
   34POPC   H8S 4564   0.027   5.195   9.205  2.4537  2.2887  2.0873
   34POPC   C29 4565  -0.163   5.209   9.311  0.1874 -0.4344 -0.3590
   34POPC   H91 4566  -0.187   5.316   9.316  0.5633 -0.4276  2.9303
   34POPC  C210 4567  -0.263   5.122   9.307  0.5593 -0.3794 -0.1586
   34POPC  H101 4568  -0.361   5.168   9.323  1.0364  0.3916  0.6648
   34POPC  C211 4569  -0.258   4.970   9.298 -0.2048  0.3795 -0.8166
   34POPC  H11R 4570  -0.186   4.934   9.221  1.1011 -0.8973  0.9180
   34POPC  H11S 4571  -0.357   4.924   9.275  0.6893 -2.7467  1.0267
   34POPC  C212 4572  -0.231   4.912   9.439  0.2274 -0.5391 -0.2081
   34POPC  H12R 4573  -0.327   4.912   9.495 -2.1272 -1.0858 -3.9220
   34POPC  H12S 4574  -0.148   4.958   9.496 -0.1552 -1.9079  1.5401
   34POPC  C213 4575  -0.177   4.770   9.442 -0.1642  0.0815  0.1692
   34POPC  H13R 4576  -0.075   4.764   9.399  0.2748 -1.1710  1.3121
   34POPC  H13S 4577  -0.244   4.709   9.377  0.7652 -1.8611  0.9458
   34POPC  C214 4578  -0.174   4.708   9.582  0.1879 -0.4273 -0.2501
   34POPC  H14R 4579  -0.195   4.602   9.560  0.0994  0.0183 -2.5202
   34POPC  H14S 4580  -0.252   4.763   9.640  0.2319 -1.1643  0.5285
   34POPC  C215 4581  -0.045   4.716   9.655 -0.6522  0.5058 -0.2848
   34POPC  H15R 4582   0.014   4.809   9.640 -0.0266  0.7774  3.0771
   34POPC  H15S 4583   0.032   4.641   9.626 -1.7873 -0.3102 -1.2310
   34POPC  C216 4584  -0.079   4.690   9.797 -0.7596  0.1382 -0.8485
   34POPC  H16R 4585  -0.134   4.594   9.807 -0.9886  0.2446 -1.0721
   34POPC  H16S 4586  -0.143   4.772   9.837  1.8835  1.1674  1.5701
   34POPC  C217 4587   0.046   4.713   9.891  0.4359 -0.1445  0.3853
   34POPC  H17R 4588   0.095   4.808   9.860 -0.7289  1.1391  2.2615
   34POPC  H17S 4589   0.118   4.629   9.877  1.4345  0.4480  1.6922
   34POPC  C218 4590   0.012   4.717  10.043 -0.1875  0.2394  0.0077
   34POPC  H18R 4591  -0.013   4.615  10.081 -0.3412 -0.0239 -0.7795
   34POPC  H18S 4592  -0.087   4.768  10.044 -0.8158 -0.9468  0.8045
   34POPC  H18T 4593   0.084   4.769  10.109 -0.8637  0.6345  0.4447
   34POPC   C33 4594  -0.493   5.532  10.325 -0.3248 -0.4767 -0.3028
   34POPC   H3X 4595  -0.451   5.513  10.426 -0.7024  2.1689  0.4396
   34POPC   H3Y 4596  -0.557   5.447  10.293  0.5524 -0.3949 -2.3824
   34POPC   C34 4597  -0.566   5.669  10.337 -0.0651 -0.5219 -0.5558
   34POPC   H4X 4598  -0.493   5.750  10.360 -1.1829  0.6450 -0.9776
   34POPC   H4Y 4599  -0.627   5.673  10.429 -1.5718 -1.5412 -1.4738
   34POPC   C35 4600  -0.650   5.703  10.212  0.4107 -0.1189 -0.1555
   34POPC   H5X 4601  -0.698   5.609  10.175 -2.1003  0.8990  0.3204
   34POPC   H5Y 4602  -0.583   5.728  10.127 -0.8759  0.9758 -0.8928
   34POPC   C36 4603  -0.739   5.827  10.219 -0.3088 -0.3455  0.2987
   34POPC   H6X 4604  -0.672   5.915  10.219 -0.3099 -0.2789 -2.1096
   34POPC   H6Y 4605  -0.793   5.828  10.316 -1.0413  1.7762 -0.0771
   34POPC   C37 4606  -0.827   5.844  10.098  0.0823 -0.7576  0.4246
   34POPC   H7X 4607  -0.886   5.934  10.124 -0.7263 -1.7643  2.3326
   34POPC   H7Y 4608  -0.891   5.754  10.085 -0.6881  0.0377 -1.5591
   34POPC   C38 4609  -0.751   5.870   9.966 -0.4895 -0.9082 -1.0154
   34POPC   H8X 4610  -0.664   5.812   9.931  0.1967 -0.2721 -0.3825
   34POPC   H8Y 4611  -0.717   5.976   9.970  0.7986 -1.3402  1.1389
   34POPC   C39 4612  -0.858   5.875   9.850  0.3061 -0.6542 -0.2070
   34POPC   H9X 4613  -0.900   5.978   9.848  0.0501 -0.7380  0.6086
   34POPC   H9Y 4614  -0.946   5.814   9.881 -1.1015  1.6682  0.6506
   34POPC  C310 4615  -0.806   5.847   9.714 -0.4159  0.1693  1.1035
   34POPC  H10X 4616  -0.701   5.881   9.702 -0.3597  0.1584  1.5421
   34POPC  H10Y 4617  -0.860   5.909   9.639 -0.5328  0.0455  1.0846
   34POPC  C311 4618  -0.811   5.701   9.663 -0.0045 -0.0351 -1.2235
   34POPC  H11X 4619  -0.744   5.642   9.729 -1.6118  0.6811  1.2426
   34POPC  H11Y 4620  -0.763   5.707   9.563  0.4231  3.2267 -0.9311
   34POPC  C312 4621  -0.939   5.623   9.674  0.9204  0.2534 -0.0048
   34POPC  H12X 4622  -0.967   5.595   9.778  0.6672  0.6443  0.0365
   34POPC  H12Y 4623  -0.922   5.519   9.639  1.6830  1.0373 -2.0619
   34POPC  C313 4624  -1.062   5.683   9.604 -0.2888 -0.5858  0.0491
   34POPC  H13X 4625  -1.064   5.651   9.498 -3.0881 -0.2477 -0.0865
   34POPC  H13Y 4626  -1.055   5.794   9.601 -0.3655 -0.5461  0.8988
   34POPC  C314 4627  -1.194   5.638   9.673 -0.2051 -0.0889  0.3974
   34POPC  H14X 4628  -1.191   5.695   9.769  1.0493  1.3887 -0.4638
   34POPC  H14Y 4629  -1.194   5.534   9.710  0.2413 -0.5563 -0.8491
   34POPC  C315 4630  -1.316   5.655   9.584  0.3134 -0.0178 -0.3041
   34POPC  H15X 4631  -1.308   5.750   9.527 -0.5712  0.9543  1.1479
   34POPC  H15Y 4632  -1.411   5.653   9.641  0.2802 -0.8824 -0.3846
   34POPC  C316 4633  -1.318   5.544   9.478 -0.4075 -0.6945  0.2372
   34POPC  H16X 4634  -1.253   5.571   9.392  0.4270 -2.2213  0.3503
   34POPC  H16Y 4635  -1.421   5.527   9.439 -0.4717 -0.7785  0.4463
   34POPC  H16Z 4636  -1.275   5.452   9.523 -1.0979 -1.3076 -0.3302
   35POPC     N 4637   2.849   2.574  11.559 -0.5521  0.3264  0.4827
   35POPC   C12 4638   2.903   2.459  11.465  0.8064 -0.0183 -0.3234
   35POPC  H12A 4639   2.841   2.371  11.472  0.1858  0.5086  1.2451
   35POPC  H12B 4640   2.999   2.428  11.504  0.8680  2.5989  1.9478
   35POPC   C13 4641   2.726   2.637  11.500  0.2347 -0.0731  0.1280
   35POPC  H13A 4642   2.640   2.571  11.496 -0.3492  0.6671  0.1121
   35POPC  H13B 4643   2.702   2.720  11.566  1.0839  0.3371 -0.0657
   35POPC  H13C 4644   2.744   2.658  11.396  0.2883 -2.4143 -0.3882
   35POPC   C14 4645   2.829   2.531  11.700 -0.3955 -0.5143  0.5920
   35POPC  H14A 4646   2.769   2.590  11.767  0.2987 -0.5291  1.2464
   35POPC  H14B 4647   2.783   2.434  11.703 -1.4266 -0.0482  0.2199
   35POPC  H14C 4648   2.923   2.507  11.748 -0.7248 -4.4165 -0.3555
   35POPC   C15 4649   2.966   2.679  11.545  0.1412 -1.1304 -0.1677
   35POPC  H15A 4650   3.054   2.641  11.595 -1.0980 -0.7941  2.4212
   35POPC  H15B 4651   2.945   2.773  11.594  2.4262 -0.9835  0.6089
   35POPC  H15C 4652   2.985   2.704  11.441  0.1921 -0.3018  0.0311
   35POPC   C11 4653   2.920   2.487  11.315  0.4973 -0.0285 -0.4394
   35POPC  H11A 4654   2.965   2.403  11.259 -0.0965  0.5702 -1.8865
   35POPC  H11B 4655   2.998   2.566  11.307  0.8259 -0.4394 -1.3901
   35POPC     P 4656   2.793   2.631  11.146 -0.4046  0.2942  0.1047
   35POPC   O13 4657   2.838   2.759  11.198  0.2379  0.1044  0.1243
   35POPC   O14 4658   2.663   2.626  11.082  0.4630 -0.0272 -0.1353
   35POPC   O12 4659   2.792   2.522  11.259  0.1158 -0.2738  0.6167
   35POPC   O11 4660   2.902   2.577  11.049  0.0945 -0.1115 -0.5692
   35POPC    C1 4661   2.900   2.461  10.968 -0.2292 -0.4090 -0.2822
   35POPC    HA 4662   2.872   2.372  11.027  4.1106 -2.7881 -1.3890
   35POPC    HB 4663   3.004   2.442  10.934  0.7687  2.5899  0.7346
   35POPC    C2 4664   2.823   2.464  10.832  0.0914  1.0117 -0.3921
   35POPC    HS 4665   2.870   2.384  10.771 -3.1558  0.1205 -1.9526
   35POPC   O21 4666   2.826   2.589  10.777  0.3708  0.6200  0.4444
   35POPC   C21 4667   2.934   2.640  10.739 -0.3498  0.1624 -0.3881
   35POPC   O22 4668   3.042   2.584  10.721  0.2764 -0.3271 -0.1283
   35POPC   C22 4669   2.922   2.787  10.741 -0.1354 -0.2015 -0.3946
   35POPC   H2R 4670   2.980   2.838  10.821  1.0517 -0.6845 -0.9190
   35POPC   H2S 4671   2.813   2.809  10.738  0.2894  2.1755 -0.2982
   35POPC    C3 4672   2.678   2.419  10.837 -0.5614  0.2747  0.5150
   35POPC    HX 4673   2.608   2.500  10.865  0.1110  0.0329  3.2839
   35POPC    HY 4674   2.668   2.347  10.922 -1.8836 -0.4131 -0.1901
   35POPC   O31 4675   2.641   2.360  10.709  0.2401  0.0663  0.1296
   35POPC   C31 4676   2.619   2.450  10.613  0.4331  0.6263  0.0138
   35POPC   O32 4677   2.613   2.572  10.622  0.0114  0.1945 -0.2708
   35POPC   C32 4678   2.619   2.375  10.479  0.5403 -0.3674 -0.2009
   35POPC   H2X 4679   2.569   2.280  10.508  1.6660 -0.7990  0.3928
   35POPC   H2Y 4680   2.723   2.348  10.451 -0.1058 -2.7160 -0.5746
   35POPC   C23 4681   2.960   2.863  10.612  0.1859 -0.6309 -0.2334
   35POPC   H3R 4682   3.055   2.838  10.559  0.2851  0.8594 -0.8018
   35POPC   H3S 4683   2.973   2.970  10.637  2.0844 -0.6640 -0.8805
   35POPC   C24 4684   2.844   2.854  10.518 -0.1268 -0.9009  0.6827
   35POPC   H4R 4685   2.878   2.933  10.448 -1.5470 -1.7706 -1.0546
   35POPC   H4S 4686   2.749   2.898  10.556  1.8301  2.6180  2.0092
   35POPC   C25 4687   2.839   2.733  10.430  0.2635  0.1654 -0.4336
   35POPC   H5R 4688   2.776   2.654  10.477  1.6728 -0.7691 -0.0310
   35POPC   H5S 4689   2.945   2.705  10.414  1.0263  2.3734  0.4017
   35POPC   C26 4690   2.798   2.747  10.278 -0.1963  0.0133 -1.1654
   35POPC   H6R 4691   2.703   2.805  10.274 -0.0698  0.5469  1.6794
   35POPC   H6S 4692   2.771   2.646  10.239 -1.3527  0.1727 -0.8137
   35POPC   C27 4693   2.898   2.808  10.182 -0.3431  0.2168  0.8906
   35POPC   H7R 4694   2.989   2.747  10.196 -2.1920 -2.8892  0.1429
   35POPC   H7S 4695   2.928   2.912  10.211  0.1657 -0.0849  1.4759
   35POPC   C28 4696   2.856   2.789  10.033 -0.7356 -0.1145 -0.3562
   35POPC   H8R 4697   2.826   2.688   9.999 -1.7404 -0.5272  1.6438
   35POPC   H8S 4698   2.948   2.807   9.972  0.5263 -0.9086  1.2430
   35POPC   C29 4699   2.746   2.888   9.981 -0.0341 -0.1106  0.6460
   35POPC   H91 4700   2.691   2.929  10.067  2.3377 -0.9928  2.6810
   35POPC  C210 4701   2.715   2.929   9.856  0.4422 -0.3888  0.3745
   35POPC  H101 4702   2.633   2.999   9.835  0.8437  0.5434  1.7727
   35POPC  C211 4703   2.802   2.876   9.747 -0.3903 -0.2650 -0.1550
   35POPC  H11R 4704   2.851   2.785   9.788 -2.1131 -0.0659  2.5823
   35POPC  H11S 4705   2.875   2.950   9.707  1.7127 -1.3584  1.4721
   35POPC  C212 4706   2.704   2.845   9.627 -0.3167 -0.4832  0.5085
   35POPC  H12R 4707   2.635   2.929   9.606 -0.9230 -0.7829  1.2653
   35POPC  H12S 4708   2.641   2.757   9.652 -0.9681 -0.6908 -1.6518
   35POPC  C213 4709   2.799   2.824   9.503  0.1125 -0.5625  0.1550
   35POPC  H13R 4710   2.860   2.734   9.524  0.2334 -0.4621  0.2348
   35POPC  H13S 4711   2.872   2.907   9.492  1.8392 -1.7489  1.9700
   35POPC  C214 4712   2.718   2.828   9.379  0.5971 -0.6710  0.6355
   35POPC  H14R 4713   2.679   2.931   9.392 -0.0969 -1.1007  2.2989
   35POPC  H14S 4714   2.636   2.753   9.380 -0.0898  0.0657  0.3289
   35POPC  C215 4715   2.809   2.808   9.257  0.3037 -0.2806  0.3677
   35POPC  H15R 4716   2.839   2.702   9.242  2.5361  0.2296  0.7543
   35POPC  H15S 4717   2.907   2.855   9.280  0.4462  0.2353 -1.1809
   35POPC  C216 4718   2.753   2.884   9.142  0.1814 -0.0142  0.5494
   35POPC  H16R 4719   2.759   2.994   9.152  0.2192 -0.1168  1.6905
   35POPC  H16S 4720   2.651   2.849   9.117  0.8259  0.5981 -3.8823
   35POPC  C217 4721   2.831   2.868   9.005 -0.0217  0.0974  0.2882
   35POPC  H17R 4722   2.815   2.764   8.970 -0.2997  1.2620 -3.4647
   35POPC  H17S 4723   2.939   2.867   9.030  0.2150 -2.0793 -0.6432
   35POPC  C218 4724   2.801   2.973   8.895  0.1098 -0.8050  0.4439
   35POPC  H18R 4725   2.822   3.076   8.932 -1.1230  0.9742 -3.3064
   35POPC  H18S 4726   2.691   2.977   8.879  0.5657  1.3547 -3.2061
   35POPC  H18T 4727   2.861   2.961   8.803  1.8995  0.0078  1.4359
   35POPC   C33 4728   2.547   2.442  10.361 -0.1533  0.4001  0.0405
   35POPC   H3X 4729   2.542   2.553  10.361 -1.8511  0.4212  2.8455
   35POPC   H3Y 4730   2.441   2.410  10.370  0.3485 -1.7878 -1.1170
   35POPC   C34 4731   2.612   2.406  10.224  0.5557  0.7015 -0.1192
   35POPC   H4X 4732   2.623   2.296  10.234  0.6239  0.7867  0.8924
   35POPC   H4Y 4733   2.716   2.447  10.224  1.2504 -0.7917 -3.1312
   35POPC   C35 4734   2.549   2.466  10.100 -0.4339 -0.3036  0.5335
   35POPC   H5X 4735   2.568   2.575  10.110  0.5575 -0.0465 -2.7268
   35POPC   H5Y 4736   2.439   2.451  10.101 -1.0531  2.6487 -2.6726
   35POPC   C36 4737   2.609   2.417   9.965 -0.2458  0.4016 -0.0907
   35POPC   H6X 4738   2.610   2.306   9.963 -0.3389  0.3211  1.9364
   35POPC   H6Y 4739   2.717   2.443   9.972  0.4313 -1.9725 -0.8086
   35POPC   C37 4740   2.550   2.467   9.838 -0.1936  0.0620 -0.0805
   35POPC   H7X 4741   2.560   2.577   9.853 -1.6795  0.1782  0.2085
   35POPC   H7Y 4742   2.441   2.450   9.826 -0.5581  1.3963  1.0761
   35POPC   C38 4743   2.631   2.421   9.713  0.2142 -0.1644  0.2163
   35POPC   H8X 4744   2.648   2.312   9.711  0.8187 -0.0693 -1.0022
   35POPC   H8Y 4745   2.730   2.472   9.711  0.0922  0.0912 -1.5281
   35POPC   C39 4746   2.553   2.471   9.586 -0.3376  0.3154 -0.6501
   35POPC   H9X 4747   2.585   2.568   9.543 -0.0190 -0.2858 -1.7957
   35POPC   H9Y 4748   2.450   2.481   9.626 -0.6318 -2.8506 -0.3929
   35POPC  C310 4749   2.570   2.378   9.461  0.0283 -0.4523 -0.9331
   35POPC  H10X 4750   2.513   2.283   9.471 -2.0395  0.7707 -0.7512
   35POPC  H10Y 4751   2.676   2.345   9.459  0.4064  0.5748  0.3799
   35POPC  C311 4752   2.544   2.437   9.323 -0.0004 -0.0442  0.6315
   35POPC  H11X 4753   2.611   2.525   9.318 -0.4828  0.2604 -0.8277
   35POPC  H11Y 4754   2.440   2.469   9.302  0.4981  2.3101  1.4859
   35POPC  C312 4755   2.597   2.332   9.221  0.2201 -0.6916 -0.4776
   35POPC  H12X 4756   2.535   2.244   9.248 -2.3612  1.2264  0.2894
   35POPC  H12Y 4757   2.701   2.295   9.237 -0.1237 -0.4914  3.1904
   35POPC  C313 4758   2.552   2.376   9.079 -0.4070  0.0828 -0.0555
   35POPC  H13X 4759   2.607   2.468   9.050  1.2753 -0.5063  1.0915
   35POPC  H13Y 4760   2.445   2.407   9.080 -0.3242  0.3690  0.9188
   35POPC  C314 4761   2.590   2.275   8.972  0.2169 -0.0030  0.6735
   35POPC  H14X 4762   2.529   2.184   8.992 -1.3851  1.1942  1.3998
   35POPC  H14Y 4763   2.695   2.238   8.974  0.0401 -0.5093  0.8613
   35POPC  C315 4764   2.555   2.322   8.829  0.0523 -0.2998 -0.3440
   35POPC  H15X 4765   2.445   2.338   8.830  0.1573  0.4978 -1.1125
   35POPC  H15Y 4766   2.569   2.240   8.755  1.2731  0.3472 -0.8587
   35POPC  C316 4767   2.626   2.444   8.793 -0.0674 -0.3268  0.6590
   35POPC  H16X 4768   2.582   2.499   8.707 -0.3502 -1.0364  0.3412
   35POPC  H16Y 4769   2.729   2.415   8.762  0.7282  1.5255  1.4301
   35POPC  H16Z 4770   2.631   2.514   8.878  0.0210  0.2360  0.2004
   36POPC     N 4771   4.433   0.573  11.121 -0.3869  0.5235 -0.4749
   36POPC   C12 4772   4.539   0.670  11.152  0.4487  0.0546 -0.0488
   36POPC  H12A 4773   4.604   0.617  11.221  1.8268  1.2153 -0.4058
   36POPC  H12B 4774   4.496   0.749  11.212 -0.7517  1.6256 -2.8090
   36POPC   C13 4775   4.378   0.506  11.247  0.1889  0.5889 -0.1186
   36POPC  H13A 4776   4.359   0.579  11.325  3.6326  1.0888  0.4162
   36POPC  H13B 4777   4.294   0.443  11.223  2.0685 -1.5583 -1.4907
   36POPC  H13C 4778   4.447   0.439  11.295 -1.8231  1.2393  4.1642
   36POPC   C14 4779   4.314   0.638  11.049 -0.0240  0.7546 -0.0818
   36POPC  H14A 4780   4.232   0.571  11.026 -0.2313  0.1467  2.2481
   36POPC  H14B 4781   4.274   0.719  11.108  1.5003  0.9171  0.7959
   36POPC  H14C 4782   4.341   0.682  10.954 -3.5023 -0.4580 -1.7890
   36POPC   C15 4783   4.480   0.464  11.024  0.4243 -0.3636  0.6341
   36POPC  H15A 4784   4.543   0.504  10.946  0.0868  0.1352  0.6078
   36POPC  H15B 4785   4.395   0.408  10.987 -1.3513  2.5465 -0.0825
   36POPC  H15C 4786   4.538   0.391  11.077  1.9069 -1.2720 -2.0472
   36POPC   C11 4787   4.613   0.750  11.046 -0.6946  0.2777 -0.5041
   36POPC  H11A 4788   4.664   0.677  10.980  0.6252  0.7241 -0.0070
   36POPC  H11B 4789   4.697   0.803  11.097  0.4474 -4.5189  3.3569
   36POPC     P 4790   4.503   0.987  11.030  0.3345 -0.1110  0.3021
   36POPC   O13 4791   4.626   1.067  11.006 -0.9773  0.3106  0.1783
   36POPC   O14 4792   4.450   0.981  11.172 -0.1173 -0.3046 -0.2376
   36POPC   O12 4793   4.532   0.841  10.976  0.2588  0.0600  0.5148
   36POPC   O11 4794   4.395   1.055  10.939  0.5483 -0.3140 -0.0527
   36POPC    C1 4795   4.325   1.021  10.819 -0.0538 -0.1789 -0.6743
   36POPC    HA 4796   4.227   1.074  10.819  0.3109  0.5244 -1.4704
   36POPC    HB 4797   4.313   0.911  10.825  0.8890 -0.2344  0.6632
   36POPC    C2 4798   4.406   1.064  10.688 -0.1129  0.6666 -0.7605
   36POPC    HS 4799   4.503   1.014  10.706 -0.9562 -1.4154 -1.7163
   36POPC   O21 4800   4.418   1.209  10.684 -0.3394  0.2004 -0.2653
   36POPC   C21 4801   4.535   1.257  10.630 -0.3101  0.0539 -0.5346
   36POPC   O22 4802   4.624   1.188  10.589 -0.2802 -0.6165 -0.0351
   36POPC   C22 4803   4.530   1.417  10.637 -0.2131  0.4970  0.1248
   36POPC   H2R 4804   4.528   1.443  10.745  2.0356 -2.6404  1.0634
   36POPC   H2S 4805   4.438   1.452  10.585 -0.1927  3.2191  1.7424
   36POPC    C3 4806   4.354   0.993  10.564  0.3101  0.3077  0.8892
   36POPC    HX 4807   4.244   1.006  10.553 -0.0862 -1.9863  1.5769
   36POPC    HY 4808   4.358   0.883  10.575 -0.4964  0.3241  1.4279
   36POPC   O31 4809   4.426   1.036  10.445  0.1619  0.2954 -0.5119
   36POPC   C31 4810   4.410   0.962  10.340 -0.4390  0.3918  0.3495
   36POPC   O32 4811   4.340   0.866  10.325  0.5592  0.8474 -0.0881
   36POPC   C32 4812   4.519   1.004  10.238 -1.4006 -0.8157  0.3583
   36POPC   H2X 4813   4.607   0.945  10.271  0.5109  1.8279  0.2940
   36POPC   H2Y 4814   4.550   1.108  10.259 -0.3035 -1.3227  1.3682
   36POPC   C23 4815   4.654   1.480  10.563 -0.0956  0.3786 -0.2468
   36POPC   H3R 4816   4.666   1.438  10.462  0.9668  0.9130 -0.3548
   36POPC   H3S 4817   4.744   1.458  10.624  0.4887  2.1310 -0.4103
   36POPC   C24 4818   4.646   1.628  10.528  0.1383 -0.6072 -0.3450
   36POPC   H4R 4819   4.737   1.657  10.470  1.3406  1.3859  2.3482
   36POPC   H4S 4820   4.648   1.696  10.615  0.2748 -0.0967 -0.7373
   36POPC   C25 4821   4.521   1.665  10.447 -0.0843  0.2145 -0.2380
   36POPC   H5R 4822   4.530   1.774  10.426 -0.4668  0.0796 -1.1305
   36POPC   H5S 4823   4.434   1.661  10.517 -0.8621 -1.1856 -1.2484
   36POPC   C26 4824   4.502   1.587  10.315 -0.3067  0.2397 -0.6541
   36POPC   H6R 4825   4.401   1.623  10.286 -0.5353  3.3738  3.2200
   36POPC   H6S 4826   4.488   1.477  10.326  1.8738 -0.2389 -2.0539
   36POPC   C27 4827   4.613   1.626  10.212 -0.2508  0.0627 -0.4952
   36POPC   H7R 4828   4.704   1.571  10.244 -0.5361 -0.5133 -0.6676
   36POPC   H7S 4829   4.630   1.735  10.228 -0.5934  0.2457 -1.3408
   36POPC   C28 4830   4.574   1.601  10.071 -0.2475 -0.6978 -0.5482
   36POPC   H8R 4831   4.636   1.657   9.998 -0.8287 -0.4537 -0.8660
   36POPC   H8S 4832   4.470   1.637  10.057  0.0873  0.2647 -0.6432
   36POPC   C29 4833   4.574   1.452  10.051 -0.2430  0.2490  0.2431
   36POPC   H91 4834   4.551   1.400  10.145 -1.0037 -0.6096 -0.4024
   36POPC  C210 4835   4.604   1.378   9.944 -0.1352  0.2035  0.4213
   36POPC  H101 4836   4.594   1.268   9.946 -0.1811  0.1985  0.0438
   36POPC  C211 4837   4.653   1.429   9.810  0.6201  0.2367  0.7386
   36POPC  H11R 4838   4.715   1.351   9.760 -2.1647 -1.4155 -0.4042
   36POPC  H11S 4839   4.711   1.523   9.819 -0.7412  1.0637  1.1508
   36POPC  C212 4840   4.530   1.461   9.720  0.2220 -0.1637  0.5575
   36POPC  H12R 4841   4.442   1.395   9.726 -0.5622  0.2089 -3.7230
   36POPC  H12S 4842   4.566   1.470   9.614 -0.0252 -1.0714  0.3934
   36POPC  C213 4843   4.466   1.598   9.759  0.1394 -0.0747  0.3344
   36POPC  H13R 4844   4.547   1.672   9.779  0.2900  0.2207 -1.2018
   36POPC  H13S 4845   4.396   1.592   9.844  0.8338 -3.9165  0.7962
   36POPC  C214 4846   4.376   1.662   9.644  0.6347 -0.9732 -0.1304
   36POPC  H14R 4847   4.449   1.719   9.584  0.9771  0.3541  1.4959
   36POPC  H14S 4848   4.317   1.739   9.698  1.9996 -1.8812  2.8435
   36POPC  C215 4849   4.294   1.562   9.562  0.7324 -0.0482 -0.3809
   36POPC  H15R 4850   4.199   1.547   9.617 -0.2654  2.5254 -1.2676
   36POPC  H15S 4851   4.345   1.465   9.544 -3.1619 -1.8937 -2.6669
   36POPC  C216 4852   4.265   1.619   9.420 -0.2240  0.7289 -0.9707
   36POPC  H16R 4853   4.227   1.723   9.427  0.9993  1.0930  1.0975
   36POPC  H16S 4854   4.177   1.567   9.378 -0.3000 -0.2760  0.4014
   36POPC  C217 4855   4.387   1.602   9.324  0.4873  0.7160  0.6450
   36POPC  H17R 4856   4.442   1.509   9.347  1.0709  0.8008 -0.3694
   36POPC  H17S 4857   4.460   1.684   9.343  2.1226 -0.2024 -1.3507
   36POPC  C218 4858   4.351   1.592   9.176  0.2921  0.2387  0.5339
   36POPC  H18R 4859   4.293   1.499   9.159 -1.6356  1.6280 -0.8978
   36POPC  H18S 4860   4.447   1.599   9.120 -0.6871  1.7654 -1.0342
   36POPC  H18T 4861   4.293   1.680   9.140  0.3149  0.0672  0.0781
   36POPC   C33 4862   4.499   0.966  10.091  0.0677  0.7185  0.3250
   36POPC   H3X 4863   4.518   0.857  10.083  3.9966  1.1224  1.7291
   36POPC   H3Y 4864   4.589   0.998  10.033 -0.3690  0.2749 -0.6182
   36POPC   C34 4865   4.376   1.018  10.023  0.8508  0.3330 -0.1851
   36POPC   H4X 4866   4.366   1.128  10.040 -1.8942 -0.1760  2.4350
   36POPC   H4Y 4867   4.288   0.972  10.072  0.6763  1.6058  0.7629
   36POPC   C35 4868   4.374   0.974   9.878 -0.0184  0.0374  0.2776
   36POPC   H5X 4869   4.393   0.864   9.880 -0.1237 -0.0400 -1.5269
   36POPC   H5Y 4870   4.458   1.023   9.825  2.4045 -2.6065  1.3393
   36POPC   C36 4871   4.252   1.003   9.800  1.4374  0.1951 -0.5903
   36POPC   H6X 4872   4.161   0.953   9.838  1.3272  0.8127 -0.0253
   36POPC   H6Y 4873   4.271   0.959   9.699 -1.1692 -1.8026 -0.3018
   36POPC   C37 4874   4.231   1.154   9.791  0.6450  0.0500 -0.8487
   36POPC   H7X 4875   4.324   1.214   9.784 -0.3382  1.8013  0.4655
   36POPC   H7Y 4876   4.197   1.182   9.893  2.8630 -1.5134  0.4255
   36POPC   C38 4877   4.123   1.188   9.687 -0.6587  0.0178 -0.2932
   36POPC   H8X 4878   4.082   1.289   9.707  1.0307  0.2796  2.2747
   36POPC   H8Y 4879   4.039   1.116   9.694 -0.4252 -0.2164  0.1683
   36POPC   C39 4880   4.186   1.186   9.549 -0.9605 -0.1798 -0.4303
   36POPC   H9X 4881   4.232   1.089   9.524  0.3310 -0.1254  1.5119
   36POPC   H9Y 4882   4.252   1.273   9.570  3.2284 -2.6354 -2.3578
   36POPC  C310 4883   4.095   1.244   9.439 -0.0784  0.4344  0.0669
   36POPC  H10X 4884   4.056   1.343   9.469 -1.2448 -0.1358  0.4853
   36POPC  H10Y 4885   4.002   1.184   9.440  0.4033 -0.3532 -0.9389
   36POPC  C311 4886   4.149   1.239   9.299 -1.4026 -0.0225  0.1311
   36POPC  H11X 4887   4.158   1.131   9.271  1.0488  0.2613 -0.4202
   36POPC  H11Y 4888   4.253   1.276   9.286 -1.5445  0.0273 -0.9372
   36POPC  C312 4889   4.057   1.303   9.192 -0.3250 -0.0027  1.1191
   36POPC  H12X 4890   4.065   1.409   9.226 -1.4800  0.2921  0.5313
   36POPC  H12Y 4891   3.957   1.259   9.208 -0.4406 -0.3580 -0.4237
   36POPC  C313 4892   4.101   1.288   9.041  0.8721 -0.3614  0.0097
   36POPC  H13X 4893   4.092   1.180   9.019  1.7768 -0.2336 -1.1228
   36POPC  H13Y 4894   4.207   1.323   9.036  1.3829 -1.9892 -1.8882
   36POPC  C314 4895   4.009   1.381   8.957 -0.2666 -0.5799 -0.1834
   36POPC  H14X 4896   4.036   1.485   8.983  0.2632 -0.3641 -1.5282
   36POPC  H14Y 4897   3.899   1.370   8.969 -0.4884  2.0795  0.9042
   36POPC  C315 4898   4.025   1.353   8.811  0.3803 -0.0936 -0.3703
   36POPC  H15X 4899   3.952   1.412   8.752  0.1937  0.4560  0.3949
   36POPC  H15Y 4900   4.012   1.243   8.804  1.3635 -0.2688  0.2741
   36POPC  C316 4901   4.168   1.390   8.759 -0.4117 -0.0477 -0.0239
   36POPC  H16X 4902   4.156   1.363   8.652 -0.2426 -0.1556 -0.0144
   36POPC  H16Y 4903   4.257   1.345   8.808  1.1482 -0.5628 -3.1242
   36POPC  H16Z 4904   4.178   1.501   8.763 -0.9981 -0.0061  0.6192
   37POPC     N 4905   6.099   4.608   6.489  0.1147 -0.2765 -0.2836
   37POPC   C12 4906   6.024   4.662   6.613  0.8468  0.8605  0.2079
   37POPC  H12A 4907   5.952   4.584   6.632  1.0118  0.8312  0.7197
   37POPC  H12B 4908   5.958   4.744   6.588  0.3636  1.0281  1.8736
   37POPC   C13 4909   6.010   4.563   6.380 -0.6086 -0.6350  0.0408
   37POPC  H13A 4910   5.958   4.654   6.354 -0.7638 -0.2964  1.4663
   37POPC  H13B 4911   6.063   4.551   6.287 -3.3509  2.7963 -2.2738
   37POPC  H13C 4912   5.945   4.481   6.407  1.5561 -2.5974 -0.4437
   37POPC   C14 4913   6.190   4.716   6.428 -0.5497 -0.5660 -0.6557
   37POPC  H14A 4914   6.124   4.796   6.398 -0.9926 -0.3149  0.9094
   37POPC  H14B 4915   6.267   4.735   6.501  0.5306  0.5980 -2.0326
   37POPC  H14C 4916   6.234   4.682   6.335  0.6017 -1.1593  0.0923
   37POPC   C15 4917   6.195   4.501   6.520 -0.0806 -0.0115  0.5364
   37POPC  H15A 4918   6.264   4.516   6.602 -2.2795  1.3565  2.2580
   37POPC  H15B 4919   6.259   4.478   6.437  0.3942  1.3500  0.4967
   37POPC  H15C 4920   6.137   4.412   6.541 -1.3602  0.0398 -2.3400
   37POPC   C11 4921   6.098   4.700   6.744  0.4185  0.3727  0.4243
   37POPC  H11A 4922   6.153   4.609   6.777 -0.8719  0.8358  4.4475
   37POPC  H11B 4923   6.009   4.714   6.809 -0.6181 -1.5448 -0.4871
   37POPC     P 4924   6.305   4.821   6.814  0.4586  0.0119  0.1272
   37POPC   O13 4925   6.386   4.945   6.792  0.2193 -0.4265  0.0933
   37POPC   O14 4926   6.374   4.693   6.813 -0.7179  0.5770 -0.0372
   37POPC   O12 4927   6.181   4.816   6.718 -0.1360  1.0829  0.7272
   37POPC   O11 4928   6.235   4.827   6.951  0.8506  0.0707 -0.9892
   37POPC    C1 4929   6.167   4.937   7.000 -0.6272  0.4814  0.2978
   37POPC    HA 4930   6.107   4.907   7.089  2.4304  0.5342  2.5669
   37POPC    HB 4931   6.091   4.973   6.928 -1.4257  1.5580  1.6208
   37POPC    C2 4932   6.260   5.051   7.056  0.2875 -0.1963  0.6154
   37POPC    HS 4933   6.299   5.108   6.968 -0.7651  1.4949  1.1955
   37POPC   O21 4934   6.367   4.990   7.130 -0.5165  0.3287  0.3162
   37POPC   C21 4935   6.481   5.070   7.124  0.4041 -0.1939  0.1954
   37POPC   O22 4936   6.488   5.183   7.076  0.2457 -0.3583 -0.6390
   37POPC   C22 4937   6.603   4.987   7.168  0.4177 -0.3567 -0.6763
   37POPC   H2R 4938   6.677   4.990   7.085  0.4025  0.9476 -0.6637
   37POPC   H2S 4939   6.592   4.878   7.186  0.0738 -0.3016 -0.5308
   37POPC    C3 4940   6.179   5.157   7.137 -0.0255  0.3187 -0.5749
   37POPC    HX 4941   6.079   5.152   7.089  0.0650 -1.2464 -0.6492
   37POPC    HY 4942   6.231   5.254   7.123 -0.6160  1.1501  2.2524
   37POPC   O31 4943   6.173   5.117   7.282  0.6909  0.1189  0.1081
   37POPC   C31 4944   6.087   5.185   7.346  0.4201  0.2114  0.4560
   37POPC   O32 4945   6.012   5.270   7.300 -0.1205 -0.2774  0.1169
   37POPC   C32 4946   6.087   5.133   7.487  0.5821  0.0878 -0.2921
   37POPC   H2X 4947   6.189   5.096   7.506  1.0614  1.0406 -0.9111
   37POPC   H2Y 4948   6.014   5.053   7.512 -0.6109  1.4152  0.6487
   37POPC   C23 4949   6.683   5.056   7.279 -0.1884  0.1399  0.1548
   37POPC   H3R 4950   6.623   5.102   7.360  0.4793 -1.1163  1.4157
   37POPC   H3S 4951   6.743   5.134   7.227  0.0443  0.0442  0.2760
   37POPC   C24 4952   6.769   4.962   7.354 -0.4785  0.3258  0.9910
   37POPC   H4R 4953   6.849   4.911   7.297  0.3155 -0.1253  2.4517
   37POPC   H4S 4954   6.708   4.872   7.375 -0.8259  0.1088 -0.8201
   37POPC   C25 4955   6.828   5.032   7.475 -0.3143 -0.0553  0.3684
   37POPC   H5R 4956   6.894   5.116   7.444 -0.2580  0.5033  1.9112
   37POPC   H5S 4957   6.888   4.956   7.530  1.0071  0.0247 -0.9021
   37POPC   C26 4958   6.736   5.084   7.588 -0.3889  0.1864 -0.4547
   37POPC   H6R 4959   6.668   5.006   7.628 -2.1240  1.7211 -0.2786
   37POPC   H6S 4960   6.692   5.174   7.540 -0.3274 -0.1303 -1.1190
   37POPC   C27 4961   6.836   5.126   7.699  0.0999 -0.5759  0.3605
   37POPC   H7R 4962   6.925   5.176   7.655 -0.4509 -0.3982 -0.5622
   37POPC   H7S 4963   6.870   5.031   7.744  0.2851 -0.3023  0.8134
   37POPC   C28 4964   6.797   5.225   7.807  0.2782  0.1026  0.0574
   37POPC   H8R 4965   6.805   5.329   7.770 -1.4292  0.3048  0.1444
   37POPC   H8S 4966   6.880   5.216   7.880 -1.5131 -2.6115  1.9892
   37POPC   C29 4967   6.668   5.203   7.868 -0.7354 -0.8050 -0.2756
   37POPC   H91 4968   6.582   5.165   7.810 -3.0660  1.3501  1.5067
   37POPC  C210 4969   6.627   5.246   7.994 -0.5433 -0.6323  0.3934
   37POPC  H101 4970   6.525   5.230   8.031 -0.4245 -1.6421  0.3351
   37POPC  C211 4971   6.720   5.313   8.096 -0.0468  0.4724  0.2613
   37POPC  H11R 4972   6.727   5.421   8.073 -0.9391  0.4651 -0.0894
   37POPC  H11S 4973   6.825   5.277   8.086 -0.7557 -1.5260 -0.5067
   37POPC  C212 4974   6.669   5.279   8.239 -0.0636  0.9478  0.0910
   37POPC  H12R 4975   6.565   5.317   8.242 -0.9606 -1.3272 -0.2559
   37POPC  H12S 4976   6.739   5.331   8.308  0.8041 -0.3730  0.2420
   37POPC  C213 4977   6.673   5.130   8.280  0.7852 -0.2679  0.5330
   37POPC  H13R 4978   6.775   5.094   8.257  0.6718  0.8734 -2.2258
   37POPC  H13S 4979   6.601   5.070   8.219 -0.5243  0.3231  1.4461
   37POPC  C214 4980   6.637   5.118   8.431  0.3917  0.1765 -0.1581
   37POPC  H14R 4981   6.616   5.010   8.449  2.1757  0.1859  2.6211
   37POPC  H14S 4982   6.551   5.183   8.458 -0.4859 -1.1557  0.3779
   37POPC  C215 4983   6.747   5.160   8.529 -0.0571  0.0786 -0.4647
   37POPC  H15R 4984   6.766   5.269   8.519 -2.2484  0.4180 -1.6158
   37POPC  H15S 4985   6.840   5.108   8.497 -0.2205 -1.0169  0.7670
   37POPC  C216 4986   6.717   5.131   8.676 -0.2393  0.1678  0.0668
   37POPC  H16R 4987   6.817   5.151   8.720 -0.2031 -0.4149  0.2599
   37POPC  H16S 4988   6.685   5.025   8.689  0.6682 -0.4595 -2.3443
   37POPC  C217 4989   6.620   5.235   8.732  0.2610  0.1641 -0.2021
   37POPC  H17R 4990   6.519   5.208   8.693 -0.7070  2.5911  0.4186
   37POPC  H17S 4991   6.639   5.338   8.694  0.0159 -0.6221 -2.6313
   37POPC  C218 4992   6.627   5.223   8.870  1.1055 -0.3889 -0.1250
   37POPC  H18R 4993   6.535   5.264   8.917  1.6594  2.0625 -1.0343
   37POPC  H18S 4994   6.721   5.262   8.914  0.4497  0.2915  0.6921
   37POPC  H18T 4995   6.627   5.117   8.905 -1.0501 -0.0953  0.9402
   37POPC   C33 4996   6.062   5.251   7.581 -0.0763 -1.0056 -0.2018
   37POPC   H3X 4997   6.032   5.206   7.679  0.0867 -1.1157 -0.2027
   37POPC   H3Y 4998   5.964   5.297   7.554 -0.0645 -0.2436  0.9746
   37POPC   C34 4999   6.180   5.351   7.606 -0.4305  0.3742 -0.7344
   37POPC   H4X 5000   6.147   5.427   7.680  1.3694  1.7485 -1.2786
   37POPC   H4Y 5001   6.195   5.398   7.507 -2.1261  0.7585 -0.8337
   37POPC   C35 5002   6.305   5.286   7.664  0.0830 -0.2021 -0.1040
   37POPC   H5X 5003   6.394   5.349   7.641 -0.2175  0.1505 -0.3079
   37POPC   H5Y 5004   6.327   5.200   7.597  1.4152  0.6935 -0.8832
   37POPC   C36 5005   6.287   5.252   7.810 -1.0903  0.2736 -0.0458
   37POPC   H6X 5006   6.391   5.227   7.842 -0.9673  0.0826 -0.5912
   37POPC   H6Y 5007   6.225   5.161   7.824 -0.3056 -0.0929  1.2727
   37POPC   C37 5008   6.226   5.357   7.902  0.1209  0.3989 -0.6310
   37POPC   H7X 5009   6.115   5.356   7.895  0.0721 -0.4488  0.0466
   37POPC   H7Y 5010   6.262   5.450   7.854  0.7547  1.2321  1.3512
   37POPC   C38 5011   6.256   5.358   8.052 -0.6246  0.9362  0.2767
   37POPC   H8X 5012   6.227   5.450   8.108 -0.2748  1.8680 -1.0324
   37POPC   H8Y 5013   6.366   5.366   8.058 -0.3156 -2.0574  0.3282
   37POPC   C39 5014   6.226   5.228   8.125  0.0500  1.0815  0.3436
   37POPC   H9X 5015   6.285   5.153   8.068  0.6770  2.8201 -1.4264
   37POPC   H9Y 5016   6.117   5.208   8.129  0.4354 -1.8308 -1.3912
   37POPC  C310 5017   6.267   5.224   8.275 -0.5911 -0.7760  0.1580
   37POPC  H10X 5018   6.212   5.302   8.333 -1.9329 -2.7081  1.6133
   37POPC  H10Y 5019   6.376   5.239   8.291 -0.2648 -3.1546  0.5245
   37POPC  C311 5020   6.244   5.088   8.346  0.7433  0.1190 -0.2282
   37POPC  H11X 5021   6.310   5.011   8.299 -2.9054 -2.6570 -1.2881
   37POPC  H11Y 5022   6.140   5.057   8.325  0.4824  1.1514 -0.4788
   37POPC  C312 5023   6.267   5.089   8.496 -0.2055 -0.3174 -0.2569
   37POPC  H12X 5024   6.239   5.185   8.544 -2.0904 -0.5792 -0.7600
   37POPC  H12Y 5025   6.377   5.102   8.508 -0.0217  0.0301 -1.9643
   37POPC  C313 5026   6.217   4.967   8.563 -0.7643  0.1584 -0.6145
   37POPC  H13X 5027   6.233   4.874   8.503 -0.8973 -0.3120  0.0616
   37POPC  H13Y 5028   6.108   4.987   8.569 -0.3801  3.1272 -2.0226
   37POPC  C314 5029   6.256   4.952   8.708 -0.3765  0.0257  0.0565
   37POPC  H14X 5030   6.360   4.917   8.690 -0.6262 -1.0832  0.6738
   37POPC  H14Y 5031   6.211   4.869   8.767 -0.9279  0.1993 -0.1131
   37POPC  C315 5032   6.270   5.080   8.797  0.2701 -0.0693  0.1780
   37POPC  H15X 5033   6.172   5.132   8.802  0.1773 -0.1531 -0.5692
   37POPC  H15Y 5034   6.344   5.150   8.754  0.2859 -1.1978 -1.7573
   37POPC  C316 5035   6.319   5.068   8.939  0.1632 -0.9002 -0.0399
   37POPC  H16X 5036   6.260   4.997   9.001 -0.1987  2.1365  3.4111
   37POPC  H16Y 5037   6.324   5.166   8.991  3.4681 -0.8380 -0.2821
   37POPC  H16Z 5038   6.424   5.034   8.953 -0.5725 -2.2642  3.1431
   38POPC     N 5039   5.445   0.716   6.088 -0.2417  0.0497  0.5469
   38POPC   C12 5040   5.401   0.804   6.204  0.0696  0.4444 -0.6231
   38POPC  H12A 5041   5.337   0.751   6.274 -0.7685  0.0758 -1.6479
   38POPC  H12B 5042   5.337   0.882   6.164 -0.6642 -0.3263 -0.9780
   38POPC   C13 5043   5.526   0.795   5.981  0.0641  0.0569  0.1893
   38POPC  H13A 5044   5.608   0.843   6.032 -0.6833  2.0320 -0.3854
   38POPC  H13B 5045   5.562   0.733   5.900  1.9910  0.4055  0.7234
   38POPC  H13C 5046   5.461   0.870   5.939  0.7364  0.2530 -0.5196
   38POPC   C14 5047   5.527   0.603   6.146  0.0654  0.6083  0.0630
   38POPC  H14A 5048   5.620   0.641   6.184  0.1030  1.2603 -0.6562
   38POPC  H14B 5049   5.476   0.561   6.231  0.5668  0.6531  0.3865
   38POPC  H14C 5050   5.521   0.523   6.074 -0.8563 -0.0694  0.8591
   38POPC   C15 5051   5.322   0.663   6.016 -0.2169  0.0152 -0.1141
   38POPC  H15A 5052   5.272   0.741   5.961  0.9850  1.8178  1.2422
   38POPC  H15B 5053   5.256   0.617   6.088 -0.1064  0.6321  0.3958
   38POPC  H15C 5054   5.326   0.601   5.928 -2.5393 -0.7454  0.2386
   38POPC   C11 5055   5.514   0.869   6.286 -0.8141 -0.3747 -0.3489
   38POPC  H11A 5056   5.599   0.803   6.316  1.1627  2.3383  0.3481
   38POPC  H11B 5057   5.480   0.909   6.383 -0.9803  1.1789 -1.0246
   38POPC     P 5058   5.517   1.112   6.210  0.3003 -0.3175  0.4314
   38POPC   O13 5059   5.373   1.101   6.167 -0.5434 -0.4988  0.2634
   38POPC   O14 5060   5.612   1.198   6.136 -1.0923  0.7510  0.1302
   38POPC   O12 5061   5.570   0.969   6.206  0.2616  0.2901 -0.7356
   38POPC   O11 5062   5.521   1.160   6.355 -0.4902 -0.1453 -0.2260
   38POPC    C1 5063   5.616   1.121   6.454 -0.4571 -0.6626 -0.1956
   38POPC    HA 5064   5.695   1.198   6.456 -0.8076 -0.2042 -2.2503
   38POPC    HB 5065   5.661   1.020   6.440 -1.3217 -1.0387 -0.3423
   38POPC    C2 5066   5.553   1.122   6.600 -0.0454 -1.0611  0.2352
   38POPC    HS 5067   5.470   1.049   6.607 -0.7996 -0.1183  1.2909
   38POPC   O21 5068   5.521   1.265   6.620 -0.2609 -0.3157 -0.5838
   38POPC   C21 5069   5.420   1.274   6.707  0.2495  0.0495  0.7490
   38POPC   O22 5070   5.340   1.183   6.741 -0.1014  0.0805 -0.5886
   38POPC   C22 5071   5.426   1.411   6.774 -0.1104 -0.2489 -0.1894
   38POPC   H2R 5072   5.324   1.455   6.765 -0.2412 -0.7695 -1.4201
   38POPC   H2S 5073   5.498   1.482   6.727 -0.1495 -0.7124 -0.9583
   38POPC    C3 5074   5.663   1.075   6.709  0.2724 -0.6042  0.5666
   38POPC    HX 5075   5.755   1.130   6.679 -0.3011  0.9396  1.5162
   38POPC    HY 5076   5.688   0.971   6.680  0.9808 -0.1056 -0.7144
   38POPC   O31 5077   5.633   1.101   6.849  0.6178  0.2500  0.3210
   38POPC   C31 5078   5.570   0.997   6.906 -0.1401  0.1842  0.2412
   38POPC   O32 5079   5.528   0.896   6.852 -0.2111  0.4711  0.2483
   38POPC   C32 5080   5.560   1.032   7.054 -0.1620  0.0473 -0.0936
   38POPC   H2X 5081   5.530   1.138   7.063 -2.6295 -0.6332  0.5065
   38POPC   H2Y 5082   5.665   1.014   7.084  0.7592  0.5740 -2.7432
   38POPC   C23 5083   5.453   1.400   6.927  0.0176 -0.2676  0.3362
   38POPC   H3R 5084   5.547   1.341   6.933  0.3375  0.3553  2.7837
   38POPC   H3S 5085   5.381   1.344   6.990 -0.1809 -2.4604 -1.7389
   38POPC   C24 5086   5.475   1.540   6.989  0.2510  0.2374  0.3096
   38POPC   H4R 5087   5.378   1.593   7.000 -0.3537 -0.5013 -1.1882
   38POPC   H4S 5088   5.533   1.599   6.915  0.3437  0.4543  0.5521
   38POPC   C25 5089   5.559   1.530   7.123 -1.0263 -0.1923 -0.3330
   38POPC   H5R 5090   5.586   1.633   7.154  0.0390 -0.5420 -0.0492
   38POPC   H5S 5091   5.653   1.475   7.100  0.3515  1.9905 -0.2161
   38POPC   C26 5092   5.485   1.460   7.236 -0.3481  0.2304  0.1396
   38POPC   H6R 5093   5.479   1.354   7.205 -3.5997  1.1676 -3.2108
   38POPC   H6S 5094   5.380   1.498   7.241  0.0249  1.5950 -1.3698
   38POPC   C27 5095   5.551   1.476   7.373  0.1720  0.3909  0.2099
   38POPC   H7R 5096   5.597   1.577   7.383  0.4441  0.4207 -1.2233
   38POPC   H7S 5097   5.628   1.397   7.371  0.0331  0.2681 -0.3273
   38POPC   C28 5098   5.458   1.461   7.496  0.3478  0.4466 -0.4053
   38POPC   H8R 5099   5.513   1.433   7.588 -0.3267 -0.2314 -0.1939
   38POPC   H8S 5100   5.397   1.368   7.490  0.5216  0.0292  2.7091
   38POPC   C29 5101   5.371   1.581   7.530  0.7483  0.0284  0.7325
   38POPC   H91 5102   5.347   1.643   7.442 -2.1120 -0.1018  1.3297
   38POPC  C210 5103   5.334   1.635   7.649  0.3027 -0.2367  0.0928
   38POPC  H101 5104   5.269   1.723   7.652 -1.6177 -1.5595 -0.2975
   38POPC  C211 5105   5.364   1.580   7.786  0.2308  0.2129  0.5232
   38POPC  H11R 5106   5.432   1.493   7.776 -1.3633 -0.8444 -2.0643
   38POPC  H11S 5107   5.268   1.550   7.832  0.1694  0.6770  0.6960
   38POPC  C212 5108   5.420   1.701   7.873  0.2375  0.5638 -0.9353
   38POPC  H12R 5109   5.428   1.671   7.979 -1.5028 -0.4182 -1.0440
   38POPC  H12S 5110   5.339   1.777   7.879 -0.0990  0.0765  1.8279
   38POPC  C213 5111   5.557   1.749   7.838 -0.0932 -0.3096  0.3077
   38POPC  H13R 5112   5.541   1.788   7.735  0.0747  0.0744  0.4263
   38POPC  H13S 5113   5.630   1.666   7.821 -0.2523 -0.2006 -1.0390
   38POPC  C214 5114   5.608   1.845   7.951 -0.3482  0.7488  0.2851
   38POPC  H14R 5115   5.622   1.798   8.051  0.2353  1.0067  0.3326
   38POPC  H14S 5116   5.524   1.917   7.962 -0.9175  0.2527 -0.7240
   38POPC  C215 5117   5.719   1.947   7.905 -0.0756  0.7697 -0.7732
   38POPC  H15R 5118   5.682   2.000   7.815  0.1825  1.6725 -0.3697
   38POPC  H15S 5119   5.812   1.886   7.900 -0.5818 -0.5377  2.8523
   38POPC  C216 5120   5.743   2.052   8.015  0.6796  0.4669 -0.1381
   38POPC  H16R 5121   5.785   1.996   8.102 -4.7410 -0.5496  2.2012
   38POPC  H16S 5122   5.649   2.096   8.054  1.4201  1.5925  0.4276
   38POPC  C217 5123   5.823   2.172   7.974  0.3344 -0.1816 -0.0882
   38POPC  H17R 5124   5.921   2.156   7.925  1.7061  0.2230  2.3747
   38POPC  H17S 5125   5.843   2.234   8.064 -2.3466  0.7918 -0.0638
   38POPC  C218 5126   5.735   2.259   7.876  0.0918  0.7360  1.1008
   38POPC  H18R 5127   5.641   2.298   7.920 -0.2806  1.4797 -0.2743
   38POPC  H18S 5128   5.719   2.193   7.788  3.2255  2.0798 -0.6279
   38POPC  H18T 5129   5.788   2.347   7.833 -1.0611  0.1232 -1.8777
   38POPC   C33 5130   5.468   0.938   7.130 -0.0825  0.0980  0.1798
   38POPC   H3X 5131   5.483   0.833   7.096  1.1645  0.0303  0.8828
   38POPC   H3Y 5132   5.360   0.961   7.129  0.1813  1.7416  2.0801
   38POPC   C34 5133   5.514   0.931   7.280  0.1644 -0.0298  0.2406
   38POPC   H4X 5134   5.625   0.942   7.279  0.4971 -2.5322  1.3747
   38POPC   H4Y 5135   5.473   0.839   7.328  0.5060  0.4330  1.4624
   38POPC   C35 5136   5.463   1.054   7.356  0.4063 -0.3225  0.4662
   38POPC   H5X 5137   5.352   1.049   7.361  0.2857  2.1390  2.0381
   38POPC   H5Y 5138   5.496   1.149   7.308  2.7349 -1.2240  0.1207
   38POPC   C36 5139   5.512   1.052   7.501  0.2008 -0.9739 -0.6311
   38POPC   H6X 5140   5.482   1.148   7.549  0.4256 -0.9323 -0.5708
   38POPC   H6Y 5141   5.623   1.054   7.508  0.2400 -1.4256 -1.1243
   38POPC   C37 5142   5.452   0.947   7.589  0.0419  0.3055  0.6941
   38POPC   H7X 5143   5.501   0.850   7.570 -2.2561 -0.9036  0.5942
   38POPC   H7Y 5144   5.342   0.934   7.582  0.0219 -0.4465  2.1554
   38POPC   C38 5145   5.475   0.971   7.732  0.0138 -0.6165 -0.2896
   38POPC   H8X 5146   5.437   1.076   7.741  3.8950  0.8980  0.7315
   38POPC   H8Y 5147   5.581   0.976   7.764 -0.1087 -0.2707  0.0840
   38POPC   C39 5148   5.408   0.879   7.829 -0.4852 -0.5370 -0.1744
   38POPC   H9X 5149   5.429   0.771   7.814 -0.4773 -0.7868  1.4220
   38POPC   H9Y 5150   5.298   0.887   7.818 -0.4875 -0.4743 -0.1113
   38POPC  C310 5151   5.452   0.901   7.982 -0.2979 -0.4233 -0.4281
   38POPC  H10X 5152   5.563   0.897   7.990 -0.2153  0.0932 -1.1701
   38POPC  H10Y 5153   5.398   0.828   8.045  0.1425 -0.2749  0.1329
   38POPC  C311 5154   5.417   1.037   8.047  0.1597  1.0238  0.1746
   38POPC  H11X 5155   5.306   1.050   8.052 -0.2053 -1.8166  1.1132
   38POPC  H11Y 5156   5.461   1.116   7.982  0.5094  0.7014  0.0220
   38POPC  C312 5157   5.466   1.055   8.190  0.2518  0.0748  0.2096
   38POPC  H12X 5158   5.576   1.037   8.191  0.1187 -0.7317  0.4387
   38POPC  H12Y 5159   5.426   0.987   8.267 -0.5408  0.1801 -0.1051
   38POPC  C313 5160   5.444   1.198   8.251  0.7011 -0.1255  0.5292
   38POPC  H13X 5161   5.464   1.278   8.177  0.6735 -0.3477  0.2785
   38POPC  H13Y 5162   5.508   1.206   8.342 -1.0464  0.5400  1.7482
   38POPC  C314 5163   5.297   1.220   8.303 -0.5121  0.1702  0.4649
   38POPC  H14X 5164   5.278   1.165   8.398  0.8529  0.5649  0.9977
   38POPC  H14Y 5165   5.214   1.197   8.233 -0.6902  0.4178  0.5947
   38POPC  C315 5166   5.271   1.368   8.339 -0.0617 -0.9115  1.2713
   38POPC  H15X 5167   5.267   1.430   8.246 -0.5995 -0.0669  1.8410
   38POPC  H15Y 5168   5.358   1.408   8.394  0.8148  0.8054 -1.1526
   38POPC  C316 5169   5.133   1.379   8.408 -0.6715 -0.7639  0.1162
   38POPC  H16X 5170   5.070   1.307   8.352 -0.4119 -0.1649 -0.9544
   38POPC  H16Y 5171   5.101   1.485   8.419  0.4000 -0.1858 -1.8779
   38POPC  H16Z 5172   5.139   1.345   8.514  0.3941 -0.6009  0.1216
   39POPC     N 5173   4.366   5.120   6.348 -0.0474  0.3706  0.3509
   39POPC   C12 5174   4.261   5.221   6.372  0.5346 -0.7591  0.1997
   39POPC  H12A 5175   4.261   5.293   6.292 -2.5239  0.1865  0.9121
   39POPC  H12B 5176   4.272   5.282   6.461  1.0094 -0.9217  0.2513
   39POPC   C13 5177   4.319   5.023   6.248 -0.1291 -0.3520 -0.3355
   39POPC  H13A 5178   4.396   4.959   6.208  0.7749 -1.8740  3.4617
   39POPC  H13B 5179   4.237   4.966   6.291  1.5509 -1.2852  1.8062
   39POPC  H13C 5180   4.275   5.074   6.163 -1.4339  0.0617  0.5555
   39POPC   C14 5181   4.496   5.186   6.301  0.7947 -0.0429  0.1120
   39POPC  H14A 5182   4.469   5.243   6.212  0.7064  0.6162  0.5533
   39POPC  H14B 5183   4.529   5.251   6.380  0.5791  0.6929 -0.3885
   39POPC  H14C 5184   4.570   5.112   6.275 -2.2284 -2.9730 -0.9129
   39POPC   C15 5185   4.402   5.050   6.473 -0.1808  0.0316  0.3894
   39POPC  H15A 5186   4.316   4.993   6.504 -0.3155 -1.0129 -1.7106
   39POPC  H15B 5187   4.421   5.118   6.555 -1.5088 -0.3141  1.0041
   39POPC  H15C 5188   4.491   4.988   6.467  0.8112  1.4944 -0.8044
   39POPC   C11 5189   4.108   5.176   6.403 -0.4024  0.3570  0.8633
   39POPC  H11A 5190   4.104   5.100   6.484 -1.6233 -0.2824  0.2406
   39POPC  H11B 5191   4.079   5.140   6.302  1.3713  2.2444 -0.3948
   39POPC     P 5192   3.890   5.314   6.393 -0.0862 -0.3134  0.0517
   39POPC   O13 5193   3.896   5.309   6.247  0.6250  0.8558  0.4466
   39POPC   O14 5194   3.835   5.437   6.453 -0.4249 -0.1319 -0.1885
   39POPC   O12 5195   4.030   5.289   6.444 -0.3924  0.3384  0.2132
   39POPC   O11 5196   3.799   5.195   6.437 -0.2874  0.1729  0.6331
   39POPC    C1 5197   3.811   5.115   6.556  0.6336 -0.6064  0.0557
   39POPC    HA 5198   3.893   5.148   6.624  0.7031  1.4603 -0.9513
   39POPC    HB 5199   3.810   5.008   6.527  1.3407 -0.6340  0.1183
   39POPC    C2 5200   3.677   5.139   6.637 -0.2296 -0.3740  0.4432
   39POPC    HS 5201   3.703   5.181   6.737 -1.9491 -1.2508  1.3212
   39POPC   O21 5202   3.599   5.020   6.649 -1.3517 -0.1904 -0.1799
   39POPC   C21 5203   3.650   4.924   6.736  0.0920  0.3292  0.5465
   39POPC   O22 5204   3.761   4.931   6.796  0.4057 -0.5043 -0.4088
   39POPC   C22 5205   3.550   4.814   6.754  0.6752 -0.2918 -0.3689
   39POPC   H2R 5206   3.585   4.748   6.837 -1.1181 -1.1711 -0.2443
   39POPC   H2S 5207   3.562   4.739   6.673 -1.1007 -4.5372  2.8649
   39POPC    C3 5208   3.577   5.245   6.576  0.6186  0.0159 -0.0974
   39POPC    HX 5209   3.563   5.207   6.473  0.2470  0.7409 -0.3129
   39POPC    HY 5210   3.614   5.348   6.562 -0.9025  0.5911 -0.1037
   39POPC   O31 5211   3.455   5.254   6.651 -0.3960 -0.0762  0.7024
   39POPC   C31 5212   3.466   5.327   6.762  1.4130 -0.5928  0.3380
   39POPC   O32 5213   3.570   5.371   6.797  0.0459 -0.6897 -0.7559
   39POPC   C32 5214   3.323   5.354   6.826  0.2507  1.1202  0.0158
   39POPC   H2X 5215   3.289   5.458   6.806  1.6601  1.4215 -0.9800
   39POPC   H2Y 5216   3.248   5.279   6.791  2.4787 -1.0895 -0.2676
   39POPC   C23 5217   3.409   4.856   6.786  0.1350  0.5403  0.5625
   39POPC   H3R 5218   3.330   4.778   6.781  0.4868  0.2083  0.0889
   39POPC   H3S 5219   3.369   4.933   6.716  1.7013  2.9864  2.2098
   39POPC   C24 5220   3.397   4.901   6.930 -0.0419 -0.7499 -0.3665
   39POPC   H4R 5221   3.487   4.960   6.956  0.0477 -0.6392 -0.9140
   39POPC   H4S 5222   3.407   4.808   6.989  0.2349 -1.0177 -0.8293
   39POPC   C25 5223   3.271   4.976   6.956  0.2192  0.3958 -0.2642
   39POPC   H5R 5224   3.197   4.914   6.902 -1.2542  0.2266  1.8552
   39POPC   H5S 5225   3.277   5.071   6.899  1.3191  1.3466  1.3295
   39POPC   C26 5226   3.239   4.997   7.107  0.7254  0.6613  0.1062
   39POPC   H6R 5227   3.318   5.058   7.154  0.9845  0.7399 -0.4170
   39POPC   H6S 5228   3.234   4.898   7.158  0.6170 -0.4158 -1.8553
   39POPC   C27 5229   3.103   5.050   7.132 -0.3006 -0.2475 -0.2945
   39POPC   H7R 5230   3.027   4.996   7.071  0.2592  0.0041 -1.2242
   39POPC   H7S 5231   3.079   5.154   7.104 -0.0425  0.1070  0.7383
   39POPC   C28 5232   3.076   5.053   7.287 -0.3176 -0.1849 -0.1136
   39POPC   H8R 5233   2.998   5.130   7.305 -1.0513 -0.9821  0.2175
   39POPC   H8S 5234   3.162   5.092   7.344 -1.1949 -1.6014  2.3232
   39POPC   C29 5235   3.034   4.925   7.349  0.1048  0.3457  0.0865
   39POPC   H91 5236   2.928   4.897   7.343  0.1096 -0.3963  2.6210
   39POPC  C210 5237   3.106   4.840   7.424  0.4925 -0.3839  0.0974
   39POPC  H101 5238   3.055   4.748   7.456  0.1722  1.1563  4.6181
   39POPC  C211 5239   3.242   4.845   7.467  0.0066 -0.5746 -0.8459
   39POPC  H11R 5240   3.319   4.883   7.397  1.3805 -0.8567  0.4696
   39POPC  H11S 5241   3.278   4.744   7.495  2.0535  0.1912 -0.5335
   39POPC  C212 5242   3.251   4.930   7.594  0.5902  0.1697  0.6474
   39POPC  H12R 5243   3.229   5.037   7.575  3.0387  0.9236  1.7290
   39POPC  H12S 5244   3.355   4.932   7.632  0.7292 -0.2257  0.2974
   39POPC  C213 5245   3.167   4.867   7.706  0.3751 -0.5877 -0.0668
   39POPC  H13R 5246   3.175   4.757   7.702 -0.7280 -0.6529 -1.1558
   39POPC  H13S 5247   3.061   4.895   7.685  0.8629  1.2603 -0.2488
   39POPC  C214 5248   3.188   4.931   7.839  0.2843 -0.2469  0.1838
   39POPC  H14R 5249   3.211   5.038   7.822 -0.9282 -0.2145 -1.5860
   39POPC  H14S 5250   3.267   4.886   7.903  0.8919  1.0944  0.4003
   39POPC  C215 5251   3.056   4.943   7.918  0.1628 -0.3125 -0.5999
   39POPC  H15R 5252   2.993   4.854   7.897 -0.4416 -0.4399  1.5344
   39POPC  H15S 5253   2.999   5.027   7.873  0.2420  0.2704  0.3558
   39POPC  C216 5254   3.080   4.941   8.068  0.7150  0.4816 -0.1163
   39POPC  H16R 5255   3.120   5.041   8.096  0.2426  0.5065  0.4911
   39POPC  H16S 5256   3.153   4.860   8.087 -0.4684 -1.0303 -1.6658
   39POPC  C217 5257   2.951   4.909   8.146 -0.3045  0.3582  0.0249
   39POPC  H17R 5258   2.911   4.810   8.117  0.1000 -0.0421  0.7860
   39POPC  H17S 5259   2.878   4.987   8.116 -1.7566 -1.7710 -2.2617
   39POPC  C218 5260   2.966   4.899   8.301 -0.6919  0.4424  0.2486
   39POPC  H18R 5261   3.018   4.996   8.314  1.0651  0.0325 -2.6828
   39POPC  H18S 5262   3.040   4.823   8.333 -1.4621 -0.9028 -1.0295
   39POPC  H18T 5263   2.872   4.883   8.358  0.1678  2.2380  2.2927
   39POPC   C33 5264   3.325   5.344   6.985 -1.1612  0.0106 -0.8470
   39POPC   H3X 5265   3.387   5.257   7.017 -0.7467  1.2680  1.9964
   39POPC   H3Y 5266   3.221   5.311   7.007 -0.4380 -1.1367  1.0956
   39POPC   C34 5267   3.367   5.483   7.058 -0.0284  0.1992  0.2511
   39POPC   H4X 5268   3.322   5.570   7.007 -0.1602  0.5244  0.9060
   39POPC   H4Y 5269   3.476   5.500   7.063 -0.2655  1.6665  1.1014
   39POPC   C35 5270   3.328   5.481   7.203  0.7600  0.1179  0.0013
   39POPC   H5X 5271   3.222   5.447   7.205  0.5763  0.6963  0.5079
   39POPC   H5Y 5272   3.320   5.584   7.244  0.0193  0.4886 -1.0349
   39POPC   C36 5273   3.418   5.395   7.286  0.3068 -0.3766 -0.3823
   39POPC   H6X 5274   3.517   5.446   7.291 -0.0281  0.3516 -1.0238
   39POPC   H6Y 5275   3.424   5.297   7.236  1.8336  0.3912 -1.7913
   39POPC   C37 5276   3.362   5.382   7.423  0.2578  0.0961  0.3015
   39POPC   H7X 5277   3.261   5.337   7.432  0.1210  0.1692 -0.7641
   39POPC   H7Y 5278   3.356   5.486   7.462 -1.3509 -0.5073  1.8231
   39POPC   C38 5279   3.446   5.300   7.521 -0.3715  0.1491 -0.4488
   39POPC   H8X 5280   3.555   5.311   7.499  0.0239  0.8006  1.5565
   39POPC   H8Y 5281   3.421   5.193   7.506 -0.2293 -0.2562  1.7744
   39POPC   C39 5282   3.420   5.357   7.662  0.0262  0.5450  0.4290
   39POPC   H9X 5283   3.313   5.342   7.688 -0.0822 -4.5869 -1.8694
   39POPC   H9Y 5284   3.450   5.464   7.667  1.3725  0.1754  0.6224
   39POPC  C310 5285   3.492   5.269   7.765  0.0351  0.4730  0.8129
   39POPC  H10X 5286   3.595   5.308   7.763  0.8940 -1.6069  1.2926
   39POPC  H10Y 5287   3.484   5.166   7.722 -2.4531  1.1211 -0.4701
   39POPC  C311 5288   3.431   5.275   7.907  0.0358  0.0971  0.4190
   39POPC  H11X 5289   3.450   5.180   7.962 -0.7969  0.9769  2.2961
   39POPC  H11Y 5290   3.321   5.273   7.895 -0.0604  0.3387  1.2184
   39POPC  C312 5291   3.460   5.405   7.979 -0.5301 -0.3176  0.2303
   39POPC  H12X 5292   3.393   5.478   7.927  1.1401 -1.2452 -3.6300
   39POPC  H12Y 5293   3.563   5.441   7.961  0.0229 -1.8064  0.2377
   39POPC  C313 5294   3.424   5.398   8.133 -0.3634 -0.3106  0.3674
   39POPC  H13X 5295   3.516   5.355   8.179 -1.0791  0.5571  2.7734
   39POPC  H13Y 5296   3.339   5.328   8.145  1.4264 -2.4896  0.8188
   39POPC  C314 5297   3.386   5.535   8.189 -0.0912  0.2293 -0.6713
   39POPC  H14X 5298   3.285   5.557   8.148 -0.6593 -0.1847  0.4582
   39POPC  H14Y 5299   3.452   5.614   8.147 -0.6468  1.7762  1.2198
   39POPC  C315 5300   3.369   5.532   8.342 -0.1786 -0.4365  0.0440
   39POPC  H15X 5301   3.456   5.492   8.399  0.5993  1.4415  0.2322
   39POPC  H15Y 5302   3.283   5.463   8.353  1.1565 -1.8542  2.4876
   39POPC  C316 5303   3.333   5.667   8.400  0.0102 -0.7857 -0.3174
   39POPC  H16X 5304   3.325   5.656   8.511  0.9324  1.0553 -0.0287
   39POPC  H16Y 5305   3.232   5.695   8.363  0.4429  1.0980 -0.1908
   39POPC  H16Z 5306   3.396   5.754   8.370 -1.4910  0.0343 -1.2059
   40POPC     N 5307   2.180   1.697   6.237 -0.1690  0.0767  0.1842
   40POPC   C12 5308   2.195   1.636   6.376 -0.4084  0.0675  0.1746
   40POPC  H12A 5309   2.219   1.713   6.449 -3.0257 -0.2801  1.5444
   40POPC  H12B 5310   2.274   1.563   6.375 -0.7249 -0.2982 -1.9886
   40POPC   C13 5311   2.071   1.797   6.227 -0.5601  0.8679  0.2894
   40POPC  H13A 5312   2.047   1.841   6.132 -2.7641  0.3469  0.5405
   40POPC  H13B 5313   1.979   1.752   6.263  1.4962 -1.6707  2.8534
   40POPC  H13C 5314   2.091   1.877   6.297  0.5241  1.3898 -0.6056
   40POPC   C14 5315   2.308   1.765   6.192  0.8579 -0.3142  0.3936
   40POPC  H14A 5316   2.316   1.851   6.258 -2.7263  0.1296  0.4676
   40POPC  H14B 5317   2.399   1.709   6.206  1.5715  0.4986 -0.7694
   40POPC  H14C 5318   2.301   1.798   6.089  0.6121 -1.7606 -0.0661
   40POPC   C15 5319   2.153   1.590   6.137  0.7857  0.1774  0.1885
   40POPC  H15A 5320   2.223   1.508   6.143 -2.5409 -2.9149  0.7665
   40POPC  H15B 5321   2.156   1.627   6.036  0.2766  0.0734  0.1331
   40POPC  H15C 5322   2.052   1.553   6.148  0.3823  0.7286 -1.4351
   40POPC   C11 5323   2.067   1.573   6.432 -0.1702  0.7265 -0.4563
   40POPC  H11A 5324   1.976   1.637   6.424 -1.1755 -0.5540  0.4130
   40POPC  H11B 5325   2.093   1.558   6.539  1.2989 -1.3425 -1.0283
   40POPC     P 5326   2.089   1.313   6.368 -0.3148 -0.4565 -0.2842
   40POPC   O13 5327   2.241   1.327   6.367 -0.8595  0.3751  0.3972
   40POPC   O14 5328   2.022   1.228   6.267  0.0870 -0.1545  0.3477
   40POPC   O12 5329   2.026   1.455   6.357  0.0197 -0.3961 -0.2660
   40POPC   O11 5330   2.042   1.256   6.505 -0.5776 -0.1200  0.3214
   40POPC    C1 5331   1.903   1.239   6.530 -0.4547 -0.4179  0.2084
   40POPC    HA 5332   1.834   1.254   6.444 -1.3783 -0.4894  0.9187
   40POPC    HB 5333   1.879   1.316   6.607  0.6406 -1.1744  1.3510
   40POPC    C2 5334   1.872   1.101   6.591 -0.7292  0.4698 -0.3340
   40POPC    HS 5335   1.764   1.078   6.598 -0.7049  0.6513  0.8993
   40POPC   O21 5336   1.935   1.101   6.717  0.0035 -0.5685  0.0160
   40POPC   C21 5337   1.862   1.063   6.822 -0.7761  0.2766 -0.0453
   40POPC   O22 5338   1.751   1.013   6.818 -0.2862 -0.2486  0.0845
   40POPC   C22 5339   1.949   1.066   6.948 -0.1585  0.2978  0.4509
   40POPC   H2R 5340   2.027   1.144   6.937  1.3359 -1.2055 -0.1609
   40POPC   H2S 5341   1.996   0.965   6.944 -1.6777 -0.3881 -1.3568
   40POPC    C3 5342   1.939   0.993   6.494  0.3161  0.3069 -0.2331
   40POPC    HX 5343   2.043   1.023   6.469  1.3100 -2.1230  0.6691
   40POPC    HY 5344   1.878   0.996   6.401  2.2783  1.7394 -1.5510
   40POPC   O31 5345   1.942   0.862   6.547 -0.6930  0.6442  0.3286
   40POPC   C31 5346   1.830   0.793   6.548  0.6806 -0.0273 -0.0673
   40POPC   O32 5347   1.720   0.829   6.513  0.4711 -0.5894  0.7959
   40POPC   C32 5348   1.853   0.642   6.602 -0.2829  0.2802 -0.2497
   40POPC   H2X 5349   1.919   0.614   6.517  2.5523  2.6865  1.0116
   40POPC   H2Y 5350   1.760   0.582   6.609 -0.3157  0.3076 -0.4304
   40POPC   C23 5351   1.872   1.074   7.088 -0.5629  0.0271 -0.0919
   40POPC   H3R 5352   1.849   0.970   7.118  1.9057  0.0006  2.0456
   40POPC   H3S 5353   1.781   1.136   7.072  0.2435  1.8049  1.7468
   40POPC   C24 5354   1.945   1.143   7.208  0.3565 -0.1175  0.7761
   40POPC   H4R 5355   1.987   1.241   7.175 -1.4973  0.8715  1.1891
   40POPC   H4S 5356   2.023   1.078   7.252  0.6698 -1.1735 -1.2324
   40POPC   C25 5357   1.855   1.163   7.325  0.4628  0.1505 -0.0612
   40POPC   H5R 5358   1.806   1.066   7.350 -0.7495  0.7770  0.0749
   40POPC   H5S 5359   1.769   1.228   7.298  2.7214  3.3614 -0.0799
   40POPC   C26 5360   1.934   1.217   7.444 -0.1354  0.1006  0.1921
   40POPC   H6R 5361   2.009   1.283   7.395 -0.8180 -0.9926 -2.5050
   40POPC   H6S 5362   1.996   1.130   7.477  1.2884  1.4905  1.3560
   40POPC   C27 5363   1.851   1.291   7.549  1.2583 -0.1093  0.0543
   40POPC   H7R 5364   1.750   1.248   7.562  1.2524  0.5748  3.1789
   40POPC   H7S 5365   1.846   1.393   7.508  3.4811 -0.0103 -0.1350
   40POPC   C28 5366   1.905   1.291   7.694 -0.7475  0.7546  0.4217
   40POPC   H8R 5367   1.943   1.190   7.720 -1.4701  0.2416 -0.4410
   40POPC   H8S 5368   1.814   1.305   7.756 -2.5530 -1.8585 -1.4068
   40POPC   C29 5369   2.006   1.402   7.706  0.8120 -0.3975  0.6310
   40POPC   H91 5370   2.025   1.458   7.614  0.8669 -0.5202  0.5671
   40POPC  C210 5371   2.036   1.447   7.829 -1.1137 -0.1906 -0.0217
   40POPC  H101 5372   2.115   1.523   7.840  0.4874 -1.9750  1.5118
   40POPC  C211 5373   1.987   1.398   7.958 -0.2338 -0.5392 -0.7567
   40POPC  H11R 5374   1.885   1.353   7.955 -1.2761  1.6283  0.1867
   40POPC  H11S 5375   1.972   1.481   8.030  0.3281  1.1266 -2.4892
   40POPC  C212 5376   2.081   1.309   8.036  0.5068 -0.6122  0.1495
   40POPC  H12R 5377   2.174   1.366   8.057 -0.6332  1.4381 -0.0514
   40POPC  H12S 5378   2.095   1.216   7.977  1.6732 -0.1216 -0.3912
   40POPC  C213 5379   2.027   1.277   8.176  0.0844  0.1166  0.0697
   40POPC  H13R 5380   2.065   1.185   8.225  1.1961  1.3142  1.5271
   40POPC  H13S 5381   1.918   1.255   8.174  0.5609 -2.8272  0.6310
   40POPC  C214 5382   2.048   1.385   8.285 -0.8372 -0.2831  0.0084
   40POPC  H14R 5383   2.055   1.483   8.234 -1.0355 -0.3351 -0.1172
   40POPC  H14S 5384   2.150   1.370   8.327 -0.8610 -0.6799 -0.0709
   40POPC  C215 5385   1.954   1.391   8.401  0.2342 -0.0149  0.9423
   40POPC  H15R 5386   1.856   1.419   8.359  0.7422  1.1528  0.4951
   40POPC  H15S 5387   1.986   1.472   8.471  0.4750  1.9472 -1.3331
   40POPC  C216 5388   1.940   1.259   8.476  0.9420  0.5518 -0.4657
   40POPC  H16R 5389   2.034   1.202   8.491  1.1844  1.3450  1.1747
   40POPC  H16S 5390   1.875   1.198   8.410  0.1175  0.8560  0.0443
   40POPC  C217 5391   1.860   1.285   8.608  0.4569  0.1555 -0.3117
   40POPC  H17R 5392   1.766   1.337   8.582  1.5693  0.5689 -4.1430
   40POPC  H17S 5393   1.925   1.341   8.679  2.1133 -2.1673  0.1503
   40POPC  C218 5394   1.819   1.155   8.675  0.3228 -0.0411 -0.0386
   40POPC  H18R 5395   1.910   1.094   8.689  0.1773 -0.8964 -2.4400
   40POPC  H18S 5396   1.751   1.090   8.616  0.1520 -0.4110  0.5530
   40POPC  H18T 5397   1.768   1.163   8.774  0.4491 -1.3873  0.1511
   40POPC   C33 5398   1.935   0.641   6.729  0.5534 -0.5727 -0.5821
   40POPC   H3X 5399   2.025   0.706   6.720  1.8788 -1.6327  3.0381
   40POPC   H3Y 5400   1.976   0.539   6.738 -0.2159 -0.8925 -0.6623
   40POPC   C34 5401   1.852   0.658   6.847  0.1936 -0.1208  0.7354
   40POPC   H4X 5402   1.770   0.583   6.847 -0.5767  0.6917  1.0862
   40POPC   H4Y 5403   1.805   0.757   6.829  0.3946 -0.1790 -0.1687
   40POPC   C35 5404   1.940   0.643   6.976  0.0798 -0.0925 -0.4485
   40POPC   H5X 5405   2.011   0.729   6.977  0.4598 -0.4026  0.5575
   40POPC   H5Y 5406   2.010   0.556   6.968 -0.2458 -0.2579 -1.5597
   40POPC   C36 5407   1.860   0.651   7.111  0.2535 -0.7154 -0.3054
   40POPC   H6X 5408   1.768   0.589   7.107 -0.5321  0.2729  1.2185
   40POPC   H6Y 5409   1.819   0.755   7.114  1.8327 -0.0936  2.0305
   40POPC   C37 5410   1.951   0.638   7.235 -0.1413  0.0723 -0.0282
   40POPC   H7X 5411   2.039   0.703   7.215 -0.8333  0.9051 -0.4790
   40POPC   H7Y 5412   1.976   0.530   7.237 -0.3798  0.0218  1.9294
   40POPC   C38 5413   1.873   0.696   7.357 -0.0879 -0.4854 -0.3882
   40POPC   H8X 5414   1.769   0.659   7.359 -0.2296 -0.0951  1.4807
   40POPC   H8Y 5415   1.862   0.806   7.346 -4.3649 -0.6707  0.4309
   40POPC   C39 5416   1.941   0.665   7.495 -0.7453  0.5812 -0.1375
   40POPC   H9X 5417   2.037   0.720   7.493 -0.8714  0.7871 -0.9705
   40POPC   H9Y 5418   1.973   0.558   7.503 -0.7714  0.5439 -0.5200
   40POPC  C310 5419   1.848   0.705   7.612  0.7775 -0.1016 -0.5695
   40POPC  H10X 5420   1.770   0.626   7.619 -0.9091  1.5282 -0.1925
   40POPC  H10Y 5421   1.800   0.805   7.602 -0.2193  0.0015  3.4523
   40POPC  C311 5422   1.932   0.689   7.743  0.8392  0.2215 -0.4186
   40POPC  H11X 5423   2.030   0.735   7.717  0.9445  0.1604 -0.1349
   40POPC  H11Y 5424   1.967   0.584   7.751  0.9055  0.2419 -0.4360
   40POPC  C312 5425   1.872   0.742   7.877 -0.3270 -0.4138 -0.4731
   40POPC  H12X 5426   1.762   0.730   7.887 -0.1860 -0.9761  0.5073
   40POPC  H12Y 5427   1.891   0.851   7.884 -0.7998 -0.3772  0.4966
   40POPC  C313 5428   1.920   0.660   7.994  0.4848  0.7375 -0.2332
   40POPC  H13X 5429   2.031   0.654   7.994  0.7539  3.6696  1.7283
   40POPC  H13Y 5430   1.869   0.564   7.969 -0.2716  1.5205 -1.7961
   40POPC  C314 5431   1.859   0.702   8.132  0.4398  0.2863  0.4250
   40POPC  H14X 5432   1.858   0.623   8.210  2.3091 -1.0133 -0.7824
   40POPC  H14Y 5433   1.758   0.741   8.110  1.3945  2.4200 -0.4495
   40POPC  C315 5434   1.943   0.815   8.178  0.2596  0.1843  0.1048
   40POPC  H15X 5435   1.980   0.873   8.091  0.5030 -0.1337 -0.0046
   40POPC  H15Y 5436   2.023   0.790   8.251 -1.2049  0.0925  1.7524
   40POPC  C316 5437   1.865   0.933   8.243  0.3660  0.3337 -0.0009
   40POPC  H16X 5438   1.810   0.981   8.158  0.2773 -1.2386 -0.8733
   40POPC  H16Y 5439   1.935   1.005   8.289  0.7336 -1.4641  2.4033
   40POPC  H16Z 5440   1.802   0.897   8.327 -0.4441  0.0500 -0.7144
   41CHL1    C3 5441   5.734   0.130  10.142  0.1604 -0.1019 -0.5646
   41CHL1    H3 5442   5.642   0.192  10.138  0.6578  0.7899  1.0195
   41CHL1    O3 5443   5.769   0.074  10.273  0.7638 -0.2437 -0.2746
   41CHL1   H3' 5444   5.695   0.019  10.300  0.9742 -0.7993 -0.7938
   41CHL1    C4 5445   5.721   0.012  10.047  0.0239  0.8224  0.1632
   41CHL1   H4A 5446   5.812  -0.050  10.065  0.3040  0.7683 -1.3052
   41CHL1   H4B 5447   5.638  -0.048  10.089  1.1693 -1.3403 -0.5183
   41CHL1    C5 5448   5.713   0.049   9.902  0.1648  0.3762  0.1749
   41CHL1    C6 5449   5.614   0.012   9.821 -0.1514  0.6503 -0.0980
   41CHL1    H6 5450   5.542  -0.056   9.868  1.4862 -1.0183  0.1161
   41CHL1    C7 5451   5.607   0.036   9.673 -0.1232 -0.1192  1.2158
   41CHL1   H7A 5452   5.575  -0.059   9.624 -1.5700  1.4291 -1.0423
   41CHL1   H7B 5453   5.545   0.123   9.645 -1.0264 -0.7160  1.3137
   41CHL1    C8 5454   5.746   0.070   9.603  0.1212  0.3619 -1.0047
   41CHL1    H8 5455   5.813  -0.018   9.596 -0.4410 -0.1995  0.2851
   41CHL1   C14 5456   5.727   0.125   9.464  0.5688 -0.2962  0.1825
   41CHL1   H14 5457   5.664   0.216   9.465  0.5494 -0.1738 -2.6507
   41CHL1   C15 5458   5.657   0.036   9.366 -0.1563  0.1717  0.3246
   41CHL1  H15A 5459   5.695  -0.067   9.354 -0.1892  0.2891 -0.8455
   41CHL1  H15B 5460   5.555   0.025   9.410 -0.6736  0.1369 -0.8445
   41CHL1   C16 5461   5.682   0.111   9.229 -0.5702 -0.3495 -0.2625
   41CHL1  H16A 5462   5.709   0.021   9.171 -0.0058 -0.4894  0.2102
   41CHL1  H16B 5463   5.589   0.152   9.184 -2.7060 -2.7737  1.6370
   41CHL1   C17 5464   5.808   0.202   9.253  0.0089 -0.1309  0.5995
   41CHL1   H17 5465   5.776   0.308   9.264  1.7070  0.6812 -1.4706
   41CHL1   C13 5466   5.856   0.168   9.398 -0.4030  1.0268  0.1523
   41CHL1   C18 5467   5.949   0.047   9.386  0.2339  0.1988 -0.0403
   41CHL1  H18A 5468   5.977  -0.006   9.480 -1.6429  0.0502  0.4773
   41CHL1  H18B 5469   5.909  -0.037   9.326  1.3104 -1.0990  0.9875
   41CHL1  H18C 5470   6.043   0.083   9.339 -0.5714  1.1433 -0.9620
   41CHL1   C12 5471   5.920   0.282   9.484 -0.3221  0.0607 -0.0923
   41CHL1  H12A 5472   6.008   0.335   9.441  1.1472 -1.2492  1.2206
   41CHL1  H12B 5473   5.846   0.366   9.481 -0.3777  0.0233  0.2646
   41CHL1   C11 5474   5.949   0.224   9.626 -0.0245  0.2422  0.0390
   41CHL1  H11A 5475   6.027   0.146   9.623 -2.3493 -2.2156  0.0537
   41CHL1  H11B 5476   6.000   0.311   9.674  1.4942  0.3590 -1.7018
   41CHL1    C9 5477   5.815   0.179   9.696 -0.1060  0.2821  0.6254
   41CHL1    H9 5478   5.742   0.263   9.699 -0.6564 -0.1996  0.9231
   41CHL1   C10 5479   5.823   0.137   9.846 -0.4839 -0.2118 -0.0932
   41CHL1   C19 5480   5.958   0.075   9.861 -0.3366  0.7115  0.1630
   41CHL1  H19A 5481   5.975   0.007   9.774  1.1056  1.3160 -0.0576
   41CHL1  H19B 5482   6.038   0.150   9.875 -1.0970  1.3443  1.2308
   41CHL1  H19C 5483   5.969   0.007   9.948 -0.7209 -1.5940 -1.4823
   41CHL1    C1 5484   5.826   0.256   9.946 -0.5352  0.2582  0.1963
   41CHL1   H1A 5485   5.912   0.321   9.919 -0.4230 -0.0980 -0.3270
   41CHL1   H1B 5486   5.736   0.320   9.947  0.3450  1.6433 -1.7708
   41CHL1    C2 5487   5.850   0.217  10.098  0.5993 -0.3475  0.4588
   41CHL1   H2A 5488   5.845   0.310  10.158 -1.1907 -0.2130  0.1676
   41CHL1   H2B 5489   5.950   0.170  10.100 -0.2647 -2.8462 -3.2638
   41CHL1   C20 5490   5.910   0.191   9.143 -0.7059 -0.2390  0.0891
   41CHL1   H20 5491   5.963   0.094   9.147  1.9363  0.9705 -2.1794
   41CHL1   C21 5492   6.020   0.299   9.164 -0.5958 -0.0428  0.0264
   41CHL1  H21A 5493   5.972   0.399   9.164 -0.6292 -0.0246  1.8072
   41CHL1  H21B 5494   6.071   0.288   9.066 -0.4196  1.7856 -0.1195
   41CHL1  H21C 5495   6.094   0.281   9.245  0.1844  1.7841 -0.2370
   41CHL1   C22 5496   5.842   0.205   9.000 -0.3376 -0.3322  1.3992
   41CHL1  H22A 5497   5.925   0.184   8.930 -2.3243 -2.0526 -0.6146
   41CHL1  H22B 5498   5.779   0.114   8.988  1.4658 -1.2710 -2.1858
   41CHL1   C23 5499   5.768   0.328   8.962 -0.5992 -0.4461 -0.0183
   41CHL1  H23A 5500   5.704   0.368   9.043  0.2007  0.6296  0.1066
   41CHL1  H23B 5501   5.850   0.397   8.931  0.8877 -1.3111  1.7858
   41CHL1   C24 5502   5.681   0.304   8.839 -0.2508 -0.5978  0.2445
   41CHL1  H24A 5503   5.603   0.225   8.847 -2.2305  1.2886  1.0045
   41CHL1  H24B 5504   5.618   0.396   8.841 -0.0186 -0.4378  0.2045
   41CHL1   C25 5505   5.751   0.317   8.703  0.1811  0.1907  0.3961
   41CHL1   H25 5506   5.829   0.396   8.696 -0.1171  0.3518 -3.0255
   41CHL1   C26 5507   5.796   0.182   8.653 -0.4662  0.6557 -0.4132
   41CHL1  H26A 5508   5.846   0.188   8.554 -0.4521 -0.3353 -0.4767
   41CHL1  H26B 5509   5.873   0.134   8.717  0.8742  0.8367 -1.8335
   41CHL1  H26C 5510   5.709   0.114   8.640 -0.4374  0.6982 -0.8521
   41CHL1   C27 5511   5.639   0.377   8.614 -0.8512  0.5503  0.5676
   41CHL1  H27A 5512   5.609   0.483   8.630 -1.5747  0.3625  0.4609
   41CHL1  H27B 5513   5.671   0.373   8.507  1.3989 -1.9006  1.2270
   41CHL1  H27C 5514   5.546   0.317   8.617 -0.3833 -0.3842 -1.6352
   42CHL1    C3 5515   0.695   6.217   9.811 -0.2076  0.4341  0.1642
   42CHL1    H3 5516   0.749   6.311   9.834  2.0527 -0.1619 -2.1541
   42CHL1    O3 5517   0.729   6.125   9.914  0.2049 -0.1221  0.2128
   42CHL1   H3' 5518   0.651   6.072   9.930  0.5063 -0.4858  0.4962
   42CHL1    C4 5519   0.542   6.232   9.814 -0.0854 -0.1367  1.3366
   42CHL1   H4A 5520   0.496   6.132   9.823 -0.3518  0.0837  2.5508
   42CHL1   H4B 5521   0.528   6.286   9.910 -1.1238  0.0646  1.0843
   42CHL1    C5 5522   0.484   6.306   9.692 -0.4859  0.4061  0.2831
   42CHL1    C6 5523   0.400   6.410   9.706 -0.5564 -0.5691  0.5327
   42CHL1    H6 5524   0.371   6.443   9.807 -1.0100  1.6062 -0.2542
   42CHL1    C7 5525   0.346   6.489   9.590  0.2182  0.3064 -0.0814
   42CHL1   H7A 5526   0.241   6.502   9.622  0.2727 -0.3870  0.4069
   42CHL1   H7B 5527   0.400   6.586   9.581  0.2308  0.2643 -0.4614
   42CHL1    C8 5528   0.364   6.419   9.453  0.4509 -0.3057  0.1368
   42CHL1    H8 5529   0.293   6.334   9.453 -1.0700  0.9186  0.2042
   42CHL1   C14 5530   0.341   6.506   9.336  0.3034 -0.4890 -0.0876
   42CHL1   H14 5531   0.425   6.578   9.349 -0.1704  0.3623 -1.4753
   42CHL1   C15 5532   0.228   6.610   9.328  0.2541  0.1659 -0.1362
   42CHL1  H15A 5533   0.135   6.566   9.371  0.6172 -2.4104 -1.7672
   42CHL1  H15B 5534   0.254   6.705   9.380 -0.0981 -0.6772  1.6672
   42CHL1   C16 5535   0.208   6.644   9.181 -0.2111 -0.4032  0.1100
   42CHL1  H16A 5536   0.106   6.617   9.147  0.3639 -0.8173 -1.4051
   42CHL1  H16B 5537   0.218   6.754   9.169 -1.7968 -0.4480 -2.4485
   42CHL1   C17 5538   0.321   6.572   9.102 -1.0861 -0.1388  0.7383
   42CHL1   H17 5539   0.408   6.642   9.102 -2.3254  1.4702  0.5558
   42CHL1   C13 5540   0.354   6.444   9.196 -0.0434 -0.1233  0.1389
   42CHL1   C18 5541   0.239   6.345   9.168 -0.1127 -0.8052 -0.1797
   42CHL1  H18A 5542   0.247   6.262   9.242  0.3242  0.9314  1.8295
   42CHL1  H18B 5543   0.139   6.394   9.176 -1.3521 -3.1241 -0.5413
   42CHL1  H18C 5544   0.241   6.300   9.067  0.5184  1.5873 -1.3071
   42CHL1   C12 5545   0.492   6.383   9.192 -0.1257  0.2001  0.1185
   42CHL1  H12A 5546   0.508   6.331   9.095 -1.6887 -0.1283  0.0011
   42CHL1  H12B 5547   0.572   6.460   9.188 -0.8062  0.9193  0.1938
   42CHL1   C11 5548   0.513   6.287   9.304 -0.2523 -0.3104 -0.8569
   42CHL1  H11A 5549   0.433   6.210   9.304 -1.5416  0.9627  0.2523
   42CHL1  H11B 5550   0.613   6.239   9.298  0.3657  0.8780 -0.3213
   42CHL1    C9 5551   0.503   6.356   9.445 -0.6693  0.4234  0.5042
   42CHL1    H9 5552   0.576   6.439   9.455 -0.5119  0.3983 -0.3660
   42CHL1   C10 5553   0.540   6.254   9.555  0.5201  0.0022 -0.5090
   42CHL1   C19 5554   0.480   6.111   9.534 -0.2852 -0.0382  0.3418
   42CHL1  H19A 5555   0.370   6.123   9.529 -0.0782  2.0137 -0.1568
   42CHL1  H19B 5556   0.518   6.067   9.439 -2.0294  2.9167 -1.8782
   42CHL1  H19C 5557   0.513   6.027   9.599  1.0688 -0.0063 -0.2754
   42CHL1    C1 5558   0.688   6.251   9.568  0.0656  0.4079  0.3198
   42CHL1   H1A 5559   0.742   6.205   9.482 -0.0420 -0.6747  0.8217
   42CHL1   H1B 5560   0.732   6.352   9.584  3.1125 -0.8200  0.4418
   42CHL1    C2 5561   0.746   6.164   9.676 -0.7804  0.4648 -0.4885
   42CHL1   H2A 5562   0.855   6.147   9.671 -1.0945 -1.4475 -1.7071
   42CHL1   H2B 5563   0.710   6.063   9.645  0.9064  0.3240 -2.1639
   42CHL1   C20 5564   0.296   6.541   8.950 -0.0420  0.6306 -0.5882
   42CHL1   H20 5565   0.233   6.452   8.928 -0.3666  0.5608  0.5716
   42CHL1   C21 5566   0.418   6.504   8.864  0.6289 -0.1944 -0.3292
   42CHL1  H21A 5567   0.393   6.488   8.758 -0.5015  0.1081 -0.1160
   42CHL1  H21B 5568   0.469   6.414   8.904  0.8574 -0.3430 -0.9552
   42CHL1  H21C 5569   0.499   6.581   8.866  1.5007 -1.0529  2.0002
   42CHL1   C22 5570   0.218   6.657   8.877  0.0851 -0.2382 -0.2486
   42CHL1  H22A 5571   0.199   6.618   8.774  0.0193 -2.2424  0.4856
   42CHL1  H22B 5572   0.114   6.675   8.912  0.6795  2.8269  0.1665
   42CHL1   C23 5573   0.291   6.796   8.877  0.2834  0.9610  0.6858
   42CHL1  H23A 5574   0.327   6.832   8.976  0.2327  1.7302  0.4318
   42CHL1  H23B 5575   0.381   6.798   8.812  0.0487 -2.0297  0.1424
   42CHL1   C24 5576   0.199   6.911   8.838  0.2842  0.1296 -0.4217
   42CHL1  H24A 5577   0.111   6.906   8.905  1.6529  2.1654  1.6811
   42CHL1  H24B 5578   0.235   7.013   8.861  1.2482 -0.6255  1.6365
   42CHL1   C25 5579   0.136   6.889   8.695  0.0810  0.2570  0.6770
   42CHL1   H25 5580   0.088   6.789   8.692  0.4932  0.0737 -0.4463
   42CHL1   C26 5581   0.022   6.985   8.667  0.3868  0.2332  0.3146
   42CHL1  H26A 5582  -0.021   6.959   8.568 -0.3053 -1.2330  0.9642
   42CHL1  H26B 5583  -0.061   6.960   8.737  1.9886 -0.8366  1.9606
   42CHL1  H26C 5584   0.054   7.091   8.673  1.8687  0.0159 -2.3254
   42CHL1   C27 5585   0.239   6.881   8.580 -0.2600  0.1623 -0.6830
   42CHL1  H27A 5586   0.308   6.798   8.604 -1.8908 -0.5509  2.0145
   42CHL1  H27B 5587   0.181   6.871   8.485 -1.4816  3.2341 -0.3800
   42CHL1  H27C 5588   0.297   6.975   8.570  0.2053  0.0562  0.7526
   43CHL1    C3 5589   3.817   0.153  10.166  0.9848  0.0423  0.0774
   43CHL1    H3 5590   3.792   0.261  10.163  1.1976  0.0755 -0.7156
   43CHL1    O3 5591   3.738   0.094  10.266 -0.4527  0.2292 -0.4578
   43CHL1   H3' 5592   3.781   0.140  10.339 -1.7494 -1.4571  1.4711
   43CHL1    C4 5593   3.765   0.105  10.028  0.0520 -0.0179  0.0322
   43CHL1   H4A 5594   3.759  -0.005  10.033 -0.4336  0.0184  0.3235
   43CHL1   H4B 5595   3.659   0.137  10.021 -0.0576 -0.5621 -1.0313
   43CHL1    C5 5596   3.845   0.131   9.904  0.1536 -0.1869  0.3482
   43CHL1    C6 5597   3.789   0.184   9.793 -0.3029 -0.0351  0.1398
   43CHL1    H6 5598   3.683   0.210   9.791 -0.4269 -0.4353  0.9566
   43CHL1    C7 5599   3.862   0.204   9.669 -0.3827 -0.2979  0.0669
   43CHL1   H7A 5600   3.814   0.161   9.578 -0.0955 -2.1327  0.7312
   43CHL1   H7B 5601   3.875   0.314   9.662 -0.8648 -0.2813 -0.7008
   43CHL1    C8 5602   4.010   0.152   9.664  0.8620  0.9427 -0.3826
   43CHL1    H8 5603   4.002   0.047   9.629  1.1986  0.9855 -0.6017
   43CHL1   C14 5604   4.086   0.233   9.559  0.1258  0.3805 -0.4217
   43CHL1   H14 5605   4.091   0.333   9.607 -0.6460 -0.0183  0.5360
   43CHL1   C15 5606   4.022   0.262   9.421  0.2021 -0.2659 -0.2729
   43CHL1  H15A 5607   3.975   0.170   9.381 -0.1986 -0.6155  0.9674
   43CHL1  H15B 5608   3.948   0.345   9.427  1.2899  0.6240  3.4331
   43CHL1   C16 5609   4.146   0.295   9.341  0.1747  0.2583  0.1980
   43CHL1  H16A 5610   4.134   0.234   9.249 -2.6061  2.1556 -0.8517
   43CHL1  H16B 5611   4.152   0.401   9.308  0.8363 -0.8098 -3.5974
   43CHL1   C17 5612   4.275   0.268   9.430  0.1278  0.8229  0.1563
   43CHL1   H17 5613   4.288   0.370   9.471 -0.2339  0.3433  1.5185
   43CHL1   C13 5614   4.228   0.178   9.544 -0.3242 -0.2963 -0.0925
   43CHL1   C18 5615   4.225   0.033   9.482  0.3810 -0.2003  0.1695
   43CHL1  H18A 5616   4.191   0.030   9.376 -1.1459 -3.0449  0.6504
   43CHL1  H18B 5617   4.328  -0.007   9.475  0.3962 -0.1032 -0.2042
   43CHL1  H18C 5618   4.163  -0.032   9.547 -2.4072  2.7287  0.7014
   43CHL1   C12 5619   4.299   0.175   9.678 -0.0405  0.1870  0.6120
   43CHL1  H12A 5620   4.393   0.116   9.671  0.2820  0.7391  0.1585
   43CHL1  H12B 5621   4.327   0.280   9.703  2.6209 -0.1398 -0.5952
   43CHL1   C11 5622   4.222   0.098   9.789  0.4976 -0.3249 -0.3668
   43CHL1  H11A 5623   4.226  -0.009   9.761 -2.8887 -0.6796  0.1076
   43CHL1  H11B 5624   4.271   0.114   9.887  0.9763  1.6518 -0.8780
   43CHL1    C9 5625   4.081   0.160   9.802  0.4945  0.2215  0.1617
   43CHL1    H9 5626   4.094   0.267   9.830  2.2320 -0.6318  3.0477
   43CHL1   C10 5627   4.000   0.105   9.926 -0.0992  0.6351  0.3477
   43CHL1   C19 5628   4.007  -0.049   9.927  1.0510  0.2880  0.6625
   43CHL1  H19A 5629   3.991  -0.093   9.826 -1.1381  0.3271  0.9587
   43CHL1  H19B 5630   4.112  -0.080   9.945  0.7415 -0.0950  1.9121
   43CHL1  H19C 5631   3.938  -0.092  10.002 -0.5025 -0.9035 -1.3281
   43CHL1    C1 5632   4.047   0.160  10.060  0.6649 -0.0001  0.8033
   43CHL1   H1A 5633   4.149   0.120  10.080  1.4373  1.0045 -0.8963
   43CHL1   H1B 5634   4.059   0.270  10.052  4.5315 -0.3153  0.1070
   43CHL1    C2 5635   3.962   0.128  10.189  0.5078 -0.2274  0.0831
   43CHL1   H2A 5636   4.010   0.173  10.279  0.8951 -1.9953  0.8005
   43CHL1   H2B 5637   3.989   0.021  10.200 -0.6875 -0.4136  1.4740
   43CHL1   C20 5638   4.403   0.235   9.349 -0.3746  0.2105  0.1198
   43CHL1   H20 5639   4.387   0.134   9.305 -0.2412  0.8366 -1.3929
   43CHL1   C21 5640   4.516   0.233   9.448 -0.0058 -0.7708 -0.7190
   43CHL1  H21A 5641   4.512   0.140   9.508 -0.0773 -1.3810 -1.6543
   43CHL1  H21B 5642   4.510   0.317   9.521 -1.1241  0.5377 -2.2511
   43CHL1  H21C 5643   4.620   0.244   9.409  0.3975  2.6675  0.9049
   43CHL1   C22 5644   4.422   0.332   9.236  0.1493  0.2888 -0.2880
   43CHL1  H22A 5645   4.327   0.353   9.183  0.2586  1.2527 -0.1151
   43CHL1  H22B 5646   4.468   0.425   9.275  1.6059 -1.2401  1.8965
   43CHL1   C23 5647   4.526   0.296   9.123  0.0788 -0.1501  0.0650
   43CHL1  H23A 5648   4.624   0.272   9.169 -1.1298  0.3951  3.1706
   43CHL1  H23B 5649   4.482   0.206   9.075 -0.4431  0.1967 -0.1180
   43CHL1   C24 5650   4.530   0.410   9.016 -0.3431 -0.9956  0.1460
   43CHL1  H24A 5651   4.429   0.444   8.982  0.3929 -0.4060 -1.5596
   43CHL1  H24B 5652   4.583   0.500   9.054  0.2863 -0.5481 -1.6875
   43CHL1   C25 5653   4.615   0.383   8.889  0.1173 -0.2520  0.3962
   43CHL1   H25 5654   4.545   0.318   8.832 -1.9277 -0.7602  3.2491
   43CHL1   C26 5655   4.633   0.515   8.815  0.0254 -0.0188 -1.2830
   43CHL1  H26A 5656   4.699   0.496   8.728  2.0174 -1.1157  0.3889
   43CHL1  H26B 5657   4.538   0.568   8.791  1.4276  2.1253 -2.3714
   43CHL1  H26C 5658   4.684   0.585   8.885  0.6791 -0.7645 -1.0030
   43CHL1   C27 5659   4.739   0.308   8.935 -0.2700  0.5184 -0.0257
   43CHL1  H27A 5660   4.787   0.353   9.024  2.1787 -0.3722 -0.7905
   43CHL1  H27B 5661   4.703   0.205   8.959 -0.0163  0.6362  0.8836
   43CHL1  H27C 5662   4.826   0.304   8.865 -1.0761  0.3917 -1.0408
   44CHL1    C3 5663   6.217   0.833  10.303 -0.3212 -0.0113  0.4996
   44CHL1    H3 5664   6.207   0.725  10.281  0.3130 -0.3854  1.9048
   44CHL1    O3 5665   6.189   0.846  10.440  0.2995  0.0442  0.3019
   44CHL1   H3' 5666   6.186   0.942  10.445  0.9272  0.1308 -0.7129
   44CHL1    C4 5667   6.364   0.856  10.279 -0.5039  0.3144  0.2220
   44CHL1   H4A 5668   6.388   0.957  10.320  0.0158 -0.1001  0.9673
   44CHL1   H4B 5669   6.423   0.794  10.349 -2.1587  1.5238  2.8569
   44CHL1    C5 5670   6.399   0.854  10.130  0.2526  0.0968  0.3735
   44CHL1    C6 5671   6.502   0.783  10.075  0.2981  0.0026  0.2818
   44CHL1    H6 5672   6.572   0.730  10.142  0.2682 -0.2111  0.1453
   44CHL1    C7 5673   6.543   0.773   9.932 -0.8043  0.5152  0.5470
   44CHL1   H7A 5674   6.654   0.776   9.931 -0.7771  4.1553  1.3020
   44CHL1   H7B 5675   6.517   0.673   9.892  0.3098 -0.3998  2.0132
   44CHL1    C8 5676   6.486   0.890   9.845  0.0794  0.6951 -0.3829
   44CHL1    H8 5677   6.537   0.986   9.868 -0.4028  0.7790  0.3695
   44CHL1   C14 5678   6.513   0.863   9.703  0.0485 -0.1046 -0.6944
   44CHL1   H14 5679   6.460   0.768   9.678 -1.8446  0.8315 -0.4091
   44CHL1   C15 5680   6.656   0.824   9.665 -0.1678 -0.0668 -0.3627
   44CHL1  H15A 5681   6.731   0.901   9.697 -0.6542  0.0582  0.5207
   44CHL1  H15B 5682   6.698   0.728   9.702  0.7142  0.3427 -0.2753
   44CHL1   C16 5683   6.652   0.829   9.514  0.4988 -0.0962 -0.0944
   44CHL1  H16A 5684   6.728   0.897   9.470 -0.4336  0.7525 -0.4211
   44CHL1  H16B 5685   6.663   0.732   9.461  1.4699  1.6155 -3.2644
   44CHL1   C17 5686   6.509   0.892   9.479 -0.2948  0.7246 -0.1362
   44CHL1   H17 5687   6.442   0.805   9.461 -1.0500  1.5477 -1.4498
   44CHL1   C13 5688   6.452   0.958   9.609  0.0509 -0.0984  0.2202
   44CHL1   C18 5689   6.524   1.091   9.621  0.1326 -0.1794 -0.2582
   44CHL1  H18A 5690   6.465   1.166   9.565 -1.4101  0.3840  1.9641
   44CHL1  H18B 5691   6.545   1.121   9.726  0.0234  0.9150 -0.5424
   44CHL1  H18C 5692   6.628   1.098   9.582  0.0080 -2.1426 -1.0524
   44CHL1   C12 5693   6.301   0.969   9.627 -0.8887  0.1444 -0.5234
   44CHL1  H12A 5694   6.262   1.059   9.576 -1.3647  0.1131 -0.2212
   44CHL1  H12B 5695   6.250   0.877   9.589 -1.6713 -0.2338  1.3374
   44CHL1   C11 5696   6.269   1.001   9.778 -0.4372  0.8366 -0.5282
   44CHL1  H11A 5697   6.297   1.105   9.805  1.4893  0.1882  0.1024
   44CHL1  H11B 5698   6.160   0.992   9.796 -0.4070 -1.7172 -1.2631
   44CHL1    C9 5699   6.335   0.904   9.876 -0.5008 -0.7124 -0.6824
   44CHL1    H9 5700   6.285   0.809   9.850 -0.3203 -0.4450 -2.0938
   44CHL1   C10 5701   6.309   0.942  10.031 -0.5265  0.6995  0.4250
   44CHL1   C19 5702   6.329   1.093  10.056  0.0773 -0.4319  0.3448
   44CHL1  H19A 5703   6.256   1.152   9.996  3.1225  1.2158 -2.0002
   44CHL1  H19B 5704   6.309   1.128  10.160  1.2132 -1.9474  1.1013
   44CHL1  H19C 5705   6.431   1.130  10.032  0.4230  1.7145  4.3156
   44CHL1    C1 5706   6.163   0.902  10.063  0.0088 -0.1256  0.6464
   44CHL1   H1A 5707   6.095   0.949   9.989  2.0510  0.6220 -0.8577
   44CHL1   H1B 5708   6.155   0.797  10.028 -2.5195  1.0709 -2.8644
   44CHL1    C2 5709   6.119   0.918  10.207  0.5572 -0.6496 -0.5507
   44CHL1   H2A 5710   6.018   0.874  10.225  0.7872 -1.2167 -0.6387
   44CHL1   H2B 5711   6.130   1.026  10.227  0.9365 -0.7991  0.0796
   44CHL1   C20 5712   6.508   0.981   9.349  0.0321  0.0833 -0.8237
   44CHL1   H20 5713   6.561   1.077   9.370  1.7476 -1.2560  1.5557
   44CHL1   C21 5714   6.363   1.001   9.314  0.5414  0.5894  0.7284
   44CHL1  H21A 5715   6.313   1.065   9.390 -1.1698  1.5519 -1.1055
   44CHL1  H21B 5716   6.309   0.907   9.295  2.8350 -0.4143 -1.4073
   44CHL1  H21C 5717   6.364   1.063   9.221  1.3595 -0.6143 -0.0970
   44CHL1   C22 5718   6.582   0.917   9.223  0.3578  0.0443 -0.5236
   44CHL1  H22A 5719   6.674   0.861   9.248 -0.0064 -0.0317  0.7168
   44CHL1  H22B 5720   6.509   0.844   9.181  1.1430 -0.2581 -1.3809
   44CHL1   C23 5721   6.617   1.014   9.112  0.4197 -0.0628  0.0497
   44CHL1  H23A 5722   6.520   1.052   9.073  0.1850  0.8548  1.4637
   44CHL1  H23B 5723   6.677   1.103   9.141  0.7899 -1.0400  2.4389
   44CHL1   C24 5724   6.674   0.961   8.979 -0.1451  0.0426  0.5986
   44CHL1  H24A 5725   6.764   0.903   9.008  1.8758  1.4244 -2.3775
   44CHL1  H24B 5726   6.592   0.906   8.927 -1.1023 -1.3325  3.4011
   44CHL1   C25 5727   6.733   1.077   8.897  0.5834  0.3967 -0.1042
   44CHL1   H25 5728   6.806   1.123   8.966 -1.9594  2.9730  1.0732
   44CHL1   C26 5729   6.798   1.011   8.770 -0.9596  0.1922  0.4990
   44CHL1  H26A 5730   6.850   1.097   8.722  3.8035 -1.9028  1.2817
   44CHL1  H26B 5731   6.870   0.931   8.797 -0.5640  0.2057 -0.4749
   44CHL1  H26C 5732   6.730   0.965   8.695  0.3701  1.7245 -1.7538
   44CHL1   C27 5733   6.637   1.187   8.854 -0.2650  0.9220  0.4201
   44CHL1  H27A 5734   6.586   1.236   8.940  0.9390  0.7148  1.2684
   44CHL1  H27B 5735   6.688   1.269   8.799 -2.4018  1.4621 -0.9243
   44CHL1  H27C 5736   6.549   1.148   8.797 -1.5932  0.7742  2.4493
   45CHL1    C3 5737   3.383   4.591  10.228  1.0287  0.1111 -0.4743
   45CHL1    H3 5738   3.312   4.507  10.239  0.8090  0.4339  0.6739
   45CHL1    O3 5739   3.398   4.652  10.355  0.2079 -0.2110  0.5695
   45CHL1   H3' 5740   3.307   4.663  10.384  0.2691  0.2774  0.5728
   45CHL1    C4 5741   3.514   4.539  10.165  0.1201  0.3809 -0.5991
   45CHL1   H4A 5742   3.591   4.618  10.172 -0.6498  1.1970 -1.1676
   45CHL1   H4B 5743   3.544   4.454  10.231 -0.6337  1.4102  1.1389
   45CHL1    C5 5744   3.510   4.484  10.021 -0.4417 -0.3131  0.2711
   45CHL1    C6 5745   3.548   4.360   9.990  0.1125  0.1858 -0.1659
   45CHL1    H6 5746   3.587   4.304  10.076 -3.4416  0.2847  1.7097
   45CHL1    C7 5747   3.530   4.302   9.851 -0.0060  0.6039  0.1968
   45CHL1   H7A 5748   3.626   4.248   9.839 -0.1335  0.4283 -0.0324
   45CHL1   H7B 5749   3.451   4.225   9.850 -1.0183  1.5917 -1.5328
   45CHL1    C8 5750   3.490   4.397   9.735  0.8972  0.3824  0.2014
   45CHL1    H8 5751   3.428   4.343   9.660  0.8282  3.1777 -1.9519
   45CHL1   C14 5752   3.607   4.441   9.647  0.1109  0.1882 -0.2267
   45CHL1   H14 5753   3.676   4.498   9.713 -0.8370  0.6468  0.3916
   45CHL1   C15 5754   3.675   4.326   9.570  0.0746  0.2436 -0.1052
   45CHL1  H15A 5755   3.786   4.323   9.576  0.3278 -1.8157 -3.2013
   45CHL1  H15B 5756   3.642   4.229   9.613 -2.1920  1.2302  0.5320
   45CHL1   C16 5757   3.629   4.325   9.426 -0.3803 -0.2442  0.3862
   45CHL1  H16A 5758   3.716   4.334   9.357  0.7688 -2.4556  1.4511
   45CHL1  H16B 5759   3.571   4.233   9.405 -0.1300 -0.7088  1.6333
   45CHL1   C17 5760   3.529   4.441   9.413 -0.1174 -0.2064  0.4085
   45CHL1   H17 5761   3.430   4.405   9.448 -0.9332  0.8182 -0.7634
   45CHL1   C13 5762   3.565   4.537   9.532 -0.2810  0.8976  0.5008
   45CHL1   C18 5763   3.700   4.599   9.497  0.5586  0.5245  0.0319
   45CHL1  H18A 5764   3.690   4.681   9.422  0.8080 -1.0020 -1.7429
   45CHL1  H18B 5765   3.743   4.637   9.592 -0.9759 -0.0836  1.0128
   45CHL1  H18C 5766   3.768   4.524   9.451 -0.0330  0.4324 -0.7219
   45CHL1   C12 5767   3.463   4.639   9.578 -0.4753 -0.6347 -0.5195
   45CHL1  H12A 5768   3.525   4.716   9.630 -0.7816  0.7500 -2.1119
   45CHL1  H12B 5769   3.421   4.696   9.492  0.4822 -1.2757 -1.4400
   45CHL1   C11 5770   3.345   4.595   9.667  0.3411  0.1704 -0.6619
   45CHL1  H11A 5771   3.283   4.684   9.687  0.8629 -0.1268  3.1698
   45CHL1  H11B 5772   3.289   4.531   9.596  0.1220  0.6035 -0.8823
   45CHL1    C9 5773   3.395   4.507   9.784  0.0360  0.8015 -0.3703
   45CHL1    H9 5774   3.304   4.452   9.817  0.2511 -0.3290 -1.5324
   45CHL1   C10 5775   3.442   4.576   9.916 -0.5659  0.4868 -0.6329
   45CHL1   C19 5776   3.538   4.692   9.884 -0.0707  0.5042  1.0295
   45CHL1  H19A 5777   3.628   4.646   9.835 -2.4584 -2.3760 -1.0509
   45CHL1  H19B 5778   3.493   4.776   9.828  2.1065  0.5977 -0.7237
   45CHL1  H19C 5779   3.582   4.741   9.973 -0.7494  0.3467  1.4569
   45CHL1    C1 5780   3.315   4.649   9.990  0.1175 -0.3010  1.1599
   45CHL1   H1A 5781   3.285   4.737   9.929  0.4898 -0.6124  0.5099
   45CHL1   H1B 5782   3.228   4.580   9.981 -0.0533 -0.0125  0.4771
   45CHL1    C2 5783   3.327   4.698  10.131 -0.4233  0.0751 -0.8140
   45CHL1   H2A 5784   3.232   4.738  10.174 -0.0979 -0.6207  0.6204
   45CHL1   H2B 5785   3.388   4.791  10.130  0.4506 -0.4743 -0.2306
   45CHL1   C20 5786   3.509   4.502   9.272 -0.6766  0.0397 -0.6073
   45CHL1   H20 5787   3.463   4.602   9.279 -0.2949  0.2177 -0.6432
   45CHL1   C21 5788   3.398   4.420   9.203  0.0681  0.0070  0.1963
   45CHL1  H21A 5789   3.425   4.316   9.174 -1.7152 -0.4764  0.1582
   45CHL1  H21B 5790   3.379   4.458   9.100 -0.6572  1.2812  0.7730
   45CHL1  H21C 5791   3.304   4.414   9.261  0.2215 -0.3660  0.4097
   45CHL1   C22 5792   3.634   4.512   9.186  0.1419  0.3338  0.2176
   45CHL1  H22A 5793   3.721   4.549   9.245 -0.5452 -1.1424  2.2772
   45CHL1  H22B 5794   3.651   4.405   9.163 -2.7167  0.0285 -0.8678
   45CHL1   C23 5795   3.627   4.602   9.064 -0.4800 -0.5074  0.6325
   45CHL1  H23A 5796   3.542   4.569   9.000  0.0095  2.3249 -1.6822
   45CHL1  H23B 5797   3.602   4.703   9.102  1.5312  0.2344  0.1165
   45CHL1   C24 5798   3.758   4.608   8.969  0.3854 -0.1034  0.0617
   45CHL1  H24A 5799   3.815   4.697   9.000  0.5523 -0.0124 -0.4927
   45CHL1  H24B 5800   3.825   4.523   8.996 -0.5201 -0.8601 -0.0077
   45CHL1   C25 5801   3.725   4.615   8.814  0.2349  0.1716 -0.7267
   45CHL1   H25 5802   3.673   4.518   8.800 -0.8476  0.8548 -1.6908
   45CHL1   C26 5803   3.633   4.734   8.768 -0.2293 -0.3137 -0.2301
   45CHL1  H26A 5804   3.598   4.697   8.669  0.5713 -0.7169 -0.3698
   45CHL1  H26B 5805   3.541   4.746   8.829 -0.6632  0.7565 -1.0783
   45CHL1  H26C 5806   3.688   4.830   8.764 -1.6183  0.4677 -1.8437
   45CHL1   C27 5807   3.858   4.619   8.738 -0.4497 -0.0271 -0.1594
   45CHL1  H27A 5808   3.842   4.599   8.629  2.2125 -2.5430 -0.2087
   45CHL1  H27B 5809   3.916   4.713   8.745 -1.0842  0.5245 -1.7945
   45CHL1  H27C 5810   3.918   4.536   8.781  0.7131  0.0390 -1.5656
   46CHL1    C3 5811   0.338   4.369  10.190 -0.8296 -0.4966 -0.4729
   46CHL1    H3 5812   0.236   4.330  10.168 -0.8655 -0.7754  0.1723
   46CHL1    O3 5813   0.348   4.410  10.331  0.4007 -0.2368 -0.0686
   46CHL1   H3' 5814   0.307   4.496  10.338  0.4304 -0.2221 -0.0763
   46CHL1    C4 5815   0.461   4.266  10.157  0.5490 -0.2906 -0.1683
   46CHL1   H4A 5816   0.557   4.316  10.180  0.2038  1.0031 -1.3736
   46CHL1   H4B 5817   0.446   4.172  10.214  0.7695 -0.0710  0.2548
   46CHL1    C5 5818   0.463   4.228  10.011  0.1386  0.1843  0.2735
   46CHL1    C6 5819   0.452   4.098   9.971  0.4856 -0.2225  0.1942
   46CHL1    H6 5820   0.439   4.018  10.045 -0.4549  1.3466  1.8401
   46CHL1    C7 5821   0.448   4.059   9.827  0.5863  0.2400 -0.6302
   46CHL1   H7A 5822   0.499   3.961   9.821 -1.3099 -0.9629  1.3303
   46CHL1   H7B 5823   0.341   4.046   9.800  1.1383 -0.3349 -2.7536
   46CHL1    C8 5824   0.509   4.171   9.737  0.3566 -0.3082 -0.0379
   46CHL1    H8 5825   0.617   4.167   9.761  0.5358  0.9981 -0.5789
   46CHL1   C14 5826   0.481   4.137   9.589  0.3603 -0.4371 -0.1787
   46CHL1   H14 5827   0.370   4.143   9.579  0.1759  1.2526  2.0665
   46CHL1   C15 5828   0.521   3.995   9.523 -0.0121  0.1507 -0.2735
   46CHL1  H15A 5829   0.624   3.965   9.552 -0.1524 -1.5364 -1.3838
   46CHL1  H15B 5830   0.445   3.920   9.552  0.8725 -0.9874 -0.8131
   46CHL1   C16 5831   0.532   4.024   9.370  0.1180  0.4502  0.1746
   46CHL1  H16A 5832   0.632   3.992   9.336 -0.7010 -2.6138  0.3965
   46CHL1  H16B 5833   0.457   3.966   9.313  1.4092  1.6300 -2.9308
   46CHL1   C17 5834   0.505   4.176   9.353  0.6924 -0.1005  0.1665
   46CHL1   H17 5835   0.395   4.183   9.342  0.6355  0.5363  1.0324
   46CHL1   C13 5836   0.541   4.237   9.488  0.1652  0.3217 -0.7054
   46CHL1   C18 5837   0.697   4.242   9.501  0.5364  0.0603  0.6787
   46CHL1  H18A 5838   0.728   4.255   9.607  2.6079 -1.0484  0.2452
   46CHL1  H18B 5839   0.738   4.147   9.462 -0.5367 -0.6115  1.1503
   46CHL1  H18C 5840   0.742   4.323   9.440 -0.2783  0.5003  0.6434
   46CHL1   C12 5841   0.469   4.366   9.523 -0.0155 -0.9006  0.5177
   46CHL1  H12A 5842   0.516   4.447   9.464 -0.8318  0.4121  1.6138
   46CHL1  H12B 5843   0.363   4.352   9.495  0.1284 -0.6714 -0.1529
   46CHL1   C11 5844   0.474   4.410   9.666  0.5813 -0.6887  0.2439
   46CHL1  H11A 5845   0.579   4.442   9.680  0.5038 -0.8650  1.2842
   46CHL1  H11B 5846   0.410   4.500   9.679  0.5485 -1.0297  3.0448
   46CHL1    C9 5847   0.443   4.306   9.765 -0.1715 -0.1639  0.1993
   46CHL1    H9 5848   0.335   4.287   9.752 -0.2587 -0.0098  0.6696
   46CHL1   C10 5849   0.465   4.352   9.913  0.5801 -0.0208 -0.3190
   46CHL1   C19 5850   0.610   4.413   9.937 -0.3805  0.1035 -0.4466
   46CHL1  H19A 5851   0.623   4.430  10.046 -0.9563  0.2872 -0.4044
   46CHL1  H19B 5852   0.689   4.336   9.917 -2.3445 -2.2405  0.2899
   46CHL1  H19C 5853   0.626   4.511   9.888 -0.7912  0.4291  0.0613
   46CHL1    C1 5854   0.348   4.443   9.954 -0.2008 -0.9930 -0.1622
   46CHL1   H1A 5855   0.350   4.532   9.886  3.5081  0.1711  1.2275
   46CHL1   H1B 5856   0.258   4.386   9.922 -1.6621  0.4507  1.1839
   46CHL1    C2 5857   0.351   4.497  10.094  0.7876  0.4247  0.7422
   46CHL1   H2A 5858   0.261   4.552  10.129 -0.4207 -1.9754  1.6286
   46CHL1   H2B 5859   0.445   4.548  10.125  0.7084 -0.3297  2.3317
   46CHL1   C20 5860   0.570   4.229   9.222  0.1685 -0.7670 -0.1723
   46CHL1   H20 5861   0.680   4.239   9.236  0.2235 -0.0919 -1.0496
   46CHL1   C21 5862   0.516   4.364   9.192  0.1032 -0.2435  0.1564
   46CHL1  H21A 5863   0.563   4.443   9.255 -2.2894  1.4429 -0.0258
   46CHL1  H21B 5864   0.405   4.367   9.204 -0.2231  0.1802 -2.3835
   46CHL1  H21C 5865   0.544   4.393   9.089  0.4032  1.8474  0.7683
   46CHL1   C22 5866   0.548   4.127   9.103 -1.2709  0.4560  0.1705
   46CHL1  H22A 5867   0.599   4.029   9.097  1.0833  1.6906 -3.0340
   46CHL1  H22B 5868   0.442   4.106   9.078 -0.8345 -0.6980 -0.7932
   46CHL1   C23 5869   0.605   4.179   8.963  0.4455 -0.3950  0.0905
   46CHL1  H23A 5870   0.530   4.251   8.925 -1.0566 -2.0104 -0.1196
   46CHL1  H23B 5871   0.707   4.219   8.981 -0.4634  1.7730  0.7583
   46CHL1   C24 5872   0.590   4.083   8.840  0.1907 -0.3319  0.5039
   46CHL1  H24A 5873   0.656   3.996   8.860 -1.5090 -2.4632 -2.5068
   46CHL1  H24B 5874   0.486   4.047   8.832  0.2579 -0.2911 -0.7945
   46CHL1   C25 5875   0.611   4.142   8.706  0.1336  0.3083  0.1838
   46CHL1   H25 5876   0.540   4.227   8.701 -0.6081  0.1306  4.4041
   46CHL1   C26 5877   0.749   4.196   8.681  0.2727 -0.7316 -0.0172
   46CHL1  H26A 5878   0.832   4.122   8.678  0.9826  0.0779 -0.4642
   46CHL1  H26B 5879   0.748   4.255   8.587 -0.3898  0.3488  0.6500
   46CHL1  H26C 5880   0.780   4.268   8.758 -1.1262  1.4377 -1.3702
   46CHL1   C27 5881   0.575   4.043   8.586 -0.0941 -0.0253 -0.0669
   46CHL1  H27A 5882   0.471   4.006   8.601  0.6051 -1.9324  0.4855
   46CHL1  H27B 5883   0.596   4.097   8.492 -0.9313  0.8275  0.2284
   46CHL1  H27C 5884   0.633   3.949   8.605  2.1639  1.1739 -0.6576
   47CHL1    C3 5885   1.245   6.601  10.375 -0.2786  0.6341 -0.3361
   47CHL1    H3 5886   1.150   6.655  10.393 -0.1805  0.1046  2.1250
   47CHL1    O3 5887   1.297   6.566  10.507  0.2526 -0.0550  0.0328
   47CHL1   H3' 5888   1.392   6.572  10.497  0.5682 -1.4518  1.7662
   47CHL1    C4 5889   1.204   6.472  10.299  0.3511 -0.3134 -0.2091
   47CHL1   H4A 5890   1.292   6.404  10.295  1.2362  0.8058 -0.2013
   47CHL1   H4B 5891   1.124   6.414  10.350 -0.2520  0.9331  0.3051
   47CHL1    C5 5892   1.153   6.511  10.165  0.0295 -0.1656  0.3859
   47CHL1    C6 5893   1.029   6.497  10.118 -0.5635  0.2574 -0.3708
   47CHL1    H6 5894   0.954   6.460  10.190 -0.4681 -0.6028 -0.7031
   47CHL1    C7 5895   0.986   6.521   9.981  0.1581  0.1626  0.1095
   47CHL1   H7A 5896   0.910   6.448   9.944 -0.7965  0.7097  0.9675
   47CHL1   H7B 5897   0.948   6.624   9.965 -0.1188 -0.1678 -1.5996
   47CHL1    C8 5898   1.113   6.511   9.885 -0.0822 -0.0508  0.0675
   47CHL1    H8 5899   1.156   6.409   9.892  0.6817  0.2467 -0.1691
   47CHL1   C14 5900   1.072   6.537   9.741 -0.5114  0.3240  0.2029
   47CHL1   H14 5901   1.029   6.638   9.758  1.1132  0.7167  2.4771
   47CHL1   C15 5902   0.961   6.454   9.673  0.2508  0.4298  0.9868
   47CHL1  H15A 5903   0.962   6.349   9.710 -2.6612  0.1503  0.4887
   47CHL1  H15B 5904   0.865   6.485   9.720 -0.6180 -2.4279  1.2664
   47CHL1   C16 5905   0.985   6.464   9.522  0.9418 -0.0812 -0.0262
   47CHL1  H16A 5906   0.983   6.367   9.469 -0.4351 -0.0273 -0.1266
   47CHL1  H16B 5907   0.902   6.516   9.470  2.1201 -0.8305 -2.8028
   47CHL1   C17 5908   1.109   6.556   9.508 -0.4513 -0.5044  0.4449
   47CHL1   H17 5909   1.078   6.663   9.502  0.3874 -0.2564  0.4241
   47CHL1   C13 5910   1.186   6.546   9.642  0.3925  0.1510  0.0857
   47CHL1   C18 5911   1.271   6.415   9.635 -0.8850  0.4756  0.1351
   47CHL1  H18A 5912   1.307   6.375   9.733  0.3723 -1.2757 -0.9921
   47CHL1  H18B 5913   1.207   6.332   9.599 -0.9518 -0.2895  1.8832
   47CHL1  H18C 5914   1.358   6.419   9.567 -3.0838 -1.3666 -2.9948
   47CHL1   C12 5915   1.272   6.670   9.680 -0.5967  0.1167 -0.9995
   47CHL1  H12A 5916   1.346   6.698   9.602 -0.1455 -1.4077 -1.1451
   47CHL1  H12B 5917   1.204   6.756   9.698 -1.1047 -0.2443 -1.1748
   47CHL1   C11 5918   1.331   6.635   9.822 -0.7198 -0.4927 -0.1017
   47CHL1  H11A 5919   1.402   6.550   9.816 -0.1763 -0.1122  0.7799
   47CHL1  H11B 5920   1.394   6.720   9.855 -0.3709 -0.5099 -0.7081
   47CHL1    C9 5921   1.221   6.605   9.929  0.1846  0.1739  0.3521
   47CHL1    H9 5922   1.171   6.704   9.940 -0.3698  0.2099 -2.0966
   47CHL1   C10 5923   1.265   6.574  10.075 -0.2419 -0.1046 -0.4802
   47CHL1   C19 5924   1.384   6.473  10.055 -0.8044  0.3596 -0.1387
   47CHL1  H19A 5925   1.358   6.385   9.991 -1.2966  0.8817 -0.6667
   47CHL1  H19B 5926   1.470   6.527  10.011  1.8168 -1.3422  2.4984
   47CHL1  H19C 5927   1.438   6.440  10.146  3.4112  2.1367 -1.7492
   47CHL1    C1 5928   1.306   6.701  10.149 -1.2832 -0.3534  0.4157
   47CHL1   H1A 5929   1.391   6.749  10.096  0.0815 -2.5362  0.5251
   47CHL1   H1B 5930   1.226   6.778  10.152 -1.4659 -0.5653  2.4854
   47CHL1    C2 5931   1.350   6.680  10.294  0.4638 -0.1789 -0.3521
   47CHL1   H2A 5932   1.365   6.777  10.346  1.7550 -1.3834  1.6775
   47CHL1   H2B 5933   1.449   6.630  10.299  0.0135 -1.0155  0.6173
   47CHL1   C20 5934   1.188   6.518   9.380  0.3435  0.1842  0.0027
   47CHL1   H20 5935   1.222   6.412   9.378  0.4936  0.2360 -2.5328
   47CHL1   C21 5936   1.319   6.593   9.369 -0.1782 -0.4146  0.3069
   47CHL1  H21A 5937   1.370   6.573   9.272 -0.4689  1.8286 -0.3719
   47CHL1  H21B 5938   1.393   6.569   9.449  0.9281  1.0783 -0.2013
   47CHL1  H21C 5939   1.291   6.700   9.360  1.6262 -0.0876 -2.6182
   47CHL1   C22 5940   1.121   6.529   9.242  0.4646 -0.2978 -0.0500
   47CHL1  H22A 5941   1.014   6.501   9.258 -0.0194  0.4094 -1.7818
   47CHL1  H22B 5942   1.122   6.636   9.213  0.6062  0.6883  3.2390
   47CHL1   C23 5943   1.178   6.430   9.138  0.0942  0.2509 -0.5828
   47CHL1  H23A 5944   1.278   6.390   9.167  0.4787 -0.3651 -2.5749
   47CHL1  H23B 5945   1.112   6.341   9.128  0.5606 -0.0753 -0.8625
   47CHL1   C24 5946   1.203   6.490   8.993 -0.0460 -0.4530 -0.4014
   47CHL1  H24A 5947   1.109   6.530   8.948  0.6808  0.0274 -1.5447
   47CHL1  H24B 5948   1.274   6.573   9.014  0.0088 -0.8654  1.1701
   47CHL1   C25 5949   1.278   6.391   8.895 -0.6078  0.4933 -0.2505
   47CHL1   H25 5950   1.196   6.324   8.860  0.9007 -0.7679 -1.5364
   47CHL1   C26 5951   1.335   6.464   8.766  0.8502 -0.1092 -0.1432
   47CHL1  H26A 5952   1.418   6.531   8.796 -0.1730  0.9561  0.3691
   47CHL1  H26B 5953   1.261   6.537   8.729  0.3221  0.6231  2.1836
   47CHL1  H26C 5954   1.374   6.400   8.684 -0.1420  0.7833 -1.3573
   47CHL1   C27 5955   1.388   6.298   8.959 -0.8222 -1.1018  0.1311
   47CHL1  H27A 5956   1.337   6.251   9.046 -0.8617 -1.5149 -0.1134
   47CHL1  H27B 5957   1.432   6.225   8.888 -0.3682  0.2233 -0.9947
   47CHL1  H27C 5958   1.469   6.361   9.003 -0.1923 -1.8712  0.1040
   48CHL1    C3 5959   1.779   0.041  10.254  0.2636  0.4266 -0.4783
   48CHL1    H3 5960   1.809   0.147  10.242  0.7547  0.4204  0.5447
   48CHL1    O3 5961   1.758   0.034  10.391 -0.3213  0.5679 -0.1930
   48CHL1   H3' 5962   1.713  -0.050  10.404  1.0821 -0.0998  0.6300
   48CHL1    C4 5963   1.648   0.018  10.182 -0.3203  0.3505 -0.4623
   48CHL1   H4A 5964   1.627  -0.087  10.210 -1.1058  1.0093  1.6326
   48CHL1   H4B 5965   1.568   0.087  10.218 -1.5602 -1.1269 -0.2817
   48CHL1    C5 5966   1.661   0.028  10.033  0.3529 -0.2029 -0.1653
   48CHL1    C6 5967   1.574   0.108   9.970 -0.4690  0.7473  0.5047
   48CHL1    H6 5968   1.499   0.159  10.031 -1.3886  1.1509 -0.9230
   48CHL1    C7 5969   1.577   0.130   9.821 -0.1027  0.2345  1.1418
   48CHL1   H7A 5970   1.474   0.146   9.783 -0.4362  0.6289  2.1832
   48CHL1   H7B 5971   1.625   0.228   9.801 -2.1125  1.0858  0.2334
   48CHL1    C8 5972   1.665   0.025   9.750  0.0501  0.0609 -0.4112
   48CHL1    H8 5973   1.595  -0.061   9.752  1.8871 -1.5481 -1.4384
   48CHL1   C14 5974   1.687   0.058   9.603  0.2722 -0.2897  0.1032
   48CHL1   H14 5975   1.746   0.152   9.593  0.4483 -0.2782  1.1637
   48CHL1   C15 5976   1.564   0.094   9.514 -0.6680  0.1698 -0.1546
   48CHL1  H15A 5977   1.479   0.028   9.540  0.6592 -1.8464 -0.6692
   48CHL1  H15B 5978   1.533   0.199   9.527  2.8227  1.1853  0.9818
   48CHL1   C16 5979   1.603   0.050   9.372 -0.2333 -0.1904  0.1394
   48CHL1  H16A 5980   1.552  -0.042   9.334 -0.4794 -0.3079  0.7452
   48CHL1  H16B 5981   1.592   0.131   9.297  2.3941 -1.8942 -2.3264
   48CHL1   C17 5982   1.754   0.009   9.388 -1.0399  0.8249  0.4780
   48CHL1   H17 5983   1.812   0.102   9.373 -1.4183  0.7975 -1.5089
   48CHL1   C13 5984   1.769  -0.053   9.527 -0.1738  0.0647  0.5779
   48CHL1   C18 5985   1.693  -0.188   9.535  0.1988  0.4481 -0.5446
   48CHL1  H18A 5986   1.737  -0.270   9.473  0.3492  0.2489 -0.1771
   48CHL1  H18B 5987   1.683  -0.219   9.641 -2.7169  0.4048 -0.7625
   48CHL1  H18C 5988   1.589  -0.166   9.503  0.7603  3.1653 -0.7378
   48CHL1   C12 5989   1.907  -0.059   9.594  0.2505 -0.3544  0.3278
   48CHL1  H12A 5990   1.973  -0.135   9.547  0.3159 -0.9694  1.3924
   48CHL1  H12B 5991   1.958   0.033   9.559  0.8500 -1.0951 -0.8034
   48CHL1   C11 5992   1.899  -0.093   9.741 -0.1339  0.2155 -0.8632
   48CHL1  H11A 5993   1.880  -0.202   9.751 -1.5323  0.5391  0.4528
   48CHL1  H11B 5994   2.002  -0.092   9.781 -0.4678 -0.6281  0.0636
   48CHL1    C9 5995   1.799  -0.008   9.824 -1.0007  0.1097  0.2255
   48CHL1    H9 5996   1.844   0.093   9.825  0.5110 -0.4536  3.9603
   48CHL1   C10 5997   1.775  -0.060   9.970  0.7468  0.4024 -0.0765
   48CHL1   C19 5998   1.732  -0.212   9.970  0.0984 -0.4265 -0.0285
   48CHL1  H19A 5999   1.819  -0.270   9.933  0.5588  1.6210 -2.5021
   48CHL1  H19B 6000   1.714  -0.240  10.076  2.0961  0.8810  0.7087
   48CHL1  H19C 6001   1.643  -0.228   9.906  0.1836 -1.6030  0.1291
   48CHL1    C1 6002   1.903  -0.045  10.051  0.0611 -0.5411 -0.1722
   48CHL1   H1A 6003   1.975  -0.127  10.030  1.7513  0.4484  1.3924
   48CHL1   H1B 6004   1.953   0.053  10.034  0.8976 -0.4846  2.1696
   48CHL1    C2 6005   1.884  -0.052  10.204  0.7018  0.8587 -0.2191
   48CHL1   H2A 6006   1.987  -0.042  10.244  1.5209 -0.3421 -1.9211
   48CHL1   H2B 6007   1.852  -0.158  10.210 -0.8858  1.2725 -0.7041
   48CHL1   C20 6008   1.797  -0.081   9.265  0.2145  0.0228 -0.2341
   48CHL1   H20 6009   1.755  -0.183   9.285 -0.4698  0.0031 -1.6371
   48CHL1   C21 6010   1.952  -0.099   9.264 -0.1385  0.0398 -0.5709
   48CHL1  H21A 6011   1.977  -0.177   9.340  0.8790  0.6018 -0.3092
   48CHL1  H21B 6012   2.005  -0.007   9.296  0.4278 -0.1671 -0.9223
   48CHL1  H21C 6013   1.995  -0.141   9.171  1.4849 -1.7925  0.9197
   48CHL1   C22 6014   1.747  -0.029   9.131  0.2069 -0.9993  0.3338
   48CHL1  H22A 6015   1.639  -0.003   9.132  0.3778 -0.0792 -1.4194
   48CHL1  H22B 6016   1.793   0.071   9.110 -0.3737 -0.6648  0.6558
   48CHL1   C23 6017   1.757  -0.121   9.008  0.1429 -0.0357 -0.2521
   48CHL1  H23A 6018   1.861  -0.161   9.006 -0.2146 -0.9850 -0.1845
   48CHL1  H23B 6019   1.698  -0.206   9.046  0.9493  0.2175  1.6872
   48CHL1   C24 6020   1.706  -0.059   8.883  0.2204 -0.3612 -0.0001
   48CHL1  H24A 6021   1.602  -0.028   8.908 -0.1683 -2.0636  0.6622
   48CHL1  H24B 6022   1.763   0.026   8.841 -3.1664  2.0105 -0.2379
   48CHL1   C25 6023   1.697  -0.169   8.767  0.2616  0.1722 -0.6561
   48CHL1   H25 6024   1.634  -0.253   8.805 -3.2998  2.3197 -1.3424
   48CHL1   C26 6025   1.635  -0.115   8.639 -0.5170  0.3549 -0.3213
   48CHL1  H26A 6026   1.526  -0.093   8.632 -0.1559  1.9868 -1.2687
   48CHL1  H26B 6027   1.675  -0.015   8.613 -1.7168  0.6353 -1.1890
   48CHL1  H26C 6028   1.646  -0.196   8.563 -0.4464 -0.7482  0.8432
   48CHL1   C27 6029   1.841  -0.227   8.745  0.0279 -0.1654  0.1736
   48CHL1  H27A 6030   1.903  -0.137   8.727 -0.6082 -0.0945 -1.9481
   48CHL1  H27B 6031   1.878  -0.293   8.826 -0.9331 -0.4237  0.4150
   48CHL1  H27C 6032   1.838  -0.285   8.651 -1.0345  0.6574 -0.3275
   49CHL1    C3 6033   5.527   2.929  10.247 -0.1991 -0.3698 -0.3987
   49CHL1    H3 6034   5.569   2.838  10.200  0.1186 -0.7040  0.5054
   49CHL1    O3 6035   5.564   2.935  10.382  0.4653 -0.3251 -0.3982
   49CHL1   H3' 6036   5.523   2.859  10.425 -0.1082 -0.6428 -1.4821
   49CHL1    C4 6037   5.576   3.051  10.175  0.0937  0.0703 -0.2756
   49CHL1   H4A 6038   5.530   3.138  10.227 -2.3317  0.5207 -2.9183
   49CHL1   H4B 6039   5.683   3.070  10.200  0.8367  0.8250 -3.4778
   49CHL1    C5 6040   5.549   3.053  10.029  0.1586 -0.3315  0.4224
   49CHL1    C6 6041   5.635   3.073   9.931 -0.3858 -0.2638 -0.3303
   49CHL1    H6 6042   5.738   3.105   9.951  0.0970 -1.9983  0.1286
   49CHL1    C7 6043   5.601   3.086   9.787 -0.1851  0.1997 -0.5122
   49CHL1   H7A 6044   5.647   3.175   9.739  0.7416 -1.2641 -2.4177
   49CHL1   H7B 6045   5.637   2.987   9.754  1.2485 -0.0641  1.5814
   49CHL1    C8 6046   5.453   3.093   9.757  0.4819  0.1938 -0.1262
   49CHL1    H8 6047   5.425   3.200   9.769  1.3629  0.4759 -0.5041
   49CHL1   C14 6048   5.429   3.048   9.612 -0.0599 -0.1123  0.3441
   49CHL1   H14 6049   5.473   2.946   9.602  2.5668  1.1299 -2.5967
   49CHL1   C15 6050   5.511   3.127   9.499  0.0296 -0.1857 -0.5322
   49CHL1  H15A 6051   5.506   3.237   9.511  0.2080 -0.2497  0.1831
   49CHL1  H15B 6052   5.619   3.103   9.491  0.4820  1.2630  0.8558
   49CHL1   C16 6053   5.444   3.066   9.372  0.5610 -0.3758 -0.7855
   49CHL1  H16A 6054   5.402   3.153   9.317  0.5835  0.6094  0.6896
   49CHL1  H16B 6055   5.501   3.001   9.303 -1.8098 -2.9394 -0.5003
   49CHL1   C17 6056   5.315   2.984   9.420 -0.0700  0.3420  0.0595
   49CHL1   H17 6057   5.359   2.882   9.424  0.4805  0.3317 -3.1182
   49CHL1   C13 6058   5.284   3.036   9.567  0.5511 -0.4642  0.6010
   49CHL1   C18 6059   5.219   3.178   9.560  0.5439  0.4357 -0.4213
   49CHL1  H18A 6060   5.237   3.221   9.660  3.0125  1.1767 -1.1212
   49CHL1  H18B 6061   5.270   3.240   9.483  0.3187  0.4032 -0.6007
   49CHL1  H18C 6062   5.110   3.177   9.537 -0.2381  1.4594  2.7932
   49CHL1   C12 6063   5.211   2.943   9.663  0.2741  0.7323 -0.1099
   49CHL1  H12A 6064   5.110   2.917   9.624  0.5118 -0.3764 -0.0366
   49CHL1  H12B 6065   5.270   2.850   9.650 -0.0482  0.4732  0.2400
   49CHL1   C11 6066   5.221   2.981   9.812 -0.5517 -0.3161 -0.2203
   49CHL1  H11A 6067   5.173   3.080   9.825 -2.8781 -1.2229 -1.2685
   49CHL1  H11B 6068   5.164   2.907   9.872  0.2566 -1.1855 -0.4886
   49CHL1    C9 6069   5.373   2.999   9.850 -0.0344 -0.0228 -0.1201
   49CHL1    H9 6070   5.397   2.892   9.835  2.2134  0.4791 -0.4326
   49CHL1   C10 6071   5.397   3.030   9.999  0.4015  0.7904 -0.3857
   49CHL1   C19 6072   5.309   3.153  10.039  0.2927  0.2838  0.1656
   49CHL1  H19A 6073   5.204   3.120  10.050  1.0658 -2.5076 -0.0500
   49CHL1  H19B 6074   5.351   3.187  10.136  2.4929  2.8313 -1.5364
   49CHL1  H19C 6075   5.314   3.233   9.962  1.4737  0.3336  0.2664
   49CHL1    C1 6076   5.350   2.908  10.080  0.6075 -0.4601  0.8370
   49CHL1   H1A 6077   5.241   2.903  10.062  0.3871  1.0186  1.5701
   49CHL1   H1B 6078   5.394   2.816  10.037  2.9039 -0.6207  3.2223
   49CHL1    C2 6079   5.375   2.913  10.231  0.1542 -0.8962  0.5666
   49CHL1   H2A 6080   5.333   2.826  10.285  1.0666 -1.0179  1.1126
   49CHL1   H2B 6081   5.324   3.006  10.267  1.6506 -0.0276  0.5359
   49CHL1   C20 6082   5.205   2.963   9.306  0.2941  0.3911  0.4327
   49CHL1   H20 6083   5.171   3.063   9.272 -2.4796 -0.4160  0.5786
   49CHL1   C21 6084   5.080   2.882   9.360  0.1200 -0.6533  0.5752
   49CHL1  H21A 6085   5.097   2.799   9.431 -1.6184 -2.8725 -1.3954
   49CHL1  H21B 6086   5.013   2.856   9.275 -1.0580 -0.4617  1.4246
   49CHL1  H21C 6087   5.030   2.959   9.422 -0.5661 -0.6133 -0.0055
   49CHL1   C22 6088   5.266   2.889   9.186 -0.0533 -0.5009 -0.2334
   49CHL1  H22A 6089   5.372   2.920   9.171  0.1282 -0.8578  0.2697
   49CHL1  H22B 6090   5.275   2.779   9.199 -0.3623 -0.6143 -0.9572
   49CHL1   C23 6091   5.193   2.910   9.051  0.0516  0.0735  0.3277
   49CHL1  H23A 6092   5.101   2.852   9.075 -0.3801  1.1166  1.3207
   49CHL1  H23B 6093   5.177   3.020   9.047 -0.7385 -0.0632 -0.7743
   49CHL1   C24 6094   5.273   2.862   8.925  0.7306  0.3148  0.4554
   49CHL1  H24A 6095   5.340   2.948   8.903 -2.6539  2.8911 -0.6847
   49CHL1  H24B 6096   5.347   2.778   8.931  2.1725  1.2458 -2.5417
   49CHL1   C25 6097   5.182   2.836   8.810  0.3338  0.3250  0.1291
   49CHL1   H25 6098   5.243   2.816   8.719 -0.1606 -0.9758  0.0582
   49CHL1   C26 6099   5.107   2.710   8.829  0.1597 -0.4269  0.3801
   49CHL1  H26A 6100   5.178   2.629   8.803  0.9299  0.1568  0.6080
   49CHL1  H26B 6101   5.078   2.693   8.935 -0.3827 -0.0920  0.2874
   49CHL1  H26C 6102   5.014   2.701   8.770 -0.7452  0.9717  1.5312
   49CHL1   C27 6103   5.091   2.955   8.771 -0.4177  0.3846  0.0637
   49CHL1  H27A 6104   5.039   2.922   8.679 -0.6306 -2.7721  1.1927
   49CHL1  H27B 6105   5.016   2.976   8.851  0.5203  3.8137  0.2084
   49CHL1  H27C 6106   5.143   3.052   8.754  0.0305  0.4152  1.4175
   50CHL1    C3 6107   2.344   5.204  10.176 -0.1585  0.2095 -0.5078
   50CHL1    H3 6108   2.450   5.233  10.194  0.2083 -1.9384  1.0799
   50CHL1    O3 6109   2.273   5.244  10.287  0.5934  0.3966 -0.4159
   50CHL1   H3' 6110   2.181   5.220  10.277  0.3660 -0.4192  2.6899
   50CHL1    C4 6111   2.279   5.263  10.051  0.3789 -0.5506  0.1153
   50CHL1   H4A 6112   2.169   5.248  10.062  0.2879 -0.3046 -0.4427
   50CHL1   H4B 6113   2.285   5.373  10.059 -1.2892 -0.4388  0.2509
   50CHL1    C5 6114   2.340   5.215   9.922  0.4565  0.6141  0.0059
   50CHL1    C6 6115   2.377   5.293   9.824  0.0795 -1.1357 -0.5277
   50CHL1    H6 6116   2.377   5.402   9.844 -0.8668 -0.8723 -1.8233
   50CHL1    C7 6117   2.422   5.250   9.687  0.3731  0.2742 -0.0982
   50CHL1   H7A 6118   2.368   5.307   9.608 -1.2182  0.0915  0.8148
   50CHL1   H7B 6119   2.531   5.264   9.668  1.0340 -2.0043  1.5626
   50CHL1    C8 6120   2.385   5.100   9.656 -0.5789 -0.5174 -0.2922
   50CHL1    H8 6121   2.277   5.107   9.632 -0.2946 -1.6145 -2.0590
   50CHL1   C14 6122   2.463   5.051   9.527  0.3463 -0.1509 -0.1773
   50CHL1   H14 6123   2.568   5.069   9.559  0.1633 -0.9188  0.9307
   50CHL1   C15 6124   2.430   5.122   9.396 -0.0194 -1.1665  0.3885
   50CHL1  H15A 6125   2.321   5.136   9.381  0.2138  1.5837  0.7306
   50CHL1  H15B 6126   2.483   5.216   9.371 -0.7682 -0.1935  2.2895
   50CHL1   C16 6127   2.481   5.025   9.288 -0.3840  0.3128 -0.0461
   50CHL1  H16A 6128   2.392   5.007   9.223  0.6710 -0.9039 -1.1945
   50CHL1  H16B 6129   2.563   5.069   9.227  0.2473  0.4260  0.8685
   50CHL1   C17 6130   2.530   4.897   9.360 -0.0126  0.0145 -0.6937
   50CHL1   H17 6131   2.630   4.922   9.402 -1.7237  1.2668  3.0590
   50CHL1   C13 6132   2.449   4.901   9.488 -0.2978  0.3260  0.1922
   50CHL1   C18 6133   2.297   4.859   9.446 -0.7537  0.1587  0.6743
   50CHL1  H18A 6134   2.275   4.898   9.344  0.2096 -1.2704 -0.1095
   50CHL1  H18B 6135   2.293   4.748   9.437 -1.3340  0.1568  0.8689
   50CHL1  H18C 6136   2.217   4.895   9.514 -2.8544 -0.6932 -1.2109
   50CHL1   C12 6137   2.497   4.818   9.609 -0.6307 -0.3872 -0.4193
   50CHL1  H12A 6138   2.496   4.710   9.586  0.7237 -0.2766 -1.1002
   50CHL1  H12B 6139   2.603   4.849   9.620 -0.9016  0.3424  0.2773
   50CHL1   C11 6140   2.419   4.861   9.733 -0.5869 -0.1194  0.6783
   50CHL1  H11A 6141   2.313   4.826   9.734 -0.6817  0.1686  1.5032
   50CHL1  H11B 6142   2.469   4.814   9.820 -2.7643 -1.5342  1.2496
   50CHL1    C9 6143   2.421   5.013   9.771  0.2188 -0.4408  0.1629
   50CHL1    H9 6144   2.529   5.030   9.792  0.0778  0.4411  0.1878
   50CHL1   C10 6145   2.343   5.063   9.899 -0.6520  0.1887 -0.4123
   50CHL1   C19 6146   2.205   4.990   9.899  0.3962 -0.3603 -0.2426
   50CHL1  H19A 6147   2.231   4.885   9.924  2.0782  0.3663  1.2715
   50CHL1  H19B 6148   2.136   5.036   9.973 -3.9085  1.3123 -4.7410
   50CHL1  H19C 6149   2.158   4.993   9.798  2.2809 -2.9983 -1.3013
   50CHL1    C1 6150   2.419   5.016  10.025  0.8115 -0.3195 -0.6039
   50CHL1   H1A 6151   2.438   4.907  10.015  2.7347  0.0748 -1.7519
   50CHL1   H1B 6152   2.521   5.060  10.024  0.7349  0.1132  2.2632
   50CHL1    C2 6153   2.350   5.051  10.160 -0.5223  0.0610  0.4839
   50CHL1   H2A 6154   2.417   5.007  10.238  1.4272  1.5760 -0.2406
   50CHL1   H2B 6155   2.257   4.991  10.158  0.8430 -2.1623  0.1960
   50CHL1   C20 6156   2.539   4.766   9.281  0.7951  0.4047 -0.0391
   50CHL1   H20 6157   2.522   4.691   9.361  1.0877  0.1589 -0.2047
   50CHL1   C21 6158   2.686   4.764   9.220  0.6046  0.0725 -0.3239
   50CHL1  H21A 6159   2.759   4.762   9.304  1.1504  2.6882 -0.6221
   50CHL1  H21B 6160   2.718   4.858   9.169 -0.6278  0.4439 -0.4420
   50CHL1  H21C 6161   2.711   4.688   9.143  2.4895  1.8125 -1.5395
   50CHL1   C22 6162   2.435   4.745   9.170 -0.5186  0.0961  0.7120
   50CHL1  H22A 6163   2.332   4.752   9.211  0.1629  1.7082  2.2895
   50CHL1  H22B 6164   2.439   4.829   9.098  0.7645 -1.5746 -1.2967
   50CHL1   C23 6165   2.447   4.615   9.090 -0.4959  0.1100 -0.0110
   50CHL1  H23A 6166   2.532   4.610   9.018  1.6648  0.4144  2.3664
   50CHL1  H23B 6167   2.465   4.535   9.165 -0.7715  0.8609  0.8682
   50CHL1   C24 6168   2.322   4.575   9.014  0.5968  0.5115  0.7468
   50CHL1  H24A 6169   2.320   4.472   8.972 -1.3844  0.0224  1.9083
   50CHL1  H24B 6170   2.234   4.584   9.081  0.0667 -2.1702  0.5441
   50CHL1   C25 6171   2.287   4.668   8.887  0.4829 -0.0878 -1.0996
   50CHL1   H25 6172   2.289   4.777   8.906 -4.1572 -0.0748  0.4322
   50CHL1   C26 6173   2.383   4.638   8.776  0.1280 -0.0502 -0.8877
   50CHL1  H26A 6174   2.374   4.529   8.756 -0.1155 -0.1085 -0.4869
   50CHL1  H26B 6175   2.339   4.692   8.689  2.1239  1.2153 -1.1705
   50CHL1  H26C 6176   2.489   4.666   8.792 -0.1456  0.1568  0.7305
   50CHL1   C27 6177   2.149   4.630   8.842 -0.4494  1.2654 -0.1882
   50CHL1  H27A 6178   2.132   4.677   8.743 -1.0768  2.0539  0.2867
   50CHL1  H27B 6179   2.134   4.520   8.835 -1.0604  1.1300  2.2682
   50CHL1  H27C 6180   2.061   4.655   8.906 -2.5764 -3.6154 -0.7128
   51CHL1    C3 6181   3.030   0.773  10.490 -0.1303 -0.1246  0.0344
   51CHL1    H3 6182   3.080   0.872  10.497  3.1093 -1.7455  4.6518
   51CHL1    O3 6183   3.051   0.705  10.615  0.3158 -0.0560 -0.5239
   51CHL1   H3' 6184   3.143   0.721  10.639  0.0045 -2.6569  3.2614
   51CHL1    C4 6185   2.881   0.775  10.444  0.3832 -0.0807 -0.5074
   51CHL1   H4A 6186   2.846   0.671  10.461  0.5836  0.0508  0.8260
   51CHL1   H4B 6187   2.842   0.846  10.521  0.6176  0.8745 -1.2493
   51CHL1    C5 6188   2.863   0.826  10.308  0.6429  0.6599  0.4639
   51CHL1    C6 6189   2.783   0.926  10.282 -0.1792 -0.4427  0.6705
   51CHL1    H6 6190   2.731   0.972  10.368 -1.1570  2.9310 -1.5077
   51CHL1    C7 6191   2.750   0.977  10.141  0.5281  0.5192 -0.2317
   51CHL1   H7A 6192   2.649   0.996  10.100  0.7743  2.4892 -0.0324
   51CHL1   H7B 6193   2.797   1.076  10.123 -0.8090  1.2628  0.2284
   51CHL1    C8 6194   2.824   0.888  10.029 -0.0622  0.2487  0.1250
   51CHL1    H8 6195   2.764   0.796  10.013  1.2797 -0.5420 -0.4235
   51CHL1   C14 6196   2.828   0.954   9.896 -0.7193  0.1248  0.1688
   51CHL1   H14 6197   2.888   1.047   9.911 -1.3133  0.2553  2.0161
   51CHL1   C15 6198   2.687   1.012   9.852  0.1208 -0.1900  0.0828
   51CHL1  H15A 6199   2.611   0.931   9.861 -0.3589  0.4613  2.7909
   51CHL1  H15B 6200   2.649   1.096   9.914  1.0176  0.4413 -0.1958
   51CHL1   C16 6201   2.714   1.032   9.700 -0.3828 -0.0028 -0.1337
   51CHL1  H16A 6202   2.630   0.980   9.649 -0.3125 -1.8148  1.4956
   51CHL1  H16B 6203   2.712   1.136   9.660  0.6547 -0.6708 -2.0527
   51CHL1   C17 6204   2.858   0.972   9.666 -0.6591 -0.0329  0.0687
   51CHL1   H17 6205   2.930   1.057   9.670 -3.3402  2.4037 -0.1298
   51CHL1   C13 6206   2.886   0.868   9.777  0.8923  0.8144 -0.8283
   51CHL1   C18 6207   2.807   0.738   9.762  0.4678  1.0444 -0.4008
   51CHL1  H18A 6208   2.816   0.674   9.852  1.7984  1.0102 -0.5427
   51CHL1  H18B 6209   2.699   0.753   9.738 -0.0577 -1.5763 -0.0193
   51CHL1  H18C 6210   2.849   0.677   9.679 -3.6780 -1.9408 -0.6402
   51CHL1   C12 6211   3.031   0.841   9.818 -0.7881  0.3970 -0.8628
   51CHL1  H12A 6212   3.077   0.770   9.747 -1.1882 -0.2874 -0.4456
   51CHL1  H12B 6213   3.076   0.943   9.812 -1.1572  0.6313  0.1364
   51CHL1   C11 6214   3.046   0.778   9.960 -0.2576 -0.3504  0.9688
   51CHL1  H11A 6215   3.020   0.670   9.961 -1.3814 -0.1366  4.1294
   51CHL1  H11B 6216   3.155   0.775   9.982 -0.0916  1.9527  0.6512
   51CHL1    C9 6217   2.962   0.847  10.076  0.5286 -0.1831 -0.2883
   51CHL1    H9 6218   3.017   0.938  10.107  0.3472  0.1590 -0.9668
   51CHL1   C10 6219   2.956   0.764  10.203  0.5566  0.0445 -0.9342
   51CHL1   C19 6220   2.896   0.617  10.179 -0.3106  0.5270 -0.2725
   51CHL1  H19A 6221   2.840   0.584  10.269  1.5013 -0.0661  0.6780
   51CHL1  H19B 6222   2.815   0.612  10.103 -1.6647 -1.3393  1.2021
   51CHL1  H19C 6223   2.977   0.541  10.174 -0.3699  0.2872  1.7380
   51CHL1    C1 6224   3.096   0.766  10.265 -0.2111 -0.6376 -0.7120
   51CHL1   H1A 6225   3.157   0.723  10.183  0.0366 -3.8233  0.9766
   51CHL1   H1B 6226   3.131   0.870  10.286  0.4905 -0.1902 -3.6607
   51CHL1    C2 6227   3.113   0.692  10.390 -0.0591 -0.1377 -0.2737
   51CHL1   H2A 6228   3.218   0.702  10.427 -0.3550 -2.0733  1.2792
   51CHL1   H2B 6229   3.079   0.586  10.393  0.9675 -0.4692  0.6855
   51CHL1   C20 6230   2.871   0.920   9.524  0.0931 -0.6305 -0.5072
   51CHL1   H20 6231   2.803   0.832   9.517 -3.2693  1.7206 -0.0068
   51CHL1   C21 6232   3.022   0.877   9.494 -0.0592 -0.3961 -0.5693
   51CHL1  H21A 6233   3.094   0.949   9.538  0.0105 -1.1598  0.5973
   51CHL1  H21B 6234   3.033   0.855   9.386 -0.2782 -0.6370 -0.5433
   51CHL1  H21C 6235   3.030   0.778   9.544  1.1486 -0.5886 -1.1007
   51CHL1   C22 6236   2.810   1.012   9.412 -0.0446 -0.0865 -0.0736
   51CHL1  H22A 6237   2.709   1.044   9.444 -0.1519  1.3825 -1.7388
   51CHL1  H22B 6238   2.877   1.100   9.398  0.0459 -0.2232 -0.5077
   51CHL1   C23 6239   2.795   0.944   9.277  0.1834  0.1112 -0.5160
   51CHL1  H23A 6240   2.895   0.928   9.230  0.3825 -2.6900  0.6425
   51CHL1  H23B 6241   2.739   0.848   9.286 -0.6427  0.4948 -1.3721
   51CHL1   C24 6242   2.715   1.036   9.176  0.3453 -0.1064 -0.3904
   51CHL1  H24A 6243   2.614   0.995   9.159  0.0724 -0.1308  1.1973
   51CHL1  H24B 6244   2.709   1.137   9.221 -0.4200 -0.4749  0.3480
   51CHL1   C25 6245   2.775   1.033   9.032  0.4944 -0.0204 -0.4428
   51CHL1   H25 6246   2.884   1.045   9.043  0.4424  1.7296 -1.3918
   51CHL1   C26 6247   2.747   0.897   8.961 -0.4042 -0.3937 -0.1018
   51CHL1  H26A 6248   2.779   0.814   9.028 -1.7429 -0.8296  0.0413
   51CHL1  H26B 6249   2.636   0.886   8.955 -0.5174  0.8038 -0.3461
   51CHL1  H26C 6250   2.791   0.916   8.861  0.8271  1.2120  0.6986
   51CHL1   C27 6251   2.727   1.155   8.951  0.1082  0.3110 -0.3342
   51CHL1  H27A 6252   2.746   1.250   9.005 -0.3145 -0.4685  1.2642
   51CHL1  H27B 6253   2.783   1.160   8.855 -0.7960 -1.3459 -0.9873
   51CHL1  H27C 6254   2.616   1.154   8.944  0.0866 -0.6971 -0.0917
   52CHL1    C3 6255   1.860   4.986  10.054  0.5848  0.7650  0.5112
   52CHL1    H3 6256   1.969   4.969  10.067  0.5784 -0.5941 -0.9612
   52CHL1    O3 6257   1.810   4.977  10.187  0.5168 -0.2948  0.7905
   52CHL1   H3' 6258   1.727   4.928  10.187  0.4077 -0.1570 -1.0993
   52CHL1    C4 6259   1.823   5.122  10.002  0.8037 -0.1150 -0.1909
   52CHL1   H4A 6260   1.716   5.144  10.020  1.0449  1.5672 -0.6102
   52CHL1   H4B 6261   1.867   5.190  10.078  0.0552  1.1936 -0.8904
   52CHL1    C5 6262   1.854   5.145   9.857 -0.3519  0.6144 -0.3813
   52CHL1    C6 6263   1.926   5.250   9.819  0.3429  0.3920  0.8416
   52CHL1    H6 6264   1.954   5.323   9.896 -0.4314  2.0966 -0.4147
   52CHL1    C7 6265   1.969   5.272   9.674  0.3683  0.2160 -0.3914
   52CHL1   H7A 6266   1.952   5.379   9.649  1.6502  0.2466 -1.2927
   52CHL1   H7B 6267   2.079   5.253   9.676  0.5313  0.5840 -2.8584
   52CHL1    C8 6268   1.904   5.173   9.577  0.5009  0.0436 -0.0663
   52CHL1    H8 6269   1.811   5.227   9.547  0.7983  1.1964  1.0239
   52CHL1   C14 6270   1.995   5.166   9.458 -0.0604 -0.3887  0.2199
   52CHL1   H14 6271   2.089   5.117   9.494  0.5399  1.4613  1.3082
   52CHL1   C15 6272   2.055   5.298   9.400 -0.8817  0.4465 -0.2251
   52CHL1  H15A 6273   1.972   5.371   9.411 -2.0541 -0.5524 -2.0771
   52CHL1  H15B 6274   2.146   5.340   9.449 -1.1230  0.6138  0.0803
   52CHL1   C16 6275   2.092   5.269   9.257  0.3957 -0.6938  0.9177
   52CHL1  H16A 6276   2.030   5.339   9.197  0.7460 -1.0506  0.1287
   52CHL1  H16B 6277   2.198   5.288   9.233  0.7137 -1.1810  1.8873
   52CHL1   C17 6278   2.056   5.115   9.226  0.7865  0.6027  0.0480
   52CHL1   H17 6279   2.140   5.061   9.274 -1.0109 -1.1048  1.4682
   52CHL1   C13 6280   1.946   5.085   9.339  1.8640 -0.9626  0.2252
   52CHL1   C18 6281   1.815   5.149   9.279 -0.3860  1.1215 -0.3626
   52CHL1  H18A 6282   1.779   5.083   9.197  0.1284 -0.7531  0.8325
   52CHL1  H18B 6283   1.753   5.144   9.372  1.2782 -0.9428  0.7428
   52CHL1  H18C 6284   1.829   5.256   9.256  0.8015  1.2556  0.8451
   52CHL1   C12 6285   1.917   4.946   9.391 -0.1203  0.2730 -0.0951
   52CHL1  H12A 6286   1.867   4.887   9.311 -1.1127 -0.0797  0.7736
   52CHL1  H12B 6287   2.014   4.894   9.406 -0.5685 -1.1270 -1.6791
   52CHL1   C11 6288   1.838   4.942   9.522  0.3716 -0.1285 -1.1199
   52CHL1  H11A 6289   1.734   4.968   9.493  0.3417  1.6904  0.4376
   52CHL1  H11B 6290   1.828   4.834   9.545 -0.0049  0.1769  0.2135
   52CHL1    C9 6291   1.886   5.035   9.634  0.6117 -0.4897  0.1205
   52CHL1    H9 6292   1.987   4.990   9.646  0.4081 -0.7783  0.7939
   52CHL1   C10 6293   1.809   5.026   9.763  1.1212 -0.5128  0.7638
   52CHL1   C19 6294   1.657   5.040   9.718  0.2673 -0.0295 -0.0107
   52CHL1  H19A 6295   1.609   4.962   9.656  0.4736 -0.4089  0.2988
   52CHL1  H19B 6296   1.594   5.043   9.810  0.1799  0.0170 -0.0722
   52CHL1  H19C 6297   1.646   5.140   9.672 -2.7548  0.0866  0.7189
   52CHL1    C1 6298   1.824   4.882   9.821 -0.9084 -1.2105  0.6412
   52CHL1   H1A 6299   1.757   4.812   9.767  0.5280 -1.0303 -1.4513
   52CHL1   H1B 6300   1.930   4.859   9.799 -0.3894  2.4096 -1.4274
   52CHL1    C2 6301   1.796   4.883   9.967 -0.1567 -0.3687  0.0581
   52CHL1   H2A 6302   1.825   4.783  10.007  1.2443 -0.6066 -1.4554
   52CHL1   H2B 6303   1.687   4.885   9.988  0.1578  1.5709  1.7409
   52CHL1   C20 6304   2.039   5.076   9.079 -0.5028  0.3669 -0.6294
   52CHL1   H20 6305   1.941   5.115   9.044 -1.0541 -0.2419  0.2184
   52CHL1   C21 6306   2.073   4.919   9.075 -0.2433  0.1052  0.1812
   52CHL1  H21A 6307   1.989   4.856   9.110 -1.1849  1.2595  0.0371
   52CHL1  H21B 6308   2.164   4.903   9.138  0.2736  4.0455  0.7060
   52CHL1  H21C 6309   2.091   4.884   8.971  1.4928  1.8864 -0.1666
   52CHL1   C22 6310   2.147   5.149   8.984 -0.3175 -0.5413  0.3216
   52CHL1  H22A 6311   2.142   5.258   9.007 -2.0917 -0.6133  0.4709
   52CHL1  H22B 6312   2.249   5.111   9.005 -0.0944 -1.1554 -1.6653
   52CHL1   C23 6313   2.136   5.127   8.830 -0.1683  0.3443  0.5733
   52CHL1  H23A 6314   2.141   5.020   8.803  2.0050  0.3535  0.7574
   52CHL1  H23B 6315   2.037   5.172   8.808 -0.7202 -1.8170 -1.7419
   52CHL1   C24 6316   2.241   5.214   8.753  1.0819 -0.7001  0.2128
   52CHL1  H24A 6317   2.206   5.220   8.648  1.0626  1.7760  0.3031
   52CHL1  H24B 6318   2.239   5.321   8.784  0.5664 -0.3620 -0.9376
   52CHL1   C25 6319   2.383   5.153   8.766 -0.2259  0.2621  0.6370
   52CHL1   H25 6320   2.416   5.132   8.870 -0.0450  0.5026  0.6285
   52CHL1   C26 6321   2.397   5.023   8.689 -0.1189 -1.0822 -0.1340
   52CHL1  H26A 6322   2.500   4.985   8.704 -0.3631 -0.8062  2.9609
   52CHL1  H26B 6323   2.333   4.941   8.729 -0.0764 -0.9560  0.1973
   52CHL1  H26C 6324   2.376   5.048   8.583 -0.4406  0.4960  0.2809
   52CHL1   C27 6325   2.485   5.248   8.699 -0.3807  0.0916 -0.5299
   52CHL1  H27A 6326   2.491   5.341   8.759  0.0539 -0.5255  0.4087
   52CHL1  H27B 6327   2.588   5.206   8.706 -1.1316 -1.6547  0.8079
   52CHL1  H27C 6328   2.457   5.267   8.594 -1.4917 -0.1845 -0.2949
   53CHL1    C3 6329   1.750   4.318   9.975  0.8315 -0.2543 -0.4926
   53CHL1    H3 6330   1.644   4.336  10.006  1.0428 -0.7804  0.5690
   53CHL1    O3 6331   1.828   4.354  10.084  0.3635  0.3787  0.3984
   53CHL1   H3' 6332   1.832   4.271  10.132 -1.9454 -0.2269 -0.3477
   53CHL1    C4 6333   1.759   4.162   9.943 -0.1564  0.6676  0.0477
   53CHL1   H4A 6334   1.867   4.135   9.948 -0.5568 -0.7264  2.2408
   53CHL1   H4B 6335   1.709   4.110  10.027 -0.4031  0.2194 -0.3760
   53CHL1    C5 6336   1.694   4.114   9.807  0.0833 -0.2372 -0.2814
   53CHL1    C6 6337   1.608   4.006   9.805  0.0568 -0.2549 -0.3436
   53CHL1    H6 6338   1.584   3.958   9.901 -0.1852 -0.8949 -0.7256
   53CHL1    C7 6339   1.534   3.970   9.679  0.1150 -0.6289 -0.3319
   53CHL1   H7A 6340   1.535   3.859   9.680  1.2718 -0.6449  1.6283
   53CHL1   H7B 6341   1.426   3.995   9.677 -0.0071 -1.1290 -0.1350
   53CHL1    C8 6342   1.604   4.024   9.546  0.6224  0.1351 -0.5197
   53CHL1    H8 6343   1.699   3.970   9.526  0.7882  0.4731 -0.6448
   53CHL1   C14 6344   1.508   3.998   9.433 -0.1992 -0.4336 -0.6285
   53CHL1   H14 6345   1.410   4.045   9.450  0.1759  1.2225 -2.6242
   53CHL1   C15 6346   1.475   3.852   9.402 -0.0817 -0.0698  0.1956
   53CHL1  H15A 6347   1.566   3.788   9.409 -1.5904 -2.2307  1.2302
   53CHL1  H15B 6348   1.402   3.810   9.475  2.4317 -2.3973  1.5686
   53CHL1   C16 6349   1.414   3.850   9.271  0.2340  0.0300 -0.0601
   53CHL1  H16A 6350   1.456   3.771   9.206 -2.1549 -1.5106  0.1340
   53CHL1  H16B 6351   1.309   3.814   9.278  0.1132 -0.3340 -2.7476
   53CHL1   C17 6352   1.434   3.997   9.214  0.0931 -0.2335 -0.1798
   53CHL1   H17 6353   1.341   4.050   9.245  0.2908 -1.3407  2.5858
   53CHL1   C13 6354   1.545   4.059   9.300 -1.3229 -0.4895 -0.2688
   53CHL1   C18 6355   1.677   4.000   9.254  0.9180 -0.5212 -0.6123
   53CHL1  H18A 6356   1.670   3.891   9.232 -0.4829 -0.4384 -0.6754
   53CHL1  H18B 6357   1.717   4.052   9.164  2.2278 -1.7156 -0.7605
   53CHL1  H18C 6358   1.746   4.020   9.338 -0.3954 -0.5861  0.5320
   53CHL1   C12 6359   1.555   4.214   9.323  0.5432 -0.0814 -0.2359
   53CHL1  H12A 6360   1.589   4.270   9.234  1.7581 -1.5589 -0.7546
   53CHL1  H12B 6361   1.456   4.252   9.356  1.0119  0.1596  0.9510
   53CHL1   C11 6362   1.652   4.253   9.435 -0.8606  0.0139  0.9235
   53CHL1  H11A 6363   1.748   4.220   9.389 -0.6743  3.2244 -1.2814
   53CHL1  H11B 6364   1.666   4.363   9.443 -0.9654  0.4537 -2.9559
   53CHL1    C9 6365   1.618   4.177   9.567 -0.6085  1.2317 -0.1538
   53CHL1    H9 6366   1.517   4.213   9.595 -0.8710  0.0621  0.4836
   53CHL1   C10 6367   1.718   4.203   9.684  0.1801 -1.0348  0.3083
   53CHL1   C19 6368   1.865   4.175   9.647  0.1350  0.1515 -0.3280
   53CHL1  H19A 6369   1.876   4.073   9.603  2.1438 -0.1847  0.8150
   53CHL1  H19B 6370   1.898   4.233   9.558  0.4586 -1.3055 -1.2024
   53CHL1  H19C 6371   1.942   4.195   9.725 -0.3419 -1.7412  0.6835
   53CHL1    C1 6372   1.703   4.353   9.723  0.2150  0.7104 -0.6383
   53CHL1   H1A 6373   1.742   4.412   9.637  1.4311 -0.0364 -0.6188
   53CHL1   H1B 6374   1.597   4.381   9.736  0.5618  1.8845 -0.1708
   53CHL1    C2 6375   1.776   4.406   9.853  0.1319 -0.4979  1.0450
   53CHL1   H2A 6376   1.772   4.515   9.874  0.6946 -0.4837  1.0868
   53CHL1   H2B 6377   1.884   4.399   9.829  0.3106  2.5060  0.5419
   53CHL1   C20 6378   1.453   3.996   9.061 -0.0234 -0.0877 -0.1460
   53CHL1   H20 6379   1.553   3.958   9.031  0.2327 -0.8330  1.4722
   53CHL1   C21 6380   1.460   4.148   9.019  0.7461  0.3314  0.7117
   53CHL1  H21A 6381   1.439   4.162   8.911  0.3438  0.6089  0.8225
   53CHL1  H21B 6382   1.553   4.191   9.061  1.2021 -0.4228  0.4921
   53CHL1  H21C 6383   1.373   4.195   9.070 -0.2096  2.2007 -2.3411
   53CHL1   C22 6384   1.331   3.924   8.992  0.5830 -0.2509  0.9612
   53CHL1  H22A 6385   1.310   3.823   9.032 -0.1871 -0.2366  0.6013
   53CHL1  H22B 6386   1.242   3.988   8.977  1.0748  0.3668  0.5854
   53CHL1   C23 6387   1.375   3.880   8.845  0.2852 -0.0454  0.8445
   53CHL1  H23A 6388   1.404   3.974   8.792 -1.5273 -0.9173 -1.9019
   53CHL1  H23B 6389   1.459   3.808   8.846  2.0238  1.7826 -1.3946
   53CHL1   C24 6390   1.253   3.827   8.761  0.0137 -0.1113 -0.1858
   53CHL1  H24A 6391   1.221   3.750   8.835  0.3686  1.1740  1.3660
   53CHL1  H24B 6392   1.166   3.895   8.755 -2.4507 -3.0198  0.2666
   53CHL1   C25 6393   1.282   3.768   8.628  0.3905  0.2731  0.3984
   53CHL1   H25 6394   1.392   3.755   8.619  0.3620  0.8599 -1.0648
   53CHL1   C26 6395   1.210   3.639   8.621 -0.4251 -0.7151  0.4799
   53CHL1  H26A 6396   1.210   3.590   8.521 -1.6931 -1.2547  0.7258
   53CHL1  H26B 6397   1.246   3.553   8.681  2.4074 -1.6132 -2.2197
   53CHL1  H26C 6398   1.102   3.662   8.632 -0.4347 -0.7948  0.5516
   53CHL1   C27 6399   1.234   3.862   8.518 -0.1260  0.0480  0.4679
   53CHL1  H27A 6400   1.289   3.958   8.521  1.0135 -0.5563 -0.2986
   53CHL1  H27B 6401   1.252   3.814   8.420  1.9535  0.3213  0.6822
   53CHL1  H27C 6402   1.123   3.876   8.521 -0.0790  2.0987 -2.9193
   54CHL1    C3 6403   6.544   6.720  10.234 -0.1175  0.3041 -0.7641
   54CHL1    H3 6404   6.583   6.823  10.223  0.8022  0.1699  0.9965
   54CHL1    O3 6405   6.543   6.679  10.376  0.0644 -0.0334  0.3799
   54CHL1   H3' 6406   6.634   6.649  10.381  0.7058  1.5057 -1.0801
   54CHL1    C4 6407   6.405   6.698  10.170 -0.7072  0.5017 -0.8547
   54CHL1   H4A 6408   6.364   6.602  10.207  2.2525 -0.5396 -0.0175
   54CHL1   H4B 6409   6.341   6.776  10.219  1.2325  0.7222  1.5152
   54CHL1    C5 6410   6.404   6.714  10.022 -0.0083 -0.3459 -0.0221
   54CHL1    C6 6411   6.324   6.800   9.959  0.5908 -0.2421 -0.1177
   54CHL1    H6 6412   6.253   6.868  10.009  0.0883 -0.3541 -0.6707
   54CHL1    C7 6413   6.311   6.811   9.811 -0.1553  0.4903  0.3618
   54CHL1   H7A 6414   6.202   6.815   9.788 -0.4186 -0.0107  1.4284
   54CHL1   H7B 6415   6.361   6.906   9.786  0.1986  0.5311  1.1761
   54CHL1    C8 6416   6.381   6.694   9.744  0.9060 -0.5249 -1.0917
   54CHL1    H8 6417   6.307   6.614   9.766  0.3521  0.3414  0.3044
   54CHL1   C14 6418   6.394   6.734   9.598 -0.2036 -0.1508  0.0329
   54CHL1   H14 6419   6.470   6.815   9.600 -0.6617  0.2805  0.2692
   54CHL1   C15 6420   6.266   6.789   9.532  0.5502  0.0306 -0.1241
   54CHL1  H15A 6421   6.176   6.726   9.550  1.9875 -2.3378 -0.7933
   54CHL1  H15B 6422   6.247   6.895   9.555 -0.1353 -0.1173  0.0125
   54CHL1   C16 6423   6.302   6.757   9.386  0.5620  0.0590  0.2922
   54CHL1  H16A 6424   6.222   6.693   9.342 -0.5825  0.5260  1.6169
   54CHL1  H16B 6425   6.303   6.851   9.327  0.9851  0.3159  0.7069
   54CHL1   C17 6426   6.440   6.695   9.373 -0.6732  0.8649  0.0869
   54CHL1   H17 6427   6.512   6.780   9.379  0.4285 -0.0878  0.7823
   54CHL1   C13 6428   6.460   6.628   9.507 -0.7430  0.1567  0.4363
   54CHL1   C18 6429   6.376   6.495   9.513  0.1074  0.3684 -0.2547
   54CHL1  H18A 6430   6.270   6.527   9.496  0.0150  1.1629  1.5637
   54CHL1  H18B 6431   6.409   6.423   9.436  1.3194 -0.9743  1.4513
   54CHL1  H18C 6432   6.391   6.440   9.609 -1.6328  0.9930  0.4231
   54CHL1   C12 6433   6.605   6.598   9.558  0.5457 -0.2821 -0.1832
   54CHL1  H12A 6434   6.672   6.527   9.505 -1.0412 -0.3515 -2.2165
   54CHL1  H12B 6435   6.651   6.696   9.533 -0.8126 -0.2386 -2.7763
   54CHL1   C11 6436   6.601   6.560   9.711 -0.2256  0.3449 -0.7983
   54CHL1  H11A 6437   6.557   6.458   9.710  0.4219  0.0690 -1.5493
   54CHL1  H11B 6438   6.706   6.563   9.746  0.1233 -0.7786 -1.7101
   54CHL1    C9 6439   6.512   6.658   9.799  0.2084  0.9990  0.1369
   54CHL1    H9 6440   6.571   6.752   9.804  0.8312  0.6199  0.0504
   54CHL1   C10 6441   6.502   6.614   9.946  0.0226 -0.1704 -0.5199
   54CHL1   C19 6442   6.455   6.467   9.966  0.4270 -0.2356  0.8903
   54CHL1  H19A 6443   6.462   6.427  10.069  0.3132 -0.2840  0.8793
   54CHL1  H19B 6444   6.352   6.447   9.929  1.1387 -1.1489 -0.7339
   54CHL1  H19C 6445   6.517   6.398   9.904 -0.5610 -2.8729  2.6548
   54CHL1    C1 6446   6.642   6.646  10.013 -0.0822  0.4486  0.2814
   54CHL1   H1A 6447   6.723   6.596   9.956 -0.2553  1.2877 -0.7374
   54CHL1   H1B 6448   6.664   6.755  10.006 -2.3404  0.9098 -0.4353
   54CHL1    C2 6449   6.647   6.629  10.167 -0.1575  0.0585  0.1491
   54CHL1   H2A 6450   6.749   6.649  10.207 -1.3746  2.8062  2.1954
   54CHL1   H2B 6451   6.622   6.524  10.193 -0.6112 -0.0062 -0.5466
   54CHL1   C20 6452   6.468   6.618   9.235  0.1365 -0.4102 -0.9021
   54CHL1   H20 6453   6.387   6.543   9.222  0.4721 -0.6570 -1.6243
   54CHL1   C21 6454   6.609   6.551   9.231  0.3921 -0.0488  0.2181
   54CHL1  H21A 6455   6.616   6.479   9.316  0.3073  1.3212  1.4232
   54CHL1  H21B 6456   6.696   6.619   9.246  0.3496  0.4253 -1.4981
   54CHL1  H21C 6457   6.617   6.509   9.128 -0.0005  0.6931 -0.1197
   54CHL1   C22 6458   6.448   6.714   9.122  0.3297 -0.2254  0.2337
   54CHL1  H22A 6459   6.459   6.656   9.028 -1.2252 -0.7869  0.3823
   54CHL1  H22B 6460   6.343   6.747   9.108 -0.3087 -1.8008  1.1963
   54CHL1   C23 6461   6.536   6.843   9.127 -0.0635 -0.2536  0.8143
   54CHL1  H23A 6462   6.510   6.913   9.208  0.6473 -1.3131  1.9860
   54CHL1  H23B 6463   6.639   6.809   9.149  0.0798  0.2753  0.9654
   54CHL1   C24 6464   6.540   6.920   8.993 -0.5436 -1.1425  0.5338
   54CHL1  H24A 6465   6.611   7.003   9.014  0.1090 -1.7493  0.7862
   54CHL1  H24B 6466   6.581   6.868   8.903  0.0224  1.0013 -0.5052
   54CHL1   C25 6467   6.405   6.988   8.962  0.1975 -0.3683  0.3869
   54CHL1   H25 6468   6.325   6.911   8.957 -1.3724  1.2308 -0.3057
   54CHL1   C26 6469   6.364   7.092   9.067  0.3711  0.1593  0.2111
   54CHL1  H26A 6470   6.333   7.031   9.155 -1.9554 -1.6093 -1.7184
   54CHL1  H26B 6471   6.435   7.165   9.112 -0.8104 -0.0457  2.5621
   54CHL1  H26C 6472   6.266   7.133   9.037  0.8796 -0.2184 -2.1468
   54CHL1   C27 6473   6.400   7.047   8.813  0.2309 -0.1146  0.4779
   54CHL1  H27A 6474   6.298   7.085   8.792 -0.0083 -0.9422  0.0891
   54CHL1  H27B 6475   6.478   7.124   8.798  2.8883 -2.4360  1.5379
   54CHL1  H27C 6476   6.428   6.964   8.745  1.2615  1.6229 -1.3074
   55CHL1    C3 6477   2.466   4.160  10.215 -0.0944 -0.0435 -0.0374
   55CHL1    H3 6478   2.454   4.053  10.188  0.5364 -0.0592 -0.2869
   55CHL1    O3 6479   2.464   4.176  10.357  0.4570  0.4327  0.3165
   55CHL1   H3' 6480   2.429   4.264  10.376 -0.0851  0.5515 -1.1343
   55CHL1    C4 6481   2.591   4.230  10.162 -0.1684  0.3445 -0.8968
   55CHL1   H4A 6482   2.597   4.334  10.198 -1.3196 -0.3245  1.4334
   55CHL1   H4B 6483   2.676   4.179  10.214  1.4223  2.6433 -1.1009
   55CHL1    C5 6484   2.596   4.216  10.009  0.3755 -0.1018  0.1792
   55CHL1    C6 6485   2.704   4.166   9.945 -0.1021  1.1275  0.2033
   55CHL1    H6 6486   2.791   4.129  10.000  1.3207 -0.0759 -2.6248
   55CHL1    C7 6487   2.712   4.165   9.790 -0.1210  0.2016 -0.3328
   55CHL1   H7A 6488   2.809   4.210   9.762  0.5203 -0.0380  1.4049
   55CHL1   H7B 6489   2.716   4.059   9.757 -1.2287  0.1031 -0.1864
   55CHL1    C8 6490   2.608   4.237   9.703  1.0028 -0.5358  0.1783
   55CHL1    H8 6491   2.631   4.345   9.710  0.7190 -0.4962  0.5481
   55CHL1   C14 6492   2.586   4.183   9.566 -0.3056 -0.4838 -0.2435
   55CHL1   H14 6493   2.544   4.081   9.572  0.1934 -0.7970 -1.6947
   55CHL1   C15 6494   2.708   4.157   9.467 -0.5794 -0.4606 -0.7562
   55CHL1  H15A 6495   2.772   4.248   9.466  0.3757 -1.0011  2.1823
   55CHL1  H15B 6496   2.765   4.066   9.496  0.0329 -0.7515 -2.6742
   55CHL1   C16 6497   2.644   4.139   9.333  0.0895  0.3822  0.2508
   55CHL1  H16A 6498   2.690   4.216   9.267 -2.1240  0.2497 -1.5640
   55CHL1  H16B 6499   2.659   4.033   9.307 -0.2430  0.2370  0.6256
   55CHL1   C17 6500   2.494   4.173   9.344 -0.8441  0.4183  0.0402
   55CHL1   H17 6501   2.444   4.076   9.370 -0.1625  0.4411  1.5301
   55CHL1   C13 6502   2.485   4.258   9.476 -0.0384 -0.6224 -0.4367
   55CHL1   C18 6503   2.523   4.410   9.445  0.0948  0.1567  0.4148
   55CHL1  H18A 6504   2.539   4.469   9.538 -4.1119  0.2497  1.2932
   55CHL1  H18B 6505   2.616   4.415   9.385  1.7736  0.5615  2.8721
   55CHL1  H18C 6506   2.443   4.467   9.392  0.9871  0.9718 -0.0812
   55CHL1   C12 6507   2.352   4.245   9.555 -0.1396  0.2471 -0.3350
   55CHL1  H12A 6508   2.261   4.290   9.510 -2.7171 -2.2635  1.9733
   55CHL1  H12B 6509   2.332   4.136   9.543  1.2743 -0.0031 -0.6767
   55CHL1   C11 6510   2.359   4.280   9.706 -0.1095  0.1800  0.3260
   55CHL1  H11A 6511   2.352   4.389   9.721 -0.1787 -0.1243  2.8544
   55CHL1  H11B 6512   2.274   4.235   9.761 -0.3158 -0.8393 -0.7764
   55CHL1    C9 6513   2.477   4.221   9.776  0.5406  0.0635 -0.7399
   55CHL1    H9 6514   2.468   4.111   9.786 -1.8027  0.2719  0.1674
   55CHL1   C10 6515   2.476   4.273   9.928  0.2869  1.2745  0.4379
   55CHL1   C19 6516   2.490   4.427   9.932 -0.6011 -0.5232 -1.3558
   55CHL1  H19A 6517   2.580   4.452   9.872  0.0942 -0.1365 -0.1976
   55CHL1  H19B 6518   2.403   4.479   9.887  0.3837  2.3935 -0.1559
   55CHL1  H19C 6519   2.471   4.465  10.035 -0.9020 -0.8495 -1.2919
   55CHL1    C1 6520   2.345   4.209   9.999  0.2708 -0.0189  0.1748
   55CHL1   H1A 6521   2.246   4.241   9.960 -0.2906 -1.9496 -0.0900
   55CHL1   H1B 6522   2.346   4.100   9.982  0.1527 -0.2309  1.3950
   55CHL1    C2 6523   2.343   4.233  10.153  0.3325  0.0703  0.3963
   55CHL1   H2A 6524   2.244   4.197  10.186 -1.0297  1.6482 -1.7522
   55CHL1   H2B 6525   2.360   4.339  10.178  2.7756 -0.5057  1.5223
   55CHL1   C20 6526   2.444   4.225   9.214  0.2068 -0.4465 -0.5454
   55CHL1   H20 6527   2.476   4.331   9.202 -0.3517 -0.0190  1.3771
   55CHL1   C21 6528   2.289   4.232   9.225 -0.2820  0.5869 -0.1367
   55CHL1  H21A 6529   2.233   4.273   9.138 -1.4727 -1.8486 -0.6146
   55CHL1  H21B 6530   2.255   4.298   9.308 -1.2212  1.1792 -0.9728
   55CHL1  H21C 6531   2.246   4.130   9.231 -0.3747  0.6455  0.2126
   55CHL1   C22 6532   2.487   4.153   9.078  0.3999  0.1506 -0.2556
   55CHL1  H22A 6533   2.597   4.156   9.061  0.6129 -2.9561  0.0993
   55CHL1  H22B 6534   2.458   4.047   9.092 -2.3082  0.9979  1.2989
   55CHL1   C23 6535   2.432   4.226   8.957 -0.1628 -0.0677  0.9409
   55CHL1  H23A 6536   2.323   4.243   8.971 -0.5865 -0.1478 -1.6602
   55CHL1  H23B 6537   2.489   4.321   8.955  0.3219 -0.3302 -1.4305
   55CHL1   C24 6538   2.463   4.140   8.835  0.1681 -0.4503 -0.0307
   55CHL1  H24A 6539   2.569   4.109   8.833  0.4888  0.5501  0.6854
   55CHL1  H24B 6540   2.395   4.052   8.835 -0.7562  0.2024 -1.9845
   55CHL1   C25 6541   2.427   4.223   8.706 -0.0144  0.0496 -0.3640
   55CHL1   H25 6542   2.470   4.325   8.708 -0.5022  0.2829 -1.4321
   55CHL1   C26 6543   2.477   4.157   8.580 -0.0597  0.8496 -0.3338
   55CHL1  H26A 6544   2.469   4.214   8.486 -2.8283 -2.8765 -2.6800
   55CHL1  H26B 6545   2.584   4.129   8.595  0.2017  0.0851 -3.0874
   55CHL1  H26C 6546   2.425   4.062   8.554  2.8899 -0.4219 -2.1487
   55CHL1   C27 6547   2.276   4.252   8.691  0.0973 -0.7023 -0.3547
   55CHL1  H27A 6548   2.209   4.164   8.699  0.0926 -0.5633  1.7893
   55CHL1  H27B 6549   2.248   4.317   8.776  0.5682 -0.9894  0.0296
   55CHL1  H27C 6550   2.264   4.288   8.587  2.1386 -0.7559 -0.6552
   56CHL1    C3 6551   1.323   3.629  10.036  0.8737  0.4952  0.3558
   56CHL1    H3 6552   1.276   3.727  10.012 -0.4339  0.1843  1.4590
   56CHL1    O3 6553   1.370   3.648  10.169  0.0884  0.2153 -0.1929
   56CHL1   H3' 6554   1.435   3.719  10.170  1.3491 -0.8971 -0.4258
   56CHL1    C4 6555   1.211   3.525  10.015  0.0152  0.1174  0.2650
   56CHL1   H4A 6556   1.247   3.427  10.051 -2.1593 -1.0061 -0.4370
   56CHL1   H4B 6557   1.132   3.562  10.083  0.8203  0.1191  1.2252
   56CHL1    C5 6558   1.178   3.518   9.866 -0.5992  0.6624  0.3377
   56CHL1    C6 6559   1.045   3.506   9.835  0.4818  0.0985  0.0496
   56CHL1    H6 6560   0.978   3.507   9.921  2.4410 -0.9690  1.6835
   56CHL1    C7 6561   0.991   3.486   9.694 -0.2255  0.3150 -0.0395
   56CHL1   H7A 6562   0.901   3.420   9.694 -1.1650  1.5285 -1.5982
   56CHL1   H7B 6563   0.955   3.584   9.655  1.2675  1.1884  0.6815
   56CHL1    C8 6564   1.102   3.443   9.600 -0.9886  0.0235 -0.3188
   56CHL1    H8 6565   1.118   3.335   9.623 -1.4069  0.3202  1.6076
   56CHL1   C14 6566   1.050   3.453   9.454  0.2509  0.7240  0.5669
   56CHL1   H14 6567   1.033   3.562   9.440  2.0499  1.1918  1.5817
   56CHL1   C15 6568   0.920   3.380   9.414 -0.2001  0.1808 -0.0229
   56CHL1  H15A 6569   0.917   3.274   9.445 -1.6244 -0.5574 -2.4237
   56CHL1  H15B 6570   0.834   3.433   9.461  0.1767  0.0197  0.8722
   56CHL1   C16 6571   0.926   3.396   9.257 -0.2972 -0.6816 -0.5038
   56CHL1  H16A 6572   0.898   3.305   9.199 -0.5806  0.0324 -1.4897
   56CHL1  H16B 6573   0.858   3.474   9.218 -0.4620 -0.8618 -0.5752
   56CHL1   C17 6574   1.072   3.440   9.220  0.2315 -0.4038  0.2913
   56CHL1   H17 6575   1.060   3.549   9.199 -2.6822 -0.7230 -0.1375
   56CHL1   C13 6576   1.155   3.413   9.349 -0.1158 -0.0655  0.0581
   56CHL1   C18 6577   1.179   3.261   9.355 -0.5263 -0.1072 -0.5378
   56CHL1  H18A 6578   1.237   3.230   9.265  3.0072 -1.4469  1.9967
   56CHL1  H18B 6579   1.237   3.221   9.441 -1.1138 -0.5815 -0.3635
   56CHL1  H18C 6580   1.085   3.206   9.337 -0.5262 -1.2219  2.4721
   56CHL1   C12 6581   1.283   3.489   9.366  0.2949  0.8297  0.2943
   56CHL1  H12A 6582   1.365   3.454   9.301 -1.4562 -1.3662 -0.8429
   56CHL1  H12B 6583   1.263   3.598   9.355 -0.6894  0.6360  0.0869
   56CHL1   C11 6584   1.343   3.475   9.513 -0.5626 -0.4658 -0.5531
   56CHL1  H11A 6585   1.378   3.370   9.525  0.4466 -0.1551 -0.7062
   56CHL1  H11B 6586   1.424   3.550   9.519 -0.4296 -0.7190  1.4509
   56CHL1    C9 6587   1.240   3.519   9.621  0.2221  0.6271 -0.4305
   56CHL1    H9 6588   1.226   3.629   9.608 -1.0661  0.3579 -1.4251
   56CHL1   C10 6589   1.289   3.508   9.768 -0.2276 -0.6132 -0.4084
   56CHL1   C19 6590   1.355   3.369   9.779  0.0064 -0.3747 -0.4393
   56CHL1  H19A 6591   1.457   3.367   9.734  0.8064 -0.9111  1.2856
   56CHL1  H19B 6592   1.362   3.322   9.879  0.6418 -1.4597 -0.9733
   56CHL1  H19C 6593   1.303   3.288   9.724 -1.1925  0.0331  0.0739
   56CHL1    C1 6594   1.401   3.609   9.796 -0.3311  0.4671 -0.4848
   56CHL1   H1A 6595   1.489   3.592   9.731 -0.3915 -3.5517  0.2609
   56CHL1   H1B 6596   1.354   3.708   9.777 -1.5878 -0.3489 -1.8025
   56CHL1    C2 6597   1.446   3.607   9.945 -0.0482  0.1062  0.2531
   56CHL1   H2A 6598   1.525   3.682   9.965  0.9975 -1.2594  1.4545
   56CHL1   H2B 6599   1.485   3.505   9.966  1.1106  0.3516 -0.6481
   56CHL1   C20 6600   1.116   3.392   9.079 -0.1204  0.1656 -0.9342
   56CHL1   H20 6601   1.128   3.283   9.098 -0.8509  0.5290  2.3584
   56CHL1   C21 6602   1.255   3.450   9.048  0.2084  0.5106  0.5615
   56CHL1  H21A 6603   1.334   3.378   9.080  1.8589  1.1482 -1.8369
   56CHL1  H21B 6604   1.266   3.550   9.094 -0.4125  1.6275 -1.6148
   56CHL1  H21C 6605   1.261   3.466   8.938 -0.1128 -1.4809  0.1978
   56CHL1   C22 6606   1.012   3.424   8.978 -0.6311  0.0626  0.5999
   56CHL1  H22A 6607   0.907   3.402   9.006 -0.9355  1.2244  0.4535
   56CHL1  H22B 6608   1.002   3.533   8.953 -0.9494 -0.6362 -2.9418
   56CHL1   C23 6609   1.036   3.367   8.834  0.7048 -0.1876  0.1979
   56CHL1  H23A 6610   0.965   3.423   8.768  2.0821 -0.4398 -1.5907
   56CHL1  H23B 6611   1.138   3.385   8.793  0.3279  1.3947 -0.0924
   56CHL1   C24 6612   1.016   3.212   8.822 -0.6459  0.6359  0.6329
   56CHL1  H24A 6613   1.090   3.155   8.882 -0.5151 -0.2569 -0.3524
   56CHL1  H24B 6614   0.915   3.192   8.865 -0.4817 -0.1048  0.6870
   56CHL1   C25 6615   1.024   3.152   8.676 -0.7100  0.0261  0.0507
   56CHL1   H25 6616   0.972   3.215   8.600  1.1583 -0.1891 -1.4884
   56CHL1   C26 6617   1.173   3.155   8.628 -0.2982 -0.1070  0.3435
   56CHL1  H26A 6618   1.202   3.261   8.616 -1.9316  0.3155 -0.0952
   56CHL1  H26B 6619   1.238   3.098   8.698 -0.6786 -1.1229 -0.1083
   56CHL1  H26C 6620   1.180   3.103   8.530 -2.6215  0.6250 -0.2576
   56CHL1   C27 6621   0.971   3.014   8.665  0.0978  0.2420 -0.6741
   56CHL1  H27A 6622   0.995   2.962   8.570 -2.4611 -1.7829 -0.3153
   56CHL1  H27B 6623   1.023   2.962   8.748  0.5727  0.5420 -0.7786
   56CHL1  H27C 6624   0.861   3.019   8.676 -0.0200  2.0707 -2.1187
   57CHL1    C3 6625   1.607   6.110  10.184 -0.1434 -0.5053  0.2238
   57CHL1    H3 6626   1.514   6.149  10.137  0.7075 -0.1739 -1.2717
   57CHL1    O3 6627   1.580   6.083  10.320  0.0795 -0.0211  0.4399
   57CHL1   H3' 6628   1.666   6.068  10.361  1.2039  0.2238 -1.7078
   57CHL1    C4 6629   1.663   5.981  10.116 -0.7347 -0.4716 -0.5955
   57CHL1   H4A 6630   1.752   5.956  10.177 -0.9455 -1.5259 -0.6894
   57CHL1   H4B 6631   1.581   5.907  10.131  0.7635 -2.0010  0.4054
   57CHL1    C5 6632   1.686   5.995   9.970 -0.3020  0.1181  0.5025
   57CHL1    C6 6633   1.614   5.919   9.887  0.2699  0.3524 -0.0098
   57CHL1    H6 6634   1.544   5.847   9.931  1.1781 -0.3625  0.3078
   57CHL1    C7 6635   1.634   5.927   9.735 -0.6074 -0.1728 -0.4659
   57CHL1   H7A 6636   1.649   5.826   9.690  1.7381 -0.0605 -0.0687
   57CHL1   H7B 6637   1.535   5.951   9.692 -1.3360 -0.6645  0.9101
   57CHL1    C8 6638   1.749   6.021   9.690 -0.6669 -0.1372  0.2351
   57CHL1    H8 6639   1.849   5.974   9.702 -0.3357  0.0917 -1.3273
   57CHL1   C14 6640   1.740   6.056   9.540  0.0264  0.2976 -0.1935
   57CHL1   H14 6641   1.643   6.109   9.531  1.0911  2.0205 -2.6588
   57CHL1   C15 6642   1.726   5.930   9.444  0.5426 -0.6814  0.1533
   57CHL1  H15A 6643   1.809   5.859   9.462  0.1019 -0.7329  2.3267
   57CHL1  H15B 6644   1.632   5.871   9.456 -0.4726  1.0071  0.9092
   57CHL1   C16 6645   1.723   5.999   9.308 -0.1114 -0.1440 -0.8025
   57CHL1  H16A 6646   1.804   5.939   9.262 -0.1549 -2.4493  1.9074
   57CHL1  H16B 6647   1.627   5.990   9.253 -2.1230 -1.2931  2.6108
   57CHL1   C17 6648   1.777   6.150   9.335 -0.2013  0.8467  0.2856
   57CHL1   H17 6649   1.693   6.222   9.341 -2.8960 -1.8208 -2.3684
   57CHL1   C13 6650   1.836   6.145   9.477 -0.4405  0.3495  0.0013
   57CHL1   C18 6651   1.983   6.085   9.474 -0.2446 -0.2387 -0.4306
   57CHL1  H18A 6652   1.978   5.998   9.406  1.1751  1.4694 -2.9205
   57CHL1  H18B 6653   2.054   6.159   9.431 -0.1008  0.4221  0.8900
   57CHL1  H18C 6654   2.015   6.040   9.570  0.5048 -1.6478 -1.3111
   57CHL1   C12 6655   1.842   6.280   9.556 -0.6489  0.1274  0.0385
   57CHL1  H12A 6656   1.935   6.333   9.525  0.8925 -1.0712  2.2615
   57CHL1  H12B 6657   1.752   6.336   9.526 -2.5356 -2.6091  0.2771
   57CHL1   C11 6658   1.852   6.254   9.713 -0.0810  0.5539  0.1614
   57CHL1  H11A 6659   1.953   6.214   9.737 -1.6943 -2.6053  2.4168
   57CHL1  H11B 6660   1.839   6.351   9.765  0.7479  2.0206 -2.1790
   57CHL1    C9 6661   1.753   6.149   9.773  0.0684  0.4284 -0.6249
   57CHL1    H9 6662   1.654   6.200   9.765  0.2643  0.9305  0.0486
   57CHL1   C10 6663   1.775   6.116   9.928 -0.4582  0.7371 -0.1104
   57CHL1   C19 6664   1.919   6.077   9.944 -0.0994 -0.7655  0.1299
   57CHL1  H19A 6665   1.983   6.167   9.927 -2.5264  1.0744  0.1670
   57CHL1  H19B 6666   1.947   6.060  10.050  0.2039  0.8441  0.3374
   57CHL1  H19C 6667   1.953   5.991   9.883  0.0146  0.2213 -1.2573
   57CHL1    C1 6668   1.744   6.240  10.018  0.3849  0.0665 -0.0562
   57CHL1   H1A 6669   1.827   6.312  10.001 -0.0856  0.0139 -3.2034
   57CHL1   H1B 6670   1.657   6.297   9.980  0.2380 -0.0584  0.0967
   57CHL1    C2 6671   1.724   6.217  10.165  0.3698 -0.0780 -0.0595
   57CHL1   H2A 6672   1.696   6.310  10.219  0.7894 -0.5896  1.0751
   57CHL1   H2B 6673   1.819   6.173  10.202  1.5695  2.1930 -0.2467
   57CHL1   C20 6674   1.858   6.196   9.214 -0.4087 -0.2973 -0.3907
   57CHL1   H20 6675   1.939   6.122   9.202  0.6749  0.9795 -1.1945
   57CHL1   C21 6676   1.895   6.342   9.248 -0.7348 -0.1621  0.1151
   57CHL1  H21A 6677   1.813   6.413   9.269 -0.6206  0.3842 -1.1995
   57CHL1  H21B 6678   1.958   6.381   9.165  0.0968 -0.6944  0.4827
   57CHL1  H21C 6679   1.977   6.349   9.323  0.4289 -1.1554 -1.0024
   57CHL1   C22 6680   1.782   6.189   9.084 -0.2593 -0.3091  0.6384
   57CHL1  H22A 6681   1.716   6.099   9.083  0.7014 -1.0968  2.3090
   57CHL1  H22B 6682   1.724   6.282   9.068 -0.8215 -1.1854 -3.4281
   57CHL1   C23 6683   1.860   6.179   8.947 -0.0026 -0.1132 -0.3557
   57CHL1  H23A 6684   1.796   6.190   8.857  0.0996 -1.7873 -0.6732
   57CHL1  H23B 6685   1.936   6.259   8.934  0.3837 -0.6039 -1.2642
   57CHL1   C24 6686   1.945   6.052   8.930 -0.1591 -0.2276 -0.9506
   57CHL1  H24A 6687   2.022   6.054   9.010 -1.8179  2.6995  0.7590
   57CHL1  H24B 6688   1.882   5.961   8.939 -1.6471  0.8325 -0.2787
   57CHL1   C25 6689   2.023   6.030   8.794 -0.4505 -0.2695 -0.2581
   57CHL1   H25 6690   2.067   5.929   8.801 -0.2647 -0.2427 -0.9823
   57CHL1   C26 6691   1.922   6.025   8.677  0.1547 -0.0018 -0.2207
   57CHL1  H26A 6692   1.856   5.936   8.678  0.4423 -0.2210  1.1740
   57CHL1  H26B 6693   1.858   6.116   8.679  1.2082  0.8299 -1.7846
   57CHL1  H26C 6694   1.973   6.036   8.579  0.3507  0.7159 -0.0489
   57CHL1   C27 6695   2.136   6.138   8.770  0.4295 -0.1462  0.1209
   57CHL1  H27A 6696   2.227   6.130   8.833  0.2705 -1.0632  0.2490
   57CHL1  H27B 6697   2.182   6.125   8.670 -0.9604  0.9066 -0.6927
   57CHL1  H27C 6698   2.095   6.241   8.777  0.1163 -0.3077  0.7852
   58CHL1    C3 6699   6.249   4.488  10.066  0.0055  0.2625  0.1157
   58CHL1    H3 6700   6.189   4.408  10.018  1.1823 -0.2233 -0.6050
   58CHL1    O3 6701   6.287   4.443  10.194 -0.0924 -0.1395  0.1659
   58CHL1   H3' 6702   6.344   4.512  10.229 -0.4105  0.4792 -0.4959
   58CHL1    C4 6703   6.372   4.519   9.977 -0.7660  0.4077 -0.3883
   58CHL1   H4A 6704   6.434   4.600  10.021 -2.5833  0.9457  1.3140
   58CHL1   H4B 6705   6.431   4.426   9.971 -1.3176  0.0275 -0.0320
   58CHL1    C5 6706   6.310   4.555   9.838  0.1091 -0.8113  0.6671
   58CHL1    C6 6707   6.360   4.497   9.724  0.3138  0.4666 -0.1005
   58CHL1    H6 6708   6.434   4.417   9.740 -1.1214 -0.7982  0.5834
   58CHL1    C7 6709   6.317   4.530   9.591 -0.1932  0.1436  0.3521
   58CHL1   H7A 6710   6.397   4.507   9.518 -0.4637 -1.4211  0.5003
   58CHL1   H7B 6711   6.247   4.448   9.564  0.7500 -0.3817 -0.5872
   58CHL1    C8 6712   6.244   4.664   9.578 -1.2140 -0.3518 -0.2167
   58CHL1    H8 6713   6.319   4.746   9.586 -0.3875 -0.8374 -2.3726
   58CHL1   C14 6714   6.168   4.667   9.444 -0.2964  0.0478  0.1776
   58CHL1   H14 6715   6.105   4.576   9.443  0.7265 -0.6910  0.8864
   58CHL1   C15 6716   6.258   4.654   9.317 -0.7976 -0.1093 -0.1157
   58CHL1  H15A 6717   6.345   4.723   9.316 -0.0202 -1.0203  1.1848
   58CHL1  H15B 6718   6.305   4.556   9.293  0.5643  0.2294  1.0575
   58CHL1   C16 6719   6.148   4.693   9.211  0.0385  0.0350 -0.3064
   58CHL1  H16A 6720   6.190   4.776   9.151  2.7545 -1.0707 -0.0889
   58CHL1  H16B 6721   6.113   4.600   9.161 -0.5405  0.0734  0.0180
   58CHL1   C17 6722   6.021   4.748   9.285 -0.0122  0.0453  0.1521
   58CHL1   H17 6723   5.958   4.657   9.294  0.0301  0.1257  1.3892
   58CHL1   C13 6724   6.074   4.784   9.425 -0.3953 -0.2661  0.0246
   58CHL1   C18 6725   6.150   4.918   9.420 -0.4714  0.2700  0.6378
   58CHL1  H18A 6726   6.230   4.923   9.342 -0.2243  0.8942  0.9211
   58CHL1  H18B 6727   6.082   5.005   9.403 -1.7558 -0.8143  0.0897
   58CHL1  H18C 6728   6.204   4.943   9.514  1.5220  1.3523 -0.6992
   58CHL1   C12 6729   5.968   4.779   9.537 -0.0318  0.2954 -0.2872
   58CHL1  H12A 6730   5.896   4.863   9.528  0.3508  0.8071  1.0861
   58CHL1  H12B 6731   5.912   4.684   9.538 -0.2555  0.3894  2.1520
   58CHL1   C11 6732   6.037   4.785   9.678  0.8246 -0.2798 -0.1715
   58CHL1  H11A 6733   6.075   4.889   9.686  0.3967 -0.1408  0.0389
   58CHL1  H11B 6734   5.955   4.769   9.751 -1.0888  4.0250 -1.1106
   58CHL1    C9 6735   6.138   4.671   9.697 -0.5837 -0.6441 -0.1194
   58CHL1    H9 6736   6.073   4.582   9.686 -1.4078 -0.2705  1.4476
   58CHL1   C10 6737   6.209   4.670   9.837 -0.2333 -0.4306  0.6181
   58CHL1   C19 6738   6.282   4.798   9.861 -0.3709  0.0944 -0.3409
   58CHL1  H19A 6739   6.217   4.886   9.842 -2.6796 -1.1422  1.3431
   58CHL1  H19B 6740   6.337   4.806   9.958  0.1758 -2.6684 -0.3319
   58CHL1  H19C 6741   6.355   4.816   9.780 -0.8709  0.7120 -0.6630
   58CHL1    C1 6742   6.103   4.663   9.939  0.2748 -0.0434 -0.2431
   58CHL1   H1A 6743   6.045   4.756   9.959 -1.5308 -1.2885  0.7140
   58CHL1   H1B 6744   6.029   4.583   9.917 -0.6787  0.8143 -0.2378
   58CHL1    C2 6745   6.163   4.616  10.078  0.6325 -0.7209  0.0553
   58CHL1   H2A 6746   6.083   4.598  10.153  0.4407 -1.0446 -0.2225
   58CHL1   H2B 6747   6.216   4.702  10.124 -0.6741  1.0228 -1.5199
   58CHL1   C20 6748   5.948   4.856   9.202  0.2161 -0.1268  0.9060
   58CHL1   H20 6749   6.003   4.952   9.201  2.4551 -1.2701  3.6723
   58CHL1   C21 6750   5.799   4.880   9.262 -0.0235  0.1511 -0.4977
   58CHL1  H21A 6751   5.737   4.938   9.191  1.6963  1.1867 -1.2382
   58CHL1  H21B 6752   5.811   4.936   9.358  0.5441 -0.9117  0.0682
   58CHL1  H21C 6753   5.752   4.782   9.285 -0.0024  0.1871 -0.2971
   58CHL1   C22 6754   5.945   4.804   9.056 -0.3677 -0.4604 -1.3314
   58CHL1  H22A 6755   6.046   4.797   9.011  0.7391 -1.4018  1.1571
   58CHL1  H22B 6756   5.903   4.701   9.056 -2.7626  0.4366 -0.4768
   58CHL1   C23 6757   5.855   4.885   8.962 -0.3251 -0.3734  0.5536
   58CHL1  H23A 6758   5.747   4.866   8.976 -0.9532  2.4101 -0.0780
   58CHL1  H23B 6759   5.885   4.989   8.986 -1.5608  0.0112  0.4535
   58CHL1   C24 6760   5.876   4.867   8.812  0.1523 -0.3851 -0.0506
   58CHL1  H24A 6761   5.835   4.956   8.759 -2.9853 -1.7467 -0.1346
   58CHL1  H24B 6762   5.985   4.868   8.790  0.2655 -0.3492  0.5030
   58CHL1   C25 6763   5.811   4.747   8.737 -0.5636 -0.4179  0.1719
   58CHL1   H25 6764   5.839   4.660   8.801  1.4751  1.4879  2.0389
   58CHL1   C26 6765   5.656   4.750   8.730 -0.2395  0.0842 -0.9755
   58CHL1  H26A 6766   5.606   4.745   8.828 -0.4314 -0.8567 -1.1062
   58CHL1  H26B 6767   5.623   4.842   8.678 -2.7576 -1.3703 -2.1722
   58CHL1  H26C 6768   5.616   4.661   8.676 -0.3966  1.1743 -2.7554
   58CHL1   C27 6769   5.877   4.724   8.603  0.0344 -0.2236 -0.4248
   58CHL1  H27A 6770   5.818   4.780   8.526 -0.5546  1.0711  0.9343
   58CHL1  H27B 6771   5.983   4.758   8.598  0.2427 -0.8398 -0.2286
   58CHL1  H27C 6772   5.875   4.616   8.574  0.7879 -0.1022 -0.9618
   59CHL1    C3 6773   5.229   2.491  10.383 -0.2483  0.2765  0.2612
   59CHL1    H3 6774   5.169   2.581  10.408 -2.4756 -0.7241 -1.1002
   59CHL1    O3 6775   5.311   2.471  10.503  0.3477 -0.6442  0.0641
   59CHL1   H3' 6776   5.394   2.432  10.475  0.1473  0.1461 -1.7184
   59CHL1    C4 6777   5.137   2.367  10.346 -0.1411 -0.6962  0.0707
   59CHL1   H4A 6778   5.209   2.282  10.347 -0.3052 -0.8305  0.6532
   59CHL1   H4B 6779   5.059   2.346  10.422 -1.3051  0.8350 -0.6630
   59CHL1    C5 6780   5.070   2.394  10.208 -0.0278  0.5637 -0.2933
   59CHL1    C6 6781   4.933   2.384  10.210  0.6100  1.0788  0.8030
   59CHL1    H6 6782   4.871   2.358  10.297  1.6987  1.7510  1.8038
   59CHL1    C7 6783   4.863   2.380  10.072 -0.3515 -0.4486  0.1219
   59CHL1   H7A 6784   4.811   2.283  10.056  2.2148 -1.7141 -1.3311
   59CHL1   H7B 6785   4.800   2.471  10.060 -0.6738 -0.5215  1.1608
   59CHL1    C8 6786   4.959   2.379   9.943 -0.5829  0.1839 -0.0924
   59CHL1    H8 6787   5.007   2.279   9.939  2.2574  1.4465 -0.5946
   59CHL1   C14 6788   4.882   2.397   9.822  0.6040  0.0682  0.4727
   59CHL1   H14 6789   4.830   2.494   9.840 -1.5262 -1.1541  1.2119
   59CHL1   C15 6790   4.766   2.300   9.795 -0.0775 -0.3508  0.1265
   59CHL1  H15A 6791   4.790   2.192   9.810 -1.7007 -0.8600 -0.7127
   59CHL1  H15B 6792   4.672   2.331   9.846 -0.6084  0.7789 -1.4827
   59CHL1   C16 6793   4.754   2.316   9.638  0.2790 -0.3462 -0.5444
   59CHL1  H16A 6794   4.783   2.217   9.597 -1.7214 -0.7604 -1.0900
   59CHL1  H16B 6795   4.649   2.338   9.607 -0.3664 -2.3232  0.0536
   59CHL1   C17 6796   4.854   2.421   9.597 -0.4598 -0.5495 -0.0686
   59CHL1   H17 6797   4.810   2.522   9.606  0.8049 -0.0742  1.2436
   59CHL1   C13 6798   4.968   2.413   9.701 -0.3381  0.2846  0.3782
   59CHL1   C18 6799   5.052   2.281   9.674 -0.5183  0.0624  0.1864
   59CHL1  H18A 6800   5.116   2.284   9.583  0.0851  1.3665  0.6249
   59CHL1  H18B 6801   5.130   2.253   9.748  0.2991 -0.0338 -0.6913
   59CHL1  H18C 6802   4.998   2.188   9.648  1.4605 -0.6431 -1.7044
   59CHL1   C12 6803   5.068   2.528   9.706  0.6520 -0.0102 -0.0079
   59CHL1  H12A 6804   5.134   2.527   9.616 -0.0160  1.8002 -0.5785
   59CHL1  H12B 6805   5.015   2.625   9.707  1.0347  0.2319 -1.0835
   59CHL1   C11 6806   5.149   2.522   9.836 -0.2266 -0.2907 -0.0474
   59CHL1  H11A 6807   5.231   2.449   9.820  0.9980  0.7357  1.2710
   59CHL1  H11B 6808   5.206   2.617   9.847  0.1233 -0.3634 -1.0869
   59CHL1    C9 6809   5.068   2.482   9.965 -0.0303 -0.1142 -0.6790
   59CHL1    H9 6810   5.018   2.575   9.999 -0.2721 -1.4897  3.3396
   59CHL1   C10 6811   5.157   2.446  10.093 -0.6058  0.4668  0.1444
   59CHL1   C19 6812   5.254   2.326  10.054  0.1736 -0.4420  0.0374
   59CHL1  H19A 6813   5.294   2.272  10.142 -0.0576  1.3192  1.2708
   59CHL1  H19B 6814   5.201   2.255   9.986 -0.8813  2.0258 -1.8886
   59CHL1  H19C 6815   5.344   2.366  10.002  1.4348 -1.4411  1.3805
   59CHL1    C1 6816   5.246   2.561  10.140 -0.0895  0.2399 -0.2128
   59CHL1   H1A 6817   5.319   2.586  10.060 -1.1104  1.8816 -0.6696
   59CHL1   H1B 6818   5.183   2.650  10.160 -0.1386  0.1913 -0.1505
   59CHL1    C2 6819   5.323   2.526  10.272  0.1588  0.0199  0.8340
   59CHL1   H2A 6820   5.381   2.619  10.292  0.4591  0.1578 -0.5329
   59CHL1   H2B 6821   5.399   2.454  10.235  0.5170  1.2034 -0.8394
   59CHL1   C20 6822   4.900   2.407   9.445 -0.6146  0.7406  0.1171
   59CHL1   H20 6823   4.960   2.314   9.442 -0.8068  0.5023  1.9992
   59CHL1   C21 6824   4.978   2.523   9.404 -0.7648 -0.3258 -1.0646
   59CHL1  H21A 6825   4.961   2.549   9.298 -1.6566  0.1338 -0.8198
   59CHL1  H21B 6826   5.086   2.499   9.415 -0.2151  2.3694  0.2955
   59CHL1  H21C 6827   4.946   2.607   9.470 -0.8185 -0.8214 -0.4484
   59CHL1   C22 6828   4.781   2.380   9.353  0.0380  0.0222 -0.0740
   59CHL1  H22A 6829   4.817   2.381   9.248 -3.0280 -1.7721 -1.2868
   59CHL1  H22B 6830   4.738   2.280   9.379 -3.0951  2.1782  4.4862
   59CHL1   C23 6831   4.658   2.479   9.367  0.0615  0.7830 -0.5183
   59CHL1  H23A 6832   4.606   2.473   9.465 -0.7171 -0.4628 -0.9897
   59CHL1  H23B 6833   4.699   2.582   9.361 -0.5648  1.1030  0.4330
   59CHL1   C24 6834   4.552   2.427   9.268 -0.2201  0.4105  0.4176
   59CHL1  H24A 6835   4.590   2.423   9.164  0.0624  0.1096  0.5331
   59CHL1  H24B 6836   4.538   2.322   9.301  0.4163 -0.2565 -1.2897
   59CHL1   C25 6837   4.414   2.499   9.248  0.6907 -0.3843 -0.0433
   59CHL1   H25 6838   4.354   2.464   9.162 -0.4106  0.5947  0.2946
   59CHL1   C26 6839   4.314   2.499   9.361  0.1241 -0.4602  0.4986
   59CHL1  H26A 6840   4.281   2.398   9.392  1.3867 -0.3114  2.4888
   59CHL1  H26B 6841   4.365   2.535   9.453  0.5586  0.6569 -0.1615
   59CHL1  H26C 6842   4.237   2.579   9.357  2.1554  1.8215  3.1098
   59CHL1   C27 6843   4.437   2.648   9.203 -0.0852  0.4871 -0.1737
   59CHL1  H27A 6844   4.501   2.662   9.113 -0.9953  0.2447 -0.8757
   59CHL1  H27B 6845   4.337   2.685   9.170 -0.1081 -0.7555 -1.6075
   59CHL1  H27C 6846   4.484   2.703   9.287  4.0981 -4.1537  1.0268
   60CHL1    C3 6847   5.038   1.246  10.293 -0.9727 -0.7608  0.9468
   60CHL1    H3 6848   5.109   1.162  10.273  0.7645  0.7485  0.4298
   60CHL1    O3 6849   4.976   1.226  10.419  0.0839 -0.1146  0.4412
   60CHL1   H3' 6850   4.925   1.145  10.412  0.2681 -0.1502 -0.8996
   60CHL1    C4 6851   5.124   1.372  10.280  0.5668  0.4900 -0.6009
   60CHL1   H4A 6852   5.052   1.454  10.302  0.0677  0.2540 -1.3343
   60CHL1   H4B 6853   5.194   1.366  10.367  0.7378  2.0174 -0.6049
   60CHL1    C5 6854   5.196   1.399  10.153 -0.2005 -0.5116  0.5750
   60CHL1    C6 6855   5.328   1.421  10.140  0.1931 -0.1362 -0.8156
   60CHL1    H6 6856   5.390   1.425  10.231 -2.9062 -1.1911  1.4997
   60CHL1    C7 6857   5.389   1.448  10.009 -0.0706 -0.1966 -0.6346
   60CHL1   H7A 6858   5.435   1.547  10.024 -0.6191 -0.0567  0.2134
   60CHL1   H7B 6859   5.469   1.380   9.971 -0.7078  1.5099 -5.8424
   60CHL1    C8 6860   5.289   1.467   9.892  0.0688 -0.1032 -0.1601
   60CHL1    H8 6861   5.252   1.572   9.891 -0.6281 -0.3441 -1.2519
   60CHL1   C14 6862   5.368   1.442   9.757 -0.5483  0.2188  0.5442
   60CHL1   H14 6863   5.393   1.334   9.759 -1.1314  0.0512 -0.4480
   60CHL1   C15 6864   5.492   1.522   9.735  0.8167 -0.0366  0.1859
   60CHL1  H15A 6865   5.478   1.631   9.753  0.6934  0.1859 -1.0943
   60CHL1  H15B 6866   5.582   1.497   9.795 -0.6779 -2.0358  1.7060
   60CHL1   C16 6867   5.520   1.508   9.588  0.0180  0.5930  0.0289
   60CHL1  H16A 6868   5.533   1.610   9.546 -0.4304  0.6760  0.0970
   60CHL1  H16B 6869   5.613   1.447   9.574 -0.4139  0.0206 -0.4010
   60CHL1   C17 6870   5.394   1.429   9.522 -0.0218  0.0129  0.2682
   60CHL1   H17 6871   5.413   1.320   9.528 -0.0928  0.0591  1.5111
   60CHL1   C13 6872   5.284   1.453   9.630 -0.0161 -0.5396  0.7037
   60CHL1   C18 6873   5.232   1.596   9.623  0.2815  0.4493  0.0622
   60CHL1  H18A 6874   5.151   1.604   9.548 -1.0804  2.2725  1.6335
   60CHL1  H18B 6875   5.188   1.634   9.717  0.7217 -0.7140  0.7512
   60CHL1  H18C 6876   5.321   1.657   9.595  1.7591 -2.3423 -1.7049
   60CHL1   C12 6877   5.166   1.350   9.647 -0.6212 -0.2035 -0.1697
   60CHL1  H12A 6878   5.091   1.370   9.567 -0.4571  1.6068  0.0835
   60CHL1  H12B 6879   5.210   1.250   9.631  1.8270  0.9736 -1.3528
   60CHL1   C11 6880   5.084   1.363   9.773  0.3598  0.3023 -0.2716
   60CHL1  H11A 6881   5.041   1.465   9.768  0.7507  0.4226 -1.2917
   60CHL1  H11B 6882   4.993   1.299   9.778  1.0576 -0.8646 -1.6696
   60CHL1    C9 6883   5.174   1.364   9.898  0.0936  0.5342 -0.2364
   60CHL1    H9 6884   5.214   1.261   9.909 -0.8493  0.2206  0.4674
   60CHL1   C10 6885   5.099   1.387  10.034 -0.2986  0.5263  0.1965
   60CHL1   C19 6886   5.025   1.524  10.023  0.2524  0.4110  0.3544
   60CHL1  H19A 6887   4.933   1.522   9.960  1.1944 -0.6861 -1.0481
   60CHL1  H19B 6888   4.986   1.546  10.124 -0.5222  0.7083  0.0030
   60CHL1  H19C 6889   5.094   1.607   9.997  2.5464 -1.4689  0.1197
   60CHL1    C1 6890   4.998   1.263  10.047 -0.3553  0.1688  0.4314
   60CHL1   H1A 6891   4.924   1.271   9.965 -0.9491  1.1738  1.0416
   60CHL1   H1B 6892   5.062   1.173  10.039 -0.1260  0.4668 -1.7311
   60CHL1    C2 6893   4.929   1.252  10.182  0.0718 -0.4389  0.7419
   60CHL1   H2A 6894   4.860   1.165  10.174 -2.1669  1.3482 -0.9078
   60CHL1   H2B 6895   4.868   1.343  10.197  0.2851 -0.1584 -0.0349
   60CHL1   C20 6896   5.367   1.477   9.371  0.5522  0.6339 -0.7231
   60CHL1   H20 6897   5.343   1.585   9.378  1.1288  0.6785  0.9730
   60CHL1   C21 6898   5.237   1.404   9.332 -0.0445 -0.6493  0.1076
   60CHL1  H21A 6899   5.160   1.468   9.379 -0.7008 -0.1348 -1.6208
   60CHL1  H21B 6900   5.245   1.298   9.367 -0.7580 -0.3593  1.2044
   60CHL1  H21C 6901   5.237   1.420   9.222 -0.8917  1.9120  0.4299
   60CHL1   C22 6902   5.482   1.439   9.272 -0.0995 -0.0318  0.1029
   60CHL1  H22A 6903   5.572   1.477   9.324 -1.1364  0.6711  1.4464
   60CHL1  H22B 6904   5.489   1.328   9.267 -1.9983 -0.2481  1.3850
   60CHL1   C23 6905   5.467   1.490   9.129  0.5553 -0.8823 -0.2727
   60CHL1  H23A 6906   5.557   1.476   9.065  3.1216  2.9000  2.1283
   60CHL1  H23B 6907   5.376   1.444   9.086 -2.0517  1.4301  2.3018
   60CHL1   C24 6908   5.430   1.643   9.119 -0.0956  0.3792  0.5570
   60CHL1  H24A 6909   5.335   1.658   9.175 -1.3677 -1.0698 -1.0932
   60CHL1  H24B 6910   5.518   1.696   9.161  0.5657  0.8746 -1.3401
   60CHL1   C25 6911   5.387   1.689   8.974 -0.2876  0.6633 -0.5024
   60CHL1   H25 6912   5.290   1.637   8.956 -0.2675 -0.3631  1.9065
   60CHL1   C26 6913   5.346   1.838   8.975  0.0723  0.0721  0.5610
   60CHL1  H26A 6914   5.288   1.875   8.888  0.5739  1.5362  0.8205
   60CHL1  H26B 6915   5.274   1.845   9.060  0.5975  1.5034  0.9208
   60CHL1  H26C 6916   5.439   1.897   8.984  0.6997 -0.2622 -2.5437
   60CHL1   C27 6917   5.488   1.654   8.870 -1.0315  0.3734  0.1947
   60CHL1  H27A 6918   5.450   1.691   8.773 -2.7228 -0.1217  0.6396
   60CHL1  H27B 6919   5.576   1.714   8.903  0.3736 -1.7750  0.5753
   60CHL1  H27C 6920   5.513   1.546   8.865  1.1293  0.8542 -0.8123
   61CHL1    C3 6921   0.341   2.090  10.252 -0.3005  0.0105  0.2033
   61CHL1    H3 6922   0.315   2.192  10.288 -0.5842  0.2368 -0.6248
   61CHL1    O3 6923   0.343   2.021  10.376  0.4446  0.1700 -0.8630
   61CHL1   H3' 6924   0.415   2.049  10.434 -0.2319 -1.5186  0.8800
   61CHL1    C4 6925   0.235   2.026  10.161  0.1211 -0.3451  0.3179
   61CHL1   H4A 6926   0.258   1.918  10.147 -0.4104 -0.5107  0.6789
   61CHL1   H4B 6927   0.137   2.022  10.214 -1.1310 -1.6576 -1.9047
   61CHL1    C5 6928   0.221   2.105  10.034  0.1562 -0.0050  0.0071
   61CHL1    C6 6929   0.109   2.172  10.000 -0.6951 -0.1150  0.2292
   61CHL1    H6 6930   0.030   2.166  10.077  1.3836 -2.2062  2.3636
   61CHL1    C7 6931   0.100   2.268   9.888 -0.4223 -0.0588 -0.0207
   61CHL1   H7A 6932   0.005   2.263   9.831  0.6725 -0.6865 -1.9042
   61CHL1   H7B 6933   0.098   2.373   9.924 -2.0626  0.6855 -2.0751
   61CHL1    C8 6934   0.211   2.250   9.783 -0.3010 -0.0748 -0.2061
   61CHL1    H8 6935   0.183   2.155   9.734 -0.3884 -0.2460  0.1671
   61CHL1   C14 6936   0.219   2.366   9.685  0.2263 -0.1592  0.4525
   61CHL1   H14 6937   0.247   2.456   9.743  0.5794 -1.7459  2.8624
   61CHL1   C15 6938   0.086   2.402   9.617 -0.3008 -0.1810  0.3999
   61CHL1  H15A 6939   0.046   2.307   9.576  1.8752 -0.7870 -0.4651
   61CHL1  H15B 6940   0.017   2.456   9.686 -0.5744  0.9364 -0.6891
   61CHL1   C16 6941   0.137   2.490   9.500 -0.0238  0.3461 -0.0150
   61CHL1  H16A 6942   0.092   2.438   9.413 -1.4263  2.8219 -0.8824
   61CHL1  H16B 6943   0.092   2.592   9.493  0.4698  0.6419  0.9012
   61CHL1   C17 6944   0.291   2.480   9.489 -0.7799  0.0997 -0.3872
   61CHL1   H17 6945   0.320   2.575   9.541 -0.4562 -0.6174  0.7865
   61CHL1   C13 6946   0.320   2.350   9.570 -0.0223  0.3079 -0.9991
   61CHL1   C18 6947   0.287   2.219   9.482 -0.5964 -0.1766  0.4085
   61CHL1  H18A 6948   0.300   2.127   9.543  3.1677  0.6976  1.1663
   61CHL1  H18B 6949   0.184   2.224   9.441  0.0084  0.9870 -1.0825
   61CHL1  H18C 6950   0.354   2.212   9.393 -0.2625  0.4772  0.6111
   61CHL1   C12 6951   0.454   2.340   9.632 -0.4715  0.3498 -0.5115
   61CHL1  H12A 6952   0.535   2.311   9.562  0.0138  0.7744 -0.1319
   61CHL1  H12B 6953   0.480   2.445   9.659  0.8933  0.2679 -1.3822
   61CHL1   C11 6954   0.467   2.234   9.741  0.0216 -0.2265  0.3043
   61CHL1  H11A 6955   0.481   2.131   9.703 -1.1496 -0.5132  0.6089
   61CHL1  H11B 6956   0.569   2.237   9.785  0.1511 -4.6025  0.7616
   61CHL1    C9 6957   0.349   2.236   9.843  0.1440  0.0918 -0.3582
   61CHL1    H9 6958   0.354   2.331   9.901 -0.2498 -1.2116  1.9404
   61CHL1   C10 6959   0.353   2.121   9.951 -0.3004 -0.3428  0.5642
   61CHL1   C19 6960   0.387   1.981   9.878 -0.2842  0.1357 -0.3015
   61CHL1  H19A 6961   0.337   1.973   9.779  0.9859 -1.4503 -0.8594
   61CHL1  H19B 6962   0.497   1.985   9.862 -0.1553  2.7607  0.7666
   61CHL1  H19C 6963   0.369   1.886   9.932  0.9373 -0.8465 -1.5356
   61CHL1    C1 6964   0.470   2.158  10.053 -0.4583 -0.0052 -0.0670
   61CHL1   H1A 6965   0.560   2.136   9.991  0.0856 -0.0068  0.7000
   61CHL1   H1B 6966   0.468   2.263  10.087  3.2369 -0.5942  2.6483
   61CHL1    C2 6967   0.478   2.079  10.184 -0.3922 -0.2731 -0.3406
   61CHL1   H2A 6968   0.562   2.109  10.251 -1.6591  1.0585  0.7162
   61CHL1   H2B 6969   0.508   1.973  10.170 -1.1660 -0.5729  0.2076
   61CHL1   C20 6970   0.343   2.487   9.348  0.3665 -0.3592  0.4503
   61CHL1   H20 6971   0.297   2.403   9.292  2.4271 -1.9509  1.0410
   61CHL1   C21 6972   0.490   2.468   9.325  0.2030  1.2110 -0.3370
   61CHL1  H21A 6973   0.529   2.378   9.378  0.6028  2.3019  1.3064
   61CHL1  H21B 6974   0.555   2.544   9.373 -0.0233  0.1197  1.8033
   61CHL1  H21C 6975   0.512   2.468   9.216 -0.9031 -1.8506 -0.6511
   61CHL1   C22 6976   0.302   2.623   9.282  0.4324  0.8023  0.5012
   61CHL1  H22A 6977   0.197   2.655   9.301  0.2907  0.8555 -0.3220
   61CHL1  H22B 6978   0.357   2.704   9.335  2.0962 -0.7975  1.2876
   61CHL1   C23 6979   0.308   2.633   9.119 -0.3065  0.3025 -0.4621
   61CHL1  H23A 6980   0.413   2.626   9.084 -0.6362 -1.6661 -1.1818
   61CHL1  H23B 6981   0.257   2.539   9.091 -0.3544 -0.7393  2.7108
   61CHL1   C24 6982   0.246   2.759   9.064 -0.4613 -0.4690  0.0645
   61CHL1  H24A 6983   0.135   2.767   9.069 -0.5267 -0.8013 -0.6311
   61CHL1  H24B 6984   0.291   2.838   9.127 -0.6636  1.0717 -1.6241
   61CHL1   C25 6985   0.281   2.791   8.910  0.1523 -0.6163 -0.1999
   61CHL1   H25 6986   0.390   2.779   8.891  0.5387 -4.0521  3.0197
   61CHL1   C26 6987   0.199   2.688   8.829 -0.9140  0.2326 -0.0353
   61CHL1  H26A 6988   0.089   2.705   8.827 -1.1157 -0.6830  1.4886
   61CHL1  H26B 6989   0.227   2.686   8.721 -0.7898 -0.4373  0.0029
   61CHL1  H26C 6990   0.217   2.589   8.878 -1.6709 -0.3279 -0.8557
   61CHL1   C27 6991   0.253   2.936   8.875 -0.2985  0.0319  0.1857
   61CHL1  H27A 6992   0.299   2.998   8.955  3.1031 -0.2918 -1.3747
   61CHL1  H27B 6993   0.297   2.969   8.779 -0.1331  0.5018  0.4231
   61CHL1  H27C 6994   0.147   2.967   8.872 -0.2833  0.3061  1.7061
   62CHL1    C3 6995   6.735   3.882  10.194 -0.0116 -0.0576 -0.1369
   62CHL1    H3 6996   6.648   3.937  10.151  0.4866  1.2012  0.4259
   62CHL1    O3 6997   6.733   3.884  10.335  0.0431  0.0274 -0.3611
   62CHL1   H3' 6998   6.641   3.869  10.358 -1.0392  3.9868 -1.3435
   62CHL1    C4 6999   6.732   3.738  10.149  0.0907  0.0545  0.1855
   62CHL1   H4A 7000   6.823   3.685  10.184  0.2772  0.8372  0.9156
   62CHL1   H4B 7001   6.645   3.687  10.196  1.3966 -2.2567  0.2487
   62CHL1    C5 7002   6.729   3.726   9.999  0.4980 -0.1423  0.6293
   62CHL1    C6 7003   6.634   3.658   9.938 -0.2252 -0.0445 -0.5182
   62CHL1    H6 7004   6.560   3.602   9.997  0.4422 -2.2194 -1.6323
   62CHL1    C7 7005   6.621   3.653   9.786 -0.5584  0.3479  0.0830
   62CHL1   H7A 7006   6.594   3.549   9.756 -0.3241  0.5031 -0.6645
   62CHL1   H7B 7007   6.533   3.715   9.757  0.2278  0.3066 -2.6740
   62CHL1    C8 7008   6.741   3.703   9.704 -0.3794  0.1754  0.1474
   62CHL1    H8 7009   6.822   3.627   9.710 -0.1148  0.5279  1.3532
   62CHL1   C14 7010   6.703   3.736   9.567 -0.3225 -0.2616 -0.5942
   62CHL1   H14 7011   6.632   3.821   9.571  2.8791  2.5498  1.6192
   62CHL1   C15 7012   6.639   3.629   9.490  0.2233 -0.0009  0.5581
   62CHL1  H15A 7013   6.684   3.529   9.511  0.7692 -0.2882 -1.6928
   62CHL1  H15B 7014   6.534   3.636   9.527  0.1664  1.8518  0.1333
   62CHL1   C16 7015   6.650   3.662   9.339 -0.4955  0.1332 -0.3668
   62CHL1  H16A 7016   6.688   3.568   9.293 -1.2294 -0.2793 -0.1543
   62CHL1  H16B 7017   6.553   3.695   9.297 -0.8519 -0.1171  0.2379
   62CHL1   C17 7018   6.736   3.789   9.337 -1.3991  0.0637 -0.0901
   62CHL1   H17 7019   6.677   3.882   9.329 -0.9739  0.2676 -1.0247
   62CHL1   C13 7020   6.812   3.791   9.478  0.4846  0.4608  0.5362
   62CHL1   C18 7021   6.937   3.687   9.466  0.3701  0.1152 -0.1893
   62CHL1  H18A 7022   7.003   3.721   9.383  1.0022 -0.7022 -0.0394
   62CHL1  H18B 7023   7.002   3.685   9.556 -0.5243  1.8250  0.5365
   62CHL1  H18C 7024   6.898   3.586   9.438 -1.6819  0.7917  0.0267
   62CHL1   C12 7025   6.859   3.924   9.531 -0.3514 -0.8255 -0.0620
   62CHL1  H12A 7026   6.949   3.960   9.477 -0.9502 -1.2987 -1.4103
   62CHL1  H12B 7027   6.774   3.994   9.525  1.4691  1.4902 -0.4868
   62CHL1   C11 7028   6.898   3.910   9.681 -0.0268  0.3873 -0.5116
   62CHL1  H11A 7029   7.000   3.865   9.689 -0.5910 -0.8884 -0.1213
   62CHL1  H11B 7030   6.920   4.006   9.733  0.2528 -1.3367  2.8621
   62CHL1    C9 7031   6.795   3.839   9.766 -0.3366 -0.2350 -0.3097
   62CHL1    H9 7032   6.703   3.902   9.761 -1.7582 -1.9608  2.1880
   62CHL1   C10 7033   6.830   3.819   9.922 -0.3757  0.0376 -0.0008
   62CHL1   C19 7034   6.956   3.725   9.925  0.3501  0.1085 -0.2196
   62CHL1  H19A 7035   7.027   3.761   9.848  1.5778 -0.1964  0.7266
   62CHL1  H19B 7036   7.002   3.723  10.026 -0.3431 -2.5588  0.1244
   62CHL1  H19C 7037   6.930   3.618   9.909 -2.0956  0.7527 -0.9288
   62CHL1    C1 7038   6.853   3.955   9.985 -0.8729  0.6229 -0.5363
   62CHL1   H1A 7039   6.945   4.005   9.947 -0.0505  0.1188  0.7391
   62CHL1   H1B 7040   6.763   4.018   9.967 -3.5507 -2.3174  1.4532
   62CHL1    C2 7041   6.862   3.948  10.137 -0.0105 -0.0394  0.2798
   62CHL1   H2A 7042   6.869   4.053  10.172  1.1983 -0.2059  0.6009
   62CHL1   H2B 7043   6.951   3.887  10.166  0.0481  0.9307  2.3368
   62CHL1   C20 7044   6.819   3.805   9.204 -0.6317 -0.2285 -0.3461
   62CHL1   H20 7045   6.892   3.722   9.209 -1.4123 -0.9759 -1.1379
   62CHL1   C21 7046   6.884   3.951   9.208 -0.3686  0.0776  0.1178
   62CHL1  H21A 7047   6.949   3.967   9.120  1.1931 -1.3075  0.9618
   62CHL1  H21B 7048   6.963   3.968   9.284 -0.3485  0.9383 -0.0884
   62CHL1  H21C 7049   6.808   4.031   9.218 -2.4820 -1.8617  0.6925
   62CHL1   C22 7050   6.741   3.770   9.068 -0.6209  0.3858 -0.9918
   62CHL1  H22A 7051   6.820   3.783   8.991 -0.6406  2.5477 -0.7093
   62CHL1  H22B 7052   6.706   3.666   9.084  1.1900 -0.2051 -0.6462
   62CHL1   C23 7053   6.618   3.855   9.028 -0.3025  0.2802  0.6054
   62CHL1  H23A 7054   6.534   3.843   9.101 -2.1334  1.6741 -1.1418
   62CHL1  H23B 7055   6.649   3.962   9.023 -2.5557  0.9578 -2.5438
   62CHL1   C24 7056   6.572   3.819   8.887 -0.5668 -0.1783 -0.2960
   62CHL1  H24A 7057   6.486   3.882   8.857 -0.0683  0.9185  0.4922
   62CHL1  H24B 7058   6.663   3.834   8.825 -0.1327  0.9278  0.5714
   62CHL1   C25 7059   6.538   3.669   8.865 -0.4860 -0.0953 -0.4979
   62CHL1   H25 7060   6.629   3.615   8.897 -1.4697 -2.4862 -1.4729
   62CHL1   C26 7061   6.414   3.628   8.950 -0.4241  0.3201 -0.3418
   62CHL1  H26A 7062   6.432   3.650   9.057 -2.3579  3.1442 -0.4863
   62CHL1  H26B 7063   6.331   3.700   8.933 -0.7603  0.6101  2.1605
   62CHL1  H26C 7064   6.394   3.521   8.923 -1.8859  0.1723  1.1507
   62CHL1   C27 7065   6.521   3.632   8.718 -0.1306 -0.7007  0.8290
   62CHL1  H27A 7066   6.425   3.671   8.677 -0.2370 -0.3190  1.4357
   62CHL1  H27B 7067   6.598   3.680   8.654 -1.7802  0.7413 -0.1617
   62CHL1  H27C 7068   6.522   3.522   8.703 -0.9497 -0.7898  1.3566
   63CHL1    C3 7069   2.847   5.219  10.509  0.5646 -0.0954 -0.0194
   63CHL1    H3 7070   2.877   5.119  10.547 -0.9236 -0.0564  1.3776
   63CHL1    O3 7071   2.815   5.294  10.625  0.9611  0.4618 -0.1485
   63CHL1   H3' 7072   2.746   5.246  10.672  2.1896 -4.4892 -2.7194
   63CHL1    C4 7073   2.963   5.285  10.440 -0.3831  0.2593  0.3094
   63CHL1   H4A 7074   2.937   5.392  10.430  1.0733  0.6021 -0.1263
   63CHL1   H4B 7075   3.053   5.291  10.506  0.7317 -1.9777 -0.8977
   63CHL1    C5 7076   2.994   5.228  10.301  0.1072  0.4871 -0.1333
   63CHL1    C6 7077   3.119   5.195  10.267 -0.4499  0.6059 -0.0919
   63CHL1    H6 7078   3.205   5.204  10.334 -0.8280  0.7557  0.3704
   63CHL1    C7 7079   3.161   5.148  10.132  0.2943  0.6803  0.2288
   63CHL1   H7A 7080   3.259   5.180  10.091  0.4242 -0.8572 -0.7373
   63CHL1   H7B 7081   3.165   5.037  10.137 -0.0314  0.5936 -0.9756
   63CHL1    C8 7082   3.057   5.172  10.028 -0.1029  0.1633 -0.1244
   63CHL1    H8 7083   3.056   5.282  10.010  0.0249  0.0721 -0.6845
   63CHL1   C14 7084   3.082   5.094   9.900 -0.6408 -0.7737 -0.2083
   63CHL1   H14 7085   3.052   4.989   9.923  0.1831 -0.6303  1.6746
   63CHL1   C15 7086   3.229   5.091   9.854 -0.8713  0.2694  0.2607
   63CHL1  H15A 7087   3.265   5.197   9.859 -2.7733  0.9159  1.5140
   63CHL1  H15B 7088   3.296   5.021   9.908  1.7139  2.4519  0.1399
   63CHL1   C16 7089   3.217   5.041   9.709  0.0174 -0.5320 -0.0414
   63CHL1  H16A 7090   3.258   5.122   9.645  2.1518 -0.4942  1.2870
   63CHL1  H16B 7091   3.280   4.953   9.686 -1.6324 -1.9634  0.6349
   63CHL1   C17 7092   3.059   5.034   9.673 -0.5111 -0.4783 -0.1956
   63CHL1   H17 7093   3.033   4.933   9.711  0.6570 -1.0532 -0.8626
   63CHL1   C13 7094   2.992   5.128   9.776  0.7180 -0.3209 -0.6589
   63CHL1   C18 7095   3.006   5.268   9.717 -0.2325  0.0054 -0.4020
   63CHL1  H18A 7096   2.959   5.341   9.786 -1.1981  1.2562 -2.2904
   63CHL1  H18B 7097   3.114   5.292   9.702 -0.1646 -0.4899 -0.7126
   63CHL1  H18C 7098   2.954   5.272   9.619  0.4613  1.0978 -0.7464
   63CHL1   C12 7099   2.847   5.097   9.818  0.8373  0.0957 -0.5084
   63CHL1  H12A 7100   2.780   5.125   9.734 -0.5049  0.6644  0.7072
   63CHL1  H12B 7101   2.835   4.988   9.837  1.5110  0.1041  0.0300
   63CHL1   C11 7102   2.824   5.176   9.945  1.1944 -0.0203 -0.0025
   63CHL1  H11A 7103   2.816   5.285   9.923  0.5252 -0.3769 -1.6734
   63CHL1  H11B 7104   2.721   5.156   9.984  0.6249  1.9286 -0.3913
   63CHL1    C9 7105   2.914   5.138  10.070 -0.0119  0.0449 -0.3852
   63CHL1    H9 7106   2.911   5.027  10.082 -0.1914 -0.1910 -2.3184
   63CHL1   C10 7107   2.874   5.208  10.209 -0.0115 -0.1808  0.8242
   63CHL1   C19 7108   2.835   5.349  10.157 -0.3669  0.1810  0.2487
   63CHL1  H19A 7109   2.911   5.399  10.093  0.4191 -0.6292  0.5356
   63CHL1  H19B 7110   2.740   5.352  10.098 -0.0538 -1.1004 -0.3521
   63CHL1  H19C 7111   2.825   5.408  10.251  1.6628 -0.6022  0.9927
   63CHL1    C1 7112   2.751   5.141  10.280  0.3795  0.2020 -0.0459
   63CHL1   H1A 7113   2.653   5.157  10.231  0.1351  2.1730  0.9706
   63CHL1   H1B 7114   2.768   5.031  10.282 -0.8359  0.0037 -0.4147
   63CHL1    C2 7115   2.724   5.212  10.416  0.1068 -1.1352  0.2755
   63CHL1   H2A 7116   2.639   5.159  10.464 -0.3719 -0.3748  0.2876
   63CHL1   H2B 7117   2.678   5.310  10.393 -1.2462 -1.7926  0.0667
   63CHL1   C20 7118   3.026   5.046   9.528  0.0207  0.0916 -0.1035
   63CHL1   H20 7119   3.066   5.144   9.494 -0.5795 -0.0859 -1.3771
   63CHL1   C21 7120   2.868   5.037   9.505 -0.3577 -0.1909  0.6167
   63CHL1  H21A 7121   2.824   5.130   9.547  1.1911  0.0859  1.7021
   63CHL1  H21B 7122   2.819   4.944   9.540  1.2582 -0.8156  1.2985
   63CHL1  H21C 7123   2.847   5.029   9.396 -0.3429 -0.3793  0.6280
   63CHL1   C22 7124   3.118   4.954   9.443  0.1893  0.5804  0.3339
   63CHL1  H22A 7125   3.215   5.008   9.444 -0.1939  1.2937  1.9597
   63CHL1  H22B 7126   3.132   4.858   9.498 -1.1960  0.2785  0.1888
   63CHL1   C23 7127   3.076   4.939   9.299 -0.0846  0.6232 -0.3392
   63CHL1  H23A 7128   2.971   4.905   9.292 -0.4036  1.4603  0.2620
   63CHL1  H23B 7129   3.066   5.044   9.265 -3.4046  1.1191  1.7211
   63CHL1   C24 7130   3.178   4.857   9.223 -0.5804  0.1327  0.2159
   63CHL1  H24A 7131   3.269   4.919   9.238 -1.2919  1.2102  0.2133
   63CHL1  H24B 7132   3.201   4.752   9.249 -1.9040 -0.4290 -0.8123
   63CHL1   C25 7133   3.162   4.871   9.067  0.3051 -0.5766  0.4507
   63CHL1   H25 7134   3.144   4.979   9.053  2.4450 -0.0092  1.7374
   63CHL1   C26 7135   3.275   4.823   8.977 -1.1681 -0.5374 -0.6270
   63CHL1  H26A 7136   3.252   4.835   8.869  0.7295 -0.2923 -1.0256
   63CHL1  H26B 7137   3.364   4.886   8.996 -1.9421  0.8069 -1.3480
   63CHL1  H26C 7138   3.317   4.722   8.996 -0.8536 -0.3246 -0.1986
   63CHL1   C27 7139   3.028   4.799   9.017 -0.4542 -0.8166  0.6709
   63CHL1  H27A 7140   3.029   4.809   8.906  3.1383 -0.8755  0.5679
   63CHL1  H27B 7141   3.034   4.692   9.047  1.5311 -1.4596 -1.6583
   63CHL1  H27C 7142   2.939   4.849   9.060  0.6308  0.2256  1.7639
   64CHL1    C3 7143   2.744   6.476  10.188  0.9132 -0.1617  0.5275
   64CHL1    H3 7144   2.739   6.365  10.179 -0.8986  0.0323 -1.9228
   64CHL1    O3 7145   2.734   6.487  10.329 -0.2454 -0.0847 -0.4051
   64CHL1   H3' 7146   2.749   6.578  10.354 -1.9130  0.0681  0.1673
   64CHL1    C4 7147   2.876   6.533  10.145 -0.0181  0.7387  0.3080
   64CHL1   H4A 7148   2.868   6.641  10.170  2.0760  1.4960 -1.9223
   64CHL1   H4B 7149   2.967   6.496  10.198  0.9265  0.0609 -1.6705
   64CHL1    C5 7150   2.894   6.509  10.000  0.9575 -0.0685  0.8473
   64CHL1    C6 7151   3.004   6.454   9.945 -0.7163 -0.3531 -0.1373
   64CHL1    H6 7152   3.080   6.414  10.015 -0.9446  1.4413  1.2013
   64CHL1    C7 7153   3.026   6.431   9.796 -0.5922 -0.9960 -0.0649
   64CHL1   H7A 7154   3.130   6.446   9.762 -0.6180  0.1941  0.3156
   64CHL1   H7B 7155   3.013   6.322   9.782  2.7837 -1.4326 -0.5297
   64CHL1    C8 7156   2.936   6.517   9.712 -0.1426  0.1928  0.4585
   64CHL1    H8 7157   2.967   6.623   9.702 -2.2823  0.7768 -0.5603
   64CHL1   C14 7158   2.939   6.460   9.576 -0.5122  0.1975 -0.1041
   64CHL1   H14 7159   2.910   6.353   9.583  1.4403 -0.2546  2.5437
   64CHL1   C15 7160   3.078   6.448   9.506  0.4346 -0.3400  0.9185
   64CHL1  H15A 7161   3.123   6.548   9.523  0.1241 -0.0153 -0.1491
   64CHL1  H15B 7162   3.135   6.356   9.535  0.9516 -0.4843 -0.4961
   64CHL1   C16 7163   3.040   6.431   9.355 -0.1011 -0.1085 -0.2550
   64CHL1  H16A 7164   3.106   6.500   9.300 -0.3849 -0.0737 -0.5557
   64CHL1  H16B 7165   3.075   6.330   9.323 -0.0183 -0.2423  0.2538
   64CHL1   C17 7166   2.882   6.450   9.348 -0.9154 -0.5072 -0.5498
   64CHL1   H17 7167   2.830   6.353   9.357 -0.5950 -0.5035  2.8427
   64CHL1   C13 7168   2.844   6.530   9.473 -0.4282  0.9764  0.1634
   64CHL1   C18 7169   2.886   6.680   9.448 -0.2122  0.5964  0.3510
   64CHL1  H18A 7170   2.989   6.677   9.405 -0.5727 -1.0181 -0.4649
   64CHL1  H18B 7171   2.818   6.717   9.369 -1.1178 -0.5116  0.5849
   64CHL1  H18C 7172   2.880   6.751   9.533  0.6108  0.0258  0.8978
   64CHL1   C12 7173   2.700   6.520   9.526 -0.7039  0.2729 -0.3776
   64CHL1  H12A 7174   2.634   6.583   9.462  2.0114  3.4905 -0.3023
   64CHL1  H12B 7175   2.672   6.412   9.524  2.6798 -0.7989  1.5821
   64CHL1   C11 7176   2.697   6.586   9.665  0.2669 -0.2756 -0.9705
   64CHL1  H11A 7177   2.716   6.695   9.656  2.5517 -0.4891  0.4837
   64CHL1  H11B 7178   2.597   6.558   9.706  1.0406 -1.2999  0.3199
   64CHL1    C9 7179   2.788   6.518   9.766 -0.0549  0.0538 -0.2027
   64CHL1    H9 7180   2.751   6.413   9.771 -1.4871  0.4505 -1.7269
   64CHL1   C10 7181   2.781   6.570   9.914 -1.1944 -0.6050  0.1883
   64CHL1   C19 7182   2.789   6.727   9.917  0.0627 -0.8950  0.3576
   64CHL1  H19A 7183   2.700   6.776   9.872 -0.6912  1.0473  3.6311
   64CHL1  H19B 7184   2.797   6.767  10.020  2.1362 -1.5765  0.5065
   64CHL1  H19C 7185   2.883   6.760   9.869 -0.8951  2.1524  0.4024
   64CHL1    C1 7186   2.643   6.530   9.972 -0.3608  0.0503 -0.1808
   64CHL1   H1A 7187   2.556   6.578   9.923 -0.7398  0.1108  0.5476
   64CHL1   H1B 7188   2.637   6.420   9.958  0.9613 -0.5129  2.8092
   64CHL1    C2 7189   2.624   6.550  10.125  0.1603  0.3440 -0.1562
   64CHL1   H2A 7190   2.528   6.502  10.156  0.5825 -1.9601 -2.1115
   64CHL1   H2B 7191   2.627   6.659  10.144 -0.3544  0.1165  1.4033
   64CHL1   C20 7192   2.840   6.506   9.207 -0.7918 -0.1504 -0.2316
   64CHL1   H20 7193   2.890   6.603   9.185  2.3492 -1.9236 -1.6371
   64CHL1   C21 7194   2.692   6.509   9.185  0.0509 -0.0008 -0.6825
   64CHL1  H21A 7195   2.636   6.566   9.263 -0.7485 -2.2514  0.4668
   64CHL1  H21B 7196   2.646   6.408   9.181 -0.9593  0.4413 -0.7511
   64CHL1  H21C 7197   2.671   6.569   9.093 -2.9122  0.7646  0.3769
   64CHL1   C22 7198   2.902   6.402   9.101  0.0584 -0.1581  0.1640
   64CHL1  H22A 7199   3.013   6.401   9.102  0.1087 -2.9386  1.3215
   64CHL1  H22B 7200   2.869   6.301   9.133 -1.7473  0.6051  0.8680
   64CHL1   C23 7201   2.864   6.431   8.952 -0.2965 -0.1075 -0.2370
   64CHL1  H23A 7202   2.758   6.453   8.928 -1.2426 -2.4941  1.4272
   64CHL1  H23B 7203   2.925   6.523   8.937 -0.2260  0.1342  1.3044
   64CHL1   C24 7204   2.919   6.314   8.864 -0.0678 -0.9269  0.0547
   64CHL1  H24A 7205   3.023   6.305   8.901 -0.6770  0.7867  2.4383
   64CHL1  H24B 7206   2.863   6.226   8.903 -3.2971  1.0519  0.2722
   64CHL1   C25 7207   2.895   6.325   8.716  0.2528 -0.6890  0.9238
   64CHL1   H25 7208   2.925   6.225   8.677 -0.2202 -1.0374  1.4402
   64CHL1   C26 7209   2.746   6.357   8.678  0.3546 -0.8880  0.0343
   64CHL1  H26A 7210   2.680   6.282   8.725  0.4261 -0.9162  0.0905
   64CHL1  H26B 7211   2.734   6.463   8.712  2.3633  0.0325 -1.8792
   64CHL1  H26C 7212   2.728   6.355   8.569 -1.1227  0.0170  0.2452
   64CHL1   C27 7213   2.984   6.438   8.659  0.2249 -0.2922 -0.2727
   64CHL1  H27A 7214   2.926   6.531   8.676  0.4245 -0.1258 -0.5012
   64CHL1  H27B 7215   3.090   6.439   8.693  0.6340 -0.8416 -1.4933
   64CHL1  H27C 7216   2.989   6.433   8.549  2.9162 -1.6191 -0.1647
   65CHL1    C3 7217   6.199   3.932  10.126  1.2773 -0.0916  0.0928
   65CHL1    H3 7218   6.092   3.914  10.102  0.9860  1.9324 -0.2806
   65CHL1    O3 7219   6.205   3.926  10.267  0.0858 -0.2649  0.3855
   65CHL1   H3' 7220   6.288   3.963  10.296 -0.4789 -0.3543  2.1998
   65CHL1    C4 7221   6.293   3.837  10.060  0.4491 -0.1372 -0.1372
   65CHL1   H4A 7222   6.398   3.855  10.092 -0.0523  1.7736  0.5823
   65CHL1   H4B 7223   6.266   3.734  10.091 -0.0805  0.3007  0.9236
   65CHL1    C5 7224   6.278   3.848   9.908 -0.7765  0.9617 -0.0353
   65CHL1    C6 7225   6.250   3.740   9.830  0.6238  1.1393  0.7150
   65CHL1    H6 7226   6.250   3.637   9.868  1.5537  0.3025 -1.3751
   65CHL1    C7 7227   6.239   3.745   9.676  0.1639  0.3612  1.1059
   65CHL1   H7A 7228   6.282   3.651   9.635  0.9843  0.4274  1.8078
   65CHL1   H7B 7229   6.132   3.741   9.645  0.5692  2.1003 -0.6857
   65CHL1    C8 7230   6.295   3.875   9.608 -0.0606  0.2290  0.1911
   65CHL1    H8 7231   6.406   3.870   9.608 -0.0529 -0.1955  1.6387
   65CHL1   C14 7232   6.239   3.885   9.464  0.2103 -0.4140  0.2609
   65CHL1   H14 7233   6.128   3.894   9.472  0.1207 -1.2160 -0.0277
   65CHL1   C15 7234   6.267   3.763   9.367  0.2088  0.7932 -0.2525
   65CHL1  H15A 7235   6.371   3.734   9.394 -0.8762 -1.5689  1.7013
   65CHL1  H15B 7236   6.189   3.685   9.378  2.0285 -1.5999 -2.8302
   65CHL1   C16 7237   6.250   3.840   9.230  0.3062  0.9405  0.2975
   65CHL1  H16A 7238   6.348   3.835   9.178  1.2738 -0.8032  2.1247
   65CHL1  H16B 7239   6.179   3.784   9.166  0.1303 -0.6742  1.8277
   65CHL1   C17 7240   6.213   3.986   9.253 -0.1650 -0.3933 -0.3660
   65CHL1   H17 7241   6.104   3.994   9.270  0.0866 -1.4831  2.2591
   65CHL1   C13 7242   6.278   4.010   9.391  0.2586  0.0464 -0.3259
   65CHL1   C18 7243   6.429   4.026   9.371  0.4232 -0.0200 -0.2161
   65CHL1  H18A 7244   6.481   4.027   9.470  0.9490  0.3272 -0.4944
   65CHL1  H18B 7245   6.472   3.938   9.320  2.5017  0.4107  0.6533
   65CHL1  H18C 7246   6.444   4.120   9.313  2.3008  0.9668  1.7101
   65CHL1   C12 7247   6.226   4.126   9.472  0.0936  0.2420  0.4925
   65CHL1  H12A 7248   6.248   4.224   9.424 -0.4117  1.6019  2.8870
   65CHL1  H12B 7249   6.117   4.105   9.475  0.0377  0.6159  2.0310
   65CHL1   C11 7250   6.268   4.131   9.617  0.1975  1.1107 -0.5330
   65CHL1  H11A 7251   6.376   4.153   9.620  0.4148  0.0009  2.2078
   65CHL1  H11B 7252   6.227   4.221   9.669 -0.5621  1.2712 -1.3756
   65CHL1    C9 7253   6.244   3.998   9.693  0.4602  0.4590 -0.1081
   65CHL1    H9 7254   6.134   3.982   9.694  0.6478 -1.0724 -0.9064
   65CHL1   C10 7255   6.294   3.994   9.849 -0.2732  0.0654 -0.0485
   65CHL1   C19 7256   6.438   4.059   9.845 -0.5691  0.1093  0.1563
   65CHL1  H19A 7257   6.474   4.059   9.950 -2.0559 -1.0696  0.6840
   65CHL1  H19B 7258   6.510   4.013   9.774  0.6172 -1.7311  2.4304
   65CHL1  H19C 7259   6.440   4.170   9.834 -0.8645  0.4422  2.7920
   65CHL1    C1 7260   6.205   4.082   9.926  0.2162 -0.1160 -0.0071
   65CHL1   H1A 7261   6.230   4.185   9.891 -1.6493 -0.2320 -1.8997
   65CHL1   H1B 7262   6.101   4.060   9.895 -0.0069  1.8596 -0.8390
   65CHL1    C2 7263   6.219   4.075  10.079 -1.0888  1.1419 -0.5322
   65CHL1   H2A 7264   6.138   4.144  10.112 -2.1880 -0.3257 -0.0733
   65CHL1   H2B 7265   6.319   4.111  10.111 -1.1967  1.4225 -0.5078
   65CHL1   C20 7266   6.244   4.078   9.130 -0.1895  0.3390 -1.2230
   65CHL1   H20 7267   6.352   4.077   9.106  0.1075 -2.1993 -0.0803
   65CHL1   C21 7268   6.214   4.223   9.158 -0.7036 -1.1280 -0.2854
   65CHL1  H21A 7269   6.121   4.240   9.217 -0.6514 -0.3880 -0.4159
   65CHL1  H21B 7270   6.210   4.283   9.064 -0.9443 -2.0785 -0.8971
   65CHL1  H21C 7271   6.282   4.283   9.222 -1.5108  1.6120 -1.8168
   65CHL1   C22 7272   6.181   4.035   8.998 -0.1035  0.2322 -0.0419
   65CHL1  H22A 7273   6.179   3.924   9.001  0.2630  0.2405  1.4323
   65CHL1  H22B 7274   6.073   4.058   8.989  0.0831  2.3852  2.2137
   65CHL1   C23 7275   6.263   4.070   8.876  0.6179  0.5253  0.4118
   65CHL1  H23A 7276   6.273   4.179   8.853 -2.4363  0.8228  0.0651
   65CHL1  H23B 7277   6.364   4.032   8.899  0.4295 -0.8851 -0.9336
   65CHL1   C24 7278   6.212   4.022   8.741 -0.1815 -0.4477 -0.8289
   65CHL1  H24A 7279   6.239   3.914   8.742  0.7010 -0.2858 -2.7571
   65CHL1  H24B 7280   6.101   4.035   8.738 -0.1431  0.2088  0.0855
   65CHL1   C25 7281   6.274   4.093   8.617  0.1931  0.7407  0.2131
   65CHL1   H25 7282   6.256   4.029   8.528  0.2608 -1.2654  1.5647
   65CHL1   C26 7283   6.191   4.226   8.595  0.3340 -0.0472  0.0586
   65CHL1  H26A 7284   6.207   4.283   8.689  0.2065 -2.3073  1.5345
   65CHL1  H26B 7285   6.237   4.287   8.515  1.4195 -1.1303 -0.1785
   65CHL1  H26C 7286   6.081   4.208   8.590 -0.0317  1.8468  0.6437
   65CHL1   C27 7287   6.425   4.118   8.625 -0.2459  0.3770  0.6874
   65CHL1  H27A 7288   6.460   4.174   8.536 -0.0940  1.1900  1.2558
   65CHL1  H27B 7289   6.458   4.179   8.711  0.0517  1.3293 -0.0821
   65CHL1  H27C 7290   6.473   4.018   8.628 -3.4102 -1.2840  0.5539
   66CHL1    C3 7291   3.221   2.187  10.650 -0.2565  0.3610  0.2032
   66CHL1    H3 7292   3.317   2.243  10.657  0.4894 -0.8731 -0.0163
   66CHL1    O3 7293   3.203   2.148  10.785  0.6297 -0.5973  0.1736
   66CHL1   H3' 7294   3.234   2.058  10.800 -0.8962 -1.6348 -2.2020
   66CHL1    C4 7295   3.102   2.261  10.598  0.6217 -0.0571 -0.0240
   66CHL1   H4A 7296   3.012   2.200  10.624  1.4990 -1.6404 -0.5957
   66CHL1   H4B 7297   3.092   2.357  10.654  0.8839 -0.8334  1.4145
   66CHL1    C5 7298   3.100   2.290  10.450 -0.0056  0.1237  0.7122
   66CHL1    C6 7299   3.083   2.418  10.403  0.4586  0.8339 -0.7182
   66CHL1    H6 7300   3.069   2.503  10.471  0.7304  0.3601 -0.0617
   66CHL1    C7 7301   3.080   2.444  10.261 -0.2521  0.1471  0.2373
   66CHL1   H7A 7302   3.000   2.514  10.228  2.2884  1.8893 -2.7319
   66CHL1   H7B 7303   3.173   2.499  10.235 -0.1578 -0.7657 -1.5082
   66CHL1    C8 7304   3.065   2.323  10.167  0.2245 -0.9306 -0.2906
   66CHL1    H8 7305   2.961   2.283  10.172 -0.1881  0.0211 -1.0838
   66CHL1   C14 7306   3.100   2.365  10.023  0.2063 -0.3098  0.1284
   66CHL1   H14 7307   3.210   2.382  10.024  0.5796 -2.0349 -2.4012
   66CHL1   C15 7308   3.037   2.498   9.968  0.5608  0.3656 -0.4487
   66CHL1  H15A 7309   2.929   2.495   9.994  1.0983  0.5188  1.9989
   66CHL1  H15B 7310   3.090   2.588  10.007 -1.0518  1.1100  0.1348
   66CHL1   C16 7311   3.049   2.480   9.818  0.2597  0.1329  0.3643
   66CHL1  H16A 7312   2.947   2.476   9.775 -0.2554  1.2568  1.4035
   66CHL1  H16B 7313   3.103   2.565   9.769  0.1200 -2.1334 -4.2356
   66CHL1   C17 7314   3.104   2.329   9.795 -0.3493  0.2137  0.1720
   66CHL1   H17 7315   3.214   2.337   9.781  0.1519 -2.6453  1.7357
   66CHL1   C13 7316   3.074   2.253   9.925  0.1991 -0.4114  0.1635
   66CHL1   C18 7317   2.918   2.215   9.931  0.2704 -0.4752  0.1371
   66CHL1  H18A 7318   2.877   2.154   9.848 -1.2071 -0.4030  0.7811
   66CHL1  H18B 7319   2.892   2.163  10.026  1.1929 -0.8662  0.1803
   66CHL1  H18C 7320   2.858   2.308   9.920  1.1037 -0.0627 -1.2677
   66CHL1   C12 7321   3.163   2.135   9.956  0.1463  0.0054  0.1925
   66CHL1  H12A 7322   3.145   2.047   9.890 -1.0035  0.2819  0.1116
   66CHL1  H12B 7323   3.265   2.173   9.937 -0.0068 -0.9075 -3.2527
   66CHL1   C11 7324   3.158   2.085  10.105 -0.5345  0.0794 -0.0215
   66CHL1  H11A 7325   3.059   2.036  10.096  0.2309 -1.3979 -0.8579
   66CHL1  H11B 7326   3.230   2.004  10.128 -0.9206 -0.0989  0.5687
   66CHL1    C9 7327   3.158   2.204  10.210 -0.2913  0.0709 -0.1738
   66CHL1    H9 7328   3.263   2.241  10.204 -0.1567 -0.4715 -1.8581
   66CHL1   C10 7329   3.131   2.163  10.359 -0.2121 -0.1185 -0.6109
   66CHL1   C19 7330   3.011   2.072  10.373 -0.2452  0.2784  0.2575
   66CHL1  H19A 7331   3.029   1.973  10.326  0.5436  1.2625 -1.6331
   66CHL1  H19B 7332   2.989   2.056  10.481 -1.2162 -0.4052 -0.0304
   66CHL1  H19C 7333   2.929   2.121  10.316  1.5215  2.9094 -0.2207
   66CHL1    C1 7334   3.256   2.083  10.419 -0.6616 -0.0138  0.0780
   66CHL1   H1A 7335   3.279   1.988  10.366  0.8738 -1.0000  2.3372
   66CHL1   H1B 7336   3.337   2.154  10.390 -0.9512 -0.6607 -2.6208
   66CHL1    C2 7337   3.248   2.053  10.571 -0.4172 -0.1275  0.3238
   66CHL1   H2A 7338   3.343   2.003  10.601  1.7202  1.8876 -2.5059
   66CHL1   H2B 7339   3.167   1.980  10.595 -0.9296  0.0015 -0.9468
   66CHL1   C20 7340   3.049   2.275   9.665  0.3255 -0.0856  0.4643
   66CHL1   H20 7341   2.938   2.267   9.667  0.1821  0.1702 -2.3877
   66CHL1   C21 7342   3.098   2.133   9.638 -0.1898 -0.0060 -0.0062
   66CHL1  H21A 7343   3.207   2.122   9.655  0.0112  1.0275 -0.5624
   66CHL1  H21B 7344   3.083   2.115   9.529 -0.7710 -3.0206  0.4764
   66CHL1  H21C 7345   3.043   2.053   9.691  2.8578 -2.6485 -0.4982
   66CHL1   C22 7346   3.081   2.367   9.541  0.1718  1.1066  0.5063
   66CHL1  H22A 7347   3.057   2.472   9.565 -1.6559  1.1699 -1.2761
   66CHL1  H22B 7348   3.189   2.360   9.519  0.1608  1.6936  0.2677
   66CHL1   C23 7349   3.007   2.327   9.412  1.2709  0.4378 -0.3846
   66CHL1  H23A 7350   3.041   2.228   9.374 -2.0330 -0.8398 -0.3546
   66CHL1  H23B 7351   2.898   2.313   9.426  1.2826  0.6782 -0.0500
   66CHL1   C24 7352   3.015   2.433   9.304 -0.2907  0.0272  0.2152
   66CHL1  H24A 7353   2.951   2.521   9.328  0.8049  0.7847  0.4328
   66CHL1  H24B 7354   3.120   2.469   9.311 -1.1668  2.9019 -0.2418
   66CHL1   C25 7355   2.988   2.384   9.158 -0.0254 -0.6298 -0.5120
   66CHL1   H25 7356   2.888   2.336   9.162 -0.3690  0.1583  2.4113
   66CHL1   C26 7357   2.998   2.500   9.052 -0.2469  0.5190 -0.4148
   66CHL1  H26A 7358   2.977   2.451   8.955 -2.3039  1.4714 -0.4947
   66CHL1  H26B 7359   2.932   2.587   9.068  0.6042  1.1245 -0.1358
   66CHL1  H26C 7360   3.102   2.539   9.047 -1.2809  3.5187 -0.3165
   66CHL1   C27 7361   3.095   2.282   9.128 -0.9406  0.3297  0.9353
   66CHL1  H27A 7362   3.061   2.181   9.160 -3.7424  0.8213 -0.2042
   66CHL1  H27B 7363   3.133   2.289   9.024  0.6283  0.5153  1.5004
   66CHL1  H27C 7364   3.189   2.298   9.184  0.0327 -0.6190 -0.3832
   67CHL1    C3 7365   0.182   0.202  10.239 -0.8075 -0.2333  0.5220
   67CHL1    H3 7366   0.165   0.311  10.244 -0.4029 -0.1513  0.1769
   67CHL1    O3 7367   0.201   0.167  10.372 -0.0627 -0.0799 -0.3093
   67CHL1   H3' 7368   0.207   0.072  10.367  2.7036 -0.0683  0.9084
   67CHL1    C4 7369   0.054   0.140  10.183  0.6235 -0.5806  0.0190
   67CHL1   H4A 7370   0.065   0.029  10.185  0.4110 -0.5979  0.5751
   67CHL1   H4B 7371  -0.033   0.171  10.246 -0.9856 -0.5290 -2.1075
   67CHL1    C5 7372   0.032   0.176  10.036 -0.0981  0.6660  0.4258
   67CHL1    C6 7373  -0.088   0.229  10.001 -0.6275 -0.1513  0.1203
   67CHL1    H6 7374  -0.165   0.222  10.079 -0.1695 -0.9551  0.5147
   67CHL1    C7 7375  -0.128   0.273   9.855  0.3642  0.1407 -0.1049
   67CHL1   H7A 7376  -0.231   0.235   9.837  0.8916 -1.6567  0.4870
   67CHL1   H7B 7377  -0.123   0.384   9.855 -2.5393  0.3458 -0.0462
   67CHL1    C8 7378  -0.028   0.220   9.751  0.2860 -0.4475 -0.8122
   67CHL1    H8 7379  -0.069   0.119   9.727 -1.9731  0.1013  0.4470
   67CHL1   C14 7380  -0.038   0.298   9.622  0.1668 -0.1071  0.0749
   67CHL1   H14 7381  -0.012   0.402   9.650 -0.4166  0.5663 -1.7533
   67CHL1   C15 7382  -0.171   0.310   9.559 -0.2938  0.2296 -0.3893
   67CHL1  H15A 7383  -0.220   0.211   9.573 -0.2052 -0.0800 -2.0282
   67CHL1  H15B 7384  -0.228   0.379   9.624 -0.4247 -0.7560  0.5833
   67CHL1   C16 7385  -0.147   0.341   9.410 -1.0784 -0.1048 -0.4118
   67CHL1  H16A 7386  -0.204   0.268   9.348 -2.0869  1.3591 -1.2933
   67CHL1  H16B 7387  -0.192   0.440   9.384 -1.4516  0.2462  1.4182
   67CHL1   C17 7388   0.007   0.329   9.388  0.2679 -0.0686 -0.1306
   67CHL1   H17 7389   0.049   0.429   9.412  1.0589 -0.6747  1.1110
   67CHL1   C13 7390   0.056   0.247   9.509  0.9216  0.7521 -0.1240
   67CHL1   C18 7391   0.034   0.091   9.482 -1.0863 -1.2665 -0.5186
   67CHL1  H18A 7392  -0.067   0.059   9.448 -2.1773  0.9327  0.4824
   67CHL1  H18B 7393   0.101   0.060   9.399 -0.5504  0.6346 -0.8526
   67CHL1  H18C 7394   0.054   0.028   9.571 -1.6187  1.2148  1.4833
   67CHL1   C12 7395   0.197   0.270   9.555 -0.1070 -0.4628 -0.7720
   67CHL1  H12A 7396   0.270   0.233   9.480  1.7360 -2.2406  1.7399
   67CHL1  H12B 7397   0.203   0.380   9.573  1.0161 -0.8557  1.6721
   67CHL1   C11 7398   0.226   0.202   9.693 -0.2115 -0.1876  0.5214
   67CHL1  H11A 7399   0.252   0.096   9.677  0.3353 -0.3983  2.6490
   67CHL1  H11B 7400   0.320   0.243   9.735  1.1781 -2.1194 -0.5794
   67CHL1    C9 7401   0.119   0.221   9.807  1.0814 -0.1816  0.6849
   67CHL1    H9 7402   0.135   0.328   9.831  0.9367 -0.2875  1.2678
   67CHL1   C10 7403   0.154   0.156   9.942  0.3834  0.3760  1.0082
   67CHL1   C19 7404   0.173  -0.002   9.921  0.5490  0.0638 -0.0500
   67CHL1  H19A 7405   0.183  -0.051  10.020  0.9931  2.2197  1.0387
   67CHL1  H19B 7406   0.086  -0.042   9.865  0.5072  0.6468 -0.4126
   67CHL1  H19C 7407   0.259  -0.028   9.855  1.1821  0.4224  0.6162
   67CHL1    C1 7408   0.277   0.216  10.002  0.5343  0.5036 -0.2018
   67CHL1   H1A 7409   0.372   0.178   9.958 -0.4982 -1.9421 -0.5012
   67CHL1   H1B 7410   0.280   0.327  10.001  0.3707  0.5228  0.5987
   67CHL1    C2 7411   0.300   0.170  10.148 -0.2521 -0.2572 -0.4926
   67CHL1   H2A 7412   0.387   0.229  10.185  0.1141 -0.2531 -1.3470
   67CHL1   H2B 7413   0.323   0.062  10.160 -0.1448 -0.0512  1.5799
   67CHL1   C20 7414   0.070   0.292   9.250  0.2817  0.5485 -0.5245
   67CHL1   H20 7415   0.052   0.183   9.233 -1.3776  0.8876 -1.0594
   67CHL1   C21 7416   0.217   0.324   9.230 -0.8192  0.3375  0.4362
   67CHL1  H21A 7417   0.245   0.419   9.281  1.8171 -0.5008  0.7044
   67CHL1  H21B 7418   0.245   0.340   9.124 -1.8377 -1.2387 -0.1202
   67CHL1  H21C 7419   0.276   0.237   9.266 -0.7009  0.1747 -0.1478
   67CHL1   C22 7420  -0.019   0.360   9.136 -0.1732 -0.2181  0.1586
   67CHL1  H22A 7421   0.018   0.324   9.037 -1.2009  1.1747 -0.7721
   67CHL1  H22B 7422  -0.119   0.313   9.147  0.0914 -1.1646 -1.1213
   67CHL1   C23 7423  -0.018   0.508   9.135  0.3930 -1.0282  0.0284
   67CHL1  H23A 7424  -0.060   0.553   9.228 -0.4033 -0.6131 -0.5281
   67CHL1  H23B 7425   0.089   0.536   9.125  0.6415 -2.0746 -0.3122
   67CHL1   C24 7426  -0.090   0.565   9.015  0.3312 -0.1792 -0.3113
   67CHL1  H24A 7427  -0.198   0.539   9.015  0.2152  0.2646  0.9514
   67CHL1  H24B 7428  -0.091   0.675   9.027  0.7301 -0.2055 -0.0122
   67CHL1   C25 7429  -0.037   0.531   8.876  0.1358 -0.2966  0.5175
   67CHL1   H25 7430  -0.027   0.422   8.862 -0.6365 -0.2614 -0.4406
   67CHL1   C26 7431  -0.145   0.593   8.784  0.3291  0.1085  0.4668
   67CHL1  H26A 7432  -0.155   0.699   8.816 -1.5756 -0.7407  3.0340
   67CHL1  H26B 7433  -0.112   0.596   8.678 -0.2786  0.7366  0.2871
   67CHL1  H26C 7434  -0.245   0.544   8.790 -0.2964  1.4404  1.2805
   67CHL1   C27 7435   0.099   0.601   8.852 -0.5023  0.1988  0.3609
   67CHL1  H27A 7436   0.169   0.541   8.914 -0.4960 -1.0897 -0.8398
   67CHL1  H27B 7437   0.123   0.598   8.743 -1.8026  0.1237  0.0504
   67CHL1  H27C 7438   0.110   0.706   8.884  3.7644  0.0347  0.0489
   68CHL1    C3 7439   3.334   2.746  10.414 -0.2925  0.7392  0.3368
   68CHL1    H3 7440   3.269   2.657  10.403 -0.9304  1.2247  0.1033
   68CHL1    O3 7441   3.339   2.802  10.544 -0.0230 -0.8387  0.7997
   68CHL1   H3' 7442   3.384   2.886  10.536 -0.0033 -0.7103  2.0222
   68CHL1    C4 7443   3.469   2.697  10.375 -0.4125  0.1057  0.0137
   68CHL1   H4A 7444   3.543   2.779  10.390 -0.3998  0.1492 -0.2794
   68CHL1   H4B 7445   3.496   2.619  10.449  1.3814  0.0633 -0.6210
   68CHL1    C5 7446   3.471   2.653  10.232 -0.4649  0.2847  0.3778
   68CHL1    C6 7447   3.511   2.526  10.200 -0.4333 -0.0344  0.8506
   68CHL1    H6 7448   3.540   2.465  10.287  0.9762  1.4236  1.4527
   68CHL1    C7 7449   3.518   2.470  10.057 -0.2175 -0.2262  0.5346
   68CHL1   H7A 7450   3.606   2.406  10.032 -0.5548 -0.9102  1.0866
   68CHL1   H7B 7451   3.422   2.418  10.039 -0.1153 -0.1744 -0.2216
   68CHL1    C8 7452   3.514   2.582   9.950  0.2497 -0.2979 -0.1060
   68CHL1    H8 7453   3.613   2.632   9.946  0.4454 -0.5159  1.3520
   68CHL1   C14 7454   3.470   2.524   9.810  0.2884 -0.7242 -0.7941
   68CHL1   H14 7455   3.365   2.492   9.822  0.4148 -0.7440  0.3689
   68CHL1   C15 7456   3.540   2.401   9.765  0.0590 -0.0082 -0.4251
   68CHL1  H15A 7457   3.647   2.411   9.794 -0.0964  1.2031 -0.2247
   68CHL1  H15B 7458   3.486   2.323   9.823 -0.3849  1.3925  1.1295
   68CHL1   C16 7459   3.520   2.402   9.612 -0.1320  0.0958  0.6833
   68CHL1  H16A 7460   3.616   2.402   9.557 -2.3331  1.5837 -3.6119
   68CHL1  H16B 7461   3.459   2.313   9.585 -1.5484  1.4371 -0.7017
   68CHL1   C17 7462   3.444   2.529   9.576  0.0314 -0.9324  0.0003
   68CHL1   H17 7463   3.334   2.512   9.585  0.1107 -0.3930  2.5748
   68CHL1   C13 7464   3.469   2.630   9.699 -0.0826  0.5350  0.2998
   68CHL1   C18 7465   3.610   2.682   9.686  0.3190  0.0040 -0.6483
   68CHL1  H18A 7466   3.641   2.717   9.585  0.4470  1.4352 -0.1320
   68CHL1  H18B 7467   3.629   2.770   9.751 -1.1769  1.1877 -1.7214
   68CHL1  H18C 7468   3.675   2.596   9.712 -2.2150 -1.4496  1.4285
   68CHL1   C12 7469   3.369   2.744   9.734 -0.4757 -0.5962  1.1391
   68CHL1  H12A 7470   3.363   2.830   9.663 -2.6786 -1.7058 -0.1162
   68CHL1  H12B 7471   3.266   2.703   9.730 -1.2572  1.3323 -0.2690
   68CHL1   C11 7472   3.399   2.794   9.869 -0.2747 -0.5718 -0.3506
   68CHL1  H11A 7473   3.483   2.866   9.880 -0.7104 -0.2513  1.2879
   68CHL1  H11B 7474   3.315   2.861   9.898  0.0006 -0.0122 -0.8233
   68CHL1    C9 7475   3.413   2.691   9.988 -0.3458 -0.0578  0.5247
   68CHL1    H9 7476   3.317   2.635   9.985 -1.5922  1.8472  2.1715
   68CHL1   C10 7477   3.426   2.749  10.126 -0.2307 -1.1831  0.1814
   68CHL1   C19 7478   3.525   2.863  10.120 -0.2799 -0.0012  0.7124
   68CHL1  H19A 7479   3.614   2.828  10.064 -0.2914  1.3056 -0.1741
   68CHL1  H19B 7480   3.483   2.951  10.066 -1.3304 -0.0403  1.4365
   68CHL1  H19C 7481   3.546   2.897  10.224 -2.7148 -1.7805  1.8980
   68CHL1    C1 7482   3.285   2.807  10.176 -0.1151  0.4286  0.7428
   68CHL1   H1A 7483   3.259   2.889  10.106 -0.8798 -1.8741 -1.8811
   68CHL1   H1B 7484   3.216   2.720  10.179 -0.1372  0.3870 -0.4291
   68CHL1    C2 7485   3.280   2.857  10.319  0.0620 -0.6654 -0.5221
   68CHL1   H2A 7486   3.178   2.889  10.347  0.1987 -1.9449  1.6594
   68CHL1   H2B 7487   3.349   2.944  10.331  0.9748 -1.4256 -0.1132
   68CHL1   C20 7488   3.476   2.577   9.435  0.8285  0.2292 -0.2553
   68CHL1   H20 7489   3.586   2.571   9.431  0.7842 -1.0405  0.1155
   68CHL1   C21 7490   3.404   2.714   9.412 -0.3487  0.6448 -0.1095
   68CHL1  H21A 7491   3.373   2.730   9.306  1.3969  0.5024 -0.6685
   68CHL1  H21B 7492   3.459   2.802   9.452 -1.3906 -0.1880  3.5476
   68CHL1  H21C 7493   3.308   2.704   9.467 -0.4478  0.1331 -0.3704
   68CHL1   C22 7494   3.437   2.470   9.329 -0.4563  0.5943  0.5493
   68CHL1  H22A 7495   3.487   2.376   9.363 -1.7928  0.3590  1.9724
   68CHL1  H22B 7496   3.329   2.453   9.313  0.0015  0.2449 -2.8575
   68CHL1   C23 7497   3.488   2.512   9.188 -0.6815 -0.0636  0.0022
   68CHL1  H23A 7498   3.414   2.585   9.150 -1.7547 -0.6900  0.8494
   68CHL1  H23B 7499   3.586   2.564   9.197 -0.6125 -0.5590  3.2865
   68CHL1   C24 7500   3.481   2.388   9.096  0.1654 -0.9190 -0.3807
   68CHL1  H24A 7501   3.546   2.313   9.146  2.9664  1.4421 -0.1394
   68CHL1  H24B 7502   3.376   2.354   9.098 -0.1971  0.1043 -1.2045
   68CHL1   C25 7503   3.528   2.405   8.953  0.1231  0.5164  0.5950
   68CHL1   H25 7504   3.461   2.472   8.897  0.2763  1.4079  1.4450
   68CHL1   C26 7505   3.670   2.467   8.934 -0.1637 -0.8880  0.7725
   68CHL1  H26A 7506   3.748   2.404   8.980  0.7910  0.2764  0.7839
   68CHL1  H26B 7507   3.688   2.480   8.825  0.8987  0.0061  1.0462
   68CHL1  H26C 7508   3.673   2.572   8.970 -1.2702 -0.9771  1.1624
   68CHL1   C27 7509   3.525   2.266   8.895 -0.4886 -0.2426 -0.4435
   68CHL1  H27A 7510   3.570   2.195   8.968  2.6567  0.4256 -1.5755
   68CHL1  H27B 7511   3.423   2.230   8.871 -0.6043  0.5396 -1.1804
   68CHL1  H27C 7512   3.599   2.259   8.812  0.4586 -0.1257  0.3732
   69CHL1    C3 7513   4.698   0.449   6.919  0.4124  0.8025 -0.1018
   69CHL1    H3 7514   4.796   0.398   6.911 -0.5260 -1.0530 -0.2244
   69CHL1    O3 7515   4.663   0.476   6.787 -0.0858  0.2628 -0.4285
   69CHL1   H3' 7516   4.645   0.388   6.753  0.7600 -0.3470  0.6209
   69CHL1    C4 7517   4.596   0.358   6.986  0.0827 -0.2010 -0.2739
   69CHL1   H4A 7518   4.492   0.392   6.964  0.3897  1.0431  0.0887
   69CHL1   H4B 7519   4.612   0.257   6.943  1.4594 -0.9079  1.7382
   69CHL1    C5 7520   4.610   0.347   7.136 -0.0360  0.0740 -0.1273
   69CHL1    C6 7521   4.622   0.225   7.195 -0.2967 -0.4740  0.4460
   69CHL1    H6 7522   4.609   0.130   7.140 -1.0997 -1.5260  2.3135
   69CHL1    C7 7523   4.627   0.217   7.347 -0.1363  0.3392 -0.6367
   69CHL1   H7A 7524   4.568   0.138   7.396  2.5010 -0.4691  1.4949
   69CHL1   H7B 7525   4.731   0.189   7.374  0.1672 -0.5019 -2.5104
   69CHL1    C8 7526   4.586   0.345   7.427 -0.3781  0.4521  0.0212
   69CHL1    H8 7527   4.476   0.356   7.417 -0.4634 -0.3958 -0.0184
   69CHL1   C14 7528   4.611   0.330   7.576 -0.6212 -0.0458 -0.1513
   69CHL1   H14 7529   4.717   0.299   7.586 -1.1571 -2.0182 -0.1369
   69CHL1   C15 7530   4.527   0.221   7.655 -0.5780 -0.5957  0.3803
   69CHL1  H15A 7531   4.429   0.223   7.602 -1.2327  2.1838  1.5730
   69CHL1  H15B 7532   4.572   0.119   7.662  2.3670  0.6037  0.3880
   69CHL1   C16 7533   4.517   0.269   7.794  1.0506 -0.0208 -0.2946
   69CHL1  H16A 7534   4.418   0.285   7.841  0.2591 -2.4633 -0.9802
   69CHL1  H16B 7535   4.570   0.198   7.862  1.3347  0.7977  0.3617
   69CHL1   C17 7536   4.604   0.407   7.796  0.2837 -0.1950  0.1722
   69CHL1   H17 7537   4.712   0.384   7.801  0.3516  0.2450  0.8891
   69CHL1   C13 7538   4.581   0.456   7.653 -0.2576 -0.0855  0.0296
   69CHL1   C18 7539   4.432   0.497   7.647 -0.6709  0.8887  0.6864
   69CHL1  H18A 7540   4.356   0.435   7.698 -2.1909  0.4101 -1.9742
   69CHL1  H18B 7541   4.424   0.604   7.675  0.3571  0.6929  1.7883
   69CHL1  H18C 7542   4.394   0.501   7.542  2.0635  1.7626 -0.3851
   69CHL1   C12 7543   4.673   0.574   7.608  0.8434 -0.4372  0.7020
   69CHL1  H12A 7544   4.644   0.674   7.647  2.7794  0.5709 -0.2894
   69CHL1  H12B 7545   4.781   0.553   7.622  0.4408 -2.1620  1.4444
   69CHL1   C11 7546   4.651   0.595   7.450  0.1420  0.0835 -1.0773
   69CHL1  H11A 7547   4.543   0.621   7.449 -0.2961 -1.4090  0.9940
   69CHL1  H11B 7548   4.722   0.671   7.413  1.3098 -0.4972 -0.0931
   69CHL1    C9 7549   4.663   0.463   7.376  0.2098  0.0699 -0.2262
   69CHL1    H9 7550   4.765   0.420   7.364 -0.3746 -1.0739 -1.2309
   69CHL1   C10 7551   4.623   0.478   7.218 -0.2704 -0.4137 -0.6936
   69CHL1   C19 7552   4.477   0.539   7.203  0.5120 -0.7424  0.3216
   69CHL1  H19A 7553   4.483   0.646   7.235  1.3769 -1.7384  3.8538
   69CHL1  H19B 7554   4.445   0.539   7.096  0.5966 -0.8130  0.2959
   69CHL1  H19C 7555   4.398   0.481   7.254 -1.5103  1.0068 -0.6533
   69CHL1    C1 7556   4.732   0.571   7.145 -0.2882 -0.2412  0.0436
   69CHL1   H1A 7557   4.731   0.670   7.195  0.4005  0.7462 -1.7624
   69CHL1   H1B 7558   4.835   0.538   7.170  0.2608  1.0315 -0.4078
   69CHL1    C2 7559   4.717   0.584   6.994 -0.2224  0.5517  0.3019
   69CHL1   H2A 7560   4.799   0.646   6.952 -1.6535  2.0124 -0.4403
   69CHL1   H2B 7561   4.628   0.647   6.972  2.0192  4.1636  0.8530
   69CHL1   C20 7562   4.586   0.499   7.917  0.2132 -0.1072 -0.4331
   69CHL1   H20 7563   4.493   0.559   7.903 -1.5976 -2.5092  0.4749
   69CHL1   C21 7564   4.708   0.596   7.933 -0.5094  0.1249  0.2776
   69CHL1  H21A 7565   4.679   0.677   8.003 -0.2923  0.3849  0.0680
   69CHL1  H21B 7566   4.732   0.644   7.836 -2.6894  0.3230 -0.2192
   69CHL1  H21C 7567   4.799   0.540   7.963 -0.0859  0.9998  0.6590
   69CHL1   C22 7568   4.552   0.419   8.050 -0.5455 -0.0451  0.8968
   69CHL1  H22A 7569   4.478   0.340   8.026 -1.1932  1.3927 -2.4158
   69CHL1  H22B 7570   4.644   0.366   8.083  0.1301 -0.0855 -0.9373
   69CHL1   C23 7571   4.489   0.517   8.156 -0.4853  0.2498 -0.0835
   69CHL1  H23A 7572   4.540   0.615   8.147  0.5213 -0.3373 -1.0190
   69CHL1  H23B 7573   4.382   0.523   8.127 -1.0122 -0.0022  1.6955
   69CHL1   C24 7574   4.497   0.455   8.295 -0.2516  0.1252  0.2060
   69CHL1  H24A 7575   4.475   0.346   8.294  0.5943 -0.0850  2.0655
   69CHL1  H24B 7576   4.602   0.460   8.328 -0.7907 -0.2735  2.1122
   69CHL1   C25 7577   4.393   0.494   8.395 -0.2947 -1.3432 -0.3843
   69CHL1   H25 7578   4.291   0.485   8.353  0.0925  0.5635 -1.8742
   69CHL1   C26 7579   4.400   0.407   8.525 -0.1853 -0.0339  0.0608
   69CHL1  H26A 7580   4.381   0.300   8.501 -1.2078 -0.1947  1.4553
   69CHL1  H26B 7581   4.503   0.421   8.566  0.2825 -1.7963 -0.4167
   69CHL1  H26C 7582   4.322   0.430   8.600  1.5393  0.8982  1.6664
   69CHL1   C27 7583   4.414   0.646   8.426  0.4737  0.2041 -0.2735
   69CHL1  H27A 7584   4.346   0.677   8.508  0.7804 -1.6842  0.7456
   69CHL1  H27B 7585   4.514   0.662   8.473  0.8780 -1.0995 -0.6344
   69CHL1  H27C 7586   4.393   0.704   8.334  1.7526  2.3793  0.7421
   70CHL1    C3 7587   6.241   4.540   7.174  0.8044  0.4444 -0.8037
   70CHL1    H3 7588   6.261   4.434   7.199 -1.2052  0.1843 -0.0957
   70CHL1    O3 7589   6.194   4.538   7.038  0.3563 -0.1412  0.1066
   70CHL1   H3' 7590   6.195   4.631   7.013 -1.8256 -0.5596 -1.8180
   70CHL1    C4 7591   6.130   4.590   7.270  0.5197  0.1287  0.6322
   70CHL1   H4A 7592   6.099   4.691   7.237 -0.5127 -0.3707 -0.0026
   70CHL1   H4B 7593   6.038   4.529   7.255  0.7189  0.5432 -2.9887
   70CHL1    C5 7594   6.187   4.601   7.410  0.1059  0.3041 -0.2507
   70CHL1    C6 7595   6.137   4.529   7.508  0.8788  0.0461 -0.7664
   70CHL1    H6 7596   6.041   4.478   7.488 -0.1594  2.2783 -1.8129
   70CHL1    C7 7597   6.181   4.525   7.649  0.3612  0.1002  0.2008
   70CHL1   H7A 7598   6.087   4.537   7.707 -1.1028 -0.0179 -2.0154
   70CHL1   H7B 7599   6.226   4.426   7.672  2.0749  0.6386 -0.6176
   70CHL1    C8 7600   6.287   4.633   7.675 -1.1001 -0.2527  1.3084
   70CHL1    H8 7601   6.243   4.735   7.682  2.2230  1.4956 -0.9166
   70CHL1   C14 7602   6.362   4.613   7.808 -0.8071 -0.4554  0.0898
   70CHL1   H14 7603   6.410   4.515   7.789  0.7952  0.4911 -0.9955
   70CHL1   C15 7604   6.266   4.616   7.924 -0.6774 -0.1087  0.9280
   70CHL1  H15A 7605   6.188   4.695   7.914 -3.1556 -2.4120  0.8877
   70CHL1  H15B 7606   6.213   4.519   7.932 -0.9383 -0.2516 -1.8323
   70CHL1   C16 7607   6.360   4.642   8.046 -0.1177  0.0019 -0.3332
   70CHL1  H16A 7608   6.325   4.732   8.101  1.3340  1.2465 -1.3801
   70CHL1  H16B 7609   6.369   4.555   8.114  0.1402  1.1841  1.1911
   70CHL1   C17 7610   6.502   4.669   7.987  0.0495  0.2970  0.5644
   70CHL1   H17 7611   6.554   4.571   7.983 -0.8574 -0.2046  0.6022
   70CHL1   C13 7612   6.475   4.714   7.845  0.7275  0.6026  0.5546
   70CHL1   C18 7613   6.416   4.860   7.842  0.2173 -0.2404 -1.0223
   70CHL1  H18A 7614   6.480   4.943   7.878 -0.0838 -1.0717  1.7107
   70CHL1  H18B 7615   6.381   4.889   7.741  1.0569  1.6371 -0.8012
   70CHL1  H18C 7616   6.325   4.875   7.904  0.1593  1.5318 -1.5053
   70CHL1   C12 7617   6.579   4.700   7.735 -0.1798 -0.0901 -0.0398
   70CHL1  H12A 7618   6.669   4.764   7.750 -0.1740  0.1733 -1.0828
   70CHL1  H12B 7619   6.621   4.598   7.742  0.4943  0.1909  0.1099
   70CHL1   C11 7620   6.526   4.720   7.591  0.7036 -0.6541 -0.0163
   70CHL1  H11A 7621   6.495   4.825   7.575  0.0461 -0.8553 -0.0996
   70CHL1  H11B 7622   6.601   4.687   7.516  0.6577  0.0517 -0.3841
   70CHL1    C9 7623   6.398   4.637   7.566 -0.0506  0.8837 -0.2710
   70CHL1    H9 7624   6.434   4.532   7.553 -0.0049  0.6716  1.4036
   70CHL1   C10 7625   6.323   4.672   7.435  0.6837  0.1645  0.2966
   70CHL1   C19 7626   6.282   4.830   7.433  0.6795 -0.1902 -0.7738
   70CHL1  H19A 7627   6.235   4.840   7.332 -0.4852 -0.7745 -0.3071
   70CHL1  H19B 7628   6.209   4.863   7.511  0.9973  1.3138 -1.0717
   70CHL1  H19C 7629   6.374   4.892   7.424  0.0558  1.0204  0.7692
   70CHL1    C1 7630   6.421   4.648   7.315 -0.2036  0.1711  0.1756
   70CHL1   H1A 7631   6.501   4.724   7.317 -0.6819  0.6688  2.0680
   70CHL1   H1B 7632   6.461   4.545   7.330  0.9337  0.5005 -0.4952
   70CHL1    C2 7633   6.358   4.638   7.179  0.6949  0.1855  0.3103
   70CHL1   H2A 7634   6.424   4.588   7.104 -1.1155  1.2570 -2.1269
   70CHL1   H2B 7635   6.317   4.734   7.142 -0.8873 -0.3307  0.6819
   70CHL1   C20 7636   6.580   4.758   8.093  0.7001  0.1306  0.2153
   70CHL1   H20 7637   6.533   4.859   8.094 -1.2737 -0.7548  0.4423
   70CHL1   C21 7638   6.721   4.776   8.036 -0.0216  0.5802  0.0530
   70CHL1  H21A 7639   6.770   4.680   8.008 -2.4365 -0.7622  0.1356
   70CHL1  H21B 7640   6.785   4.826   8.111 -1.4406 -0.8518  2.3621
   70CHL1  H21C 7641   6.714   4.840   7.946 -1.0277  1.1676  0.5383
   70CHL1   C22 7642   6.573   4.716   8.243  0.5321  0.4390 -0.2504
   70CHL1  H22A 7643   6.607   4.796   8.313 -3.1625 -0.1149  2.4588
   70CHL1  H22B 7644   6.464   4.720   8.266  0.5158  0.3883 -0.3175
   70CHL1   C23 7645   6.634   4.577   8.272  1.2363 -0.7097 -0.4568
   70CHL1  H23A 7646   6.596   4.505   8.196 -1.1601  1.2519 -1.2544
   70CHL1  H23B 7647   6.745   4.584   8.275  1.1734  1.3287 -1.2714
   70CHL1   C24 7648   6.573   4.519   8.402 -0.3128  0.3825 -0.5871
   70CHL1  H24A 7649   6.463   4.530   8.405 -0.6358 -2.2407 -0.3836
   70CHL1  H24B 7650   6.578   4.409   8.392  0.6884  0.4117 -0.4936
   70CHL1   C25 7651   6.639   4.543   8.540  0.3823 -0.0002 -0.1283
   70CHL1   H25 7652   6.582   4.480   8.612 -0.7476  0.2520 -0.7594
   70CHL1   C26 7653   6.781   4.486   8.537  0.4354  0.1402  0.2065
   70CHL1  H26A 7654   6.831   4.517   8.631 -1.4493  1.0657  0.9425
   70CHL1  H26B 7655   6.774   4.378   8.509 -0.0099  0.4945 -1.1121
   70CHL1  H26C 7656   6.836   4.527   8.450 -2.3816  1.4203 -1.1036
   70CHL1   C27 7657   6.620   4.690   8.592 -0.5459  0.1678 -0.7006
   70CHL1  H27A 7658   6.513   4.719   8.604 -0.2066  0.9090  0.6911
   70CHL1  H27B 7659   6.663   4.688   8.694 -1.7180  0.7879 -0.1672
   70CHL1  H27C 7660   6.672   4.758   8.521  1.4106 -0.5570 -0.0005
   71CHL1    C3 7661   6.430   6.642   6.915 -0.2752 -0.2534  0.3822
   71CHL1    H3 7662   6.332   6.672   6.957  0.0373  3.5741 -1.2526
   71CHL1    O3 7663   6.438   6.649   6.774  0.1182  0.5493 -0.2642
   71CHL1   H3' 7664   6.481   6.565   6.754  0.3258 -0.4391  3.5937
   71CHL1    C4 7665   6.542   6.733   6.974  0.1244  0.0270 -0.3229
   71CHL1   H4A 7666   6.640   6.697   6.936  0.3984 -0.1426  0.5212
   71CHL1   H4B 7667   6.529   6.835   6.932  2.7644 -0.2818 -2.1934
   71CHL1    C5 7668   6.537   6.723   7.124  0.2096 -0.1009  0.4917
   71CHL1    C6 7669   6.507   6.840   7.186  0.1103  0.3459  0.4663
   71CHL1    H6 7670   6.498   6.935   7.132  0.5042 -0.9843 -2.0850
   71CHL1    C7 7671   6.507   6.838   7.338  0.2452 -0.1309  0.3923
   71CHL1   H7A 7672   6.559   6.932   7.368 -0.4924  0.5745 -0.4659
   71CHL1   H7B 7673   6.402   6.843   7.372  0.0883 -0.1108 -0.0827
   71CHL1    C8 7674   6.569   6.716   7.402  0.1793 -0.7281  0.1710
   71CHL1    H8 7675   6.677   6.716   7.376 -0.4793 -2.5350 -3.0895
   71CHL1   C14 7676   6.556   6.722   7.557  0.0224  0.0954  0.0985
   71CHL1   H14 7677   6.445   6.718   7.563 -0.0366 -1.3679 -1.2626
   71CHL1   C15 7678   6.593   6.853   7.623 -0.3547  0.1301 -0.0169
   71CHL1  H15A 7679   6.689   6.891   7.581  0.4146 -3.0546 -1.5160
   71CHL1  H15B 7680   6.523   6.935   7.599 -0.2596  0.1507 -0.2243
   71CHL1   C16 7681   6.610   6.818   7.772  1.5762  0.0234  0.0434
   71CHL1  H16A 7682   6.714   6.842   7.804  1.2110  0.5335  0.8823
   71CHL1  H16B 7683   6.536   6.869   7.838 -0.5942 -1.9533 -0.6963
   71CHL1   C17 7684   6.579   6.669   7.776 -0.7934 -0.7361 -0.1320
   71CHL1   H17 7685   6.468   6.673   7.783 -0.8176 -0.3941 -0.6863
   71CHL1   C13 7686   6.612   6.608   7.636  0.6583  0.4279  0.6383
   71CHL1   C18 7687   6.764   6.582   7.623 -0.6062 -0.7136 -0.5477
   71CHL1  H18A 7688   6.792   6.489   7.677 -2.4309 -0.1813  1.5000
   71CHL1  H18B 7689   6.794   6.561   7.519 -0.9001 -1.6022 -0.4620
   71CHL1  H18C 7690   6.824   6.668   7.661 -3.6649  0.2297  2.6891
   71CHL1   C12 7691   6.530   6.485   7.584 -0.1723  0.2907 -0.1312
   71CHL1  H12A 7692   6.572   6.400   7.642  0.9133  1.6169  1.1302
   71CHL1  H12B 7693   6.421   6.493   7.605  0.1203 -0.1716  1.7094
   71CHL1   C11 7694   6.549   6.464   7.428 -0.0105 -0.1067 -0.1252
   71CHL1  H11A 7695   6.656   6.432   7.427 -0.1701 -0.6603 -0.6556
   71CHL1  H11B 7696   6.503   6.366   7.401  0.9893 -0.4017 -0.8480
   71CHL1    C9 7697   6.517   6.591   7.344  0.5793  0.4220 -0.0981
   71CHL1    H9 7698   6.406   6.601   7.344  0.6790  1.8325  0.1555
   71CHL1   C10 7699   6.548   6.585   7.190  0.4959  0.0330 -0.5272
   71CHL1   C19 7700   6.699   6.541   7.170  0.9196 -0.6788 -0.3855
   71CHL1  H19A 7701   6.781   6.611   7.195 -0.7111  0.7747  1.1708
   71CHL1  H19B 7702   6.718   6.453   7.235  2.0559 -0.5154 -0.4694
   71CHL1  H19C 7703   6.711   6.525   7.061 -0.9687  3.0715 -1.3156
   71CHL1    C1 7704   6.461   6.477   7.111  0.6532 -0.4470  0.4246
   71CHL1   H1A 7705   6.498   6.384   7.158  0.8538  0.1722  1.5363
   71CHL1   H1B 7706   6.358   6.489   7.151  1.0880  2.6561  0.8977
   71CHL1    C2 7707   6.459   6.501   6.955 -0.1924  0.5371  0.7408
   71CHL1   H2A 7708   6.384   6.430   6.913 -1.0831  0.7623  1.9149
   71CHL1   H2B 7709   6.559   6.471   6.916 -1.1318 -2.6065  0.4457
   71CHL1   C20 7710   6.639   6.598   7.898  0.3120  0.6434  0.1684
   71CHL1   H20 7711   6.652   6.498   7.850 -2.2753  0.7053 -0.8518
   71CHL1   C21 7712   6.528   6.595   8.009  0.2487 -0.1232  0.1066
   71CHL1  H21A 7713   6.547   6.509   8.076  1.5555 -0.4424 -0.6374
   71CHL1  H21B 7714   6.430   6.576   7.961  0.6839 -0.5730 -0.6332
   71CHL1  H21C 7715   6.525   6.687   8.071 -0.4912  1.5498 -2.2851
   71CHL1   C22 7716   6.784   6.640   7.954  0.9937  0.2315 -0.0478
   71CHL1  H22A 7717   6.851   6.650   7.866 -0.4841 -0.5850 -1.3220
   71CHL1  H22B 7718   6.768   6.740   8.001  0.0239  0.1784 -0.2361
   71CHL1   C23 7719   6.853   6.549   8.060  0.5949 -0.2980  0.2697
   71CHL1  H23A 7720   6.792   6.535   8.152  0.4208 -3.4903 -0.2232
   71CHL1  H23B 7721   6.875   6.453   8.010  0.6576 -0.2497  0.2025
   71CHL1   C24 7722   6.988   6.618   8.108  0.1482 -0.1937  0.4357
   71CHL1  H24A 7723   7.060   6.608   8.024 -1.8267 -1.4935 -1.2052
   71CHL1  H24B 7724   6.962   6.722   8.137 -0.4371 -0.5126  1.0931
   71CHL1   C25 7725   7.064   6.551   8.225  0.9314 -1.0406  0.1751
   71CHL1   H25 7726   7.148   6.622   8.243 -1.4733  2.2940 -0.6907
   71CHL1   C26 7727   6.978   6.554   8.351 -0.2845 -0.1183  0.1902
   71CHL1  H26A 7728   6.887   6.491   8.348  0.4223 -1.3132  1.9056
   71CHL1  H26B 7729   7.039   6.513   8.435  1.4770  2.4695  0.2963
   71CHL1  H26C 7730   6.963   6.659   8.384 -0.4538 -0.3761  0.9706
   71CHL1   C27 7731   7.105   6.403   8.192  0.1741 -0.6489  0.3859
   71CHL1  H27A 7732   7.175   6.358   8.265  0.2897 -2.5616 -0.8201
   71CHL1  H27B 7733   7.015   6.338   8.186  0.2312 -0.6504 -0.7686
   71CHL1  H27C 7734   7.144   6.399   8.088 -1.4964  3.8055 -0.6577
   72CHL1    C3 7735   0.387   5.123   6.895  0.3532  0.3104  0.7657
   72CHL1    H3 7736   0.387   5.234   6.893 -0.1312  0.3095  0.7077
   72CHL1    O3 7737   0.350   5.052   6.777  0.1579  0.9677  0.8152
   72CHL1   H3' 7738   0.268   5.009   6.799  0.1691  0.1953 -0.5781
   72CHL1    C4 7739   0.524   5.072   6.927  0.0741  0.5205  0.3109
   72CHL1   H4A 7740   0.518   4.961   6.927 -0.4195  0.5397 -0.3977
   72CHL1   H4B 7741   0.592   5.104   6.845  0.3807 -0.1098  0.3171
   72CHL1    C5 7742   0.561   5.135   7.064 -0.5123  0.3601  0.6711
   72CHL1    C6 7743   0.674   5.205   7.071 -0.3807  0.3253  0.7271
   72CHL1    H6 7744   0.743   5.203   6.985 -1.3586 -1.9037 -0.0713
   72CHL1    C7 7745   0.721   5.282   7.188  0.3494 -0.0139 -0.3279
   72CHL1   H7A 7746   0.826   5.260   7.217  1.0943  2.5465 -0.8484
   72CHL1   H7B 7747   0.729   5.391   7.167 -1.4708  0.1427 -0.3456
   72CHL1    C8 7748   0.644   5.254   7.320  0.2550 -0.6540  0.4307
   72CHL1    H8 7749   0.680   5.156   7.357  0.6805 -0.6486  0.0410
   72CHL1   C14 7750   0.667   5.354   7.434  0.7682  0.2534  0.2752
   72CHL1   H14 7751   0.631   5.448   7.387 -1.5621 -0.3897  0.6348
   72CHL1   C15 7752   0.815   5.375   7.477 -0.3800  0.1281 -0.3089
   72CHL1  H15A 7753   0.869   5.280   7.494 -2.8042 -0.9275  2.3391
   72CHL1  H15B 7754   0.875   5.424   7.397  0.6965 -2.9016 -1.4760
   72CHL1   C16 7755   0.799   5.447   7.612  0.3450  0.7092  0.1033
   72CHL1  H16A 7756   0.853   5.388   7.689 -0.4458  0.0489  0.1635
   72CHL1  H16B 7757   0.845   5.548   7.606  0.4462  0.7887  1.7511
   72CHL1   C17 7758   0.646   5.461   7.636 -0.2355  0.5076 -0.5612
   72CHL1   H17 7759   0.619   5.555   7.585 -1.5144  1.7195  2.1585
   72CHL1   C13 7760   0.584   5.339   7.557 -0.5022 -0.0790  0.8255
   72CHL1   C18 7761   0.613   5.204   7.619  0.7965  0.3783  0.1298
   72CHL1  H18A 7762   0.542   5.180   7.701  1.0126  1.6491  0.7243
   72CHL1  H18B 7763   0.598   5.124   7.544 -0.2470  1.0401 -0.3864
   72CHL1  H18C 7764   0.713   5.190   7.666  1.0216  0.2109 -0.3888
   72CHL1   C12 7765   0.432   5.342   7.520 -0.8274  0.1430  0.1991
   72CHL1  H12A 7766   0.383   5.323   7.618  2.4829 -3.5960  1.4061
   72CHL1  H12B 7767   0.410   5.443   7.480 -4.0963 -0.2387  0.7015
   72CHL1   C11 7768   0.397   5.241   7.408  0.7562 -0.2009  0.3707
   72CHL1  H11A 7769   0.407   5.139   7.452  2.2211  0.7327  2.3580
   72CHL1  H11B 7770   0.291   5.255   7.379  0.4209 -2.6873  0.1594
   72CHL1    C9 7771   0.491   5.240   7.285  0.4503 -0.8359 -0.4293
   72CHL1    H9 7772   0.464   5.333   7.231 -1.8646 -0.4857  1.1894
   72CHL1   C10 7773   0.458   5.131   7.176 -0.1196 -0.2710 -0.1938
   72CHL1   C19 7774   0.457   4.988   7.241  0.6637  0.0207 -0.2540
   72CHL1  H19A 7775   0.550   4.975   7.301  0.7559  0.1366 -0.3748
   72CHL1  H19B 7776   0.368   4.972   7.307  0.8292  0.3951  0.0608
   72CHL1  H19C 7777   0.453   4.909   7.163 -0.6494 -1.3392  1.0894
   72CHL1    C1 7778   0.316   5.161   7.121 -0.5469  0.5809  0.5729
   72CHL1   H1A 7779   0.235   5.131   7.191 -0.7711  0.0663  0.0928
   72CHL1   H1B 7780   0.303   5.271   7.109  4.1340  1.1385 -1.6840
   72CHL1    C2 7781   0.275   5.087   6.996 -0.5958 -0.8650 -0.0227
   72CHL1   H2A 7782   0.186   5.142   6.956 -1.1074 -0.0036  2.1585
   72CHL1   H2B 7783   0.252   4.979   7.007 -2.2772 -0.5755 -0.3776
   72CHL1   C20 7784   0.602   5.470   7.787  0.0855 -0.9159 -1.5209
   72CHL1   H20 7785   0.496   5.440   7.800 -0.7361  2.5642  1.6157
   72CHL1   C21 7786   0.599   5.624   7.823  0.1612  0.5664 -0.7299
   72CHL1  H21A 7787   0.557   5.642   7.924  0.5753 -0.7233 -0.3061
   72CHL1  H21B 7788   0.532   5.683   7.757 -0.3439  3.4650  2.1442
   72CHL1  H21C 7789   0.700   5.670   7.817 -0.4279  2.5946  2.3996
   72CHL1   C22 7790   0.670   5.381   7.889  0.3950 -0.1943 -0.5830
   72CHL1  H22A 7791   0.677   5.276   7.855  0.0896 -0.9953  1.6189
   72CHL1  H22B 7792   0.771   5.420   7.915  0.4848 -0.8641  0.1035
   72CHL1   C23 7793   0.593   5.367   8.023  0.3591 -0.0238  0.2686
   72CHL1  H23A 7794   0.552   5.466   8.048 -1.9875 -0.1853 -2.4487
   72CHL1  H23B 7795   0.502   5.306   8.006 -0.9964  2.1494 -0.7235
   72CHL1   C24 7796   0.659   5.294   8.140  0.0034 -0.5989 -0.0678
   72CHL1  H24A 7797   0.640   5.185   8.131 -0.1354 -0.4417 -1.9402
   72CHL1  H24B 7798   0.768   5.317   8.144 -0.1879  0.6189 -1.0148
   72CHL1   C25 7799   0.613   5.344   8.275  0.1668  0.1317  0.3332
   72CHL1   H25 7800   0.685   5.297   8.345  0.0777  0.5712  0.7270
   72CHL1   C26 7801   0.618   5.497   8.310 -0.0869 -0.0748  0.0628
   72CHL1  H26A 7802   0.586   5.527   8.412 -0.4660  1.2983 -0.4426
   72CHL1  H26B 7803   0.725   5.526   8.304 -0.1133 -0.1301 -0.8398
   72CHL1  H26C 7804   0.568   5.559   8.232  3.3616 -0.2800 -2.5593
   72CHL1   C27 7805   0.470   5.278   8.315  0.4300 -0.6059  0.1544
   72CHL1  H27A 7806   0.462   5.168   8.299 -0.5830 -1.0069  2.8522
   72CHL1  H27B 7807   0.462   5.298   8.424  1.1103 -0.5234  0.1897
   72CHL1  H27C 7808   0.392   5.337   8.261 -0.6760  0.1310  2.4305
   73CHL1    C3 7809   5.769   6.651   6.977 -0.1190 -0.0304  0.6347
   73CHL1    H3 7810   5.664   6.634   7.009 -0.6851  0.3765 -0.9237
   73CHL1    O3 7811   5.763   6.648   6.832 -0.1983  0.0005 -0.4761
   73CHL1   H3' 7812   5.680   6.624   6.790 -0.2308  0.8923 -0.9456
   73CHL1    C4 7813   5.823   6.785   7.023  0.1765 -0.5503  0.1152
   73CHL1   H4A 7814   5.925   6.796   6.981  0.8564  0.2445  1.9027
   73CHL1   H4B 7815   5.756   6.867   6.990 -0.8227 -1.1047  0.7187
   73CHL1    C5 7816   5.832   6.794   7.175  0.1406  0.4122  0.6314
   73CHL1    C6 7817   5.769   6.877   7.255  0.2392 -0.0508 -0.4011
   73CHL1    H6 7818   5.708   6.959   7.213 -1.5829 -0.5673  1.1266
   73CHL1    C7 7819   5.785   6.892   7.405  0.1201  0.1291  0.0457
   73CHL1   H7A 7820   5.792   6.998   7.437  0.9367 -0.0873  0.6155
   73CHL1   H7B 7821   5.699   6.848   7.460  0.4466  0.1772  0.6005
   73CHL1    C8 7822   5.901   6.808   7.455  0.0718 -0.3034  0.5830
   73CHL1    H8 7823   5.995   6.861   7.427 -1.0405  0.3464 -2.2884
   73CHL1   C14 7824   5.904   6.796   7.613  0.4401  0.6437 -0.1608
   73CHL1   H14 7825   5.810   6.738   7.627 -0.4408  1.3272 -2.8042
   73CHL1   C15 7826   5.887   6.924   7.703  0.6956  0.6055  0.3375
   73CHL1  H15A 7827   5.964   7.002   7.685  0.6832  0.5433  0.0077
   73CHL1  H15B 7828   5.791   6.977   7.682 -0.6519 -0.4219  3.2877
   73CHL1   C16 7829   5.911   6.867   7.847 -0.3039  0.1047  0.3355
   73CHL1  H16A 7830   5.980   6.938   7.898  0.3644 -1.0759  1.1102
   73CHL1  H16B 7831   5.816   6.863   7.905 -1.2831  2.2278 -1.0053
   73CHL1   C17 7832   5.971   6.722   7.831 -0.1973 -0.0926  0.1393
   73CHL1   H17 7833   5.884   6.655   7.841  0.2045 -0.6048  0.2581
   73CHL1   C13 7834   6.013   6.710   7.681  0.5141 -1.5040  0.8354
   73CHL1   C18 7835   6.152   6.788   7.663  0.5559  0.2187  0.7686
   73CHL1  H18A 7836   6.224   6.728   7.722 -0.1921  0.9574  2.4892
   73CHL1  H18B 7837   6.180   6.797   7.555 -2.1981  5.2540  0.1476
   73CHL1  H18C 7838   6.155   6.893   7.699  1.6537  0.3438  0.3424
   73CHL1   C12 7839   6.010   6.573   7.613  0.4304 -0.0539  0.7720
   73CHL1  H12A 7840   6.097   6.515   7.653  0.3369 -0.1946  0.7738
   73CHL1  H12B 7841   5.913   6.527   7.643 -0.7009  2.1710  0.7477
   73CHL1   C11 7842   6.016   6.574   7.458  0.2567 -0.1738 -0.4923
   73CHL1  H11A 7843   6.112   6.609   7.413 -1.9323  4.8270 -1.9947
   73CHL1  H11B 7844   5.985   6.474   7.421 -0.0169  0.6273 -2.5350
   73CHL1    C9 7845   5.914   6.670   7.389 -0.3248 -0.0498 -1.0431
   73CHL1    H9 7846   5.813   6.630   7.408 -0.6733  1.1242 -0.3112
   73CHL1   C10 7847   5.925   6.682   7.236  0.4800  0.3089 -0.0689
   73CHL1   C19 7848   6.071   6.724   7.195 -0.1933 -0.2165 -0.1104
   73CHL1  H19A 7849   6.078   6.726   7.084  0.8412 -1.0658 -0.0775
   73CHL1  H19B 7850   6.117   6.814   7.242  3.0762 -3.1514  2.8933
   73CHL1  H19C 7851   6.134   6.638   7.227  0.7296  0.8326  0.9656
   73CHL1    C1 7852   5.889   6.539   7.175  0.0270 -0.4085  0.2495
   73CHL1   H1A 7853   5.963   6.458   7.193  0.2721 -0.2721 -0.1376
   73CHL1   H1B 7854   5.791   6.506   7.216  0.7441 -1.4315  1.2046
   73CHL1    C2 7855   5.856   6.536   7.023  0.1948 -0.4713  0.1061
   73CHL1   H2A 7856   5.816   6.437   6.992 -0.1679 -0.6212  1.0156
   73CHL1   H2B 7857   5.952   6.563   6.974 -0.7480  2.1061 -0.5135
   73CHL1   C20 7858   6.067   6.690   7.941 -0.3245  0.7156 -0.7741
   73CHL1   H20 7859   6.148   6.765   7.953  0.5974 -0.6010  2.4729
   73CHL1   C21 7860   6.146   6.554   7.925 -0.2385 -0.4647 -0.1675
   73CHL1  H21A 7861   6.198   6.541   8.023 -2.8831 -0.8799  1.2932
   73CHL1  H21B 7862   6.219   6.562   7.842 -2.2194  1.9139 -1.8323
   73CHL1  H21C 7863   6.078   6.466   7.917 -1.4398 -0.2977  4.9315
   73CHL1   C22 7864   6.001   6.698   8.085 -0.0036 -0.2760 -0.4678
   73CHL1  H22A 7865   5.930   6.784   8.086  0.0490 -0.2343 -0.2013
   73CHL1  H22B 7866   5.941   6.604   8.090  1.7687 -1.3853  1.5590
   73CHL1   C23 7867   6.098   6.701   8.205  0.0219  0.2687  0.2554
   73CHL1  H23A 7868   6.040   6.698   8.299 -0.8749  1.7230 -0.2311
   73CHL1  H23B 7869   6.157   6.607   8.194 -1.4526 -0.4537 -2.3549
   73CHL1   C24 7870   6.178   6.826   8.209 -0.3979 -0.0627 -0.2268
   73CHL1  H24A 7871   6.276   6.811   8.159 -0.0414  0.6109  0.2581
   73CHL1  H24B 7872   6.125   6.913   8.164 -1.4787 -0.9990 -0.8149
   73CHL1   C25 7873   6.205   6.867   8.358 -0.8830 -0.4390 -0.3260
   73CHL1   H25 7874   6.245   6.781   8.416  1.1533  1.8762  1.9149
   73CHL1   C26 7875   6.314   6.975   8.364 -0.6986 -0.1461 -0.2339
   73CHL1  H26A 7876   6.284   7.058   8.296 -2.6036 -2.0588 -1.8967
   73CHL1  H26B 7877   6.336   7.012   8.466 -2.0089  1.1308 -0.3772
   73CHL1  H26C 7878   6.406   6.933   8.318 -0.2473  0.6042 -0.0182
   73CHL1   C27 7879   6.087   6.931   8.431 -0.2580  0.8059  0.7241
   73CHL1  H27A 7880   6.006   6.856   8.422  1.9531 -1.7225  0.4873
   73CHL1  H27B 7881   6.123   6.937   8.536 -1.0119 -0.3914  1.0748
   73CHL1  H27C 7882   6.066   7.029   8.384 -0.9352  0.0500 -0.6132
   74CHL1    C3 7883   5.006   6.146   6.943 -0.4816  0.2396  0.1250
   74CHL1    H3 7884   5.070   6.232   6.914  0.5653 -0.4689  0.2575
   74CHL1    O3 7885   4.957   6.086   6.828  0.3290  0.3521  0.5598
   74CHL1   H3' 7886   4.939   5.996   6.855 -0.1150  0.3132  0.1563
   74CHL1    C4 7887   5.104   6.048   7.012 -0.8677  0.3961  0.0960
   74CHL1   H4A 7888   5.055   5.949   7.028 -0.5937  0.2571  0.0756
   74CHL1   H4B 7889   5.196   6.039   6.951  0.4611 -1.1997  2.1978
   74CHL1    C5 7890   5.149   6.092   7.150  0.2234  0.0012 -0.0741
   74CHL1    C6 7891   5.274   6.088   7.189  0.3829  1.0004  0.5536
   74CHL1    H6 7892   5.336   6.058   7.103  0.9879  2.0479  0.6102
   74CHL1    C7 7893   5.331   6.107   7.324  0.0162 -0.3654 -0.1165
   74CHL1   H7A 7894   5.403   6.029   7.355 -2.4175 -3.0949 -0.8773
   74CHL1   H7B 7895   5.383   6.203   7.343 -2.5129  1.0118  0.3506
   74CHL1    C8 7896   5.207   6.092   7.426 -0.7579 -0.2652 -0.1778
   74CHL1    H8 7897   5.173   5.987   7.420  1.1259 -0.8896 -0.7538
   74CHL1   C14 7898   5.251   6.141   7.562  0.6007  0.7412  0.0339
   74CHL1   H14 7899   5.274   6.249   7.555  2.4509  0.4250  0.7207
   74CHL1   C15 7900   5.382   6.083   7.618 -0.0012 -0.3817  0.5293
   74CHL1  H15A 7901   5.384   5.973   7.602 -0.6780 -0.2334 -0.6750
   74CHL1  H15B 7902   5.480   6.111   7.574 -0.7888  1.2018 -0.3234
   74CHL1   C16 7903   5.366   6.108   7.773  0.0552  0.5632 -0.0695
   74CHL1  H16A 7904   5.369   6.009   7.823 -0.4918  0.3385 -0.4760
   74CHL1  H16B 7905   5.448   6.175   7.808  0.4692 -1.0557  2.3295
   74CHL1   C17 7906   5.227   6.175   7.793 -0.1367  0.2111 -0.4912
   74CHL1   H17 7907   5.238   6.285   7.777 -1.0743  0.2781 -0.7071
   74CHL1   C13 7908   5.143   6.135   7.673 -0.2235  0.3708 -0.6355
   74CHL1   C18 7909   5.093   5.985   7.684 -0.0055  0.2706  0.1835
   74CHL1  H18A 7910   5.007   5.979   7.754 -1.3050  1.7835 -1.2064
   74CHL1  H18B 7911   5.064   5.941   7.586  0.4900  0.0133  0.1493
   74CHL1  H18C 7912   5.175   5.922   7.725 -0.1850 -1.6237 -2.1213
   74CHL1   C12 7913   5.027   6.230   7.631  0.4785 -0.5651  0.3573
   74CHL1  H12A 7914   4.942   6.216   7.702 -1.1115  0.8440 -1.1777
   74CHL1  H12B 7915   5.062   6.335   7.627  0.7205 -0.5970  1.3831
   74CHL1   C11 7916   4.982   6.195   7.485  0.4539 -0.2264 -0.5696
   74CHL1  H11A 7917   4.912   6.110   7.491  1.1929 -0.8099 -0.0442
   74CHL1  H11B 7918   4.926   6.288   7.462 -1.2650 -1.2671 -0.7475
   74CHL1    C9 7919   5.085   6.182   7.371  0.3340 -0.0424 -0.0854
   74CHL1    H9 7920   5.123   6.285   7.352  1.1478 -0.1429  0.9164
   74CHL1   C10 7921   5.035   6.133   7.237 -0.1705 -0.3851 -0.6035
   74CHL1   C19 7922   4.936   6.021   7.266 -0.9851  0.1978  0.1868
   74CHL1  H19A 7923   4.842   6.077   7.286  0.5324  4.0936 -2.3571
   74CHL1  H19B 7924   4.908   5.952   7.184  1.5971  0.6143 -1.1763
   74CHL1  H19C 7925   4.964   5.953   7.349 -3.3836  0.2443  1.1121
   74CHL1    C1 7926   4.955   6.246   7.167 -0.2084  0.5069 -0.1595
   74CHL1   H1A 7927   4.878   6.286   7.237  0.1318 -3.8510  3.1010
   74CHL1   H1B 7928   5.021   6.332   7.143  0.9134 -0.0516  0.8357
   74CHL1    C2 7929   4.894   6.194   7.034 -0.5984 -0.4199  0.0332
   74CHL1   H2A 7930   4.839   6.267   6.971  0.7822  0.4671 -0.1816
   74CHL1   H2B 7931   4.824   6.109   7.049  1.7724 -2.9865 -2.2640
   74CHL1   C20 7932   5.159   6.159   7.934 -0.2779  0.5272  0.0095
   74CHL1   H20 7933   5.129   6.052   7.940 -1.7504  0.7355 -2.2823
   74CHL1   C21 7934   5.032   6.249   7.961  0.2662  0.4238  1.0412
   74CHL1  H21A 7935   5.065   6.350   7.928  1.4967 -0.4547 -0.5424
   74CHL1  H21B 7936   4.993   6.247   8.065 -3.2997  1.5719 -0.1400
   74CHL1  H21C 7937   4.945   6.217   7.900  0.8891  0.4689  0.1140
   74CHL1   C22 7938   5.260   6.186   8.048 -0.7173 -0.5058 -0.0662
   74CHL1  H22A 7939   5.351   6.129   8.021  0.7421  1.9152 -0.5389
   74CHL1  H22B 7940   5.279   6.296   8.052 -1.6180 -0.2392 -1.8190
   74CHL1   C23 7941   5.232   6.138   8.193 -0.1490 -0.4139 -0.2293
   74CHL1  H23A 7942   5.134   6.170   8.233 -0.1460 -1.9454  1.1253
   74CHL1  H23B 7943   5.218   6.028   8.204 -0.1161 -0.3316  0.6984
   74CHL1   C24 7944   5.339   6.194   8.292 -0.1912  0.2088  0.5737
   74CHL1  H24A 7945   5.424   6.141   8.244 -2.2440 -0.9437 -2.0783
   74CHL1  H24B 7946   5.347   6.304   8.277  3.3285 -0.1603 -1.3139
   74CHL1   C25 7947   5.326   6.158   8.443  0.0246  0.4307  0.0515
   74CHL1   H25 7948   5.330   6.048   8.458  3.5523  0.6191  1.4851
   74CHL1   C26 7949   5.458   6.217   8.502 -0.0249 -0.0736 -0.3577
   74CHL1  H26A 7950   5.465   6.191   8.609 -0.3493  0.2180 -0.2642
   74CHL1  H26B 7951   5.543   6.174   8.444 -0.6248  0.5893 -1.7832
   74CHL1  H26C 7952   5.452   6.326   8.480 -1.1417  0.1992  1.1952
   74CHL1   C27 7953   5.204   6.216   8.508  0.0103 -0.1471 -0.7291
   74CHL1  H27A 7954   5.118   6.184   8.445  0.9790 -0.0317 -2.1634
   74CHL1  H27B 7955   5.193   6.181   8.613  0.9143  1.3045 -0.1104
   74CHL1  H27C 7956   5.214   6.327   8.510 -1.0022 -0.0384 -1.0071
   75CHL1    C3 7957   2.290   0.274   6.926  0.3925  0.3417  0.3795
   75CHL1    H3 7958   2.189   0.320   6.921  0.5496  0.5044 -2.3105
   75CHL1    O3 7959   2.341   0.254   6.797  0.5116 -0.0457  0.2484
   75CHL1   H3' 7960   2.320   0.164   6.770  2.6144 -0.4142 -0.3101
   75CHL1    C4 7961   2.390   0.357   6.992  0.0713 -0.0287 -0.1803
   75CHL1   H4A 7962   2.485   0.300   6.980 -0.2544 -0.2471 -1.8602
   75CHL1   H4B 7963   2.388   0.455   6.941  2.0846 -1.0364 -2.3914
   75CHL1    C5 7964   2.363   0.378   7.141  0.1870  0.5956  0.0665
   75CHL1    C6 7965   2.354   0.497   7.198  0.6366 -0.5165  0.0656
   75CHL1    H6 7966   2.380   0.590   7.146  1.0406 -0.4665  0.3546
   75CHL1    C7 7967   2.327   0.528   7.344 -0.4481  0.1912  0.2026
   75CHL1   H7A 7968   2.402   0.598   7.385  1.8372 -0.9456 -1.7884
   75CHL1   H7B 7969   2.227   0.574   7.362  0.0290  1.9544 -1.3517
   75CHL1    C8 7970   2.334   0.400   7.434  0.2919 -0.3138  0.6580
   75CHL1    H8 7971   2.438   0.365   7.452  0.3387 -1.0542 -0.8673
   75CHL1   C14 7972   2.264   0.424   7.572  0.4853  0.2867  0.3894
   75CHL1   H14 7973   2.159   0.444   7.542  0.4009 -0.5935  0.0761
   75CHL1   C15 7974   2.320   0.539   7.659  0.1008  0.1057  0.3999
   75CHL1  H15A 7975   2.430   0.547   7.649  0.0422 -0.0682 -0.5142
   75CHL1  H15B 7976   2.267   0.633   7.631  2.2924  0.7188 -2.1136
   75CHL1   C16 7977   2.288   0.497   7.801 -0.3150  0.4572  0.0225
   75CHL1  H16A 7978   2.378   0.466   7.858 -0.6885 -1.5360 -0.3923
   75CHL1  H16B 7979   2.220   0.571   7.848 -1.3794 -0.2888 -0.2975
   75CHL1   C17 7980   2.200   0.367   7.791 -0.0531  0.1538  0.8848
   75CHL1   H17 7981   2.095   0.391   7.761  0.8017  0.1636 -2.4719
   75CHL1   C13 7982   2.266   0.299   7.664  0.4356  0.4492 -0.0846
   75CHL1   C18 7983   2.409   0.258   7.692  0.0215  0.1680  0.6062
   75CHL1  H18A 7984   2.408   0.160   7.744 -0.2695 -0.0819  0.1418
   75CHL1  H18B 7985   2.445   0.219   7.594 -0.5458  0.1196  0.4105
   75CHL1  H18C 7986   2.480   0.329   7.737 -0.6013  0.6235  0.8846
   75CHL1   C12 7987   2.181   0.194   7.589 -0.0961  0.0392  0.0258
   75CHL1  H12A 7988   2.182   0.097   7.643 -1.0832  0.1920  0.3223
   75CHL1  H12B 7989   2.077   0.232   7.584  0.0784  0.7965  1.6889
   75CHL1   C11 7990   2.229   0.165   7.443  0.5991  0.0092 -0.6393
   75CHL1  H11A 7991   2.320   0.103   7.459 -0.0030 -0.8892 -0.6120
   75CHL1  H11B 7992   2.148   0.108   7.392  0.3441  1.4249 -1.8883
   75CHL1    C9 7993   2.262   0.288   7.354  0.1140  0.6791 -0.4850
   75CHL1    H9 7994   2.163   0.331   7.329 -0.6115  0.3251  1.5449
   75CHL1   C10 7995   2.333   0.253   7.222  0.2438  0.2944 -0.1620
   75CHL1   C19 7996   2.460   0.173   7.232 -0.1011  0.1256  0.2431
   75CHL1  H19A 7997   2.446   0.089   7.304  1.1935 -1.0176 -0.7838
   75CHL1  H19B 7998   2.502   0.142   7.134 -0.2068 -0.1462  0.2820
   75CHL1  H19C 7999   2.540   0.235   7.278  0.1680 -0.6875  0.9151
   75CHL1    C1 8000   2.232   0.156   7.137 -0.2450 -0.4794 -0.4112
   75CHL1   H1A 8001   2.223   0.052   7.175 -1.4307 -0.8233 -1.5694
   75CHL1   H1B 8002   2.129   0.193   7.157 -0.1356 -0.7421  0.7312
   75CHL1    C2 8003   2.269   0.136   6.988 -0.7825  0.5729  0.0070
   75CHL1   H2A 8004   2.183   0.079   6.947 -0.0522 -0.4219 -0.1671
   75CHL1   H2B 8005   2.364   0.078   6.983 -0.5054  1.1055 -2.1111
   75CHL1   C20 8006   2.213   0.278   7.921  0.4007 -0.2714  0.5265
   75CHL1   H20 8007   2.306   0.218   7.912  0.7781  0.5949 -2.3326
   75CHL1   C21 8008   2.088   0.182   7.922 -0.4540 -0.7721 -0.2117
   75CHL1  H21A 8009   2.067   0.136   7.823  0.1832 -0.7691 -0.3503
   75CHL1  H21B 8010   1.993   0.233   7.951  0.6110  0.7762  0.6897
   75CHL1  H21C 8011   2.114   0.099   7.992 -0.6323  0.4561  1.3787
   75CHL1   C22 8012   2.213   0.355   8.054  0.5291 -0.0739  0.1693
   75CHL1  H22A 8013   2.240   0.462   8.047  1.9396 -0.4474 -0.3982
   75CHL1  H22B 8014   2.106   0.372   8.076  0.3468  1.6425 -1.7753
   75CHL1   C23 8015   2.280   0.268   8.167  0.8271 -0.3817 -0.4777
   75CHL1  H23A 8016   2.236   0.310   8.260  0.6516  0.0916 -0.7708
   75CHL1  H23B 8017   2.248   0.161   8.161  2.1349 -0.8176 -0.0252
   75CHL1   C24 8018   2.432   0.268   8.158  0.1352 -0.0218 -0.7954
   75CHL1  H24A 8019   2.452   0.231   8.056  0.7236 -1.1105 -0.3048
   75CHL1  H24B 8020   2.469   0.372   8.174 -0.2051  0.0190 -0.2232
   75CHL1   C25 8021   2.507   0.175   8.256  0.3238 -0.1624 -0.0205
   75CHL1   H25 8022   2.451   0.080   8.265 -2.1470  0.9706 -2.2356
   75CHL1   C26 8023   2.657   0.146   8.218  0.1044  0.4182 -0.4753
   75CHL1  H26A 8024   2.697   0.075   8.295 -0.5432 -2.1314 -2.3431
   75CHL1  H26B 8025   2.669   0.091   8.122 -1.0126 -3.9767  1.6069
   75CHL1  H26C 8026   2.721   0.236   8.225  1.1816 -0.4082  1.4087
   75CHL1   C27 8027   2.504   0.230   8.398  0.1887  0.6303  0.5286
   75CHL1  H27A 8028   2.567   0.166   8.463  0.4625  0.1129 -0.2310
   75CHL1  H27B 8029   2.559   0.327   8.399 -0.7021  1.1699  2.7568
   75CHL1  H27C 8030   2.397   0.236   8.429  0.5876  1.2258  1.8858
   76CHL1    C3 8031   4.753   2.952   7.319 -0.1653 -0.0679 -0.0416
   76CHL1    H3 8032   4.694   2.858   7.322 -0.0148 -0.2422 -1.6485
   76CHL1    O3 8033   4.795   2.971   7.187 -0.4360  0.0442  1.0296
   76CHL1   H3' 8034   4.859   3.042   7.184 -0.9174  0.4691  0.1327
   76CHL1    C4 8035   4.656   3.062   7.370  0.1053  0.0152  0.1553
   76CHL1   H4A 8036   4.687   3.162   7.333  0.5268 -0.8304 -1.8761
   76CHL1   H4B 8037   4.562   3.041   7.314  0.8042  1.3670 -1.5963
   76CHL1    C5 8038   4.633   3.072   7.525 -0.5404  0.0406 -1.2240
   76CHL1    C6 8039   4.506   3.071   7.570 -0.3404  0.3903  0.1498
   76CHL1    H6 8040   4.420   3.081   7.503 -1.3440  2.3774  1.6283
   76CHL1    C7 8041   4.472   3.042   7.717  0.2721 -0.2535 -0.8631
   76CHL1   H7A 8042   4.388   3.109   7.747  1.6664  1.3007 -0.2690
   76CHL1   H7B 8043   4.456   2.934   7.733  2.4963 -0.2930  1.7412
   76CHL1    C8 8044   4.598   3.073   7.809  0.1929 -0.2601  0.3650
   76CHL1    H8 8045   4.622   3.181   7.799 -1.8706  0.2500  0.4820
   76CHL1   C14 8046   4.562   3.043   7.956 -1.0834 -0.2047  0.4828
   76CHL1   H14 8047   4.531   2.936   7.957 -1.6317 -0.1232 -1.8430
   76CHL1   C15 8048   4.439   3.112   8.017 -0.1657 -0.8203 -0.1864
   76CHL1  H15A 8049   4.446   3.220   7.994 -0.0082 -1.0314 -1.2056
   76CHL1  H15B 8050   4.340   3.074   7.983  0.1266 -1.2732 -0.5488
   76CHL1   C16 8051   4.459   3.100   8.169 -0.6107  0.6553 -0.3649
   76CHL1  H16A 8052   4.442   3.199   8.216 -1.4763  0.1513  0.4208
   76CHL1  H16B 8053   4.397   3.016   8.207  2.1371 -0.9401  0.9888
   76CHL1   C17 8054   4.607   3.040   8.195  0.8036  0.2820  0.0979
   76CHL1   H17 8055   4.603   2.930   8.201  0.4188  0.2546 -0.6181
   76CHL1   C13 8056   4.680   3.063   8.053  0.8640  1.4611 -0.0983
   76CHL1   C18 8057   4.727   3.214   8.057 -0.1445 -0.3072  0.5287
   76CHL1  H18A 8058   4.639   3.275   8.027  1.0474  0.6666 -1.1375
   76CHL1  H18B 8059   4.750   3.258   8.156 -0.1481 -0.3132  0.5323
   76CHL1  H18C 8060   4.811   3.232   7.987  0.3390  1.0325  1.4313
   76CHL1   C12 8061   4.791   2.963   8.012  1.0895 -0.1618 -0.2351
   76CHL1  H12A 8062   4.876   2.975   8.081 -0.5804  0.0612  1.8790
   76CHL1  H12B 8063   4.757   2.858   8.029  3.8299 -1.2346 -0.8106
   76CHL1   C11 8064   4.836   2.979   7.865  0.3163  0.4308  0.6957
   76CHL1  H11A 8065   4.900   3.069   7.871  0.0916  0.7570 -1.2465
   76CHL1  H11B 8066   4.897   2.895   7.825 -0.3516  0.1181  0.3118
   76CHL1    C9 8067   4.722   2.996   7.760 -0.8457  0.2874 -0.3933
   76CHL1    H9 8068   4.685   2.891   7.748  0.5874 -0.0343 -2.7195
   76CHL1   C10 8069   4.758   3.040   7.615  0.0826  0.1649 -0.2091
   76CHL1   C19 8070   4.842   3.175   7.625 -0.4491 -0.1517  0.2882
   76CHL1  H19A 8071   4.782   3.261   7.661 -1.8067 -0.7619 -0.4054
   76CHL1  H19B 8072   4.918   3.168   7.705 -1.7471 -1.1647  1.4882
   76CHL1  H19C 8073   4.885   3.208   7.528  0.7953 -0.5926  0.6784
   76CHL1    C1 8074   4.841   2.925   7.554 -0.1223 -0.6299 -0.4000
   76CHL1   H1A 8075   4.936   2.903   7.605  0.0772 -0.2611 -0.6056
   76CHL1   H1B 8076   4.773   2.837   7.557 -0.3832 -0.4031  0.7854
   76CHL1    C2 8077   4.876   2.942   7.403  0.6011 -0.2506 -0.4682
   76CHL1   H2A 8078   4.946   2.863   7.370  0.1401 -0.5286 -0.7913
   76CHL1   H2B 8079   4.943   3.030   7.394  0.3863 -0.0819 -0.4577
   76CHL1   C20 8080   4.658   3.084   8.332 -0.5188 -0.2490  0.6459
   76CHL1   H20 8081   4.649   3.195   8.334 -0.3492 -0.1355 -1.9630
   76CHL1   C21 8082   4.799   3.032   8.362 -0.3987  0.2322  0.1444
   76CHL1  H21A 8083   4.844   3.076   8.453 -0.7382 -0.5248  0.6925
   76CHL1  H21B 8084   4.866   3.053   8.275  0.3098  1.7541  1.0211
   76CHL1  H21C 8085   4.792   2.922   8.379  1.5087  0.0722  0.1661
   76CHL1   C22 8086   4.560   3.034   8.442  0.5988 -0.5435 -0.6295
   76CHL1  H22A 8087   4.469   3.096   8.428  1.2131  0.1638 -1.6092
   76CHL1  H22B 8088   4.524   2.931   8.421  1.5131 -0.5908 -2.0651
   76CHL1   C23 8089   4.606   3.061   8.590 -0.2069 -0.3173 -0.2134
   76CHL1  H23A 8090   4.700   3.008   8.613 -1.3383 -1.8721  1.0383
   76CHL1  H23B 8091   4.620   3.168   8.618 -0.5243 -0.5072  0.7068
   76CHL1   C24 8092   4.502   3.004   8.694 -0.4402 -0.0383 -0.6848
   76CHL1  H24A 8093   4.399   3.045   8.694 -0.5810 -0.3265 -2.7346
   76CHL1  H24B 8094   4.494   2.901   8.655  2.5676 -1.0599  0.9981
   76CHL1   C25 8095   4.543   3.017   8.842  0.2331 -0.0022 -0.7870
   76CHL1   H25 8096   4.642   2.965   8.842  0.1997 -0.1319  1.2652
   76CHL1   C26 8097   4.554   3.166   8.895 -0.2386  0.1264  0.3535
   76CHL1  H26A 8098   4.455   3.215   8.895 -0.0534  0.5095  0.4454
   76CHL1  H26B 8099   4.592   3.155   8.999  0.9733 -3.6014 -0.3363
   76CHL1  H26C 8100   4.624   3.228   8.835 -1.7543  0.3961 -1.1953
   76CHL1   C27 8101   4.447   2.931   8.926  0.0858  0.4978  0.2809
   76CHL1  H27A 8102   4.479   2.922   9.032  0.0011 -0.5669  0.2241
   76CHL1  H27B 8103   4.347   2.980   8.926  0.8810  2.2562  1.8677
   76CHL1  H27C 8104   4.435   2.832   8.877  1.0415  0.1676  0.7048
   77CHL1    C3 8105   0.973   0.558   6.916  0.0549 -0.6007  0.2461
   77CHL1    H3 8106   1.062   0.499   6.944  2.0412  2.1663  0.1382
   77CHL1    O3 8107   0.929   0.545   6.782  0.5832  0.3550 -0.1402
   77CHL1   H3' 8108   0.837   0.569   6.768  0.6091  0.4059 -0.2254
   77CHL1    C4 8109   0.866   0.524   7.008 -0.4444 -0.0470 -0.3594
   77CHL1   H4A 8110   0.773   0.583   6.992 -0.1152  0.4838 -0.3700
   77CHL1   H4B 8111   0.843   0.418   6.986 -1.9748  0.3672 -0.9223
   77CHL1    C5 8112   0.900   0.547   7.160  0.5175 -0.5667 -0.6799
   77CHL1    C6 8113   0.883   0.445   7.246 -0.6367 -0.3579  0.3228
   77CHL1    H6 8114   0.862   0.344   7.206  2.0641 -1.5161  1.5786
   77CHL1    C7 8115   0.904   0.469   7.392  0.3545 -0.4400  0.1988
   77CHL1   H7A 8116   0.806   0.442   7.437 -0.8316  1.0671 -1.3468
   77CHL1   H7B 8117   0.981   0.401   7.435 -1.3385 -1.1789  2.2325
   77CHL1    C8 8118   0.926   0.618   7.447 -0.1790  0.3161  0.5151
   77CHL1    H8 8119   0.825   0.661   7.463  0.2397  1.1750  0.9285
   77CHL1   C14 8120   1.000   0.626   7.582  0.1284 -0.5526 -0.3656
   77CHL1   H14 8121   1.103   0.589   7.567 -0.6651 -1.8932 -3.1636
   77CHL1   C15 8122   0.943   0.542   7.690  0.0137  0.2397 -0.0590
   77CHL1  H15A 8123   0.835   0.563   7.703  0.1431  1.6876 -1.1093
   77CHL1  H15B 8124   0.935   0.432   7.672 -0.0046  0.6368 -2.8080
   77CHL1   C16 8125   1.021   0.601   7.814 -1.1126  0.6003 -0.0188
   77CHL1  H16A 8126   0.944   0.619   7.891 -2.1035  0.4601 -0.9505
   77CHL1  H16B 8127   1.094   0.536   7.867 -1.4240 -0.5792 -0.9785
   77CHL1   C17 8128   1.085   0.732   7.767 -0.0392 -0.5295 -0.5018
   77CHL1   H17 8129   1.191   0.706   7.747  0.6273  0.8969  0.8949
   77CHL1   C13 8130   1.023   0.767   7.632 -0.5616 -0.5315 -0.0868
   77CHL1   C18 8131   0.892   0.840   7.660 -1.0250  0.1120 -0.1259
   77CHL1  H18A 8132   0.819   0.826   7.577  0.4652 -0.6001 -1.3545
   77CHL1  H18B 8133   0.852   0.817   7.761  0.2113  2.7704  1.0683
   77CHL1  H18C 8134   0.903   0.951   7.655 -0.9032  0.1259  0.3970
   77CHL1   C12 8135   1.110   0.848   7.534  0.2536  0.0375  0.1186
   77CHL1  H12A 8136   1.122   0.953   7.568  0.0861 -0.8123  3.0297
   77CHL1  H12B 8137   1.209   0.798   7.536  0.5610  0.5941 -0.6607
   77CHL1   C11 8138   1.041   0.836   7.387  0.3311 -0.2645  0.0103
   77CHL1  H11A 8139   0.945   0.892   7.385  0.2967 -0.3163  0.2363
   77CHL1  H11B 8140   1.112   0.890   7.321 -0.0160  1.8954  1.3018
   77CHL1    C9 8141   1.007   0.690   7.340  0.1375  0.1718  0.2615
   77CHL1    H9 8142   1.104   0.636   7.328 -0.9464 -1.8005 -0.0861
   77CHL1   C10 8143   0.944   0.685   7.199  0.5995  0.1090  0.5993
   77CHL1   C19 8144   0.821   0.783   7.196 -0.1872 -0.3730  0.6776
   77CHL1  H19A 8145   0.742   0.760   7.271 -2.5597  0.5470 -1.3858
   77CHL1  H19B 8146   0.852   0.888   7.214  0.6516 -0.2991 -0.9853
   77CHL1  H19C 8147   0.759   0.779   7.103 -2.5522  0.4117  2.1376
   77CHL1    C1 8148   1.055   0.736   7.095  0.1136  0.2727 -0.6550
   77CHL1   H1A 8149   1.069   0.845   7.110  1.0558 -0.0021  0.6208
   77CHL1   H1B 8150   1.145   0.673   7.107  0.2338  0.8340  2.2782
   77CHL1    C2 8151   1.008   0.710   6.946 -0.5070  0.1256 -0.3702
   77CHL1   H2A 8152   1.093   0.727   6.876  0.6178 -0.0896  0.8910
   77CHL1   H2B 8153   0.924   0.775   6.915 -2.4516 -1.7549  0.7430
   77CHL1   C20 8154   1.086   0.837   7.883 -0.3200  0.0468  0.1918
   77CHL1   H20 8155   0.979   0.865   7.898 -0.7237 -2.1118  1.7033
   77CHL1   C21 8156   1.178   0.956   7.843  0.2439  0.0985 -0.5418
   77CHL1  H21A 8157   1.269   0.912   7.797 -0.3480  0.0838 -1.7376
   77CHL1  H21B 8158   1.201   1.026   7.927  0.1848 -1.6369  0.9721
   77CHL1  H21C 8159   1.139   1.017   7.758  2.3219 -0.5715 -2.0859
   77CHL1   C22 8160   1.128   0.778   8.022  0.3054  0.5059 -0.5857
   77CHL1  H22A 8161   1.068   0.692   8.057 -1.6464  1.7885 -0.5947
   77CHL1  H22B 8162   1.234   0.749   8.011  0.0754 -1.2568  1.2664
   77CHL1   C23 8163   1.098   0.881   8.128 -0.0753 -0.3486 -0.4276
   77CHL1  H23A 8164   1.161   0.971   8.115 -1.7392  0.5351 -2.8651
   77CHL1  H23B 8165   0.996   0.920   8.114  0.3177  0.8038 -0.1706
   77CHL1   C24 8166   1.124   0.838   8.270  0.0156  0.3521  0.1153
   77CHL1  H24A 8167   1.028   0.790   8.299 -0.5277  1.3778  0.0875
   77CHL1  H24B 8168   1.208   0.766   8.273 -1.8246 -1.9229 -0.2810
   77CHL1   C25 8169   1.148   0.949   8.379  0.3987 -1.0777 -0.1505
   77CHL1   H25 8170   1.251   0.984   8.355  0.8367 -2.1182  0.1481
   77CHL1   C26 8171   1.046   1.069   8.358 -0.7787 -0.3073  0.0234
   77CHL1  H26A 8172   1.089   1.140   8.285 -0.6145 -0.5650 -0.1329
   77CHL1  H26B 8173   0.949   1.028   8.325 -1.2693  0.5601  0.3437
   77CHL1  H26C 8174   1.042   1.125   8.455  0.8109  0.4343 -0.3152
   77CHL1   C27 8175   1.151   0.892   8.518 -0.5996  0.3545  0.3207
   77CHL1  H27A 8176   1.059   0.837   8.549 -1.2790  1.7712  0.9085
   77CHL1  H27B 8177   1.241   0.828   8.522 -1.1911 -1.0430 -3.8494
   77CHL1  H27C 8178   1.159   0.973   8.593  0.9168 -0.1983  0.7781
   78CHL1    C3 8179   2.797   1.355   6.872 -0.2964 -0.2537  0.1171
   78CHL1    H3 8180   2.698   1.406   6.868 -0.5683 -0.7639  0.2722
   78CHL1    O3 8181   2.855   1.350   6.741 -0.0713  0.6855 -0.5937
   78CHL1   H3' 8182   2.917   1.276   6.743  0.0306  0.7436 -1.2068
   78CHL1    C4 8183   2.889   1.425   6.967  0.3479 -0.5805 -0.1983
   78CHL1   H4A 8184   2.990   1.380   6.953  1.0749  1.1395 -0.9040
   78CHL1   H4B 8185   2.894   1.530   6.930  0.7822 -1.5347 -3.1735
   78CHL1    C5 8186   2.849   1.422   7.114  0.5134  0.6924 -0.3965
   78CHL1    C6 8187   2.844   1.535   7.185  0.6301 -0.2250  0.2674
   78CHL1    H6 8188   2.855   1.630   7.129  2.4402 -0.0551  0.8654
   78CHL1    C7 8189   2.809   1.542   7.335 -0.1605 -0.4959  0.5855
   78CHL1   H7A 8190   2.874   1.613   7.391 -0.6930 -0.8035  1.6030
   78CHL1   H7B 8191   2.707   1.586   7.336  0.5455  1.6520 -3.2666
   78CHL1    C8 8192   2.818   1.397   7.391  0.0334 -0.8089  0.0767
   78CHL1    H8 8193   2.926   1.375   7.388  0.4112  0.9301 -0.2006
   78CHL1   C14 8194   2.762   1.402   7.534  0.4824  0.2930  0.4193
   78CHL1   H14 8195   2.655   1.430   7.529  0.2949 -0.5993 -1.1950
   78CHL1   C15 8196   2.821   1.515   7.622 -0.1296 -0.0528 -0.8676
   78CHL1  H15A 8197   2.931   1.516   7.606 -0.1294  0.3517 -0.8414
   78CHL1  H15B 8198   2.783   1.614   7.590 -2.9286 -0.6551  0.2837
   78CHL1   C16 8199   2.770   1.466   7.751 -0.2110  0.1719  0.1004
   78CHL1  H16A 8200   2.845   1.475   7.833  0.0477  1.0052 -0.2191
   78CHL1  H16B 8201   2.677   1.517   7.783 -0.6747 -1.8150  2.2288
   78CHL1   C17 8202   2.740   1.311   7.748 -0.6730  0.3874  0.9393
   78CHL1   H17 8203   2.630   1.296   7.760 -0.8184  0.6052 -0.0804
   78CHL1   C13 8204   2.774   1.269   7.611 -0.4020  0.0078  0.8902
   78CHL1   C18 8205   2.922   1.227   7.610 -0.7805  0.0002 -0.2176
   78CHL1  H18A 8206   2.938   1.124   7.648 -0.1472  0.0230 -0.4145
   78CHL1  H18B 8207   2.968   1.236   7.509 -1.3471 -1.3412 -0.6146
   78CHL1  H18C 8208   2.985   1.291   7.676 -0.1934  2.3342 -2.8464
   78CHL1   C12 8209   2.687   1.175   7.536  0.3919  0.3420  0.2113
   78CHL1  H12A 8210   2.678   1.076   7.586  1.6631 -0.7393 -1.5640
   78CHL1  H12B 8211   2.580   1.199   7.525 -0.1374 -1.4677  1.0113
   78CHL1   C11 8212   2.735   1.154   7.387 -0.2821  0.0770  0.4442
   78CHL1  H11A 8213   2.836   1.107   7.391 -0.2354 -0.2362 -2.3378
   78CHL1  H11B 8214   2.660   1.084   7.344 -1.0655  1.3101 -0.2511
   78CHL1    C9 8215   2.749   1.286   7.307 -0.3344 -0.3906  0.1483
   78CHL1    H9 8216   2.642   1.316   7.296 -0.7139 -1.6942  0.0747
   78CHL1   C10 8217   2.812   1.288   7.170 -0.0284 -0.7661 -0.2488
   78CHL1   C19 8218   2.949   1.211   7.181  0.7159  0.9548  0.3216
   78CHL1  H19A 8219   3.007   1.213   7.087  0.4467  1.9396  0.1631
   78CHL1  H19B 8220   3.007   1.242   7.270  1.8951 -0.6432  0.1555
   78CHL1  H19C 8221   2.918   1.106   7.202  0.9555  0.7568 -0.2950
   78CHL1    C1 8222   2.716   1.208   7.068  0.5264  0.5948  0.6644
   78CHL1   H1A 8223   2.730   1.102   7.097  1.6304  0.9402  1.4626
   78CHL1   H1B 8224   2.610   1.241   7.070 -0.9162 -3.4356 -0.1467
   78CHL1    C2 8225   2.770   1.213   6.924 -0.0143 -0.4856 -0.2607
   78CHL1   H2A 8226   2.683   1.176   6.865 -1.4733  1.8413  0.2997
   78CHL1   H2B 8227   2.861   1.152   6.904  1.4591  1.4155  0.3532
   78CHL1   C20 8228   2.797   1.235   7.875 -0.9904 -0.7353 -0.1955
   78CHL1   H20 8229   2.907   1.249   7.878 -1.1521  0.8065 -0.8890
   78CHL1   C21 8230   2.756   1.085   7.869 -0.3957 -0.3982 -0.3770
   78CHL1  H21A 8231   2.781   1.031   7.963 -1.7240 -0.2778  0.0587
   78CHL1  H21B 8232   2.801   1.025   7.788 -1.6921  0.1053 -1.4995
   78CHL1  H21C 8233   2.645   1.083   7.867 -0.4188 -1.3373  0.7169
   78CHL1   C22 8234   2.741   1.294   8.009 -0.1769  0.4089 -0.0287
   78CHL1  H22A 8235   2.730   1.405   8.002  0.6143  0.5090  0.1676
   78CHL1  H22B 8236   2.638   1.255   8.015 -0.3935  0.3354 -2.7438
   78CHL1   C23 8237   2.834   1.250   8.124 -0.1952 -0.1071 -0.1368
   78CHL1  H23A 8238   2.808   1.143   8.139  1.0778 -0.3610  0.4062
   78CHL1  H23B 8239   2.942   1.254   8.097  0.1211  2.6288  1.1577
   78CHL1   C24 8240   2.795   1.344   8.239  0.4390 -0.0883  0.3858
   78CHL1  H24A 8241   2.826   1.450   8.229 -0.6811  0.3545  1.3196
   78CHL1  H24B 8242   2.684   1.346   8.248  0.5039  1.8230  1.3131
   78CHL1   C25 8243   2.853   1.296   8.370  0.1934 -0.0601 -0.3241
   78CHL1   H25 8244   2.856   1.185   8.374  0.7710 -0.0184  1.0357
   78CHL1   C26 8245   3.004   1.326   8.384 -0.4736  0.4524  0.2687
   78CHL1  H26A 8246   3.024   1.435   8.380  0.5170  0.2343 -1.1837
   78CHL1  H26B 8247   3.037   1.282   8.481 -1.0690 -1.5111 -0.3702
   78CHL1  H26C 8248   3.061   1.266   8.310 -0.0575 -0.2067  1.1047
   78CHL1   C27 8249   2.771   1.358   8.485  0.3970 -1.1242 -0.3398
   78CHL1  H27A 8250   2.799   1.320   8.586 -0.3867 -1.2698 -0.1725
   78CHL1  H27B 8251   2.777   1.468   8.471  1.3236 -1.2110 -0.6794
   78CHL1  H27C 8252   2.665   1.330   8.466  0.1582 -0.0368 -0.6348
   79CHL1    C3 8253   6.408   2.808   7.121  0.1028  0.6808 -0.3448
   79CHL1    H3 8254   6.367   2.896   7.174 -0.8068  0.6391 -0.9580
   79CHL1    O3 8255   6.379   2.823   6.985  0.3725  0.0853  0.5604
   79CHL1   H3' 8256   6.443   2.777   6.930 -0.3016  1.2496 -1.2932
   79CHL1    C4 8257   6.559   2.782   7.151 -0.1900 -0.2026 -0.5858
   79CHL1   H4A 8258   6.600   2.697   7.092  0.7978 -0.6121  0.6475
   79CHL1   H4B 8259   6.613   2.870   7.109 -0.0070  0.2315  0.5388
   79CHL1    C5 8260   6.580   2.749   7.294  0.3452  0.3756 -0.1623
   79CHL1    C6 8261   6.666   2.827   7.364 -0.7112  0.5920 -0.2696
   79CHL1    H6 8262   6.719   2.907   7.309  0.0482  0.4981  0.3022
   79CHL1    C7 8263   6.701   2.803   7.512  0.0799  0.3678  0.5017
   79CHL1   H7A 8264   6.810   2.821   7.521  0.2376  0.5795 -1.4851
   79CHL1   H7B 8265   6.655   2.883   7.573 -0.0783  0.5313  0.1711
   79CHL1    C8 8266   6.660   2.657   7.564 -0.5280  0.4882 -0.3522
   79CHL1    H8 8267   6.731   2.585   7.519  2.6631  2.4514  1.1853
   79CHL1   C14 8268   6.657   2.653   7.719  0.1666 -0.7478  0.1149
   79CHL1   H14 8269   6.577   2.727   7.745  0.8003 -0.1356  0.3435
   79CHL1   C15 8270   6.778   2.701   7.795  0.0287  0.4740 -0.0819
   79CHL1  H15A 8271   6.867   2.656   7.746 -0.9546  0.3671 -1.8591
   79CHL1  H15B 8272   6.773   2.812   7.790 -0.1281  0.4591 -0.2539
   79CHL1   C16 8273   6.757   2.643   7.940  0.7813  0.5705 -0.0660
   79CHL1  H16A 8274   6.845   2.584   7.973 -0.3785 -0.8315  0.6050
   79CHL1  H16B 8275   6.745   2.719   8.020 -3.1088 -0.7636  0.8268
   79CHL1   C17 8276   6.632   2.551   7.930  0.1340 -0.0972  0.2740
   79CHL1   H17 8277   6.542   2.613   7.950  1.6504  3.6451 -3.0757
   79CHL1   C13 8278   6.620   2.518   7.778  0.7447 -0.5781  0.3668
   79CHL1   C18 8279   6.729   2.407   7.742 -0.5004  0.1530  0.1209
   79CHL1  H18A 8280   6.832   2.431   7.776 -0.9919 -2.6634  4.2714
   79CHL1  H18B 8281   6.704   2.305   7.778  0.7821 -0.5003 -0.7652
   79CHL1  H18C 8282   6.731   2.392   7.632  1.4958 -2.8668  0.4418
   79CHL1   C12 8283   6.476   2.486   7.723 -0.0327 -0.2406  0.3883
   79CHL1  H12A 8284   6.447   2.382   7.750  2.1589 -1.2318 -0.8511
   79CHL1  H12B 8285   6.406   2.565   7.759 -0.3051 -0.2817 -0.0460
   79CHL1   C11 8286   6.465   2.488   7.567  0.3196  0.2439  0.3788
   79CHL1  H11A 8287   6.537   2.410   7.533  1.3092  0.6796  1.3775
   79CHL1  H11B 8288   6.364   2.476   7.524  1.0167 -2.3595 -0.7257
   79CHL1    C9 8289   6.520   2.622   7.513  0.3532 -0.7246  0.2712
   79CHL1    H9 8290   6.449   2.699   7.550  0.1002 -0.5908 -0.4647
   79CHL1   C10 8291   6.503   2.635   7.354  0.0819  0.9682  0.3091
   79CHL1   C19 8292   6.570   2.508   7.291  0.0788 -0.1575  0.3191
   79CHL1  H19A 8293   6.666   2.486   7.341 -0.3442 -2.1623  0.3691
   79CHL1  H19B 8294   6.508   2.417   7.305 -0.3831  0.2880  1.2546
   79CHL1  H19C 8295   6.593   2.521   7.183 -0.6660 -1.2960 -0.0044
   79CHL1    C1 8296   6.349   2.646   7.322 -0.6115  0.3630 -0.0225
   79CHL1   H1A 8297   6.297   2.552   7.348  2.2103 -1.5019 -0.5929
   79CHL1   H1B 8298   6.318   2.727   7.391  0.4302 -1.0375  2.2124
   79CHL1    C2 8299   6.328   2.687   7.179  0.0265  0.4385  0.5040
   79CHL1   H2A 8300   6.219   2.696   7.159 -0.2042  0.9505  1.8859
   79CHL1   H2B 8301   6.354   2.595   7.123 -0.4741  0.0840  0.8518
   79CHL1   C20 8302   6.642   2.423   8.025 -0.0192  0.1262  0.2137
   79CHL1   H20 8303   6.740   2.376   7.999  0.7422  2.2875 -1.0876
   79CHL1   C21 8304   6.519   2.323   8.009  0.8532  0.5811 -0.4180
   79CHL1  H21A 8305   6.422   2.378   8.015 -0.2093 -1.3112  0.9561
   79CHL1  H21B 8306   6.504   2.245   8.087  0.7476  0.4058 -0.6081
   79CHL1  H21C 8307   6.532   2.266   7.914  1.5515 -1.8432  1.0500
   79CHL1   C22 8308   6.643   2.477   8.170  0.7172  0.2652  0.2219
   79CHL1  H22A 8309   6.693   2.401   8.233  2.4469  0.3611 -0.9547
   79CHL1  H22B 8310   6.707   2.567   8.183  1.3877  0.0716 -1.4072
   79CHL1   C23 8311   6.499   2.497   8.233  0.0630  0.6543 -0.8600
   79CHL1  H23A 8312   6.442   2.563   8.164  0.2152 -0.0536 -1.6824
   79CHL1  H23B 8313   6.451   2.398   8.244  1.8212 -0.0376  1.3594
   79CHL1   C24 8314   6.500   2.569   8.365  0.8512 -0.0917  0.2522
   79CHL1  H24A 8315   6.554   2.666   8.357 -3.9035  2.8901  0.6481
   79CHL1  H24B 8316   6.399   2.597   8.400  1.0064 -0.3296  0.9067
   79CHL1   C25 8317   6.565   2.488   8.488 -0.4411  0.1301  0.5634
   79CHL1   H25 8318   6.666   2.454   8.458 -1.6630 -1.8665 -1.5756
   79CHL1   C26 8319   6.583   2.581   8.605 -0.0741 -0.4911  0.2099
   79CHL1  H26A 8320   6.653   2.526   8.671  0.8301 -1.9982 -1.9158
   79CHL1  H26B 8321   6.627   2.680   8.579 -1.4691  0.5829  1.7123
   79CHL1  H26C 8322   6.482   2.599   8.648  0.3971 -0.5907  1.4066
   79CHL1   C27 8323   6.482   2.360   8.521 -0.2188 -0.0712  0.0720
   79CHL1  H27A 8324   6.487   2.291   8.434  3.7449 -0.6571  0.5675
   79CHL1  H27B 8325   6.521   2.292   8.600 -2.0175 -1.6797 -0.3302
   79CHL1  H27C 8326   6.378   2.385   8.552 -0.2161  0.0933 -0.0575
   80CHL1    C3 8327   3.662   5.080   7.234 -0.5830 -0.3872  0.3154
   80CHL1    H3 8328   3.580   5.150   7.261 -1.8898 -1.3009 -1.1209
   80CHL1    O3 8329   3.666   5.089   7.095  0.6233  0.0468  0.3372
   80CHL1   H3' 8330   3.692   4.999   7.073  0.2869 -0.2639  1.1710
   80CHL1    C4 8331   3.799   5.126   7.293  0.5477  0.4634 -0.3624
   80CHL1   H4A 8332   3.871   5.051   7.255  0.2886 -0.7110  1.3378
   80CHL1   H4B 8333   3.826   5.230   7.265  0.0627  1.2389  1.8171
   80CHL1    C5 8334   3.809   5.104   7.444 -0.9859 -0.2765 -0.3933
   80CHL1    C6 8335   3.860   5.207   7.513  0.3078  0.2409 -0.2592
   80CHL1    H6 8336   3.897   5.293   7.456 -4.0222  1.1679 -2.0243
   80CHL1    C7 8337   3.881   5.202   7.658 -0.4182  0.6064  0.1194
   80CHL1   H7A 8338   3.983   5.240   7.681  0.3251 -2.0147  1.5781
   80CHL1   H7B 8339   3.818   5.274   7.714 -0.7791 -0.5645  1.2665
   80CHL1    C8 8340   3.862   5.063   7.716  0.3757 -0.0135  0.3375
   80CHL1    H8 8341   3.960   5.010   7.706  1.6446  2.0219  1.3608
   80CHL1   C14 8342   3.841   5.080   7.873  0.3267  0.6702  0.5061
   80CHL1   H14 8343   3.745   5.135   7.884  0.2245  0.7814 -0.7480
   80CHL1   C15 8344   3.943   5.171   7.952 -1.2594  0.4973  0.8102
   80CHL1  H15A 8345   4.046   5.136   7.931 -0.5427  1.8688  1.8212
   80CHL1  H15B 8346   3.920   5.276   7.924  0.2154  0.0412 -2.4803
   80CHL1   C16 8347   3.907   5.135   8.099 -0.1490  0.2318  0.4715
   80CHL1  H16A 8348   4.002   5.097   8.143  0.8280  0.8193 -1.0557
   80CHL1  H16B 8349   3.869   5.220   8.161  0.6308  0.0044  1.2882
   80CHL1   C17 8350   3.797   5.014   8.083 -0.4763 -0.4639 -0.4850
   80CHL1   H17 8351   3.697   5.060   8.098 -1.7412 -3.0487 -0.3918
   80CHL1   C13 8352   3.814   4.953   7.948 -0.3329  0.4114  0.2725
   80CHL1   C18 8353   3.940   4.861   7.954  0.5250 -0.6104  0.2334
   80CHL1  H18A 8354   3.921   4.764   8.004  0.7868 -0.1499  1.2707
   80CHL1  H18B 8355   3.968   4.843   7.848 -1.9419  0.2472 -0.6296
   80CHL1  H18C 8356   4.027   4.901   8.011  1.1049 -2.5531  0.7768
   80CHL1   C12 8357   3.698   4.874   7.885  0.2035  0.6944  0.2358
   80CHL1  H12A 8358   3.683   4.775   7.934  0.2344  0.8216  0.5084
   80CHL1  H12B 8359   3.607   4.932   7.913 -0.3450  0.4276 -0.9356
   80CHL1   C11 8360   3.717   4.854   7.729  0.3858  0.3760 -0.5529
   80CHL1  H11A 8361   3.814   4.799   7.730 -0.6330 -1.4936  0.3774
   80CHL1  H11B 8362   3.638   4.791   7.683 -0.5419  1.4187 -0.4124
   80CHL1    C9 8363   3.743   4.987   7.655 -0.3615 -0.0434  0.8232
   80CHL1    H9 8364   3.655   5.054   7.669 -0.5517 -0.4611  1.6562
   80CHL1   C10 8365   3.759   4.970   7.500 -0.1660  0.2014 -0.1196
   80CHL1   C19 8366   3.861   4.863   7.481  0.6041  0.4241 -0.2916
   80CHL1  H19A 8367   3.951   4.887   7.542  0.7320 -1.9079  0.5586
   80CHL1  H19B 8368   3.828   4.763   7.518 -2.6378  1.0913 -1.1424
   80CHL1  H19C 8369   3.889   4.855   7.374 -0.3379 -1.9265 -0.4311
   80CHL1    C1 8370   3.627   4.919   7.429 -0.3867  0.0904  0.2028
   80CHL1   H1A 8371   3.616   4.816   7.468  1.2715 -0.0151  0.4985
   80CHL1   H1B 8372   3.539   4.979   7.459  0.5176  1.5447  0.0459
   80CHL1    C2 8373   3.634   4.937   7.272  0.6257 -0.2192  0.5020
   80CHL1   H2A 8374   3.530   4.920   7.237  0.1425  0.2434  1.6874
   80CHL1   H2B 8375   3.692   4.855   7.224  2.8657  0.1885  2.3242
   80CHL1   C20 8376   3.804   4.925   8.211  0.3448 -0.0485  1.0695
   80CHL1   H20 8377   3.910   4.892   8.218  0.3713  0.1600  1.7703
   80CHL1   C21 8378   3.704   4.805   8.190  0.1992 -0.0210  0.1320
   80CHL1  H21A 8379   3.600   4.835   8.167 -0.0006 -1.7894 -1.5394
   80CHL1  H21B 8380   3.693   4.746   8.284  0.6489  0.7626  0.6948
   80CHL1  H21C 8381   3.755   4.731   8.125  2.7404  0.2449  1.6422
   80CHL1   C22 8382   3.776   5.005   8.348  0.4708  0.4521  0.7745
   80CHL1  H22A 8383   3.811   4.931   8.423  0.5481  1.3611  1.6590
   80CHL1  H22B 8384   3.839   5.097   8.354  0.6701  0.2859  1.3091
   80CHL1   C23 8385   3.629   5.046   8.364  0.1663 -0.0669 -0.6553
   80CHL1  H23A 8386   3.610   5.150   8.332 -0.7482  0.5330  1.6854
   80CHL1  H23B 8387   3.563   4.971   8.314  0.3978 -0.9507  0.3428
   80CHL1   C24 8388   3.599   5.044   8.516  0.5374 -0.7545  0.4007
   80CHL1  H24A 8389   3.656   4.963   8.567  2.7491 -0.0390 -0.8257
   80CHL1  H24B 8390   3.645   5.140   8.549 -1.9681  0.6387  0.0610
   80CHL1   C25 8391   3.453   5.044   8.547 -0.6627  0.2036  0.7058
   80CHL1   H25 8392   3.398   5.111   8.478  0.8672  1.1854  0.4008
   80CHL1   C26 8393   3.395   4.899   8.526  0.4039 -0.5616 -0.2692
   80CHL1  H26A 8394   3.385   4.846   8.624 -2.8384  2.1823  1.1023
   80CHL1  H26B 8395   3.288   4.906   8.498 -0.7778 -3.5260  2.8238
   80CHL1  H26C 8396   3.442   4.838   8.446  0.9722  0.3798 -0.6660
   80CHL1   C27 8397   3.425   5.093   8.687  0.7834  0.2357  0.2139
   80CHL1  H27A 8398   3.464   5.195   8.703  1.4011 -0.0765  0.7235
   80CHL1  H27B 8399   3.315   5.094   8.704  0.0010 -2.6916 -3.3318
   80CHL1  H27C 8400   3.464   5.024   8.765  0.4601  1.1800  1.2397
   81CHL1    C3 8401   3.161   2.493   7.096 -0.5782 -0.3787 -0.8459
   81CHL1    H3 8402   3.054   2.471   7.119 -0.4929 -0.5218 -0.5933
   81CHL1    O3 8403   3.163   2.486   6.958 -0.4556 -0.3516 -0.3745
   81CHL1   H3' 8404   3.257   2.492   6.941 -0.2638  1.1147  1.0283
   81CHL1    C4 8405   3.208   2.635   7.143 -0.3746 -0.2279 -0.0067
   81CHL1   H4A 8406   3.316   2.644   7.118  0.0652 -0.4413  1.6923
   81CHL1   H4B 8407   3.152   2.706   7.079 -1.1690 -2.1071 -1.5116
   81CHL1    C5 8408   3.188   2.653   7.291  0.2846 -0.6803 -0.2606
   81CHL1    C6 8409   3.113   2.752   7.342 -0.3133 -0.1201  0.2763
   81CHL1    H6 8410   3.070   2.820   7.267  0.0859 -0.9667 -0.7490
   81CHL1    C7 8411   3.099   2.785   7.487 -0.2247 -0.4744 -0.0717
   81CHL1   H7A 8412   3.124   2.890   7.513 -1.4933 -0.1156 -0.2255
   81CHL1   H7B 8413   2.991   2.780   7.516 -0.6342 -2.8118 -1.6838
   81CHL1    C8 8414   3.187   2.701   7.579 -0.2694 -0.2258 -0.2961
   81CHL1    H8 8415   3.290   2.742   7.569 -0.0760 -1.0289 -1.7522
   81CHL1   C14 8416   3.141   2.703   7.724 -0.1816  0.5112 -0.3976
   81CHL1   H14 8417   3.041   2.656   7.720 -0.6872  1.6414 -1.9451
   81CHL1   C15 8418   3.128   2.845   7.789 -0.2066  0.0980 -0.3898
   81CHL1  H15A 8419   3.221   2.899   7.761  1.9466 -2.5410  1.1524
   81CHL1  H15B 8420   3.039   2.893   7.743 -0.2992  1.4871  1.1903
   81CHL1   C16 8421   3.114   2.811   7.937 -0.2871  0.0197 -0.4153
   81CHL1  H16A 8422   3.169   2.889   7.995  2.0921 -1.7870 -0.0470
   81CHL1  H16B 8423   3.010   2.821   7.974 -0.1456 -0.0714  0.0144
   81CHL1   C17 8424   3.171   2.667   7.960 -0.2332  0.3555 -0.2806
   81CHL1   H17 8425   3.075   2.611   7.960  1.0791 -2.0318 -0.0022
   81CHL1   C13 8426   3.230   2.622   7.826  0.0824 -0.6104 -0.2193
   81CHL1   C18 8427   3.384   2.659   7.824  0.4000  0.0342 -0.6256
   81CHL1  H18A 8428   3.444   2.590   7.887  2.4549  3.1532  1.1018
   81CHL1  H18B 8429   3.421   2.652   7.719 -1.1276 -1.4216 -1.1118
   81CHL1  H18C 8430   3.394   2.766   7.852  0.1405  0.2361 -1.2845
   81CHL1   C12 8431   3.210   2.476   7.783 -0.2198 -0.3584 -1.5122
   81CHL1  H12A 8432   3.269   2.409   7.850  0.5873 -1.0148 -2.8464
   81CHL1  H12B 8433   3.104   2.444   7.780 -1.2667  2.6843 -0.4035
   81CHL1   C11 8434   3.250   2.450   7.637 -0.3184 -0.3725 -0.1525
   81CHL1  H11A 8435   3.360   2.467   7.633 -0.5765  1.8270  0.7010
   81CHL1  H11B 8436   3.236   2.344   7.607  2.9263 -0.9336 -0.0215
   81CHL1    C9 8437   3.188   2.553   7.526 -0.6628 -0.5287  0.0474
   81CHL1    H9 8438   3.080   2.528   7.519 -0.1601 -2.6847 -0.7744
   81CHL1   C10 8439   3.250   2.546   7.386 -0.1676  1.1238 -0.4925
   81CHL1   C19 8440   3.406   2.553   7.397  0.2567  0.4461  0.3524
   81CHL1  H19A 8441   3.446   2.459   7.440 -3.2502 -1.3028  0.1454
   81CHL1  H19B 8442   3.454   2.550   7.297 -0.8096 -1.2859 -0.1438
   81CHL1  H19C 8443   3.447   2.639   7.456  2.0988 -0.7000  0.8388
   81CHL1    C1 8444   3.224   2.405   7.323  0.5546 -0.3617 -0.1076
   81CHL1   H1A 8445   3.291   2.328   7.365  1.0347  0.6737  1.0906
   81CHL1   H1B 8446   3.122   2.376   7.356  1.2952 -0.4217  2.3331
   81CHL1    C2 8447   3.242   2.389   7.173 -0.1506 -0.4215 -0.3139
   81CHL1   H2A 8448   3.215   2.286   7.140  1.5683 -0.6244 -1.1379
   81CHL1   H2B 8449   3.350   2.403   7.154 -0.4160  2.0806 -0.3075
   81CHL1   C20 8450   3.241   2.639   8.090 -0.6845  0.5580 -0.1736
   81CHL1   H20 8451   3.343   2.683   8.089 -0.5534  0.3880  1.5389
   81CHL1   C21 8452   3.266   2.485   8.108  0.1824  0.2669  0.2542
   81CHL1  H21A 8453   3.289   2.455   8.213  1.4952 -0.7553 -0.2914
   81CHL1  H21B 8454   3.354   2.454   8.048  0.2404 -0.1057  0.5250
   81CHL1  H21C 8455   3.179   2.427   8.073  1.4118 -0.7930 -1.1847
   81CHL1   C22 8456   3.151   2.688   8.205  0.1379 -0.4766  0.2160
   81CHL1  H22A 8457   3.116   2.793   8.191 -1.1802 -0.7610  1.2510
   81CHL1  H22B 8458   3.065   2.618   8.207  0.7165 -1.3482 -1.9557
   81CHL1   C23 8459   3.213   2.668   8.343 -0.1011 -0.2006  0.0123
   81CHL1  H23A 8460   3.219   2.557   8.356 -0.2714 -0.3844 -1.3763
   81CHL1  H23B 8461   3.316   2.708   8.338  0.4314 -1.4810  0.1493
   81CHL1   C24 8462   3.135   2.721   8.462 -0.2264 -0.3968 -0.3128
   81CHL1  H24A 8463   3.195   2.702   8.553 -0.8022 -1.4923 -0.1505
   81CHL1  H24B 8464   3.110   2.828   8.446 -1.1508 -0.5623 -0.0253
   81CHL1   C25 8465   2.993   2.655   8.482 -0.2517 -0.0605 -0.1319
   81CHL1   H25 8466   2.930   2.657   8.390  0.9630 -0.0559 -0.9938
   81CHL1   C26 8467   3.019   2.507   8.524  0.6201 -0.5666 -0.0371
   81CHL1  H26A 8468   3.035   2.448   8.432 -1.6504  0.0955 -0.9293
   81CHL1  H26B 8469   3.096   2.492   8.603 -0.4544 -1.9567  0.7964
   81CHL1  H26C 8470   2.921   2.469   8.560  1.0836 -3.3406 -1.4210
   81CHL1   C27 8471   2.898   2.720   8.586 -0.2568 -0.6827 -0.6099
   81CHL1  H27A 8472   2.950   2.708   8.684  0.9097 -1.9620 -1.3492
   81CHL1  H27B 8473   2.889   2.828   8.563 -0.4416 -0.3849  0.7607
   81CHL1  H27C 8474   2.799   2.671   8.600  0.2432 -1.7306 -0.6214
   82CHL1    C3 8475   4.342   5.663   7.186  0.2998  0.0437  0.4169
   82CHL1    H3 8476   4.452   5.673   7.182  0.5285 -1.9775  0.7510
   82CHL1    O3 8477   4.302   5.699   7.054  0.4071 -0.3827 -0.4172
   82CHL1   H3' 8478   4.275   5.791   7.064  0.7436 -0.5048  2.1502
   82CHL1    C4 8479   4.316   5.514   7.213 -0.8831  1.2496 -0.5336
   82CHL1   H4A 8480   4.218   5.469   7.191 -0.6408 -1.2596  2.7150
   82CHL1   H4B 8481   4.381   5.459   7.141 -0.9260  0.0415  0.3213
   82CHL1    C5 8482   4.369   5.487   7.359  0.7916  0.2493  0.9805
   82CHL1    C6 8483   4.460   5.389   7.380 -0.5008 -0.0133  0.1667
   82CHL1    H6 8484   4.502   5.337   7.293 -1.5530  0.1362 -0.4481
   82CHL1    C7 8485   4.503   5.354   7.519 -0.7470  0.0050 -0.2193
   82CHL1   H7A 8486   4.536   5.250   7.536 -0.9249 -0.0040  0.0926
   82CHL1   H7B 8487   4.596   5.408   7.547  0.4025 -1.0813 -1.7820
   82CHL1    C8 8488   4.393   5.395   7.621 -0.4404  0.6808 -0.0624
   82CHL1    H8 8489   4.309   5.324   7.608 -0.3026  0.1030  1.9639
   82CHL1   C14 8490   4.451   5.376   7.761 -0.4852  0.7075 -0.1523
   82CHL1   H14 8491   4.533   5.449   7.771  1.9743 -1.9897  0.7187
   82CHL1   C15 8492   4.503   5.242   7.801  0.5112 -0.0473  0.1818
   82CHL1  H15A 8493   4.444   5.154   7.766  1.6076 -0.2343 -1.2427
   82CHL1  H15B 8494   4.603   5.231   7.754 -0.2794 -1.6737 -1.2364
   82CHL1   C16 8495   4.510   5.244   7.956  0.0031  0.8237 -0.5098
   82CHL1  H16A 8496   4.464   5.150   7.995  2.0571  0.7170  1.8428
   82CHL1  H16B 8497   4.619   5.241   7.977 -0.0543  1.4501 -0.1128
   82CHL1   C17 8498   4.441   5.384   7.989 -0.3540 -0.1519 -0.3785
   82CHL1   H17 8499   4.518   5.464   7.984  0.0437 -0.2546  2.3678
   82CHL1   C13 8500   4.354   5.419   7.878 -0.4398  0.4077 -0.4123
   82CHL1   C18 8501   4.234   5.323   7.870 -0.3236  0.0408 -0.4355
   82CHL1  H18A 8502   4.170   5.331   7.780  0.0118  0.3549 -0.6481
   82CHL1  H18B 8503   4.263   5.216   7.864  1.0557  0.4280 -1.0683
   82CHL1  H18C 8504   4.166   5.329   7.958 -0.7880  0.3786 -0.8184
   82CHL1   C12 8505   4.308   5.563   7.862 -0.1409  0.2938  0.3505
   82CHL1  H12A 8506   4.224   5.590   7.930 -0.3603  2.6952 -0.7717
   82CHL1  H12B 8507   4.399   5.622   7.883 -1.3226  2.0807  0.6342
   82CHL1   C11 8508   4.247   5.581   7.721  0.1464 -0.2639 -0.2697
   82CHL1  H11A 8509   4.161   5.510   7.722  0.7247 -0.9716  0.5667
   82CHL1  H11B 8510   4.209   5.685   7.713  0.9708  0.0859  0.2921
   82CHL1    C9 8511   4.344   5.543   7.606  0.4143  0.5656 -0.2467
   82CHL1    H9 8512   4.435   5.605   7.624 -0.8626  1.9430  1.9089
   82CHL1   C10 8513   4.292   5.570   7.467 -0.3299 -0.1709 -0.0190
   82CHL1   C19 8514   4.143   5.532   7.459  0.4126 -0.9272  0.7075
   82CHL1  H19A 8515   4.125   5.424   7.477 -1.9436 -1.2318 -2.4371
   82CHL1  H19B 8516   4.074   5.591   7.523 -0.1971 -0.1303 -0.6265
   82CHL1  H19C 8517   4.100   5.562   7.361 -2.6230 -1.5867  1.7293
   82CHL1    C1 8518   4.322   5.714   7.437  0.4031 -0.2838 -0.4463
   82CHL1   H1A 8519   4.274   5.784   7.508 -0.2900 -1.2765  0.0742
   82CHL1   H1B 8520   4.431   5.735   7.438  0.3507  0.0091 -0.6455
   82CHL1    C2 8521   4.279   5.752   7.294  0.5716  0.2477  0.6584
   82CHL1   H2A 8522   4.311   5.856   7.270  1.0993 -0.4100 -1.8015
   82CHL1   H2B 8523   4.169   5.754   7.286  0.6604 -0.9211 -2.2966
   82CHL1   C20 8524   4.373   5.390   8.129 -0.2089  0.3088  0.1230
   82CHL1   H20 8525   4.288   5.462   8.130 -0.3630  0.1302 -0.1276
   82CHL1   C21 8526   4.479   5.452   8.219 -0.2201 -0.3264 -0.2033
   82CHL1  H21A 8527   4.511   5.545   8.167 -2.4496  1.4929  1.4261
   82CHL1  H21B 8528   4.566   5.383   8.221  0.6650  0.7478 -0.7404
   82CHL1  H21C 8529   4.444   5.473   8.322  0.9840 -0.0108  0.1507
   82CHL1   C22 8530   4.319   5.260   8.189  0.7765  0.7028 -0.6323
   82CHL1  H22A 8531   4.253   5.210   8.115  1.9206 -1.5294 -0.2299
   82CHL1  H22B 8532   4.394   5.180   8.204  0.1515  0.0401 -0.9468
   82CHL1   C23 8533   4.250   5.278   8.329  0.4798 -0.1416  0.3399
   82CHL1  H23A 8534   4.333   5.294   8.400  0.7182  2.0524 -0.3794
   82CHL1  H23B 8535   4.188   5.369   8.337 -2.1469 -1.5081 -2.2764
   82CHL1   C24 8536   4.155   5.168   8.375  0.5018 -1.0850 -0.5871
   82CHL1  H24A 8537   4.058   5.182   8.323  0.2299  1.1357  0.3863
   82CHL1  H24B 8538   4.191   5.064   8.366  0.2399 -1.3616  1.2077
   82CHL1   C25 8539   4.131   5.172   8.534 -0.2265 -0.4888 -0.2817
   82CHL1   H25 8540   4.103   5.276   8.559  2.5051 -0.0918  1.6110
   82CHL1   C26 8541   4.022   5.081   8.590  0.0951  0.0436  0.5117
   82CHL1  H26A 8542   3.928   5.126   8.552  0.3788 -1.1680 -1.7937
   82CHL1  H26B 8543   4.028   4.979   8.548 -0.3030  0.1409  0.2111
   82CHL1  H26C 8544   4.033   5.080   8.700  2.4430 -2.2258  0.3609
   82CHL1   C27 8545   4.256   5.147   8.622  0.4406  0.1250  0.4569
   82CHL1  H27A 8546   4.335   5.225   8.624  0.7877 -0.1485  4.2161
   82CHL1  H27B 8547   4.225   5.133   8.727 -1.7462  1.0098 -0.0033
   82CHL1  H27C 8548   4.318   5.061   8.590  1.4745  1.6525 -2.0183
   83CHL1    C3 8549   6.585   1.907   7.190  0.1593  0.0473  1.2488
   83CHL1    H3 8550   6.693   1.927   7.208  1.1019 -0.9612 -2.3300
   83CHL1    O3 8551   6.545   1.976   7.074 -0.2392  0.0614  0.3692
   83CHL1   H3' 8552   6.452   1.958   7.060 -0.1100  0.7107 -1.6204
   83CHL1    C4 8553   6.562   1.752   7.165  0.1868  0.0853 -1.2622
   83CHL1   H4A 8554   6.458   1.734   7.133 -0.9946  0.6156  1.9066
   83CHL1   H4B 8555   6.630   1.724   7.082 -0.8117 -0.6557 -1.8477
   83CHL1    C5 8556   6.571   1.679   7.300  0.1500 -0.5510  0.2100
   83CHL1    C6 8557   6.663   1.584   7.317 -0.2079 -0.0152 -0.0273
   83CHL1    H6 8558   6.731   1.549   7.238 -1.7902 -2.5252 -0.3850
   83CHL1    C7 8559   6.667   1.499   7.444 -0.0638 -0.1422 -0.2790
   83CHL1   H7A 8560   6.674   1.396   7.403  1.5382  0.2831 -1.1502
   83CHL1   H7B 8561   6.763   1.515   7.499  0.8292  0.6850 -2.0023
   83CHL1    C8 8562   6.542   1.508   7.525  0.1089  0.5575 -0.4517
   83CHL1    H8 8563   6.468   1.458   7.460  0.9581 -0.3415 -0.7482
   83CHL1   C14 8564   6.570   1.432   7.655 -0.3364  0.4484 -0.2559
   83CHL1   H14 8565   6.655   1.486   7.702 -0.0598 -0.3481  0.1857
   83CHL1   C15 8566   6.621   1.289   7.645 -0.6587 -0.0792 -0.2767
   83CHL1  H15A 8567   6.559   1.225   7.578  0.0724 -0.1813 -0.8723
   83CHL1  H15B 8568   6.731   1.283   7.628 -0.8965 -1.5194 -1.4696
   83CHL1   C16 8569   6.592   1.231   7.788  0.2344 -0.5458  0.2408
   83CHL1  H16A 8570   6.530   1.140   7.779 -0.6728 -0.0385  1.1938
   83CHL1  H16B 8571   6.678   1.211   7.856 -1.4900 -1.6293  2.2079
   83CHL1   C17 8572   6.512   1.346   7.860  0.2078  0.0017  0.3735
   83CHL1   H17 8573   6.585   1.407   7.916  1.5122  0.7209 -1.9876
   83CHL1   C13 8574   6.453   1.437   7.747 -0.6149 -0.0964 -0.5148
   83CHL1   C18 8575   6.326   1.365   7.683  0.0958 -1.2494 -0.7420
   83CHL1  H18A 8576   6.306   1.413   7.585 -1.8672 -1.5446 -0.5354
   83CHL1  H18B 8577   6.355   1.260   7.663 -0.5048 -1.8172  1.1617
   83CHL1  H18C 8578   6.235   1.383   7.745  0.0904 -1.6171 -0.6437
   83CHL1   C12 8579   6.441   1.586   7.788 -0.7029 -0.3965  0.4160
   83CHL1  H12A 8580   6.374   1.598   7.876 -0.4538  0.7401  0.4637
   83CHL1  H12B 8581   6.539   1.619   7.830 -0.7591  0.0654  0.1834
   83CHL1   C11 8582   6.404   1.678   7.666  0.2437  0.2950  0.0298
   83CHL1  H11A 8583   6.298   1.660   7.640 -0.1701  1.5716  0.7530
   83CHL1  H11B 8584   6.419   1.783   7.701 -0.7367  0.0790  1.1362
   83CHL1    C9 8585   6.509   1.655   7.546  0.5107 -0.1833 -0.1677
   83CHL1    H9 8586   6.598   1.703   7.590 -0.2933  0.6529  0.5877
   83CHL1   C10 8587   6.472   1.724   7.413 -0.8062  0.3921 -0.2256
   83CHL1   C19 8588   6.327   1.702   7.371 -0.0400  0.7761  0.2145
   83CHL1  H19A 8589   6.304   1.750   7.273  1.5311  1.6054  0.2264
   83CHL1  H19B 8590   6.301   1.594   7.366 -1.6002  1.1195  0.3485
   83CHL1  H19C 8591   6.273   1.757   7.451  1.3267  1.2402  0.8502
   83CHL1    C1 8592   6.515   1.884   7.430 -0.0150 -0.0380 -0.2133
   83CHL1   H1A 8593   6.464   1.918   7.523  1.8056 -0.8966  1.1663
   83CHL1   H1B 8594   6.623   1.881   7.458 -0.7842 -0.4805  3.1226
   83CHL1    C2 8595   6.489   1.954   7.299  0.4329 -0.4308 -0.2303
   83CHL1   H2A 8596   6.522   2.057   7.321  0.6727 -0.6665  0.5677
   83CHL1   H2B 8597   6.382   1.956   7.273  0.0737  1.0921  1.1958
   83CHL1   C20 8598   6.410   1.288   7.957 -0.2294  0.1876 -0.4138
   83CHL1   H20 8599   6.327   1.237   7.905 -0.3453  0.2313 -0.2731
   83CHL1   C21 8600   6.361   1.396   8.053 -0.4339 -0.2440  0.5934
   83CHL1  H21A 8601   6.284   1.366   8.127 -0.0345  1.7371  1.8782
   83CHL1  H21B 8602   6.313   1.487   8.010 -0.7290  0.4069  2.2238
   83CHL1  H21C 8603   6.444   1.435   8.115  1.7030 -0.9117 -1.6989
   83CHL1   C22 8604   6.476   1.179   8.042  0.3830 -0.2885 -1.1194
   83CHL1  H22A 8605   6.488   1.085   7.984  1.4907 -1.6125  1.1043
   83CHL1  H22B 8606   6.583   1.197   8.065  0.5206 -1.2128 -0.9841
   83CHL1   C23 8607   6.410   1.149   8.179 -0.3826  0.4978  0.0065
   83CHL1  H23A 8608   6.435   1.233   8.248  0.3139 -0.5101  1.0169
   83CHL1  H23B 8609   6.302   1.131   8.160 -0.0399 -2.7352  0.5282
   83CHL1   C24 8610   6.468   1.023   8.254  0.5240  0.3759  0.5415
   83CHL1  H24A 8611   6.444   0.936   8.189  1.5301  1.9642 -2.1359
   83CHL1  H24B 8612   6.578   1.035   8.254  0.6435 -0.6626  0.7835
   83CHL1   C25 8613   6.421   0.990   8.395  0.8058 -0.1376  0.2830
   83CHL1   H25 8614   6.311   0.983   8.403  0.9062 -1.5906  0.6637
   83CHL1   C26 8615   6.458   0.850   8.444  0.1650 -0.0492  0.9469
   83CHL1  H26A 8616   6.567   0.836   8.459  0.4379  0.4020 -0.4599
   83CHL1  H26B 8617   6.405   0.829   8.540 -1.8688 -1.7718 -0.4483
   83CHL1  H26C 8618   6.425   0.769   8.375 -0.7591  1.5046 -0.5179
   83CHL1   C27 8619   6.474   1.094   8.493  0.4421 -0.5836 -0.6141
   83CHL1  H27A 8620   6.458   1.196   8.451  2.0371  0.0055  0.1264
   83CHL1  H27B 8621   6.447   1.070   8.598 -1.0460 -1.2381 -1.1188
   83CHL1  H27C 8622   6.585   1.081   8.492  0.3536 -1.4552 -0.2134
   84CHL1    C3 8623   1.889   2.113   6.997  0.1432  0.4187  1.4717
   84CHL1    H3 8624   1.797   2.057   7.025  0.0596  0.3366  1.0361
   84CHL1    O3 8625   1.932   2.080   6.864 -0.3649 -0.1964  0.1025
   84CHL1   H3' 8626   1.845   2.060   6.827 -0.3863  1.3815 -0.7777
   84CHL1    C4 8627   1.843   2.259   6.992  0.1255 -0.8344 -0.4934
   84CHL1   H4A 8628   1.919   2.316   6.934 -1.5714  2.7401  0.5041
   84CHL1   H4B 8629   1.755   2.267   6.924 -1.3126 -2.8331  1.0206
   84CHL1    C5 8630   1.819   2.320   7.127  0.3304 -0.0984  0.3112
   84CHL1    C6 8631   1.699   2.381   7.157  0.1937  0.7153 -0.0044
   84CHL1    H6 8632   1.626   2.393   7.076  0.3160 -0.1949 -0.2614
   84CHL1    C7 8633   1.659   2.445   7.288 -0.7059  0.7710  0.0326
   84CHL1   H7A 8634   1.617   2.547   7.271  0.4453  1.2137 -0.2208
   84CHL1   H7B 8635   1.598   2.372   7.346 -0.1726  0.1392 -0.1896
   84CHL1    C8 8636   1.791   2.478   7.379  0.5622 -0.1277 -0.2299
   84CHL1    H8 8637   1.842   2.567   7.335 -2.7842  1.3524 -1.4402
   84CHL1   C14 8638   1.747   2.518   7.521  0.4156 -0.6856  0.4117
   84CHL1   H14 8639   1.686   2.431   7.554 -1.6749 -0.8413 -3.2847
   84CHL1   C15 8640   1.656   2.642   7.542  0.1385 -0.3759 -0.5364
   84CHL1  H15A 8641   1.662   2.728   7.471 -1.1077  1.3584  1.3626
   84CHL1  H15B 8642   1.551   2.606   7.542  0.8247 -2.4914 -0.4056
   84CHL1   C16 8643   1.682   2.686   7.683  0.1528 -0.2190  0.3887
   84CHL1  H16A 8644   1.714   2.792   7.672 -0.1335 -0.2278 -0.7292
   84CHL1  H16B 8645   1.594   2.691   7.750 -0.1441  0.7453 -0.0621
   84CHL1   C17 8646   1.790   2.589   7.738 -0.1870 -0.0162  0.5294
   84CHL1   H17 8647   1.737   2.496   7.768  0.9549 -1.1799 -0.9303
   84CHL1   C13 8648   1.865   2.550   7.614 -1.3091  0.1768  0.7820
   84CHL1   C18 8649   1.954   2.666   7.558 -0.4747  0.6198  0.2100
   84CHL1  H18A 8650   1.903   2.765   7.563 -1.0100  0.2862  2.4034
   84CHL1  H18B 8651   2.044   2.677   7.623  1.3115  1.1902 -2.2193
   84CHL1  H18C 8652   1.995   2.637   7.459 -2.9666 -3.1154  0.0745
   84CHL1   C12 8653   1.947   2.417   7.620  0.1736 -0.2555 -0.9724
   84CHL1  H12A 8654   2.033   2.428   7.689  0.4068  2.6054 -1.5801
   84CHL1  H12B 8655   1.867   2.347   7.651  1.7025 -0.8874  1.8889
   84CHL1   C11 8656   1.996   2.359   7.482 -0.1136  0.4416  0.4912
   84CHL1  H11A 8657   2.083   2.422   7.453  0.8584 -1.1547 -0.2118
   84CHL1  H11B 8658   2.042   2.258   7.494 -0.8809 -0.0678 -0.6234
   84CHL1    C9 8659   1.881   2.352   7.377  0.3922 -0.2138  0.8053
   84CHL1    H9 8660   1.816   2.270   7.414  0.4135  0.0504  1.4302
   84CHL1   C10 8661   1.933   2.311   7.235 -0.2919  0.4408  0.8063
   84CHL1   C19 8662   2.068   2.383   7.200  0.5609 -0.5256 -0.2299
   84CHL1  H19A 8663   2.153   2.331   7.249  0.6591 -0.3370 -0.2005
   84CHL1  H19B 8664   2.084   2.390   7.090 -1.0810  1.2279 -0.4287
   84CHL1  H19C 8665   2.060   2.490   7.229  0.6226 -0.4144 -0.6134
   84CHL1    C1 8666   1.975   2.159   7.231 -0.6670  0.2879  0.5066
   84CHL1   H1A 8667   2.062   2.140   7.297 -0.3610 -1.7199 -0.4218
   84CHL1   H1B 8668   1.894   2.098   7.276  0.3936 -0.1493  1.9057
   84CHL1    C2 8669   2.010   2.103   7.100  0.3396  0.5121 -0.0477
   84CHL1   H2A 8670   2.046   1.999   7.115 -2.7632 -0.7964 -0.8453
   84CHL1   H2B 8671   2.100   2.146   7.052  2.5840 -2.6540  1.0226
   84CHL1   C20 8672   1.873   2.636   7.862 -0.1111  0.5873 -0.1152
   84CHL1   H20 8673   1.971   2.671   7.825  0.5357 -2.1740 -1.2677
   84CHL1   C21 8674   1.902   2.511   7.952  0.0122 -0.5385 -0.2440
   84CHL1  H21A 8675   1.978   2.534   8.030  1.0354 -1.5914 -0.9100
   84CHL1  H21B 8676   1.952   2.437   7.886  0.0191  0.2654 -1.1496
   84CHL1  H21C 8677   1.809   2.468   7.996  0.1031 -0.6406 -0.1500
   84CHL1   C22 8678   1.807   2.743   7.937  0.5838 -0.9418 -0.3130
   84CHL1  H22A 8679   1.778   2.832   7.877 -4.7033 -2.6926 -0.8412
   84CHL1  H22B 8680   1.705   2.702   7.955 -0.7229  1.8583 -0.8523
   84CHL1   C23 8681   1.870   2.784   8.071  0.0904  0.4461  0.1711
   84CHL1  H23A 8682   1.863   2.694   8.136  1.2473  1.0997  1.2376
   84CHL1  H23B 8683   1.975   2.819   8.061  0.1253 -0.1707 -2.4457
   84CHL1   C24 8684   1.787   2.892   8.145 -0.2356  0.4995  0.6828
   84CHL1  H24A 8685   1.797   2.992   8.096 -0.6147  0.2541  0.0958
   84CHL1  H24B 8686   1.678   2.868   8.144 -0.2370  0.5061  0.0392
   84CHL1   C25 8687   1.831   2.923   8.293  0.0406 -0.6122 -0.8634
   84CHL1   H25 8688   1.941   2.943   8.296 -0.0914  0.0375  0.7956
   84CHL1   C26 8689   1.761   3.050   8.349  0.5162 -0.2389 -0.0672
   84CHL1  H26A 8690   1.776   3.139   8.284 -0.0825 -1.7231 -2.3745
   84CHL1  H26B 8691   1.652   3.046   8.367  0.4546 -2.3388 -0.5563
   84CHL1  H26C 8692   1.807   3.070   8.448  2.0903 -1.5736 -0.4812
   84CHL1   C27 8693   1.796   2.809   8.393  0.6631 -0.4073  0.9527
   84CHL1  H27A 8694   1.685   2.798   8.392  0.5417  0.4640 -1.1352
   84CHL1  H27B 8695   1.847   2.714   8.365  0.6696  0.1624 -1.1427
   84CHL1  H27C 8696   1.817   2.842   8.497 -0.2979 -0.4201  1.1589
   85CHL1    C3 8697   1.894   0.136   6.613 -0.4183 -0.0811 -0.3001
   85CHL1    H3 8698   1.996   0.092   6.627 -0.5933  0.3886  3.4736
   85CHL1    O3 8699   1.870   0.143   6.475  0.2930 -0.2795 -0.1414
   85CHL1   H3' 8700   1.936   0.203   6.441  1.7566 -0.6422  1.8716
   85CHL1    C4 8701   1.801   0.045   6.675 -0.1978 -0.2071  0.0385
   85CHL1   H4A 8702   1.701   0.076   6.640  0.6165 -1.5507 -3.9378
   85CHL1   H4B 8703   1.817  -0.055   6.630 -0.4350  0.2505 -1.0860
   85CHL1    C5 8704   1.813   0.033   6.828  0.1110 -0.1560  0.0697
   85CHL1    C6 8705   1.850  -0.078   6.896 -0.3189  0.1066 -0.4846
   85CHL1    H6 8706   1.866  -0.173   6.843  2.2943 -0.5654  1.3300
   85CHL1    C7 8707   1.852  -0.098   7.048 -0.1476  0.8740 -0.0535
   85CHL1   H7A 8708   1.801  -0.194   7.073  0.0100  1.0845  1.0958
   85CHL1   H7B 8709   1.958  -0.103   7.080 -0.3000  0.7616  0.4486
   85CHL1    C8 8710   1.782   0.023   7.122 -0.4286  0.2695  0.6523
   85CHL1    H8 8711   1.675   0.011   7.094  0.0098 -1.7584 -0.3353
   85CHL1   C14 8712   1.812   0.017   7.269  0.0100  0.1966 -0.0456
   85CHL1   H14 8713   1.922   0.022   7.280 -0.1332 -0.3447  2.1590
   85CHL1   C15 8714   1.771  -0.111   7.341 -0.3874  0.4070 -0.0925
   85CHL1  H15A 8715   1.680  -0.164   7.306  0.2726 -0.8302  0.0155
   85CHL1  H15B 8716   1.857  -0.180   7.328  2.0760  3.4504 -1.2413
   85CHL1   C16 8717   1.772  -0.068   7.487  0.5215  0.1135 -0.1871
   85CHL1  H16A 8718   1.678  -0.096   7.541  1.3248 -1.3255  0.5200
   85CHL1  H16B 8719   1.863  -0.115   7.530  0.4477  1.1278  1.1726
   85CHL1   C17 8720   1.795   0.089   7.490  0.2373 -0.3995 -0.4989
   85CHL1   H17 8721   1.903   0.116   7.489 -0.0986  1.0359 -1.2557
   85CHL1   C13 8722   1.761   0.136   7.348  0.4669 -0.2897  0.4594
   85CHL1   C18 8723   1.606   0.140   7.329  0.2626 -0.5327 -0.7976
   85CHL1  H18A 8724   1.576   0.146   7.222 -0.4023 -0.1913 -0.5979
   85CHL1  H18B 8725   1.559   0.048   7.369  4.0713 -2.2186  0.2126
   85CHL1  H18C 8726   1.563   0.227   7.383 -0.2137 -1.2648  0.0247
   85CHL1   C12 8727   1.834   0.256   7.292  0.0676 -0.2380  1.3593
   85CHL1  H12A 8728   1.807   0.347   7.349 -2.7675  0.6722 -1.1898
   85CHL1  H12B 8729   1.944   0.245   7.304  0.4383 -1.9267 -2.2363
   85CHL1   C11 8730   1.813   0.286   7.142  0.1643 -0.5035 -0.3999
   85CHL1  H11A 8731   1.715   0.335   7.124 -0.6380 -1.9699 -0.2007
   85CHL1  H11B 8732   1.888   0.362   7.110  0.6988 -1.2631 -1.0209
   85CHL1    C9 8733   1.827   0.157   7.057 -0.0789  0.5180 -0.0153
   85CHL1    H9 8734   1.937   0.141   7.049  0.2179  1.3824  1.7697
   85CHL1   C10 8735   1.786   0.168   6.902 -0.3803 -0.4960  0.4588
   85CHL1   C19 8736   1.639   0.215   6.886 -0.1321 -0.3087  0.0269
   85CHL1  H19A 8737   1.566   0.136   6.916 -0.7431  0.1027 -0.3590
   85CHL1  H19B 8738   1.627   0.306   6.947  0.2781 -0.3400  0.1558
   85CHL1  H19C 8739   1.619   0.254   6.784 -0.1290  1.7230  0.7625
   85CHL1    C1 8740   1.886   0.272   6.834 -0.3559  0.1903  0.0710
   85CHL1   H1A 8741   1.862   0.372   6.874  0.4534 -0.2895  1.8597
   85CHL1   H1B 8742   1.989   0.243   6.862 -0.5478 -0.3442  0.2394
   85CHL1    C2 8743   1.880   0.273   6.681  0.1881  0.1417  0.2504
   85CHL1   H2A 8744   1.958   0.344   6.646  1.1930 -1.7401 -1.5051
   85CHL1   H2B 8745   1.780   0.313   6.654 -0.0867 -0.2555  0.6718
   85CHL1   C20 8746   1.725   0.159   7.616 -0.1053 -0.5853  0.1727
   85CHL1   H20 8747   1.615   0.147   7.604 -0.6096  0.6000  2.8941
   85CHL1   C21 8748   1.760   0.304   7.613 -0.3329  0.7135  0.3587
   85CHL1  H21A 8749   1.717   0.360   7.526  1.5819 -1.6310 -2.2857
   85CHL1  H21B 8750   1.870   0.310   7.622  0.2085 -0.6066 -3.5731
   85CHL1  H21C 8751   1.722   0.356   7.704  0.2333  1.2060  0.3168
   85CHL1   C22 8752   1.769   0.091   7.754 -0.2896  0.3783 -0.5237
   85CHL1  H22A 8753   1.716  -0.007   7.762  0.8652 -0.3723 -1.7790
   85CHL1  H22B 8754   1.878   0.077   7.765 -0.3768 -0.1243 -0.2377
   85CHL1   C23 8755   1.704   0.160   7.874  0.7722  0.1884 -0.0318
   85CHL1  H23A 8756   1.761   0.255   7.886  1.8532 -0.6916  2.3228
   85CHL1  H23B 8757   1.595   0.169   7.857  0.6364  0.6703  1.0137
   85CHL1   C24 8758   1.714   0.084   8.005  0.2671 -0.3126  0.8577
   85CHL1  H24A 8759   1.673  -0.019   8.012  1.6037 -0.8212  1.4655
   85CHL1  H24B 8760   1.824   0.084   8.015  0.4673  1.5992 -0.6842
   85CHL1   C25 8761   1.652   0.155   8.126  0.3609  0.4806  0.1435
   85CHL1   H25 8762   1.689   0.104   8.218 -0.3636 -0.9490 -0.3334
   85CHL1   C26 8763   1.701   0.304   8.145 -0.3049  0.0273  0.8383
   85CHL1  H26A 8764   1.647   0.369   8.072 -0.9992  0.4348  1.6949
   85CHL1  H26B 8765   1.675   0.347   8.244 -2.4426  1.4077 -0.2363
   85CHL1  H26C 8766   1.809   0.319   8.126 -0.4203  0.1730  0.2809
   85CHL1   C27 8767   1.500   0.134   8.133  0.1491  0.1990  0.4462
   85CHL1  H27A 8768   1.479   0.031   8.168  0.5411  0.0081  0.1263
   85CHL1  H27B 8769   1.454   0.207   8.204 -0.1104 -1.4861  2.1025
   85CHL1  H27C 8770   1.449   0.150   8.036  1.5088 -0.0486 -0.3223
   86CHL1    C3 8771   4.596   1.490   7.110 -0.0527 -0.2484 -0.7898
   86CHL1    H3 8772   4.489   1.459   7.110 -0.0078 -0.4141 -1.4516
   86CHL1    O3 8773   4.655   1.478   6.984  0.1755  0.1590  0.3950
   86CHL1   H3' 8774   4.628   1.389   6.961 -1.3400  0.2403  1.6427
   86CHL1    C4 8775   4.611   1.633   7.161  0.3315 -1.0530  1.1398
   86CHL1   H4A 8776   4.719   1.657   7.156 -0.0622  1.5371  3.0378
   86CHL1   H4B 8777   4.571   1.716   7.099  1.4177 -2.2656 -1.3411
   86CHL1    C5 8778   4.566   1.648   7.303 -0.0407 -0.2796 -0.4370
   86CHL1    C6 8779   4.465   1.735   7.330  0.1674  0.2479  0.3124
   86CHL1    H6 8780   4.425   1.798   7.250  0.4156  0.9579  0.7395
   86CHL1    C7 8781   4.400   1.757   7.464 -1.0983 -0.0458  0.1130
   86CHL1   H7A 8782   4.391   1.866   7.481 -0.9533 -0.0830  0.4409
   86CHL1   H7B 8783   4.294   1.726   7.459 -1.4076  1.1133 -0.7331
   86CHL1    C8 8784   4.480   1.692   7.578 -0.8230 -0.1428  0.6343
   86CHL1    H8 8785   4.570   1.753   7.599  0.8748 -3.0996  2.9002
   86CHL1   C14 8786   4.392   1.680   7.690  0.0600  1.3463 -0.0023
   86CHL1   H14 8787   4.328   1.599   7.649  2.3054 -0.0551 -0.9221
   86CHL1   C15 8788   4.304   1.792   7.731 -0.4348 -0.6669 -0.4880
   86CHL1  H15A 8789   4.348   1.892   7.712 -1.4518 -0.6343 -3.1299
   86CHL1  H15B 8790   4.207   1.790   7.676 -0.7081  5.0322 -0.8230
   86CHL1   C16 8791   4.268   1.776   7.875  0.2475 -0.2977 -0.3873
   86CHL1  H16A 8792   4.313   1.863   7.928 -0.3269 -0.5464  0.5390
   86CHL1  H16B 8793   4.158   1.771   7.891  0.2399  1.8328  0.6502
   86CHL1   C17 8794   4.338   1.650   7.917 -0.4693 -0.3361 -0.3045
   86CHL1   H17 8795   4.276   1.561   7.895  0.8377 -0.9888 -1.5153
   86CHL1   C13 8796   4.462   1.628   7.824  1.4193  0.6129  0.9086
   86CHL1   C18 8797   4.572   1.722   7.874  0.2662 -0.1396 -0.4737
   86CHL1  H18A 8798   4.638   1.756   7.790  0.9603  1.6524  0.7301
   86CHL1  H18B 8799   4.533   1.816   7.919  0.9494 -0.3599  0.6128
   86CHL1  H18C 8800   4.635   1.677   7.953  2.0136  2.1216 -0.4494
   86CHL1   C12 8801   4.510   1.484   7.787  0.0188  0.3713  0.8136
   86CHL1  H12A 8802   4.550   1.427   7.873  1.0687  0.3877  0.3562
   86CHL1  H12B 8803   4.416   1.435   7.753 -0.5843  1.9597  0.0610
   86CHL1   C11 8804   4.595   1.483   7.659  0.1860 -0.5407  0.0170
   86CHL1  H11A 8805   4.686   1.530   7.700 -0.7397 -1.8925  4.0949
   86CHL1  H11B 8806   4.627   1.378   7.642 -0.0346 -0.9766  2.1094
   86CHL1    C9 8807   4.532   1.559   7.539  0.8006  1.1447 -0.2377
   86CHL1    H9 8808   4.442   1.502   7.507  1.0594  0.5810  0.0240
   86CHL1   C10 8809   4.622   1.553   7.409 -1.3847 -0.2622 -0.1884
   86CHL1   C19 8810   4.765   1.601   7.453 -0.2721  0.0572  0.2489
   86CHL1  H19A 8811   4.812   1.529   7.522  0.5373 -1.8447 -2.1191
   86CHL1  H19B 8812   4.832   1.611   7.365 -0.0157  3.0308  0.6928
   86CHL1  H19C 8813   4.751   1.704   7.492  1.7500  0.6849 -0.5619
   86CHL1    C1 8814   4.621   1.414   7.351 -0.0175  0.1854 -0.7307
   86CHL1   H1A 8815   4.666   1.338   7.418 -1.7902 -2.5916 -2.4850
   86CHL1   H1B 8816   4.515   1.381   7.347  0.1406 -0.6906  1.1995
   86CHL1    C2 8817   4.674   1.394   7.211  0.7832  0.9113  0.4883
   86CHL1   H2A 8818   4.643   1.296   7.170  0.7242  1.6664 -1.3943
   86CHL1   H2B 8819   4.784   1.401   7.217  1.2014 -1.7901 -1.9070
   86CHL1   C20 8820   4.367   1.639   8.071  0.6808 -0.1076  0.7369
   86CHL1   H20 8821   4.438   1.724   8.088  0.2103  0.7434 -1.2678
   86CHL1   C21 8822   4.432   1.510   8.112 -0.3965  0.4565  0.0795
   86CHL1  H21A 8823   4.358   1.431   8.084  0.1459  0.2998 -0.9240
   86CHL1  H21B 8824   4.462   1.502   8.219  0.9788  2.5236 -0.1118
   86CHL1  H21C 8825   4.523   1.486   8.054 -2.2960 -0.7986 -2.6173
   86CHL1   C22 8826   4.241   1.666   8.153  0.2057 -0.9635  0.4578
   86CHL1  H22A 8827   4.210   1.771   8.130  0.7921 -0.7685  0.5612
   86CHL1  H22B 8828   4.152   1.608   8.120 -0.1168 -1.8314  2.6878
   86CHL1   C23 8829   4.259   1.660   8.304  0.1324  0.0023  0.2128
   86CHL1  H23A 8830   4.291   1.561   8.344 -0.9590 -0.5509 -0.2448
   86CHL1  H23B 8831   4.329   1.740   8.335  1.6244 -1.1263 -0.0800
   86CHL1   C24 8832   4.123   1.702   8.379 -0.0022 -0.0597  0.1463
   86CHL1  H24A 8833   4.114   1.809   8.351  1.8835 -0.2988 -1.6022
   86CHL1  H24B 8834   4.038   1.636   8.348  0.4317  0.1636 -1.6307
   86CHL1   C25 8835   4.124   1.680   8.538  0.1581 -0.2678 -0.2030
   86CHL1   H25 8836   4.128   1.570   8.557  0.0903 -0.1375  0.5885
   86CHL1   C26 8837   4.238   1.753   8.612  0.1278  0.3407  0.4723
   86CHL1  H26A 8838   4.331   1.731   8.555 -1.0710  0.2370 -1.5109
   86CHL1  H26B 8839   4.217   1.861   8.598 -1.6424 -0.0791 -0.2951
   86CHL1  H26C 8840   4.247   1.720   8.718  0.0103  4.0535  1.8048
   86CHL1   C27 8841   3.988   1.710   8.599 -0.2024 -0.1927  0.5820
   86CHL1  H27A 8842   3.979   1.664   8.700  0.2127  0.7330  1.0572
   86CHL1  H27B 8843   3.966   1.819   8.607 -0.6863 -0.2008 -0.5363
   86CHL1  H27C 8844   3.913   1.665   8.531 -1.9517  1.2293  1.4748
   87CHL1    C3 8845   2.550   2.591   7.086 -0.4756 -0.1615 -0.9893
   87CHL1    H3 8846   2.605   2.688   7.086 -0.9861  0.1559 -2.2698
   87CHL1    O3 8847   2.542   2.541   6.956 -1.3015  0.0321  0.4410
   87CHL1   H3' 8848   2.491   2.462   6.974  0.4738 -1.0065  1.2094
   87CHL1    C4 8849   2.621   2.480   7.174 -0.6132 -0.2689 -0.6185
   87CHL1   H4A 8850   2.561   2.388   7.154 -2.4064  0.4583  1.1202
   87CHL1   H4B 8851   2.723   2.459   7.134  0.7788  1.6978  1.6331
   87CHL1    C5 8852   2.617   2.511   7.324 -0.5423 -1.0988  0.2277
   87CHL1    C6 8853   2.732   2.548   7.390  0.2360  0.7857  0.6212
   87CHL1    H6 8854   2.822   2.528   7.331  0.0917 -1.3786  1.0509
   87CHL1    C7 8855   2.747   2.594   7.533  0.0136  0.1057 -0.1356
   87CHL1   H7A 8856   2.825   2.537   7.588 -0.2789 -0.7307 -0.5689
   87CHL1   H7B 8857   2.782   2.699   7.527  1.6465 -0.4837 -1.7324
   87CHL1    C8 8858   2.610   2.574   7.611 -0.1170 -0.3445  0.9431
   87CHL1    H8 8859   2.593   2.466   7.633  1.9968 -0.9895 -0.3296
   87CHL1   C14 8860   2.604   2.657   7.739  0.0093 -0.6332  0.5437
   87CHL1   H14 8861   2.618   2.762   7.705  0.2837 -1.0765 -0.7766
   87CHL1   C15 8862   2.719   2.636   7.839 -0.6532 -0.4916 -0.9905
   87CHL1  H15A 8863   2.750   2.530   7.856 -1.1181 -0.4351  0.2647
   87CHL1  H15B 8864   2.806   2.692   7.800 -1.1628  1.8496  1.0428
   87CHL1   C16 8865   2.672   2.703   7.964  0.0608 -0.7118  0.3533
   87CHL1  H16A 8866   2.677   2.632   8.049 -1.1679 -0.9002  0.2825
   87CHL1  H16B 8867   2.739   2.783   8.002 -0.0132 -0.4018 -0.1489
   87CHL1   C17 8868   2.525   2.749   7.946 -0.4398  0.7862 -0.5281
   87CHL1   H17 8869   2.527   2.853   7.907 -2.3092  0.9668 -0.1903
   87CHL1   C13 8870   2.480   2.652   7.824  0.4075 -0.2210 -0.4444
   87CHL1   C18 8871   2.451   2.511   7.872  0.6221 -0.1956 -0.0665
   87CHL1  H18A 8872   2.422   2.442   7.790 -0.5645 -0.1351  0.2813
   87CHL1  H18B 8873   2.528   2.469   7.940  0.5318  1.5864  1.2292
   87CHL1  H18C 8874   2.362   2.519   7.938  0.5062 -1.9365  0.0338
   87CHL1   C12 8875   2.360   2.697   7.735  1.0961 -0.0216 -0.1134
   87CHL1  H12A 8876   2.269   2.667   7.791  1.2380  0.1295  0.2007
   87CHL1  H12B 8877   2.355   2.806   7.718  1.7638  0.2815  1.4845
   87CHL1   C11 8878   2.355   2.617   7.599 -0.0223 -0.5343 -0.4606
   87CHL1  H11A 8879   2.316   2.515   7.622 -0.7362 -0.1120  0.2747
   87CHL1  H11B 8880   2.286   2.680   7.539  1.0082  0.2529 -0.8523
   87CHL1    C9 8881   2.490   2.611   7.526 -0.3413  0.0518  0.0339
   87CHL1    H9 8882   2.515   2.718   7.510 -0.9223  0.3949  1.2937
   87CHL1   C10 8883   2.480   2.547   7.379 -1.0030  0.5944 -0.3473
   87CHL1   C19 8884   2.389   2.421   7.395 -0.1253 -0.2196 -0.5278
   87CHL1  H19A 8885   2.390   2.362   7.301  1.1500 -0.5398 -0.3402
   87CHL1  H19B 8886   2.432   2.360   7.478  0.5227  1.0636  0.1234
   87CHL1  H19C 8887   2.281   2.443   7.407 -0.3419 -1.6473  0.3588
   87CHL1    C1 8888   2.416   2.645   7.282  0.2526 -0.5300  0.1239
   87CHL1   H1A 8889   2.313   2.668   7.318  0.2601 -0.2755 -0.0123
   87CHL1   H1B 8890   2.472   2.740   7.295 -2.0938  1.2524 -1.6837
   87CHL1    C2 8891   2.409   2.619   7.136  0.1587 -0.5474 -0.2700
   87CHL1   H2A 8892   2.367   2.700   7.072 -0.5796 -1.7998 -1.4241
   87CHL1   H2B 8893   2.353   2.525   7.116  3.0392 -2.4335 -0.0952
   87CHL1   C20 8894   2.443   2.733   8.077 -0.7738  0.5050  0.1189
   87CHL1   H20 8895   2.455   2.628   8.112 -1.4733  0.7523  1.1478
   87CHL1   C21 8896   2.293   2.770   8.047  0.1160  0.3726  0.4311
   87CHL1  H21A 8897   2.240   2.770   8.145  0.4410  2.8354  0.6723
   87CHL1  H21B 8898   2.242   2.697   7.981 -1.6427  2.3419 -0.4922
   87CHL1  H21C 8899   2.287   2.870   7.999  0.9775  0.8159  1.2027
   87CHL1   C22 8900   2.495   2.825   8.193  0.0558 -0.4063 -0.1902
   87CHL1  H22A 8901   2.603   2.802   8.198  0.5170  1.6676  0.2169
   87CHL1  H22B 8902   2.496   2.932   8.162  1.0887  0.2232  1.7917
   87CHL1   C23 8903   2.435   2.810   8.335  0.0807 -0.2971 -0.3182
   87CHL1  H23A 8904   2.328   2.839   8.325  0.2058  0.1456 -0.4072
   87CHL1  H23B 8905   2.439   2.708   8.379  0.2761  0.0557  0.5158
   87CHL1   C24 8906   2.509   2.912   8.425 -0.1801 -0.4815 -0.0597
   87CHL1  H24A 8907   2.617   2.885   8.432  0.5294  2.3707  2.1857
   87CHL1  H24B 8908   2.490   3.009   8.374 -3.6296  0.6184  2.8947
   87CHL1   C25 8909   2.458   2.929   8.570 -0.2638  0.2754 -0.2845
   87CHL1   H25 8910   2.348   2.940   8.574 -0.1184  1.4602  2.5639
   87CHL1   C26 8911   2.497   2.801   8.649  0.7777 -0.1335  0.1688
   87CHL1  H26A 8912   2.606   2.781   8.650  0.4999 -1.7893  0.2300
   87CHL1  H26B 8913   2.478   2.827   8.756  2.6428  0.4449  0.3938
   87CHL1  H26C 8914   2.436   2.715   8.614 -3.9909  3.5292 -1.8067
   87CHL1   C27 8915   2.507   3.054   8.655  0.3085  0.7365 -0.1155
   87CHL1  H27A 8916   2.445   3.061   8.747 -3.2013  3.0770 -2.4093
   87CHL1  H27B 8917   2.617   3.048   8.669  0.2634  1.7411  0.8162
   87CHL1  H27C 8918   2.479   3.146   8.598 -1.7704  0.2215 -0.0067
   88CHL1    C3 8919   0.253   2.066   6.984 -0.5918  0.7507 -0.2600
   88CHL1    H3 8920   0.147   2.037   6.976  0.3632 -2.6447 -2.5789
   88CHL1    O3 8921   0.290   2.134   6.866 -0.4465 -0.1946  0.0388
   88CHL1   H3' 8922   0.386   2.131   6.860 -0.5359 -1.1566 -1.9558
   88CHL1    C4 8923   0.273   2.163   7.101 -0.1980  0.3502 -0.5948
   88CHL1   H4A 8924   0.382   2.184   7.105 -0.0069 -0.5191 -1.0371
   88CHL1   H4B 8925   0.219   2.259   7.092  0.9481  1.2212  1.0504
   88CHL1    C5 8926   0.226   2.097   7.231  0.0228 -0.2328 -0.4846
   88CHL1    C6 8927   0.126   2.146   7.306 -0.0754 -0.4299 -0.2300
   88CHL1    H6 8928   0.078   2.240   7.273 -0.6130  0.3123  2.4285
   88CHL1    C7 8929   0.059   2.079   7.426  0.1905 -0.3080  0.1524
   88CHL1   H7A 8930   0.029   2.156   7.501 -0.2689 -0.2449 -0.0931
   88CHL1   H7B 8931  -0.030   2.027   7.385 -0.0963 -1.3638  1.9935
   88CHL1    C8 8932   0.156   1.971   7.489 -0.3838  0.5180  0.5367
   88CHL1    H8 8933   0.234   2.033   7.537 -0.6254  0.6469  0.7617
   88CHL1   C14 8934   0.094   1.882   7.590  0.0640  0.3065 -0.3098
   88CHL1   H14 8935   0.021   1.826   7.527  1.5374 -0.6485 -1.2480
   88CHL1   C15 8936   0.003   1.939   7.698 -0.1259  0.1575  0.1950
   88CHL1  H15A 8937   0.069   2.016   7.744  1.5039 -1.6711  1.0680
   88CHL1  H15B 8938  -0.098   1.969   7.663 -0.1997  0.3259  0.5507
   88CHL1   C16 8939  -0.012   1.827   7.803 -0.1984 -0.0956 -0.0186
   88CHL1  H16A 8940   0.012   1.879   7.898 -0.6191  0.2969 -0.1265
   88CHL1  H16B 8941  -0.111   1.780   7.820 -0.1809 -1.2452 -2.6663
   88CHL1   C17 8942   0.087   1.715   7.759  0.6154  0.4934 -0.0605
   88CHL1   H17 8943   0.022   1.658   7.689  2.1608  1.0026 -2.0002
   88CHL1   C13 8944   0.176   1.774   7.651  0.2410 -0.5825 -0.2991
   88CHL1   C18 8945   0.296   1.841   7.723  0.1718 -0.4576  0.2535
   88CHL1  H18A 8946   0.353   1.766   7.783 -0.8809 -2.9860 -1.7191
   88CHL1  H18B 8947   0.367   1.887   7.652 -2.7033  0.4097 -2.2314
   88CHL1  H18C 8948   0.260   1.914   7.799 -0.5973 -0.0271 -0.5071
   88CHL1   C12 8949   0.213   1.682   7.537 -0.0406  0.5374  0.1597
   88CHL1  H12A 8950   0.276   1.600   7.579  0.5101  1.8620  2.0772
   88CHL1  H12B 8951   0.118   1.641   7.496 -0.1747  0.5770  0.4307
   88CHL1   C11 8952   0.290   1.758   7.422  0.0479 -0.0548  0.0679
   88CHL1  H11A 8953   0.386   1.788   7.470  1.0246 -1.4048 -0.9574
   88CHL1  H11B 8954   0.316   1.691   7.337 -1.2467 -1.2497  0.5691
   88CHL1    C9 8955   0.221   1.886   7.372  0.4416 -0.1245 -0.0365
   88CHL1    H9 8956   0.131   1.854   7.315  0.6168 -1.4448  0.4154
   88CHL1   C10 8957   0.299   1.961   7.259  0.3698 -0.6872  0.7493
   88CHL1   C19 8958   0.442   1.997   7.308  0.3921  0.2629 -0.6459
   88CHL1  H19A 8959   0.505   1.910   7.333  0.1168  0.5010  0.9507
   88CHL1  H19B 8960   0.490   2.058   7.228 -1.6344  1.4886 -1.0002
   88CHL1  H19C 8961   0.433   2.061   7.398 -1.5096 -0.3593 -0.3583
   88CHL1    C1 8962   0.299   1.872   7.133  0.5264 -0.0191 -0.3942
   88CHL1   H1A 8963   0.361   1.783   7.156 -0.9287 -0.3877  2.5984
   88CHL1   H1B 8964   0.194   1.843   7.112 -0.2579  1.9521  0.5471
   88CHL1    C2 8965   0.338   1.940   7.005  0.9136  1.0106 -0.0587
   88CHL1   H2A 8966   0.327   1.877   6.914  0.3423  2.7848 -1.2603
   88CHL1   H2B 8967   0.446   1.964   7.011  1.1889  0.0223 -0.8504
   88CHL1   C20 8968   0.138   1.629   7.875 -0.6364 -0.2581 -0.3935
   88CHL1   H20 8969   0.211   1.688   7.934  0.1192 -2.4266  0.9392
   88CHL1   C21 8970   0.204   1.506   7.821  0.2847  0.6446  0.1201
   88CHL1  H21A 8971   0.237   1.432   7.897 -0.7517 -1.2061 -1.1786
   88CHL1  H21B 8972   0.298   1.538   7.770  0.4639 -1.0030 -0.6334
   88CHL1  H21C 8973   0.138   1.466   7.742  1.6565 -0.1504 -0.6555
   88CHL1   C22 8974   0.030   1.595   7.973  0.3477  0.1757 -0.3985
   88CHL1  H22A 8975  -0.025   1.686   8.007 -0.9373 -0.3679 -0.9325
   88CHL1  H22B 8976  -0.037   1.522   7.922  0.6821 -0.9814  0.7831
   88CHL1   C23 8977   0.079   1.514   8.093 -0.8764  0.3568 -0.2241
   88CHL1  H23A 8978   0.118   1.416   8.059  3.2477  1.9040 -0.4103
   88CHL1  H23B 8979   0.168   1.560   8.140 -0.8654 -0.3620  0.4682
   88CHL1   C24 8980  -0.023   1.469   8.196 -0.2652  0.1207  0.1592
   88CHL1  H24A 8981  -0.093   1.553   8.219 -1.3644 -1.0757  1.3866
   88CHL1  H24B 8982  -0.104   1.401   8.161 -1.0498  0.6634  0.8547
   88CHL1   C25 8983   0.040   1.411   8.325  0.5144 -0.2884  0.7410
   88CHL1   H25 8984   0.114   1.332   8.298  2.0225  0.8397  1.4347
   88CHL1   C26 8985   0.109   1.514   8.406 -0.6930 -0.1420  0.0151
   88CHL1  H26A 8986   0.155   1.468   8.495  0.8284  1.2236 -0.0081
   88CHL1  H26B 8987   0.186   1.574   8.352 -0.7831  0.4765  0.5538
   88CHL1  H26C 8988   0.030   1.581   8.446 -1.4983 -0.0832 -1.5904
   88CHL1   C27 8989  -0.066   1.330   8.399  0.4876 -0.1701  0.0249
   88CHL1  H27A 8990  -0.026   1.273   8.486  2.3992 -0.4357 -0.9790
   88CHL1  H27B 8991  -0.156   1.384   8.436  0.2651 -0.0935 -0.6185
   88CHL1  H27C 8992  -0.104   1.250   8.332  0.8175  0.2562 -0.6764
   89CHL1    C3 8993   5.292   6.467   6.974 -0.3903  0.2648 -0.1617
   89CHL1    H3 8994   5.248   6.368   7.000 -2.0313  1.1891  0.7382
   89CHL1    O3 8995   5.301   6.481   6.831  0.1778  0.1310  0.5749
   89CHL1   H3' 8996   5.211   6.496   6.800  0.8329  1.3396 -0.8848
   89CHL1    C4 8997   5.216   6.581   7.034 -0.6061  0.5768  0.2240
   89CHL1   H4A 8998   5.254   6.673   6.984  0.1235 -0.0762 -0.4639
   89CHL1   H4B 8999   5.115   6.583   6.987 -0.5507 -1.8043 -0.1189
   89CHL1    C5 9000   5.226   6.577   7.184  0.0128 -0.1943  0.1187
   89CHL1    C6 9001   5.115   6.575   7.259  0.2495 -0.7825 -0.5320
   89CHL1    H6 9002   5.015   6.598   7.219 -0.1380 -1.5721 -0.0502
   89CHL1    C7 9003   5.116   6.580   7.412 -0.3910  0.2213  0.7179
   89CHL1   H7A 9004   5.043   6.654   7.451 -0.4487  1.1797 -1.0784
   89CHL1   H7B 9005   5.101   6.479   7.455  0.9314  0.0701  0.8862
   89CHL1    C8 9006   5.255   6.619   7.465  0.6552  1.4768 -0.1490
   89CHL1    H8 9007   5.266   6.729   7.456  2.9753  1.3208  0.1042
   89CHL1   C14 9008   5.268   6.575   7.611 -1.0376 -0.5471 -0.1788
   89CHL1   H14 9009   5.263   6.465   7.622 -0.9493 -0.4187  1.2122
   89CHL1   C15 9010   5.150   6.622   7.702 -0.3890 -0.3050 -0.7341
   89CHL1  H15A 9011   5.134   6.731   7.689  1.4532  0.0254 -0.5100
   89CHL1  H15B 9012   5.055   6.565   7.695 -0.7837 -0.0599  1.6556
   89CHL1   C16 9013   5.208   6.593   7.838 -0.0341  0.0760  0.4103
   89CHL1  H16A 9014   5.193   6.683   7.901  0.0285  1.6989 -1.7339
   89CHL1  H16B 9015   5.158   6.504   7.881  1.3959 -1.5185 -1.0636
   89CHL1   C17 9016   5.363   6.579   7.820  0.7446 -0.2265 -0.2941
   89CHL1   H17 9017   5.387   6.473   7.841 -0.0581 -0.6452 -1.3769
   89CHL1   C13 9018   5.397   6.620   7.678 -0.1124 -1.1228  0.2252
   89CHL1   C18 9019   5.409   6.778   7.665 -0.2595  0.0342 -0.2863
   89CHL1  H18A 9020   5.422   6.816   7.562 -0.6784 -0.1770 -0.4228
   89CHL1  H18B 9021   5.322   6.824   7.717  1.4389  2.6127  0.4664
   89CHL1  H18C 9022   5.492   6.806   7.733 -0.8584 -0.5878  0.7394
   89CHL1   C12 9023   5.509   6.541   7.608 -0.2489  0.0099  0.6904
   89CHL1  H12A 9024   5.608   6.560   7.655  0.1184 -1.5138  0.6009
   89CHL1  H12B 9025   5.499   6.432   7.623  1.1274 -0.1972  0.2795
   89CHL1   C11 9026   5.510   6.561   7.453  0.0527 -0.4556 -0.5398
   89CHL1  H11A 9027   5.537   6.668   7.441  1.8444 -0.7290  0.5395
   89CHL1  H11B 9028   5.582   6.493   7.402  0.9562  1.3871 -1.8097
   89CHL1    C9 9029   5.369   6.544   7.387 -0.3754  0.1235 -0.1942
   89CHL1    H9 9030   5.347   6.436   7.394  2.7702 -0.6997 -1.4238
   89CHL1   C10 9031   5.367   6.572   7.235 -0.3292  0.2654  0.3046
   89CHL1   C19 9032   5.433   6.709   7.214  0.9073 -0.0084 -0.2949
   89CHL1  H19A 9033   5.378   6.787   7.270  2.2888  0.4679  0.4501
   89CHL1  H19B 9034   5.540   6.719   7.243  0.6857  2.0057  0.0036
   89CHL1  H19C 9035   5.435   6.740   7.107 -0.3070  0.1022 -0.2957
   89CHL1    C1 9036   5.447   6.456   7.168  0.2862  0.0254  0.1773
   89CHL1   H1A 9037   5.556   6.459   7.190  0.2794  0.4057  0.1673
   89CHL1   H1B 9038   5.398   6.365   7.209  2.6079 -1.1693  0.4536
   89CHL1    C2 9039   5.443   6.460   7.014  0.3239 -0.4829  0.0317
   89CHL1   H2A 9040   5.497   6.373   6.970  0.3737 -0.5300  0.1868
   89CHL1   H2B 9041   5.495   6.549   6.971 -0.3832  0.6213  1.3507
   89CHL1   C20 9042   5.442   6.644   7.939 -0.5912 -0.3768 -0.8421
   89CHL1   H20 9043   5.425   6.754   7.942  2.1565  0.1037  1.3376
   89CHL1   C21 9044   5.595   6.628   7.932 -0.6375 -0.1414 -0.7878
   89CHL1  H21A 9045   5.632   6.527   7.906  0.4802  0.2506 -0.7848
   89CHL1  H21B 9046   5.649   6.658   8.024  0.1365 -2.4051 -0.4626
   89CHL1  H21C 9047   5.630   6.702   7.857  0.8268  1.0106  0.9439
   89CHL1   C22 9048   5.399   6.588   8.073 -0.1556 -0.3657  0.3650
   89CHL1  H22A 9049   5.293   6.554   8.066  0.1296 -0.9241 -2.2929
   89CHL1  H22B 9050   5.456   6.493   8.082  1.5073  0.5913  0.3381
   89CHL1   C23 9051   5.418   6.683   8.184 -0.3104 -0.6360  0.2023
   89CHL1  H23A 9052   5.524   6.715   8.190 -0.7239  1.0825 -0.8466
   89CHL1  H23B 9053   5.353   6.772   8.169  0.1713 -0.3843 -0.4522
   89CHL1   C24 9054   5.377   6.617   8.320 -0.5090  0.6854  0.5867
   89CHL1  H24A 9055   5.269   6.592   8.326 -0.0046 -2.4923 -1.3722
   89CHL1  H24B 9056   5.441   6.527   8.334  0.1907  0.8987 -0.9978
   89CHL1   C25 9057   5.403   6.709   8.444  0.4429  0.3250  0.0219
   89CHL1   H25 9058   5.379   6.646   8.532 -3.0677  0.9571 -0.3191
   89CHL1   C26 9059   5.543   6.758   8.451  0.5875 -0.4790 -0.6361
   89CHL1  H26A 9060   5.595   6.664   8.480 -2.8709 -1.9893  1.1818
   89CHL1  H26B 9061   5.599   6.802   8.365  0.3682  1.8077  0.3315
   89CHL1  H26C 9062   5.562   6.829   8.534 -1.3197  1.7824 -1.9974
   89CHL1   C27 9063   5.307   6.832   8.443 -0.3904  0.8369 -0.6383
   89CHL1  H27A 9064   5.319   6.917   8.372 -2.5236  2.5275  0.8823
   89CHL1  H27B 9065   5.207   6.788   8.420  0.5774 -1.3604 -0.9254
   89CHL1  H27C 9066   5.310   6.873   8.546 -2.4115  0.1332 -0.2410
   90CHL1    C3 9067   4.948   2.619   7.041 -0.1948 -0.5788 -0.7198
   90CHL1    H3 9068   4.950   2.728   7.062  0.9644 -1.0066  1.7807
   90CHL1    O3 9069   4.976   2.613   6.907 -0.5127 -0.1199  0.0795
   90CHL1   H3' 9070   4.913   2.553   6.865  2.2491 -2.5682 -0.9429
   90CHL1    C4 9071   5.070   2.575   7.115  1.4062  0.0902  0.1051
   90CHL1   H4A 9072   5.086   2.470   7.082  1.8022 -0.3008  1.4654
   90CHL1   H4B 9073   5.156   2.638   7.082  3.0902 -2.3741 -0.4597
   90CHL1    C5 9074   5.066   2.562   7.259  0.2246 -0.0858 -0.2272
   90CHL1    C6 9075   5.155   2.618   7.344  0.6265 -0.2996  0.3168
   90CHL1    H6 9076   5.240   2.668   7.296  0.0933 -0.5461 -0.9134
   90CHL1    C7 9077   5.148   2.617   7.490  0.2689  0.0910 -0.0947
   90CHL1   H7A 9078   5.247   2.585   7.526  0.7708  0.7216 -0.8704
   90CHL1   H7B 9079   5.124   2.715   7.538 -0.8049 -0.3491  0.2911
   90CHL1    C8 9080   5.041   2.516   7.545 -0.2887 -0.5620 -0.3692
   90CHL1    H8 9081   5.084   2.414   7.554  0.8964 -0.1074 -0.6200
   90CHL1   C14 9082   5.001   2.551   7.690  0.1442 -0.2601 -0.1326
   90CHL1   H14 9083   4.959   2.654   7.681 -2.6398 -1.3299 -0.2424
   90CHL1   C15 9084   5.123   2.566   7.796  0.3446  0.5574  0.0430
   90CHL1  H15A 9085   5.183   2.474   7.784 -0.9069 -0.2351 -0.3570
   90CHL1  H15B 9086   5.170   2.664   7.770 -1.9444  1.4691 -0.9892
   90CHL1   C16 9087   5.056   2.564   7.931  0.2641 -0.0820  0.1515
   90CHL1  H16A 9088   5.090   2.471   7.981  0.1395 -0.4260 -0.3919
   90CHL1  H16B 9089   5.079   2.657   7.986  2.4634  1.7261 -3.4290
   90CHL1   C17 9090   4.902   2.544   7.903  0.2908  0.2254  0.1729
   90CHL1   H17 9091   4.853   2.643   7.895  0.8413  0.4985  0.1851
   90CHL1   C13 9092   4.887   2.477   7.756  0.5490 -0.5663  0.0795
   90CHL1   C18 9093   4.923   2.327   7.770  0.4123  0.2100 -0.6425
   90CHL1  H18A 9094   4.978   2.278   7.687  1.2461 -1.6327  0.9266
   90CHL1  H18B 9095   4.992   2.311   7.856  0.5399 -2.3636 -1.1647
   90CHL1  H18C 9096   4.836   2.261   7.788  0.8965 -0.2571  0.0800
   90CHL1   C12 9097   4.759   2.494   7.672 -0.0491 -0.2294  0.2062
   90CHL1  H12A 9098   4.669   2.440   7.708  1.6848 -1.5543  2.8991
   90CHL1  H12B 9099   4.736   2.602   7.665 -1.4483 -0.4913  0.4424
   90CHL1   C11 9100   4.788   2.448   7.530  0.4434 -0.0820  1.1783
   90CHL1  H11A 9101   4.803   2.338   7.537  0.7118 -0.0570  1.0120
   90CHL1  H11B 9102   4.692   2.452   7.474  0.7379 -1.5785  0.5256
   90CHL1    C9 9103   4.908   2.526   7.461 -0.4163  1.1786 -0.0233
   90CHL1    H9 9104   4.878   2.633   7.464 -1.0189  0.9923  2.5512
   90CHL1   C10 9105   4.940   2.499   7.317  0.1518 -0.7002  0.6186
   90CHL1   C19 9106   4.958   2.344   7.304  0.6254 -0.4718 -0.4658
   90CHL1  H19A 9107   5.051   2.309   7.355  0.1652 -0.1203  0.6374
   90CHL1  H19B 9108   4.863   2.295   7.334 -0.6563  1.8116 -0.5917
   90CHL1  H19C 9109   4.966   2.314   7.197  2.0709  2.0482 -1.1392
   90CHL1    C1 9110   4.818   2.553   7.239  0.1888  0.2764 -0.9812
   90CHL1   H1A 9111   4.728   2.495   7.269  0.0843  1.1126  0.3721
   90CHL1   H1B 9112   4.803   2.660   7.263  1.0553  0.1638  0.1283
   90CHL1    C2 9113   4.832   2.535   7.088  0.4062 -0.0751 -0.3615
   90CHL1   H2A 9114   4.741   2.583   7.044 -0.4669 -0.0514  1.3638
   90CHL1   H2B 9115   4.840   2.428   7.061 -0.2007 -1.3221  3.6846
   90CHL1   C20 9116   4.829   2.474   8.019 -0.6890  0.1892  0.0864
   90CHL1   H20 9117   4.866   2.370   8.026  2.2699  0.9697 -1.7304
   90CHL1   C21 9118   4.677   2.455   7.988 -0.3606 -0.1205  0.3659
   90CHL1  H21A 9119   4.641   2.389   8.070  3.2247 -0.0644  2.2131
   90CHL1  H21B 9120   4.673   2.396   7.894  3.3027  0.5476 -0.3749
   90CHL1  H21C 9121   4.626   2.551   7.969  0.5227  0.5218  1.1264
   90CHL1   C22 9122   4.833   2.561   8.141  0.6170 -0.5490 -0.3536
   90CHL1  H22A 9123   4.935   2.590   8.177 -0.8636  1.9513  2.2240
   90CHL1  H22B 9124   4.783   2.657   8.119 -0.3714 -1.0706 -0.4049
   90CHL1   C23 9125   4.757   2.499   8.257 -0.7866 -0.2721 -0.2437
   90CHL1  H23A 9126   4.648   2.514   8.239 -0.6364  2.7296  0.7012
   90CHL1  H23B 9127   4.787   2.394   8.276  1.7702  0.3901 -0.3194
   90CHL1   C24 9128   4.772   2.592   8.388 -0.0919  0.5939  0.6712
   90CHL1  H24A 9129   4.872   2.574   8.435  2.2401  1.3414 -3.4926
   90CHL1  H24B 9130   4.773   2.696   8.349  1.8510 -0.2884 -2.0139
   90CHL1   C25 9131   4.655   2.575   8.488 -0.2122 -0.3212  0.2696
   90CHL1   H25 9132   4.562   2.602   8.434  0.5292 -0.9429 -1.3595
   90CHL1   C26 9133   4.655   2.429   8.535  0.2147 -0.3891  0.3002
   90CHL1  H26A 9134   4.558   2.405   8.584  0.4681 -0.6498  0.6826
   90CHL1  H26B 9135   4.656   2.360   8.448  0.3764  0.7958 -0.6614
   90CHL1  H26C 9136   4.739   2.405   8.603 -0.0406 -0.3206  0.6437
   90CHL1   C27 9137   4.677   2.671   8.607 -0.4427  0.3922 -0.3025
   90CHL1  H27A 9138   4.606   2.647   8.690 -1.5251 -1.8811 -1.7681
   90CHL1  H27B 9139   4.778   2.655   8.651 -1.2230 -0.6331  1.2343
   90CHL1  H27C 9140   4.678   2.776   8.571 -0.1388  0.2186 -0.8030
   91CHL1    C3 9141   5.750   3.242   7.341  0.4941 -0.7581  0.4387
   91CHL1    H3 9142   5.710   3.335   7.385 -0.5080 -1.1439  0.3627
   91CHL1    O3 9143   5.746   3.247   7.202 -0.3459  0.0794  0.0872
   91CHL1   H3' 9144   5.768   3.160   7.168  1.4075  0.6746 -0.3952
   91CHL1    C4 9145   5.894   3.223   7.388  0.1941 -0.5365 -0.3884
   91CHL1   H4A 9146   5.923   3.127   7.338  0.2742 -1.0046  0.5344
   91CHL1   H4B 9147   5.958   3.307   7.355  0.1283  0.4992  1.9617
   91CHL1    C5 9148   5.892   3.212   7.541  0.2874 -0.2891 -1.1074
   91CHL1    C6 9149   5.970   3.295   7.610 -0.5250 -0.0924  0.0275
   91CHL1    H6 9150   6.045   3.358   7.558 -0.1093 -1.4443 -1.0884
   91CHL1    C7 9151   5.984   3.295   7.758 -0.0578 -0.0320 -0.0264
   91CHL1   H7A 9152   6.085   3.314   7.799 -0.8197  0.4856  1.7117
   91CHL1   H7B 9153   5.919   3.375   7.801  1.5391  0.7436  1.0520
   91CHL1    C8 9154   5.924   3.163   7.827  0.0003  0.5033  0.2729
   91CHL1    H8 9155   5.991   3.077   7.803 -2.2115 -1.9496  2.3209
   91CHL1   C14 9156   5.912   3.190   7.973  0.1957  0.6087 -0.4869
   91CHL1   H14 9157   5.848   3.280   7.982  0.2513  0.5822  0.3420
   91CHL1   C15 9158   6.040   3.202   8.058  0.0343 -0.4211 -0.5168
   91CHL1  H15A 9159   6.119   3.128   8.037 -0.0120  0.0123 -2.3563
   91CHL1  H15B 9160   6.105   3.292   8.060  1.6166 -1.5050  1.7095
   91CHL1   C16 9161   5.994   3.176   8.202 -0.7106 -0.4048 -0.3975
   91CHL1  H16A 9162   6.068   3.106   8.246  0.1016  0.8059  0.2277
   91CHL1  H16B 9163   5.999   3.272   8.257  1.3160 -0.8999  0.3867
   91CHL1   C17 9164   5.845   3.125   8.202 -0.3279 -0.2732  0.2202
   91CHL1   H17 9165   5.780   3.215   8.204  0.1072  0.0770 -0.7987
   91CHL1   C13 9166   5.838   3.081   8.051  0.0071  0.4467 -0.0553
   91CHL1   C18 9167   5.913   2.950   8.052  0.3139  0.1993 -0.2813
   91CHL1  H18A 9168   5.846   2.874   8.097 -0.0214  0.9374  0.5002
   91CHL1  H18B 9169   5.935   2.908   7.952 -3.8327 -1.8956 -0.4942
   91CHL1  H18C 9170   6.008   2.948   8.110  0.1665  0.3231 -0.0372
   91CHL1   C12 9171   5.695   3.067   7.988  0.7383 -0.6630 -0.2093
   91CHL1  H12A 9172   5.642   2.987   8.044 -0.6573  0.3367 -0.0497
   91CHL1  H12B 9173   5.640   3.162   8.007 -1.2965 -1.8219 -0.0122
   91CHL1   C11 9174   5.695   3.033   7.839  0.1650  0.4093 -0.8196
   91CHL1  H11A 9175   5.737   2.931   7.833 -1.8109 -0.4468 -0.7936
   91CHL1  H11B 9176   5.593   3.029   7.795  0.0350 -0.9196 -0.4221
   91CHL1    C9 9177   5.782   3.135   7.761  0.2640  0.2829  0.7441
   91CHL1    H9 9178   5.737   3.234   7.784  1.4295  1.3466 -1.2264
   91CHL1   C10 9179   5.793   3.115   7.603 -0.5772 -0.5241  1.0546
   91CHL1   C19 9180   5.843   2.969   7.574 -1.0176 -0.4238 -0.9174
   91CHL1  H19A 9181   5.853   2.947   7.465 -0.9434  1.9927 -1.4570
   91CHL1  H19B 9182   5.941   2.968   7.625 -0.8678  2.3363 -0.9789
   91CHL1  H19C 9183   5.764   2.904   7.617 -0.0181 -0.4180  0.9991
   91CHL1    C1 9184   5.649   3.133   7.541 -0.2839 -0.2456  0.4020
   91CHL1   H1A 9185   5.591   3.048   7.583 -0.2715 -0.1460  0.6208
   91CHL1   H1B 9186   5.598   3.226   7.575 -0.5027 -0.3825  0.4487
   91CHL1    C2 9187   5.650   3.128   7.386  0.1258  0.0461  0.8210
   91CHL1   H2A 9188   5.546   3.128   7.348  0.7839  0.3619 -1.0963
   91CHL1   H2B 9189   5.704   3.037   7.353 -2.4364 -1.2055 -0.2087
   91CHL1   C20 9190   5.810   3.032   8.315  0.7734  0.7764  0.2688
   91CHL1   H20 9191   5.870   2.939   8.308 -0.2057 -0.0024  1.7804
   91CHL1   C21 9192   5.658   2.986   8.306  0.0925 -0.0421 -0.5018
   91CHL1  H21A 9193   5.601   3.072   8.264 -0.0491 -0.0584 -0.3456
   91CHL1  H21B 9194   5.634   2.958   8.411 -0.1504 -0.8180 -0.7555
   91CHL1  H21C 9195   5.662   2.895   8.242  0.5861 -0.1363 -0.3357
   91CHL1   C22 9196   5.845   3.088   8.455 -0.2200  0.0475  0.3499
   91CHL1  H22A 9197   5.812   3.010   8.527 -0.9226  0.0917  0.0843
   91CHL1  H22B 9198   5.954   3.106   8.465 -0.1446  0.4483 -0.9991
   91CHL1   C23 9199   5.763   3.207   8.496  0.1226  0.0525  0.2365
   91CHL1  H23A 9200   5.764   3.295   8.428 -0.3486  0.5285  0.8321
   91CHL1  H23B 9201   5.655   3.181   8.498  0.3542 -0.9834 -0.1329
   91CHL1   C24 9202   5.793   3.238   8.648 -0.3154 -0.0632 -0.0822
   91CHL1  H24A 9203   5.765   3.149   8.708 -2.7379  1.3112  0.9544
   91CHL1  H24B 9204   5.900   3.265   8.666 -0.2501 -1.1955  1.4023
   91CHL1   C25 9205   5.717   3.357   8.710  0.1235  0.0613 -0.7018
   91CHL1   H25 9206   5.743   3.444   8.646 -1.0094 -0.9004 -2.5557
   91CHL1   C26 9207   5.564   3.358   8.687 -0.1161 -0.3584  0.0828
   91CHL1  H26A 9208   5.503   3.287   8.746 -1.5258  1.2460  0.6526
   91CHL1  H26B 9209   5.525   3.459   8.714 -0.2567 -0.8915  2.0186
   91CHL1  H26C 9210   5.536   3.345   8.581 -0.1568 -1.0404  0.1755
   91CHL1   C27 9211   5.745   3.355   8.866  0.6597 -0.0264 -0.2163
   91CHL1  H27A 9212   5.855   3.343   8.877  0.4938  0.5278  3.2896
   91CHL1  H27B 9213   5.721   3.457   8.903 -1.6719  0.3240 -2.4975
   91CHL1  H27C 9214   5.700   3.267   8.916  2.0243 -1.5740 -1.6161
   92CHL1    C3 9215   0.720   6.208   6.765 -0.5543  0.2056 -0.5509
   92CHL1    H3 9216   0.806   6.277   6.753 -1.4421  2.3118  3.4514
   92CHL1    O3 9217   0.656   6.176   6.637 -0.0294 -0.5347  0.0092
   92CHL1   H3' 9218   0.608   6.094   6.654 -0.1069 -0.2240  1.5074
   92CHL1    C4 9219   0.768   6.089   6.844 -0.3107 -0.5062 -0.4923
   92CHL1   H4A 9220   0.675   6.028   6.842 -0.4010 -0.3661 -2.5703
   92CHL1   H4B 9221   0.848   6.038   6.786 -0.2112  0.0113 -0.8188
   92CHL1    C5 9222   0.814   6.118   6.990 -0.1039  0.5693  0.6115
   92CHL1    C6 9223   0.938   6.073   7.033  0.5768  0.2683  0.1370
   92CHL1    H6 9224   0.995   6.025   6.952 -0.4238  0.9706 -1.0201
   92CHL1    C7 9225   0.996   6.098   7.170  0.2930  0.7699  0.7440
   92CHL1   H7A 9226   1.035   6.001   7.209  0.2927  0.9796  1.2713
   92CHL1   H7B 9227   1.074   6.176   7.163 -0.2697  1.2258 -1.0845
   92CHL1    C8 9228   0.887   6.154   7.265  0.2216 -0.2495 -0.1616
   92CHL1    H8 9229   0.825   6.069   7.303 -1.3235  0.7586 -0.3139
   92CHL1   C14 9230   0.961   6.222   7.379 -0.0445  0.5864 -0.1663
   92CHL1   H14 9231   1.027   6.297   7.330  1.7067 -1.8652 -1.7728
   92CHL1   C15 9232   1.066   6.145   7.453  0.1862 -0.2754 -0.3264
   92CHL1  H15A 9233   1.040   6.045   7.492  1.4467 -0.9237 -1.1102
   92CHL1  H15B 9234   1.162   6.139   7.398  1.1480 -3.3238  1.4750
   92CHL1   C16 9235   1.089   6.228   7.576  0.4439 -0.5038 -1.0391
   92CHL1  H16A 9236   1.056   6.176   7.668 -1.6695  2.2683 -0.0970
   92CHL1  H16B 9237   1.196   6.258   7.581 -0.1056  1.4674 -0.1747
   92CHL1   C17 9238   0.991   6.352   7.569  0.4254  0.1927  0.7609
   92CHL1   H17 9239   1.040   6.436   7.515 -1.1015  2.1092  2.2287
   92CHL1   C13 9240   0.874   6.302   7.477  0.0584 -0.5820  0.6534
   92CHL1   C18 9241   0.782   6.207   7.554 -0.5748  0.1863 -0.3121
   92CHL1  H18A 9242   0.839   6.137   7.619 -2.3233 -1.9179 -0.9107
   92CHL1  H18B 9243   0.718   6.264   7.625  0.5040 -0.8388  1.5611
   92CHL1  H18C 9244   0.716   6.147   7.488  2.1010 -2.1697 -1.0388
   92CHL1   C12 9245   0.786   6.411   7.405 -0.2343  0.2720 -0.2965
   92CHL1  H12A 9246   0.715   6.448   7.483  0.0648  1.1820 -0.4338
   92CHL1  H12B 9247   0.847   6.494   7.363 -2.7285  1.8924 -0.9465
   92CHL1   C11 9248   0.711   6.343   7.292 -0.1696  0.4580  0.8666
   92CHL1  H11A 9249   0.630   6.277   7.330  1.8200 -1.5360  1.8721
   92CHL1  H11B 9250   0.657   6.427   7.243  0.8444  1.7748  1.9192
   92CHL1    C9 9251   0.801   6.263   7.197  0.1941  0.2236 -0.1122
   92CHL1    H9 9252   0.872   6.342   7.162 -0.3793  0.5614 -0.5343
   92CHL1   C10 9253   0.724   6.207   7.070 -0.1198 -0.3243 -0.1171
   92CHL1   C19 9254   0.595   6.134   7.113  0.2266  0.0712  0.3231
   92CHL1  H19A 9255   0.538   6.090   7.028 -0.1648 -1.0846  1.1502
   92CHL1  H19B 9256   0.632   6.053   7.180  2.3677  0.8399  0.1403
   92CHL1  H19C 9257   0.520   6.202   7.159 -0.5663  1.0671 -2.3059
   92CHL1    C1 9258   0.680   6.326   6.986  0.3706 -1.0029 -0.5143
   92CHL1   H1A 9259   0.603   6.385   7.040  0.8461 -0.6785 -0.1759
   92CHL1   H1B 9260   0.768   6.394   6.984 -1.6993  1.8607 -1.3130
   92CHL1    C2 9261   0.624   6.293   6.844  0.0524  0.9120 -0.1988
   92CHL1   H2A 9262   0.615   6.390   6.790 -1.2369  1.9670  1.7973
   92CHL1   H2B 9263   0.520   6.257   6.840  0.5926 -0.6337 -1.1805
   92CHL1   C20 9264   0.959   6.418   7.709  0.3246  0.1255  0.4193
   92CHL1   H20 9265   0.861   6.466   7.692  1.0518  0.6578 -3.2728
   92CHL1   C21 9266   1.070   6.518   7.729 -0.2830 -0.9128 -0.0915
   92CHL1  H21A 9267   1.169   6.471   7.744  1.4161  1.6472 -2.3219
   92CHL1  H21B 9268   1.063   6.566   7.829  0.1492  0.5584 -0.7335
   92CHL1  H21C 9269   1.065   6.600   7.653 -1.8626  1.0938  2.0331
   92CHL1   C22 9270   0.935   6.327   7.830 -0.7148  0.1779 -0.4095
   92CHL1  H22A 9271   0.877   6.242   7.788 -1.6829  1.6261 -2.1389
   92CHL1  H22B 9272   1.033   6.289   7.867 -0.8041 -1.4232 -1.6777
   92CHL1   C23 9273   0.841   6.388   7.937 -0.6369 -0.7580 -0.0119
   92CHL1  H23A 9274   0.869   6.492   7.967 -0.5012 -0.4095 -1.2796
   92CHL1  H23B 9275   0.741   6.392   7.888 -0.7726 -0.0250  0.3043
   92CHL1   C24 9276   0.831   6.290   8.056  0.9725 -0.5677 -0.9625
   92CHL1  H24A 9277   0.771   6.206   8.016 -1.9095  0.6544  0.5137
   92CHL1  H24B 9278   0.926   6.246   8.092 -1.4342 -4.2149  1.5967
   92CHL1   C25 9279   0.749   6.351   8.174 -0.4020  0.3825  0.2192
   92CHL1   H25 9280   0.671   6.419   8.134  0.4754  1.0249 -0.4472
   92CHL1   C26 9281   0.687   6.245   8.265  0.0940 -0.3425  0.4563
   92CHL1  H26A 9282   0.605   6.199   8.205 -0.4012 -0.9620  1.5718
   92CHL1  H26B 9283   0.753   6.160   8.290 -1.4269 -1.3532  1.1939
   92CHL1  H26C 9284   0.641   6.294   8.354  2.1613  1.0499  0.8145
   92CHL1   C27 9285   0.839   6.445   8.257 -0.4462 -0.2337 -0.1740
   92CHL1  H27A 9286   0.889   6.506   8.179  1.5840 -1.9617 -0.3147
   92CHL1  H27B 9287   0.785   6.501   8.336  1.2279  0.1725  0.7203
   92CHL1  H27C 9288   0.928   6.389   8.292  0.9867  1.1707 -1.4705
   93CHL1    C3 9289   0.185   1.495   6.853  0.5146  0.2069  0.3974
   93CHL1    H3 9290   0.287   1.536   6.840 -0.4649  2.4848 -0.6809
   93CHL1    O3 9291   0.102   1.525   6.736  0.1477  0.1483 -0.3227
   93CHL1   H3' 9292   0.119   1.618   6.715  0.6697  0.0275 -0.4474
   93CHL1    C4 9293   0.178   1.342   6.854 -0.7454  0.2293  0.0157
   93CHL1   H4A 9294   0.073   1.307   6.852  0.0624 -2.4195 -0.1010
   93CHL1   H4B 9295   0.223   1.301   6.761 -2.2627  0.4157 -0.8282
   93CHL1    C5 9296   0.254   1.287   6.974 -0.7388  0.9475  0.4975
   93CHL1    C6 9297   0.360   1.204   6.968 -0.2596 -0.2798 -0.6076
   93CHL1    H6 9298   0.395   1.163   6.872 -0.7933 -0.5069 -0.7088
   93CHL1    C7 9299   0.434   1.148   7.083 -0.1378 -0.0417 -0.6796
   93CHL1   H7A 9300   0.465   1.042   7.070 -0.1014 -0.0979 -0.1601
   93CHL1   H7B 9301   0.522   1.216   7.089  0.9018 -1.5060  1.5722
   93CHL1    C8 9302   0.342   1.160   7.209 -0.4772  0.0800  0.4083
   93CHL1    H8 9303   0.261   1.084   7.200  0.0790 -0.6753  1.5577
   93CHL1   C14 9304   0.418   1.125   7.336 -0.3960  0.2040 -0.0217
   93CHL1   H14 9305   0.496   1.204   7.346 -1.2728  0.9821  0.7430
   93CHL1   C15 9306   0.496   0.993   7.346 -0.5614  0.5075  0.5514
   93CHL1  H15A 9307   0.423   0.914   7.319  0.4947  0.5822 -3.0996
   93CHL1  H15B 9308   0.582   0.991   7.275 -0.4045  0.3035  0.7449
   93CHL1   C16 9309   0.536   0.988   7.490 -0.5490 -0.3772 -0.2487
   93CHL1  H16A 9310   0.545   0.889   7.539  0.9422 -0.7542 -1.2249
   93CHL1  H16B 9311   0.635   1.038   7.486 -1.6237  1.7899 -2.5559
   93CHL1   C17 9312   0.445   1.089   7.565  0.3422  0.8377 -0.5820
   93CHL1   H17 9313   0.514   1.172   7.592  3.9770 -1.4283 -2.1540
   93CHL1   C13 9314   0.343   1.135   7.469  0.9171  0.3294 -0.6090
   93CHL1   C18 9315   0.215   1.040   7.466 -0.1878 -0.4970 -0.2762
   93CHL1  H18A 9316   0.156   1.048   7.372 -1.9975 -0.8759  0.7752
   93CHL1  H18B 9317   0.241   0.932   7.478 -2.0166 -0.9223  0.2987
   93CHL1  H18C 9318   0.155   1.071   7.554 -0.6065 -1.2437 -0.2861
   93CHL1   C12 9319   0.305   1.287   7.489  0.6148 -0.3631  0.5750
   93CHL1  H12A 9320   0.234   1.294   7.574  0.3017  0.2012  0.2695
   93CHL1  H12B 9321   0.392   1.349   7.518 -0.1582  0.2134  1.6680
   93CHL1   C11 9322   0.228   1.334   7.369  0.4816  0.4766 -0.1253
   93CHL1  H11A 9323   0.135   1.276   7.388  2.2855 -1.9235  2.1160
   93CHL1  H11B 9324   0.212   1.443   7.384 -1.3639  0.2747 -0.3318
   93CHL1    C9 9325   0.283   1.305   7.229 -0.7434  1.2184 -0.3994
   93CHL1    H9 9326   0.375   1.368   7.219  1.8457 -2.3572 -0.9550
   93CHL1   C10 9327   0.195   1.343   7.112 -0.2020 -0.2598  1.7269
   93CHL1   C19 9328   0.058   1.279   7.127  1.0395  0.5976  0.2631
   93CHL1  H19A 9329   0.010   1.327   7.215 -0.7809  1.9907 -1.3879
   93CHL1  H19B 9330  -0.006   1.294   7.037  2.5308  0.6493 -0.8429
   93CHL1  H19C 9331   0.058   1.168   7.132  1.0916  0.6169  0.6859
   93CHL1    C1 9332   0.196   1.497   7.106  0.0555  1.0122  0.1878
   93CHL1   H1A 9333   0.152   1.542   7.198 -0.8845  1.6981 -0.5722
   93CHL1   H1B 9334   0.301   1.532   7.098 -0.2308  1.6563 -0.9811
   93CHL1    C2 9335   0.125   1.554   6.981 -0.5657 -0.3646 -0.2019
   93CHL1   H2A 9336   0.158   1.660   6.982 -1.5471 -0.0432  0.4480
   93CHL1   H2B 9337   0.014   1.544   6.987 -0.4687 -1.0385  0.7687
   93CHL1   C20 9338   0.408   1.040   7.703 -0.1997  0.5314 -0.1273
   93CHL1   H20 9339   0.342   0.953   7.681  0.3527  0.2352 -0.6251
   93CHL1   C21 9340   0.341   1.154   7.783 -0.2148  1.1471 -0.1125
   93CHL1  H21A 9341   0.397   1.250   7.776  0.7368  0.6375  0.4572
   93CHL1  H21B 9342   0.345   1.123   7.890 -0.2648 -0.5768 -0.5961
   93CHL1  H21C 9343   0.234   1.167   7.754 -0.7803  1.5880  1.9806
   93CHL1   C22 9344   0.521   0.973   7.795  0.6055  0.4176 -0.0155
   93CHL1  H22A 9345   0.476   0.964   7.896  1.3617  0.2559  0.3164
   93CHL1  H22B 9346   0.547   0.871   7.760  1.1034  0.7489 -0.6390
   93CHL1   C23 9347   0.652   1.044   7.822 -0.8672 -0.1999 -0.2328
   93CHL1  H23A 9348   0.717   0.976   7.881 -1.2653 -0.0683  0.3769
   93CHL1  H23B 9349   0.710   1.055   7.728  1.3965  0.2337  1.1554
   93CHL1   C24 9350   0.645   1.177   7.894 -0.0562  0.5746  0.0720
   93CHL1  H24A 9351   0.609   1.251   7.819  0.5461  1.6025  0.7705
   93CHL1  H24B 9352   0.566   1.166   7.972 -2.5307  4.6078 -1.5640
   93CHL1   C25 9353   0.776   1.225   7.960 -0.5167 -0.3328  0.7096
   93CHL1   H25 9354   0.794   1.143   8.032  0.8509  0.1171  0.9097
   93CHL1   C26 9355   0.890   1.241   7.848  0.4773  0.3537  0.0723
   93CHL1  H26A 9356   0.868   1.315   7.767  3.0477  3.6324  2.1003
   93CHL1  H26B 9357   0.986   1.280   7.889  0.3227  0.0577  0.7283
   93CHL1  H26C 9358   0.897   1.140   7.803 -0.9376  0.7342 -1.1088
   93CHL1   C27 9359   0.733   1.369   8.018 -0.0700  0.5265 -0.2000
   93CHL1  H27A 9360   0.690   1.424   7.931  1.2550 -1.4622 -2.2444
   93CHL1  H27B 9361   0.649   1.362   8.091  0.1949  2.7203  0.3589
   93CHL1  H27C 9362   0.815   1.426   8.065 -0.0200  2.0460 -2.0348
   94CHL1    C3 9363   2.211   3.070   7.199 -0.3060 -0.3035  0.4016
   94CHL1    H3 9364   2.210   2.960   7.213 -0.4351 -0.5437 -1.2933
   94CHL1    O3 9365   2.202   3.078   7.059 -0.4476 -0.7075  0.4300
   94CHL1   H3' 9366   2.265   3.019   7.016 -1.1831  1.5556 -4.4875
   94CHL1    C4 9367   2.105   3.151   7.269  0.4654  0.3751 -0.3955
   94CHL1   H4A 9368   2.108   3.258   7.239  0.7789  0.0681 -1.5283
   94CHL1   H4B 9369   2.008   3.121   7.223  0.8365  1.0846 -1.7001
   94CHL1    C5 9370   2.109   3.130   7.420 -0.2219  0.3036 -0.2746
   94CHL1    C6 9371   2.005   3.076   7.495 -0.5617 -0.0804 -0.5309
   94CHL1    H6 9372   1.914   3.034   7.449 -1.3132  0.6818  0.2401
   94CHL1    C7 9373   2.006   3.063   7.644 -0.3947  0.3577  0.2310
   94CHL1   H7A 9374   1.906   3.097   7.679 -1.4714  1.4769 -3.4077
   94CHL1   H7B 9375   2.033   2.961   7.678  1.7307  0.8812  0.2453
   94CHL1    C8 9376   2.118   3.160   7.706 -0.0752 -0.1992 -0.9055
   94CHL1    H8 9377   2.087   3.266   7.696 -0.2059 -0.3273 -1.9179
   94CHL1   C14 9378   2.136   3.127   7.855  0.1924  0.4019  0.7164
   94CHL1   H14 9379   2.176   3.023   7.860  0.6112  0.5061 -0.2775
   94CHL1   C15 9380   2.011   3.121   7.935  0.1305 -0.0122 -0.3651
   94CHL1  H15A 9381   1.948   3.210   7.912  3.6279  2.6978 -0.2097
   94CHL1  H15B 9382   1.959   3.024   7.914  0.9581 -1.3079  2.9566
   94CHL1   C16 9383   2.058   3.131   8.085  0.5042 -0.3749  1.4761
   94CHL1  H16A 9384   1.996   3.208   8.134 -1.9775 -1.7324  0.6290
   94CHL1  H16B 9385   2.069   3.036   8.143  0.5318 -0.6728  0.9886
   94CHL1   C17 9386   2.211   3.167   8.079  0.5429 -0.9726  0.3590
   94CHL1   H17 9387   2.265   3.070   8.085  1.8628 -0.2462  0.5772
   94CHL1   C13 9388   2.234   3.213   7.931  0.0227 -0.5940 -0.0821
   94CHL1   C18 9389   2.197   3.363   7.920  0.1306  0.5425 -0.5119
   94CHL1  H18A 9390   2.264   3.436   7.970 -2.9191  2.7788  0.6441
   94CHL1  H18B 9391   2.192   3.406   7.817  1.0363 -0.0115 -0.7981
   94CHL1  H18C 9392   2.097   3.374   7.967  1.1061  0.4839  1.7079
   94CHL1   C12 9393   2.369   3.185   7.870 -1.4429  1.1084 -1.1337
   94CHL1  H12A 9394   2.448   3.242   7.923 -1.8523 -0.5107  1.3420
   94CHL1  H12B 9395   2.403   3.080   7.876  0.0158  1.5585 -1.0506
   94CHL1   C11 9396   2.377   3.216   7.714  0.6486 -0.1609 -0.6841
   94CHL1  H11A 9397   2.375   3.327   7.715  0.5241 -0.1393  1.2371
   94CHL1  H11B 9398   2.470   3.180   7.666  1.5674  1.2082 -0.0115
   94CHL1    C9 9399   2.258   3.147   7.639 -0.6244 -0.1159  0.0952
   94CHL1    H9 9400   2.287   3.040   7.643  1.0171  0.2463 -0.8099
   94CHL1   C10 9401   2.245   3.173   7.483  0.1352 -0.4774  0.4722
   94CHL1   C19 9402   2.256   3.330   7.449 -0.1041  0.9085 -0.3607
   94CHL1  H19A 9403   2.167   3.383   7.488  0.2426  2.3867 -1.5105
   94CHL1  H19B 9404   2.350   3.363   7.497  0.5654 -1.3192  0.0098
   94CHL1  H19C 9405   2.266   3.347   7.339  0.0279 -1.2770 -0.7319
   94CHL1    C1 9406   2.363   3.104   7.411  0.3987  0.4621 -0.3510
   94CHL1   H1A 9407   2.454   3.156   7.447  2.3020 -2.9720  0.2330
   94CHL1   H1B 9408   2.373   2.996   7.434 -0.0698  0.4053 -0.3965
   94CHL1    C2 9409   2.351   3.113   7.259  0.3482  0.1571  0.9557
   94CHL1   H2A 9410   2.429   3.049   7.214 -1.1817 -0.5319 -0.8653
   94CHL1   H2B 9411   2.372   3.215   7.218  0.3462 -0.3718 -0.4046
   94CHL1   C20 9412   2.247   3.256   8.191  0.7031 -0.8169 -0.1609
   94CHL1   H20 9413   2.199   3.355   8.176 -0.6232 -1.5337 -0.7956
   94CHL1   C21 9414   2.400   3.276   8.204  0.6137 -0.2307  0.1438
   94CHL1  H21A 9415   2.428   3.336   8.115 -3.0810  0.7377 -0.5167
   94CHL1  H21B 9416   2.465   3.186   8.209 -0.5148 -1.0024  1.8183
   94CHL1  H21C 9417   2.435   3.331   8.294 -0.0364 -0.1058  0.3299
   94CHL1   C22 9418   2.202   3.214   8.335  0.3093  0.3410 -0.0752
   94CHL1  H22A 9419   2.095   3.184   8.332  0.0560  1.3079 -1.7599
   94CHL1  H22B 9420   2.256   3.126   8.376 -1.3068 -0.4527  0.4367
   94CHL1   C23 9421   2.197   3.322   8.446  0.0805 -0.8698  0.0971
   94CHL1  H23A 9422   2.294   3.367   8.476 -0.5658  1.3610 -0.9922
   94CHL1  H23B 9423   2.147   3.413   8.408  2.1626  0.1847 -0.2871
   94CHL1   C24 9424   2.138   3.264   8.577  0.4029 -1.8130  0.5649
   94CHL1  H24A 9425   2.035   3.248   8.540  0.0904  0.5805  0.3016
   94CHL1  H24B 9426   2.180   3.166   8.611  0.1180 -1.0391  3.4072
   94CHL1   C25 9427   2.152   3.356   8.690 -0.9897  0.1858 -0.1955
   94CHL1   H25 9428   2.259   3.373   8.716 -1.5483  3.7953  0.1514
   94CHL1   C26 9429   2.078   3.494   8.669  0.0839  0.4783 -0.4004
   94CHL1  H26A 9430   1.969   3.481   8.657 -0.1096  1.6501 -0.0147
   94CHL1  H26B 9431   2.096   3.554   8.760 -1.5912  0.2951  0.0724
   94CHL1  H26C 9432   2.120   3.538   8.575 -0.0182  0.9533 -0.2246
   94CHL1   C27 9433   2.098   3.292   8.822 -0.2490 -0.2260 -0.1752
   94CHL1  H27A 9434   2.127   3.370   8.896 -0.6269 -0.4402  0.2026
   94CHL1  H27B 9435   1.988   3.277   8.812 -0.1958 -0.1357 -0.9093
   94CHL1  H27C 9436   2.147   3.198   8.853  0.5413 -0.3832 -1.8290
   95CHL1    C3 9437   3.239   1.580   6.546  0.0471  0.3658  0.4904
   95CHL1    H3 9438   3.155   1.645   6.582 -0.4059  0.8170 -1.2672
   95CHL1    O3 9439   3.237   1.580   6.402 -0.4898 -0.4460  0.2559
   95CHL1   H3' 9440   3.248   1.673   6.378  1.2026 -0.5249  0.5917
   95CHL1    C4 9441   3.379   1.619   6.591  0.6471 -0.3817 -0.3699
   95CHL1   H4A 9442   3.456   1.557   6.540  1.0072 -1.5723  1.5331
   95CHL1   H4B 9443   3.398   1.720   6.548 -0.7347  1.0432  2.0982
   95CHL1    C5 9444   3.396   1.627   6.739 -0.4475  0.2306 -0.9577
   95CHL1    C6 9445   3.456   1.731   6.801 -0.3185 -0.0343 -0.7355
   95CHL1    H6 9446   3.491   1.818   6.743  1.9339 -0.0348  0.4873
   95CHL1    C7 9447   3.472   1.741   6.956  0.3934 -0.0408 -0.3910
   95CHL1   H7A 9448   3.568   1.778   6.996  0.1868  1.1965 -0.9888
   95CHL1   H7B 9449   3.393   1.805   7.002  1.1517  0.1560  0.6596
   95CHL1    C8 9450   3.447   1.604   7.024  0.1525  0.8356 -0.7253
   95CHL1    H8 9451   3.541   1.545   7.025 -1.9622 -2.8623  0.8639
   95CHL1   C14 9452   3.404   1.632   7.169 -0.8017 -0.0589 -0.8339
   95CHL1   H14 9453   3.301   1.673   7.164 -0.8340 -0.2363 -1.8060
   95CHL1   C15 9454   3.484   1.738   7.254  0.1291 -0.5515  0.0605
   95CHL1  H15A 9455   3.593   1.726   7.239  0.0562 -1.6557  0.3005
   95CHL1  H15B 9456   3.447   1.837   7.221 -3.4495 -2.1062 -1.1143
   95CHL1   C16 9457   3.436   1.716   7.401 -0.3479 -0.8953 -0.0244
   95CHL1  H16A 9458   3.521   1.695   7.470 -1.6678 -0.7889  1.6927
   95CHL1  H16B 9459   3.374   1.802   7.435  1.4996  0.6226 -0.3380
   95CHL1   C17 9460   3.339   1.591   7.386 -0.3325  0.0481 -0.5997
   95CHL1   H17 9461   3.238   1.627   7.357 -0.1189  0.9937 -0.2161
   95CHL1   C13 9462   3.388   1.512   7.260 -0.4651  0.0179 -0.2908
   95CHL1   C18 9463   3.525   1.437   7.277  0.3331  0.4826  0.6481
   95CHL1  H18A 9464   3.607   1.509   7.298 -0.1335  1.3597 -0.4203
   95CHL1  H18B 9465   3.511   1.372   7.366 -0.6052 -1.8312 -1.0916
   95CHL1  H18C 9466   3.554   1.371   7.193 -1.2143  2.7190 -1.8040
   95CHL1   C12 9467   3.289   1.413   7.198  0.0310  0.5973 -1.4677
   95CHL1  H12A 9468   3.280   1.317   7.253 -3.0068  1.0492 -0.9767
   95CHL1  H12B 9469   3.187   1.456   7.207 -0.2508 -0.0656 -1.4453
   95CHL1   C11 9470   3.315   1.388   7.049  0.1101 -0.4070 -0.3545
   95CHL1  H11A 9471   3.409   1.330   7.038  0.1254 -0.7314  1.2734
   95CHL1  H11B 9472   3.226   1.330   7.018 -0.8984 -0.8535  2.9881
   95CHL1    C9 9473   3.332   1.515   6.964 -0.1052  0.0798  0.2288
   95CHL1    H9 9474   3.244   1.582   6.972  0.1872  0.5103 -0.1175
   95CHL1   C10 9475   3.345   1.497   6.815  0.2056 -0.3559  0.5754
   95CHL1   C19 9476   3.454   1.392   6.798  0.4948 -0.4447 -0.5276
   95CHL1  H19A 9477   3.536   1.407   6.872 -0.4803  0.6179  0.3786
   95CHL1  H19B 9478   3.405   1.294   6.820 -0.1836 -0.9570 -3.8414
   95CHL1  H19C 9479   3.493   1.385   6.695  1.0526 -0.9222 -0.2904
   95CHL1    C1 9480   3.209   1.449   6.764  0.0304 -0.4041  0.4334
   95CHL1   H1A 9481   3.188   1.345   6.798  1.6050 -0.3928  1.6139
   95CHL1   H1B 9482   3.134   1.522   6.801  1.5686  0.8371  1.2338
   95CHL1    C2 9483   3.205   1.447   6.604 -0.3364  0.3321  0.8750
   95CHL1   H2A 9484   3.102   1.414   6.578 -0.5200  1.6842 -0.2587
   95CHL1   H2B 9485   3.277   1.371   6.569  1.1126  1.7731  0.5971
   95CHL1   C20 9486   3.317   1.519   7.524 -0.9125  0.0838 -0.1242
   95CHL1   H20 9487   3.407   1.458   7.545 -1.7722 -0.7618  1.2407
   95CHL1   C21 9488   3.205   1.423   7.506 -0.1290  0.2799 -0.4401
   95CHL1  H21A 9489   3.196   1.367   7.602  2.0333  1.2757  0.4022
   95CHL1  H21B 9490   3.221   1.344   7.430 -3.8987 -0.7180 -0.3843
   95CHL1  H21C 9491   3.106   1.465   7.477  0.3257  0.1367 -2.3307
   95CHL1   C22 9492   3.294   1.607   7.646 -0.3504 -1.1984 -0.4328
   95CHL1  H22A 9493   3.367   1.691   7.645  0.0178 -1.4262  1.9519
   95CHL1  H22B 9494   3.197   1.660   7.634 -1.3730 -2.7932  0.4955
   95CHL1   C23 9495   3.290   1.538   7.786 -0.4388  0.1835 -0.0783
   95CHL1  H23A 9496   3.191   1.488   7.787 -0.7474  0.7625 -0.7960
   95CHL1  H23B 9497   3.372   1.463   7.786  0.5918  1.2582 -0.6298
   95CHL1   C24 9498   3.299   1.641   7.890 -0.0975  0.3532 -0.3597
   95CHL1  H24A 9499   3.392   1.701   7.882 -1.1490  1.9347 -1.2849
   95CHL1  H24B 9500   3.213   1.711   7.879 -0.6315 -0.1559  0.4845
   95CHL1   C25 9501   3.287   1.576   8.028  0.2560 -0.1346 -0.0389
   95CHL1   H25 9502   3.198   1.509   8.032  0.6572 -0.6305  0.8774
   95CHL1   C26 9503   3.406   1.474   8.061  0.1356 -0.0800 -0.4071
   95CHL1  H26A 9504   3.403   1.442   8.168  1.0881  2.8079  0.5797
   95CHL1  H26B 9505   3.387   1.380   8.006 -1.7553 -0.2146  0.3561
   95CHL1  H26C 9506   3.501   1.524   8.036 -2.0398  3.5850 -2.1344
   95CHL1   C27 9507   3.270   1.683   8.138  0.0132 -0.4753  0.3527
   95CHL1  H27A 9508   3.343   1.766   8.123 -0.3006 -0.0457  1.1586
   95CHL1  H27B 9509   3.173   1.736   8.144  0.9426  1.3687 -0.1159
   95CHL1  H27C 9510   3.297   1.644   8.238  2.9235 -1.9127 -0.8570
   96CHL1    C3 9511   2.937   1.972   6.831 -0.6746  0.2710  0.1419
   96CHL1    H3 9512   2.826   1.971   6.827 -0.6889  0.5249 -3.7439
   96CHL1    O3 9513   2.973   1.986   6.693  0.2987 -0.0168  0.6843
   96CHL1   H3' 9514   3.069   1.987   6.692  0.3545 -1.7918 -0.0359
   96CHL1    C4 9515   2.981   2.100   6.896 -0.1115 -0.3962 -0.6677
   96CHL1   H4A 9516   3.091   2.115   6.883  0.0901  2.2491  2.7818
   96CHL1   H4B 9517   2.938   2.190   6.847 -0.9387  0.7361  1.9850
   96CHL1    C5 9518   2.969   2.097   7.047 -0.3665  0.5644  0.0003
   96CHL1    C6 9519   2.903   2.207   7.101  0.1579  1.1513  0.1635
   96CHL1    H6 9520   2.873   2.294   7.041  1.3158  1.1867 -0.3859
   96CHL1    C7 9521   2.883   2.219   7.249  0.3004  0.0709 -0.8589
   96CHL1   H7A 9522   2.910   2.324   7.274  1.2288 -0.1933 -0.7192
   96CHL1   H7B 9523   2.774   2.209   7.269 -0.0053 -0.0513 -2.4313
   96CHL1    C8 9524   2.969   2.115   7.331  0.0880  0.2085  0.7422
   96CHL1    H8 9525   3.070   2.159   7.335 -1.2094  3.3865  2.2162
   96CHL1   C14 9526   2.915   2.098   7.470 -0.0756 -0.0504  0.6891
   96CHL1   H14 9527   2.816   2.051   7.455  0.2079 -0.3870 -0.1575
   96CHL1   C15 9528   2.880   2.224   7.545 -0.7107 -0.1588 -0.4444
   96CHL1  H15A 9529   2.961   2.297   7.527 -0.5745 -0.4724 -1.1178
   96CHL1  H15B 9530   2.777   2.266   7.537 -0.6386 -0.0591 -0.8679
   96CHL1   C16 9531   2.884   2.186   7.694 -0.0030 -0.0320 -0.5290
   96CHL1  H16A 9532   2.975   2.231   7.740  0.9433 -0.2214 -2.1492
   96CHL1  H16B 9533   2.798   2.224   7.753  1.2024  1.0166  0.6435
   96CHL1   C17 9534   2.910   2.028   7.699 -0.6517 -0.0145  0.0140
   96CHL1   H17 9535   2.807   1.985   7.696 -1.1334  1.1294 -0.5477
   96CHL1   C13 9536   2.987   2.006   7.565  0.2457  0.1456  0.8418
   96CHL1   C18 9537   3.134   2.042   7.581 -0.1771  1.1818  1.1769
   96CHL1  H18A 9538   3.185   2.061   7.484 -0.6749 -1.0378  0.4090
   96CHL1  H18B 9539   3.146   2.129   7.649  1.2469  0.1374  2.3496
   96CHL1  H18C 9540   3.180   1.954   7.631 -0.3859 -0.1975 -0.9288
   96CHL1   C12 9541   2.969   1.873   7.502  0.6981  0.2934 -0.1597
   96CHL1  H12A 9542   3.026   1.800   7.562  0.5706  0.1786 -0.1760
   96CHL1  H12B 9543   2.861   1.845   7.500  0.5786  0.4074  2.2090
   96CHL1   C11 9544   3.028   1.870   7.354  0.0228  0.1001 -1.3210
   96CHL1  H11A 9545   3.138   1.868   7.370 -0.3454 -0.6515  1.9402
   96CHL1  H11B 9546   3.000   1.773   7.306 -0.6835  0.2499 -1.2270
   96CHL1    C9 9547   2.967   1.976   7.264 -0.2284  0.0368 -0.1144
   96CHL1    H9 9548   2.859   1.947   7.262 -0.0785 -0.5134 -0.7027
   96CHL1   C10 9549   3.012   1.969   7.117 -0.1033  0.4473 -0.3758
   96CHL1   C19 9550   3.167   1.971   7.124  0.3192  0.2045 -0.8795
   96CHL1  H19A 9551   3.205   2.063   7.174  2.7642  0.4206 -2.9335
   96CHL1  H19B 9552   3.205   1.880   7.176 -1.1583 -0.5677 -1.0851
   96CHL1  H19C 9553   3.212   1.988   7.024  0.8106  2.9636 -0.2685
   96CHL1    C1 9554   2.953   1.846   7.046 -1.1254  0.3815  0.0040
   96CHL1   H1A 9555   2.998   1.756   7.095 -0.8106  1.0210  0.9118
   96CHL1   H1B 9556   2.844   1.843   7.066 -0.9736  0.8174  0.9596
   96CHL1    C2 9557   2.991   1.848   6.895  0.3486 -0.3941  0.6820
   96CHL1   H2A 9558   2.960   1.756   6.841  1.2713 -1.2585  1.5739
   96CHL1   H2B 9559   3.101   1.831   6.887  0.2919 -0.8440  0.8382
   96CHL1   C20 9560   2.978   1.973   7.835 -0.0585 -0.2534 -0.2273
   96CHL1   H20 9561   3.081   2.012   7.831 -0.4676  0.8647 -0.1928
   96CHL1   C21 9562   2.986   1.823   7.834  0.1399  0.0347  1.0381
   96CHL1  H21A 9563   2.891   1.765   7.841  0.2600 -0.1777  0.9142
   96CHL1  H21B 9564   3.035   1.794   7.930  3.3364  1.8261  0.0448
   96CHL1  H21C 9565   3.050   1.780   7.754 -2.0653 -2.4009  0.4046
   96CHL1   C22 9566   2.898   2.013   7.957 -0.1631 -0.0395  0.4759
   96CHL1  H22A 9567   2.885   2.123   7.945 -0.7655 -0.0429  1.0096
   96CHL1  H22B 9568   2.794   1.972   7.956 -0.1645 -0.0319 -0.7498
   96CHL1   C23 9569   2.964   1.986   8.094  0.3257  0.2801  0.8285
   96CHL1  H23A 9570   2.957   1.875   8.097  0.7843  0.2157 -0.0290
   96CHL1  H23B 9571   3.071   2.009   8.074  0.4946 -1.4000 -0.3829
   96CHL1   C24 9572   2.884   2.041   8.215  0.1897  0.3327 -0.3197
   96CHL1  H24A 9573   2.773   2.036   8.207  0.1860  1.1877 -0.9410
   96CHL1  H24B 9574   2.916   1.978   8.300 -0.6851  1.6558  1.0525
   96CHL1   C25 9575   2.898   2.191   8.249  1.3593 -0.1326 -0.6065
   96CHL1   H25 9576   2.860   2.245   8.160  2.4037  0.6178 -0.6182
   96CHL1   C26 9577   2.833   2.219   8.381 -0.0095  0.0228 -0.0213
   96CHL1  H26A 9578   2.839   2.329   8.393 -1.8850  0.0421  1.2943
   96CHL1  H26B 9579   2.727   2.185   8.382  0.1429 -0.6257  2.8647
   96CHL1  H26C 9580   2.892   2.167   8.460 -1.0902  0.2302  0.9517
   96CHL1   C27 9581   3.050   2.217   8.265  0.5851 -0.0844 -0.6874
   96CHL1  H27A 9582   3.096   2.175   8.357 -0.7993 -1.2510 -0.4982
   96CHL1  H27B 9583   3.091   2.185   8.167 -0.3989 -0.9636 -0.8233
   96CHL1  H27C 9584   3.067   2.327   8.265  2.2645 -0.3232 -0.6476
   97OSM      N 9585   2.369   5.287  11.405 -0.6940  0.7501  0.5265
   97OSM    C15 9586   2.497   5.252  11.474 -0.7371  0.6970  0.4604
   97OSM   H15A 9587   2.494   5.272  11.580 -0.3507  1.5640  0.3152
   97OSM   H15B 9588   2.584   5.300  11.431 -0.4569  1.1134  1.4686
   97OSM   H15C 9589   2.530   5.149  11.468  0.9626  1.0322  2.6310
   97OSM    C14 9590   2.264   5.222  11.497  0.3080 -0.0600  0.4575
   97OSM   H14A 9591   2.291   5.120  11.520 -1.9202 -1.5408 -2.6697
   97OSM   H14B 9592   2.167   5.222  11.449  0.3372  1.3173  0.3788
   97OSM   H14C 9593   2.259   5.267  11.595  1.5732  0.8666  0.1213
   97OSM    C13 9594   2.339   5.435  11.414  0.2374  0.5172  0.6316
   97OSM   H13A 9595   2.408   5.489  11.351  0.7902 -1.2711 -0.3600
   97OSM   H13B 9596   2.338   5.470  11.516  0.4428 -0.5030  0.9929
   97OSM   H13C 9597   2.242   5.458  11.371 -0.4640 -1.2541  1.1899
   97OSM    C12 9598   2.372   5.236  11.264 -0.1912  0.4170 -0.2785
   97OSM   H12A 9599   2.286   5.282  11.218  0.1281  0.6032 -0.7037
   97OSM   H12B 9600   2.350   5.131  11.265  0.8521  0.1843  0.4244
   97OSM    C11 9601   2.499   5.266  11.177  0.1645  0.3430 -0.0294
   97OSM   H11A 9602   2.485   5.213  11.080 -0.0648  0.8829 -0.2952
   97OSM   H11B 9603   2.585   5.219  11.229  0.5826 -1.1704 -1.9707
   97OSM      P 9604   2.432   5.503  11.080 -0.3315 -0.0042  0.0659
   97OSM    O13 9605   2.342   5.413  11.007 -0.2139 -0.4269  0.2256
   97OSM    O14 9606   2.381   5.615  11.161  0.6369  0.0059 -0.2942
   97OSM    O11 9607   2.532   5.566  10.972  0.2118  0.2965 -0.1514
   97OSM    O12 9608   2.523   5.401  11.162  0.1583 -0.1580 -0.3125
   97OSM    C1S 9609   2.507   5.560  10.834 -0.1310 -0.0627  0.2658
   97OSM    H1S 9610   2.405   5.525  10.806 -0.8480  1.8720  0.2913
   97OSM    H1T 9611   2.578   5.489  10.786  0.2318 -0.3241  1.1618
   97OSM     NF 9612   2.553   5.655  10.619  0.5575  0.7149 -0.4760
   97OSM    HNF 9613   2.641   5.652  10.571 -0.4371 -0.6721 -2.3108
   97OSM    C2S 9614   2.540   5.694  10.763  0.2186  0.2985  0.7918
   97OSM    H2S 9615   2.451   5.761  10.763  0.8810  1.2000  0.1845
   97OSM    C3S 9616   2.665   5.767  10.821 -0.1725 -1.4440  0.3714
   97OSM    H3S 9617   2.745   5.696  10.852  1.6001  0.2892 -0.0173
   97OSM     O3 9618   2.642   5.842  10.936 -0.5452 -0.2819 -0.0508
   97OSM    HO3 9619   2.546   5.851  10.940 -0.4309  0.6233  1.7023
   97OSM    C4S 9620   2.707   5.869  10.720  0.3799  0.2295 -0.4224
   97OSM    H4S 9621   2.643   5.958  10.706 -0.7090 -0.1466  1.7838
   97OSM    C5S 9622   2.826   5.857  10.652 -0.2023 -0.7863  0.2335
   97OSM    H5S 9623   2.904   5.781  10.663  2.2339  1.2748 -1.7339
   97OSM    C6S 9624   2.851   5.964  10.545 -0.2971 -0.1870 -0.4420
   97OSM    H6S 9625   2.952   6.011  10.545 -0.7396  0.8064 -0.6902
   97OSM    H6T 9626   2.785   6.052  10.563 -0.0245 -0.1616  0.4637
   97OSM    C7S 9627   2.815   5.904  10.404 -0.0934 -0.9875  0.6084
   97OSM    H7S 9628   2.705   5.898  10.387  0.0337  0.0946 -0.7521
   97OSM    H7T 9629   2.864   5.806  10.388  0.9621 -0.3567 -0.1774
   97OSM    C8S 9630   2.870   5.989  10.287 -0.2583 -0.3772  0.3605
   97OSM    H8S 9631   2.981   5.983  10.297 -0.3820 -2.6451  0.8599
   97OSM    H8T 9632   2.853   6.099  10.296  2.0340 -0.1113  2.3196
   97OSM    C9S 9633   2.838   5.943  10.145 -0.1239  0.0676  0.2980
   97OSM    H9S 9634   2.729   5.953  10.126 -0.0687 -0.0975 -0.1240
   97OSM    H9T 9635   2.858   5.834  10.133  0.4955  0.0874  1.0864
   97OSM   C10S 9636   2.917   6.024  10.038 -0.1161 -0.2040 -0.3737
   97OSM   H10S 9637   3.026   6.042  10.051 -0.2701  3.2847 -2.4559
   97OSM   H10T 9638   2.878   6.128  10.028 -2.2595 -1.0721 -1.5555
   97OSM   C11S 9639   2.904   5.959   9.896  0.2231  0.5106 -0.4049
   97OSM   H11S 9640   2.804   5.913   9.889  0.6691 -0.6068  0.4241
   97OSM   H11T 9641   2.980   5.878   9.894 -1.9043 -1.5556 -1.8846
   97OSM   C12S 9642   2.927   6.048   9.775  0.3604 -0.6308  0.0267
   97OSM   H12S 9643   3.010   6.119   9.794  1.0695 -0.8080 -2.0613
   97OSM   H12T 9644   2.834   6.109   9.775 -1.0735 -2.7114  0.6110
   97OSM   C13S 9645   2.941   5.964   9.645 -0.2144 -0.3003  0.1064
   97OSM   H13S 9646   2.869   5.879   9.642  0.1943 -0.6223 -0.7830
   97OSM   H13T 9647   3.037   5.908   9.645 -0.7555 -1.2527  0.4233
   97OSM   C14S 9648   2.934   6.047   9.520  0.8238 -0.0878  0.1312
   97OSM   H14S 9649   3.032   6.092   9.493 -0.4635  1.2178 -2.7201
   97OSM   H14T 9650   2.856   6.124   9.528 -0.6929 -1.3594 -1.6573
   97OSM   C15S 9651   2.901   5.948   9.402  0.7104 -0.1845 -0.2510
   97OSM   H15S 9652   2.800   5.906   9.425  0.5798  0.2381 -0.0461
   97OSM   H15T 9653   2.967   5.859   9.408  0.8045 -0.0858  0.2685
   97OSM   C16S 9654   2.882   6.022   9.276 -0.4998  0.4310  0.3373
   97OSM   H16S 9655   2.983   6.042   9.234 -1.1137  1.2953 -0.7777
   97OSM   H16T 9656   2.823   6.116   9.281 -0.8886  0.2583 -0.6040
   97OSM   C17S 9657   2.825   5.925   9.161 -0.4111  0.2326  0.3715
   97OSM   H17S 9658   2.731   5.895   9.212  0.2841  1.6625  2.6665
   97OSM   H17T 9659   2.885   5.832   9.161 -2.2407 -1.0143  1.2748
   97OSM   C18S 9660   2.808   5.990   9.025  0.5218 -0.1022 -0.4522
   97OSM   H18S 9661   2.763   6.090   9.044 -0.6461 -0.9981  1.8065
   97OSM   H18T 9662   2.728   5.940   8.965 -0.5107 -0.5232  1.2217
   97OSM   H18U 9663   2.898   6.001   8.961  1.0354  1.0076  0.4422
   97OSM    C1F 9664   2.441   5.623  10.547  0.1116 -0.1743 -0.2287
   97OSM     OF 9665   2.331   5.648  10.589 -0.3392 -0.2895  0.0436
   97OSM    C2F 9666   2.462   5.562  10.416 -0.7790 -0.8539  0.0971
   97OSM    H2F 9667   2.365   5.551  10.363 -0.0862  2.7732 -2.2814
   97OSM    H2G 9668   2.507   5.461  10.418  0.6571 -0.2278  0.3564
   97OSM    C3F 9669   2.538   5.652  10.320 -0.2155  0.0308 -0.5381
   97OSM    H3F 9670   2.645   5.642  10.345 -0.2589  0.0989 -0.3290
   97OSM    H3G 9671   2.518   5.761  10.334  0.8889  0.2174 -0.3385
   97OSM    C4F 9672   2.512   5.628  10.172  0.0425 -1.0556  0.4694
   97OSM    H4F 9673   2.421   5.691  10.156  0.2574 -1.2377 -1.8118
   97OSM    H4G 9674   2.495   5.520  10.149  1.2305 -0.7468 -2.3463
   97OSM    C5F 9675   2.625   5.666  10.067  0.6918  0.4086  0.2155
   97OSM    H5F 9676   2.721   5.628  10.109 -0.8496 -2.1052  1.7304
   97OSM    H5G 9677   2.628   5.777  10.060  0.4062  0.3029 -2.9329
   97OSM    C6F 9678   2.598   5.585   9.935 -0.4710 -0.8990 -0.0282
   97OSM    H6F 9679   2.496   5.604   9.895  0.1195  1.0684 -0.7034
   97OSM    H6G 9680   2.593   5.474   9.945 -0.4788 -1.0577 -1.5529
   97OSM    C7F 9681   2.702   5.626   9.839 -0.0330 -0.0571 -0.2144
   97OSM    H7F 9682   2.796   5.594   9.888 -1.8603 -3.5094  1.3967
   97OSM    H7G 9683   2.693   5.737   9.835  0.1791 -0.0102  0.5023
   97OSM    C8F 9684   2.695   5.565   9.699  0.1433 -0.5787  0.7682
   97OSM    H8F 9685   2.680   5.455   9.694  1.6561 -0.7824 -3.5370
   97OSM    H8G 9686   2.791   5.590   9.648 -0.2391 -3.3103 -1.4999
   97OSM    C9F 9687   2.570   5.604   9.616 -0.3182 -0.3421 -0.1150
   97OSM    H9F 9688   2.469   5.575   9.650 -0.7587  0.7576 -0.4479
   97OSM   C10F 9689   2.580   5.636   9.486 -0.0705  0.7022  0.1897
   97OSM   H10F 9690   2.483   5.671   9.447  0.0263  0.7481 -0.0119
   97OSM   C11F 9691   2.704   5.657   9.404  1.1829 -0.0568 -0.1626
   97OSM   H11F 9692   2.794   5.659   9.470 -0.1695 -2.0213  1.9168
   97OSM   H11G 9693   2.682   5.757   9.361 -0.9933 -0.0051  0.9426
   97OSM   C12F 9694   2.716   5.559   9.282  0.1011 -0.5827  0.2772
   97OSM   H12F 9695   2.805   5.592   9.223 -0.7845 -0.2047 -0.8941
   97OSM   H12G 9696   2.627   5.555   9.216  1.7157  4.2333 -2.7877
   97OSM   C13F 9697   2.747   5.422   9.339 -0.2597 -0.2578  0.3951
   97OSM   H13F 9698   2.673   5.389   9.414 -0.0322  0.4096  0.9160
   97OSM   H13G 9699   2.844   5.430   9.393  0.7838 -0.1182 -1.3943
   97OSM   C14F 9700   2.748   5.317   9.225 -0.7237  0.0698  0.0736
   97OSM   H14F 9701   2.649   5.326   9.175 -0.0676  0.2699 -1.2250
   97OSM   H14G 9702   2.747   5.218   9.276 -0.8497  0.7743  1.4881
   97OSM   C15F 9703   2.855   5.326   9.119 -0.3298 -0.5900  0.1484
   97OSM   H15F 9704   2.952   5.307   9.171 -1.7364 -0.4196  3.0233
   97OSM   H15G 9705   2.864   5.426   9.072 -3.1190 -1.1974 -1.9258
   97OSM   C16F 9706   2.823   5.231   9.012  0.0455  0.2022  0.5099
   97OSM   H16F 9707   2.731   5.276   8.970 -0.7425  0.3953  2.3856
   97OSM   H16G 9708   2.799   5.128   9.046  0.9062  0.5691  2.3384
   97OSM   C17F 9709   2.930   5.211   8.904 -0.7300 -0.8452 -0.6551
   97OSM   H17F 9710   2.896   5.134   8.831 -2.7449 -1.0053  0.3804
   97OSM   H17G 9711   3.021   5.173   8.956 -0.7372  1.2628  0.9951
   97OSM   C18F 9712   2.974   5.334   8.825 -0.2684 -0.3723 -0.1713
   97OSM   H18F 9713   3.073   5.322   8.776 -0.5889 -1.2673 -0.6347
   97OSM   H18G 9714   2.984   5.422   8.892 -1.8460 -0.1255 -0.2124
   97OSM   H18H 9715   2.889   5.366   8.762 -1.3373 -0.9711  0.9193
   98OSM      N 9716   3.551   2.845  11.202  0.6148 -0.2025 -0.5321
   98OSM    C15 9717   3.604   2.711  11.180  0.1374  0.1930 -0.3616
   98OSM   H15A 9718   3.702   2.714  11.134  1.2244 -0.0860  1.7887
   98OSM   H15B 9719   3.531   2.677  11.108 -4.4812  2.5055  2.7746
   98OSM   H15C 9720   3.604   2.654  11.272  1.3410  2.9589  1.4707
   98OSM    C14 9721   3.417   2.838  11.273  0.4076  0.8027  0.8327
   98OSM   H14A 9722   3.426   2.782  11.364  1.1766 -1.7323 -0.7104
   98OSM   H14B 9723   3.344   2.788  11.210  2.5551 -1.5384  0.0407
   98OSM   H14C 9724   3.382   2.939  11.288 -0.6423  0.5774  0.0266
   98OSM    C13 9725   3.638   2.925  11.290 -0.2915  0.6943 -0.3642
   98OSM   H13A 9726   3.597   3.023  11.306 -1.9636  0.4039 -2.4276
   98OSM   H13B 9727   3.736   2.951  11.254 -0.2470  0.0662 -0.7147
   98OSM   H13C 9728   3.648   2.870  11.383 -0.2932 -2.1812 -1.9402
   98OSM    C12 9729   3.522   2.907  11.070 -0.8081 -0.0124 -0.1881
   98OSM   H12A 9730   3.608   2.892  11.006 -0.7976  1.5422 -0.5882
   98OSM   H12B 9731   3.521   3.015  11.076 -0.2980  0.3151 -3.5704
   98OSM    C11 9732   3.392   2.875  10.991 -0.0554  0.3331 -0.3134
   98OSM   H11A 9733   3.390   2.764  10.989  0.2891  0.2818  1.2976
   98OSM   H11B 9734   3.403   2.923  10.891  1.9940  3.4622  1.2674
   98OSM      P 9735   3.243   3.071  11.059  0.0529 -0.4342 -0.0841
   98OSM    O13 9736   3.120   3.093  11.137  0.2754 -0.3340 -0.0193
   98OSM    O14 9737   3.367   3.147  11.097 -0.1418 -0.6140 -0.4519
   98OSM    O11 9738   3.208   3.109  10.913  0.3589  0.3850 -0.0557
   98OSM    O12 9739   3.273   2.918  11.058 -0.5988  0.0095 -0.5240
   98OSM    C1S 9740   3.295   3.186  10.839 -0.6738  0.2302 -0.6011
   98OSM    H1S 9741   3.399   3.147  10.842 -2.0422 -3.8111  0.5856
   98OSM    H1T 9742   3.303   3.288  10.884 -0.7638 -0.7724  1.8533
   98OSM     NF 9743   3.367   3.241  10.615 -0.9554  0.0022  0.6801
   98OSM    HNF 9744   3.366   3.336  10.584 -1.2982  0.0418  0.8087
   98OSM    C2S 9745   3.257   3.194  10.685 -0.0688 -0.1636 -0.2952
   98OSM    H2S 9746   3.228   3.093  10.647 -1.4919 -0.2372  0.9315
   98OSM    C3S 9747   3.135   3.294  10.671 -0.3423  0.0697 -0.0749
   98OSM    H3S 9748   3.165   3.397  10.700  0.2052 -0.6205  2.0367
   98OSM     O3 9749   3.027   3.256  10.757 -0.1450 -0.2517 -0.0724
   98OSM    HO3 9750   3.069   3.190  10.813  0.5654  1.3415  1.3720
   98OSM    C4S 9751   3.083   3.297  10.534 -0.1417 -0.4177 -0.0675
   98OSM    H4S 9752   3.066   3.396  10.490  3.4747  1.2088  1.7228
   98OSM    C5S 9753   3.068   3.190  10.460  0.2539  0.5862  0.6958
   98OSM    H5S 9754   3.087   3.091  10.505  0.1377  0.2579  0.0269
   98OSM    C6S 9755   3.021   3.188  10.312  0.1403 -0.4328 -0.3032
   98OSM    H6S 9756   2.932   3.252  10.293 -0.3033 -1.0852 -0.4540
   98OSM    H6T 9757   2.992   3.083  10.293 -0.8840 -0.0726 -0.8325
   98OSM    C7S 9758   3.134   3.226  10.213 -0.4147  0.0331  0.0331
   98OSM    H7S 9759   3.223   3.173  10.252  0.0395  0.2474 -0.6946
   98OSM    H7T 9760   3.139   3.337  10.211 -1.1353  0.0683 -1.2793
   98OSM    C8S 9761   3.096   3.166  10.075 -0.3531 -0.0527 -0.3452
   98OSM    H8S 9762   3.008   3.226  10.043  0.1622  1.3463  0.7534
   98OSM    H8T 9763   3.069   3.059  10.083 -0.3259 -0.2163 -2.0426
   98OSM    C9S 9764   3.200   3.178   9.968  0.7090  0.7779  0.0328
   98OSM    H9S 9765   3.285   3.118  10.009 -0.6646 -1.2203  0.0725
   98OSM    H9T 9766   3.240   3.280   9.947 -0.5849  1.3433  0.2280
   98OSM   C10S 9767   3.142   3.121   9.831  0.1479 -0.5038  0.1061
   98OSM   H10S 9768   3.051   3.178   9.804 -1.2674 -3.1500 -1.0994
   98OSM   H10T 9769   3.110   3.015   9.844 -3.6276  0.5986  1.1509
   98OSM   C11S 9770   3.249   3.138   9.716  0.1749 -0.0364 -0.4511
   98OSM   H11S 9771   3.348   3.110   9.759 -0.3634  0.1277  0.9772
   98OSM   H11T 9772   3.265   3.247   9.703  0.5325 -0.2255 -1.6409
   98OSM   C12S 9773   3.202   3.056   9.601 -0.4703 -0.1030  0.8085
   98OSM   H12S 9774   3.097   3.079   9.575 -0.1923  0.6039  0.2734
   98OSM   H12T 9775   3.188   2.951   9.634 -2.5581  0.2452  1.1253
   98OSM   C13S 9776   3.280   3.077   9.470 -0.5428  0.9037 -0.4432
   98OSM   H13S 9777   3.374   3.016   9.472 -1.4182 -0.4916  0.6733
   98OSM   H13T 9778   3.316   3.181   9.455  1.5745  0.5604  1.5586
   98OSM   C14S 9779   3.199   3.021   9.352  0.1958  0.1750 -0.2391
   98OSM   H14S 9780   3.097   3.065   9.350  0.3575  0.6089  0.6224
   98OSM   H14T 9781   3.167   2.916   9.365 -0.1712  0.2987 -0.1342
   98OSM   C15S 9782   3.283   3.030   9.214 -0.0517 -0.9043  0.0679
   98OSM   H15S 9783   3.373   2.969   9.238 -0.8765 -2.8285 -1.4515
   98OSM   H15T 9784   3.318   3.134   9.197  3.9411 -1.3120  3.8490
   98OSM   C16S 9785   3.219   2.961   9.092 -0.0356 -0.1344 -0.0113
   98OSM   H16S 9786   3.116   2.994   9.069  0.0463  0.7120  0.8000
   98OSM   H16T 9787   3.204   2.854   9.119  0.3111  0.3020  2.0384
   98OSM   C17S 9788   3.304   2.948   8.967  0.4110  0.2032 -0.5774
   98OSM   H17S 9789   3.410   2.919   8.985  0.0205 -1.4438 -0.7893
   98OSM   H17T 9790   3.320   3.052   8.933  1.0294  1.4958  3.1906
   98OSM   C18S 9791   3.249   2.861   8.853  0.0293 -0.6785 -0.2173
   98OSM   H18S 9792   3.138   2.875   8.848 -0.2125 -0.2663  3.2957
   98OSM   H18T 9793   3.275   2.757   8.881  0.2601 -0.5864 -0.0899
   98OSM   H18U 9794   3.309   2.879   8.762  2.1646 -0.4528  1.1563
   98OSM    C1F 9795   3.463   3.162  10.577  0.2206  0.2277 -0.0980
   98OSM     OF 9796   3.462   3.040  10.604 -0.3649  0.3294  0.0828
   98OSM    C2F 9797   3.582   3.228  10.518  0.8135  0.5661  1.0132
   98OSM    H2F 9798   3.663   3.238  10.594  4.0798 -0.7346 -2.0007
   98OSM    H2G 9799   3.570   3.336  10.498  0.4994  0.2025 -1.0134
   98OSM    C3F 9800   3.652   3.157  10.397  0.7859  1.1121  0.1834
   98OSM    H3F 9801   3.649   3.047  10.414  0.8640  1.3939  2.2898
   98OSM    H3G 9802   3.754   3.200  10.395  1.5955 -0.6259  1.4302
   98OSM    C4F 9803   3.584   3.200  10.269 -0.0405  0.9936 -0.0615
   98OSM    H4F 9804   3.475   3.199  10.287  0.0177  1.6664  0.3573
   98OSM    H4G 9805   3.605   3.134  10.182 -2.3850  2.2211 -1.6621
   98OSM    C5F 9806   3.618   3.343  10.220 -0.1966 -0.3314  0.2517
   98OSM    H5F 9807   3.727   3.354  10.203 -0.2772  0.6709  0.2946
   98OSM    H5G 9808   3.589   3.420  10.294  0.2214 -1.4557  1.6213
   98OSM    C6F 9809   3.566   3.373  10.078  0.3006  0.0588 -0.3952
   98OSM    H6F 9810   3.466   3.334  10.048 -0.0007  0.4929  0.0294
   98OSM    H6G 9811   3.639   3.321  10.012  0.1616  0.4992 -0.9050
   98OSM    C7F 9812   3.576   3.528  10.057 -0.0275 -0.6592  0.4024
   98OSM    H7F 9813   3.674   3.554  10.101  0.4239 -1.3101 -0.1857
   98OSM    H7G 9814   3.493   3.571  10.117 -1.3410 -2.0765 -0.3051
   98OSM    C8F 9815   3.570   3.577   9.914 -0.2108 -0.0089  0.4504
   98OSM    H8F 9816   3.466   3.566   9.877 -0.2126  2.9567 -0.6385
   98OSM    H8G 9817   3.644   3.508   9.866  0.7181  0.0912  1.6846
   98OSM    C9F 9818   3.631   3.710   9.882 -0.0488 -0.6747  0.3666
   98OSM    H9F 9819   3.722   3.733   9.939  0.4097  1.8795 -1.2196
   98OSM   C10F 9820   3.570   3.806   9.803 -0.1409 -0.0308  0.0605
   98OSM   H10F 9821   3.631   3.895   9.782 -0.5091 -0.0847 -1.3325
   98OSM   C11F 9822   3.438   3.795   9.731  0.2883 -0.5151  0.2560
   98OSM   H11F 9823   3.393   3.896   9.722  1.4928 -0.1103 -1.5833
   98OSM   H11G 9824   3.362   3.727   9.776 -0.0008 -0.4408 -0.1141
   98OSM   C12F 9825   3.452   3.746   9.585 -0.1437 -0.3311 -0.3044
   98OSM   H12F 9826   3.354   3.732   9.535 -1.2851  1.1468  1.3940
   98OSM   H12G 9827   3.510   3.652   9.598 -0.5943 -0.7927 -1.4928
   98OSM   C13F 9828   3.524   3.857   9.505 -0.0828 -0.7039  1.3222
   98OSM   H13F 9829   3.615   3.891   9.558  0.4309 -0.6613  0.4351
   98OSM   H13G 9830   3.454   3.943   9.506 -0.9336 -1.2666 -1.1160
   98OSM   C14F 9831   3.568   3.823   9.361  0.2142 -0.4320  0.2872
   98OSM   H14F 9832   3.488   3.756   9.323  0.8931 -0.5470 -0.9887
   98OSM   H14G 9833   3.661   3.762   9.369  0.4404  0.0138  1.2658
   98OSM   C15F 9834   3.593   3.944   9.261  1.0137 -0.1945 -0.2866
   98OSM   H15F 9835   3.669   4.011   9.306  1.8598 -0.3383 -1.4552
   98OSM   H15G 9836   3.508   4.014   9.243 -0.4765 -1.5259  1.2401
   98OSM   C16F 9837   3.642   3.889   9.119  0.9736 -0.2382 -0.3323
   98OSM   H16F 9838   3.582   3.796   9.106  3.0861 -1.8465  0.7443
   98OSM   H16G 9839   3.751   3.869   9.118  0.6054 -2.4735 -1.4954
   98OSM   C17F 9840   3.608   3.982   9.010 -0.1866  0.4587  0.8595
   98OSM   H17F 9841   3.671   4.073   9.019  1.2430 -0.6172  2.0677
   98OSM   H17G 9842   3.507   4.030   9.016  0.0761  1.2400 -0.3945
   98OSM   C18F 9843   3.621   3.936   8.862 -0.2884 -0.0311  0.2649
   98OSM   H18F 9844   3.726   3.905   8.843  0.7692  1.5383  2.8907
   98OSM   H18G 9845   3.581   4.021   8.803  0.2689  0.6164  0.7926
   98OSM   H18H 9846   3.557   3.847   8.844 -0.9220  0.2670  0.9577
   99OSM      N 9847   5.359   4.529  10.956  0.7254  0.0768  0.2352
   99OSM    C15 9848   5.343   4.587  10.816  0.4330 -0.0413 -0.1496
   99OSM   H15A 9849   5.350   4.694  10.818  0.8041 -0.0394 -0.9540
   99OSM   H15B 9850   5.250   4.556  10.770 -0.4329 -1.1923  2.2249
   99OSM   H15C 9851   5.425   4.552  10.755  2.4972  1.4836  1.6359
   99OSM    C14 9852   5.233   4.549  11.036 -0.0864 -0.9781  0.0004
   99OSM   H14A 9853   5.211   4.653  11.056  2.1295 -0.7048  1.3191
   99OSM   H14B 9854   5.243   4.508  11.135  1.9626 -0.5576  0.0094
   99OSM   H14C 9855   5.144   4.508  10.990 -0.1878 -0.0304 -0.6836
   99OSM    C13 9856   5.367   4.382  10.930 -0.8780  0.0591  0.5428
   99OSM   H13A 9857   5.382   4.332  11.025 -0.6510  0.7689  0.8851
   99OSM   H13B 9858   5.449   4.351  10.867 -0.6063 -0.8695  1.3214
   99OSM   H13C 9859   5.272   4.349  10.891 -0.9047 -0.1341  0.7644
   99OSM    C12 9860   5.481   4.582  11.030  0.4608 -0.5964 -0.1888
   99OSM   H12A 9861   5.569   4.530  10.996 -1.0823 -2.1510 -2.0942
   99OSM   H12B 9862   5.474   4.550  11.132  1.3082 -1.7392 -0.4798
   99OSM    C11 9863   5.502   4.742  11.032  0.2783 -0.1551 -0.2084
   99OSM   H11A 9864   5.513   4.780  10.929 -1.7152  2.5295  0.4600
   99OSM   H11B 9865   5.599   4.761  11.083  1.0644  0.1344 -1.7501
   99OSM      P 9866   5.301   4.903  11.046 -0.4064 -0.1254  0.3010
   99OSM    O13 9867   5.171   4.873  11.098 -0.1573  0.1081  0.2010
   99OSM    O14 9868   5.350   5.037  11.079 -0.4691 -0.2344  0.2637
   99OSM    O11 9869   5.291   4.867  10.895  0.5368 -0.2527  0.5353
   99OSM    O12 9870   5.400   4.808  11.113 -0.3119  0.6126  0.0501
   99OSM    C1S 9871   5.305   4.963  10.789 -0.9198 -0.0788 -0.1847
   99OSM    H1S 9872   5.409   5.001  10.781 -0.9114 -0.3339 -1.5377
   99OSM    H1T 9873   5.241   5.051  10.815  0.7597  0.7835  1.2028
   99OSM     NF 9874   5.280   5.012  10.552 -0.6381 -0.3510 -0.6448
   99OSM    HNF 9875   5.203   5.070  10.525 -1.1940 -0.3224  0.9372
   99OSM    C2S 9876   5.243   4.916  10.647  0.1073 -0.3689 -0.1306
   99OSM    H2S 9877   5.281   4.816  10.617 -2.3990 -0.8833 -1.8549
   99OSM    C3S 9878   5.087   4.886  10.673  0.2717  0.4784 -0.1666
   99OSM    H3S 9879   5.043   4.969  10.732  1.5350  1.7683 -0.9674
   99OSM     O3 9880   5.074   4.765  10.755  0.6442  0.1934 -0.0183
   99OSM    HO3 9881   5.161   4.746  10.790  0.9203  2.0614  0.4329
   99OSM    C4S 9882   5.007   4.862  10.545 -0.2000  0.2997 -0.5144
   99OSM    H4S 9883   4.953   4.951  10.508  1.5634  1.4634 -0.4482
   99OSM    C5S 9884   4.994   4.752  10.467  0.1712 -0.1486  0.1585
   99OSM    H5S 9885   5.050   4.662  10.496  0.1234  0.9399  4.3258
   99OSM    C6S 9886   4.920   4.738  10.338  0.6361 -0.3488  0.1940
   99OSM    H6S 9887   4.817   4.702  10.360  0.2298 -0.1898 -1.3236
   99OSM    H6T 9888   4.968   4.677  10.258 -0.0519 -1.2801  0.4669
   99OSM    C7S 9889   4.882   4.872  10.265  0.2080  0.2972  0.8467
   99OSM    H7S 9890   4.969   4.941  10.269  1.4174 -1.1511  0.8063
   99OSM    H7T 9891   4.799   4.925  10.316  0.9954  0.6995  1.7447
   99OSM    C8S 9892   4.840   4.839  10.120  0.1758  0.5305 -0.4923
   99OSM    H8S 9893   4.910   4.770  10.068  0.0570  0.2440 -0.2779
   99OSM    H8T 9894   4.839   4.930  10.056 -0.2790  0.1959 -0.9658
   99OSM    C9S 9895   4.701   4.774  10.100  0.3700  0.4047 -0.6792
   99OSM    H9S 9896   4.680   4.692  10.172 -1.8762  1.7562  0.3028
   99OSM    H9T 9897   4.710   4.741   9.994  1.4864 -0.5747 -0.3052
   99OSM   C10S 9898   4.589   4.880  10.110 -0.5333 -0.1243 -0.3990
   99OSM   H10S 9899   4.619   4.971  10.053 -0.4681  0.3336  0.3423
   99OSM   H10T 9900   4.588   4.916  10.215  3.1628 -1.5506  0.2735
   99OSM   C11S 9901   4.452   4.818  10.070  0.0328 -0.2683  0.0667
   99OSM   H11S 9902   4.378   4.899  10.091  0.2862  0.2219 -0.8902
   99OSM   H11T 9903   4.434   4.729  10.134  0.4902 -0.0464  0.5147
   99OSM   C12S 9904   4.421   4.792   9.923 -0.0362  0.5250  0.5303
   99OSM   H12S 9905   4.505   4.726   9.893 -0.5139  0.2294 -0.1789
   99OSM   H12T 9906   4.317   4.758   9.907  0.1018  0.3489 -0.0210
   99OSM   C13S 9907   4.440   4.916   9.828 -0.5520 -0.0601  0.1092
   99OSM   H13S 9908   4.465   5.002   9.893 -3.1567 -1.4896  3.3416
   99OSM   H13T 9909   4.343   4.944   9.781 -1.5107  1.3530  2.7527
   99OSM   C14S 9910   4.550   4.902   9.731  0.6648 -0.0311  0.3599
   99OSM   H14S 9911   4.633   4.837   9.768  1.8144  0.5888 -1.0218
   99OSM   H14T 9912   4.594   5.001   9.704  1.4783 -0.5913 -0.4252
   99OSM   C15S 9913   4.492   4.828   9.608 -0.4392  0.3257 -0.7757
   99OSM   H15S 9914   4.409   4.881   9.557 -0.1032  0.0212 -1.6543
   99OSM   H15T 9915   4.456   4.730   9.646  0.9381 -0.4345 -1.3812
   99OSM   C16S 9916   4.589   4.814   9.495  0.0368 -0.0566  0.0254
   99OSM   H16S 9917   4.684   4.766   9.527  0.4665  1.7549  1.6521
   99OSM   H16T 9918   4.620   4.917   9.465  1.1744 -0.7347 -1.2436
   99OSM   C17S 9919   4.536   4.745   9.368  0.3692  0.3417 -0.4609
   99OSM   H17S 9920   4.619   4.743   9.293  1.9534  0.0344  1.2223
   99OSM   H17T 9921   4.456   4.811   9.328 -1.4198 -2.0410 -1.0465
   99OSM   C18S 9922   4.478   4.602   9.397 -0.5877 -0.0575 -0.5862
   99OSM   H18S 9923   4.451   4.546   9.305 -1.5002 -1.0611  0.2519
   99OSM   H18T 9924   4.389   4.614   9.463  0.5345  1.7771  0.7008
   99OSM   H18U 9925   4.539   4.528   9.454  2.0701  1.5365 -1.1742
   99OSM    C1F 9926   5.398   5.021  10.487  0.0666  0.3230 -0.0448
   99OSM     OF 9927   5.490   4.945  10.509  0.5488  0.0027  0.2685
   99OSM    C2F 9928   5.413   5.139  10.398  0.0641 -0.0960 -0.4238
   99OSM    H2F 9929   5.493   5.202  10.443 -0.9788  1.2910 -0.4349
   99OSM    H2G 9930   5.316   5.193  10.396 -0.1666 -0.3290  1.6330
   99OSM    C3F 9931   5.464   5.097  10.255  0.3363 -0.1234  0.0913
   99OSM    H3F 9932   5.491   5.184  10.190  3.9525 -1.4102 -0.3783
   99OSM    H3G 9933   5.548   5.027  10.271 -1.5694 -2.2188  1.4817
   99OSM    C4F 9934   5.363   5.011  10.177  0.5998  0.0577 -0.6624
   99OSM    H4F 9935   5.304   4.948  10.248  1.1721 -0.4059 -0.5882
   99OSM    H4G 9936   5.416   4.945  10.104  2.1443  1.2993 -0.7144
   99OSM    C5F 9937   5.261   5.085  10.085  0.0808 -0.0085  0.0607
   99OSM    H5F 9938   5.307   5.167  10.026  0.1064 -0.6760 -0.8739
   99OSM    H5G 9939   5.183   5.128  10.151 -0.2985 -2.7154  1.5200
   99OSM    C6F 9940   5.182   4.989   9.997 -0.5096  0.3288 -0.3157
   99OSM    H6F 9941   5.081   5.033   9.983 -0.3931  0.4299 -0.8812
   99OSM    H6G 9942   5.167   4.889  10.043 -0.2935 -1.2497 -3.4120
   99OSM    C7F 9943   5.240   4.964   9.856  0.7585 -0.2752  0.2355
   99OSM    H7F 9944   5.333   4.904   9.858  0.0514 -1.3960  1.9453
   99OSM    H7G 9945   5.262   5.066   9.818  2.1148 -0.5244  0.3250
   99OSM    C8F 9946   5.148   4.886   9.754  0.2074  0.8270 -0.1076
   99OSM    H8F 9947   5.150   4.781   9.790  0.4861  1.4135  1.6807
   99OSM    H8G 9948   5.206   4.887   9.659 -3.5358 -1.5725 -2.7336
   99OSM    C9F 9949   5.002   4.926   9.740 -0.4564 -0.7293 -0.0315
   99OSM    H9F 9950   4.944   4.921   9.834  0.4627  4.9314  1.1927
   99OSM   C10F 9951   4.932   4.961   9.629 -0.1334 -0.7661 -0.5603
   99OSM   H10F 9952   4.835   5.009   9.642  0.4096 -0.4091  3.0900
   99OSM   C11F 9953   4.995   4.969   9.495  0.3057 -0.4950  0.3858
   99OSM   H11F 9954   5.102   4.937   9.497  1.0322  1.3217 -2.8003
   99OSM   H11G 9955   5.003   5.076   9.470 -1.5302 -0.3112  0.4408
   99OSM   C12F 9956   4.916   4.886   9.392 -0.5911  0.3234 -0.6598
   99OSM   H12F 9957   4.810   4.917   9.381 -0.1507  2.8606  1.2294
   99OSM   H12G 9958   4.906   4.782   9.432  1.0449  0.5079  0.3049
   99OSM   C13F 9959   4.987   4.902   9.249  0.4932 -0.4772  0.2320
   99OSM   H13F 9960   5.089   4.862   9.266  0.6259 -0.9717 -1.5081
   99OSM   H13G 9961   4.998   5.010   9.226  1.1742 -1.2782 -4.2628
   99OSM   C14F 9962   4.915   4.822   9.143 -0.0983  0.4877  0.3831
   99OSM   H14F 9963   4.815   4.865   9.119  0.3680  0.2886 -2.1129
   99OSM   H14G 9964   4.906   4.718   9.183  1.5249  0.1808  0.0222
   99OSM   C15F 9965   4.998   4.810   9.015  0.2086  0.4631  1.4301
   99OSM   H15F 9966   5.081   4.742   9.043  0.7224  1.3326  2.0723
   99OSM   H15G 9967   5.051   4.906   8.995  2.5826 -0.7480  1.5656
   99OSM   C16F 9968   4.915   4.750   8.894 -0.2010 -1.4478 -0.2751
   99OSM   H16F 9969   4.980   4.746   8.804 -0.8395  1.0736 -0.9261
   99OSM   H16G 9970   4.841   4.830   8.871  3.3653  2.4817  0.5078
   99OSM   C17F 9971   4.852   4.619   8.918 -0.6070 -0.3063  0.4333
   99OSM   H17F 9972   4.803   4.578   8.827  1.3022 -0.9156 -0.3603
   99OSM   H17G 9973   4.768   4.638   8.989 -0.6403  0.2636  0.2444
   99OSM   C18F 9974   4.944   4.503   8.965  0.2278  0.7428  0.5642
   99OSM   H18F 9975   4.886   4.408   8.966 -1.0416  1.4745  2.3804
   99OSM   H18G 9976   4.965   4.527   9.072  1.8997  0.3369  0.3572
   99OSM   H18H 9977   5.036   4.482   8.907 -1.3423 -0.2315 -1.6981
  100OSM      N 9978   1.853   4.781  10.946  0.9194  0.5057 -0.5422
  100OSM    C15 9979   1.986   4.790  10.870 -1.2003 -0.3514 -0.1523
  100OSM   H15A 9980   2.010   4.701  10.814  0.1393  0.7620 -1.4096
  100OSM   H15B 9981   2.067   4.812  10.938 -0.5995  0.7551 -1.1987
  100OSM   H15C 9982   1.983   4.870  10.798  0.5671 -0.3630 -0.2796
  100OSM    C14 9983   1.878   4.698  11.065 -0.6775 -0.0616 -0.6238
  100OSM   H14A 9984   1.877   4.594  11.038  1.3423 -0.1628 -0.4313
  100OSM   H14B 9985   1.800   4.711  11.139 -1.4392 -0.1326 -1.3981
  100OSM   H14C 9986   1.969   4.729  11.113  0.8811  1.2052 -4.0436
  100OSM    C13 9987   1.834   4.915  11.015  0.2731 -0.4169  0.1319
  100OSM   H13A 9988   1.747   4.916  11.079  0.2649 -0.7008  0.1251
  100OSM   H13B 9989   1.836   4.995  10.942  0.3576  1.7701  2.3977
  100OSM   H13C 9990   1.921   4.937  11.075  1.4929  0.4170 -1.8604
  100OSM    C12 9991   1.733   4.743  10.865 -0.4895  0.0157  0.5090
  100OSM   H12A 9992   1.756   4.648  10.820 -2.8180  1.0476 -3.3019
  100OSM   H12B 9993   1.716   4.804  10.777  1.7595 -0.3180 -0.2224
  100OSM    C11 9994   1.597   4.758  10.933  0.7097  0.0637 -0.1802
  100OSM   H11A 9995   1.597   4.697  11.025 -0.1915  1.5283  0.8279
  100OSM   H11B 9996   1.521   4.712  10.867  0.7883 -0.3858  0.0413
  100OSM      P 9997   1.517   4.993  10.860  0.3448 -0.8373  0.0394
  100OSM    O13 9998   1.371   4.994  10.853  0.3084  0.0855  0.2405
  100OSM    O14 9999   1.577   5.123  10.886 -1.0378  0.2712  0.1878
  100OSM    O1110000   1.578   4.952  10.726 -0.3172  0.7016 -0.0074
  100OSM    O1210001   1.567   4.891  10.971  0.4992 -0.5892  0.2527
  100OSM    C1S10002   1.512   4.853  10.644  0.3519 -0.0563  0.2192
  100OSM    H1S10003   1.435   4.790  10.694 -0.7596  1.2638  0.2368
  100OSM    H1T10004   1.587   4.779  10.608 -1.9326 -2.7199  0.6071
  100OSM     NF10005   1.387   4.828  10.424  0.4479  0.3449 -0.1978
  100OSM    HNF10006   1.423   4.812  10.332 -1.3268  0.5503 -0.9566
  100OSM    C2S10007   1.454   4.928  10.512  0.5321 -0.2653  0.1015
  100OSM    H2S10008   1.377   4.999  10.550  0.1157 -0.5452 -0.2158
  100OSM    C3S10009   1.569   5.005  10.446 -0.1739  0.6936  0.1585
  100OSM    H3S10010   1.633   4.929  10.396 -2.4037 -1.2346  0.0484
  100OSM     O310011   1.631   5.100  10.526 -0.2040 -0.3760  0.4940
  100OSM    HO310012   1.606   5.093  10.618 -2.1584 -0.2225  0.0251
  100OSM    C4S10013   1.521   5.080  10.328  0.6201  0.2376 -0.0887
  100OSM    H4S10014   1.523   5.010  10.243 -0.1538  1.2215 -0.9458
  100OSM    C5S10015   1.468   5.199  10.312 -0.8294 -0.0520  0.0758
  100OSM    H5S10016   1.461   5.268  10.397 -1.7662  0.2214 -0.2060
  100OSM    C6S10017   1.411   5.243  10.182 -0.1022 -0.3323 -0.2729
  100OSM    H6S10018   1.506   5.269  10.131 -0.4045  0.5078 -0.4227
  100OSM    H6T10019   1.347   5.333  10.195  0.9798  0.4722 -0.4078
  100OSM    C7S10020   1.349   5.140  10.088 -0.0702  0.3961  0.6313
  100OSM    H7S10021   1.240   5.131  10.106 -0.3144  0.1393 -0.7997
  100OSM    H7T10022   1.389   5.036  10.088 -2.6453 -0.7353  3.1644
  100OSM    C8S10023   1.338   5.180   9.943 -0.1662  0.1560 -0.1558
  100OSM    H8S10024   1.440   5.206   9.907  0.9528 -0.4786  2.3562
  100OSM    H8T10025   1.281   5.273   9.921 -0.6714  0.1928  1.2222
  100OSM    C9S10026   1.259   5.063   9.873 -0.9179 -0.7784 -0.5505
  100OSM    H9S10027   1.166   5.041   9.930 -2.5182 -3.7075 -3.9294
  100OSM    H9T10028   1.301   4.960   9.882 -1.4764 -0.8819  1.2566
  100OSM   C10S10029   1.229   5.105   9.731  1.1585  0.6831  0.2347
  100OSM   H10S10030   1.313   5.171   9.705  2.1372 -1.4224 -2.4008
  100OSM   H10T10031   1.134   5.163   9.726  1.0299  0.4161 -0.5476
  100OSM   C11S10032   1.239   4.987   9.629  0.5914  0.2719 -0.3258
  100OSM   H11S10033   1.164   4.909   9.656  1.3577 -1.5762 -3.0799
  100OSM   H11T10034   1.343   4.948   9.643  0.3974  0.0545  0.6372
  100OSM   C12S10035   1.212   5.017   9.478  0.8761  0.4101  0.3405
  100OSM   H12S10036   1.120   5.078   9.482  0.9894  0.5418  1.0661
  100OSM   H12T10037   1.189   4.929   9.414 -0.1337  1.1296 -0.3170
  100OSM   C13S10038   1.339   5.075   9.419  0.3461  0.6380  0.3000
  100OSM   H13S10039   1.416   4.995   9.408 -2.6483 -2.3699 -0.3512
  100OSM   H13T10040   1.387   5.153   9.483 -0.8171  1.2829  0.4152
  100OSM   C14S10041   1.309   5.138   9.280 -0.2470  0.6973 -0.4432
  100OSM   H14S10042   1.266   5.239   9.298  0.0521  0.4469  2.0132
  100OSM   H14T10043   1.228   5.079   9.232 -0.8211 -0.2139  1.5579
  100OSM   C15S10044   1.436   5.139   9.198 -0.2042 -0.6437  0.0068
  100OSM   H15S10045   1.453   5.035   9.161 -0.4434  0.0313 -2.1685
  100OSM   H15T10046   1.526   5.162   9.258 -0.2700  5.1064 -1.5340
  100OSM   C16S10047   1.421   5.237   9.079 -0.0410 -0.0089  0.0373
  100OSM   H16S10048   1.510   5.246   9.013  0.1833  0.1991  0.3629
  100OSM   H16T10049   1.416   5.341   9.119 -0.0271 -1.6082  4.8154
  100OSM   C17S10050   1.302   5.212   8.985 -0.0674 -0.5628  0.1292
  100OSM   H17S10051   1.212   5.261   9.028 -0.5942 -0.9513 -0.5149
  100OSM   H17T10052   1.280   5.104   8.971  1.6629 -0.8329 -0.7847
  100OSM   C18S10053   1.319   5.278   8.850  0.2728  0.1401 -0.0529
  100OSM   H18S10054   1.219   5.272   8.800  0.2202  1.9685 -0.2205
  100OSM   H18T10055   1.395   5.224   8.790 -2.0276 -0.8743 -2.2599
  100OSM   H18U10056   1.347   5.383   8.873  0.5590 -0.5194  3.0881
  100OSM    C1F10057   1.274   4.773  10.451  0.2566 -0.5962 -0.7651
  100OSM     OF10058   1.204   4.816  10.546 -0.3521  0.2169 -0.1544
  100OSM    C2F10059   1.229   4.667  10.360  0.7291  0.2564  0.2825
  100OSM    H2F10060   1.189   4.585  10.423 -1.3410  1.3427  0.4492
  100OSM    H2G10061   1.307   4.628  10.291 -0.4411  0.8190 -1.4306
  100OSM    C3F10062   1.107   4.722  10.277  0.0474 -0.1843  0.1463
  100OSM    H3F10063   1.145   4.819  10.240  1.6287  0.2301  2.6072
  100OSM    H3G10064   1.024   4.741  10.348 -0.9888 -0.4310 -0.9798
  100OSM    C4F10065   1.068   4.636  10.156  0.5378 -0.1078 -0.1697
  100OSM    H4F10066   0.979   4.572  10.171  0.0650  0.7687  0.9128
  100OSM    H4G10067   1.154   4.572  10.123  0.7626  0.5433 -0.8776
  100OSM    C5F10068   1.023   4.730  10.044  1.1781 -0.6397  0.2412
  100OSM    H5F10069   1.107   4.795  10.009  2.2276 -2.3877 -0.6568
  100OSM    H5G10070   0.942   4.799  10.075  0.4263 -0.3806 -2.0979
  100OSM    C6F10071   0.967   4.650   9.924  0.2808 -0.1162  0.0991
  100OSM    H6F10072   0.879   4.589   9.954 -0.1701 -0.0647 -1.0373
  100OSM    H6G10073   1.041   4.575   9.891  0.6185 -0.4513  1.5439
  100OSM    C7F10074   0.913   4.738   9.808  0.1753  0.4167  0.2423
  100OSM    H7F10075   0.986   4.786   9.738 -0.0285 -0.8106 -0.8473
  100OSM    H7G10076   0.849   4.817   9.853 -0.2688 -0.1778  0.6753
  100OSM    C8F10077   0.818   4.660   9.704 -0.8104 -0.2024 -0.8975
  100OSM    H8F10078   0.767   4.743   9.651 -0.9776  0.8760  0.8615
  100OSM    H8G10079   0.748   4.591   9.756  0.8087 -1.3837 -0.2162
  100OSM    C9F10080   0.889   4.577   9.606 -0.3685  0.2384  0.3995
  100OSM    H9F10081   0.967   4.516   9.654 -1.8776 -0.0001  2.7292
  100OSM   C10F10082   0.884   4.585   9.476 -0.7398 -0.3774 -0.2347
  100OSM   H10F10083   0.953   4.531   9.411  1.8879  1.4320  0.8570
  100OSM   C11F10084   0.783   4.661   9.401  0.4785 -0.3539  0.7847
  100OSM   H11F10085   0.762   4.769   9.417  0.2536 -0.1949 -0.4699
  100OSM   H11G10086   0.686   4.605   9.401  0.3305 -0.1343 -0.5597
  100OSM   C12F10087   0.816   4.651   9.246 -0.3325 -0.8871 -0.0144
  100OSM   H12F10088   0.722   4.679   9.194  0.2506 -1.8083 -1.6209
  100OSM   H12G10089   0.846   4.551   9.208 -2.6802 -1.8122  0.3900
  100OSM   C13F10090   0.926   4.756   9.202 -0.5960  0.0262  0.2743
  100OSM   H13F10091   1.013   4.733   9.268 -0.0016  1.3797 -0.0027
  100OSM   H13G10092   0.909   4.864   9.223 -1.4059  0.2837 -1.5484
  100OSM   C14F10093   0.959   4.762   9.048  0.0465  0.0747  0.3057
  100OSM   H14F10094   0.896   4.838   8.996 -0.7412 -0.6866  0.1244
  100OSM   H14G10095   0.927   4.659   9.021  0.2114  0.3076 -0.8123
  100OSM   C15F10096   1.109   4.782   9.011  1.2493 -0.0729  0.7202
  100OSM   H15F10097   1.160   4.710   9.078  1.0494  1.1114  2.2118
  100OSM   H15G10098   1.125   4.888   9.040 -0.6096  0.4377  0.0428
  100OSM   C16F10099   1.152   4.758   8.864 -0.4488 -0.2376  0.9269
  100OSM   H16F10100   1.107   4.664   8.826  1.2383  0.4749 -3.4063
  100OSM   H16G10101   1.262   4.748   8.868  0.0906  3.4561 -0.3885
  100OSM   C17F10102   1.115   4.881   8.783 -1.0961 -0.2426 -0.0515
  100OSM   H17F10103   1.139   4.974   8.840  2.9983 -0.6351 -0.8301
  100OSM   H17G10104   1.012   4.881   8.744  0.3972  0.1255 -4.5153
  100OSM   C18F10105   1.196   4.891   8.661 -0.3321 -0.4755  0.0361
  100OSM   H18F10106   1.175   4.985   8.604 -0.0366 -0.3902  0.0638
  100OSM   H18G10107   1.179   4.805   8.593  0.9366 -0.8593  0.1673
  100OSM   H18H10108   1.302   4.906   8.690 -0.4379  0.0925  0.1506
  101OSM      N10109   3.672   0.239  11.187  0.3858  0.3678 -0.4515
  101OSM    C1510110   3.791   0.166  11.120 -0.6172  0.3528  0.1047
  101OSM   H15A10111   3.858   0.234  11.068  0.9363 -0.4897  0.9172
  101OSM   H15B10112   3.746   0.104  11.044 -1.3612  2.3006 -1.1399
  101OSM   H15C10113   3.849   0.110  11.191 -0.1295 -1.2564 -1.5021
  101OSM    C1410114   3.612   0.142  11.274  0.2078 -0.4159  0.5950
  101OSM   H14A10115   3.672   0.096  11.352 -2.1234 -1.1830  2.0217
  101OSM   H14B10116   3.572   0.061  11.215 -1.5509  0.6276  0.2809
  101OSM   H14C10117   3.524   0.181  11.322 -1.7656 -1.5326 -1.8606
  101OSM    C1310118   3.728   0.354  11.273 -0.0092  0.4222  0.0515
  101OSM   H13A10119   3.647   0.409  11.317  0.5111  1.9831 -0.8782
  101OSM   H13B10120   3.779   0.421  11.205  0.7055 -2.0924 -2.0770
  101OSM   H13C10121   3.801   0.323  11.347  1.0594  1.2619 -0.6119
  101OSM    C1210122   3.577   0.285  11.082  0.0556 -0.2467  0.2876
  101OSM   H12A10123   3.623   0.372  11.038  1.2952 -1.4672 -0.9382
  101OSM   H12B10124   3.487   0.324  11.127  0.3081  1.4391 -0.5884
  101OSM    C1110125   3.547   0.175  10.977 -0.2054  0.1001 -0.3502
  101OSM   H11A10126   3.627   0.185  10.901 -1.2660 -0.0221 -1.5066
  101OSM   H11B10127   3.454   0.205  10.924 -0.6017 -1.0576 -0.3387
  101OSM      P10128   3.469  -0.066  10.929  0.0296  0.0998  0.1144
  101OSM    O1310129   3.528  -0.202  10.955 -0.0739  0.1106  0.0117
  101OSM    O1410130   3.324  -0.053  10.951 -0.1191 -0.5762  0.3518
  101OSM    O1110131   3.488  -0.019  10.787  0.1582 -0.0862 -0.5095
  101OSM    O1210132   3.546   0.041  11.019 -0.3761 -0.3807  0.0547
  101OSM    C1S10133   3.596  -0.043  10.701 -0.6766  0.4148  0.5150
  101OSM    H1S10134   3.677  -0.110  10.736 -0.5667 -1.3717 -2.7495
  101OSM    H1T10135   3.656   0.050  10.690 -1.3014  0.8100  0.4249
  101OSM     NF10136   3.665  -0.132  10.471  0.3872  0.5722  0.3725
  101OSM    HNF10137   3.705  -0.053  10.425 -0.6198 -0.1368 -1.8810
  101OSM    C2S10138   3.553  -0.095  10.558  0.5533  1.0705 -1.3025
  101OSM    H2S10139   3.487  -0.184  10.564  2.7813 -0.6385 -0.7177
  101OSM    C3S10140   3.456   0.012  10.493 -0.2599 -0.2392  0.2112
  101OSM    H3S10141   3.520   0.102  10.482 -1.3496  0.5504  0.2015
  101OSM     O310142   3.346   0.046  10.579  0.2644  0.2008 -0.2947
  101OSM    HO310143   3.381   0.020  10.665  0.7749  1.3125 -0.1545
  101OSM    C4S10144   3.404  -0.019  10.353 -0.3783  0.7451  0.0641
  101OSM    H4S10145   3.466   0.022  10.272 -0.4395  0.1209 -0.3135
  101OSM    C5S10146   3.314  -0.112  10.316 -0.0631 -0.2810  0.5475
  101OSM    H5S10147   3.259  -0.172  10.391 -0.8059 -1.4673 -0.8841
  101OSM    C6S10148   3.278  -0.144  10.173 -0.0852 -0.3251 -0.7189
  101OSM    H6S10149   3.168  -0.130  10.162  0.0144  1.1475 -0.1276
  101OSM    H6T10150   3.299  -0.251  10.153 -0.6958 -0.3633 -1.1749
  101OSM    C7S10151   3.345  -0.068  10.058 -0.0153 -0.4507 -0.7627
  101OSM    H7S10152   3.454  -0.085  10.055  0.1534  0.4605 -0.1631
  101OSM    H7T10153   3.334   0.042  10.069  0.4130 -0.4935  0.2513
  101OSM    C8S10154   3.288  -0.108   9.925  0.2203 -0.3761 -0.0573
  101OSM    H8S10155   3.177  -0.104   9.930  0.0942 -3.0975  1.2354
  101OSM    H8T10156   3.299  -0.218   9.921 -1.4437 -0.5606 -0.3185
  101OSM    C9S10157   3.355  -0.043   9.815 -1.0798 -0.5575  0.5036
  101OSM    H9S10158   3.466  -0.051   9.810 -1.0992 -0.0468 -1.7452
  101OSM    H9T10159   3.349   0.067   9.827  2.5027 -0.1795  0.0164
  101OSM   C10S10160   3.299  -0.070   9.678 -0.2996  0.7641 -0.5958
  101OSM   H10S10161   3.190  -0.089   9.690 -0.3231  0.0186 -1.7963
  101OSM   H10T10162   3.352  -0.160   9.640  0.0790  1.3633 -1.5399
  101OSM   C11S10163   3.329   0.038   9.569 -0.3055 -0.0760 -0.1367
  101OSM   H11S10164   3.439   0.051   9.554 -0.4850 -0.0951 -1.6141
  101OSM   H11T10165   3.278   0.136   9.587  1.5866  1.4520 -2.4894
  101OSM   C12S10166   3.280  -0.011   9.432  0.2830  0.5914 -0.7592
  101OSM   H12S10167   3.183  -0.063   9.438 -0.7181  2.5235  3.0991
  101OSM   H12T10168   3.347  -0.094   9.402 -1.1836 -0.2942 -1.6945
  101OSM   C13S10169   3.287   0.086   9.323 -0.3681  0.0910 -0.2786
  101OSM   H13S10170   3.378   0.065   9.263 -0.7914  0.9630 -1.2548
  101OSM   H13T10171   3.308   0.188   9.360 -0.2018 -0.0233 -0.0480
  101OSM   C14S10172   3.161   0.085   9.239  0.0453 -0.0801  0.1460
  101OSM   H14S10173   3.170   0.174   9.173 -0.2706  1.1091  1.6555
  101OSM   H14T10174   3.070   0.108   9.298 -0.5064 -0.6139 -0.4730
  101OSM   C15S10175   3.148  -0.038   9.141  0.1215 -0.6541 -0.1753
  101OSM   H15S10176   3.078  -0.007   9.060  0.8904 -0.6734 -0.8652
  101OSM   H15T10177   3.110  -0.120   9.205 -1.2197 -0.4364 -0.6429
  101OSM   C16S10178   3.277  -0.068   9.068 -0.3977 -0.7570  0.3603
  101OSM   H16S10179   3.358  -0.124   9.119  2.9860  2.0653 -1.4050
  101OSM   H16T10180   3.331   0.027   9.045 -1.1277 -0.3119  0.4486
  101OSM   C17S10181   3.252  -0.134   8.933  0.1937 -0.2755 -0.0261
  101OSM   H17S10182   3.295  -0.077   8.847 -0.9849 -0.7969 -1.0023
  101OSM   H17T10183   3.144  -0.150   8.911  0.4917 -0.5095 -1.4520
  101OSM   C18S10184   3.316  -0.269   8.917 -0.5459 -0.4324 -0.4235
  101OSM   H18S10185   3.310  -0.292   8.809 -0.4330  0.4411 -0.6226
  101OSM   H18T10186   3.261  -0.347   8.974 -1.0982 -1.2888 -2.0947
  101OSM   H18U10187   3.418  -0.249   8.957 -0.4901  1.5818 -1.4701
  101OSM    C1F10188   3.721  -0.250  10.478  0.2526 -0.3976  0.5178
  101OSM     OF10189   3.667  -0.342  10.541 -0.1688 -0.0139 -0.2737
  101OSM    C2F10190   3.857  -0.262  10.404  0.1868  0.2260 -0.7605
  101OSM    H2F10191   3.918  -0.314  10.480 -0.2980  0.8684  0.0835
  101OSM    H2G10192   3.904  -0.165  10.377  2.1617 -0.2528  0.7811
  101OSM    C3F10193   3.834  -0.344  10.272  0.1259 -0.3974  0.1007
  101OSM    H3F10194   3.803  -0.446  10.303  1.9681 -1.0730 -0.1428
  101OSM    H3G10195   3.933  -0.367  10.228  0.1868  0.6966 -0.3618
  101OSM    C4F10196   3.742  -0.283  10.167 -0.2176  0.6428 -0.3383
  101OSM    H4F10197   3.769  -0.176  10.150 -0.0826  0.0220 -5.7319
  101OSM    H4G10198   3.634  -0.288  10.194  0.8120  0.3644  4.6888
  101OSM    C5F10199   3.765  -0.366  10.038 -0.3560  0.1575  0.3373
  101OSM    H5F10200   3.721  -0.466  10.057 -0.3628  0.2671  0.9109
  101OSM    H5G10201   3.874  -0.372  10.020 -0.1242  0.2316  1.6057
  101OSM    C6F10202   3.699  -0.291   9.919 -0.2719  0.3403 -0.2159
  101OSM    H6F10203   3.588  -0.283   9.925 -0.4159  1.6357 -2.9989
  101OSM    H6G10204   3.746  -0.191   9.905 -0.7356  0.4449 -1.1232
  101OSM    C7F10205   3.727  -0.347   9.780  0.0688  0.7494 -0.1913
  101OSM    H7F10206   3.696  -0.454   9.771 -1.7502  1.0908  1.3743
  101OSM    H7G10207   3.837  -0.336   9.769  0.6952 -2.8861  0.8711
  101OSM    C8F10208   3.651  -0.274   9.665 -0.2815 -0.5913 -0.5963
  101OSM    H8F10209   3.683  -0.169   9.678  0.1379 -0.6602 -1.0684
  101OSM    H8G10210   3.544  -0.304   9.676  0.4426 -3.5157 -0.7632
  101OSM    C9F10211   3.690  -0.323   9.521  0.4877  0.0167 -0.5867
  101OSM    H9F10212   3.696  -0.432   9.508  2.9190  0.3146 -2.8381
  101OSM   C10F10213   3.727  -0.249   9.417  0.2787  0.4854 -0.2660
  101OSM   H10F10214   3.741  -0.299   9.320 -0.5781  1.7679 -1.0830
  101OSM   C11F10215   3.748  -0.102   9.420  0.1346  0.2768  0.0652
  101OSM   H11F10216   3.856  -0.077   9.416  0.5770 -0.4520  4.0066
  101OSM   H11G10217   3.698  -0.062   9.511  0.1860 -1.2389  0.7921
  101OSM   C12F10218   3.673  -0.029   9.302 -0.2568 -0.2587 -0.0567
  101OSM   H12F10219   3.653   0.075   9.334 -2.9631 -1.0402  1.0783
  101OSM   H12G10220   3.573  -0.075   9.289 -1.1720  1.7881 -0.5836
  101OSM   C13F10221   3.728  -0.044   9.156 -1.4626 -0.3432 -0.5713
  101OSM   H13F10222   3.689   0.024   9.076  1.9241  1.2017 -1.0656
  101OSM   H13G10223   3.695  -0.147   9.129 -2.7341 -0.3956  0.9970
  101OSM   C14F10224   3.882  -0.052   9.148  0.3575 -0.1509  0.8152
  101OSM   H14F10225   3.911  -0.154   9.182 -2.2286 -1.3377 -0.2907
  101OSM   H14G10226   3.929   0.020   9.218  1.0570  1.2224 -0.9864
  101OSM   C15F10227   3.931  -0.028   9.010 -0.1277 -0.1173  0.6048
  101OSM   H15F10228   3.918   0.072   8.964 -0.4045 -1.1149 -1.6342
  101OSM   H15G10229   3.885  -0.098   8.937  0.7381 -0.9765  0.8535
  101OSM   C16F10230   4.092  -0.054   9.013  0.2293  0.6123 -0.2625
  101OSM   H16F10231   4.110  -0.161   9.037  4.3040  0.7361 -1.8123
  101OSM   H16G10232   4.147   0.018   9.078 -0.5504  1.9912 -1.0709
  101OSM   C17F10233   4.160  -0.032   8.875 -0.1654  0.4801 -0.7453
  101OSM   H17F10234   4.081  -0.039   8.797  0.1865 -3.2356 -0.9621
  101OSM   H17G10235   4.231  -0.116   8.860 -0.0218  0.1613  1.4085
  101OSM   C18F10236   4.237   0.102   8.872  0.2348  0.1544  0.4473
  101OSM   H18F10237   4.170   0.190   8.878  0.4706  0.5841 -2.1910
  101OSM   H18G10238   4.306   0.113   8.786 -0.7189 -0.7790 -0.4531
  101OSM   H18H10239   4.296   0.100   8.967  1.5009  0.6777 -0.3066
  102OSM      N10240   4.802   5.865  10.938 -0.1468 -0.0488  0.2566
  102OSM    C1510241   4.767   5.853  11.075 -0.1492 -0.0905  0.1179
  102OSM   H15A10242   4.733   5.752  11.094  1.4268 -0.6275  0.2828
  102OSM   H15B10243   4.693   5.922  11.113  2.0998  1.8163  1.3051
  102OSM   H15C10244   4.850   5.874  11.141  0.2510  0.3969 -0.5363
  102OSM    C1410245   4.842   6.015  10.915  0.1430 -1.4632  0.5793
  102OSM   H14A10246   4.927   6.030  10.980  0.1818 -1.2034  0.4678
  102OSM   H14B10247   4.765   6.090  10.922  2.4190  0.9708  1.0616
  102OSM   H14C10248   4.884   6.023  10.816  0.4465 -1.3299  0.7196
  102OSM    C1310249   4.925   5.776  10.913  0.9954  0.6386 -0.5115
  102OSM   H13A10250   4.998   5.797  10.990  0.1446  1.0844  0.1883
  102OSM   H13B10251   4.967   5.793  10.815  0.9535  2.6188 -0.2371
  102OSM   H13C10252   4.892   5.674  10.922 -0.6975  1.2279  0.4645
  102OSM    C1210253   4.686   5.828  10.843 -0.2223  0.1493  0.2121
  102OSM   H12A10254   4.601   5.894  10.855  0.5933  1.4327 -0.8763
  102OSM   H12B10255   4.647   5.732  10.873  1.3135  0.0764  2.1564
  102OSM    C1110256   4.726   5.831  10.695  0.1011  0.1454  0.4967
  102OSM   H11A10257   4.738   5.939  10.669 -0.6016  0.1240  0.0709
  102OSM   H11B10258   4.637   5.791  10.643  0.3950 -1.1668  0.9560
  102OSM      P10259   4.830   5.605  10.626 -0.2581  0.0897 -0.2330
  102OSM    O1310260   4.968   5.552  10.591 -0.4705 -0.1547 -0.4637
  102OSM    O1410261   4.762   5.542  10.739  0.0696  0.0398  0.4274
  102OSM    O1110262   4.747   5.593  10.492 -0.0581  0.0906  0.1806
  102OSM    O1210263   4.843   5.758  10.657  0.3427  0.1891 -0.1118
  102OSM    C1S10264   4.782   5.680  10.384 -0.0447  0.1689  0.5248
  102OSM    H1S10265   4.885   5.655  10.350 -0.9493 -0.6570 -1.8075
  102OSM    H1T10266   4.781   5.788  10.410 -1.1551  0.1159  0.7677
  102OSM     NF10267   4.744   5.720  10.137  0.4273 -0.1618  0.4664
  102OSM    HNF10268   4.713   5.811  10.111  0.5828  0.0470  0.9969
  102OSM    C2S10269   4.694   5.653  10.253 -0.4147 -0.0084  0.8255
  102OSM    H2S10270   4.697   5.546  10.224  0.8613 -0.0874  1.1937
  102OSM    C3S10271   4.551   5.693  10.275 -0.2311  0.0491  0.6545
  102OSM    H3S10272   4.559   5.802  10.295 -0.5315  0.0615  0.7090
  102OSM     O310273   4.497   5.629  10.385  1.5302  0.0358 -0.3350
  102OSM    HO310274   4.579   5.608  10.428  1.9111  1.1342 -0.4899
  102OSM    C4S10275   4.470   5.678  10.154  0.1572 -0.2136  0.6285
  102OSM    H4S10276   4.489   5.761  10.086  0.1965 -0.9134 -0.2321
  102OSM    C5S10277   4.391   5.575  10.116 -0.4650  0.4925 -0.5821
  102OSM    H5S10278   4.375   5.485  10.178 -2.3349  0.1363 -1.5187
  102OSM    C6S10279   4.318   5.570   9.989  1.1523  0.6905 -0.7901
  102OSM    H6S10280   4.209   5.561  10.007  1.0165  1.6163 -1.1062
  102OSM    H6T10281   4.352   5.477   9.940  0.0298  0.1953 -0.6567
  102OSM    C7S10282   4.331   5.680   9.887  0.2831  0.0461  0.4894
  102OSM    H7S10283   4.436   5.676   9.851 -0.3721  0.4597 -1.6590
  102OSM    H7T10284   4.293   5.774   9.932 -1.6741 -0.2163 -0.5071
  102OSM    C8S10285   4.256   5.651   9.752  0.0873 -0.9463  0.0843
  102OSM    H8S10286   4.256   5.544   9.720  1.3797 -0.8073 -0.4336
  102OSM    H8T10287   4.314   5.693   9.667  0.4720 -2.1233 -0.2633
  102OSM    C9S10288   4.113   5.710   9.736  0.3750  0.1602 -0.3858
  102OSM    H9S10289   4.131   5.819   9.722  2.1956  0.1573  1.4439
  102OSM    H9T10290   4.047   5.699   9.824 -0.2642  2.6303 -0.4966
  102OSM   C10S10291   4.042   5.655   9.614  0.0525  0.2072 -0.0083
  102OSM   H10S10292   3.939   5.697   9.608  1.2396  3.1415 -2.5331
  102OSM   H10T10293   4.036   5.544   9.618 -1.3281  0.2904  1.3699
  102OSM   C11S10294   4.115   5.685   9.484 -0.1293 -0.1287 -0.5593
  102OSM   H11S10295   4.214   5.635   9.489  0.3105  0.7723 -0.1614
  102OSM   H11T10296   4.131   5.794   9.474 -1.4306  0.4049  2.2296
  102OSM   C12S10297   4.053   5.622   9.362 -0.7895 -0.5150 -0.2984
  102OSM   H12S10298   3.961   5.685   9.366  1.4793  3.0887  4.1918
  102OSM   H12T10299   4.035   5.513   9.368  1.5143 -0.9182  0.2299
  102OSM   C13S10300   4.136   5.644   9.225 -0.1948  0.1784 -0.5485
  102OSM   H13S10301   4.230   5.586   9.229  0.7050  1.4112 -2.5112
  102OSM   H13T10302   4.153   5.753   9.215 -3.5873  0.8113 -0.6941
  102OSM   C14S10303   4.043   5.600   9.108  0.4758 -0.2215  0.0351
  102OSM   H14S10304   3.945   5.652   9.113  0.7544  0.7399 -2.8912
  102OSM   H14T10305   4.026   5.490   9.116  0.5778 -0.2741 -0.4466
  102OSM   C15S10306   4.119   5.639   8.977  0.0893 -0.2864  0.3086
  102OSM   H15S10307   4.212   5.583   8.956  0.5589  0.7962 -0.6543
  102OSM   H15T10308   4.157   5.744   8.978  1.4692 -0.7702  1.6370
  102OSM   C16S10309   4.035   5.597   8.857 -0.9297 -1.0462  0.4463
  102OSM   H16S10310   3.931   5.636   8.870 -0.6727  2.4530 -4.6265
  102OSM   H16T10311   4.028   5.487   8.864  0.8098 -1.2176 -0.1395
  102OSM   C17S10312   4.083   5.635   8.712 -0.4634 -0.0664 -0.6881
  102OSM   H17S10313   4.034   5.561   8.644 -2.5651  0.4229  0.2311
  102OSM   H17T10314   4.192   5.613   8.710 -0.1095  0.7408  3.1837
  102OSM   C18S10315   4.060   5.779   8.665  0.4029 -0.5102 -0.0825
  102OSM   H18S10316   4.076   5.781   8.555 -3.0322 -4.4462 -0.8999
  102OSM   H18T10317   4.121   5.838   8.738  0.1935 -2.3461  1.6641
  102OSM   H18U10318   3.953   5.807   8.674  0.3703  0.4081 -2.6273
  102OSM    C1F10319   4.861   5.674  10.081 -0.1131 -0.5074  0.0928
  102OSM     OF10320   4.883   5.555  10.090 -0.0043  0.1226  0.3465
  102OSM    C2F10321   4.941   5.771  10.011 -0.0150 -1.0766  0.5143
  102OSM    H2F10322   5.028   5.793  10.077 -0.7458 -0.9153  1.4488
  102OSM    H2G10323   4.883   5.865  10.012  1.3979 -0.1730  0.4299
  102OSM    C3F10324   4.984   5.743   9.866 -0.2019  1.1942 -0.0606
  102OSM    H3F10325   4.888   5.742   9.810 -0.1087 -0.2810 -0.2141
  102OSM    H3G10326   5.030   5.643   9.858  0.3783  1.4251  0.3845
  102OSM    C4F10327   5.076   5.849   9.808  0.4474  0.1030 -0.0085
  102OSM    H4F10328   5.175   5.858   9.857 -0.6420 -0.9604  2.5660
  102OSM    H4G10329   5.026   5.945   9.835 -0.3337  0.2251 -1.7881
  102OSM    C5F10330   5.084   5.830   9.658 -0.3174 -0.6313 -0.0284
  102OSM    H5F10331   4.987   5.790   9.622  1.2836 -3.2123 -1.8149
  102OSM    H5G10332   5.150   5.746   9.629  0.6865  0.5668 -1.3413
  102OSM    C6F10333   5.138   5.953   9.579  0.3023 -0.3759 -0.3012
  102OSM    H6F10334   5.237   5.984   9.619  0.2645  0.9622 -1.1841
  102OSM    H6G10335   5.069   6.040   9.582 -0.2554 -0.7252 -1.9060
  102OSM    C7F10336   5.155   5.910   9.431  0.0134  0.9603 -0.8307
  102OSM    H7F10337   5.046   5.898   9.410 -0.6965  1.2428  2.2475
  102OSM    H7G10338   5.209   5.814   9.418 -2.5464 -0.6218 -0.4266
  102OSM    C8F10339   5.208   6.028   9.352  0.0598 -0.1689 -0.1921
  102OSM    H8F10340   5.178   6.119   9.407 -0.6966  0.9141 -2.2682
  102OSM    H8G10341   5.159   6.035   9.252 -2.4345  2.2194  1.0896
  102OSM    C9F10342   5.357   6.034   9.342  1.0421 -0.4150  0.1346
  102OSM    H9F10343   5.403   6.027   9.441  1.6529  0.4000 -0.0895
  102OSM   C10F10344   5.443   6.066   9.241 -0.4234 -0.0371  0.2462
  102OSM   H10F10345   5.550   6.061   9.268 -0.3304  0.3356 -0.0572
  102OSM   C11F10346   5.407   6.089   9.093 -0.0437  0.6529 -0.4609
  102OSM   H11F10347   5.304   6.128   9.081 -0.0043  0.2520 -2.6344
  102OSM   H11G10348   5.412   5.989   9.044 -0.5588  1.0208 -1.3008
  102OSM   C12F10349   5.512   6.189   9.042 -0.0283  0.2248  0.7904
  102OSM   H12F10350   5.612   6.140   9.040  0.6208  1.4244 -2.1632
  102OSM   H12G10351   5.525   6.279   9.105 -1.2606  0.8409  0.2083
  102OSM   C13F10352   5.481   6.234   8.900  0.4205 -0.3230  0.2377
  102OSM   H13F10353   5.386   6.290   8.890  0.0984 -0.6826  1.1294
  102OSM   H13G10354   5.476   6.142   8.836  1.3583 -0.5267  0.4351
  102OSM   C14F10355   5.588   6.325   8.833 -0.2277 -0.4621 -0.2109
  102OSM   H14F10356   5.549   6.365   8.737 -1.5781 -2.0176 -0.3367
  102OSM   H14G10357   5.687   6.279   8.812  2.1726  4.0704 -0.1970
  102OSM   C15F10358   5.623   6.459   8.911 -0.4530 -0.0284 -0.5503
  102OSM   H15F10359   5.722   6.502   8.883 -0.0914 -0.6882 -0.3171
  102OSM   H15G10360   5.643   6.439   9.018  1.5375  0.6985 -0.7357
  102OSM   C16F10361   5.516   6.563   8.896 -0.4945 -0.0905 -0.7131
  102OSM   H16F10362   5.419   6.510   8.904  0.4191 -1.9029 -1.1618
  102OSM   H16G10363   5.517   6.608   8.794  0.3623 -0.2349 -0.7748
  102OSM   C17F10364   5.534   6.671   9.001  0.3415 -0.9226  0.5923
  102OSM   H17F10365   5.627   6.731   8.994 -1.4695  1.9347 -0.8628
  102OSM   H17G10366   5.516   6.628   9.101  0.8926  0.0755  1.1340
  102OSM   C18F10367   5.421   6.780   8.984 -0.3228  0.7959 -0.1258
  102OSM   H18F10368   5.326   6.745   9.029 -1.3032  0.6386 -2.1736
  102OSM   H18G10369   5.401   6.817   8.881 -1.6462  0.6843  0.0777
  102OSM   H18H10370   5.455   6.866   9.046 -0.3831  1.4743 -1.0036
  103OSM      N10371   6.798   5.162  10.863  1.0273 -0.4728 -0.3655
  103OSM    C1510372   6.934   5.198  10.818  1.1974  0.7272  0.3986
  103OSM   H15A10373   6.933   5.303  10.793  0.9242  0.5445 -0.4155
  103OSM   H15B10374   6.959   5.135  10.733  0.3762  1.9270 -0.7672
  103OSM   H15C10375   7.006   5.182  10.896  1.8271 -0.3007 -0.3583
  103OSM    C1410376   6.811   5.026  10.914  0.2720 -0.6183 -0.1238
  103OSM   H14A10377   6.842   5.020  11.017 -2.2844 -2.8384  0.6403
  103OSM   H14B10378   6.884   4.965  10.863  0.7829  0.8653 -1.2226
  103OSM   H14C10379   6.718   4.971  10.921 -0.5047  0.4524 -1.5258
  103OSM    C1310380   6.754   5.250  10.975  0.2352 -0.3430  0.0544
  103OSM   H13A10381   6.665   5.220  11.028 -1.1522  1.8617 -0.8685
  103OSM   H13B10382   6.713   5.346  10.946 -1.7800 -0.4515  2.2468
  103OSM   H13C10383   6.834   5.257  11.047  0.3346  2.3707 -0.1994
  103OSM    C1210384   6.696   5.157  10.752 -0.1787  0.1492 -0.1746
  103OSM   H12A10385   6.730   5.105  10.663  1.7464  2.2696 -0.7857
  103OSM   H12B10386   6.669   5.259  10.725  1.9726  0.3563 -1.9271
  103OSM    C1110387   6.567   5.094  10.799 -0.5514  0.1752 -0.1398
  103OSM   H11A10388   6.500   5.116  10.713  0.9199 -2.4887 -2.1271
  103OSM   H11B10389   6.531   5.129  10.898 -1.0501  0.2438 -0.3429
  103OSM      P10390   6.457   4.860  10.841  0.0812 -0.3014  0.2503
  103OSM    O1310391   6.506   4.748  10.924 -0.1390 -0.0144  0.6863
  103OSM    O1410392   6.342   4.935  10.895 -0.5509  0.4292 -0.9839
  103OSM    O1110393   6.410   4.804  10.700 -0.4316  0.7595 -0.6746
  103OSM    O1210394   6.583   4.950  10.794  0.1006  0.1207 -0.1807
  103OSM    C1S10395   6.366   4.891  10.595 -0.1204  0.8883 -0.8072
  103OSM    H1S10396   6.457   4.934  10.547  1.0698  0.5703  1.0541
  103OSM    H1T10397   6.309   4.977  10.636 -0.1736  0.5560 -0.1630
  103OSM     NF10398   6.243   4.916  10.386 -0.4542 -0.4510 -0.4065
  103OSM    HNF10399   6.163   4.970  10.414 -1.0364 -2.0658  1.2884
  103OSM    C2S10400   6.278   4.825  10.493  0.4194  0.0766  0.5116
  103OSM    H2S10401   6.332   4.741  10.445  1.1605  0.5506  0.4854
  103OSM    C3S10402   6.154   4.775  10.561  0.1673 -0.2852 -0.5297
  103OSM    H3S10403   6.115   4.845  10.638  0.6592 -0.2335 -0.3224
  103OSM     O310404   6.189   4.655  10.636  0.8820 -0.0098  0.2634
  103OSM    HO310405   6.282   4.639  10.624  1.0517  0.7104  0.5629
  103OSM    C4S10406   6.042   4.732  10.470 -0.1113 -0.5380 -0.0577
  103OSM    H4S10407   6.077   4.664  10.391 -1.7453 -2.0448  0.4485
  103OSM    C5S10408   5.915   4.774  10.484  0.9390  0.2635  0.0859
  103OSM    H5S10409   5.890   4.838  10.569 -1.9807 -0.3422 -0.2230
  103OSM    C6S10410   5.795   4.739  10.391 -0.0118 -0.5662 -0.5715
  103OSM    H6S10411   5.710   4.807  10.416  0.1028 -0.3256 -0.8249
  103OSM    H6T10412   5.770   4.631  10.397  2.6880 -1.1838  1.6488
  103OSM    C7S10413   5.839   4.773  10.245  0.0444 -0.3292  0.3139
  103OSM    H7S10414   5.935   4.728  10.212  0.1710  1.8647 -2.7516
  103OSM    H7T10415   5.828   4.884  10.242 -1.8039 -0.3310  3.3867
  103OSM    C8S10416   5.737   4.714  10.150 -0.1420  0.3827  0.4444
  103OSM    H8S10417   5.637   4.735  10.192 -1.1289 -1.3572 -0.9032
  103OSM    H8T10418   5.741   4.603  10.151  0.7132  0.4037  0.8168
  103OSM    C9S10419   5.731   4.766  10.013 -0.0735 -0.5708  0.0154
  103OSM    H9S10420   5.834   4.765   9.971 -0.0145  0.3916  0.1291
  103OSM    H9T10421   5.682   4.865  10.013 -3.2038 -1.9867  0.3653
  103OSM   C10S10422   5.643   4.677   9.920 -0.3036 -0.0258  0.0777
  103OSM   H10S10423   5.545   4.712   9.959  0.6709  2.1309  0.7143
  103OSM   H10T10424   5.667   4.572   9.947 -0.0698 -0.5100 -1.8435
  103OSM   C11S10425   5.652   4.711   9.775 -0.3804 -0.0967  0.0849
  103OSM   H11S10426   5.755   4.726   9.737  0.2410 -3.0692  0.3748
  103OSM   H11T10427   5.608   4.812   9.763  0.0206  0.0542 -0.1273
  103OSM   C12S10428   5.569   4.619   9.683  0.1003  0.4228  0.3956
  103OSM   H12S10429   5.468   4.611   9.730  0.1784 -0.3530  0.4479
  103OSM   H12T10430   5.611   4.516   9.683 -0.8529 -0.0499  2.9747
  103OSM   C13S10431   5.555   4.660   9.533 -0.1176  0.2557 -0.7576
  103OSM   H13S10432   5.654   4.668   9.483  0.8230 -0.0279  0.9963
  103OSM   H13T10433   5.501   4.757   9.544 -0.2769  0.0828  0.0468
  103OSM   C14S10434   5.473   4.562   9.459 -0.4093  0.2949 -0.0595
  103OSM   H14S10435   5.387   4.528   9.521  1.2374 -1.9596  1.1169
  103OSM   H14T10436   5.539   4.478   9.429 -0.8498 -0.1689  0.2587
  103OSM   C15S10437   5.432   4.621   9.324  0.0956  0.5095 -0.4677
  103OSM   H15S10438   5.524   4.666   9.280  2.2382 -2.1740  0.9442
  103OSM   H15T10439   5.359   4.703   9.343  0.1901  0.8578 -1.5219
  103OSM   C16S10440   5.367   4.513   9.240  0.1002 -0.4724 -0.1086
  103OSM   H16S10441   5.272   4.479   9.287 -1.4934  3.7055  0.1355
  103OSM   H16T10442   5.429   4.422   9.227  1.5611  0.1741  1.9127
  103OSM   C17S10443   5.324   4.547   9.096  0.6334 -0.5413 -0.1327
  103OSM   H17S10444   5.256   4.635   9.097 -2.0770 -2.2078 -4.6213
  103OSM   H17T10445   5.275   4.455   9.056  0.5190 -0.6721  0.3067
  103OSM   C18S10446   5.440   4.585   8.999  0.2033 -0.9922  0.4262
  103OSM   H18S10447   5.401   4.618   8.900  1.0469  2.5793  1.1432
  103OSM   H18T10448   5.514   4.502   8.995 -0.2438 -1.3560 -0.7035
  103OSM   H18U10449   5.486   4.680   9.033 -0.8306 -0.5118  0.5336
  103OSM    C1F10450   6.324   4.962  10.295 -0.2997  0.4520  0.1348
  103OSM     OF10451   6.438   4.920  10.284  0.1830 -0.3869 -0.3759
  103OSM    C2F10452   6.275   5.087  10.222 -1.0837  0.0378  0.0919
  103OSM    H2F10453   6.308   5.177  10.278 -1.4794  0.2265  0.0249
  103OSM    H2G10454   6.167   5.082  10.195 -0.6833 -0.2765 -1.6151
  103OSM    C3F10455   6.353   5.097  10.084  0.4338  0.0712  0.2775
  103OSM    H3F10456   6.329   5.002  10.031  1.7025 -1.0146  1.5748
  103OSM    H3G10457   6.463   5.110  10.091  0.7196 -0.6607 -2.0714
  103OSM    C4F10458   6.307   5.218  10.006 -0.7706 -0.3554  0.3106
  103OSM    H4F10459   6.328   5.308  10.067  2.8952 -1.3358  0.7356
  103OSM    H4G10460   6.203   5.213   9.966 -1.0876  1.4018  0.8514
  103OSM    C5F10461   6.385   5.232   9.879 -0.3639  0.0076 -0.0877
  103OSM    H5F10462   6.376   5.145   9.811 -0.6500 -2.6084  3.0574
  103OSM    H5G10463   6.493   5.228   9.905 -0.5873 -1.9332  0.6648
  103OSM    C6F10464   6.363   5.364   9.819 -0.2114 -0.1414  0.0006
  103OSM    H6F10465   6.375   5.439   9.899  0.6192 -1.3058  0.9961
  103OSM    H6G10466   6.258   5.369   9.784 -0.6759  0.5715  1.4304
  103OSM    C7F10467   6.462   5.407   9.706 -0.0896  0.8089 -0.4710
  103OSM    H7F10468   6.478   5.319   9.640  0.3743  1.1346 -0.8011
  103OSM    H7G10469   6.557   5.445   9.749 -1.2347  1.6920  1.4179
  103OSM    C8F10470   6.403   5.528   9.621 -0.6491  0.0165  0.1291
  103OSM    H8F10471   6.388   5.615   9.689 -1.8071  0.4611 -0.6584
  103OSM    H8G10472   6.304   5.491   9.587 -1.1418  0.8829  0.5796
  103OSM    C9F10473   6.491   5.561   9.502 -0.6431  0.4233  0.1065
  103OSM    H9F10474   6.593   5.599   9.520 -1.5733  2.3194  1.8718
  103OSM   C10F10475   6.439   5.580   9.377 -1.1785  0.1651 -0.3239
  103OSM   H10F10476   6.504   5.602   9.291  0.3856  0.5401  0.9000
  103OSM   C11F10477   6.296   5.551   9.345  0.0721 -0.0120 -0.5526
  103OSM   H11F10478   6.272   5.596   9.246  1.1897 -1.1107 -1.3420
  103OSM   H11G10479   6.225   5.590   9.420 -0.2393 -4.0139  1.4942
  103OSM   C12F10480   6.270   5.396   9.334  0.1361  0.3225 -0.3906
  103OSM   H12F10481   6.276   5.348   9.434  0.4880  0.2251 -0.4589
  103OSM   H12G10482   6.331   5.334   9.265 -1.9932 -1.3772 -0.8451
  103OSM   C13F10483   6.127   5.357   9.288 -0.0116 -0.0729  0.9259
  103OSM   H13F10484   6.128   5.263   9.229  1.3804  1.4435 -1.7007
  103OSM   H13G10485   6.104   5.438   9.215  1.0940  1.3632  2.0971
  103OSM   C14F10486   6.021   5.371   9.388 -0.4305  0.3737 -0.0369
  103OSM   H14F10487   6.036   5.453   9.462  0.3225  1.6523 -1.5264
  103OSM   H14G10488   6.021   5.281   9.452  0.9643 -0.1150 -0.6885
  103OSM   C15F10489   5.880   5.395   9.323 -0.0213  0.2404 -0.0977
  103OSM   H15F10490   5.891   5.496   9.277 -0.9605 -0.0474 -1.0022
  103OSM   H15G10491   5.809   5.401   9.408 -0.3070  1.7606 -0.4147
  103OSM   C16F10492   5.833   5.288   9.217 -0.2961 -0.3893 -0.0995
  103OSM   H16F10493   5.806   5.191   9.263 -0.2632  0.6402  2.2149
  103OSM   H16G10494   5.925   5.277   9.156  1.2450  1.0710  1.8314
  103OSM   C17F10495   5.714   5.328   9.138  0.2457 -0.3253 -0.0116
  103OSM   H17F10496   5.736   5.431   9.102 -2.3535  0.2010 -0.2620
  103OSM   H17G10497   5.628   5.335   9.207 -0.3661 -1.5456 -0.6126
  103OSM   C18F10498   5.692   5.236   9.021  0.3671 -0.5724 -0.4827
  103OSM   H18F10499   5.600   5.268   8.968  0.0791 -0.3013  0.1617
  103OSM   H18G10500   5.677   5.133   9.061  0.1578 -0.3070  0.1337
  103OSM   H18H10501   5.775   5.218   8.950 -0.6554 -0.1867 -1.8100
  104OSM      N10502   5.891   3.842  10.773 -0.3653  0.6875  0.2232
  104OSM    C1510503   5.924   3.938  10.893 -0.6334 -0.7334 -0.1173
  104OSM   H15A10504   5.842   3.992  10.938  1.3613  2.1347  0.3272
  104OSM   H15B10505   6.003   4.009  10.877 -0.4992 -0.7770  0.3497
  104OSM   H15C10506   5.966   3.879  10.973 -1.5232 -0.1092  0.8293
  104OSM    C1410507   5.838   3.924  10.659 -0.1491  0.3024 -0.3652
  104OSM   H14A10508   5.742   3.953  10.700  0.8164  1.0249  1.5063
  104OSM   H14B10509   5.830   3.870  10.566  0.0858 -2.4987  1.1378
  104OSM   H14C10510   5.892   4.017  10.646 -0.1027  0.2717 -0.3951
  104OSM    C1310511   6.016   3.771  10.740 -0.3353  0.0418  0.0537
  104OSM   H13A10512   6.096   3.844  10.732 -1.2045  0.9143 -0.9495
  104OSM   H13B10513   5.999   3.719  10.646  0.2991 -0.7147  0.3457
  104OSM   H13C10514   6.039   3.700  10.818  1.1056 -0.9289 -1.1902
  104OSM    C1210515   5.795   3.747  10.831 -0.7272 -0.0947  0.8549
  104OSM   H12A10516   5.698   3.795  10.833  0.1818  1.8261  1.1582
  104OSM   H12B10517   5.822   3.706  10.928  0.5435  0.5588  0.8029
  104OSM    C1110518   5.780   3.623  10.743 -0.0195 -0.2407 -0.6093
  104OSM   H11A10519   5.876   3.570  10.725  0.1696  0.5859 -2.1815
  104OSM   H11B10520   5.745   3.653  10.642  1.5468  0.7300 -0.9012
  104OSM      P10521   5.699   3.441  10.922  0.1152 -0.0684  0.1311
  104OSM    O1310522   5.800   3.489  11.017  0.0179 -0.0829 -0.1154
  104OSM    O1410523   5.567   3.412  10.981  0.1302 -0.1499  0.1893
  104OSM    O1110524   5.763   3.306  10.869 -0.2919  0.0194 -0.7020
  104OSM    O1210525   5.680   3.537  10.794 -0.1214  0.0407  0.0291
  104OSM    C1S10526   5.696   3.216  10.788  0.3641  0.2701  0.0549
  104OSM    H1S10527   5.597   3.192  10.831  0.7893 -2.2993 -0.2773
  104OSM    H1T10528   5.740   3.114  10.783 -3.8160 -1.7108 -0.5449
  104OSM     NF10529   5.555   3.194  10.578 -0.0885 -0.2988  0.6104
  104OSM    HNF10530   5.569   3.112  10.522 -2.7701 -1.9322  2.1043
  104OSM    C2S10531   5.671   3.258  10.644 -0.1252 -0.0960  0.1942
  104OSM    H2S10532   5.652   3.366  10.656  0.6217  0.8951 -4.9721
  104OSM    C3S10533   5.799   3.253  10.554 -0.6310  0.6146 -0.0192
  104OSM    H3S10534   5.823   3.145  10.545 -3.0546 -0.0713  0.7877
  104OSM     O310535   5.912   3.308  10.616 -0.4371 -0.5904 -0.7405
  104OSM    HO310536   5.885   3.302  10.708  2.4649  0.9299  0.3639
  104OSM    C4S10537   5.766   3.306  10.412  0.3633  0.0270 -0.1367
  104OSM    H4S10538   5.726   3.228  10.346 -2.6774 -0.9692  2.6462
  104OSM    C5S10539   5.793   3.432  10.374  0.2018 -0.5395 -0.4978
  104OSM    H5S10540   5.847   3.502  10.440 -2.2163  1.0622 -0.0830
  104OSM    C6S10541   5.763   3.496  10.242  0.7824 -0.5736 -0.8937
  104OSM    H6S10542   5.843   3.571  10.223  0.3891  0.3493  0.8149
  104OSM    H6T10543   5.674   3.563  10.251  1.7893  0.6700  0.3229
  104OSM    C7S10544   5.758   3.409  10.113 -0.0556  0.0800  0.2052
  104OSM    H7S10545   5.653   3.380  10.093  0.5256 -1.5227 -0.7339
  104OSM    H7T10546   5.806   3.309  10.127 -0.3208  0.1468  1.7515
  104OSM    C8S10547   5.824   3.478   9.989  0.5356 -0.0009 -0.2611
  104OSM    H8S10548   5.933   3.493  10.008  0.5732  0.2301 -0.6363
  104OSM    H8T10549   5.790   3.583   9.979 -0.3963 -0.3937 -1.4039
  104OSM    C9S10550   5.782   3.399   9.869  0.4595 -0.1279 -0.0155
  104OSM    H9S10551   5.672   3.389   9.863  0.5646 -0.8063 -1.2267
  104OSM    H9T10552   5.821   3.296   9.888  0.4576 -0.1890 -0.3273
  104OSM   C10S10553   5.823   3.459   9.740  0.0708  0.1510  0.4989
  104OSM   H10S10554   5.934   3.461   9.732  0.0325  2.0121 -0.0791
  104OSM   H10T10555   5.796   3.566   9.755  1.3453  0.5898 -0.1814
  104OSM   C11S10556   5.766   3.397   9.615 -0.1981  0.2049  0.2222
  104OSM   H11S10557   5.656   3.403   9.623 -0.2326  0.8921 -0.6640
  104OSM   H11T10558   5.796   3.290   9.615  0.7990  0.4762  0.1691
  104OSM   C12S10559   5.813   3.445   9.483 -0.2756 -1.1713  0.3047
  104OSM   H12S10560   5.799   3.555   9.469  0.7540 -1.1832 -1.1131
  104OSM   H12T10561   5.757   3.414   9.392  0.6153  0.4715 -0.8751
  104OSM   C13S10562   5.959   3.411   9.458 -0.1228 -0.2261 -0.1700
  104OSM   H13S10563   5.978   3.302   9.448  0.9854  0.0096 -0.8273
  104OSM   H13T10564   6.033   3.450   9.531  1.2302  0.6038 -1.9146
  104OSM   C14S10565   6.001   3.464   9.323  0.0215 -0.3824  0.2701
  104OSM   H14S10566   6.001   3.575   9.329  0.7968 -0.2940 -0.9477
  104OSM   H14T10567   5.928   3.425   9.249  0.2846 -0.1384 -0.1171
  104OSM   C15S10568   6.141   3.418   9.278  0.0667 -0.2812 -0.4706
  104OSM   H15S10569   6.143   3.310   9.302  0.3798 -0.6190 -1.9374
  104OSM   H15T10570   6.219   3.466   9.342 -0.7643  1.1861 -0.5041
  104OSM   C16S10571   6.178   3.454   9.131 -0.2879 -0.2077 -0.2362
  104OSM   H16S10572   6.286   3.433   9.115 -0.0274  1.0218 -0.2029
  104OSM   H16T10573   6.169   3.564   9.114  0.6295  0.0263  0.7191
  104OSM   C17S10574   6.088   3.383   9.030 -0.2690 -0.5840  0.8394
  104OSM   H17S10575   5.982   3.415   9.042 -1.0471 -1.9859 -1.6359
  104OSM   H17T10576   6.089   3.274   9.052 -1.8525 -1.4648 -2.7920
  104OSM   C18S10577   6.132   3.412   8.886 -0.5765 -0.7334 -0.1965
  104OSM   H18S10578   6.119   3.521   8.868 -1.0713 -0.5339  1.2480
  104OSM   H18T10579   6.068   3.352   8.818 -0.6113 -1.1124  0.1683
  104OSM   H18U10580   6.240   3.391   8.869 -0.0999  0.1455  1.5129
  104OSM    C1F10581   5.431   3.223  10.611 -0.3612  1.2210  0.0264
  104OSM     OF10582   5.414   3.286  10.714 -0.6553 -0.3882  0.1567
  104OSM    C2F10583   5.324   3.166  10.526 -0.3236 -0.1937  0.0850
  104OSM    H2F10584   5.318   3.057  10.546 -3.0587 -0.5083 -1.8937
  104OSM    H2G10585   5.357   3.168  10.420  0.8235  2.5266  0.4096
  104OSM    C3F10586   5.177   3.223  10.540  0.2835  0.1077 -0.0910
  104OSM    H3F10587   5.175   3.323  10.490 -2.3638 -0.6513 -1.7123
  104OSM    H3G10588   5.136   3.223  10.643  0.3970 -0.1960 -0.0453
  104OSM    C4F10589   5.063   3.154  10.457 -0.7283  0.4320 -0.2144
  104OSM    H4F10590   4.968   3.183  10.509 -0.5169 -0.0101  0.4323
  104OSM    H4G10591   5.082   3.046  10.474  1.0291  0.8946  1.0978
  104OSM    C5F10592   5.059   3.192  10.309  0.1009 -0.2756  0.3203
  104OSM    H5F10593   5.070   3.105  10.242  1.3621 -0.4582  0.7423
  104OSM    H5G10594   5.148   3.254  10.284  0.3572 -0.2666  1.2290
  104OSM    C6F10595   4.933   3.276  10.265 -0.4651 -0.6873  0.7147
  104OSM    H6F10596   4.925   3.352  10.345  1.5429  0.7311 -0.3196
  104OSM    H6G10597   4.853   3.199  10.256 -0.5325 -0.4449 -1.2391
  104OSM    C7F10598   4.950   3.352  10.133 -0.7751  0.2115 -0.2569
  104OSM    H7F10599   4.996   3.298  10.048 -1.5060 -0.7519 -0.0603
  104OSM    H7G10600   5.018   3.437  10.154  0.8128 -0.7488 -1.2924
  104OSM    C8F10601   4.810   3.401  10.087 -0.2093  0.8424  0.3405
  104OSM    H8F10602   4.770   3.446  10.181  1.4641  0.3864  1.3095
  104OSM    H8G10603   4.740   3.319  10.059  0.6746  0.1751  0.0682
  104OSM    C9F10604   4.830   3.500   9.981  0.0641 -0.0304  0.1307
  104OSM    H9F10605   4.914   3.568  10.000  1.9439 -2.7219  2.2571
  104OSM   C10F10606   4.765   3.493   9.861  0.1213 -0.3078  0.3818
  104OSM   H10F10607   4.788   3.569   9.785 -0.9706 -1.2827 -0.9627
  104OSM   C11F10608   4.652   3.409   9.809 -0.0041  0.1913 -0.2342
  104OSM   H11F10609   4.618   3.338   9.888 -0.3251 -0.4939 -0.9653
  104OSM   H11G10610   4.692   3.339   9.733  1.4471 -0.8680  1.4122
  104OSM   C12F10611   4.535   3.496   9.757 -0.1011  0.3038  0.7586
  104OSM   H12F10612   4.568   3.569   9.680  0.1720 -0.1409  0.4450
  104OSM   H12G10613   4.507   3.559   9.843  1.2024  3.0028 -0.6599
  104OSM   C13F10614   4.425   3.404   9.702 -0.4927  0.1315 -0.1040
  104OSM   H13F10615   4.326   3.452   9.713 -0.0676  1.3989 -1.4410
  104OSM   H13G10616   4.422   3.316   9.771 -0.4669 -0.4647 -0.8547
  104OSM   C14F10617   4.431   3.353   9.558  0.2630 -0.3203 -0.3146
  104OSM   H14F10618   4.514   3.282   9.532 -0.0140 -0.3277 -1.2097
  104OSM   H14G10619   4.459   3.443   9.499  1.0222  1.1400  2.1212
  104OSM   C15F10620   4.296   3.310   9.500  0.0301 -0.4551  0.5837
  104OSM   H15F10621   4.226   3.393   9.526  2.1448  1.2295  1.1358
  104OSM   H15G10622   4.257   3.227   9.563  1.1560 -0.3210  1.4933
  104OSM   C16F10623   4.300   3.290   9.348  0.0801 -0.7286 -0.0566
  104OSM   H16F10624   4.361   3.199   9.327  0.0786 -0.2045 -2.6572
  104OSM   H16G10625   4.371   3.370   9.317 -0.7395  1.1705  2.6039
  104OSM   C17F10626   4.169   3.308   9.271 -0.1242 -0.1989 -0.1693
  104OSM   H17F10627   4.145   3.416   9.284 -1.7736 -0.7573  2.1117
  104OSM   H17G10628   4.092   3.243   9.317  0.2696 -1.0551 -0.6878
  104OSM   C18F10629   4.194   3.288   9.126  0.0527 -0.0942  0.5708
  104OSM   H18F10630   4.223   3.183   9.102 -2.4290 -0.6437 -0.3319
  104OSM   H18G10631   4.272   3.360   9.092  0.1714 -1.3890 -2.2032
  104OSM   H18H10632   4.104   3.300   9.062  0.7920 -0.9468 -0.6667
  105OSM      N10633   3.152   6.637  11.271  0.1413 -0.3809 -0.2616
  105OSM    C1510634   3.235   6.758  11.279  0.7833 -0.4719  0.5365
  105OSM   H15A10635   3.333   6.728  11.313  2.6985 -0.4172 -4.0899
  105OSM   H15B10636   3.179   6.823  11.345 -1.3467 -0.7663 -0.8540
  105OSM   H15C10637   3.236   6.817  11.188  1.0546  1.2189  1.5970
  105OSM    C1410638   3.192   6.556  11.151  0.7454 -0.8534  0.4983
  105OSM   H14A10639   3.185   6.617  11.062 -1.8643 -1.8360 -0.0576
  105OSM   H14B10640   3.123   6.475  11.136  0.8109 -1.0371  1.1718
  105OSM   H14C10641   3.294   6.524  11.167  0.5073 -0.6312  2.8102
  105OSM    C1310642   3.176   6.562  11.394  0.1399  0.7414 -0.0272
  105OSM   H13A10643   3.280   6.534  11.396  0.8365  3.1132 -0.5112
  105OSM   H13B10644   3.105   6.483  11.413 -1.4555  2.7722  3.3528
  105OSM   H13C10645   3.169   6.632  11.477  1.6197  0.1030  0.6718
  105OSM    C1210646   3.009   6.684  11.263 -0.3586  0.3930 -1.0928
  105OSM   H12A10647   2.997   6.747  11.175  0.1181  1.1595 -0.6251
  105OSM   H12B10648   2.981   6.752  11.342  0.5720 -0.0427 -0.3755
  105OSM    C1110649   2.898   6.582  11.261 -0.3121 -0.2495  0.2364
  105OSM   H11A10650   2.798   6.614  11.298 -1.0362 -1.4398 -0.6126
  105OSM   H11B10651   2.931   6.508  11.337  1.4939 -0.4051 -0.6546
  105OSM      P10652   2.836   6.606  11.020 -0.2990 -0.4601 -0.2353
  105OSM    O1310653   2.727   6.703  11.058 -0.2715 -0.2052 -0.3601
  105OSM    O1410654   2.959   6.669  10.966  0.4181 -0.2142 -0.5758
  105OSM    O1110655   2.784   6.507  10.917  0.8236  0.1841 -0.2444
  105OSM    O1210656   2.881   6.513  11.138  0.3510  0.6569  0.4308
  105OSM    C1S10657   2.860   6.473  10.800  0.2319  0.1302  0.2769
  105OSM    H1S10658   2.959   6.429  10.819 -0.0163  0.2329  1.9178
  105OSM    H1T10659   2.879   6.562  10.736  2.9837  0.3459  1.2946
  105OSM     NF10660   2.863   6.362  10.574  0.0573 -0.0835 -0.4089
  105OSM    HNF10661   2.831   6.413  10.495 -0.1645  0.8673  0.2834
  105OSM    C2S10662   2.780   6.374  10.696 -0.6117  0.6695 -0.2236
  105OSM    H2S10663   2.771   6.271  10.737  2.5349  0.6379  0.7221
  105OSM    C3S10664   2.636   6.422  10.666 -0.8806 -0.2127 -0.8327
  105OSM    H3S10665   2.644   6.528  10.634 -3.2833  0.2647 -0.0247
  105OSM     O310666   2.562   6.434  10.788  0.2444 -0.3604 -0.3526
  105OSM    HO310667   2.631   6.448  10.854  2.1627  0.8491 -2.4978
  105OSM    C4S10668   2.568   6.338  10.561  0.1868  0.3758  0.3315
  105OSM    H4S10669   2.568   6.382  10.461  1.7771  0.7563  0.4676
  105OSM    C5S10670   2.503   6.222  10.576  0.6289  0.4795  0.6225
  105OSM    H5S10671   2.485   6.181  10.677  0.2397 -0.2436  0.2701
  105OSM    C6S10672   2.445   6.145  10.463  0.2221  0.5560 -0.4040
  105OSM    H6S10673   2.339   6.119  10.487  0.4747 -1.7208 -1.5084
  105OSM    H6T10674   2.503   6.050  10.464  1.4854  1.2292 -2.6299
  105OSM    C7S10675   2.476   6.198  10.321  0.4252  0.0720  0.9535
  105OSM    H7S10676   2.584   6.214  10.305  0.4116  0.1799  0.9717
  105OSM    H7T10677   2.431   6.297  10.297  0.7561  0.0708  0.3093
  105OSM    C8S10678   2.418   6.098  10.220  0.4474  0.2741 -0.0094
  105OSM    H8S10679   2.307   6.096  10.220  0.3365  2.2553 -2.0952
  105OSM    H8T10680   2.451   5.996  10.248  1.3324  0.5417 -0.0389
  105OSM    C9S10681   2.447   6.127  10.076  0.0410 -0.1661  0.2119
  105OSM    H9S10682   2.555   6.152  10.066 -0.1434  0.7562  0.4988
  105OSM    H9T10683   2.390   6.215  10.040  1.4871  1.1095  0.9243
  105OSM   C10S10684   2.415   6.002   9.991 -0.0823  0.0539 -0.5145
  105OSM   H10S10685   2.309   6.008   9.959 -0.4198  1.3087  0.7532
  105OSM   H10T10686   2.420   5.904  10.043  0.5904 -0.3964 -1.3957
  105OSM   C11S10687   2.508   6.003   9.868  0.4670  0.1737 -0.1699
  105OSM   H11S10688   2.480   5.924   9.794  0.0373  1.0387 -0.9598
  105OSM   H11T10689   2.608   5.980   9.910 -1.6916 -3.5539  3.7030
  105OSM   C12S10690   2.506   6.142   9.793 -0.3204  0.4057 -0.1417
  105OSM   H12S10691   2.566   6.211   9.855 -1.1978 -1.0693  2.4830
  105OSM   H12T10692   2.403   6.183   9.778 -0.1858  0.1574 -2.0758
  105OSM   C13S10693   2.567   6.126   9.653 -0.0453  0.4048 -0.2016
  105OSM   H13S10694   2.640   6.043   9.661 -1.3446 -0.6821  1.0067
  105OSM   H13T10695   2.615   6.222   9.625 -0.9305  1.1343  0.6853
  105OSM   C14S10696   2.469   6.109   9.541  0.0537  0.5316 -0.2360
  105OSM   H14S10697   2.427   6.208   9.513 -1.0002  0.0144 -0.5410
  105OSM   H14T10698   2.385   6.049   9.583  0.3018 -0.5616 -1.2381
  105OSM   C15S10699   2.535   6.040   9.419 -0.1114 -0.2839  1.0718
  105OSM   H15S10700   2.568   5.937   9.445  0.5502 -0.1627  0.7321
  105OSM   H15T10701   2.631   6.093   9.405 -1.0370  1.3398  0.5984
  105OSM   C16S10702   2.449   6.022   9.293 -0.0514  0.2463 -0.9153
  105OSM   H16S10703   2.361   5.957   9.311 -0.1755  0.8790  1.0711
  105OSM   H16T10704   2.516   5.967   9.223  1.0355 -1.8749  1.6125
  105OSM   C17S10705   2.393   6.144   9.236 -0.1351 -0.2447  0.2615
  105OSM   H17S10706   2.470   6.221   9.212 -0.9617  0.3145 -0.6807
  105OSM   H17T10707   2.325   6.197   9.306  2.7921  1.1783  2.2215
  105OSM   C18S10708   2.330   6.118   9.100 -0.4631  0.1119 -0.3990
  105OSM   H18S10709   2.241   6.052   9.107  0.6543 -1.3715  0.3508
  105OSM   H18T10710   2.397   6.065   9.029 -0.0269 -2.2967  1.6640
  105OSM   H18U10711   2.291   6.207   9.047 -0.8669 -0.1715 -0.5859
  105OSM    C1F10712   2.983   6.300  10.579  0.2714 -0.9460  0.6864
  105OSM     OF10713   3.009   6.236  10.679 -0.3087  0.1929  0.0477
  105OSM    C2F10714   3.072   6.313  10.462 -0.0664  0.4843 -0.0497
  105OSM    H2F10715   3.068   6.414  10.418  0.6649  0.1386 -0.9532
  105OSM    H2G10716   3.045   6.230  10.392 -2.2880  0.3850  0.8617
  105OSM    C3F10717   3.222   6.295  10.498 -0.0553  0.4256  0.1304
  105OSM    H3F10718   3.231   6.187  10.525  0.7785  0.9931  2.3357
  105OSM    H3G10719   3.243   6.356  10.589 -0.6812 -0.2425  0.7428
  105OSM    C4F10720   3.324   6.312  10.392  0.1902 -0.0766  0.5160
  105OSM    H4F10721   3.426   6.289  10.429  0.4134  1.1761  0.7449
  105OSM    H4G10722   3.327   6.419  10.363  1.9767 -0.3738 -0.5059
  105OSM    C5F10723   3.297   6.235  10.263 -0.5055 -0.6764  0.8631
  105OSM    H5F10724   3.242   6.304  10.196  4.1785  1.5132 -1.2044
  105OSM    H5G10725   3.239   6.144  10.289 -0.8661 -1.5530 -2.5488
  105OSM    C6F10726   3.427   6.195  10.191  0.1618 -0.2997 -0.1712
  105OSM    H6F10727   3.484   6.140  10.268  0.0621  0.3724  0.3909
  105OSM    H6G10728   3.483   6.284  10.154  0.0755 -1.1251 -2.4714
  105OSM    C7F10729   3.409   6.084  10.081  0.8688 -0.2684  0.4904
  105OSM    H7F10730   3.358   5.995  10.123 -0.9087  1.2791  1.7871
  105OSM    H7G10731   3.504   6.058  10.030  1.5849  2.3580  0.3126
  105OSM    C8F10732   3.294   6.124   9.973  0.5770 -0.4852 -0.2639
  105OSM    H8F10733   3.198   6.148  10.024 -0.1478 -0.9198 -1.4032
  105OSM    H8G10734   3.264   6.036   9.913 -1.3382 -0.2249  0.2614
  105OSM    C9F10735   3.336   6.243   9.895  0.4911 -0.9724 -0.8177
  105OSM    H9F10736   3.339   6.337   9.953 -0.4669 -1.9645  0.9211
  105OSM   C10F10737   3.364   6.248   9.765  0.0472 -0.1436  0.5390
  105OSM   H10F10738   3.396   6.341   9.716  1.3568 -0.0924  1.4367
  105OSM   C11F10739   3.367   6.127   9.668 -0.3584 -0.3865 -0.1599
  105OSM   H11F10740   3.289   6.052   9.693 -0.5760  0.4908  2.0700
  105OSM   H11G10741   3.471   6.091   9.685  1.6109  3.4907 -2.3386
  105OSM   C12F10742   3.345   6.150   9.523 -0.2560 -1.3561  0.1984
  105OSM   H12F10743   3.240   6.178   9.499  0.3224  0.2738 -0.5549
  105OSM   H12G10744   3.361   6.051   9.475 -1.5392 -1.6779  0.3817
  105OSM   C13F10745   3.447   6.242   9.453  0.1479 -0.3593  0.3771
  105OSM   H13F10746   3.543   6.188   9.443 -0.9690 -2.2995 -0.3266
  105OSM   H13G10747   3.452   6.343   9.499  1.3634  0.1864 -0.8822
  105OSM   C14F10748   3.409   6.274   9.305 -0.0326  0.3029 -0.0358
  105OSM   H14F10749   3.500   6.326   9.268 -0.3962  0.7869 -0.2581
  105OSM   H14G10750   3.330   6.352   9.305  1.1886  1.5890 -0.7977
  105OSM   C15F10751   3.369   6.147   9.220 -0.4815 -0.8006 -0.1794
  105OSM   H15F10752   3.275   6.102   9.259 -1.4197  1.8429  0.8392
  105OSM   H15G10753   3.457   6.080   9.210 -0.2398 -0.8703  1.8783
  105OSM   C16F10754   3.347   6.195   9.076  0.1890 -0.6266  0.3891
  105OSM   H16F10755   3.437   6.256   9.052 -0.3969  0.2165  0.2963
  105OSM   H16G10756   3.256   6.258   9.066  0.3945 -0.3952 -0.0557
  105OSM   C17F10757   3.337   6.080   8.976  0.1047  0.4135 -0.6659
  105OSM   H17F10758   3.249   6.017   9.005  0.8021 -1.0910 -1.6902
  105OSM   H17G10759   3.430   6.021   8.989 -0.6861 -0.3576  2.6024
  105OSM   C18F10760   3.327   6.115   8.823 -0.0002  0.6635 -0.3174
  105OSM   H18F10761   3.411   6.181   8.793  0.6684  0.3534  0.8286
  105OSM   H18G10762   3.232   6.170   8.805 -1.3221 -2.2313 -3.2097
  105OSM   H18H10763   3.345   6.020   8.768  0.9463 -1.4383  3.2851
  106OSM      N10764   1.771   4.098  10.794  0.0631  0.3222  0.0384
  106OSM    C1510765   1.881   4.186  10.750  0.1374 -0.4708 -0.2624
  106OSM   H15A10766   1.984   4.154  10.760  0.2616  0.0598  0.1980
  106OSM   H15B10767   1.852   4.273  10.806  1.1186 -0.2883 -0.0227
  106OSM   H15C10768   1.853   4.214  10.649 -2.3438  1.2454  0.8183
  106OSM    C1410769   1.775   3.977  10.702 -0.4630 -0.1517  0.0382
  106OSM   H14A10770   1.686   3.917  10.711 -0.5424 -0.4324 -2.1180
  106OSM   H14B10771   1.862   3.917  10.727 -0.4341 -0.1760 -0.1218
  106OSM   H14C10772   1.774   4.004  10.598 -0.4701  1.0515  0.3316
  106OSM    C1310773   1.787   4.047  10.933  0.5725 -1.0234  0.1750
  106OSM   H13A10774   1.771   4.127  11.004  0.6492  1.1735 -2.0953
  106OSM   H13B10775   1.887   4.009  10.948  1.5186  1.5810  1.1187
  106OSM   H13C10776   1.714   3.970  10.950  0.7939 -0.8419  2.1957
  106OSM    C1210777   1.634   4.171  10.766 -0.3352  0.2184  0.3348
  106OSM   H12A10778   1.630   4.261  10.826  0.1532 -1.0708  2.4096
  106OSM   H12B10779   1.554   4.111  10.807  0.1141  0.3312  1.4106
  106OSM    C1110780   1.606   4.225  10.616  0.5311  1.0568 -0.5585
  106OSM   H11A10781   1.574   4.134  10.562 -0.2657 -0.7987  2.7122
  106OSM   H11B10782   1.697   4.266  10.567  1.4578 -1.0594 -0.7421
  106OSM      P10783   1.507   4.453  10.669  0.1662 -0.1920 -0.2815
  106OSM    O1310784   1.378   4.521  10.655  0.3792 -0.6039 -0.1288
  106OSM    O1410785   1.577   4.460  10.795  0.7316  0.0576  0.6594
  106OSM    O1110786   1.616   4.507  10.560 -0.2748  0.2413 -0.9207
  106OSM    O1210787   1.495   4.311  10.621  0.1750  1.5058  0.9128
  106OSM    C1S10788   1.587   4.517  10.422 -0.0838  0.3315 -0.9459
  106OSM    H1S10789   1.484   4.555  10.404  0.7331  3.1937 -0.0238
  106OSM    H1T10790   1.599   4.417  10.376  0.8160 -1.1137  2.1925
  106OSM     NF10791   1.647   4.574  10.193 -0.0695 -0.4350 -0.5789
  106OSM    HNF10792   1.681   4.491  10.150  1.0937  0.0223 -0.5901
  106OSM    C2S10793   1.693   4.600  10.334 -0.1862 -0.6700  0.0934
  106OSM    H2S10794   1.700   4.709  10.353 -1.8437 -0.3671 -0.7990
  106OSM    C3S10795   1.840   4.545  10.373  0.0231  0.6023  0.2159
  106OSM    H3S10796   1.853   4.442  10.333 -2.2844  0.8319 -1.2728
  106OSM     O310797   1.863   4.524  10.511 -0.4990 -0.7946  0.1225
  106OSM    HO310798   1.773   4.510  10.540 -0.3683 -0.6829  0.5911
  106OSM    C4S10799   1.950   4.621  10.306  0.4836 -0.2614 -0.7541
  106OSM    H4S10800   1.942   4.726  10.335 -1.0972 -1.1237  2.3874
  106OSM    C5S10801   2.037   4.566  10.218  0.2245 -0.3090 -0.6381
  106OSM    H5S10802   2.024   4.459  10.195 -0.5531 -0.7073  1.4130
  106OSM    C6S10803   2.141   4.648  10.145 -0.0945 -1.0158 -0.0120
  106OSM    H6S10804   2.229   4.640  10.211 -0.0654  1.5388  0.3801
  106OSM    H6T10805   2.106   4.754  10.143  0.8955 -0.6693 -1.5643
  106OSM    C7S10806   2.179   4.599  10.001  0.9149 -0.0533 -0.2389
  106OSM    H7S10807   2.193   4.489  10.009 -1.5038 -0.3557  0.9576
  106OSM    H7T10808   2.275   4.652   9.983  1.2148 -0.4383  0.2027
  106OSM    C8S10809   2.082   4.625   9.894  0.5951  0.1995  0.2307
  106OSM    H8S10810   2.069   4.735   9.889  3.1331  0.5962  0.7768
  106OSM    H8T10811   1.991   4.571   9.928  1.7884 -2.5805 -0.6821
  106OSM    C9S10812   2.120   4.568   9.754  0.1308  0.0291  0.8113
  106OSM    H9S10813   2.127   4.458   9.768 -0.3362 -0.4152 -1.8819
  106OSM    H9T10814   2.219   4.615   9.735 -0.1438 -0.0472 -1.0089
  106OSM   C10S10815   2.015   4.598   9.648  0.3716  0.1596  0.6324
  106OSM   H10S10816   1.995   4.704   9.624 -0.2449  0.1637  1.1254
  106OSM   H10T10817   1.914   4.560   9.675 -1.5235  3.5352 -1.0303
  106OSM   C11S10818   2.057   4.528   9.517  0.1595 -0.0123  0.5660
  106OSM   H11S10819   2.046   4.418   9.532 -0.1112 -0.0078  0.4099
  106OSM   H11T10820   2.162   4.543   9.485  0.5682 -2.6753  0.4094
  106OSM   C12S10821   1.968   4.563   9.397  0.6359 -0.6157 -0.2673
  106OSM   H12S10822   1.982   4.668   9.364  0.8158 -0.9253 -1.2124
  106OSM   H12T10823   1.860   4.566   9.420  0.4996 -0.6660 -0.8845
  106OSM   C13S10824   1.985   4.458   9.286 -0.1353  0.0305  0.3644
  106OSM   H13S10825   1.935   4.362   9.310  0.0163 -1.0111 -3.0727
  106OSM   H13T10826   2.093   4.441   9.273  0.0478 -0.5909  2.3144
  106OSM   C14S10827   1.908   4.504   9.154 -0.6007 -0.0113 -0.2815
  106OSM   H14S10828   1.957   4.602   9.134  0.2208 -0.2744  0.3825
  106OSM   H14T10829   1.801   4.520   9.181 -0.3255  1.7796 -0.1306
  106OSM   C15S10830   1.923   4.401   9.045 -0.4004 -0.3358  0.1072
  106OSM   H15S10831   1.896   4.302   9.088  0.7821 -0.1552  1.3329
  106OSM   H15T10832   2.030   4.385   9.024 -0.4446 -1.2284  0.4878
  106OSM   C16S10833   1.852   4.424   8.913  0.4489 -0.2183  0.0062
  106OSM   H16S10834   1.908   4.360   8.842  0.3845  2.0939 -2.2505
  106OSM   H16T10835   1.877   4.531   8.895 -2.1273  0.5415  0.5079
  106OSM   C17S10836   1.700   4.395   8.907 -0.0979 -0.3905  0.0044
  106OSM   H17S10837   1.655   4.453   8.990  1.7219 -1.1447  1.5802
  106OSM   H17T10838   1.695   4.286   8.929 -0.4586 -0.3520  0.1254
  106OSM   C18S10839   1.637   4.425   8.775  0.0146 -0.4647  0.7259
  106OSM   H18S10840   1.533   4.385   8.772  0.6154 -2.3607  2.5783
  106OSM   H18T10841   1.699   4.372   8.699 -0.9976 -0.0960 -0.3918
  106OSM   H18U10842   1.639   4.532   8.745  0.0154 -1.1453 -1.9929
  106OSM    C1F10843   1.551   4.643  10.148  0.0528 -0.3718  0.3360
  106OSM     OF10844   1.512   4.744  10.205  0.1813 -0.2783 -0.1251
  106OSM    C2F10845   1.493   4.589  10.020  0.4679  0.2139  0.1943
  106OSM    H2F10846   1.394   4.545  10.045 -0.3184  0.6960 -1.8879
  106OSM    H2G10847   1.560   4.514   9.971  1.6242 -0.0485  2.0564
  106OSM    C3F10848   1.461   4.699   9.919 -0.1189 -0.1953  0.1564
  106OSM    H3F10849   1.555   4.734   9.871  0.2645 -0.9404  0.3506
  106OSM    H3G10850   1.414   4.784   9.973 -3.4571 -2.7981  1.6607
  106OSM    C4F10851   1.366   4.662   9.806  0.6716 -0.6456 -0.6328
  106OSM    H4F10852   1.284   4.737   9.806  0.6021 -0.7040  0.4462
  106OSM    H4G10853   1.315   4.568   9.835 -2.2637  0.7009 -1.0971
  106OSM    C5F10854   1.427   4.647   9.669 -0.1625  0.0612 -0.3561
  106OSM    H5F10855   1.494   4.558   9.664 -2.7504 -2.0091 -0.9610
  106OSM    H5G10856   1.483   4.736   9.636 -1.6517  0.6847 -1.3229
  106OSM    C6F10857   1.322   4.627   9.561 -0.4701  0.9425 -0.1680
  106OSM    H6F10858   1.279   4.724   9.528 -2.0862  0.7087  1.1156
  106OSM    H6G10859   1.237   4.576   9.610  1.0529  0.2570  1.8706
  106OSM    C7F10860   1.368   4.550   9.443 -0.4429 -0.3310  0.6530
  106OSM    H7F10861   1.379   4.444   9.473 -0.5100 -0.2321  1.0263
  106OSM    H7G10862   1.463   4.601   9.413  0.6545 -1.7269  1.6339
  106OSM    C8F10863   1.268   4.567   9.323  0.1549 -0.0505 -0.5691
  106OSM    H8F10864   1.246   4.676   9.315  2.5158  0.5230 -0.0040
  106OSM    H8G10865   1.166   4.521   9.328 -0.5138  1.3611 -0.8245
  106OSM    C9F10866   1.333   4.517   9.192 -0.5882  0.1257  0.0841
  106OSM    H9F10867   1.312   4.412   9.167  0.5715  0.2200 -1.3809
  106OSM   C10F10868   1.420   4.594   9.119  0.4473  0.0037 -0.3665
  106OSM   H10F10869   1.457   4.554   9.024 -0.0065  0.5591 -0.7844
  106OSM   C11F10870   1.460   4.734   9.144 -0.2875 -0.2577 -0.3686
  106OSM   H11F10871   1.419   4.757   9.244  1.2751 -2.5815  0.8982
  106OSM   H11G10872   1.416   4.810   9.076  1.6610  1.1177 -0.1612
  106OSM   C12F10873   1.607   4.763   9.158  0.8944 -0.0914 -0.4656
  106OSM   H12F10874   1.652   4.694   9.233 -1.1056 -0.7319  0.2149
  106OSM   H12G10875   1.606   4.868   9.196  0.7613 -0.5127  0.7392
  106OSM   C13F10876   1.683   4.768   9.022  0.4118  0.0781 -0.2158
  106OSM   H13F10877   1.679   4.663   8.986 -1.8552 -0.5721  1.6587
  106OSM   H13G10878   1.791   4.789   9.038  0.3909  0.2694 -0.3238
  106OSM   C14F10879   1.627   4.851   8.910  0.3642 -0.2211 -0.0982
  106OSM   H14F10880   1.597   4.949   8.953  1.1922 -0.4154  0.9793
  106OSM   H14G10881   1.529   4.804   8.887 -0.1496  0.0602  1.4176
  106OSM   C15F10882   1.711   4.854   8.785 -0.6126  0.3774 -0.0021
  106OSM   H15F10883   1.757   4.757   8.757  0.4254  0.1708  2.1648
  106OSM   H15G10884   1.795   4.919   8.817  0.2861 -1.0185  0.5877
  106OSM   C16F10885   1.632   4.917   8.668  0.3368  1.3540 -0.0575
  106OSM   H16F10886   1.541   4.857   8.646  0.9244 -0.3570  1.8100
  106OSM   H16G10887   1.694   4.897   8.578  1.2899 -1.5154  1.1187
  106OSM   C17F10888   1.612   5.068   8.674 -0.0586  0.0244 -0.1818
  106OSM   H17F10889   1.715   5.108   8.690 -1.3679  3.1981  1.3024
  106OSM   H17G10890   1.556   5.087   8.768  1.6597 -1.2557  1.1736
  106OSM   C18F10891   1.553   5.133   8.545  0.5398  0.2418  0.2924
  106OSM   H18F10892   1.614   5.101   8.458 -0.8727 -1.6271 -0.0900
  106OSM   H18G10893   1.556   5.244   8.545  2.2476  0.2277 -0.4322
  106OSM   H18H10894   1.451   5.097   8.519  0.8425  1.5524 -3.3344
  107OSM      N10895   6.662   3.825  10.821 -0.2170  0.1007 -0.5860
  107OSM    C1510896   6.657   3.691  10.766  0.7534  0.0921 -0.2419
  107OSM   H15A10897   6.662   3.617  10.844 -0.2973  0.0983 -0.1548
  107OSM   H15B10898   6.739   3.665  10.701  1.4136 -0.2167  0.7158
  107OSM   H15C10899   6.566   3.675  10.709  1.3071 -1.7111 -0.6707
  107OSM    C1410900   6.800   3.849  10.877 -0.1107  0.9402 -0.0856
  107OSM   H14A10901   6.873   3.839  10.799  0.9384 -1.3490  1.0791
  107OSM   H14B10902   6.820   3.779  10.957 -0.6330  0.8544 -0.0269
  107OSM   H14C10903   6.817   3.943  10.928  0.1897  0.2243  1.2072
  107OSM    C1310904   6.635   3.933  10.718 -0.1605  0.3468 -0.8999
  107OSM   H13A10905   6.537   3.926  10.673  0.0625  3.7583 -2.2057
  107OSM   H13B10906   6.717   3.926  10.648 -0.5519 -3.0868 -1.2045
  107OSM   H13C10907   6.630   4.024  10.775  0.4186  0.5517 -1.1709
  107OSM    C1210908   6.579   3.835  10.946  0.4989 -0.0413  0.4399
  107OSM   H12A10909   6.581   3.938  10.981 -1.3071  0.4566 -0.7791
  107OSM   H12B10910   6.631   3.776  11.020  2.2235  1.0169  0.1246
  107OSM    C1110911   6.421   3.798  10.941 -0.3727  0.3665 -0.5207
  107OSM   H11A10912   6.380   3.794  11.044  1.0464 -1.7110  0.0132
  107OSM   H11B10913   6.408   3.696  10.900 -0.4058 -0.4259  1.3820
  107OSM      P10914   6.312   4.039  10.883 -0.5891  0.0723  0.2927
  107OSM    O1310915   6.207   4.051  10.985 -0.4536  0.2552 -0.2258
  107OSM    O1410916   6.433   4.111  10.911  0.4616 -0.2406  0.5410
  107OSM    O1110917   6.252   4.074  10.745  0.7673  0.4157  0.5788
  107OSM    O1210918   6.349   3.888  10.853 -0.5457 -1.1502  0.1556
  107OSM    C1S10919   6.323   4.141  10.639  0.0055  0.4234  0.3379
  107OSM    H1S10920   6.406   4.079  10.598 -0.6809 -0.4671  0.2612
  107OSM    H1T10921   6.372   4.236  10.670  0.1282 -0.2064  2.1810
  107OSM     NF10922   6.312   4.225  10.402  0.3704  0.2672  0.2346
  107OSM    HNF10923   6.272   4.312  10.372  1.6551  0.1474 -2.0624
  107OSM    C2S10924   6.235   4.164  10.514 -0.6240 -0.4442 -0.1775
  107OSM    H2S10925   6.191   4.070  10.474 -0.0521 -0.9825  0.4301
  107OSM    C3S10926   6.110   4.247  10.561 -0.1318 -0.4615  0.4526
  107OSM    H3S10927   6.142   4.338  10.615  0.5785 -0.8139  0.6363
  107OSM     O310928   6.020   4.182  10.647  0.7379  0.5193  0.3023
  107OSM    HO310929   6.074   4.118  10.693  1.7130  2.0105  1.3140
  107OSM    C4S10930   6.033   4.274  10.435  0.3006 -0.2579 -0.0100
  107OSM    H4S10931   6.050   4.190  10.366 -2.4384 -1.5458  0.7814
  107OSM    C5S10932   5.956   4.380  10.398 -0.0064  0.0482  0.7742
  107OSM    H5S10933   5.942   4.458  10.475 -0.4834 -0.6382  1.3964
  107OSM    C6S10934   5.879   4.407  10.267 -0.4320  0.2511 -0.4115
  107OSM    H6S10935   5.910   4.508  10.232  1.1578 -0.4474 -1.1223
  107OSM    H6T10936   5.769   4.398  10.280 -0.1347 -1.0410  1.5132
  107OSM    C7S10937   5.924   4.321  10.142 -0.3019  0.8586  0.0391
  107OSM    H7S10938   5.884   4.219  10.156 -1.2681  0.9397 -1.8128
  107OSM    H7T10939   6.033   4.308  10.131 -0.6571 -1.0233 -1.7277
  107OSM    C8S10940   5.861   4.377  10.008  0.1072  0.2148 -1.0853
  107OSM    H8S10941   5.886   4.485  10.005 -0.8356  0.4435 -1.0563
  107OSM    H8T10942   5.750   4.372  10.017 -0.0835  1.5380 -2.3341
  107OSM    C9S10943   5.905   4.307   9.883 -0.6789 -0.5564 -0.0001
  107OSM    H9S10944   5.870   4.202   9.893 -0.8698 -0.5820 -0.8939
  107OSM    H9T10945   6.016   4.309   9.877 -0.7658 -0.0293 -1.8458
  107OSM   C10S10946   5.853   4.375   9.753  0.0547 -0.2299  0.4523
  107OSM   H10S10947   5.890   4.478   9.736 -3.5595  0.6519 -3.5900
  107OSM   H10T10948   5.742   4.374   9.757  0.0538 -0.2093  0.4195
  107OSM   C11S10949   5.885   4.289   9.628 -0.5530 -0.0654 -0.1864
  107OSM   H11S10950   5.812   4.207   9.618 -0.0113 -0.2807 -3.2828
  107OSM   H11T10951   5.990   4.253   9.626 -0.5146  0.0746 -0.8890
  107OSM   C12S10952   5.852   4.373   9.500 -0.1921 -0.2932  0.5460
  107OSM   H12S10953   5.934   4.440   9.467  1.0382 -1.0202  1.9786
  107OSM   H12T10954   5.762   4.437   9.512  0.3097  0.3711  0.8484
  107OSM   C13S10955   5.824   4.273   9.383 -0.3630 -0.2420  0.2924
  107OSM   H13S10956   5.727   4.231   9.419 -0.9292  0.4644 -0.3548
  107OSM   H13T10957   5.893   4.186   9.384 -0.0658 -0.0087  1.4074
  107OSM   C14S10958   5.823   4.333   9.246 -0.0024 -0.5614  0.6103
  107OSM   H14S10959   5.912   4.394   9.221 -0.1016 -1.6272 -3.0016
  107OSM   H14T10960   5.732   4.397   9.237  1.4685  1.7460  1.2677
  107OSM   C15S10961   5.823   4.221   9.136  0.1435  0.3723  0.1965
  107OSM   H15S10962   5.731   4.162   9.154  0.9168 -1.5280 -1.6514
  107OSM   H15T10963   5.919   4.166   9.149  0.6068  1.2897  0.7781
  107OSM   C16S10964   5.817   4.284   8.991  0.7428  0.4705 -0.2848
  107OSM   H16S10965   5.750   4.370   8.971 -0.0508 -0.0683 -0.0382
  107OSM   H16T10966   5.788   4.203   8.920 -1.2901 -0.3837  1.3838
  107OSM   C17S10967   5.957   4.328   8.944  0.2390 -0.3994 -0.5819
  107OSM   H17S10968   6.040   4.257   8.960  1.7266  0.1890 -4.4839
  107OSM   H17T10969   5.989   4.422   8.995 -0.4274 -0.9626  0.9398
  107OSM   C18S10970   5.959   4.352   8.796 -0.4728  0.1350 -0.1281
  107OSM   H18S10971   6.056   4.396   8.766  0.5979 -1.2771  1.1490
  107OSM   H18T10972   5.871   4.412   8.764 -0.2108  0.8112  0.3972
  107OSM   H18U10973   5.946   4.254   8.746  1.8243  0.8114 -2.2265
  107OSM    C1F10974   6.420   4.178  10.353 -0.6736  0.5746 -0.0663
  107OSM     OF10975   6.437   4.057  10.336  0.4563 -0.3394 -0.1523
  107OSM    C2F10976   6.534   4.273  10.329 -0.2303 -0.2970  0.0576
  107OSM    H2F10977   6.595   4.271  10.422 -2.5085  0.6708  1.6777
  107OSM    H2G10978   6.501   4.378  10.348  2.9505  0.7917  0.2117
  107OSM    C3F10979   6.618   4.257  10.205 -0.7939  0.5036  0.6021
  107OSM    H3F10980   6.549   4.243  10.120  1.3865 -0.0213 -1.1675
  107OSM    H3G10981   6.679   4.164  10.215  0.3099  1.1652  0.2457
  107OSM    C4F10982   6.721   4.364  10.171 -0.0539 -0.6918  0.0491
  107OSM    H4F10983   6.786   4.380  10.260  1.9007 -1.5997 -1.1561
  107OSM    H4G10984   6.669   4.461  10.155 -1.5035 -1.3344  0.6852
  107OSM    C5F10985   6.811   4.334  10.048  0.1140 -0.5730 -0.1184
  107OSM    H5F10986   6.861   4.236  10.059 -1.0910 -1.8949 -4.3784
  107OSM    H5G10987   6.876   4.424  10.049 -2.5678  1.5138 -0.3210
  107OSM    C6F10988   6.733   4.332   9.917  0.9558  0.2576  0.1530
  107OSM    H6F10989   6.675   4.427   9.916  1.6646  0.7263  1.1055
  107OSM    H6G10990   6.668   4.242   9.916 -0.8623  1.4919 -1.7559
  107OSM    C7F10991   6.823   4.330   9.790 -0.4565  0.2221 -0.2092
  107OSM    H7F10992   6.898   4.250   9.807 -0.9956 -0.6327 -1.7398
  107OSM    H7G10993   6.873   4.429   9.794  2.4712 -1.0723 -1.7887
  107OSM    C8F10994   6.757   4.309   9.659  0.3256  0.5267  0.9408
  107OSM    H8F10995   6.708   4.404   9.631 -0.9864 -0.6275 -0.9305
  107OSM    H8G10996   6.683   4.225   9.661  0.3634  0.1514 -3.6440
  107OSM    C9F10997   6.854   4.263   9.549 -0.3556  0.3518  0.0365
  107OSM    H9F10998   6.932   4.191   9.581  0.0897  1.7701  2.3129
  107OSM   C10F10999   6.846   4.303   9.420  0.8222 -0.8824 -0.1709
  107OSM   H10F11000   6.911   4.261   9.341  1.8253  2.1428 -1.0937
  107OSM   C11F11001   6.753   4.410   9.361  0.3655  0.6455 -0.2184
  107OSM   H11F11002   6.816   4.490   9.318  0.9555  0.0874 -0.4161
  107OSM   H11G11003   6.680   4.454   9.433 -0.4262  0.7634 -1.0694
  107OSM   C12F11004   6.679   4.344   9.246 -0.4322  0.5190 -0.5100
  107OSM   H12F11005   6.634   4.247   9.277  0.0614  0.8829  1.5035
  107OSM   H12G11006   6.740   4.309   9.160 -0.6385 -3.2571  0.6760
  107OSM   C13F11007   6.575   4.443   9.198  0.0905 -0.2426  0.3544
  107OSM   H13F11008   6.614   4.546   9.214 -0.4215 -0.2075  1.4299
  107OSM   H13G11009   6.487   4.434   9.265  0.4636 -0.1838  0.8610
  107OSM   C14F11010   6.530   4.418   9.054 -0.7435 -0.8810 -0.0905
  107OSM   H14F11011   6.488   4.316   9.041  0.6486 -1.4244 -0.5048
  107OSM   H14G11012   6.624   4.428   8.996 -0.0508 -0.0215  1.1238
  107OSM   C15F11013   6.422   4.519   9.010 -0.6482 -0.3860 -0.5122
  107OSM   H15F11014   6.464   4.622   9.011 -0.4236 -0.4698  0.7707
  107OSM   H15G11015   6.339   4.507   9.083  0.1386 -1.6953  0.2069
  107OSM   C16F11016   6.373   4.493   8.864 -0.0802 -0.0316  0.2387
  107OSM   H16F11017   6.333   4.389   8.858  0.8436 -0.3272 -1.1413
  107OSM   H16G11018   6.455   4.492   8.790  0.5503 -3.2710  0.8146
  107OSM   C17F11019   6.266   4.594   8.810 -0.2136  0.1528 -0.1672
  107OSM   H17F11020   6.303   4.698   8.827  0.0995  0.1911 -1.0171
  107OSM   H17G11021   6.171   4.585   8.866 -0.6219  2.1649 -0.4356
  107OSM   C18F11022   6.238   4.599   8.656  0.2177 -0.0214  0.1433
  107OSM   H18F11023   6.169   4.685   8.643 -1.6533 -1.6788 -1.5401
  107OSM   H18G11024   6.180   4.508   8.629 -1.3515  0.5312  1.5117
  107OSM   H18H11025   6.329   4.615   8.593 -0.9547 -0.2493 -1.6685
  108OSM      N11026   1.417   1.918  10.939  0.1530  0.3980 -0.1607
  108OSM    C1511027   1.355   2.041  11.003 -0.2331 -0.0218 -0.1136
  108OSM   H15A11028   1.342   2.012  11.106  1.2485 -0.4354 -0.0247
  108OSM   H15B11029   1.260   2.072  10.961  1.0293  2.2851 -1.4972
  108OSM   H15C11030   1.424   2.123  10.994  1.3038 -1.2164  0.4047
  108OSM    C1411031   1.556   1.895  10.988  0.0311  0.0054 -0.2346
  108OSM   H14A11032   1.604   1.990  10.968 -1.6032  0.6803 -1.0794
  108OSM   H14B11033   1.606   1.811  10.941  0.0795 -0.4720  0.6429
  108OSM   H14C11034   1.556   1.873  11.094  0.9022 -2.7360 -0.7214
  108OSM    C1311035   1.339   1.795  10.975  0.2673  0.5212  0.1428
  108OSM   H13A11036   1.374   1.712  10.915  2.8780  0.7530  1.1775
  108OSM   H13B11037   1.234   1.800  10.954 -0.1778 -2.8366  0.9883
  108OSM   H13C11038   1.364   1.778  11.079 -0.9181  0.0508  0.3578
  108OSM    C1211039   1.427   1.937  10.787  0.3605 -0.6589  0.5513
  108OSM   H12A11040   1.505   1.876  10.744  0.4633  0.9440 -1.6815
  108OSM   H12B11041   1.461   2.038  10.769  2.4420 -1.2843  0.7612
  108OSM    C1111042   1.288   1.932  10.715  0.3974  0.1738  0.4384
  108OSM   H11A11043   1.254   1.827  10.704  1.5943 -0.1566 -0.2729
  108OSM   H11B11044   1.314   1.973  10.616 -2.0713  2.0101  0.4461
  108OSM      P11045   1.029   1.994  10.745 -0.0213 -0.0783 -0.2253
  108OSM    O1311046   1.004   1.848  10.770 -0.4523 -0.2376 -0.5357
  108OSM    O1411047   0.951   2.092  10.818  0.1854 -0.0980 -0.6351
  108OSM    O1111048   1.003   2.023  10.592  0.1455 -0.2263  0.2055
  108OSM    O1211049   1.186   2.023  10.764  0.6325  0.3165 -0.1795
  108OSM    C1S11050   1.075   2.142  10.546  0.5312  0.1709 -0.5487
  108OSM    H1S11051   1.185   2.142  10.557  0.7155 -2.2543 -1.6785
  108OSM    H1T11052   1.033   2.233  10.594  0.9697  0.1695 -0.1605
  108OSM     NF11053   1.109   2.286  10.344  0.2684  0.5395  0.3577
  108OSM    HNF11054   1.044   2.354  10.311  1.8489  1.6538 -0.6561
  108OSM    C2S11055   1.051   2.162  10.389  0.4699  0.5488 -0.1232
  108OSM    H2S11056   1.113   2.077  10.354  2.7500  2.7211 -1.7662
  108OSM    C3S11057   0.906   2.131  10.349  0.8141 -0.7209  0.3356
  108OSM    H3S11058   0.829   2.187  10.407  0.9245  2.0179 -1.9436
  108OSM     O311059   0.868   1.991  10.369 -0.6273  0.1911  0.4703
  108OSM    HO311060   0.942   1.953  10.417  1.0022 -0.0469 -2.0181
  108OSM    C4S11061   0.895   2.179  10.204 -0.6261  0.6202  0.5994
  108OSM    H4S11062   0.839   2.271  10.184 -0.2588  1.0305  1.4546
  108OSM    C5S11063   0.932   2.107  10.096 -0.0621 -0.7918  0.7232
  108OSM    H5S11064   0.980   2.008  10.100 -0.5863 -1.0554  0.5605
  108OSM    C6S11065   0.918   2.174   9.964  0.7033 -0.5527  0.0760
  108OSM    H6S11066   1.021   2.187   9.923  1.1251 -4.9118 -0.7828
  108OSM    H6T11067   0.879   2.278   9.966  1.8375 -0.1186  0.5437
  108OSM    C7S11068   0.869   2.081   9.852  0.1131  0.4963  0.0538
  108OSM    H7S11069   0.763   2.061   9.879  0.4098  0.0570  0.9133
  108OSM    H7T11070   0.927   1.986   9.861 -2.8090 -1.3044  1.7539
  108OSM    C8S11071   0.860   2.152   9.722 -0.1774 -0.1111 -0.4451
  108OSM    H8S11072   0.964   2.155   9.686 -0.0867 -1.8246 -0.4442
  108OSM    H8T11073   0.804   2.246   9.741  0.7067  0.7096 -1.8060
  108OSM    C9S11074   0.782   2.082   9.612  0.7167  0.1862  0.3997
  108OSM    H9S11075   0.786   2.138   9.516  1.5115  0.1845  0.4243
  108OSM    H9T11076   0.677   2.083   9.649  0.4477  0.6514 -0.3695
  108OSM   C10S11077   0.829   1.940   9.564 -0.7214  0.3105 -0.7190
  108OSM   H10S11078   0.742   1.904   9.505 -2.0975  3.0248 -0.4515
  108OSM   H10T11079   0.831   1.889   9.663 -1.0313  1.3116 -0.1878
  108OSM   C11S11080   0.962   1.940   9.493 -0.3157 -0.2197  0.1764
  108OSM   H11S11081   1.039   1.974   9.566 -0.3164 -1.7500  0.9134
  108OSM   H11T11082   0.961   2.006   9.403 -3.4199 -0.9552 -0.4289
  108OSM   C12S11083   1.005   1.797   9.440 -0.1221  0.0886 -0.3676
  108OSM   H12S11084   1.100   1.800   9.383 -0.3749 -0.7957 -0.8443
  108OSM   H12T11085   0.927   1.765   9.367 -0.5885  0.0990  0.1222
  108OSM   C13S11086   1.020   1.693   9.549  0.6922  0.2810  0.3607
  108OSM   H13S11087   1.024   1.592   9.504  3.5341  0.8871 -0.9980
  108OSM   H13T11088   0.946   1.698   9.631  1.3420  3.0814  0.8999
  108OSM   C14S11089   1.147   1.719   9.634 -0.5609 -0.2447  0.1277
  108OSM   H14S11090   1.132   1.809   9.697  0.0353 -0.2071  0.2241
  108OSM   H14T11091   1.237   1.731   9.570 -0.4566 -0.1329  0.2932
  108OSM   C15S11092   1.181   1.602   9.723  0.2283  0.1815 -0.0887
  108OSM   H15S11093   1.199   1.510   9.662  0.3207  0.6689 -0.8075
  108OSM   H15T11094   1.099   1.590   9.798 -0.5746  4.0089 -0.1642
  108OSM   C16S11095   1.304   1.629   9.812  0.5801 -0.6555  0.1271
  108OSM   H16S11096   1.301   1.731   9.856  1.0019 -0.2620 -0.7355
  108OSM   H16T11097   1.396   1.626   9.750 -1.0107  1.8095 -2.5862
  108OSM   C17S11098   1.320   1.526   9.932 -0.1577  0.2294 -0.0898
  108OSM   H17S11099   1.306   1.425   9.888 -0.0582 -0.4797  1.4487
  108OSM   H17T11100   1.238   1.542  10.005  0.2337 -0.0811  0.4184
  108OSM   C18S11101   1.461   1.508  10.008 -0.1781 -0.0642  0.0713
  108OSM   H18S11102   1.529   1.428   9.973 -1.4567 -0.8952 -0.5852
  108OSM   H18T11103   1.437   1.489  10.115 -0.4926  1.7751  0.3596
  108OSM   H18U11104   1.511   1.607  10.018  0.6804 -0.2572 -1.9168
  108OSM    C1F11105   1.236   2.327  10.347  0.3389  0.0610 -0.3717
  108OSM     OF11106   1.321   2.260  10.402  0.1010  0.0016  0.6243
  108OSM    C2F11107   1.260   2.455  10.279  0.9095 -0.0116  0.4682
  108OSM    H2F11108   1.358   2.489  10.320  0.9019 -0.7071  1.0841
  108OSM    H2G11109   1.179   2.529  10.298  0.3718 -0.5551  0.3218
  108OSM    C3F11110   1.274   2.455  10.121 -0.0780  0.0718  0.9969
  108OSM    H3F11111   1.372   2.410  10.093 -1.3284 -1.5477 -1.0988
  108OSM    H3G11112   1.287   2.564  10.104  1.2189 -0.3020 -0.7333
  108OSM    C4F11113   1.156   2.396  10.044 -0.0245 -0.2125  1.0970
  108OSM    H4F11114   1.060   2.385  10.100 -0.2288 -0.2604  0.7446
  108OSM    H4G11115   1.182   2.290  10.024 -0.2151  0.0174 -0.5703
  108OSM    C5F11116   1.140   2.474   9.913 -0.2422  0.1714  0.4311
  108OSM    H5F11117   1.092   2.574   9.921  0.7145  0.5630  1.5653
  108OSM    H5G11118   1.066   2.412   9.858 -2.4845  2.2574  0.9389
  108OSM    C6F11119   1.276   2.499   9.837 -1.1371  0.0213  1.1334
  108OSM    H6F11120   1.340   2.409   9.847 -1.9845 -0.8221 -0.7152
  108OSM    H6G11121   1.338   2.573   9.892 -1.5859  0.2883  1.2884
  108OSM    C7F11122   1.254   2.574   9.696 -0.3019  0.5903 -0.8010
  108OSM    H7F11123   1.359   2.594   9.668  0.0460 -0.3370 -0.2153
  108OSM    H7G11124   1.214   2.674   9.722  0.1562 -0.0142  2.8736
  108OSM    C8F11125   1.182   2.497   9.588 -0.4050  0.2250 -0.0943
  108OSM    H8F11126   1.232   2.400   9.570 -2.2545 -0.7260 -0.4415
  108OSM    H8G11127   1.198   2.556   9.495 -0.0519  1.0755  0.4960
  108OSM    C9F11128   1.032   2.459   9.597  0.5084  0.3421 -0.0570
  108OSM    H9F11129   0.975   2.487   9.686  0.2906  0.2476 -0.1658
  108OSM   C10F11130   0.963   2.413   9.490  0.0934  0.3180  0.1976
  108OSM   H10F11131   0.856   2.394   9.506 -1.1296  3.4411 -2.9190
  108OSM   C11F11132   1.012   2.384   9.348  0.1032 -0.2145 -0.3109
  108OSM   H11F11133   0.997   2.275   9.332 -0.3716 -0.0695 -0.8995
  108OSM   H11G11134   1.120   2.408   9.340 -0.2930  1.5477 -0.6539
  108OSM   C12F11135   0.936   2.462   9.233 -0.2264  0.5408  0.1188
  108OSM   H12F11136   0.957   2.571   9.229  2.2933  0.0899 -3.0237
  108OSM   H12G11137   0.827   2.448   9.253  0.1383  0.0180  1.8793
  108OSM   C13F11138   0.964   2.403   9.090 -0.7326 -0.5400  0.8689
  108OSM   H13F11139   0.872   2.429   9.034 -0.3338  0.4945  0.6845
  108OSM   H13G11140   0.972   2.292   9.089  1.2920 -0.4359  0.2693
  108OSM   C14F11141   1.102   2.457   9.031 -0.0783 -0.0701 -0.1581
  108OSM   H14F11142   1.186   2.431   9.098 -0.5149 -2.9111 -0.5896
  108OSM   H14G11143   1.084   2.566   9.041 -0.8327 -0.2668  0.8490
  108OSM   C15F11144   1.140   2.418   8.884  0.5806 -0.4642 -0.6446
  108OSM   H15F11145   1.051   2.435   8.820 -1.6597  0.2379  2.4273
  108OSM   H15G11146   1.131   2.307   8.883 -0.6958 -0.4738  2.2781
  108OSM   C16F11147   1.269   2.487   8.833  0.1199 -0.3015 -0.6910
  108OSM   H16F11148   1.335   2.514   8.918 -0.9259  1.7262 -0.4697
  108OSM   H16G11149   1.228   2.584   8.799  0.3367 -0.3104 -0.9851
  108OSM   C17F11150   1.341   2.416   8.723  0.0256 -0.2399 -0.5871
  108OSM   H17F11151   1.381   2.324   8.770 -1.7839  0.2240  2.0634
  108OSM   H17G11152   1.419   2.483   8.682  1.1318 -0.1879  1.4570
  108OSM   C18F11153   1.242   2.376   8.608 -0.2459 -0.8038 -0.9779
  108OSM   H18F11154   1.200   2.464   8.555 -0.0882 -0.3494 -0.3552
  108OSM   H18G11155   1.159   2.312   8.647  1.6615 -2.8667 -0.1115
  108OSM   H18H11156   1.293   2.320   8.527 -0.9234 -0.9042 -1.3424
  109OSM      N11157   0.249   4.546  10.781  0.3091 -0.1711 -0.2934
  109OSM    C1511158   0.128   4.628  10.818  0.2552 -0.0137 -0.2309
  109OSM   H15A11159   0.055   4.565  10.866  0.0426 -0.7155 -1.4361
  109OSM   H15B11160   0.074   4.651  10.727  1.9746  0.9746 -1.0468
  109OSM   H15C11161   0.155   4.717  10.873  1.7543 -0.8269  0.4034
  109OSM    C1411162   0.220   4.423  10.701 -0.7313  0.2142  0.2198
  109OSM   H14A11163   0.304   4.362  10.671 -0.2293  0.3544  1.3033
  109OSM   H14B11164   0.180   4.451  10.604  1.1039 -0.8049 -0.8928
  109OSM   H14C11165   0.153   4.355  10.752 -0.4045  0.7110  1.3207
  109OSM    C1311166   0.339   4.639  10.704 -0.2270  0.2881 -0.0274
  109OSM   H13A11167   0.356   4.737  10.746  0.1288  0.0528  0.3859
  109OSM   H13B11168   0.297   4.649  10.605 -0.8979  1.0472  0.3245
  109OSM   H13C11169   0.439   4.599  10.705 -0.8235 -1.2907  0.0473
  109OSM    C1211170   0.303   4.501  10.920 -0.2665 -0.2808  0.6806
  109OSM   H12A11171   0.226   4.446  10.971 -1.3915 -0.6637 -1.3435
  109OSM   H12B11172   0.331   4.588  10.978 -0.1668  1.1674 -1.4328
  109OSM    C1111173   0.431   4.409  10.913  0.1664  0.1968 -0.1202
  109OSM   H11A11174   0.410   4.311  10.866  2.6627  0.2121 -1.4095
  109OSM   H11B11175   0.457   4.392  11.019  0.7512  1.2202 -0.0838
  109OSM      P11176   0.646   4.551  10.896 -0.0777 -0.1885 -0.0597
  109OSM    O1311177   0.580   4.660  10.973  0.4394  0.2172  0.0559
  109OSM    O1411178   0.733   4.465  10.981 -0.2850  0.4945 -0.1981
  109OSM    O1111179   0.716   4.613  10.770 -0.5232  0.2724 -0.4320
  109OSM    O1211180   0.535   4.462  10.832 -0.1203  0.1482 -0.0412
  109OSM    C1S11181   0.795   4.525  10.681  0.0611  0.5926 -0.0325
  109OSM    H1S11182   0.815   4.426  10.728  0.7818  1.0141  0.5759
  109OSM    H1T11183   0.901   4.556  10.675  1.5871 -3.3147  2.7312
  109OSM     NF11184   0.808   4.425  10.453 -0.4343 -0.1627  0.0822
  109OSM    HNF11185   0.886   4.460  10.402  0.0363  1.4089  1.7882
  109OSM    C2S11186   0.735   4.519  10.537 -0.1575 -0.1201  0.2685
  109OSM    H2S11187   0.631   4.480  10.551  0.0654  0.0615  2.9424
  109OSM    C3S11188   0.742   4.671  10.486 -0.0149 -0.1619 -1.3704
  109OSM    H3S11189   0.847   4.702  10.467  0.4979  0.1446  1.5187
  109OSM     O311190   0.706   4.778  10.584  0.4546  0.3352  0.0217
  109OSM    HO311191   0.705   4.727  10.666  1.5125  0.2261 -0.0219
  109OSM    C4S11192   0.650   4.702  10.375  0.2606  0.2584  0.4901
  109OSM    H4S11193   0.560   4.640  10.360  1.8592 -1.7183 -1.6585
  109OSM    C5S11194   0.658   4.801  10.288 -0.2489 -0.6535  0.8940
  109OSM    H5S11195   0.736   4.872  10.319 -0.6038  0.8934 -1.5374
  109OSM    C6S11196   0.563   4.842  10.176 -0.8857  0.0856 -0.1058
  109OSM    H6S11197   0.552   4.952  10.175 -4.2332 -0.1479 -1.0487
  109OSM    H6T11198   0.461   4.805  10.202 -1.0775 -0.1374 -1.1438
  109OSM    C7S11199   0.591   4.803  10.033  0.4476  0.5728 -0.6472
  109OSM    H7S11200   0.582   4.692  10.039 -0.8406  0.6969 -0.0510
  109OSM    H7T11201   0.696   4.829  10.008  0.8267  2.5679  2.4206
  109OSM    C8S11202   0.485   4.864   9.945  0.9875  0.4173 -0.7268
  109OSM    H8S11203   0.503   4.974   9.944  1.2676  0.3817 -0.1540
  109OSM    H8T11204   0.385   4.851   9.991  0.8513  2.5330 -0.2984
  109OSM    C9S11205   0.512   4.810   9.806  0.0658 -0.2555 -0.4802
  109OSM    H9S11206   0.523   4.699   9.806 -1.2062 -0.4116 -1.9062
  109OSM    H9T11207   0.611   4.846   9.771 -0.8034  0.3149 -2.4870
  109OSM   C10S11208   0.410   4.848   9.698 -0.8045 -0.0577 -0.0941
  109OSM   H10S11209   0.388   4.954   9.722  1.4033  0.3986  0.1823
  109OSM   H10T11210   0.318   4.790   9.719  0.3688 -1.1346  2.5571
  109OSM   C11S11211   0.455   4.839   9.555 -0.8753 -0.3649 -0.0470
  109OSM   H11S11212   0.480   4.734   9.530  1.4305  0.3928 -1.1682
  109OSM   H11T11213   0.546   4.903   9.558 -2.2474  1.6981 -0.2313
  109OSM   C12S11214   0.355   4.896   9.458  0.0969 -0.3156  0.7161
  109OSM   H12S11215   0.330   4.999   9.492  0.9658  0.1396  0.0228
  109OSM   H12T11216   0.257   4.844   9.462  0.8046 -1.7713 -0.2045
  109OSM   C13S11217   0.407   4.915   9.311  0.3068  0.0886 -0.4900
  109OSM   H13S11218   0.504   4.969   9.310  0.0039  0.7741  1.4726
  109OSM   H13T11219   0.341   4.983   9.253 -0.4630 -0.6984 -0.5580
  109OSM   C14S11220   0.429   4.774   9.236 -0.1061 -0.2818 -0.4867
  109OSM   H14S11221   0.489   4.714   9.308 -2.3837 -1.1078  0.8445
  109OSM   H14T11222   0.482   4.797   9.141 -0.0886  2.4402  0.0961
  109OSM   C15S11223   0.304   4.699   9.209  0.0041 -0.5168  1.0768
  109OSM   H15S11224   0.244   4.694   9.303 -1.9920  0.8062 -0.0525
  109OSM   H15T11225   0.336   4.597   9.179  3.6177  0.6957  0.2917
  109OSM   C16S11226   0.221   4.762   9.088  0.3440  0.1665  0.2297
  109OSM   H16S11227   0.282   4.767   8.995 -1.4783  3.3325 -0.9301
  109OSM   H16T11228   0.191   4.865   9.117 -0.8748  0.6591 -2.4458
  109OSM   C17S11229   0.093   4.679   9.060  0.1531  0.2392 -0.0132
  109OSM   H17S11230   0.026   4.710   9.143 -1.4189  1.6646 -1.7473
  109OSM   H17T11231   0.117   4.572   9.077 -1.9404  0.1309  2.9932
  109OSM   C18S11232   0.035   4.698   8.918  0.4153  0.1755 -0.8380
  109OSM   H18S11233  -0.067   4.654   8.907  0.0392  0.9630 -0.5935
  109OSM   H18T11234   0.100   4.655   8.839  1.8465 -0.2329  0.5060
  109OSM   H18U11235   0.018   4.807   8.904 -1.4066 -0.0827 -0.8500
  109OSM    C1F11236   0.794   4.295  10.448 -0.2472  0.4249  0.7180
  109OSM     OF11237   0.703   4.247  10.515  1.1902  0.5324 -0.3373
  109OSM    C2F11238   0.899   4.228  10.358 -0.4311  0.1250 -0.4107
  109OSM    H2F11239   0.954   4.159  10.425 -0.6271 -0.6244 -1.0053
  109OSM    H2G11240   0.977   4.296  10.319  1.2272 -1.4028  0.1300
  109OSM    C3F11241   0.819   4.158  10.236 -1.2781 -0.2416 -0.2395
  109OSM    H3F11242   0.786   4.242  10.171 -0.8122  0.4236  0.3798
  109OSM    H3G11243   0.727   4.110  10.274 -0.9477 -2.0537 -1.5704
  109OSM    C4F11244   0.910   4.054  10.168  0.1075 -0.1231  0.0418
  109OSM    H4F11245   0.959   3.980  10.235  0.5448 -0.7615 -0.9532
  109OSM    H4G11246   0.989   4.112  10.115 -1.1941  3.8076  2.0068
  109OSM    C5F11247   0.832   3.965  10.068 -0.1382  0.5611 -0.4446
  109OSM    H5F11248   0.732   3.952  10.115  0.2323 -1.9282 -0.2034
  109OSM    H5G11249   0.890   3.870  10.060 -1.5400 -0.4501  0.8069
  109OSM    C6F11250   0.811   4.022   9.928  0.1556  0.7692 -0.1382
  109OSM    H6F11251   0.774   4.127   9.936 -0.2163  0.7064 -0.9895
  109OSM    H6G11252   0.718   3.986   9.880 -0.4169  0.6412  1.0146
  109OSM    C7F11253   0.931   4.021   9.842 -0.1843  0.2066 -0.2465
  109OSM    H7F11254   1.016   4.064   9.900  0.6854 -1.1118 -0.4814
  109OSM    H7G11255   0.904   4.088   9.758 -0.5749 -0.9461 -1.0519
  109OSM    C8F11256   0.958   3.877   9.783  0.2509 -0.5185 -0.4572
  109OSM    H8F11257   0.879   3.841   9.713 -0.6735  1.1261 -0.2869
  109OSM    H8G11258   0.970   3.806   9.867  1.2504  1.4426  1.1215
  109OSM    C9F11259   1.087   3.882   9.705 -0.8126 -0.3325  0.0599
  109OSM    H9F11260   1.183   3.892   9.758 -1.6663 -0.1905  1.6473
  109OSM   C10F11261   1.090   3.879   9.565 -0.1930  0.3813 -0.0895
  109OSM   H10F11262   1.189   3.879   9.518 -0.9685  0.6974 -1.7719
  109OSM   C11F11263   0.972   3.864   9.468  0.3332  0.2815 -0.2903
  109OSM   H11F11264   0.907   3.955   9.471 -2.5393 -1.6456  0.8696
  109OSM   H11G11265   0.922   3.770   9.499  0.7967  0.7051  1.9794
  109OSM   C12F11266   1.034   3.848   9.328  0.4570 -0.1962  0.0947
  109OSM   H12F11267   1.096   3.756   9.320  0.8753 -0.0323  1.2501
  109OSM   H12G11268   1.095   3.938   9.306  0.5445 -0.3468 -0.2856
  109OSM   C13F11269   0.925   3.840   9.217 -0.5054  0.7859 -0.1691
  109OSM   H13F11270   0.868   3.933   9.239 -0.0696  0.6980  1.4819
  109OSM   H13G11271   0.862   3.756   9.255  0.7856 -0.4120 -0.5972
  109OSM   C14F11272   0.980   3.812   9.078  0.3127 -0.4210  0.3126
  109OSM   H14F11273   1.041   3.719   9.077  0.2012 -0.5218  1.8318
  109OSM   H14G11274   1.034   3.897   9.030 -0.4496 -0.2010 -0.1635
  109OSM   C15F11275   0.858   3.787   8.977 -0.4600 -0.6598 -1.0080
  109OSM   H15F11276   0.787   3.873   8.977 -0.5230 -0.6787  0.3402
  109OSM   H15G11277   0.813   3.690   9.007  1.1373 -1.3526 -0.7856
  109OSM   C16F11278   0.900   3.770   8.827  0.8546  0.0646 -0.3939
  109OSM   H16F11279   0.990   3.705   8.822 -0.4405 -1.7366 -3.0413
  109OSM   H16G11280   0.931   3.867   8.783 -1.0969  0.0602 -1.9239
  109OSM   C17F11281   0.782   3.697   8.747  0.4594  0.0954  0.1016
  109OSM   H17F11282   0.701   3.773   8.747  0.3412 -0.0176  1.0922
  109OSM   H17G11283   0.749   3.603   8.796  0.1779  0.6365  0.9679
  109OSM   C18F11284   0.822   3.678   8.598  0.5180 -0.8556 -0.1834
  109OSM   H18F11285   0.877   3.770   8.569  0.6053 -0.0955  2.1930
  109OSM   H18G11286   0.743   3.646   8.527  0.5658 -0.4276 -0.4316
  109OSM   H18H11287   0.910   3.610   8.593 -0.5313 -2.2282 -0.9148
  110OSM      N11288   2.618   1.421  11.228  0.3649 -0.2520 -0.2474
  110OSM    C1511289   2.705   1.373  11.333  0.0038  0.3013 -0.9456
  110OSM   H15A11290   2.746   1.280  11.296 -1.2728 -0.5754 -0.2579
  110OSM   H15B11291   2.656   1.360  11.429 -0.0189 -1.6586 -1.1768
  110OSM   H15C11292   2.787   1.439  11.353  0.7555 -0.7101 -0.5991
  110OSM    C1411293   2.529   1.306  11.207  0.3888 -0.5181 -0.0809
  110OSM   H14A11294   2.584   1.225  11.161  4.2424  1.6517  0.3039
  110OSM   H14B11295   2.451   1.321  11.133 -0.1129 -0.8116  0.3829
  110OSM   H14C11296   2.481   1.281  11.300 -0.3478  0.2014 -0.2586
  110OSM    C1311297   2.546   1.543  11.261  1.0268 -0.5401  0.0079
  110OSM   H13A11298   2.474   1.569  11.185 -1.4234 -0.4665  2.2261
  110OSM   H13B11299   2.617   1.624  11.271 -0.2763  0.4537  1.8475
  110OSM   H13C11300   2.482   1.544  11.348 -1.2841  0.0611 -1.5911
  110OSM    C1211301   2.691   1.433  11.094 -0.0468 -0.1098 -0.9868
  110OSM   H12A11302   2.619   1.446  11.014  0.2127  1.8935 -0.9393
  110OSM   H12B11303   2.738   1.338  11.075  2.5141  0.9170 -0.2425
  110OSM    C1111304   2.797   1.546  11.077  0.8476 -0.3987 -0.1458
  110OSM   H11A11305   2.739   1.628  11.125 -0.5898 -2.6039  2.1085
  110OSM   H11B11306   2.813   1.570  10.970 -0.2958 -0.0657 -0.2566
  110OSM      P11307   3.026   1.431  11.091 -0.0680  0.2502 -0.1834
  110OSM    O1311308   3.161   1.478  11.136 -0.3599  0.0572  0.3187
  110OSM    O1411309   2.993   1.291  11.124  0.2954 -0.4501  0.4240
  110OSM    O1111310   3.012   1.471  10.942 -0.1153  0.7285  0.2773
  110OSM    O1211311   2.915   1.528  11.158  0.0670  0.6712  0.0442
  110OSM    C1S11312   3.110   1.415  10.853  0.7357 -0.6051 -0.1713
  110OSM    H1S11313   3.140   1.310  10.873 -0.8928 -0.9353  0.6791
  110OSM    H1T11314   3.207   1.469  10.859  0.8859 -0.8826 -0.0684
  110OSM     NF11315   3.132   1.354  10.610  0.4104 -0.5557 -0.2800
  110OSM    HNF11316   3.208   1.399  10.564  2.0750  0.6425  3.2320
  110OSM    C2S11317   3.057   1.441  10.707 -0.5897 -0.2688  0.0480
  110OSM    H2S11318   2.950   1.415  10.700 -0.7083  0.6079 -4.3119
  110OSM    C3S11319   3.064   1.594  10.676  0.7833  1.1506 -0.4644
  110OSM    H3S11320   3.170   1.624  10.692  0.6054  0.0929  4.0192
  110OSM     O311321   2.996   1.684  10.768  0.4785  0.1938  0.2949
  110OSM    HO311322   2.966   1.632  10.843 -4.1647 -0.3613 -1.6593
  110OSM    C4S11323   3.018   1.615  10.535 -0.0134 -0.1826  0.1927
  110OSM    H4S11324   2.909   1.610  10.520  0.1929  1.2604 -2.5058
  110OSM    C5S11325   3.091   1.652  10.429 -0.7865 -0.5381  0.0468
  110OSM    H5S11326   3.198   1.678  10.431 -1.4654  2.8404 -0.9516
  110OSM    C6S11327   3.045   1.677  10.292 -0.1897 -0.3255 -0.2034
  110OSM    H6S11328   2.962   1.751  10.285 -0.7919 -1.1071 -1.9473
  110OSM    H6T11329   2.993   1.586  10.254 -0.5449  0.7102 -2.3614
  110OSM    C7S11330   3.154   1.715  10.193 -0.3142 -0.3473  0.3153
  110OSM    H7S11331   3.227   1.632  10.203  1.7270  1.4875  1.3228
  110OSM    H7T11332   3.215   1.805  10.215  2.4827 -1.8901 -0.6263
  110OSM    C8S11333   3.095   1.717  10.050  0.1332  0.3221 -0.5296
  110OSM    H8S11334   3.044   1.815  10.036  0.8915  0.9478  0.8682
  110OSM    H8T11335   3.028   1.629  10.058  0.1342  0.0699 -2.7197
  110OSM    C9S11336   3.197   1.710   9.934 -0.1053 -0.1531 -0.4176
  110OSM    H9S11337   3.249   1.612   9.928  0.9844  0.4742 -1.7386
  110OSM    H9T11338   3.267   1.796   9.942  0.0424 -0.3508  0.5629
  110OSM   C10S11339   3.129   1.726   9.798  0.0517  0.5551 -0.0140
  110OSM   H10S11340   3.061   1.814   9.802 -0.9742 -0.2656  1.6369
  110OSM   H10T11341   3.079   1.627   9.787  2.8064 -1.2502  2.3339
  110OSM   C11S11342   3.237   1.750   9.689  0.1863 -0.7802 -0.1142
  110OSM   H11S11343   3.311   1.668   9.694 -2.0416 -2.8550  1.3107
  110OSM   H11T11344   3.288   1.847   9.708 -0.6095 -0.2195 -0.7300
  110OSM   C12S11345   3.176   1.765   9.546  0.2115  0.1343  0.4331
  110OSM   H12S11346   3.081   1.822   9.555 -1.4947 -2.5319  0.2203
  110OSM   H12T11347   3.139   1.664   9.520 -0.5703 -0.0099  1.9601
  110OSM   C13S11348   3.268   1.827   9.453  0.1820  1.0377  0.5779
  110OSM   H13S11349   3.355   1.763   9.426 -1.4966  0.1904 -3.8106
  110OSM   H13T11350   3.306   1.920   9.499  2.0971  0.3451  0.5157
  110OSM   C14S11351   3.196   1.869   9.331 -0.2982 -0.8180 -0.2637
  110OSM   H14S11352   3.232   1.973   9.316 -0.0232 -0.6380  1.4291
  110OSM   H14T11353   3.087   1.871   9.351 -0.9490  1.5458 -3.3015
  110OSM   C15S11354   3.224   1.793   9.201  0.2696  0.4087 -0.1979
  110OSM   H15S11355   3.140   1.817   9.131  0.2120  1.9377  0.3565
  110OSM   H15T11356   3.228   1.682   9.196 -1.4520  0.3461 -1.2101
  110OSM   C16S11357   3.363   1.828   9.136  0.5571  0.0118 -0.6476
  110OSM   H16S11358   3.447   1.808   9.206 -2.1402 -3.3200  1.9640
  110OSM   H16T11359   3.354   1.939   9.135  0.7553  0.0417  0.1685
  110OSM   C17S11360   3.387   1.792   8.985 -0.3989  0.0381  0.1495
  110OSM   H17S11361   3.294   1.827   8.937 -0.8239  1.2344  1.7643
  110OSM   H17T11362   3.411   1.683   8.990 -0.9298 -0.1399 -0.9347
  110OSM   C18S11363   3.503   1.871   8.923 -0.5009 -0.0786  0.7752
  110OSM   H18S11364   3.606   1.842   8.953  0.7679  1.6595 -1.5671
  110OSM   H18T11365   3.482   1.977   8.945  1.1112  0.3759  0.2847
  110OSM   H18U11366   3.506   1.863   8.812  0.7803  2.7080  0.5298
  110OSM    C1F11367   3.125   1.226  10.606  0.7926  0.2504  0.0894
  110OSM     OF11368   3.037   1.171  10.677 -0.1160 -0.2277  0.6172
  110OSM    C2F11369   3.225   1.160  10.516 -0.0620 -0.0566  0.0810
  110OSM    H2F11370   3.256   1.063  10.561  0.3011 -1.5281 -3.0770
  110OSM    H2G11371   3.318   1.215  10.494  0.9379 -2.0413 -0.9294
  110OSM    C3F11372   3.180   1.118  10.375  0.0933 -0.0265  0.2155
  110OSM    H3F11373   3.074   1.086  10.377 -0.2459  0.6466 -2.4288
  110OSM    H3G11374   3.239   1.030  10.340  2.8654  1.5242  0.6911
  110OSM    C4F11375   3.207   1.233  10.275  0.1431  0.6782  0.7350
  110OSM    H4F11376   3.312   1.258  10.248 -0.4700  1.7782 -0.7815
  110OSM    H4G11377   3.166   1.332  10.302  0.1066  0.8724  0.0043
  110OSM    C5F11378   3.133   1.202  10.146 -0.1599 -0.3959 -0.1318
  110OSM    H5F11379   3.023   1.215  10.154 -0.3064 -0.2248 -1.9411
  110OSM    H5G11380   3.151   1.097  10.115  1.7748  0.2689 -1.4398
  110OSM    C6F11381   3.196   1.287  10.036 -0.5145  0.0121  1.1254
  110OSM    H6F11382   3.306   1.275  10.031 -0.3605  1.2315  1.1776
  110OSM    H6G11383   3.176   1.395  10.056  3.8508  1.0561  0.8602
  110OSM    C7F11384   3.141   1.250   9.895 -0.8194 -0.1738 -0.4821
  110OSM    H7F11385   3.031   1.270   9.894 -0.7428  0.3054  0.1066
  110OSM    H7G11386   3.147   1.140   9.883  1.0045 -0.2453  0.7585
  110OSM    C8F11387   3.213   1.324   9.780 -0.5622  0.2821  0.8895
  110OSM    H8F11388   3.323   1.317   9.798 -0.3990 -0.7170 -0.3167
  110OSM    H8G11389   3.202   1.434   9.778  4.2160  0.9858 -1.3562
  110OSM    C9F11390   3.174   1.261   9.649  1.0688  0.0995 -0.3122
  110OSM    H9F11391   3.079   1.207   9.644  0.4920  1.0886 -0.1844
  110OSM   C10F11392   3.242   1.264   9.535  0.4469  0.0070 -0.3889
  110OSM   H10F11393   3.188   1.226   9.447 -2.2449  2.7864 -0.1296
  110OSM   C11F11394   3.380   1.328   9.509  0.3781 -0.4933  0.1079
  110OSM   H11F11395   3.452   1.254   9.469  1.9449  1.3340 -0.6073
  110OSM   H11G11396   3.422   1.369   9.604 -0.8705  0.3856  0.3124
  110OSM   C12F11397   3.388   1.447   9.420 -0.0153 -0.4247  0.2305
  110OSM   H12F11398   3.482   1.506   9.428 -0.9336  1.1621 -0.2142
  110OSM   H12G11399   3.315   1.530   9.433  3.1062  3.4168 -3.6354
  110OSM   C13F11400   3.373   1.407   9.268  0.1141 -1.0338  0.1299
  110OSM   H13F11401   3.347   1.497   9.209 -2.8570  0.0335  2.7730
  110OSM   H13G11402   3.276   1.353   9.265 -0.8481  0.3194  3.0837
  110OSM   C14F11403   3.490   1.335   9.202  0.4569 -0.6240 -0.3809
  110OSM   H14F11404   3.494   1.226   9.222 -0.2234 -0.5284  0.2893
  110OSM   H14G11405   3.587   1.378   9.235 -0.1458 -0.9270  1.9334
  110OSM   C15F11406   3.495   1.364   9.042 -0.0876 -0.2994  0.1549
  110OSM   H15F11407   3.447   1.459   9.010 -0.2782  0.2017  1.8038
  110OSM   H15G11408   3.435   1.283   8.996  0.3067 -0.6467  0.2522
  110OSM   C16F11409   3.639   1.352   8.998  0.2727  0.5086 -0.7296
  110OSM   H16F11410   3.683   1.259   9.039  3.1104  1.1294 -2.1454
  110OSM   H16G11411   3.707   1.422   9.050  0.0457  0.1243  0.0919
  110OSM   C17F11412   3.659   1.352   8.847  0.1907 -0.4219 -0.3732
  110OSM   H17F11413   3.573   1.293   8.810 -2.3346  1.6060  1.8314
  110OSM   H17G11414   3.760   1.315   8.820  1.1542  1.0363  0.9996
  110OSM   C18F11415   3.649   1.493   8.774 -0.1198 -0.2053 -0.8738
  110OSM   H18F11416   3.739   1.556   8.792 -1.7284  2.4716 -1.5563
  110OSM   H18G11417   3.561   1.549   8.812 -0.3556 -0.1416 -1.5048
  110OSM   H18H11418   3.639   1.468   8.666 -0.8421 -0.1653 -0.8215
  111OSM      N11419   1.531   0.150  10.824 -0.0140  0.4941  0.4086
  111OSM    C1511420   1.522   0.049  10.711 -0.6754 -0.6296 -0.8939
  111OSM   H15A11421   1.615   0.042  10.656 -0.1013  0.6950 -0.1412
  111OSM   H15B11422   1.441   0.072  10.642  0.5133  0.6910 -1.9096
  111OSM   H15C11423   1.508  -0.050  10.750  2.4070 -0.6936  0.2907
  111OSM    C1411424   1.613   0.095  10.927  0.3859  0.3091 -1.0355
  111OSM   H14A11425   1.640   0.166  11.004  2.3380 -0.7537 -0.6787
  111OSM   H14B11426   1.704   0.050  10.889  0.3070  1.7274 -3.0793
  111OSM   H14C11427   1.552   0.020  10.974 -2.2368  2.5146 -0.6466
  111OSM    C1311428   1.593   0.266  10.759  0.2181 -0.1354  0.2734
  111OSM   H13A11429   1.624   0.240  10.659 -1.9778 -2.6909  0.1553
  111OSM   H13B11430   1.685   0.290  10.810  0.2345 -0.0585  0.2085
  111OSM   H13C11431   1.518   0.341  10.778  1.1006  0.5796  1.0236
  111OSM    C1211432   1.396   0.175  10.881  0.9635  0.3719 -0.6610
  111OSM   H12A11433   1.331   0.094  10.910  1.2417  0.4268  0.1301
  111OSM   H12B11434   1.337   0.217  10.801 -1.0003 -4.6024 -2.1643
  111OSM    C1111435   1.383   0.267  11.005 -0.2240  0.6388  0.3381
  111OSM   H11A11436   1.453   0.240  11.087 -1.3987 -0.7164  0.9127
  111OSM   H11B11437   1.280   0.269  11.046 -0.1564  3.5693  0.5997
  111OSM      P11438   1.292   0.507  10.913 -0.6882 -0.1677 -0.1681
  111OSM    O1311439   1.199   0.437  10.821 -1.3117  0.0517  0.0487
  111OSM    O1411440   1.226   0.572  11.026 -0.5809  0.0563 -0.5858
  111OSM    O1111441   1.374   0.613  10.821  0.2793  0.4690 -0.8055
  111OSM    O1211442   1.410   0.406  10.964  0.0565  0.0666 -0.2246
  111OSM    C1S11443   1.452   0.570  10.717  0.3801 -0.3986  0.1516
  111OSM    H1S11444   1.411   0.474  10.681 -0.5567 -0.4502  1.3158
  111OSM    H1T11445   1.560   0.566  10.746  0.2573  0.4842  0.7801
  111OSM     NF11446   1.493   0.587  10.479  0.2414 -0.1293  0.0131
  111OSM    HNF11447   1.584   0.620  10.454  0.0999 -0.7662 -1.4397
  111OSM    C2S11448   1.428   0.652  10.588 -0.8651  0.1235 -0.1853
  111OSM    H2S11449   1.318   0.661  10.574 -0.9390  0.2708  0.4455
  111OSM    C3S11450   1.481   0.793  10.617 -0.2085 -0.1300 -0.3764
  111OSM    H3S11451   1.590   0.798  10.639  0.2954 -0.4533 -2.5531
  111OSM     O311452   1.418   0.844  10.734 -0.6501 -0.0132  0.5457
  111OSM    HO311453   1.388   0.762  10.773 -2.2668 -0.6822 -1.8779
  111OSM    C4S11454   1.458   0.882  10.500  0.5633 -0.0300  0.3421
  111OSM    H4S11455   1.539   0.878  10.425 -1.1643  1.1811 -1.6848
  111OSM    C5S11456   1.358   0.972  10.475 -0.2562 -0.0312  0.0753
  111OSM    H5S11457   1.273   0.984  10.544  1.4951  0.7575  2.2035
  111OSM    C6S11458   1.354   1.049  10.338  0.2555  0.2881  0.0776
  111OSM    H6S11459   1.374   1.158  10.351 -0.2773  0.5046 -0.8528
  111OSM    H6T11460   1.250   1.039  10.300 -0.0283  0.7657  0.7015
  111OSM    C7S11461   1.444   1.003  10.227 -0.0904  0.9448  0.1295
  111OSM    H7S11462   1.442   0.893  10.209  1.4509  1.1091 -1.3548
  111OSM    H7T11463   1.549   1.026  10.254 -0.1549 -0.0021  1.2322
  111OSM    C8S11464   1.412   1.062  10.089 -0.0369 -0.8907 -0.5464
  111OSM    H8S11465   1.405   1.171  10.110  3.1743 -0.9872  1.6717
  111OSM    H8T11466   1.313   1.025  10.056  0.3739 -2.3242 -0.2421
  111OSM    C9S11467   1.521   1.041   9.981  0.3178 -0.7598 -0.1092
  111OSM    H9S11468   1.533   0.933   9.960 -1.7752 -0.5406 -3.1588
  111OSM    H9T11469   1.613   1.087  10.023 -0.4743  1.4656 -0.6922
  111OSM   C10S11470   1.473   1.109   9.855 -0.1679  0.0614  1.0503
  111OSM   H10S11471   1.491   1.218   9.864 -0.5669  0.1480  0.7953
  111OSM   H10T11472   1.365   1.087   9.840 -0.1572  0.2868  0.6338
  111OSM   C11S11473   1.555   1.045   9.738 -0.3996 -0.8525  0.0681
  111OSM   H11S11474   1.541   0.935   9.745 -1.1817 -0.6562  2.0932
  111OSM   H11T11475   1.662   1.055   9.763 -0.7536 -0.5841  1.5499
  111OSM   C12S11476   1.520   1.088   9.599  0.3702 -0.3404  0.5582
  111OSM   H12S11477   1.524   1.200   9.598  0.5877 -0.3167 -1.9479
  111OSM   H12T11478   1.416   1.057   9.577  1.3364 -3.7560  0.3130
  111OSM   C13S11479   1.598   1.031   9.482 -0.4951  0.2146  0.2627
  111OSM   H13S11480   1.618   0.924   9.505 -2.0754  0.2059  1.7499
  111OSM   H13T11481   1.695   1.085   9.474  0.0586 -0.9998 -2.4569
  111OSM   C14S11482   1.522   1.044   9.348 -0.1063  0.7386 -0.0136
  111OSM   H14S11483   1.519   1.143   9.298 -0.6742  0.6848 -0.0938
  111OSM   H14T11484   1.418   1.013   9.371  0.6816 -0.7002  1.8119
  111OSM   C15S11485   1.585   0.947   9.251  0.2136  0.1265  0.3427
  111OSM   H15S11486   1.591   0.847   9.299 -0.0766 -0.0726 -0.0237
  111OSM   H15T11487   1.685   0.984   9.222 -0.1241  0.7786 -0.0218
  111OSM   C16S11488   1.488   0.932   9.132  0.1917  1.0571 -0.2414
  111OSM   H16S11489   1.517   1.020   9.071  0.2277  1.8561  0.8888
  111OSM   H16T11490   1.384   0.950   9.168 -0.0150  0.6330 -0.6183
  111OSM   C17S11491   1.496   0.801   9.050 -0.3081 -0.2305  0.1116
  111OSM   H17S11492   1.489   0.721   9.127  3.8210 -1.1544 -0.2191
  111OSM   H17T11493   1.602   0.797   9.017 -1.0497 -0.7691 -2.4664
  111OSM   C18S11494   1.404   0.784   8.932  0.5489 -0.0505  0.2611
  111OSM   H18S11495   1.423   0.870   8.864 -0.2813 -1.4686 -1.8631
  111OSM   H18T11496   1.298   0.795   8.964  0.5373 -0.5753  0.4226
  111OSM   H18U11497   1.406   0.682   8.887 -0.9232  1.1269 -2.7184
  111OSM    C1F11498   1.447   0.480  10.404 -0.1997 -0.2241 -0.5840
  111OSM     OF11499   1.337   0.437  10.438  0.1441  0.4732 -0.5577
  111OSM    C2F11500   1.528   0.427  10.292  0.7624  0.1171  0.1982
  111OSM    H2F11501   1.579   0.333  10.322  0.6687 -0.1317 -0.4225
  111OSM    H2G11502   1.607   0.502  10.268 -1.0122  1.3305 -2.2529
  111OSM    C3F11503   1.461   0.399  10.155  0.2034 -0.0618  0.6961
  111OSM    H3F11504   1.375   0.330  10.169 -0.1270  0.3405  0.6660
  111OSM    H3G11505   1.541   0.335  10.112 -1.4726 -2.0811  0.4644
  111OSM    C4F11506   1.436   0.518  10.065 -0.3015 -0.0596 -0.3485
  111OSM    H4F11507   1.525   0.585  10.067 -1.3665  1.3954 -0.1638
  111OSM    H4G11508   1.358   0.589  10.101  0.3372  0.0631  0.8537
  111OSM    C5F11509   1.407   0.477   9.922 -0.7024  0.1520  0.3368
  111OSM    H5F11510   1.298   0.455   9.912 -1.1280  0.6043  3.2071
  111OSM    H5G11511   1.465   0.386   9.894 -0.3861  0.2314  0.7303
  111OSM    C6F11512   1.437   0.588   9.824  0.7204 -0.1865  0.8940
  111OSM    H6F11513   1.546   0.606   9.814  0.1419  2.2544 -3.7808
  111OSM    H6G11514   1.390   0.684   9.854  0.5459 -0.4928  1.6374
  111OSM    C7F11515   1.389   0.561   9.679 -0.0441  0.1695  0.3106
  111OSM    H7F11516   1.278   0.558   9.690 -0.5550  1.2966 -3.2469
  111OSM    H7G11517   1.422   0.459   9.654 -0.4718  0.5459 -2.0264
  111OSM    C8F11518   1.441   0.655   9.573  0.2986 -0.3508  0.2813
  111OSM    H8F11519   1.551   0.639   9.583  0.2317 -1.1551 -0.2131
  111OSM    H8G11520   1.419   0.761   9.599  2.6087  0.3736 -0.4865
  111OSM    C9F11521   1.380   0.628   9.438 -0.5660 -0.2970  0.7733
  111OSM    H9F11522   1.295   0.694   9.414  0.7484  1.0534 -0.4927
  111OSM   C10F11523   1.413   0.537   9.345  0.1260 -0.1887 -0.4634
  111OSM   H10F11524   1.352   0.536   9.253  0.0804  0.0776 -0.4386
  111OSM   C11F11525   1.524   0.436   9.350 -0.4798 -0.5039  0.4225
  111OSM   H11F11526   1.485   0.334   9.328 -2.9094  0.9350 -2.9469
  111OSM   H11G11527   1.570   0.430   9.450 -0.4503  1.8836  0.6058
  111OSM   C12F11528   1.649   0.475   9.246  0.3249  0.7506 -0.7363
  111OSM   H12F11529   1.733   0.404   9.264 -1.4470 -0.8188  2.2308
  111OSM   H12G11530   1.671   0.580   9.272  0.1705  0.5579  0.2346
  111OSM   C13F11531   1.608   0.465   9.100 -0.8643  0.1507 -0.3709
  111OSM   H13F11532   1.652   0.546   9.037 -3.1990  2.4691  0.7828
  111OSM   H13G11533   1.503   0.499   9.088 -0.3538  1.6814 -0.7846
  111OSM   C14F11534   1.639   0.326   9.039  0.6815  0.0936  0.7470
  111OSM   H14F11535   1.609   0.248   9.113 -3.7025  0.7569 -0.1058
  111OSM   H14G11536   1.749   0.308   9.047  0.6332  0.4977  2.5989
  111OSM   C15F11537   1.592   0.303   8.894  0.4093 -0.2912 -0.2254
  111OSM   H15F11538   1.482   0.282   8.896  0.0329  1.4279 -1.0242
  111OSM   H15G11539   1.641   0.214   8.849  0.2646 -0.6267  0.2740
  111OSM   C16F11540   1.604   0.426   8.802 -0.0417  0.7648  0.8460
  111OSM   H16F11541   1.712   0.452   8.797 -0.1828  1.7542  2.2187
  111OSM   H16G11542   1.546   0.516   8.833 -1.3009  0.5631 -0.7667
  111OSM   C17F11543   1.539   0.402   8.658  0.1593  0.6543 -0.4403
  111OSM   H17F11544   1.510   0.501   8.617 -0.8445  0.3716 -0.4512
  111OSM   H17G11545   1.451   0.334   8.663  0.8536 -0.3583 -1.4052
  111OSM   C18F11546   1.643   0.322   8.577 -0.5820  0.0806  0.1456
  111OSM   H18F11547   1.614   0.283   8.477  1.6386  0.5770 -0.7474
  111OSM   H18G11548   1.684   0.235   8.634  0.2727 -0.1243 -0.7683
  111OSM   H18H11549   1.724   0.395   8.557  0.0050 -1.1161 -2.1175
  112OSM      N11550   1.837   3.273  11.218  0.5119 -0.1389 -0.2265
  112OSM    C1511551   1.740   3.175  11.168  0.9639  0.6953 -0.4124
  112OSM   H15A11552   1.675   3.148  11.249  3.4367  0.0245  1.4868
  112OSM   H15B11553   1.802   3.098  11.123  1.0476  0.2933  0.3793
  112OSM   H15C11554   1.699   3.224  11.081  0.3299  0.2182 -0.3863
  112OSM    C1411555   1.758   3.391  11.260 -0.8221  0.1757  0.2157
  112OSM   H14A11556   1.822   3.474  11.284  0.6123 -1.2250  1.5200
  112OSM   H14B11557   1.684   3.366  11.335 -1.7649  0.8316 -0.4815
  112OSM   H14C11558   1.701   3.418  11.173 -0.2680 -1.8619 -0.8568
  112OSM    C1311559   1.904   3.211  11.335 -0.4108 -0.4084  0.0149
  112OSM   H13A11560   1.829   3.193  11.410  0.9589  0.5092  1.6995
  112OSM   H13B11561   1.980   3.276  11.377 -0.0400 -0.3317 -0.7534
  112OSM   H13C11562   1.948   3.116  11.308 -0.6040 -0.6581  0.5632
  112OSM    C1211563   1.941   3.319  11.116 -0.3357 -0.3263 -0.4156
  112OSM   H12A11564   2.008   3.385  11.170 -0.4739 -1.0054  0.6075
  112OSM   H12B11565   1.883   3.378  11.047  0.1999  0.5590 -0.1295
  112OSM    C1111566   2.011   3.204  11.041  0.0473 -0.6239  0.4121
  112OSM   H11A11567   2.073   3.144  11.110 -0.0929  0.7443  1.7909
  112OSM   H11B11568   2.089   3.245  10.973 -0.9229 -1.5288 -1.3187
  112OSM      P11569   1.871   3.160  10.822 -0.1008 -0.0422  0.4100
  112OSM    O1311570   1.738   3.093  10.809 -0.2844  0.3110 -0.0666
  112OSM    O1411571   1.872   3.306  10.806 -0.0751 -0.2986  0.6240
  112OSM    O1111572   1.983   3.082  10.735 -0.2874  0.1503 -0.1071
  112OSM    O1211573   1.916   3.123  10.963 -0.0781  0.5365  0.0027
  112OSM    C1S11574   1.956   2.961  10.669 -0.4521  0.1308 -0.0836
  112OSM    H1S11575   1.851   2.927  10.684  0.4260 -3.1183 -0.5269
  112OSM    H1T11576   2.021   2.885  10.717 -0.7064  0.1590  0.3115
  112OSM     NF11577   1.990   2.818  10.473  0.1779 -0.1413  0.9845
  112OSM    HNF11578   2.069   2.761  10.491  2.4810  2.4326 -0.2515
  112OSM    C2S11579   2.003   2.954  10.518  0.2049  0.3732 -0.5970
  112OSM    H2S11580   1.943   3.025  10.456  0.1985  0.7694 -0.1447
  112OSM    C3S11581   2.141   3.011  10.493  0.1625 -0.1460  0.3496
  112OSM    H3S11582   2.219   2.946  10.539  1.8790  0.3168 -1.7401
  112OSM     O311583   2.149   3.146  10.533  0.6499 -0.0896  0.3674
  112OSM    HO311584   2.061   3.157  10.570 -0.0463  0.4738 -1.3611
  112OSM    C4S11585   2.173   3.013  10.343 -1.1823  0.0419  0.3842
  112OSM    H4S11586   2.108   3.073  10.277 -0.2767 -0.7204 -1.2485
  112OSM    C5S11587   2.293   2.959  10.300  0.2067 -0.2676 -0.1010
  112OSM    H5S11588   2.354   2.909  10.376 -0.7414 -1.9713 -0.4094
  112OSM    C6S11589   2.340   2.957  10.161  0.0497 -0.1849 -0.1809
  112OSM    H6S11590   2.449   2.980  10.160 -0.2994  1.7993 -2.6152
  112OSM    H6T11591   2.289   3.032  10.096 -1.4480 -0.8892  0.1630
  112OSM    C7S11592   2.324   2.821  10.091  0.0625  0.2093 -0.5186
  112OSM    H7S11593   2.365   2.742  10.157 -0.4910 -1.3819 -2.0061
  112OSM    H7T11594   2.367   2.824   9.989 -0.3135  0.4757 -0.6687
  112OSM    C8S11595   2.173   2.791  10.070  0.2404  0.8631  1.2407
  112OSM    H8S11596   2.136   2.868   9.999  1.6355  0.1154 -0.3784
  112OSM    H8T11597   2.116   2.794  10.165  0.0177  2.0538  1.0793
  112OSM    C9S11598   2.146   2.650  10.002 -0.1615  0.4508 -0.3927
  112OSM    H9S11599   2.043   2.611  10.007  0.7332 -2.3862 -1.9415
  112OSM    H9T11600   2.200   2.576  10.066 -0.9228  0.2510  0.0266
  112OSM   C10S11601   2.202   2.642   9.861  0.0789  0.6441 -0.7428
  112OSM   H10S11602   2.209   2.536   9.829 -0.5991  0.1539  0.6405
  112OSM   H10T11603   2.302   2.687   9.847 -0.1318  1.6615  0.7633
  112OSM   C11S11604   2.122   2.721   9.755 -0.1588  0.3259  0.4706
  112OSM   H11S11605   2.110   2.829   9.778  0.7766  0.4979  0.1956
  112OSM   H11T11606   2.028   2.664   9.742  1.4212 -1.9046 -2.5178
  112OSM   C12S11607   2.195   2.712   9.622 -0.6669  0.2833  0.6672
  112OSM   H12S11608   2.211   2.604   9.600 -0.3087  0.1218  1.6562
  112OSM   H12T11609   2.296   2.756   9.639 -0.0645 -0.8076  0.0224
  112OSM   C13S11610   2.118   2.788   9.514  0.4522 -0.2632  0.2233
  112OSM   H13S11611   2.101   2.895   9.535  1.8877  0.1699 -0.6388
  112OSM   H13T11612   2.015   2.749   9.499 -0.4990  2.3291 -0.4753
  112OSM   C14S11613   2.174   2.776   9.372 -0.7202 -1.0277  0.6970
  112OSM   H14S11614   2.104   2.804   9.291  1.7578 -0.1647 -1.2987
  112OSM   H14T11615   2.215   2.673   9.364  0.0638 -0.6454 -0.5039
  112OSM   C15S11616   2.299   2.878   9.349  0.6490  0.0788 -0.2775
  112OSM   H15S11617   2.375   2.850   9.425  0.5458 -0.1876 -0.2719
  112OSM   H15T11618   2.260   2.976   9.383  0.4921 -0.2328  0.4641
  112OSM   C16S11619   2.357   2.867   9.209 -0.2324  0.0721  0.3656
  112OSM   H16S11620   2.387   2.763   9.186 -0.8491 -0.1841  0.6810
  112OSM   H16T11621   2.441   2.939   9.196 -0.1741 -0.1491 -0.5324
  112OSM   C17S11622   2.254   2.925   9.109 -0.5829 -0.1067  0.4738
  112OSM   H17S11623   2.201   3.008   9.161  1.0242  1.7013 -0.6628
  112OSM   H17T11624   2.174   2.852   9.083  0.5606 -0.8510 -1.2080
  112OSM   C18S11625   2.314   2.966   8.977  0.7641 -0.8865 -0.0802
  112OSM   H18S11626   2.238   3.004   8.905  1.3292 -2.2286 -1.4529
  112OSM   H18T11627   2.378   2.889   8.929  1.1546 -0.9706  0.5649
  112OSM   H18U11628   2.376   3.054   9.002  1.2872 -0.5348 -2.3988
  112OSM    C1F11629   1.871   2.776  10.433  0.4396 -0.1718 -0.7565
  112OSM     OF11630   1.781   2.858  10.429 -0.8426  0.0361 -0.1058
  112OSM    C2F11631   1.856   2.623  10.417  0.0531  0.4521 -0.0141
  112OSM    H2F11632   1.806   2.577  10.506  1.5795 -0.2496  0.5070
  112OSM    H2G11633   1.960   2.586  10.411  0.1933  0.4317  1.9200
  112OSM    C3F11634   1.779   2.584  10.288 -0.3221  0.8714 -1.1057
  112OSM    H3F11635   1.837   2.624  10.201  1.6004  2.2863  0.7367
  112OSM    H3G11636   1.682   2.638  10.290 -0.4852  0.6834 -2.6722
  112OSM    C4F11637   1.758   2.432  10.267 -0.6178 -0.5417  0.4774
  112OSM    H4F11638   1.702   2.380  10.349 -0.4607 -1.5060 -0.0156
  112OSM    H4G11639   1.854   2.377  10.265 -0.0584  0.4544 -0.6900
  112OSM    C5F11640   1.666   2.417  10.146 -0.1725  0.6767 -0.1977
  112OSM    H5F11641   1.580   2.484  10.167 -1.0688 -0.1799 -1.0463
  112OSM    H5G11642   1.627   2.314  10.164  0.4212  0.4947  0.0834
  112OSM    C6F11643   1.720   2.449  10.008  0.3393 -0.7498 -0.3837
  112OSM    H6F11644   1.727   2.560  10.015 -3.1964 -0.3816 -1.0999
  112OSM    H6G11645   1.663   2.417   9.918  0.1300  1.9959 -1.3175
  112OSM    C7F11646   1.861   2.399   9.999  0.1197 -0.6878 -0.0105
  112OSM    H7F11647   1.857   2.292  10.031  0.3224 -0.2154  1.6949
  112OSM    H7G11648   1.930   2.454  10.066  1.0959 -2.1901  0.2759
  112OSM    C8F11649   1.921   2.421   9.857  0.2000  0.8025  0.4048
  112OSM    H8F11650   2.026   2.386   9.860  0.2013  0.8540  1.0343
  112OSM    H8G11651   1.922   2.530   9.836 -0.5514  0.5558 -1.0198
  112OSM    C9F11652   1.858   2.343   9.743 -1.0134 -0.6743 -0.0830
  112OSM    H9F11653   1.878   2.234   9.742  0.4403 -0.4817 -2.5495
  112OSM   C10F11654   1.782   2.384   9.643  0.4934 -1.5422 -0.5530
  112OSM   H10F11655   1.734   2.316   9.571  2.3683  0.1673 -3.6236
  112OSM   C11F11656   1.729   2.529   9.612  0.0329  0.0312 -0.2237
  112OSM   H11F11657   1.758   2.599   9.693  0.9718  1.4864 -1.7411
  112OSM   H11G11658   1.619   2.542   9.619 -0.0783 -0.5481 -0.7908
  112OSM   C12F11659   1.777   2.588   9.477 -0.6888 -0.4606  0.5495
  112OSM   H12F11660   1.888   2.591   9.471 -0.7907  0.5868 -2.4548
  112OSM   H12G11661   1.745   2.695   9.474 -3.0335 -1.1282 -2.3257
  112OSM   C13F11662   1.726   2.513   9.351 -0.0122 -0.2028 -0.2749
  112OSM   H13F11663   1.770   2.411   9.360 -0.9980 -0.6485 -0.4408
  112OSM   H13G11664   1.765   2.566   9.262 -1.0207 -0.4463 -0.8721
  112OSM   C14F11665   1.570   2.510   9.344  0.1679 -0.3270  0.1587
  112OSM   H14F11666   1.522   2.607   9.371  0.3886  0.1183 -0.9915
  112OSM   H14G11667   1.529   2.432   9.411 -0.2494 -0.9987 -0.8471
  112OSM   C15F11668   1.527   2.480   9.199  0.1000 -0.5689  0.2254
  112OSM   H15F11669   1.548   2.567   9.132 -0.6207 -1.8064 -1.6841
  112OSM   H15G11670   1.421   2.453   9.182 -0.0289  1.1400 -2.2237
  112OSM   C16F11671   1.601   2.353   9.142  0.1576  0.4337 -0.2910
  112OSM   H16F11672   1.582   2.274   9.217 -1.0153 -0.0131 -1.0442
  112OSM   H16G11673   1.710   2.368   9.122 -0.0915  0.0839 -2.1350
  112OSM   C17F11674   1.540   2.298   9.015  0.3328 -0.2675 -0.4484
  112OSM   H17F11675   1.573   2.369   8.936  3.4697 -0.0485  0.8750
  112OSM   H17G11676   1.429   2.305   9.010  0.1922 -0.5329  1.5271
  112OSM   C18F11677   1.584   2.162   8.986  0.3156 -0.2915  0.1433
  112OSM   H18F11678   1.695   2.162   8.983  0.4660  2.2424  2.0958
  112OSM   H18G11679   1.550   2.123   8.888  2.2572 -0.3232 -0.5747
  112OSM   H18H11680   1.548   2.094   9.066  1.0058 -0.8183  0.0203
  113OSM      N11681   2.077   1.667  11.167  0.0629 -0.1607 -0.4070
  113OSM    C1511682   2.117   1.556  11.252 -0.3656  0.6288 -0.0887
  113OSM   H15A11683   2.178   1.595  11.332  0.3632  0.6724 -0.6548
  113OSM   H15B11684   2.176   1.482  11.199 -1.5826  0.3508 -1.0892
  113OSM   H15C11685   2.029   1.507  11.290 -0.2509 -0.9893 -1.7609
  113OSM    C1411686   2.005   1.615  11.055 -0.3109  0.5132  0.1726
  113OSM   H14A11687   1.964   1.696  10.997 -1.8855  0.4340  1.1063
  113OSM   H14B11688   1.924   1.558  11.098  0.2849  1.0157  2.0477
  113OSM   H14C11689   2.053   1.547  10.986 -1.1402  1.1810 -1.1055
  113OSM    C1311690   1.998   1.767  11.249  0.2396  0.8505  0.2882
  113OSM   H13A11691   2.040   1.792  11.346 -2.6507 -0.2882  1.9805
  113OSM   H13B11692   1.899   1.729  11.270  0.3373 -0.4010 -1.3751
  113OSM   H13C11693   1.990   1.864  11.203  1.3443  2.0502  2.4429
  113OSM    C1211694   2.211   1.732  11.124 -0.3451  0.8585  0.4448
  113OSM   H12A11695   2.284   1.653  11.113 -1.2579 -0.4243  2.7624
  113OSM   H12B11696   2.255   1.781  11.210  3.2108 -2.3590  0.7038
  113OSM    C1111697   2.201   1.826  10.997  0.3194  0.1680 -0.3273
  113OSM   H11A11698   2.142   1.770  10.922 -0.2783 -1.2978  1.1855
  113OSM   H11B11699   2.305   1.844  10.961 -0.6407 -1.1005 -4.1555
  113OSM      P11700   2.198   2.055  11.100 -0.5763 -0.2175  0.1553
  113OSM    O1311701   2.101   2.153  11.147  0.1693  0.5754 -0.5799
  113OSM    O1411702   2.302   1.992  11.193 -0.0965  0.3972 -0.0331
  113OSM    O1111703   2.286   2.105  10.981 -1.1939  0.1009  0.2326
  113OSM    O1211704   2.125   1.942  11.024  0.2013 -0.1782  0.1014
  113OSM    C1S11705   2.248   2.130  10.848 -0.0668 -0.4659 -0.3905
  113OSM    H1S11706   2.192   2.226  10.845 -2.8281 -1.9652  0.0523
  113OSM    H1T11707   2.187   2.046  10.810 -0.1353 -1.4149  1.7270
  113OSM     NF11708   2.304   2.158  10.610 -0.2696 -0.0036  0.5617
  113OSM    HNF11709   2.285   2.075  10.557 -2.8944 -0.6802  2.3263
  113OSM    C2S11710   2.365   2.139  10.742 -0.4450 -0.5306 -0.0451
  113OSM    H2S11711   2.435   2.223  10.764 -0.2815 -0.0061 -2.3403
  113OSM    C3S11712   2.449   2.011  10.747  0.1526  0.1257 -0.0455
  113OSM    H3S11713   2.392   1.919  10.721 -0.2663  0.0802  1.0015
  113OSM     O311714   2.506   1.988  10.875 -0.1575  0.2883 -0.3254
  113OSM    HO311715   2.443   2.032  10.932 -0.8462 -0.1417 -0.7333
  113OSM    C4S11716   2.554   2.011  10.642 -0.6848 -0.4775 -0.4776
  113OSM    H4S11717   2.619   2.100  10.643 -0.6831 -0.4525  1.3803
  113OSM    C5S11718   2.569   1.918  10.541  0.3498  0.0717 -0.8591
  113OSM    H5S11719   2.502   1.831  10.533 -0.0573  0.0289  1.9871
  113OSM    C6S11720   2.674   1.926  10.437  1.0682  0.0410  0.7802
  113OSM    H6S11721   2.746   1.843  10.454  2.0734  0.6424 -0.3727
  113OSM    H6T11722   2.729   2.022  10.437 -0.2641  0.9184 -1.7724
  113OSM    C7S11723   2.605   1.920  10.302 -0.0876  0.5159  0.4602
  113OSM    H7S11724   2.526   1.995  10.278 -0.4087 -0.3614 -1.3373
  113OSM    H7T11725   2.565   1.817  10.289 -0.1037  0.5059  0.5830
  113OSM    C8S11726   2.706   1.929  10.177 -0.0556 -0.2571 -0.5172
  113OSM    H8S11727   2.775   1.842  10.181  0.7487  0.2384 -2.5187
  113OSM    H8T11728   2.752   2.030  10.179 -0.9019  0.1548 -1.1712
  113OSM    C9S11729   2.638   1.902  10.042  0.8127  0.0045 -0.0171
  113OSM    H9S11730   2.578   1.993  10.021  0.6462  0.4018  1.9773
  113OSM    H9T11731   2.578   1.810  10.054  3.3784 -1.7800 -0.0663
  113OSM   C10S11732   2.735   1.877   9.928  0.2644  0.2756  0.7052
  113OSM   H10S11733   2.786   1.779   9.939 -1.4646 -0.9051 -1.1970
  113OSM   H10T11734   2.803   1.963   9.907  1.2548 -0.9978 -1.7293
  113OSM   C11S11735   2.661   1.854   9.792  0.0651 -0.3464 -0.2534
  113OSM   H11S11736   2.591   1.939   9.776  1.7586  0.9508 -1.1388
  113OSM   H11T11737   2.604   1.759   9.795  1.3217 -1.3459 -3.5243
  113OSM   C12S11738   2.755   1.859   9.671 -0.4234  0.1293 -0.1695
  113OSM   H12S11739   2.838   1.786   9.684 -0.4583  0.3503  1.4899
  113OSM   H12T11740   2.802   1.959   9.678 -0.7509  0.4162 -1.8327
  113OSM   C13S11741   2.689   1.865   9.530  0.4649  0.4571 -0.7909
  113OSM   H13S11742   2.606   1.939   9.529  1.3333  1.4756 -0.2804
  113OSM   H13T11743   2.642   1.768   9.508 -1.1352  1.3899 -1.6260
  113OSM   C14S11744   2.784   1.921   9.418 -0.0697 -0.0922 -0.8059
  113OSM   H14S11745   2.883   1.872   9.412  0.7734  1.4232  0.0313
  113OSM   H14T11746   2.804   2.030   9.428 -1.4580  0.4337 -3.1194
  113OSM   C15S11747   2.727   1.911   9.280  0.1266  0.1757  0.1701
  113OSM   H15S11748   2.648   1.988   9.270 -1.7978 -1.6515  0.3431
  113OSM   H15T11749   2.683   1.809   9.272 -1.8062  0.7027  2.7386
  113OSM   C16S11750   2.825   1.945   9.163 -0.0792 -0.1518 -0.1324
  113OSM   H16S11751   2.913   1.878   9.161  0.9801  1.1711  0.3338
  113OSM   H16T11752   2.848   2.050   9.193 -1.5239  0.1184  0.0960
  113OSM   C17S11753   2.741   1.938   9.030  0.4976  0.1907  0.1363
  113OSM   H17S11754   2.643   1.988   9.043 -0.1106 -1.1123  0.7249
  113OSM   H17T11755   2.729   1.829   9.014  1.0746 -0.0227  1.0387
  113OSM   C18S11756   2.823   1.995   8.918 -0.1429  0.0200  0.1549
  113OSM   H18S11757   2.769   1.984   8.822  1.9624  2.3901 -1.4191
  113OSM   H18T11758   2.921   1.944   8.909  1.2477  2.2334  1.6126
  113OSM   H18U11759   2.860   2.099   8.928  0.0804 -0.2008  1.9664
  113OSM    C1F11760   2.249   2.278  10.568  0.4436 -0.0127  0.1219
  113OSM     OF11761   2.246   2.376  10.641 -0.2595  0.1939  0.7431
  113OSM    C2F11762   2.189   2.276  10.429  0.0932 -0.8972 -0.5671
  113OSM    H2F11763   2.205   2.382  10.400 -0.4750  0.7863  4.3248
  113OSM    H2G11764   2.080   2.258  10.440  0.1330 -0.3642  0.8110
  113OSM    C3F11765   2.245   2.167  10.335  0.6614  0.3521 -0.1145
  113OSM    H3F11766   2.216   2.064  10.365  0.5923  0.0657 -1.1210
  113OSM    H3G11767   2.355   2.153  10.343  0.3718 -1.9805  0.4752
  113OSM    C4F11768   2.200   2.189  10.190  0.1209  0.5544  0.8630
  113OSM    H4F11769   2.259   2.276  10.155  2.2437 -0.7853  0.9823
  113OSM    H4G11770   2.090   2.208  10.189 -0.2323 -1.1323 -1.2983
  113OSM    C5F11771   2.220   2.064  10.099 -0.2017  0.2263  0.1514
  113OSM    H5F11772   2.142   1.990  10.127 -0.1775 -0.4877 -1.5576
  113OSM    H5G11773   2.322   2.024  10.120 -0.9068 -2.4329 -1.1843
  113OSM    C6F11774   2.188   2.101   9.955 -1.0095 -0.6131  0.1122
  113OSM    H6F11775   2.084   2.138   9.949 -0.1843  2.0811  0.7336
  113OSM    H6G11776   2.204   2.030   9.871  0.5164  0.0481 -0.1974
  113OSM    C7F11777   2.277   2.227   9.909  0.0307 -0.1604 -0.0164
  113OSM    H7F11778   2.380   2.220   9.950  0.2521 -0.7570 -0.6420
  113OSM    H7G11779   2.228   2.318   9.950  0.7968 -0.2602  1.1630
  113OSM    C8F11780   2.278   2.239   9.753 -0.3417 -0.4610  0.1390
  113OSM    H8F11781   2.314   2.341   9.731 -2.4244  0.1932 -0.4810
  113OSM    H8G11782   2.172   2.238   9.718 -0.5667 -0.2405  0.7983
  113OSM    C9F11783   2.365   2.138   9.687 -0.7641 -0.3069  0.5876
  113OSM    H9F11784   2.468   2.138   9.728 -0.3201  1.8007 -0.4068
  113OSM   C10F11785   2.342   2.066   9.574 -0.4436 -0.2684 -0.2840
  113OSM   H10F11786   2.426   2.004   9.541  1.4330  2.0886 -0.2782
  113OSM   C11F11787   2.213   2.050   9.495 -0.4844  0.0463 -0.1546
  113OSM   H11F11788   2.138   2.105   9.555  0.6736  1.3350  0.1650
  113OSM   H11G11789   2.176   1.947   9.476 -1.1624  0.5689 -1.8604
  113OSM   C12F11790   2.206   2.110   9.355 -0.2945  0.2198  0.1585
  113OSM   H12F11791   2.234   2.217   9.354 -1.6813  0.6008  0.3831
  113OSM   H12G11792   2.103   2.111   9.312 -0.4610 -0.9164  0.5022
  113OSM   C13F11793   2.305   2.041   9.251 -0.1888 -0.7687  0.1872
  113OSM   H13F11794   2.285   1.931   9.253  0.9903 -0.9939  0.4551
  113OSM   H13G11795   2.406   2.059   9.294 -0.2680  0.1105  0.0197
  113OSM   C14F11796   2.301   2.082   9.108 -0.3204  0.7609  0.3942
  113OSM   H14F11797   2.364   2.010   9.052  0.4221  1.3156  0.4889
  113OSM   H14G11798   2.325   2.188   9.082  0.9624  0.3602 -0.1177
  113OSM   C15F11799   2.159   2.059   9.058  0.1089 -0.3728 -0.8001
  113OSM   H15F11800   2.088   2.133   9.100 -0.3400 -0.9536 -0.5180
  113OSM   H15G11801   2.120   1.962   9.095  1.5481  0.0368  2.0994
  113OSM   C16F11802   2.162   2.080   8.905 -0.2032 -0.2813  0.2536
  113OSM   H16F11803   2.234   2.016   8.850 -0.4433  0.6703 -1.2380
  113OSM   H16G11804   2.189   2.187   8.889 -0.5334 -0.3896 -1.0933
  113OSM   C17F11805   2.019   2.056   8.839 -0.3614  0.2421 -0.9211
  113OSM   H17F11806   1.949   2.127   8.888 -2.4841 -2.3862  0.0973
  113OSM   H17G11807   1.977   1.957   8.866 -0.8479  0.6665 -0.1008
  113OSM   C18F11808   2.023   2.062   8.684 -0.4540 -0.0356 -0.3371
  113OSM   H18F11809   2.116   2.007   8.660 -0.1196 -0.3070  1.4530
  113OSM   H18G11810   2.049   2.166   8.656 -0.1646  0.3845  1.3764
  113OSM   H18H11811   1.933   2.018   8.637  0.5640 -2.2349 -0.3622
  114OSM      N11812   4.199   2.052  11.371 -0.3739  0.5946 -0.0752
  114OSM    C1511813   4.054   2.004  11.370 -0.8683  0.3100 -0.2348
  114OSM   H15A11814   4.005   2.033  11.278  0.6700  1.1512 -0.8187
  114OSM   H15B11815   4.017   2.059  11.455  2.0061  1.0609  0.6464
  114OSM   H15C11816   4.054   1.898  11.389  0.9542  0.1224 -1.0917
  114OSM    C1411817   4.255   1.996  11.502  0.3429 -0.0401 -1.0132
  114OSM   H14A11818   4.239   2.068  11.581  0.7738  0.7081 -1.5895
  114OSM   H14B11819   4.362   1.986  11.502  0.4565  0.9671  0.1329
  114OSM   H14C11820   4.220   1.902  11.540  1.8464 -1.0414 -1.9988
  114OSM    C1311821   4.277   1.982  11.260 -0.7436  0.5014  0.2227
  114OSM   H13A11822   4.275   1.875  11.272  2.2390  0.5412  1.9695
  114OSM   H13B11823   4.380   2.012  11.248 -0.4293 -0.1042  1.3064
  114OSM   H13C11824   4.237   2.005  11.162  0.5317  0.2680 -0.3682
  114OSM    C1211825   4.210   2.205  11.370  0.2448  0.5460  0.4457
  114OSM   H12A11826   4.162   2.257  11.288 -1.9391  0.3542  1.5527
  114OSM   H12B11827   4.315   2.230  11.370  0.3903  0.0447 -1.0987
  114OSM    C1111828   4.152   2.287  11.481  0.0927 -0.4664  0.0645
  114OSM   H11A11829   4.166   2.394  11.454 -0.2557  0.1094  2.0261
  114OSM   H11B11830   4.206   2.277  11.578 -3.3537  2.2262  2.5010
  114OSM      P11831   3.899   2.323  11.419 -0.4569  0.1286 -0.1932
  114OSM    O1311832   3.789   2.224  11.403  0.5939  0.0312  0.5713
  114OSM    O1411833   3.876   2.456  11.475  0.2425  0.1624 -0.1164
  114OSM    O1111834   3.976   2.343  11.283  0.5553 -0.0529 -0.2161
  114OSM    O1211835   4.010   2.255  11.504 -0.1447 -0.4012 -0.2946
  114OSM    C1S11836   3.900   2.408  11.185 -0.5291 -0.1795 -0.2502
  114OSM    H1S11837   3.878   2.512  11.216  0.2770 -0.0248 -0.1784
  114OSM    H1T11838   3.800   2.362  11.166 -0.2547  0.3563 -3.6068
  114OSM     NF11839   3.906   2.492  10.947 -0.3985 -0.0171  0.3723
  114OSM    HNF11840   3.870   2.458  10.860 -0.7555  1.0977  0.0784
  114OSM    C2S11841   3.972   2.399  11.046  0.3784  0.0238 -0.6375
  114OSM    H2S11842   4.076   2.435  11.060 -0.9116  3.3666  1.5741
  114OSM    C3S11843   3.976   2.252  10.997 -0.2696  0.1307  0.9942
  114OSM    H3S11844   3.873   2.211  11.008  1.1994 -3.7505  1.8193
  114OSM     O311845   4.050   2.157  11.082  1.0899  0.6626  0.3907
  114OSM    HO311846   4.043   2.202  11.166 -1.6100  1.4683 -0.1651
  114OSM    C4S11847   4.031   2.239  10.864  0.1044  0.2157  0.5746
  114OSM    H4S11848   4.137   2.211  10.865 -0.0483 -0.3543  1.0188
  114OSM    C5S11849   3.970   2.246  10.738 -0.2525 -0.6222 -0.0079
  114OSM    H5S11850   3.868   2.285  10.732  0.5172  1.3765 -0.9592
  114OSM    C6S11851   4.036   2.214  10.602 -0.1339 -0.1271 -0.0629
  114OSM    H6S11852   4.014   2.303  10.539 -2.2959 -1.5267 -1.4305
  114OSM    H6T11853   3.965   2.137  10.563 -2.1124  0.6777  1.7001
  114OSM    C7S11854   4.181   2.166  10.595  0.0223 -0.6317 -1.1732
  114OSM    H7S11855   4.192   2.067  10.646 -2.2041 -0.9543 -1.2197
  114OSM    H7T11856   4.246   2.237  10.650 -2.0097  0.1787  0.3206
  114OSM    C8S11857   4.224   2.143  10.452 -0.3267  0.1461  0.4611
  114OSM    H8S11858   4.195   2.231  10.392  0.0289 -0.7495 -1.0759
  114OSM    H8T11859   4.171   2.053  10.413  0.1132  0.7143 -1.5601
  114OSM    C9S11860   4.377   2.142  10.424  0.3757  0.2990 -0.8530
  114OSM    H9S11861   4.427   2.059  10.479  0.3333 -0.3156 -1.7221
  114OSM    H9T11862   4.427   2.236  10.458  0.2369  0.9903 -2.4890
  114OSM   C10S11863   4.406   2.105  10.277 -0.1323  0.6008  0.1087
  114OSM   H10S11864   4.516   2.102  10.259 -0.3988 -0.4139 -1.5861
  114OSM   H10T11865   4.360   2.189  10.222 -0.3170  0.0092 -0.6590
  114OSM   C11S11866   4.365   1.966  10.219  0.6580 -0.1366  0.0067
  114OSM   H11S11867   4.254   1.956  10.219  0.7222 -1.1387  1.6829
  114OSM   H11T11868   4.393   1.890  10.294 -1.3503 -1.5611 -0.6195
  114OSM   C12S11869   4.424   1.943  10.080 -0.4930  0.1539  0.3044
  114OSM   H12S11870   4.398   1.839  10.049  1.5399 -1.1280  2.5068
  114OSM   H12T11871   4.533   1.936  10.101 -0.5863 -0.1303  0.7197
  114OSM   C13S11872   4.392   2.052   9.975  0.2708 -0.1882  0.0317
  114OSM   H13S11873   4.450   2.144   9.998  1.0547 -0.6825  0.0857
  114OSM   H13T11874   4.290   2.088   9.997  1.0098  0.2167  3.4765
  114OSM   C14S11875   4.404   2.009   9.827  0.7232  0.4400 -0.4955
  114OSM   H14S11876   4.321   1.936   9.815  0.5066  0.8023 -1.2465
  114OSM   H14T11877   4.495   1.950   9.805  0.1457 -0.6146 -0.1436
  114OSM   C15S11878   4.390   2.131   9.729  0.4120  0.1849  1.0119
  114OSM   H15S11879   4.480   2.195   9.740  0.9238  0.1061 -1.8201
  114OSM   H15T11880   4.298   2.188   9.754 -0.1395 -0.8560  1.4249
  114OSM   C16S11881   4.395   2.086   9.580  0.2837  0.1895  0.8138
  114OSM   H16S11882   4.483   2.021   9.562  0.1355  0.0194  0.7014
  114OSM   H16T11883   4.400   2.177   9.516  1.1030  0.5192  1.3312
  114OSM   C17S11884   4.259   2.015   9.539  0.0242  0.5187  0.2151
  114OSM   H17S11885   4.181   2.072   9.594 -0.5378  0.0516 -0.0860
  114OSM   H17T11886   4.243   1.909   9.568  1.0489 -0.4624 -2.4775
  114OSM   C18S11887   4.231   2.021   9.389  0.5546  0.5532  0.3306
  114OSM   H18S11888   4.307   1.952   9.345  1.3919  1.4067  0.4115
  114OSM   H18T11889   4.237   2.125   9.350 -0.9035  1.2783  1.9156
  114OSM   H18U11890   4.132   1.986   9.350  1.1448 -2.7693  1.5041
  114OSM    C1F11891   3.921   2.622  10.949  0.2912 -0.3145 -0.0838
  114OSM     OF11892   3.962   2.688  11.044 -0.2160 -0.4077 -0.0036
  114OSM    C2F11893   3.887   2.702  10.822 -0.8686 -0.5809 -0.0945
  114OSM    H2F11894   3.962   2.784  10.815 -0.8292 -0.6950 -1.3090
  114OSM    H2G11895   3.784   2.741  10.838 -1.9044 -2.5435 -1.5451
  114OSM    C3F11896   3.901   2.628  10.689 -0.0988 -0.0211 -0.1467
  114OSM    H3F11897   3.821   2.551  10.684 -0.1962 -0.2308  2.7062
  114OSM    H3G11898   4.001   2.582  10.677 -0.2512 -0.7645  1.2006
  114OSM    C4F11899   3.866   2.734  10.583  0.0168 -0.5217 -0.3668
  114OSM    H4F11900   3.948   2.808  10.594  1.8012 -2.4453 -0.0202
  114OSM    H4G11901   3.766   2.775  10.608 -0.5257 -2.3073  0.5588
  114OSM    C5F11902   3.847   2.679  10.446 -0.1758  0.4343 -0.2899
  114OSM    H5F11903   3.764   2.606  10.438 -0.2129  0.4959 -0.4619
  114OSM    H5G11904   3.944   2.633  10.419 -0.5801 -0.3755 -0.4028
  114OSM    C6F11905   3.829   2.792  10.342 -0.0910 -0.3049  0.8639
  114OSM    H6F11906   3.764   2.867  10.391  0.3635 -1.1116  2.7675
  114OSM    H6G11907   3.770   2.752  10.256 -0.4086  1.7092  0.0955
  114OSM    C7F11908   3.968   2.843  10.288  0.4437 -0.2832 -0.0480
  114OSM    H7F11909   4.031   2.754  10.268 -0.4269 -1.0002  0.3266
  114OSM    H7G11910   4.004   2.909  10.369  1.1068  1.0027 -1.3631
  114OSM    C8F11911   3.958   2.939  10.168  0.0245 -0.5858  0.3360
  114OSM    H8F11912   4.055   2.993  10.159 -1.6960  2.5139 -1.2094
  114OSM    H8G11913   3.885   3.021  10.183  0.9728  0.3638 -0.0410
  114OSM    C9F11914   3.931   2.869  10.041  0.3413  0.4437  0.4232
  114OSM    H9F11915   3.966   2.765  10.033 -0.1055  0.3869 -0.9487
  114OSM   C10F11916   3.872   2.922   9.935 -0.0290 -0.0615  0.3342
  114OSM   H10F11917   3.845   2.857   9.851  1.4087  1.1531 -1.1422
  114OSM   C11F11918   3.833   3.070   9.922 -0.3023  0.5978  0.0278
  114OSM   H11F11919   3.876   3.139   9.997 -1.0624  1.0274  0.0739
  114OSM   H11G11920   3.723   3.075   9.937  0.1355  2.2658  3.5674
  114OSM   C12F11921   3.863   3.124   9.779 -0.8778  0.6535 -0.0348
  114OSM   H12F11922   3.849   3.060   9.689 -0.9502 -0.9510  1.0837
  114OSM   H12G11923   3.968   3.158   9.781 -0.1244 -1.5526  1.5673
  114OSM   C13F11924   3.776   3.244   9.749 -0.1488  0.3629  0.1711
  114OSM   H13F11925   3.779   3.314   9.835 -2.0887  0.2466  0.3764
  114OSM   H13G11926   3.669   3.216   9.752 -0.0243 -0.0271  1.5550
  114OSM   C14F11927   3.807   3.319   9.618 -0.0573  0.5250  0.5605
  114OSM   H14F11928   3.825   3.241   9.541  3.0840 -0.2135  1.8979
  114OSM   H14G11929   3.901   3.378   9.624  0.4459 -0.0631 -1.1045
  114OSM   C15F11930   3.696   3.420   9.580  0.0052 -0.9245 -0.8035
  114OSM   H15F11931   3.727   3.518   9.623 -0.9742 -1.0627  0.2822
  114OSM   H15G11932   3.603   3.400   9.638  1.3194 -0.1086  1.7415
  114OSM   C16F11933   3.673   3.445   9.426 -0.3097  0.1863  0.1637
  114OSM   H16F11934   3.606   3.533   9.426  0.7348  1.0042 -0.3700
  114OSM   H16G11935   3.613   3.364   9.381 -1.8172  2.3555 -1.9713
  114OSM   C17F11936   3.801   3.463   9.348 -0.0547  0.3068 -0.2955
  114OSM   H17F11937   3.882   3.390   9.366 -0.1128  0.4098  0.4025
  114OSM   H17G11938   3.838   3.565   9.369 -0.4969  0.2618  0.7840
  114OSM   C18F11939   3.774   3.465   9.197  0.2733 -0.4832  0.2177
  114OSM   H18F11940   3.758   3.357   9.177  1.2116 -0.8927  1.5082
  114OSM   H18G11941   3.868   3.493   9.144  1.2348 -1.1269  1.5013
  114OSM   H18H11942   3.686   3.527   9.171 -0.6672 -1.3640  1.2183
  115OSM      N11943   4.900   0.715   6.312  0.0890 -0.3803  0.2350
  115OSM    C1511944   4.785   0.806   6.279  0.4082 -0.2118 -0.5543
  115OSM   H15A11945   4.692   0.759   6.249 -1.2213  2.7748 -0.5015
  115OSM   H15B11946   4.812   0.876   6.202 -2.2112  0.2152 -1.1943
  115OSM   H15C11947   4.774   0.850   6.377  0.7558 -1.9246  0.3096
  115OSM    C1411948   5.009   0.802   6.378  0.2730  0.2172  0.1398
  115OSM   H14A11949   5.044   0.881   6.313  1.2596  1.9963  2.6871
  115OSM   H14B11950   5.093   0.736   6.395 -0.9093 -2.4069 -3.1530
  115OSM   H14C11951   4.982   0.835   6.477 -0.7761 -0.6245  0.1574
  115OSM    C1311952   4.852   0.611   6.409  0.9210 -0.4092  0.5028
  115OSM   H13A11953   4.814   0.651   6.502  2.2438  3.2801 -0.3774
  115OSM   H13B11954   4.940   0.550   6.423  1.8919  0.9202  0.3918
  115OSM   H13C11955   4.765   0.570   6.359  1.9225  0.3299 -1.9740
  115OSM    C1211956   4.950   0.657   6.183  0.0731  0.5499  0.2194
  115OSM   H12A11957   4.999   0.736   6.128  0.3584 -0.0977 -0.4763
  115OSM   H12B11958   4.861   0.625   6.131  0.6636  0.1436 -0.5596
  115OSM    C1111959   5.047   0.536   6.188 -0.3256 -0.4116  0.8083
  115OSM   H11A11960   5.078   0.487   6.093  0.1421 -0.4703  0.9911
  115OSM   H11B11961   4.982   0.463   6.240 -1.4145 -1.1829 -1.4884
  115OSM      P11962   5.248   0.451   6.328  0.1078 -0.1005 -0.4058
  115OSM    O1311963   5.147   0.386   6.416 -0.2984 -0.1752  0.1029
  115OSM    O1411964   5.314   0.367   6.220 -0.1901 -0.0881 -0.0310
  115OSM    O1111965   5.349   0.530   6.416 -0.3535 -0.5008 -1.0629
  115OSM    O1211966   5.165   0.572   6.261  0.3039 -0.0841  0.2157
  115OSM    C1S11967   5.321   0.623   6.525  0.7777 -0.3649  0.4591
  115OSM    H1S11968   5.212   0.630   6.539  0.9159  0.5615  1.1748
  115OSM    H1T11969   5.348   0.729   6.503 -0.8324 -0.1818 -0.7710
  115OSM     NF11970   5.337   0.666   6.766  0.2721 -0.3486 -0.1263
  115OSM    HNF11971   5.400   0.732   6.806  1.9356 -1.5304 -0.7274
  115OSM    C2S11972   5.389   0.577   6.664  0.2711 -0.5265 -0.0511
  115OSM    H2S11973   5.350   0.478   6.694 -0.1905  0.1831  1.8330
  115OSM    C3S11974   5.549   0.577   6.641 -0.7354 -0.4121  0.7422
  115OSM    H3S11975   5.566   0.669   6.582  0.2091 -1.7506 -1.1928
  115OSM     O311976   5.593   0.471   6.556  0.0118  0.5511 -0.0884
  115OSM    HO311977   5.515   0.450   6.504  1.2080 -1.9393 -0.9786
  115OSM    C4S11978   5.629   0.572   6.772 -0.2843 -0.6105 -0.1168
  115OSM    H4S11979   5.636   0.672   6.817 -4.0277 -0.6135  0.7893
  115OSM    C5S11980   5.680   0.462   6.832 -0.1623 -0.1140 -0.7677
  115OSM    H5S11981   5.667   0.360   6.793  0.6397 -0.9027  0.9428
  115OSM    C6S11982   5.757   0.456   6.967 -0.9550  0.4441 -0.2095
  115OSM    H6S11983   5.868   0.463   6.960 -0.6687 -0.8814  1.9721
  115OSM    H6T11984   5.748   0.352   7.004 -0.9031  0.6344  0.3530
  115OSM    C7S11985   5.724   0.554   7.080  0.1249 -0.2992 -0.6857
  115OSM    H7S11986   5.722   0.651   7.027  1.4620 -0.0630 -0.3381
  115OSM    H7T11987   5.799   0.564   7.162  0.4039 -1.4204 -0.7821
  115OSM    C8S11988   5.590   0.518   7.149 -0.5835 -0.2750  1.0139
  115OSM    H8S11989   5.501   0.513   7.083  1.8453  0.1217 -2.5553
  115OSM    H8T11990   5.556   0.597   7.220  1.8451  1.4065  0.4132
  115OSM    C9S11991   5.584   0.382   7.229  0.1507 -0.7399  0.5857
  115OSM    H9S11992   5.679   0.359   7.283  1.2147 -0.1277 -0.9276
  115OSM    H9T11993   5.562   0.306   7.151 -2.2958  0.3654  0.1050
  115OSM   C10S11994   5.454   0.370   7.311  0.0642 -0.3780 -0.4102
  115OSM   H10S11995   5.432   0.262   7.303  0.9889 -0.5411 -0.8754
  115OSM   H10T11996   5.372   0.418   7.253  0.3141 -1.6329 -1.8582
  115OSM   C11S11997   5.483   0.425   7.445 -0.4433 -0.3963 -1.0195
  115OSM   H11S11998   5.526   0.527   7.438 -0.8601  0.0266  1.6158
  115OSM   H11T11999   5.563   0.360   7.488  0.1738  0.0238 -1.5162
  115OSM   C12S12000   5.363   0.449   7.532  0.2840 -0.5338 -0.0514
  115OSM   H12S12001   5.331   0.345   7.556  0.6751 -0.5299  0.5101
  115OSM   H12T12002   5.288   0.503   7.472  1.4157 -0.7910 -1.7859
  115OSM   C13S12003   5.385   0.521   7.662 -0.7035 -0.0665 -0.0143
  115OSM   H13S12004   5.297   0.501   7.726  0.5542 -3.2077  0.9029
  115OSM   H13T12005   5.383   0.631   7.644  2.0376 -0.0985 -0.9719
  115OSM   C14S12006   5.512   0.482   7.747  0.4899  0.5517  0.2783
  115OSM   H14S12007   5.528   0.551   7.833 -1.1487 -1.1228  2.0203
  115OSM   H14T12008   5.601   0.495   7.682 -1.0231 -1.1364 -2.2682
  115OSM   C15S12009   5.495   0.334   7.805  0.3606 -0.0841  0.3025
  115OSM   H15S12010   5.491   0.272   7.713 -1.6792  1.5400 -0.8058
  115OSM   H15T12011   5.391   0.324   7.843 -0.7698  0.0836 -2.4755
  115OSM   C16S12012   5.600   0.290   7.899 -0.8720 -0.1601  0.4182
  115OSM   H16S12013   5.697   0.327   7.860 -0.7139 -1.1914 -0.2114
  115OSM   H16T12014   5.597   0.179   7.899 -2.3038 -0.1464 -0.4127
  115OSM   C17S12015   5.569   0.337   8.042 -0.1812 -0.5526  0.3631
  115OSM   H17S12016   5.463   0.313   8.064 -0.0959 -0.1861  1.2109
  115OSM   H17T12017   5.582   0.446   8.062 -0.4169 -1.0465  3.8678
  115OSM   C18S12018   5.635   0.247   8.146  0.0698 -0.0014 -0.2743
  115OSM   H18S12019   5.568   0.164   8.178  0.4475 -0.1510  0.1330
  115OSM   H18T12020   5.661   0.301   8.239  0.4809 -2.0127  0.8483
  115OSM   H18U12021   5.725   0.193   8.111  0.6041 -0.2490  1.3950
  115OSM    C1F12022   5.211   0.667   6.819  0.1524  0.2744  0.3412
  115OSM     OF12023   5.119   0.613   6.752 -0.8678  0.0220  0.1257
  115OSM    C2F12024   5.185   0.743   6.947  0.0249  0.0431 -0.3935
  115OSM    H2F12025   5.108   0.815   6.912 -0.8122  0.2709  1.7584
  115OSM    H2G12026   5.276   0.800   6.976  2.1947 -2.8594 -1.0395
  115OSM    C3F12027   5.136   0.642   7.054 -0.1047 -0.1158  0.7522
  115OSM    H3F12028   5.223   0.581   7.088  0.0879  0.3561  1.1180
  115OSM    H3G12029   5.071   0.562   7.012 -0.1971 -0.3331  1.3009
  115OSM    C4F12030   5.065   0.708   7.172  0.8717 -0.1406 -0.4287
  115OSM    H4F12031   5.033   0.616   7.224 -0.1686 -0.2411 -1.2433
  115OSM    H4G12032   4.976   0.753   7.124  2.3465  0.7634 -2.5063
  115OSM    C5F12033   5.151   0.806   7.248 -0.2026 -0.1324  0.5927
  115OSM    H5F12034   5.160   0.898   7.187 -2.7820 -0.0931  0.1370
  115OSM    H5G12035   5.252   0.763   7.261  0.2820  0.6563 -0.4411
  115OSM    C6F12036   5.087   0.849   7.376  0.9462 -0.2405 -0.5354
  115OSM    H6F12037   4.979   0.872   7.369  0.8669 -0.7970 -1.3615
  115OSM    H6G12038   5.120   0.946   7.419 -2.5961  0.3816  1.0773
  115OSM    C7F12039   5.094   0.749   7.498  0.4385  0.1515  0.3852
  115OSM    H7F12040   5.198   0.728   7.532  0.9014  0.2275 -0.9389
  115OSM    H7G12041   5.047   0.653   7.466 -1.1937  1.6877 -2.1300
  115OSM    C8F12042   5.019   0.788   7.626 -0.2503 -0.0481  0.4041
  115OSM    H8F12043   4.910   0.806   7.612  0.3905  3.6505 -1.0436
  115OSM    H8G12044   5.044   0.889   7.666  1.5574 -1.4573  3.1564
  115OSM    C9F12045   5.038   0.684   7.734 -0.0142  0.6493 -0.3282
  115OSM    H9F12046   5.076   0.586   7.702  2.4259  1.2188  0.6105
  115OSM   C10F12047   5.032   0.716   7.865  0.3480 -0.1896 -0.6481
  115OSM   H10F12048   5.043   0.639   7.943 -1.7326  0.5816  0.4788
  115OSM   C11F12049   4.991   0.846   7.923 -0.5559 -0.5144 -0.6287
  115OSM   H11F12050   4.881   0.862   7.910 -0.8862 -1.2930  0.9753
  115OSM   H11G12051   5.047   0.936   7.889  2.0712 -1.9995 -0.4789
  115OSM   C12F12052   5.005   0.820   8.073 -0.3776 -0.0602  0.5444
  115OSM   H12F12053   5.109   0.820   8.113 -0.0960  2.8124  0.0224
  115OSM   H12G12054   4.955   0.729   8.112 -1.7448  0.7891  0.8177
  115OSM   C13F12055   4.941   0.943   8.145 -0.6378 -0.2513 -0.5600
  115OSM   H13F12056   4.849   0.984   8.098  1.0540  2.8030 -1.5110
  115OSM   H13G12057   5.013   1.027   8.135 -0.0604 -0.7765 -0.8926
  115OSM   C14F12058   4.920   0.904   8.288  0.3400 -0.6716  0.7580
  115OSM   H14F12059   5.018   0.870   8.328  0.7886 -1.8080 -1.1929
  115OSM   H14G12060   4.848   0.819   8.300  0.2305 -0.6902 -0.0250
  115OSM   C15F12061   4.868   1.018   8.384  0.3487 -0.2876  0.6109
  115OSM   H15F12062   4.773   1.043   8.331  0.4455  1.7755  1.2992
  115OSM   H15G12063   4.936   1.106   8.380 -1.3043  1.0081 -0.0721
  115OSM   C16F12064   4.860   0.979   8.532  0.1909  0.3790 -0.2274
  115OSM   H16F12065   4.951   0.918   8.549  0.1381  0.7690  1.6572
  115OSM   H16G12066   4.771   0.915   8.548  0.8332 -0.4416  0.1953
  115OSM   C17F12067   4.853   1.090   8.636  0.4496  0.1076 -0.2603
  115OSM   H17F12068   4.761   1.081   8.697  0.5243 -2.7019 -0.4244
  115OSM   H17G12069   4.839   1.189   8.588  1.2218 -0.0239 -0.7848
  115OSM   C18F12070   4.982   1.102   8.713 -0.9222 -0.5361 -0.2319
  115OSM   H18F12071   4.977   1.179   8.793 -0.1665  0.1606 -0.8379
  115OSM   H18G12072   5.057   1.143   8.642 -2.0023  0.5882 -0.7616
  115OSM   H18H12073   5.012   1.010   8.769 -0.9663 -0.7111 -0.4926
  116OSM      N12074   5.310   4.248   6.242 -0.1309  0.9745 -0.5124
  116OSM    C1512075   5.173   4.294   6.207 -0.1252  0.2146  0.1378
  116OSM   H15A12076   5.163   4.275   6.102  1.1141 -1.7475  0.3348
  116OSM   H15B12077   5.160   4.399   6.228 -0.3194  0.3648 -0.7131
  116OSM   H15C12078   5.096   4.241   6.262  0.8397 -1.4589 -0.0618
  116OSM    C1412079   5.318   4.093   6.224  0.5135  0.3948 -0.9129
  116OSM   H14A12080   5.305   4.067   6.119  2.9466  0.4334 -1.2998
  116OSM   H14B12081   5.238   4.048   6.281  0.6376  1.3475  0.0416
  116OSM   H14C12082   5.414   4.052   6.251 -0.8233 -1.5306  1.2590
  116OSM    C1312083   5.418   4.303   6.155  0.8397  0.1962 -0.0545
  116OSM   H13A12084   5.400   4.293   6.049  1.0410 -0.3225 -0.0401
  116OSM   H13B12085   5.509   4.251   6.182 -0.0904 -0.4301  2.1178
  116OSM   H13C12086   5.432   4.410   6.169 -0.0740  0.2663  0.3797
  116OSM    C1212087   5.339   4.278   6.387 -0.2766  0.0987 -0.5097
  116OSM   H12A12088   5.251   4.252   6.445 -0.3797 -2.0082 -1.5111
  116OSM   H12B12089   5.344   4.384   6.407  0.0837 -0.5269  3.7189
  116OSM    C1112090   5.458   4.208   6.465  0.1142  0.6710 -0.4288
  116OSM   H11A12091   5.415   4.108   6.487  0.0272  1.0038  0.9498
  116OSM   H11B12092   5.476   4.264   6.559 -0.0363 -2.4174  1.5960
  116OSM      P12093   5.687   4.103   6.428  0.3423  0.3711 -0.1379
  116OSM    O1312094   5.657   3.970   6.369  0.4835  0.2228 -0.1675
  116OSM    O1412095   5.817   4.167   6.390  0.0605 -0.4066 -0.2397
  116OSM    O1112096   5.675   4.100   6.589 -0.3022  0.5520  0.2380
  116OSM    O1212097   5.576   4.197   6.387 -0.0579  0.2316  0.2307
  116OSM    C1S12098   5.758   4.012   6.667 -0.2586  0.2576 -0.4055
  116OSM    H1S12099   5.860   4.053   6.653 -0.3378  0.5891 -0.0041
  116OSM    H1T12100   5.758   3.905   6.635  1.7599  0.3108 -0.6982
  116OSM     NF12101   5.810   3.967   6.905 -0.6490  0.5841 -0.1624
  116OSM    HNF12102   5.802   3.880   6.953  0.0409  1.8661  2.4647
  116OSM    C2S12103   5.708   4.012   6.816  0.7795 -0.3914  0.3994
  116OSM    H2S12104   5.687   4.120   6.833  1.2557 -0.1437 -0.5766
  116OSM    C3S12105   5.575   3.930   6.819  0.4163  0.3158  1.0765
  116OSM    H3S12106   5.598   3.825   6.789  1.5948  0.1657  2.3888
  116OSM     O312107   5.489   3.961   6.711  0.0859  0.2786 -0.5729
  116OSM    HO312108   5.551   3.994   6.645 -0.6416 -1.3771 -2.1601
  116OSM    C4S12109   5.502   3.933   6.948  0.4979 -0.2999  0.2100
  116OSM    H4S12110   5.526   3.839   6.999  1.2639 -0.3635 -0.2465
  116OSM    C5S12111   5.423   4.022   7.011  0.4871 -0.1616  0.1959
  116OSM    H5S12112   5.398   4.120   6.969 -2.8850 -1.5920 -1.5557
  116OSM    C6S12113   5.359   4.001   7.149  0.6683  0.2455 -0.1255
  116OSM    H6S12114   5.260   3.954   7.131  0.0608  0.8910  1.3901
  116OSM    H6T12115   5.338   4.103   7.189  0.7364  0.7066 -1.2195
  116OSM    C7S12116   5.438   3.921   7.252 -0.1626 -0.1699 -0.0302
  116OSM    H7S12117   5.467   3.820   7.215 -1.3183  0.0269 -1.5402
  116OSM    H7T12118   5.371   3.883   7.332  1.1291 -1.6874  0.3936
  116OSM    C8S12119   5.552   4.006   7.303 -1.1331 -0.1079  0.0732
  116OSM    H8S12120   5.502   4.099   7.337 -0.5227 -0.0146  0.7637
  116OSM    H8T12121   5.623   4.035   7.223  0.7545  2.7018  2.5444
  116OSM    C9S12122   5.632   3.934   7.409 -0.3060  0.2455  0.2057
  116OSM    H9S12123   5.567   3.886   7.484 -0.4896  0.9489  0.4938
  116OSM    H9T12124   5.694   4.012   7.457 -0.7150  0.0758  1.0241
  116OSM   C10S12125   5.721   3.816   7.359  0.1154 -0.0157  0.5823
  116OSM   H10S12126   5.791   3.864   7.287  0.2356  0.0457  0.7376
  116OSM   H10T12127   5.653   3.747   7.305  0.9596  0.1322 -0.7111
  116OSM   C11S12128   5.795   3.735   7.472  0.3558  0.1207 -0.6465
  116OSM   H11S12129   5.860   3.655   7.428  1.2442  0.3020  0.2904
  116OSM   H11T12130   5.722   3.687   7.541  1.2527 -0.8956 -0.3624
  116OSM   C12S12131   5.873   3.827   7.568 -0.4361  0.6126  0.1001
  116OSM   H12S12132   5.814   3.919   7.590  1.2932  2.2787 -1.7332
  116OSM   H12T12133   5.963   3.851   7.507 -0.0953 -2.0787 -0.5715
  116OSM   C13S12134   5.917   3.748   7.700  0.2263  0.5990  0.1267
  116OSM   H13S12135   5.975   3.658   7.669 -1.4380 -0.3984 -0.1866
  116OSM   H13T12136   5.826   3.703   7.744 -0.4748 -0.3610 -2.1291
  116OSM   C14S12137   5.997   3.827   7.796 -0.1514  0.0698 -0.0339
  116OSM   H14S12138   5.933   3.902   7.849 -1.5591 -0.1317 -1.3886
  116OSM   H14T12139   6.065   3.881   7.726 -0.8708  0.7587 -0.2209
  116OSM   C15S12140   6.074   3.748   7.897  0.2741  0.2063 -0.2266
  116OSM   H15S12141   6.155   3.816   7.931 -0.6019  2.4961 -2.4165
  116OSM   H15T12142   6.120   3.656   7.856 -0.5906 -0.6195  0.5830
  116OSM   C16S12143   5.973   3.705   8.014  0.3303  0.0343  0.4738
  116OSM   H16S12144   5.875   3.684   7.968  0.1837  2.5241 -0.4892
  116OSM   H16T12145   5.953   3.796   8.074 -3.9459 -1.8052  2.2864
  116OSM   C17S12146   6.019   3.588   8.106 -0.4762  0.0217  0.7912
  116OSM   H17S12147   6.112   3.620   8.158  0.1812  0.5164 -0.6247
  116OSM   H17T12148   6.056   3.505   8.042 -0.5348 -0.5588  1.4991
  116OSM   C18S12149   5.915   3.548   8.204  0.1763  0.1083  0.2876
  116OSM   H18S12150   5.961   3.501   8.294  0.2895  0.1293  0.2407
  116OSM   H18T12151   5.842   3.484   8.151 -2.0876  1.3595  1.7052
  116OSM   H18U12152   5.860   3.640   8.236  1.0890  0.4998  0.7732
  116OSM    C1F12153   5.919   4.044   6.934  0.7235  0.4282  0.7122
  116OSM     OF12154   5.940   4.147   6.882  0.0851 -0.4497  0.1546
  116OSM    C2F12155   6.003   3.990   7.047  0.0784 -0.3679 -0.5908
  116OSM    H2F12156   6.082   3.943   6.985 -0.6783 -1.8739 -0.4534
  116OSM    H2G12157   5.943   3.915   7.103 -0.6255 -1.6980 -2.9688
  116OSM    C3F12158   6.060   4.106   7.131  0.9287 -0.1585  0.6176
  116OSM    H3F12159   5.978   4.177   7.153  0.7469  0.1124 -0.8382
  116OSM    H3G12160   6.128   4.161   7.062 -0.9997  0.8423 -0.5579
  116OSM    C4F12161   6.116   4.049   7.263 -0.5080  0.4334  0.4072
  116OSM    H4F12162   6.207   3.997   7.227 -2.1075 -1.9768 -0.4256
  116OSM    H4G12163   6.046   3.972   7.301  0.2799  0.1133  1.2457
  116OSM    C5F12164   6.142   4.157   7.369  0.4000  0.5365 -0.3184
  116OSM    H5F12165   6.049   4.204   7.408  0.6856  1.2515 -0.4821
  116OSM    H5G12166   6.188   4.251   7.332 -0.3430  0.7609 -0.6843
  116OSM    C6F12167   6.219   4.100   7.495  0.1083  0.1554  1.0000
  116OSM    H6F12168   6.169   4.004   7.522  1.2411 -0.3626  1.3303
  116OSM    H6G12169   6.214   4.160   7.589  1.0662 -1.3746  2.0775
  116OSM    C7F12170   6.369   4.079   7.470  0.2016 -0.7534 -0.1137
  116OSM    H7F12171   6.413   4.169   7.423  1.2577 -1.3954 -0.3920
  116OSM    H7G12172   6.392   4.007   7.389  0.6030 -1.4992  0.6417
  116OSM    C8F12173   6.447   4.047   7.601 -0.5367  0.2114 -0.3210
  116OSM    H8F12174   6.420   3.944   7.633 -0.5488  0.8844  1.9999
  116OSM    H8G12175   6.399   4.111   7.677 -0.0805 -1.0749  1.0952
  116OSM    C9F12176   6.595   4.065   7.600 -0.1439 -0.9514 -0.2467
  116OSM    H9F12177   6.644   3.986   7.540 -0.0598 -1.2047  0.1503
  116OSM   C10F12178   6.672   4.163   7.658 -0.2039  0.4530 -0.8276
  116OSM   H10F12179   6.781   4.163   7.643 -0.2234 -0.6316 -1.0245
  116OSM   C11F12180   6.615   4.279   7.731 -0.7667  0.0050  0.0191
  116OSM   H11F12181   6.504   4.271   7.723 -0.6937 -2.5046  0.7262
  116OSM   H11G12182   6.652   4.374   7.688  1.3015 -1.4648 -1.7243
  116OSM   C12F12183   6.638   4.275   7.880  0.2824  0.4640  0.0245
  116OSM   H12F12184   6.612   4.172   7.911  1.7561 -0.4478 -1.5935
  116OSM   H12G12185   6.577   4.351   7.933 -0.1761  0.7074 -0.8356
  116OSM   C13F12186   6.782   4.293   7.926 -0.1867 -0.4189 -0.5790
  116OSM   H13F12187   6.820   4.387   7.882 -0.6798 -0.6894 -1.6222
  116OSM   H13G12188   6.841   4.207   7.887 -2.2094 -1.3498 -1.7800
  116OSM   C14F12189   6.808   4.313   8.078  0.0967 -0.0270  0.2248
  116OSM   H14F12190   6.792   4.216   8.128 -1.2760 -0.1775 -0.4731
  116OSM   H14G12191   6.741   4.391   8.121 -0.3015  0.3345 -1.0161
  116OSM   C15F12192   6.952   4.354   8.103 -0.1980 -0.1577  0.5872
  116OSM   H15F12193   6.966   4.456   8.060 -1.0405 -0.8005 -1.3070
  116OSM   H15G12194   7.020   4.286   8.047 -2.3687 -1.0770 -1.0361
  116OSM   C16F12195   7.008   4.378   8.237  0.5918 -0.4384 -0.4291
  116OSM   H16F12196   6.950   4.455   8.293  3.1310  0.7664  0.6794
  116OSM   H16G12197   7.110   4.422   8.237  0.3154  0.2764  1.0790
  116OSM   C17F12198   7.022   4.247   8.323  0.1203  0.5648 -0.1132
  116OSM   H17F12199   7.085   4.180   8.262 -0.9001 -1.8802  1.3673
  116OSM   H17G12200   6.926   4.192   8.336 -0.0314  0.3632 -1.8284
  116OSM   C18F12201   7.105   4.253   8.454  0.8570  0.2492  0.1759
  116OSM   H18F12202   7.127   4.153   8.498 -2.0982 -1.5962 -2.1527
  116OSM   H18G12203   7.040   4.306   8.527  1.4618  1.3757 -0.0848
  116OSM   H18H12204   7.205   4.299   8.441  1.5823 -1.1331  0.6895
  117OSM      N12205   4.538   5.814   6.692  0.2053  0.3403 -0.4596
  117OSM    C1512206   4.574   5.692   6.622  1.1421  0.1249  0.3357
  117OSM   H15A12207   4.549   5.605   6.680  0.2059 -0.6897 -1.2179
  117OSM   H15B12208   4.679   5.683   6.599  1.1940 -2.5091  1.2542
  117OSM   H15C12209   4.525   5.682   6.526  0.0912 -0.9639  0.9581
  117OSM    C1412210   4.585   5.815   6.837  0.3786 -0.3509 -0.0821
  117OSM   H14A12211   4.575   5.722   6.891  1.6790  0.5741  1.9045
  117OSM   H14B12212   4.527   5.887   6.892 -0.0371 -1.2394  0.6738
  117OSM   H14C12213   4.687   5.852   6.843 -0.2717  1.2734  1.9156
  117OSM    C1312214   4.584   5.935   6.620  0.0744  0.0530  0.1122
  117OSM   H13A12215   4.691   5.945   6.613  0.1080  0.3558  0.9074
  117OSM   H13B12216   4.554   6.023   6.676 -0.2477 -1.2775  2.1440
  117OSM   H13C12217   4.545   5.935   6.519 -0.5798  0.0104  0.3558
  117OSM    C1212218   4.386   5.818   6.699  0.7968 -0.1763  0.1333
  117OSM   H12A12219   4.356   5.896   6.768  1.3307 -0.0030  0.1688
  117OSM   H12B12220   4.353   5.728   6.748 -2.0051 -0.0260 -1.2640
  117OSM    C1112221   4.296   5.840   6.569  0.2397 -0.1588 -0.3546
  117OSM   H11A12222   4.328   5.934   6.519 -0.5039  0.1784 -0.2088
  117OSM   H11B12223   4.191   5.862   6.598 -0.0018  0.0185 -1.3054
  117OSM      P12224   4.230   5.592   6.491  0.0956 -0.4419 -0.2843
  117OSM    O1312225   4.113   5.603   6.404 -0.3172 -0.0259  0.0575
  117OSM    O1412226   4.327   5.478   6.472  0.2971  0.3356 -0.0699
  117OSM    O1112227   4.185   5.603   6.646  0.1295  0.4864  0.0814
  117OSM    O1212228   4.305   5.732   6.483 -0.8273 -0.2685  0.5229
  117OSM    C1S12229   4.101   5.491   6.693  0.4315 -0.0525 -0.8401
  117OSM    H1S12230   4.152   5.393   6.686  0.5171  0.0688 -2.1107
  117OSM    H1T12231   4.008   5.487   6.632  0.5212 -1.0470 -0.9207
  117OSM     NF12232   4.036   5.399   6.922  0.0492  0.6152  0.2318
  117OSM    HNF12233   3.940   5.385   6.942 -0.4562  1.6096 -1.3357
  117OSM    C2S12234   4.068   5.515   6.843 -0.1144 -1.4033 -0.0839
  117OSM    H2S12235   4.157   5.564   6.887 -1.9198  2.0506  0.0980
  117OSM    C3S12236   3.956   5.628   6.857  0.9425 -0.5623  0.0555
  117OSM    H3S12237   3.858   5.591   6.822 -0.6642  4.4201 -1.4808
  117OSM     O312238   3.988   5.745   6.784 -0.3580  0.0045  0.3229
  117OSM    HO312239   4.055   5.717   6.721 -1.4056  0.4952 -1.0533
  117OSM    C4S12240   3.944   5.668   7.004 -0.6936 -0.0349  0.1987
  117OSM    H4S12241   4.042   5.703   7.040 -2.5982  4.6259  1.5376
  117OSM    C5S12242   3.835   5.674   7.079  0.7042  0.2623  0.2228
  117OSM    H5S12243   3.735   5.650   7.041 -0.1384  1.3618  1.6230
  117OSM    C6S12244   3.842   5.717   7.224 -0.1150  0.1666  0.2624
  117OSM    H6S12245   3.797   5.817   7.241  0.0704  0.1039  1.1672
  117OSM    H6T12246   3.946   5.735   7.259 -0.4242  1.3194  0.6485
  117OSM    C7S12247   3.783   5.613   7.320 -0.1759 -0.4974  0.6792
  117OSM    H7S12248   3.835   5.515   7.318 -0.0473 -0.4503 -2.0011
  117OSM    H7T12249   3.685   5.584   7.276 -0.9863 -0.5515  2.4692
  117OSM    C8S12250   3.778   5.665   7.465 -0.4915  0.2409  0.3062
  117OSM    H8S12251   3.714   5.756   7.457 -1.7780 -0.5757  1.0893
  117OSM    H8T12252   3.882   5.693   7.492 -0.7644  3.0424 -1.1381
  117OSM    C9S12253   3.707   5.575   7.564  0.2311 -0.5664  0.2215
  117OSM    H9S12254   3.754   5.474   7.557  3.2390  0.6686  0.9347
  117OSM    H9T12255   3.600   5.570   7.536  0.7517 -0.9069 -1.9564
  117OSM   C10S12256   3.725   5.623   7.709  0.0051  0.1244  0.4992
  117OSM   H10S12257   3.661   5.551   7.765 -0.1394  1.1905  1.7462
  117OSM   H10T12258   3.678   5.722   7.728 -1.4789 -0.5931  0.7528
  117OSM   C11S12259   3.872   5.621   7.765  0.3213 -0.0035 -0.1046
  117OSM   H11S12260   3.942   5.679   7.701  0.7513 -0.5435 -0.1326
  117OSM   H11T12261   3.897   5.512   7.770  1.9077  0.3542  0.4517
  117OSM   C12S12262   3.877   5.672   7.907 -0.1377 -0.0428  1.0098
  117OSM   H12S12263   3.802   5.752   7.921  0.0306  0.2018  0.5633
  117OSM   H12T12264   3.979   5.716   7.916  1.3049 -2.0601 -2.9157
  117OSM   C13S12265   3.848   5.561   8.007 -0.6409 -0.1660  0.3288
  117OSM   H13S12266   3.934   5.493   7.991 -0.8208 -0.2713 -0.2152
  117OSM   H13T12267   3.751   5.513   7.979 -0.7656 -0.8763  1.8989
  117OSM   C14S12268   3.852   5.607   8.149  1.0231  0.3282 -0.2206
  117OSM   H14S12269   3.767   5.675   8.171  2.5923  2.2314  0.2443
  117OSM   H14T12270   3.940   5.673   8.162  0.4773  0.5777  3.0743
  117OSM   C15S12271   3.837   5.485   8.245 -0.3186  0.2958 -0.2873
  117OSM   H15S12272   3.936   5.435   8.253 -1.2996 -1.5659  0.9522
  117OSM   H15T12273   3.778   5.403   8.199  0.0423 -0.0727 -0.0934
  117OSM   C16S12274   3.792   5.511   8.386  0.6575  0.5054  0.3463
  117OSM   H16S12275   3.696   5.567   8.391  1.2331  1.7533 -1.6416
  117OSM   H16T12276   3.861   5.582   8.436 -2.4276  3.8702  0.2622
  117OSM   C17S12277   3.786   5.377   8.458  0.0601  0.6664 -0.2129
  117OSM   H17S12278   3.876   5.317   8.431  0.2453  1.4478 -1.3995
  117OSM   H17T12279   3.694   5.327   8.422 -0.1173  0.8676 -0.0442
  117OSM   C18S12280   3.766   5.401   8.608 -0.7907 -0.3428  0.5252
  117OSM   H18S12281   3.829   5.489   8.629 -0.8109 -0.2723  0.2847
  117OSM   H18T12282   3.797   5.307   8.661  1.7023 -0.2906 -0.7022
  117OSM   H18U12283   3.658   5.422   8.628 -0.4695 -0.1937  2.3409
  117OSM    C1F12284   4.120   5.308   6.957 -0.8515  0.1810  0.2910
  117OSM     OF12285   4.243   5.313   6.929  0.6058  0.1215  0.5705
  117OSM    C2F12286   4.066   5.190   7.034  0.1507 -0.4046 -0.6912
  117OSM    H2F12287   4.012   5.134   6.954 -3.5714  1.6142  0.1499
  117OSM    H2G12288   3.985   5.226   7.102  0.8490  1.4506 -0.7738
  117OSM    C3F12289   4.167   5.093   7.093 -0.3627 -0.3687 -0.2405
  117OSM    H3F12290   4.234   5.043   7.021 -0.3223  1.5624 -1.6173
  117OSM    H3G12291   4.104   5.013   7.139  0.1772 -1.5225 -1.4507
  117OSM    C4F12292   4.256   5.169   7.205 -0.4084 -0.4726  0.1542
  117OSM    H4F12293   4.199   5.246   7.261 -0.8226 -1.5646  1.2738
  117OSM    H4G12294   4.340   5.211   7.146  0.5293 -1.9415  0.4040
  117OSM    C5F12295   4.316   5.064   7.300  0.9439 -0.1186  0.6281
  117OSM    H5F12296   4.411   5.104   7.343  1.0888 -1.9179  2.1335
  117OSM    H5G12297   4.348   4.972   7.246  1.4601 -1.0684  2.4705
  117OSM    C6F12298   4.232   5.026   7.422  0.4772  0.1898 -0.0928
  117OSM    H6F12299   4.127   5.008   7.391  0.3072 -0.0622  0.6080
  117OSM    H6G12300   4.227   5.116   7.487  1.3583  1.1492 -1.3080
  117OSM    C7F12301   4.298   4.910   7.495 -0.2603 -0.2734  0.3677
  117OSM    H7F12302   4.408   4.926   7.491  0.1434 -2.2457  1.9573
  117OSM    H7G12303   4.261   4.832   7.425 -0.2486 -0.5061  0.6231
  117OSM    C8F12304   4.255   4.894   7.638 -0.1850 -1.0132 -1.1809
  117OSM    H8F12305   4.145   4.885   7.640 -0.1448 -2.5555 -3.3699
  117OSM    H8G12306   4.294   4.983   7.693  0.1632 -0.6501 -2.0020
  117OSM    C9F12307   4.317   4.758   7.676  1.0832  0.7180  0.1631
  117OSM    H9F12308   4.284   4.678   7.608 -0.4690  2.3072 -1.0488
  117OSM   C10F12309   4.407   4.736   7.778  0.1922  0.6137  0.2593
  117OSM   H10F12310   4.432   4.631   7.798 -1.4984 -0.0531 -0.8375
  117OSM   C11F12311   4.463   4.838   7.868  0.3371 -0.3920  0.8018
  117OSM   H11F12312   4.398   4.929   7.870  2.2341  1.1457 -1.8450
  117OSM   H11G12313   4.563   4.874   7.837 -1.3663  2.0146 -2.5928
  117OSM   C12F12314   4.467   4.779   8.011  0.2742 -0.3173 -0.0166
  117OSM   H12F12315   4.543   4.840   8.065 -0.8647  1.4401 -0.3317
  117OSM   H12G12316   4.503   4.674   8.019 -4.1003 -2.0009  0.7565
  117OSM   C13F12317   4.318   4.789   8.070 -0.2628  0.9396 -0.3661
  117OSM   H13F12318   4.243   4.725   8.020 -1.8248  2.2700  0.2020
  117OSM   H13G12319   4.273   4.890   8.061 -1.2187  0.5312 -0.2549
  117OSM   C14F12320   4.315   4.740   8.221  1.1140  0.1204 -0.0935
  117OSM   H14F12321   4.378   4.811   8.280  1.4096  0.7956 -1.2078
  117OSM   H14G12322   4.357   4.638   8.220 -3.9634 -2.3964  2.7115
  117OSM   C15F12323   4.173   4.761   8.276 -0.2888 -0.4466  0.4404
  117OSM   H15F12324   4.107   4.696   8.214  1.4691 -2.0373  0.1771
  117OSM   H15G12325   4.149   4.870   8.274 -0.9196 -0.5859 -0.5536
  117OSM   C16F12326   4.159   4.714   8.420  0.1716  0.7288 -0.3727
  117OSM   H16F12327   4.052   4.722   8.450  0.8033  0.5697  2.1229
  117OSM   H16G12328   4.222   4.779   8.485 -1.9799  1.7782  0.8014
  117OSM   C17F12329   4.199   4.564   8.429  0.5523 -0.0221  0.5342
  117OSM   H17F12330   4.132   4.510   8.359  0.5055  2.7492 -1.7248
  117OSM   H17G12331   4.307   4.554   8.405  0.1984 -0.6557 -0.8908
  117OSM   C18F12332   4.177   4.503   8.568  0.0921 -0.0296  0.9461
  117OSM   H18F12333   4.267   4.511   8.633  1.4095 -1.8331 -0.5209
  117OSM   H18G12334   4.159   4.393   8.568  2.0901 -0.4006  1.7536
  117OSM   H18H12335   4.090   4.550   8.618  1.7416  0.2480  3.7048
  118OSM      N12336   2.105   5.649   5.961 -0.1179 -0.8755  0.3739
  118OSM    C1512337   1.960   5.622   5.967 -0.3920  0.5391 -0.5142
  118OSM   H15A12338   1.898   5.705   5.998 -0.1796  0.8148 -0.8195
  118OSM   H15B12339   1.941   5.542   6.037 -3.5153  1.3222 -0.3363
  118OSM   H15C12340   1.916   5.585   5.875 -0.2988 -0.2272 -0.2604
  118OSM    C1412341   2.174   5.528   5.924 -0.2708 -0.0438 -0.2313
  118OSM   H14A12342   2.176   5.513   5.817 -0.0550  0.0187 -0.2360
  118OSM   H14B12343   2.139   5.441   5.978  0.4261  0.6169  1.3197
  118OSM   H14C12344   2.276   5.547   5.952  0.6753  0.3210 -3.4830
  118OSM    C1312345   2.130   5.762   5.856  0.2138 -0.4418 -0.0013
  118OSM   H13A12346   2.233   5.793   5.848  0.9495 -2.2364  1.7416
  118OSM   H13B12347   2.077   5.845   5.900  0.1201 -0.1021 -0.7422
  118OSM   H13C12348   2.089   5.727   5.762 -1.1867 -1.6338  0.9934
  118OSM    C1212349   2.155   5.701   6.094  0.0614 -0.1081 -0.8573
  118OSM   H12A12350   2.258   5.734   6.086 -0.3295  1.2313 -0.5969
  118OSM   H12B12351   2.149   5.622   6.167  2.2163 -0.3888 -0.9233
  118OSM    C1112352   2.098   5.825   6.166 -0.0597 -0.2291 -0.3300
  118OSM   H11A12353   2.074   5.902   6.090 -1.6085  1.2747  1.5683
  118OSM   H11B12354   2.180   5.853   6.236  1.4170 -3.2520 -0.6787
  118OSM      P12355   1.850   5.868   6.234  0.1850 -0.1439 -0.0151
  118OSM    O1312356   1.871   6.008   6.205 -0.0252 -0.0770 -0.6754
  118OSM    O1412357   1.769   5.797   6.132  0.1522 -0.7744  0.1785
  118OSM    O1112358   1.790   5.862   6.376  0.3101 -0.3370 -0.0779
  118OSM    O1212359   1.991   5.797   6.255  0.3137 -0.6604  0.2727
  118OSM    C1S12360   1.685   5.774   6.415 -0.4439 -0.6419 -0.5642
  118OSM    H1S12361   1.718   5.670   6.397 -1.6183 -1.2362  0.4921
  118OSM    H1T12362   1.593   5.792   6.356 -1.1297  1.2037  0.9611
  118OSM     NF12363   1.567   5.680   6.616  0.9231 -0.1515 -0.6912
  118OSM    HNF12364   1.472   5.693   6.643  0.4364  2.0663 -3.0613
  118OSM    C2S12365   1.650   5.790   6.565  0.5417 -0.2007 -0.9243
  118OSM    H2S12366   1.746   5.785   6.620  0.9759 -2.5373 -1.8168
  118OSM    C3S12367   1.580   5.929   6.582 -0.5164  0.4420 -0.1216
  118OSM    H3S12368   1.485   5.929   6.524 -1.7142  0.5373  1.7644
  118OSM     O312369   1.657   6.041   6.528  0.3793 -0.6864  0.0274
  118OSM    HO312370   1.732   6.003   6.481  0.9041  0.4787 -0.1084
  118OSM    C4S12371   1.537   5.949   6.721 -0.2872 -0.2682 -0.3374
  118OSM    H4S12372   1.432   5.927   6.744 -0.8384  2.0579 -0.4346
  118OSM    C5S12373   1.607   6.011   6.817 -0.0430  0.8632 -0.1905
  118OSM    H5S12374   1.698   6.067   6.788  0.0025  1.7264  1.4985
  118OSM    C6S12375   1.554   6.052   6.955  0.8480  0.5402  0.6054
  118OSM    H6S12376   1.549   6.162   6.969  1.7482  0.8723 -1.3813
  118OSM    H6T12377   1.625   6.014   7.032  2.0500 -0.6233 -1.0268
  118OSM    C7S12378   1.412   6.001   6.996  0.1329 -0.0336  0.2875
  118OSM    H7S12379   1.423   5.890   7.000  1.6766  0.1365  2.9078
  118OSM    H7T12380   1.339   6.036   6.920  2.1753 -0.4465 -2.0036
  118OSM    C8S12381   1.380   6.046   7.132  0.6156  0.1962  0.7453
  118OSM    H8S12382   1.276   6.019   7.159  0.6692  0.1777  0.9291
  118OSM    H8T12383   1.390   6.156   7.142  0.8641  0.5818 -2.5475
  118OSM    C9S12384   1.464   5.991   7.249 -0.6715  0.6329  0.6060
  118OSM    H9S12385   1.570   6.023   7.242 -1.0397  1.8011  0.1572
  118OSM    H9T12386   1.472   5.881   7.234  2.5035  0.6850  1.1922
  118OSM   C10S12387   1.412   6.000   7.391  0.2393 -0.4227  0.0491
  118OSM   H10S12388   1.304   5.979   7.373  0.4595  0.1984 -2.2615
  118OSM   H10T12389   1.418   6.105   7.427 -2.0100 -0.4044  0.5423
  118OSM   C11S12390   1.485   5.901   7.486  0.4126  1.1875 -0.2772
  118OSM   H11S12391   1.577   5.858   7.441 -0.6870 -2.8940  0.8692
  118OSM   H11T12392   1.416   5.817   7.509  1.6220  0.3530  0.4570
  118OSM   C12S12393   1.521   5.964   7.619 -0.2817  0.4071  0.2069
  118OSM   H12S12394   1.586   6.049   7.588  0.9384 -0.5591  0.0244
  118OSM   H12T12395   1.591   5.887   7.659 -0.6550  0.4352  0.9415
  118OSM   C13S12396   1.406   5.994   7.709  0.8521 -0.1001 -0.2905
  118OSM   H13S12397   1.345   5.902   7.705  0.2244  0.3430 -1.7515
  118OSM   H13T12398   1.349   6.081   7.669  0.4120 -1.7377 -3.5336
  118OSM   C14S12399   1.442   6.017   7.858 -0.0781  0.1430 -0.7442
  118OSM   H14S12400   1.490   6.116   7.871 -0.7392  0.3205  0.4862
  118OSM   H14T12401   1.514   5.946   7.904 -0.4246  1.6560  2.4350
  118OSM   C15S12402   1.320   6.004   7.948  0.1428 -0.3573  0.0452
  118OSM   H15S12403   1.320   5.901   7.989  1.8869 -0.8414 -1.0521
  118OSM   H15T12404   1.228   6.030   7.891  0.8973 -1.1009 -1.5928
  118OSM   C16S12405   1.335   6.098   8.072 -0.1219 -0.0927  0.6633
  118OSM   H16S12406   1.325   6.205   8.042 -1.2147  0.7594  3.7435
  118OSM   H16T12407   1.442   6.101   8.099  0.4685  2.8256 -1.4945
  118OSM   C17S12408   1.258   6.065   8.201  0.2514  0.3687 -0.2590
  118OSM   H17S12409   1.266   5.959   8.233  0.5179  0.1748 -0.9491
  118OSM   H17T12410   1.149   6.085   8.189  0.2194  2.3304  2.2774
  118OSM   C18S12411   1.312   6.148   8.312 -0.2650 -0.3789 -0.7564
  118OSM   H18S12412   1.420   6.125   8.317  0.2662  2.0689  0.3978
  118OSM   H18T12413   1.258   6.129   8.408  0.5846  1.5194  0.1467
  118OSM   H18U12414   1.298   6.256   8.291  0.7476 -0.2155 -0.6373
  118OSM    C1F12415   1.622   5.557   6.632  0.1619  0.0580 -0.0128
  118OSM     OF12416   1.726   5.523   6.574  0.1741  0.0080  0.8134
  118OSM    C2F12417   1.537   5.452   6.708  0.0929 -0.5495 -0.1542
  118OSM    H2F12418   1.540   5.367   6.637  1.7983 -0.4288 -0.2701
  118OSM    H2G12419   1.433   5.491   6.715  0.0827 -0.9546  2.7108
  118OSM    C3F12420   1.596   5.412   6.846 -0.4386  0.2248  0.0235
  118OSM    H3F12421   1.701   5.377   6.836 -1.2305 -1.7554 -1.9507
  118OSM    H3G12422   1.532   5.329   6.882  0.6593 -1.3026 -1.4153
  118OSM    C4F12423   1.595   5.530   6.942 -0.9863  0.3452  0.0224
  118OSM    H4F12424   1.492   5.568   6.957 -0.7147  1.2598 -0.3519
  118OSM    H4G12425   1.661   5.611   6.904  2.6140 -1.2848  2.3621
  118OSM    C5F12426   1.638   5.479   7.084  0.0421 -0.1725  0.2697
  118OSM    H5F12427   1.748   5.463   7.080  0.2686  0.9395  1.4702
  118OSM    H5G12428   1.601   5.379   7.117  0.5378 -1.2916 -2.3054
  118OSM    C6F12429   1.606   5.576   7.196  0.3779  0.0935  0.0182
  118OSM    H6F12430   1.498   5.574   7.222  0.4475 -2.3733  0.3248
  118OSM    H6G12431   1.649   5.676   7.175 -0.0054  0.4949  1.0926
  118OSM    C7F12432   1.671   5.550   7.335  0.3672  0.1322 -0.5076
  118OSM    H7F12433   1.648   5.632   7.406  1.3922 -1.4824  1.8202
  118OSM    H7G12434   1.781   5.554   7.324  0.1534  1.0374 -2.6334
  118OSM    C8F12435   1.615   5.429   7.406 -0.0362 -0.2194  0.9197
  118OSM    H8F12436   1.519   5.406   7.354 -0.5610  1.5118  1.0551
  118OSM    H8G12437   1.559   5.466   7.495 -1.2284  0.0720  0.0788
  118OSM    C9F12438   1.690   5.306   7.435  0.2894  0.0794  0.5950
  118OSM    H9F12439   1.710   5.244   7.346  0.8433  0.6816  0.2932
  118OSM   C10F12440   1.747   5.272   7.550  0.0215  0.4241  0.2170
  118OSM   H10F12441   1.806   5.180   7.547  0.6927  0.8554 -2.7740
  118OSM   C11F12442   1.742   5.350   7.677 -0.9648  0.6589  0.0630
  118OSM   H11F12443   1.643   5.342   7.728  0.6656  2.9171  4.0086
  118OSM   H11G12444   1.748   5.460   7.664 -1.5859  0.7773  0.7104
  118OSM   C12F12445   1.846   5.297   7.777  0.5317  0.2572  0.0512
  118OSM   H12F12446   1.949   5.319   7.741 -0.6131  1.3365 -2.8713
  118OSM   H12G12447   1.837   5.188   7.796 -1.8817  0.1591 -1.2294
  118OSM   C13F12448   1.825   5.363   7.918 -0.4683 -0.1444 -0.4690
  118OSM   H13F12449   1.722   5.339   7.953 -0.4661 -0.7127 -0.8343
  118OSM   H13G12450   1.838   5.473   7.911  0.5824 -0.1598  0.8339
  118OSM   C14F12451   1.928   5.313   8.025 -0.0494 -0.8310  0.3820
  118OSM   H14F12452   2.012   5.385   8.013  1.7380 -2.3726  2.8520
  118OSM   H14G12453   1.953   5.206   8.010 -0.5069 -0.8147 -0.6040
  118OSM   C15F12454   1.873   5.315   8.162  0.3944  0.0358 -0.1122
  118OSM   H15F12455   1.773   5.266   8.162  1.1870 -2.0448  3.7970
  118OSM   H15G12456   1.869   5.418   8.205  0.9656  0.0865 -0.1764
  118OSM   C16F12457   1.949   5.224   8.262 -0.1510  0.2599 -0.3196
  118OSM   H16F12458   2.054   5.260   8.262 -0.6842  1.9480 -1.0306
  118OSM   H16G12459   1.945   5.115   8.241  0.5269 -0.0247  0.9377
  118OSM   C17F12460   1.899   5.230   8.405  0.2244  0.4453 -0.5936
  118OSM   H17F12461   1.788   5.219   8.399 -0.0527  1.2680  1.7885
  118OSM   H17G12462   1.910   5.336   8.437 -3.6800  1.0452 -0.7499
  118OSM   C18F12463   1.965   5.122   8.498 -0.2988 -0.3323  0.0867
  118OSM   H18F12464   1.958   5.017   8.464  2.4780 -0.7043  0.3892
  118OSM   H18G12465   1.928   5.138   8.601  1.7790  1.7421  0.6176
  118OSM   H18H12466   2.073   5.144   8.513 -0.2929  0.3147 -0.7918
  119OSM      N12467   2.288   6.801   5.798  0.0664 -0.3350 -0.3105
  119OSM    C1512468   2.232   6.744   5.668 -0.5928 -0.0118  0.1935
  119OSM   H15A12469   2.302   6.684   5.612 -0.5793  1.9472 -2.0497
  119OSM   H15B12470   2.198   6.826   5.606 -0.3334  0.4260  0.6259
  119OSM   H15C12471   2.152   6.674   5.689 -1.2497  0.6328 -0.1213
  119OSM    C1412472   2.436   6.823   5.770  0.3077 -0.8369 -0.3604
  119OSM   H14A12473   2.456   6.896   5.693  2.6669  0.3296  1.2388
  119OSM   H14B12474   2.487   6.730   5.752  0.4060 -1.2324  1.7272
  119OSM   H14C12475   2.474   6.867   5.861 -2.5222  1.1077  0.0217
  119OSM    C1312476   2.230   6.943   5.819  0.3267  0.4503  0.2181
  119OSM   H13A12477   2.275   7.002   5.898 -1.4140  1.1933  0.6887
  119OSM   H13B12478   2.123   6.937   5.825  0.1527  1.9924 -0.8885
  119OSM   H13C12479   2.247   6.995   5.726 -1.8309 -0.1766 -0.5784
  119OSM    C1212480   2.270   6.709   5.917  0.5131  0.3961 -0.3308
  119OSM   H12A12481   2.279   6.607   5.885 -4.8844 -0.0185 -1.4868
  119OSM   H12B12482   2.166   6.723   5.940  0.7441  1.3839  0.1517
  119OSM    C1112483   2.351   6.738   6.047  0.0143  0.4316  0.3325
  119OSM   H11A12484   2.294   6.693   6.132 -1.1126  0.3126 -0.4701
  119OSM   H11B12485   2.340   6.844   6.077  1.2049  0.0926  2.1511
  119OSM      P12486   2.533   6.545   6.026 -0.2217 -0.3584  0.1799
  119OSM    O1312487   2.451   6.472   5.928 -0.1984 -0.2287 -0.4691
  119OSM    O1412488   2.679   6.556   5.995  0.0646 -0.5869 -0.5879
  119OSM    O1112489   2.513   6.488   6.172 -0.5340  0.0779 -0.5950
  119OSM    O1212490   2.487   6.697   6.037 -0.1235 -0.3378  0.2491
  119OSM    C1S12491   2.599   6.536   6.275 -0.1349  0.2900  0.1329
  119OSM    H1S12492   2.596   6.647   6.270 -1.4249  0.2749  0.0901
  119OSM    H1T12493   2.701   6.513   6.239 -0.9493 -2.2314 -0.8400
  119OSM     NF12494   2.630   6.549   6.525 -0.8600  0.5603  0.5507
  119OSM    HNF12495   2.692   6.502   6.587  0.2052 -0.5416 -1.2383
  119OSM    C2S12496   2.560   6.481   6.418 -0.9123 -0.0915 -0.2403
  119OSM    H2S12497   2.452   6.506   6.428 -0.8857  0.1371 -0.5162
  119OSM    C3S12498   2.576   6.335   6.412 -0.7100  0.0452  0.0201
  119OSM    H3S12499   2.680   6.306   6.384  0.2497  2.4109  0.9144
  119OSM     O312500   2.495   6.262   6.325 -0.0645  0.1368  0.3946
  119OSM    HO312501   2.476   6.316   6.248 -1.0086 -3.7731 -2.4401
  119OSM    C4S12502   2.552   6.265   6.546  0.1473  0.3122 -0.1168
  119OSM    H4S12503   2.446   6.257   6.575  0.0507 -0.7789 -0.7149
  119OSM    C5S12504   2.642   6.211   6.626 -0.5784  0.5529  0.0520
  119OSM    H5S12505   2.749   6.210   6.598 -0.0736 -2.1064  1.6984
  119OSM    C6S12506   2.607   6.144   6.760 -0.2829 -0.1088 -0.0996
  119OSM    H6S12507   2.705   6.149   6.812 -0.7796 -0.3297  0.8822
  119OSM    H6T12508   2.576   6.039   6.742 -1.1383  0.1707 -0.2808
  119OSM    C7S12509   2.500   6.202   6.852 -0.3783  0.0906 -0.7522
  119OSM    H7S12510   2.407   6.180   6.795 -0.7099  1.5120 -0.7933
  119OSM    H7T12511   2.506   6.313   6.861  1.1682 -0.0808  0.7816
  119OSM    C8S12512   2.511   6.139   6.994  0.0460 -0.2325  0.9312
  119OSM    H8S12513   2.598   6.191   7.039 -1.5357  1.2274  2.4625
  119OSM    H8T12514   2.544   6.034   6.979  1.6800  0.2657  0.8904
  119OSM    C9S12515   2.378   6.147   7.058  0.0542 -0.5409 -0.2971
  119OSM    H9S12516   2.299   6.112   6.988 -0.4469 -1.7821  0.8371
  119OSM    H9T12517   2.369   6.256   7.073 -0.3793 -0.6295  0.1140
  119OSM   C10S12518   2.359   6.064   7.192  0.3376  0.3054 -0.4472
  119OSM   H10S12519   2.410   5.965   7.191  0.6700  0.4734  0.0230
  119OSM   H10T12520   2.253   6.039   7.215  1.1018 -2.4393  0.4521
  119OSM   C11S12521   2.405   6.135   7.322  1.1433 -0.3368  0.5084
  119OSM   H11S12522   2.360   6.236   7.310  2.8299  0.3213 -0.8127
  119OSM   H11T12523   2.512   6.165   7.315  1.1229 -0.5605 -2.0038
  119OSM   C12S12524   2.368   6.070   7.452  0.1627 -0.6312 -1.1440
  119OSM   H12S12525   2.425   5.975   7.456 -0.4286 -0.9388  1.1551
  119OSM   H12T12526   2.259   6.054   7.444 -0.0468  0.0061  0.2474
  119OSM   C13S12527   2.401   6.143   7.578 -0.2162  0.4430  0.3293
  119OSM   H13S12528   2.348   6.241   7.579  0.6086  0.9363 -1.2232
  119OSM   H13T12529   2.508   6.170   7.576 -0.4106  1.2231 -0.0454
  119OSM   C14S12530   2.353   6.079   7.707 -0.6892 -0.3351 -0.6393
  119OSM   H14S12531   2.411   5.984   7.716 -0.0132  0.1884  0.8843
  119OSM   H14T12532   2.251   6.037   7.694 -1.6733  2.2738 -2.3090
  119OSM   C15S12533   2.365   6.164   7.831 -0.8611 -0.5127  0.0313
  119OSM   H15S12534   2.280   6.236   7.830  1.0678  1.8857  0.1343
  119OSM   H15T12535   2.462   6.218   7.829 -0.7180 -0.7680  0.0547
  119OSM   C16S12536   2.358   6.089   7.967 -0.5019  0.0092 -0.5521
  119OSM   H16S12537   2.269   6.023   7.974  0.6113 -1.3910  2.7223
  119OSM   H16T12538   2.350   6.167   8.046  2.1869 -0.7108  0.5479
  119OSM   C17S12539   2.486   6.009   8.006  0.4404 -0.1624  0.0328
  119OSM   H17S12540   2.578   6.072   8.002  0.7007 -0.5942 -1.1110
  119OSM   H17T12541   2.501   5.924   7.937  2.7427  0.1134  0.1201
  119OSM   C18S12542   2.482   5.963   8.150  0.3284  0.6846  0.2308
  119OSM   H18S12543   2.581   5.917   8.166 -0.1968 -0.6098 -0.1649
  119OSM   H18T12544   2.401   5.886   8.150 -1.3725  2.3731 -0.2943
  119OSM   H18U12545   2.453   6.042   8.222 -0.7287 -1.5676  2.4184
  119OSM    C1F12546   2.613   6.680   6.548  0.8997  0.1748 -0.1792
  119OSM     OF12547   2.504   6.725   6.526 -0.3105 -0.0230  0.2899
  119OSM    C2F12548   2.729   6.765   6.596 -0.1470 -0.2766  0.4912
  119OSM    H2F12549   2.738   6.856   6.532 -2.3245 -1.3042 -1.4191
  119OSM    H2G12550   2.819   6.701   6.581 -1.0463 -2.1316  2.4437
  119OSM    C3F12551   2.711   6.794   6.751 -0.1643  0.0325  0.2359
  119OSM    H3F12552   2.610   6.835   6.772 -0.4268  0.2377 -1.3649
  119OSM    H3G12553   2.784   6.874   6.779 -1.3570  0.6767  1.6728
  119OSM    C4F12554   2.723   6.668   6.839 -0.4643  0.1423  0.5234
  119OSM    H4F12555   2.807   6.597   6.817  1.5589  1.8140  2.4053
  119OSM    H4G12556   2.630   6.609   6.826  0.8043 -1.8500 -0.0548
  119OSM    C5F12557   2.748   6.690   6.991 -0.5781  0.0486  0.4347
  119OSM    H5F12558   2.670   6.759   7.029 -0.0775 -0.5489  2.6994
  119OSM    H5G12559   2.851   6.725   7.016 -0.7812 -0.5911  2.3977
  119OSM    C6F12560   2.738   6.565   7.081  0.3078 -0.1690 -0.0893
  119OSM    H6F12561   2.804   6.485   7.043  0.5475  0.3758 -0.8515
  119OSM    H6G12562   2.636   6.523   7.077  0.1108  0.2215  0.6081
  119OSM    C7F12563   2.767   6.599   7.226  0.4160 -0.8475  0.3805
  119OSM    H7F12564   2.835   6.686   7.225  0.2810 -0.7097  1.6997
  119OSM    H7G12565   2.821   6.514   7.274  0.2917 -1.2167 -0.1257
  119OSM    C8F12566   2.642   6.629   7.319  0.0531  0.3358  0.1106
  119OSM    H8F12567   2.577   6.540   7.330 -0.8826  1.0790  0.8569
  119OSM    H8G12568   2.581   6.706   7.267  0.1525 -0.9341 -1.9786
  119OSM    C9F12569   2.685   6.686   7.446  0.7198 -0.3629  0.4191
  119OSM    H9F12570   2.655   6.789   7.468 -0.7121 -0.8247  0.7503
  119OSM   C10F12571   2.743   6.631   7.554 -0.0442  0.4624 -0.7522
  119OSM   H10F12572   2.755   6.701   7.639  1.4752 -2.2817  1.4674
  119OSM   C11F12573   2.782   6.488   7.573  0.2347  0.7711 -0.8058
  119OSM   H11F12574   2.892   6.480   7.559  0.4908 -0.0085  1.2485
  119OSM   H11G12575   2.725   6.426   7.501 -1.8605  2.0863 -0.3859
  119OSM   C12F12576   2.757   6.436   7.720  0.5326 -0.5718  0.1132
  119OSM   H12F12577   2.756   6.326   7.735  0.1991 -0.1793  4.0740
  119OSM   H12G12578   2.656   6.471   7.752  0.0147  0.4440 -2.4095
  119OSM   C13F12579   2.856   6.503   7.819  0.5758 -0.0343 -0.1395
  119OSM   H13F12580   2.851   6.614   7.825  1.7703  0.1224 -1.6589
  119OSM   H13G12581   2.959   6.483   7.783  0.1312 -0.0298 -1.4669
  119OSM   C14F12582   2.861   6.433   7.961 -0.0984 -0.1246  0.4118
  119OSM   H14F12583   2.957   6.451   8.015  1.3938 -2.3323 -1.3267
  119OSM   H14G12584   2.848   6.324   7.947  1.1474 -0.6789  2.9668
  119OSM   C15F12585   2.746   6.483   8.054 -0.0442 -0.3237  0.2571
  119OSM   H15F12586   2.641   6.479   8.018 -0.4804 -2.1271  1.5779
  119OSM   H15G12587   2.771   6.591   8.064 -0.5151 -0.1343 -0.5420
  119OSM   C16F12588   2.751   6.411   8.186 -0.6652 -0.3475 -0.0387
  119OSM   H16F12589   2.855   6.411   8.224 -1.3546  1.9780  2.0926
  119OSM   H16G12590   2.733   6.305   8.157  0.0743 -1.0612  1.9474
  119OSM   C17F12591   2.657   6.461   8.287  0.8193  0.2913  0.3373
  119OSM   H17F12592   2.630   6.378   8.355 -0.1807 -1.1649 -1.7040
  119OSM   H17G12593   2.561   6.489   8.237 -0.0894 -0.7022  1.4644
  119OSM   C18F12594   2.705   6.586   8.367  0.2119 -0.1578 -0.6100
  119OSM   H18F12595   2.620   6.627   8.426  1.7623 -0.3015  1.8404
  119OSM   H18G12596   2.744   6.673   8.309 -0.9806  1.4465  0.8845
  119OSM   H18H12597   2.784   6.563   8.441 -0.2853 -0.1406 -0.0662
  120OSM      N12598   6.056   3.990   6.209  0.5927  0.0992 -0.4074
  120OSM    C1512599   6.160   3.913   6.152  0.4454 -0.5115  0.3976
  120OSM   H15A12600   6.195   3.835   6.218  2.6553 -0.6734 -0.8630
  120OSM   H15B12601   6.250   3.970   6.132  0.3959 -1.0125 -1.4943
  120OSM   H15C12602   6.140   3.863   6.059  0.0025  0.4495 -0.0426
  120OSM    C1412603   6.011   4.096   6.112 -0.3773  0.1595  0.4485
  120OSM   H14A12604   5.909   4.118   6.140  0.1774  1.9904  1.1636
  120OSM   H14B12605   6.007   4.045   6.016  1.0766 -0.3628  0.6440
  120OSM   H14C12606   6.070   4.186   6.110  0.5937 -0.4565  0.5283
  120OSM    C1312607   5.935   3.898   6.227  0.3127 -0.2712 -0.4990
  120OSM   H13A12608   5.851   3.952   6.270  1.1393  0.6049  0.0450
  120OSM   H13B12609   5.978   3.822   6.291  2.0702 -0.3252 -1.6682
  120OSM   H13C12610   5.910   3.850   6.133 -0.0966 -0.3856 -0.3386
  120OSM    C1212611   6.096   4.053   6.341 -0.7359 -0.7046 -0.0713
  120OSM   H12A12612   6.028   4.129   6.376  0.8443  0.8306 -0.2087
  120OSM   H12B12613   6.183   4.114   6.321 -1.3055 -0.0710 -0.6313
  120OSM    C1112614   6.128   3.962   6.460  0.2760 -0.9308  0.0050
  120OSM   H11A12615   6.033   3.913   6.488 -0.0811 -0.4155 -0.2737
  120OSM   H11B12616   6.157   4.023   6.549  0.4782 -2.1834  0.8182
  120OSM      P12617   6.379   3.886   6.459 -0.0971 -0.3742 -0.4169
  120OSM    O1312618   6.454   3.766   6.416 -0.1672  0.0487  0.8449
  120OSM    O1412619   6.416   4.018   6.403  0.0828  0.0895 -0.1916
  120OSM    O1112620   6.393   3.884   6.618  0.3312 -0.0650 -0.0131
  120OSM    O1212621   6.220   3.862   6.430 -0.1299  0.0475  0.3674
  120OSM    C1S12622   6.490   3.802   6.681 -0.0651 -0.0926  0.3142
  120OSM    H1S12623   6.586   3.790   6.625 -0.3482  1.4680 -0.5872
  120OSM    H1T12624   6.452   3.699   6.696  3.4889 -2.0363 -2.1711
  120OSM     NF12625   6.660   3.798   6.867  0.4847 -0.0154  0.2552
  120OSM    HNF12626   6.654   3.748   6.953 -0.3940  0.7541  0.6692
  120OSM    C2S12627   6.538   3.860   6.822  0.4892  0.1132 -0.3808
  120OSM    H2S12628   6.555   3.969   6.807  0.2197  0.4374  1.4584
  120OSM    C3S12629   6.424   3.836   6.917  0.8760  0.5172 -0.7324
  120OSM    H3S12630   6.418   3.730   6.948 -1.0745  0.5611 -0.8210
  120OSM     O312631   6.294   3.864   6.869  0.6810 -0.2523 -0.2989
  120OSM    HO312632   6.314   3.860   6.775  0.2048 -0.3154 -0.4028
  120OSM    C4S12633   6.448   3.912   7.042 -0.1404 -0.5635 -0.4142
  120OSM    H4S12634   6.486   3.850   7.124  0.1373 -0.6986 -0.6422
  120OSM    C5S12635   6.449   4.049   7.048 -0.6206  0.2119 -0.1775
  120OSM    H5S12636   6.440   4.099   6.950  4.6613 -2.1059 -2.2488
  120OSM    C6S12637   6.482   4.142   7.164  0.2947 -0.1285 -0.6060
  120OSM    H6S12638   6.525   4.074   7.241 -0.1965 -0.4013 -0.5651
  120OSM    H6T12639   6.388   4.180   7.209  0.5333 -0.6355  0.3733
  120OSM    C7S12640   6.595   4.243   7.121  0.3541  0.1140 -0.1914
  120OSM    H7S12641   6.595   4.331   7.189 -0.5146 -2.0600  2.8354
  120OSM    H7T12642   6.575   4.285   7.020  3.9803  2.6265 -0.0908
  120OSM    C8S12643   6.740   4.184   7.105  0.7959  0.0680  0.0359
  120OSM    H8S12644   6.811   4.260   7.065  1.7152 -0.7061  0.1588
  120OSM    H8T12645   6.733   4.099   7.034 -2.8426  0.9336 -0.8439
  120OSM    C9S12646   6.793   4.120   7.234 -0.0956  0.6683  0.1793
  120OSM    H9S12647   6.884   4.067   7.199  1.4901  2.2214  1.7682
  120OSM    H9T12648   6.719   4.060   7.289  0.9332  0.0686  0.9312
  120OSM   C10S12649   6.850   4.225   7.325 -0.6877 -0.0119  0.0595
  120OSM   H10S12650   6.766   4.265   7.386  0.4966  1.5503  0.7280
  120OSM   H10T12651   6.891   4.313   7.271 -1.1340  0.9733  1.2567
  120OSM   C11S12652   6.956   4.177   7.427  0.6253  0.1999  0.1831
  120OSM   H11S12653   6.939   4.074   7.464 -0.5770  0.8848  1.6048
  120OSM   H11T12654   6.938   4.233   7.521 -0.2180  0.3286 -0.0507
  120OSM   C12S12655   7.105   4.187   7.394 -0.0423  0.3063  0.1347
  120OSM   H12S12656   7.115   4.257   7.308  0.4935  0.3773  0.2497
  120OSM   H12T12657   7.132   4.085   7.361 -3.8622 -0.7061 -0.2876
  120OSM   C13S12658   7.189   4.258   7.505  0.5340  0.0428 -0.3184
  120OSM   H13S12659   7.153   4.362   7.516  1.7071  0.2478  2.7298
  120OSM   H13T12660   7.294   4.254   7.469  0.6767 -2.3595  0.1469
  120OSM   C14S12661   7.174   4.194   7.644 -0.1576 -0.1049 -0.0925
  120OSM   H14S12662   7.195   4.085   7.638 -0.4722 -0.1822  0.1749
  120OSM   H14T12663   7.067   4.202   7.675 -0.5415 -3.5746 -0.0346
  120OSM   C15S12664   7.264   4.253   7.755  1.1245  0.1815 -0.3235
  120OSM   H15S12665   7.212   4.347   7.781 -3.4767 -2.0697 -0.2570
  120OSM   H15T12666   7.370   4.264   7.726  1.2967  1.7789  0.7899
  120OSM   C16S12667   7.254   4.156   7.877 -0.6000 -0.0086 -0.2007
  120OSM   H16S12668   7.292   4.059   7.840  1.1173  0.5546 -0.0124
  120OSM   H16T12669   7.149   4.142   7.912 -0.4754  0.9458  0.6149
  120OSM   C17S12670   7.339   4.207   7.992 -0.1246 -0.0793 -0.0218
  120OSM   H17S12671   7.296   4.303   8.028 -1.9819 -0.5043 -1.0077
  120OSM   H17T12672   7.446   4.212   7.960  0.1902 -1.3660  0.7542
  120OSM   C18S12673   7.347   4.112   8.115 -0.5671  0.3511 -0.5049
  120OSM   H18S12674   7.413   4.142   8.199 -0.3300 -0.8441 -0.2479
  120OSM   H18T12675   7.387   4.018   8.072  0.8192  1.2755 -1.3122
  120OSM   H18U12676   7.248   4.097   8.163 -2.0048 -1.1284 -3.6321
  120OSM    C1F12677   6.777   3.817   6.799  0.8439 -0.8087  0.3755
  120OSM     OF12678   6.786   3.911   6.720  0.2895  0.1138  0.2186
  120OSM    C2F12679   6.888   3.719   6.837 -0.5068  0.0464  0.3399
  120OSM    H2F12680   6.921   3.659   6.749 -1.4323 -0.8801  0.6041
  120OSM    H2G12681   6.841   3.652   6.913 -2.3196 -1.6803 -2.1268
  120OSM    C3F12682   7.000   3.792   6.909  0.1839 -0.1956 -0.3492
  120OSM    H3F12683   7.033   3.885   6.860  3.7886 -1.1248  0.0463
  120OSM    H3G12684   7.088   3.725   6.922  0.3857  0.1132 -0.1219
  120OSM    C4F12685   6.967   3.820   7.058  0.7921 -0.5160 -0.3992
  120OSM    H4F12686   6.926   3.728   7.106  1.7647 -1.1685 -0.7950
  120OSM    H4G12687   6.888   3.898   7.066 -0.2733 -1.6677  0.6898
  120OSM    C5F12688   7.107   3.851   7.130  0.0753  0.4883  0.3906
  120OSM    H5F12689   7.174   3.762   7.120 -0.9613 -0.7333  3.3443
  120OSM    H5G12690   7.090   3.848   7.239 -0.3851 -3.5152  0.3420
  120OSM    C6F12691   7.173   3.986   7.106 -1.0951 -0.9336 -0.6028
  120OSM    H6F12692   7.122   4.070   7.158  0.0896 -0.4428 -0.1886
  120OSM    H6G12693   7.160   4.022   7.002 -0.1903  0.5639 -0.2285
  120OSM    C7F12694   7.320   3.999   7.156  0.5280 -0.3003  0.7261
  120OSM    H7F12695   7.385   3.935   7.092 -0.0157  0.4443 -0.6229
  120OSM    H7G12696   7.327   3.959   7.259 -1.4726 -2.9191 -0.0342
  120OSM    C8F12697   7.370   4.148   7.161  0.4134  0.7923 -0.5147
  120OSM    H8F12698   7.319   4.192   7.250  0.4371 -1.8413  0.9184
  120OSM    H8G12699   7.348   4.214   7.074  2.0532  0.2983 -1.3370
  120OSM    C9F12700   7.515   4.125   7.177 -0.1426 -0.4136 -0.2869
  120OSM    H9F12701   7.585   4.123   7.092  1.3234  0.5098  0.8514
  120OSM   C10F12702   7.568   4.099   7.298  0.3633  0.3296 -0.2638
  120OSM   H10F12703   7.677   4.091   7.302  0.4001  1.2320  1.5528
  120OSM   C11F12704   7.498   4.082   7.433 -0.6005 -0.6148  1.3373
  120OSM   H11F12705   7.388   4.071   7.427 -0.5357 -0.7405  0.2730
  120OSM   H11G12706   7.521   4.183   7.473 -1.4305  1.1196 -2.1940
  120OSM   C12F12707   7.560   3.966   7.518 -0.1915 -0.9846 -0.0984
  120OSM   H12F12708   7.663   3.994   7.550 -0.6059  1.9346 -1.0286
  120OSM   H12G12709   7.558   3.869   7.463 -0.4930 -0.7268 -0.5532
  120OSM   C13F12710   7.492   3.941   7.659 -0.4703 -0.2663  0.0382
  120OSM   H13F12711   7.389   3.906   7.636 -0.0880 -0.9258 -0.7285
  120OSM   H13G12712   7.495   4.036   7.716  2.3325  0.0248 -0.4748
  120OSM   C14F12713   7.566   3.832   7.734  0.5420 -0.0298  0.4089
  120OSM   H14F12714   7.675   3.847   7.746  0.9497 -2.6838  0.6948
  120OSM   H14G12715   7.543   3.732   7.690 -0.2535  1.4349 -2.8149
  120OSM   C15F12716   7.516   3.818   7.876 -0.1884  0.1913  0.1762
  120OSM   H15F12717   7.405   3.814   7.889 -0.4117  1.6800 -0.9823
  120OSM   H15G12718   7.546   3.909   7.934  0.0094 -0.9737  1.9845
  120OSM   C16F12719   7.581   3.694   7.950 -0.1154 -0.1491 -0.1483
  120OSM   H16F12720   7.688   3.686   7.920  0.3933  0.3353  1.4614
  120OSM   H16G12721   7.520   3.604   7.930  1.5380 -1.0876 -1.1703
  120OSM   C17F12722   7.583   3.703   8.109 -0.6578  0.0603 -0.2158
  120OSM   H17F12723   7.475   3.701   8.136 -0.8769 -0.6687 -1.0945
  120OSM   H17G12724   7.631   3.798   8.141  3.2232 -1.9554  0.6752
  120OSM   C18F12725   7.652   3.580   8.169 -0.4651  0.0976  0.8935
  120OSM   H18F12726   7.634   3.563   8.277 -0.6134 -3.0561  0.4617
  120OSM   H18G12727   7.759   3.580   8.142 -0.2148 -1.1955  1.8432
  120OSM   H18H12728   7.607   3.495   8.114  2.2103  0.0833 -1.4742
  121OSM      N12729   0.379   0.407   6.233 -0.6735 -0.1185 -0.0259
  121OSM    C1512730   0.265   0.346   6.165  0.4868  0.2706 -0.1218
  121OSM   H15A12731   0.183   0.331   6.233 -0.5609  1.7904 -0.9933
  121OSM   H15B12732   0.290   0.261   6.103  0.6937  1.1937 -1.3297
  121OSM   H15C12733   0.230   0.420   6.095 -0.8619 -0.4815 -0.2744
  121OSM    C1412734   0.486   0.465   6.144 -0.2775 -0.0012  0.0949
  121OSM   H14A12735   0.573   0.493   6.202 -0.2270 -1.3138  0.7079
  121OSM   H14B12736   0.457   0.552   6.087  1.6291  0.0483 -0.8895
  121OSM   H14C12737   0.523   0.388   6.077 -1.6150  0.3785 -1.1313
  121OSM    C1312738   0.334   0.532   6.311 -0.3995 -0.3217  1.0151
  121OSM   H13A12739   0.291   0.606   6.245 -2.2048  0.2904  2.7685
  121OSM   H13B12740   0.412   0.576   6.371 -1.1351  1.2364  0.8771
  121OSM   H13C12741   0.256   0.494   6.377  0.1425 -1.9059  0.7948
  121OSM    C1212742   0.434   0.305   6.322  0.2511 -0.1291 -0.2070
  121OSM   H12A12743   0.355   0.271   6.389  0.3683 -1.8820 -0.9057
  121OSM   H12B12744   0.498   0.343   6.400 -2.5374 -0.9189  2.7113
  121OSM    C1112745   0.514   0.179   6.266 -0.2049  0.1490  0.1675
  121OSM   H11A12746   0.447   0.122   6.198 -0.7654  1.1035 -0.0985
  121OSM   H11B12747   0.546   0.109   6.346  0.5848 -0.8590 -0.9847
  121OSM      P12748   0.765   0.232   6.228 -0.4235  0.3822  0.6297
  121OSM    O1312749   0.829   0.100   6.216  0.1165 -0.3685  0.5217
  121OSM    O1412750   0.819   0.347   6.164 -0.0358 -0.1839 -0.0081
  121OSM    O1112751   0.744   0.261   6.385  0.4945 -0.3114 -0.3109
  121OSM    O1212752   0.625   0.216   6.177  1.0188  0.3375  0.1820
  121OSM    C1S12753   0.794   0.164   6.481 -0.4152 -0.6250 -0.6322
  121OSM    H1S12754   0.899   0.136   6.458 -0.1537  0.9616 -1.5608
  121OSM    H1T12755   0.724   0.078   6.480 -1.7941  0.3973  1.7442
  121OSM     NF12756   0.859   0.113   6.719  0.5137 -1.0133  0.9075
  121OSM    HNF12757   0.808   0.031   6.745 -2.0687  0.6498  1.4490
  121OSM    C2S12758   0.786   0.207   6.631 -0.4089 -0.2120  0.1272
  121OSM    H2S12759   0.841   0.304   6.633 -0.6696 -0.0810  0.9401
  121OSM    C3S12760   0.643   0.234   6.665 -0.3410  0.6579  0.9522
  121OSM    H3S12761   0.593   0.139   6.634  2.0391 -0.8963  1.5886
  121OSM     O312762   0.580   0.343   6.591 -0.4579  0.7369 -0.2334
  121OSM    HO312763   0.637   0.357   6.515 -1.3071 -0.9226 -1.2353
  121OSM    C4S12764   0.633   0.261   6.808  0.2793  0.5956 -0.3956
  121OSM    H4S12765   0.680   0.353   6.847 -0.2923 -0.0963  2.1533
  121OSM    C5S12766   0.557   0.189   6.890 -0.1436  0.1514  0.0818
  121OSM    H5S12767   0.495   0.103   6.862 -1.7955  1.6784 -1.1952
  121OSM    C6S12768   0.531   0.228   7.034  0.1385 -0.2864  0.1435
  121OSM    H6S12769   0.429   0.271   7.046  0.1021 -0.5137  0.7174
  121OSM    H6T12770   0.599   0.310   7.067  0.9782  0.0774 -2.3518
  121OSM    C7S12771   0.563   0.108   7.131  0.1375 -0.5927  0.3967
  121OSM    H7S12772   0.501   0.025   7.092 -0.8056 -0.6031  1.8606
  121OSM    H7T12773   0.513   0.140   7.225 -0.9326 -0.7873 -0.0865
  121OSM    C8S12774   0.707   0.061   7.151  0.1065 -0.3416  0.0136
  121OSM    H8S12775   0.773   0.146   7.178  1.4091 -1.0999 -0.6883
  121OSM    H8T12776   0.756   0.030   7.056 -0.3256  0.2183 -0.4009
  121OSM    C9S12777   0.723  -0.066   7.234 -0.0866  0.5275 -0.0646
  121OSM    H9S12778   0.828  -0.104   7.239 -0.6142 -1.0868 -0.6597
  121OSM    H9T12779   0.663  -0.147   7.188  3.6153 -1.9048 -1.0383
  121OSM   C10S12780   0.675  -0.034   7.381 -1.7647 -0.4846 -0.0298
  121OSM   H10S12781   0.698  -0.121   7.445  2.8978 -0.1649 -0.9202
  121OSM   H10T12782   0.564  -0.026   7.383 -2.0666 -3.4229 -0.4470
  121OSM   C11S12783   0.715   0.102   7.441 -0.4113 -0.7232 -0.0994
  121OSM   H11S12784   0.666   0.191   7.397 -0.9424 -1.1517 -0.3954
  121OSM   H11T12785   0.824   0.126   7.440 -0.5862  0.1542 -1.6579
  121OSM   C12S12786   0.671   0.114   7.584  0.0180 -0.2867 -0.6065
  121OSM   H12S12787   0.561   0.130   7.579  0.2092  2.1837  1.1243
  121OSM   H12T12788   0.699   0.211   7.631 -0.9709 -0.2363 -0.0884
  121OSM   C13S12789   0.710  -0.005   7.679 -0.0814 -0.4857  0.5996
  121OSM   H13S12790   0.818  -0.025   7.661 -0.1079  0.3995 -0.7116
  121OSM   H13T12791   0.642  -0.087   7.648 -3.2116  1.7895  0.9559
  121OSM   C14S12792   0.688   0.034   7.825 -0.4615 -0.2044 -0.1774
  121OSM   H14S12793   0.638   0.132   7.837  0.8838  0.2704  2.0688
  121OSM   H14T12794   0.790   0.056   7.862  0.4249  1.3442 -3.2590
  121OSM   C15S12795   0.620  -0.088   7.896 -1.0980 -0.1553 -0.2114
  121OSM   H15S12796   0.655  -0.188   7.862  1.9776  0.1039  1.8323
  121OSM   H15T12797   0.515  -0.084   7.858 -0.7634 -2.1567 -1.5370
  121OSM   C16S12798   0.642  -0.081   8.048 -0.1242  0.1773 -1.1770
  121OSM   H16S12799   0.750  -0.100   8.067  0.0561  2.1571 -0.0128
  121OSM   H16T12800   0.585  -0.168   8.088 -0.4311  0.6945 -0.4811
  121OSM   C17S12801   0.599   0.048   8.119 -0.0979  0.1701  0.2401
  121OSM   H17S12802   0.491   0.055   8.097 -0.1003  0.0471  0.2086
  121OSM   H17T12803   0.662   0.130   8.079  0.5279 -0.0748  0.6954
  121OSM   C18S12804   0.605   0.051   8.274 -0.0191  0.4070 -0.4376
  121OSM   H18S12805   0.532  -0.023   8.312 -0.9682  1.7292  0.3777
  121OSM   H18T12806   0.585   0.155   8.307 -0.7978  0.6773 -1.6742
  121OSM   H18U12807   0.707   0.032   8.313 -0.4849  0.8639  1.0467
  121OSM    C1F12808   0.986   0.130   6.736 -0.9055 -0.0946  0.3786
  121OSM     OF12809   1.051   0.206   6.669  0.1735 -0.2945  0.3934
  121OSM    C2F12810   1.055   0.026   6.818 -0.6634 -0.2671  0.0652
  121OSM    H2F12811   1.106  -0.038   6.742 -0.0969 -1.0370  1.0687
  121OSM    H2G12812   0.991  -0.047   6.872  0.3686  0.0749  1.8512
  121OSM    C3F12813   1.167   0.082   6.905  0.2037 -0.5536  0.3372
  121OSM    H3F12814   1.228   0.157   6.852 -1.6440  0.9075  0.1887
  121OSM    H3G12815   1.246   0.006   6.924  2.0116  0.6507 -1.8777
  121OSM    C4F12816   1.115   0.135   7.039 -0.0237  0.2020  0.4219
  121OSM    H4F12817   1.056   0.061   7.098  0.4211  0.9584  1.8815
  121OSM    H4G12818   1.051   0.226   7.036 -3.0740 -1.7975 -0.3918
  121OSM    C5F12819   1.232   0.168   7.135 -0.0336 -0.4249 -0.3944
  121OSM    H5F12820   1.305   0.241   7.093  0.4487  0.1661  1.3576
  121OSM    H5G12821   1.289   0.074   7.141 -0.6052 -1.0238 -3.0542
  121OSM    C6F12822   1.185   0.217   7.275 -0.2132  0.3533 -0.2876
  121OSM    H6F12823   1.137   0.315   7.256  2.0708  1.3181 -1.4273
  121OSM    H6G12824   1.276   0.232   7.337 -1.1401 -0.9433  1.4683
  121OSM    C7F12825   1.079   0.132   7.347 -0.2953 -0.3351  0.5171
  121OSM    H7F12826   0.991   0.135   7.280  0.6601  2.2121 -0.7090
  121OSM    H7G12827   1.062   0.188   7.442  0.6012  1.5525 -0.4118
  121OSM    C8F12828   1.115  -0.011   7.387  0.0193  0.0142  0.2301
  121OSM    H8F12829   1.121  -0.082   7.302  1.2962 -1.4076  1.4492
  121OSM    H8G12830   1.032  -0.042   7.453 -1.2333  1.2288 -0.7257
  121OSM    C9F12831   1.242  -0.017   7.465 -0.2507 -0.3691 -0.3297
  121OSM    H9F12832   1.318  -0.073   7.408 -0.4677 -3.7308  2.3526
  121OSM   C10F12833   1.265   0.031   7.587 -1.0427 -0.4486 -0.1960
  121OSM   H10F12834   1.363   0.011   7.632  0.2527  0.7559 -2.3171
  121OSM   C11F12835   1.164   0.111   7.663 -0.0138  0.1585  0.2744
  121OSM   H11F12836   1.061   0.088   7.627 -0.2412 -1.3351  1.7699
  121OSM   H11G12837   1.180   0.219   7.639  1.9634 -0.5243 -1.9089
  121OSM   C12F12838   1.175   0.075   7.816  0.2919 -0.4528 -0.8288
  121OSM   H12F12839   1.278   0.098   7.849 -0.8973  0.5317  2.6058
  121OSM   H12G12840   1.143  -0.030   7.836  0.5960  0.0513  2.9765
  121OSM   C13F12841   1.081   0.181   7.894 -0.4844  0.9825  0.1137
  121OSM   H13F12842   0.973   0.183   7.870 -0.6015 -2.5372 -0.0667
  121OSM   H13G12843   1.126   0.282   7.876  0.9366  0.5711  1.1612
  121OSM   C14F12844   1.079   0.159   8.046 -0.5062 -0.7282  0.2946
  121OSM   H14F12845   1.177   0.188   8.088  0.0266 -2.2603  0.1706
  121OSM   H14G12846   1.068   0.050   8.059  0.6419 -0.7552  1.1529
  121OSM   C15F12847   0.971   0.235   8.122  0.2260  0.1726  0.0699
  121OSM   H15F12848   0.983   0.220   8.231  1.3008  2.6216  0.3546
  121OSM   H15G12849   0.877   0.185   8.091  0.6436 -0.0032 -0.9882
  121OSM   C16F12850   0.959   0.388   8.091  0.0011  0.5696  0.1067
  121OSM   H16F12851   0.939   0.400   7.982  1.7795 -0.4081 -0.3606
  121OSM   H16G12852   1.058   0.438   8.096 -0.4508  1.5690 -0.4997
  121OSM   C17F12853   0.862   0.456   8.185 -0.4884  0.5480  0.4897
  121OSM   H17F12854   0.779   0.387   8.211  0.6522 -0.1288  2.5334
  121OSM   H17G12855   0.815   0.543   8.135  1.5661  1.1371 -0.5404
  121OSM   C18F12856   0.932   0.503   8.314  0.4077 -0.1627 -0.3160
  121OSM   H18F12857   0.958   0.408   8.364  2.0088  0.0528 -0.6908
  121OSM   H18G12858   0.849   0.548   8.373  0.1346 -1.4208  0.2937
  121OSM   H18H12859   1.023   0.566   8.304 -0.2524  0.9571  0.5129
  122OSM      N12860   1.201   0.931   6.155  0.4814 -0.5824 -0.7343
  122OSM    C1512861   1.327   0.875   6.113 -0.7298  0.0859 -0.4523
  122OSM   H15A12862   1.309   0.804   6.033 -0.7934  0.4986 -0.8109
  122OSM   H15B12863   1.371   0.823   6.197 -2.2602  1.0867  1.0458
  122OSM   H15C12864   1.391   0.946   6.064 -1.3172  0.2791 -0.9558
  122OSM    C1412865   1.226   0.968   6.302 -0.0180 -0.4044  0.1259
  122OSM   H14A12866   1.322   1.016   6.308 -1.2300  2.3736 -1.0896
  122OSM   H14B12867   1.222   0.876   6.360 -0.7525 -1.3530 -1.3776
  122OSM   H14C12868   1.152   1.038   6.337 -0.8135  1.3087 -4.3792
  122OSM    C1312869   1.185   1.062   6.084 -0.0824  0.9695  0.0667
  122OSM   H13A12870   1.172   1.054   5.977  2.0445  2.0610 -0.3161
  122OSM   H13B12871   1.274   1.122   6.082  1.5563 -1.3008  0.6393
  122OSM   H13C12872   1.097   1.116   6.116 -0.2010  0.3929  0.7303
  122OSM    C1212873   1.088   0.824   6.146 -0.1687  0.2337 -0.1457
  122OSM   H12A12874   0.994   0.864   6.181 -1.5923 -0.5986 -2.7400
  122OSM   H12B12875   1.111   0.738   6.207 -2.7608 -1.1582 -1.0060
  122OSM    C1112876   1.070   0.757   6.006  0.4601 -0.0478 -0.3388
  122OSM   H11A12877   1.042   0.838   5.936 -1.1076 -0.2663  0.0087
  122OSM   H11B12878   0.984   0.690   6.024 -0.6028  1.4327  0.3042
  122OSM      P12879   1.211   0.538   6.029 -0.2328  0.0460 -0.2728
  122OSM    O1312880   1.144   0.432   5.955 -0.3603  0.3055  0.2786
  122OSM    O1412881   1.356   0.540   6.033  0.0589 -0.0266 -0.3458
  122OSM    O1112882   1.160   0.536   6.179 -0.1478  0.5308  0.2537
  122OSM    O1212883   1.183   0.685   5.962 -0.4810  0.3316 -0.2193
  122OSM    C1S12884   1.151   0.415   6.255 -0.0994 -0.7306 -0.2456
  122OSM    H1S12885   1.189   0.324   6.202 -0.4801 -0.7810 -0.4334
  122OSM    H1T12886   1.046   0.397   6.286  0.1345  0.0248  1.0486
  122OSM     NF12887   1.225   0.285   6.459  0.3395  0.3495 -0.6559
  122OSM    HNF12888   1.165   0.266   6.536 -1.0032  0.0372 -1.7471
  122OSM    C2S12889   1.224   0.417   6.396  0.1614  0.7006  0.0726
  122OSM    H2S12890   1.330   0.447   6.379  0.5401 -0.0269  1.0110
  122OSM    C3S12891   1.165   0.532   6.487 -0.1437 -0.1960  0.2656
  122OSM    H3S12892   1.058   0.502   6.501  0.4036 -3.0997 -0.9336
  122OSM     O312893   1.168   0.659   6.420  0.3739  0.2006 -0.0238
  122OSM    HO312894   1.164   0.632   6.329 -0.3120 -0.7385  0.2776
  122OSM    C4S12895   1.242   0.542   6.620 -0.6859 -0.7936 -0.0526
  122OSM    H4S12896   1.220   0.465   6.695 -0.3540 -0.8583 -0.0211
  122OSM    C5S12897   1.338   0.636   6.654  0.0903  0.4868 -0.6469
  122OSM    H5S12898   1.374   0.708   6.578  1.2079 -1.3889 -2.0009
  122OSM    C6S12899   1.424   0.635   6.778 -0.4811 -0.4868 -0.4920
  122OSM    H6S12900   1.420   0.739   6.817  2.1567 -0.4529 -0.1395
  122OSM    H6T12901   1.528   0.612   6.748 -1.1136 -1.8700 -1.7800
  122OSM    C7S12902   1.387   0.534   6.894 -0.0848 -0.2882  0.1347
  122OSM    H7S12903   1.425   0.435   6.861  0.4919  0.2586 -0.8963
  122OSM    H7T12904   1.277   0.533   6.908 -0.6339  1.2779 -3.2130
  122OSM    C8S12905   1.460   0.582   7.017  0.0084  0.0692 -0.1072
  122OSM    H8S12906   1.430   0.683   7.053 -0.5688 -1.1184  3.1542
  122OSM    H8T12907   1.568   0.578   6.991 -0.2612 -2.1268 -1.0497
  122OSM    C9S12908   1.419   0.501   7.141  0.0601 -0.1820 -0.2000
  122OSM    H9S12909   1.491   0.417   7.152  0.4679  0.2790  0.7559
  122OSM    H9T12910   1.311   0.473   7.139  0.0403 -0.1709  0.5707
  122OSM   C10S12911   1.429   0.589   7.270  0.1017  0.0124  0.1363
  122OSM   H10S12912   1.348   0.665   7.267 -0.1303 -0.2130 -3.3252
  122OSM   H10T12913   1.529   0.635   7.285 -0.7820  1.9825  0.2188
  122OSM   C11S12914   1.403   0.505   7.401 -0.1670 -0.1898 -0.6026
  122OSM   H11S12915   1.448   0.405   7.382  2.0914  0.6764 -0.1895
  122OSM   H11T12916   1.294   0.495   7.415 -0.3036  0.0135 -1.4409
  122OSM   C12S12917   1.454   0.565   7.533 -0.5143  0.1212 -0.1543
  122OSM   H12S12918   1.411   0.667   7.545  2.6316  1.3919  1.3538
  122OSM   H12T12919   1.562   0.588   7.535 -0.8299  1.8344  2.3869
  122OSM   C13S12920   1.423   0.481   7.660  0.2383  0.2669  0.6054
  122OSM   H13S12921   1.476   0.384   7.656 -0.8779 -0.5424  3.2198
  122OSM   H13T12922   1.315   0.471   7.683  0.4336 -1.3681  0.9315
  122OSM   C14S12923   1.482   0.535   7.797  0.5293  0.5105 -0.2460
  122OSM   H14S12924   1.473   0.645   7.797 -1.0623  0.4011  0.5357
  122OSM   H14T12925   1.593   0.526   7.795  0.5217  0.5340 -1.1854
  122OSM   C15S12926   1.412   0.487   7.925  0.4847 -0.6731 -0.7189
  122OSM   H15S12927   1.427   0.377   7.925 -0.4690 -0.8803 -3.2261
  122OSM   H15T12928   1.302   0.503   7.929  0.8584  2.2098  0.1636
  122OSM   C16S12929   1.456   0.562   8.049  0.4018 -0.3331 -0.0557
  122OSM   H16S12930   1.428   0.669   8.039  0.0020 -0.5615 -1.7408
  122OSM   H16T12931   1.563   0.552   8.078  1.2743  0.1739 -2.8403
  122OSM   C17S12932   1.387   0.500   8.173 -0.0878  0.0471  0.1217
  122OSM   H17S12933   1.410   0.392   8.171  2.8626  0.5902 -0.0134
  122OSM   H17T12934   1.279   0.507   8.148 -0.1928  1.3825  0.8446
  122OSM   C18S12935   1.424   0.552   8.314 -0.0737  0.2976  0.3070
  122OSM   H18S12936   1.532   0.526   8.322 -0.4217 -1.9887 -1.4968
  122OSM   H18T12937   1.366   0.508   8.397 -2.2530  2.8454  0.2681
  122OSM   H18U12938   1.416   0.663   8.317  1.2927  0.4692 -1.0572
  122OSM    C1F12939   1.312   0.194   6.421 -0.1592 -0.0452 -0.0067
  122OSM     OF12940   1.381   0.211   6.322  0.2725 -0.2390  0.1427
  122OSM    C2F12941   1.311   0.076   6.508 -0.3417 -0.1055  0.2168
  122OSM    H2F12942   1.216   0.023   6.484  0.5023 -0.8915 -1.5539
  122OSM    H2G12943   1.304   0.095   6.617 -1.9311  1.7784 -0.1536
  122OSM    C3F12944   1.431  -0.015   6.476  0.4694 -0.6203 -0.4585
  122OSM    H3F12945   1.518   0.053   6.485 -0.1205  0.0702  0.1246
  122OSM    H3G12946   1.431  -0.057   6.373  0.6068  0.8417 -1.0705
  122OSM    C4F12947   1.444  -0.139   6.568 -0.3187  1.0270 -0.1275
  122OSM    H4F12948   1.347  -0.192   6.561 -0.4264  1.2732 -0.5508
  122OSM    H4G12949   1.467  -0.101   6.670  2.6692 -0.4153 -0.1309
  122OSM    C5F12950   1.550  -0.237   6.514  0.0883  0.1003  0.2085
  122OSM    H5F12951   1.644  -0.179   6.501  0.3490 -0.1764  0.8122
  122OSM    H5G12952   1.521  -0.279   6.415  0.8324  1.3399 -0.5570
  122OSM    C6F12953   1.587  -0.353   6.601 -0.0952  0.0265 -0.6474
  122OSM    H6F12954   1.676  -0.412   6.570  0.5643  0.8899 -0.4523
  122OSM    H6G12955   1.499  -0.419   6.612  0.5784 -0.8403 -0.2917
  122OSM    C7F12956   1.611  -0.315   6.752 -0.1442 -0.4850 -0.0281
  122OSM    H7F12957   1.516  -0.285   6.801 -0.8816  0.3794 -1.9054
  122OSM    H7G12958   1.676  -0.225   6.753 -0.4536 -0.2643  0.4230
  122OSM    C8F12959   1.672  -0.431   6.831  0.2671 -0.1041  0.1266
  122OSM    H8F12960   1.621  -0.527   6.810 -0.0459 -0.3151  1.7270
  122OSM    H8G12961   1.651  -0.404   6.936  0.6326 -1.7031  0.6324
  122OSM    C9F12962   1.817  -0.442   6.806  0.1801  0.3440 -0.3640
  122OSM    H9F12963   1.859  -0.423   6.706 -0.3038  0.9051 -0.4652
  122OSM   C10F12964   1.899  -0.485   6.904 -0.3628  0.4219  0.4869
  122OSM   H10F12965   2.007  -0.498   6.883 -0.5812 -0.2856 -0.2391
  122OSM   C11F12966   1.852  -0.525   7.039 -0.1094  0.0306  0.4166
  122OSM   H11F12967   1.753  -0.575   7.028 -0.0455 -0.1330  0.5714
  122OSM   H11G12968   1.845  -0.435   7.104  0.7660  0.1510  0.3579
  122OSM   C12F12969   1.938  -0.641   7.091 -0.3906 -0.1814 -0.4830
  122OSM   H12F12970   2.044  -0.616   7.110 -0.5738  1.4990 -1.4820
  122OSM   H12G12971   1.941  -0.722   7.014 -1.5838 -0.1084 -0.6264
  122OSM   C13F12972   1.893  -0.673   7.237 -0.2332 -0.0476 -0.0194
  122OSM   H13F12973   1.926  -0.777   7.255 -0.1991  0.2485  1.8423
  122OSM   H13G12974   1.783  -0.669   7.246 -0.2328  0.0229 -0.0492
  122OSM   C14F12975   1.963  -0.582   7.340 -0.0139  0.1303 -0.1921
  122OSM   H14F12976   1.934  -0.476   7.327  1.1653  0.4936  0.0037
  122OSM   H14G12977   2.073  -0.574   7.326  0.0945  2.7929  1.4524
  122OSM   C15F12978   1.929  -0.621   7.490  0.4427 -0.6530 -0.4318
  122OSM   H15F12979   1.964  -0.726   7.492  0.2262 -0.8884 -3.6118
  122OSM   H15G12980   1.822  -0.619   7.520  0.5696  0.8504  0.0133
  122OSM   C16F12981   2.011  -0.541   7.587 -0.3151 -0.1945 -0.6579
  122OSM   H16F12982   1.995  -0.432   7.574 -0.0056  0.2472  2.1407
  122OSM   H16G12983   2.118  -0.562   7.566  0.4451  2.0757  0.6288
  122OSM   C17F12984   1.989  -0.582   7.734 -0.0103 -0.5798  0.1028
  122OSM   H17F12985   2.077  -0.560   7.799  2.3141  0.0011 -2.9908
  122OSM   H17G12986   1.981  -0.693   7.732  0.4676 -0.6136 -0.8413
  122OSM   C18F12987   1.861  -0.527   7.784  0.5807  0.1141  0.2868
  122OSM   H18F12988   1.786  -0.538   7.702 -1.4512  2.6336  1.6598
  122OSM   H18G12989   1.872  -0.420   7.811  1.0244 -0.5092  2.7574
  122OSM   H18H12990   1.820  -0.578   7.874 -1.5514  1.9508  0.4533
  123OSM      N12991   5.501   3.624   6.254 -0.1448  0.4408  0.0406
  123OSM    C1512992   5.442   3.711   6.150  0.7075 -0.1129 -0.2468
  123OSM   H15A12993   5.513   3.781   6.109 -0.2208  0.8811 -0.1823
  123OSM   H15B12994   5.354   3.763   6.185  0.4921 -1.4890  1.3911
  123OSM   H15C12995   5.413   3.653   6.063 -0.6892 -1.1616  0.8717
  123OSM    C1412996   5.394   3.529   6.296 -0.2725 -0.2431  0.3566
  123OSM   H14A12997   5.432   3.457   6.366  2.4934 -1.9597 -2.6307
  123OSM   H14B12998   5.355   3.472   6.212 -0.7552 -0.6181  0.8261
  123OSM   H14C12999   5.317   3.590   6.341  1.0217  1.8066 -0.1261
  123OSM    C1313000   5.618   3.552   6.197  0.4120  0.1567  0.3928
  123OSM   H13A13001   5.645   3.486   6.278 -1.3329 -0.2799  0.6600
  123OSM   H13B13002   5.699   3.620   6.177 -0.3216  1.2167  0.9104
  123OSM   H13C13003   5.586   3.486   6.117  1.8611  0.7738 -0.7428
  123OSM    C1213004   5.538   3.719   6.366 -0.2578  0.2830 -0.5616
  123OSM   H12A13005   5.443   3.757   6.401 -0.7027  0.1948 -1.6428
  123OSM   H12B13006   5.602   3.795   6.325  2.2903  0.0232  2.5222
  123OSM    C1113007   5.611   3.671   6.499  0.1523 -0.0972 -0.3109
  123OSM   H11A13008   5.613   3.745   6.582 -0.9716 -3.0281  2.5228
  123OSM   H11B13009   5.717   3.650   6.470  0.8924  0.7196  1.6337
  123OSM      P13010   5.440   3.526   6.640 -0.3794  0.2251 -0.1124
  123OSM    O1313011   5.331   3.605   6.589 -0.1639 -0.8978 -0.7886
  123OSM    O1413012   5.402   3.385   6.656 -0.6431  0.2341  0.0108
  123OSM    O1113013   5.481   3.584   6.785 -0.2038  0.8508  0.3354
  123OSM    O1213014   5.565   3.538   6.544 -0.6184 -0.8723  0.0203
  123OSM    C1S13015   5.598   3.531   6.856 -0.4079 -0.4807 -0.8426
  123OSM    H1S13016   5.684   3.589   6.815 -0.5991 -2.5185 -4.5000
  123OSM    H1T13017   5.612   3.423   6.835  0.9374 -0.5026  0.0443
  123OSM     NF13018   5.712   3.518   7.079 -0.3754  0.1412 -0.4535
  123OSM    HNF13019   5.722   3.427   7.119  0.5406 -0.2039 -1.4105
  123OSM    C2S13020   5.580   3.538   7.013  0.9308  0.4214  0.3179
  123OSM    H2S13021   5.540   3.639   7.039 -0.4429  0.4312 -1.6131
  123OSM    C3S13022   5.468   3.434   7.054 -0.2675  0.3120 -0.7933
  123OSM    H3S13023   5.503   3.336   7.017  0.0800  0.9066 -2.0897
  123OSM     O313024   5.346   3.444   6.992 -0.4336  0.2858  0.6201
  123OSM    HO313025   5.352   3.519   6.932 -3.8661  1.2196  1.1961
  123OSM    C4S13026   5.448   3.437   7.204  0.2978  0.6047  0.2932
  123OSM    H4S13027   5.492   3.352   7.258  2.0697  0.4019 -1.3574
  123OSM    C5S13028   5.368   3.528   7.263 -0.1590 -0.6364  0.3071
  123OSM    H5S13029   5.316   3.599   7.198  1.2409  1.3714  1.2793
  123OSM    C6S13030   5.336   3.526   7.413 -0.3908 -0.4120 -0.1206
  123OSM    H6S13031   5.242   3.468   7.424 -1.3174  0.2242 -3.6080
  123OSM    H6T13032   5.293   3.627   7.431 -0.6495 -0.5356 -0.0387
  123OSM    C7S13033   5.448   3.513   7.516  0.3332 -0.1196  1.1196
  123OSM    H7S13034   5.509   3.606   7.519 -0.4966  0.4515  0.5073
  123OSM    H7T13035   5.524   3.435   7.492 -2.0813 -2.1626 -0.4314
  123OSM    C8S13036   5.399   3.500   7.663 -0.2041 -0.4219 -0.2271
  123OSM    H8S13037   5.360   3.396   7.671  1.4111 -1.1318 -1.1055
  123OSM    H8T13038   5.326   3.574   7.703  0.5025  0.3803 -0.3825
  123OSM    C9S13039   5.520   3.500   7.770 -0.1477  0.1532  0.3364
  123OSM    H9S13040   5.572   3.598   7.769 -0.3222  0.2714 -2.0916
  123OSM    H9T13041   5.598   3.425   7.746  0.5548  0.5504  1.3160
  123OSM   C10S13042   5.476   3.478   7.917 -1.1314 -0.1161  0.7182
  123OSM   H10S13043   5.438   3.378   7.949 -2.4604  0.6423  1.6303
  123OSM   H10T13044   5.396   3.552   7.936 -0.7405  0.2885  0.7976
  123OSM   C11S13045   5.586   3.528   8.015  0.9182  0.9160 -0.0404
  123OSM   H11S13046   5.614   3.632   7.990  1.7194  0.3525 -1.6105
  123OSM   H11T13047   5.680   3.471   7.997 -0.1921 -0.9030 -0.4159
  123OSM   C12S13048   5.539   3.508   8.164  0.1525  0.1177 -0.1323
  123OSM   H12S13049   5.621   3.469   8.228  1.3534  0.8816 -1.1458
  123OSM   H12T13050   5.455   3.437   8.148  0.5406 -0.7998  1.6021
  123OSM   C13S13051   5.482   3.633   8.216 -0.3654  0.1708  0.8824
  123OSM   H13S13052   5.413   3.668   8.137 -1.2335 -0.3563  1.3899
  123OSM   H13T13053   5.566   3.706   8.217  1.2904 -1.5660 -1.1770
  123OSM   C14S13054   5.400   3.624   8.341  0.3519  0.6097  0.2671
  123OSM   H14S13055   5.457   3.568   8.419 -0.6522  0.6170  1.0240
  123OSM   H14T13056   5.301   3.578   8.323  0.6049 -0.7990  2.1071
  123OSM   C15S13057   5.360   3.765   8.399  0.3704  0.5011  0.2754
  123OSM   H15S13058   5.307   3.820   8.318  0.7157  0.5037  0.0476
  123OSM   H15T13059   5.451   3.826   8.418  0.4076  0.3876  0.4600
  123OSM   C16S13060   5.271   3.754   8.525  0.1803 -0.2909  0.7096
  123OSM   H16S13061   5.316   3.663   8.570  1.4283 -0.5634 -0.9718
  123OSM   H16T13062   5.170   3.711   8.505  0.7240 -0.7855 -1.2813
  123OSM   C17S13063   5.276   3.870   8.621 -0.6217 -0.6014  0.3425
  123OSM   H17S13064   5.372   3.873   8.677  0.8777  1.8407 -2.1206
  123OSM   H17T13065   5.192   3.862   8.694 -0.9361 -0.6081 -0.0176
  123OSM   C18S13066   5.263   4.000   8.551 -0.0946 -0.1748 -0.4314
  123OSM   H18S13067   5.343   4.027   8.478  0.1066  0.0977 -0.1101
  123OSM   H18T13068   5.277   4.082   8.624  4.2417 -0.9223 -0.1424
  123OSM   H18U13069   5.170   4.003   8.491  0.4739  1.1482 -1.2866
  123OSM    C1F13070   5.815   3.596   7.076 -0.2910 -0.1052 -0.2939
  123OSM     OF13071   5.827   3.693   7.006 -0.1807 -0.0161  0.3386
  123OSM    C2F13072   5.921   3.535   7.164 -0.4064 -1.1864 -0.3564
  123OSM    H2F13073   5.957   3.436   7.130 -1.4385 -3.1023  3.5076
  123OSM    H2G13074   5.867   3.522   7.260 -3.3383  0.0040 -1.7238
  123OSM    C3F13075   6.038   3.634   7.196 -0.2878 -0.3660  0.0069
  123OSM    H3F13076   6.001   3.734   7.227 -1.4204 -0.6254 -0.4606
  123OSM    H3G13077   6.094   3.642   7.100 -1.2582 -3.0580 -0.8824
  123OSM    C4F13078   6.142   3.585   7.297 -0.3482 -0.1152  0.5504
  123OSM    H4F13079   6.171   3.486   7.256  2.6076  0.6824  0.4820
  123OSM    H4G13080   6.082   3.573   7.390  1.6449 -3.1554  1.6009
  123OSM    C5F13081   6.269   3.671   7.325  0.1012  0.2796  0.0440
  123OSM    H5F13082   6.248   3.780   7.332  0.4795  0.4825 -1.4330
  123OSM    H5G13083   6.339   3.669   7.238 -1.5582 -0.3471 -1.3300
  123OSM    C6F13084   6.350   3.613   7.441 -0.2808  0.3765  0.3039
  123OSM    H6F13085   6.454   3.649   7.429 -1.0803  3.6509  2.0414
  123OSM    H6G13086   6.349   3.502   7.437  1.5855  0.2435  2.0746
  123OSM    C7F13087   6.288   3.649   7.574 -1.1144 -0.0376 -0.4654
  123OSM    H7F13088   6.192   3.599   7.598 -0.2437 -1.5704 -0.0673
  123OSM    H7G13089   6.272   3.757   7.556 -0.8730  0.3894  1.6578
  123OSM    C8F13090   6.379   3.639   7.696 -0.1994 -0.1200 -1.1195
  123OSM    H8F13091   6.324   3.686   7.781 -0.1027  0.8485 -1.5824
  123OSM    H8G13092   6.478   3.690   7.700  0.0479 -0.6496  1.5293
  123OSM    C9F13093   6.393   3.492   7.710 -0.5627  0.0221 -0.3105
  123OSM    H9F13094   6.360   3.426   7.629  1.8079  0.3975 -1.6806
  123OSM   C10F13095   6.461   3.439   7.814  0.6836 -0.2180  0.1586
  123OSM   H10F13096   6.452   3.330   7.803  0.8501 -0.2539  0.3844
  123OSM   C11F13097   6.512   3.510   7.936  0.2851 -0.4496 -0.6327
  123OSM   H11F13098   6.532   3.619   7.923 -0.7741  0.3021  2.9068
  123OSM   H11G13099   6.613   3.467   7.953  0.8104  0.1361 -2.0669
  123OSM   C12F13100   6.423   3.507   8.073 -0.0979 -0.1139 -0.6310
  123OSM   H12F13101   6.323   3.546   8.045 -0.5615 -0.3867  0.5582
  123OSM   H12G13102   6.468   3.577   8.146  0.7532 -2.3244  1.0745
  123OSM   C13F13103   6.412   3.363   8.130  0.1833 -0.3945 -0.9434
  123OSM   H13F13104   6.454   3.290   8.058  1.3398 -0.9717  0.2802
  123OSM   H13G13105   6.303   3.342   8.136  0.3395 -1.6097 -1.9437
  123OSM   C14F13106   6.466   3.350   8.277 -0.3136 -0.0912 -0.6661
  123OSM   H14F13107   6.575   3.371   8.288 -0.1967 -1.9384  3.6192
  123OSM   H14G13108   6.456   3.245   8.312  1.5330 -0.3943 -0.9178
  123OSM   C15F13109   6.391   3.435   8.388  0.1871  0.1539  0.8234
  123OSM   H15F13110   6.413   3.542   8.372  0.0817  0.0729  0.1164
  123OSM   H15G13111   6.429   3.392   8.484 -1.4844  1.0602  1.9455
  123OSM   C16F13112   6.237   3.394   8.396  0.0101  0.4122 -0.0779
  123OSM   H16F13113   6.238   3.284   8.378 -1.1078  0.3053  0.4216
  123OSM   H16G13114   6.185   3.441   8.310 -0.1284 -0.7411 -0.6438
  123OSM   C17F13115   6.171   3.426   8.532  0.5288 -0.3310 -0.6061
  123OSM   H17F13116   6.232   3.382   8.614 -2.2079 -1.6477  0.8514
  123OSM   H17G13117   6.076   3.370   8.526  0.7686 -0.6239 -2.4750
  123OSM   C18F13118   6.140   3.579   8.553 -0.7745 -0.2426 -0.3102
  123OSM   H18F13119   6.074   3.598   8.640  0.5166  0.2933  0.5790
  123OSM   H18G13120   6.083   3.621   8.467 -1.3107 -1.5869 -0.6364
  123OSM   H18H13121   6.243   3.618   8.564 -0.3118 -1.4983 -0.1263
  124OSM      N13122   5.361   6.147   6.533  0.2279  0.1664 -0.0622
  124OSM    C1513123   5.248   6.145   6.434  0.6377 -0.4666  0.2817
  124OSM   H15A13124   5.245   6.241   6.384 -2.6971 -0.9637 -0.6891
  124OSM   H15B13125   5.148   6.135   6.472  0.2863  3.5139  0.8530
  124OSM   H15C13126   5.257   6.063   6.364 -0.2000 -0.8772  0.6478
  124OSM    C1413127   5.338   6.254   6.630 -1.1143  0.0112  0.3111
  124OSM   H14A13128   5.247   6.235   6.686 -1.0305  0.3701  0.5696
  124OSM   H14B13129   5.325   6.348   6.577 -0.2294 -0.7096 -1.2591
  124OSM   H14C13130   5.424   6.264   6.694 -0.6065  0.3478 -0.4023
  124OSM    C1313131   5.364   6.015   6.594  0.1824  0.0817 -0.6920
  124OSM   H13A13132   5.399   5.944   6.521  2.4088  1.8730 -1.5194
  124OSM   H13B13133   5.269   5.976   6.626  0.2199 -0.0356 -0.7226
  124OSM   H13C13134   5.435   6.001   6.675 -0.8326 -0.2155  0.1636
  124OSM    C1213135   5.493   6.168   6.459  0.2899  0.1835 -0.6208
  124OSM   H12A13136   5.506   6.097   6.379  0.3342  0.8006 -1.1704
  124OSM   H12B13137   5.576   6.134   6.520  1.5263  1.7118 -1.3590
  124OSM    C1113138   5.514   6.316   6.404  0.2039  0.4194  0.1891
  124OSM   H11A13139   5.611   6.305   6.351  1.3377 -0.7603  2.3736
  124OSM   H11B13140   5.527   6.379   6.494 -0.6095  2.0038 -0.7625
  124OSM      P13141   5.389   6.518   6.289 -0.1424 -0.0657 -0.0942
  124OSM    O1313142   5.522   6.566   6.246 -0.1819 -0.4476  0.5065
  124OSM    O1413143   5.281   6.545   6.194 -0.0340  0.0690 -0.8393
  124OSM    O1113144   5.361   6.582   6.432  0.0168 -0.1500 -0.0114
  124OSM    O1213145   5.400   6.362   6.325  0.1937  0.1460  0.1668
  124OSM    C1S13146   5.228   6.628   6.464 -0.8155  0.5417 -0.5352
  124OSM    H1S13147   5.159   6.544   6.485 -1.8598  1.6924  0.8656
  124OSM    H1T13148   5.182   6.686   6.381 -1.5447  1.5114  0.5149
  124OSM     NF13149   5.080   6.757   6.634  0.2389  0.6914  0.2765
  124OSM    HNF13150   5.023   6.827   6.592 -1.1006 -0.9174 -0.7166
  124OSM    C2S13151   5.215   6.733   6.580  0.1497  0.5852  0.0177
  124OSM    H2S13152   5.271   6.683   6.662 -0.7510 -2.0640 -0.8706
  124OSM    C3S13153   5.295   6.862   6.538  0.2570 -1.1509 -0.3503
  124OSM    H3S13154   5.241   6.918   6.458  0.9911  0.3640  0.1877
  124OSM     O313155   5.423   6.838   6.481  0.0942  0.4889  0.0711
  124OSM    HO313156   5.410   6.747   6.453 -1.2414  0.5513  0.4203
  124OSM    C4S13157   5.300   6.948   6.661  0.1656  0.0989 -0.4160
  124OSM    H4S13158   5.205   7.001   6.675  0.2079  0.4872 -1.4730
  124OSM    C5S13159   5.408   6.966   6.748  0.2416  0.0286  0.6971
  124OSM    H5S13160   5.504   6.914   6.734  0.6952  0.6962  1.2809
  124OSM    C6S13161   5.402   7.044   6.874  0.3141  0.6913 -0.7333
  124OSM    H6S13162   5.463   7.136   6.857 -1.2544  1.6731 -1.3506
  124OSM    H6T13163   5.454   6.988   6.955 -0.3639 -0.0684 -0.8150
  124OSM    C7S13164   5.261   7.078   6.923 -0.2509 -0.4930  0.0379
  124OSM    H7S13165   5.207   7.132   6.842  1.2458  2.0094  0.6005
  124OSM    H7T13166   5.263   7.144   7.012 -1.3533  2.5110 -2.0042
  124OSM    C8S13167   5.177   6.958   6.959  0.5100  0.2880 -0.0645
  124OSM    H8S13168   5.215   6.913   7.053 -0.2581  1.4510  0.8273
  124OSM    H8T13169   5.189   6.883   6.878  1.8839  1.1652 -0.7047
  124OSM    C9S13170   5.020   6.984   6.977 -0.7018 -0.5619 -1.0018
  124OSM    H9S13171   4.966   6.887   6.981 -0.4022 -0.7151  1.8967
  124OSM    H9T13172   4.976   7.037   6.890  0.6686  0.0785 -1.3239
  124OSM   C10S13173   4.997   7.071   7.106  0.1585  0.3197 -0.0605
  124OSM   H10S13174   4.897   7.118   7.111 -0.1588  0.0531 -2.4826
  124OSM   H10T13175   5.070   7.155   7.114 -0.1264  0.4132  1.8786
  124OSM   C11S13176   5.012   6.992   7.232 -0.2980  0.1544  0.0205
  124OSM   H11S13177   5.098   6.922   7.222 -0.5744 -0.3649  1.0804
  124OSM   H11T13178   4.926   6.925   7.257  1.8703 -1.6394  3.4825
  124OSM   C12S13179   5.034   7.093   7.340  0.1520  0.3420 -0.1900
  124OSM   H12S13180   4.956   7.171   7.328 -2.0999 -1.7097  0.3367
  124OSM   H12T13181   5.135   7.138   7.337 -0.6879  2.4302  0.7625
  124OSM   C13S13182   5.015   7.031   7.478  0.7288 -0.8301 -0.2523
  124OSM   H13S13183   5.094   6.953   7.483  1.3405 -0.1837  0.3585
  124OSM   H13T13184   4.915   6.983   7.488  0.7346 -1.0360 -1.1246
  124OSM   C14S13185   5.030   7.124   7.607 -0.2275 -0.6252  0.3012
  124OSM   H14S13186   4.935   7.179   7.630  0.4069  1.4591 -1.7293
  124OSM   H14T13187   5.099   7.210   7.596  1.0800 -1.5712  0.9163
  124OSM   C15S13188   5.081   7.060   7.737  0.5268  0.1188  0.2741
  124OSM   H15S13189   5.190   7.047   7.723  0.7243 -1.5941  2.7327
  124OSM   H15T13190   5.033   6.960   7.737  1.8020 -0.5135  0.7471
  124OSM   C16S13191   5.060   7.144   7.859  0.0723 -0.6072 -0.2279
  124OSM   H16S13192   4.959   7.187   7.878  1.0404  0.9433  1.6063
  124OSM   H16T13193   5.128   7.231   7.852 -0.8636  0.1417 -0.1479
  124OSM   C17S13194   5.086   7.060   7.986 -0.3761  0.1900  0.2241
  124OSM   H17S13195   5.185   7.009   7.983 -0.2496  0.3372  1.3797
  124OSM   H17T13196   5.004   6.985   7.983  0.8682 -1.1985 -2.7389
  124OSM   C18S13197   5.085   7.145   8.118 -0.3490  0.1580 -0.5040
  124OSM   H18S13198   4.987   7.196   8.132 -1.5205 -2.3190  1.1768
  124OSM   H18T13199   5.168   7.217   8.106  0.7784 -0.9617  0.3601
  124OSM   H18U13200   5.106   7.077   8.203  3.1918  2.0442  0.3151
  124OSM    C1F13201   5.015   6.654   6.688  0.6458  0.0296 -0.0492
  124OSM     OF13202   5.067   6.545   6.706  0.8812  0.0983  0.0272
  124OSM    C2F13203   4.867   6.679   6.729 -0.6835  0.0945 -0.0838
  124OSM    H2F13204   4.811   6.656   6.636  0.3197 -0.2802 -0.6014
  124OSM    H2G13205   4.864   6.788   6.751  1.3405 -0.2307  2.3164
  124OSM    C3F13206   4.818   6.601   6.853 -0.3558 -0.1799 -0.0051
  124OSM    H3F13207   4.880   6.634   6.939 -0.2953  0.2470 -0.2109
  124OSM    H3G13208   4.818   6.490   6.849  0.8636 -0.3165  2.1572
  124OSM    C4F13209   4.672   6.650   6.884 -0.4623  0.0426  0.3469
  124OSM    H4F13210   4.620   6.633   6.787  1.3398  1.2418 -0.9111
  124OSM    H4G13211   4.675   6.757   6.913  0.3972 -0.5513  2.6624
  124OSM    C5F13212   4.606   6.559   6.993 -0.1051  1.0813 -0.0475
  124OSM    H5F13213   4.628   6.454   6.965  1.5273  1.4867 -0.3482
  124OSM    H5G13214   4.498   6.585   7.002  0.2365  2.0388  1.6749
  124OSM    C6F13215   4.664   6.590   7.135  0.3286 -0.7119 -0.1001
  124OSM    H6F13216   4.636   6.690   7.176  0.0898 -0.9390  0.2979
  124OSM    H6G13217   4.774   6.592   7.127  0.2384 -1.7287 -2.0049
  124OSM    C7F13218   4.612   6.487   7.237  0.0404  0.0453 -0.0672
  124OSM    H7F13219   4.649   6.390   7.199 -2.2897 -0.7546 -0.4356
  124OSM    H7G13220   4.501   6.486   7.248 -0.0735 -1.7122 -1.0939
  124OSM    C8F13221   4.674   6.514   7.377  1.0761 -0.3435  0.5102
  124OSM    H8F13222   4.782   6.538   7.370  0.6536  1.2183 -1.1026
  124OSM    H8G13223   4.674   6.411   7.420 -1.0670  0.1704  1.8942
  124OSM    C9F13224   4.609   6.616   7.467  0.4346 -0.2001  0.0341
  124OSM    H9F13225   4.572   6.709   7.423 -0.6338 -0.9768 -0.7731
  124OSM   C10F13226   4.580   6.590   7.597 -0.1849 -0.1226  0.6606
  124OSM   H10F13227   4.509   6.656   7.650 -2.7902 -3.0592  1.1078
  124OSM   C11F13228   4.623   6.472   7.680  0.3348 -0.2867  0.1464
  124OSM   H11F13229   4.697   6.397   7.644 -0.1558 -1.2627  1.1169
  124OSM   H11G13230   4.529   6.412   7.686 -0.9277  1.0690 -3.2065
  124OSM   C12F13231   4.664   6.528   7.821  0.6326 -0.5161  0.0444
  124OSM   H12F13232   4.684   6.450   7.897  0.1521 -0.8277 -0.1488
  124OSM   H12G13233   4.579   6.588   7.860  1.1741  1.2590 -1.3463
  124OSM   C13F13234   4.791   6.602   7.829 -0.6264 -0.4594  0.5609
  124OSM   H13F13235   4.805   6.680   7.751 -0.5934 -0.7715  0.2517
  124OSM   H13G13236   4.862   6.525   7.791 -1.7146 -1.8922  1.3400
  124OSM   C14F13237   4.834   6.657   7.964  0.0811  0.7808  0.4833
  124OSM   H14F13238   4.940   6.690   7.955  0.9231 -1.6008  1.1314
  124OSM   H14G13239   4.822   6.576   8.039 -1.6547 -0.1007 -0.6965
  124OSM   C15F13240   4.753   6.780   8.013 -0.2460  0.5498 -0.2125
  124OSM   H15F13241   4.647   6.752   7.994 -0.9127  0.1543  3.3164
  124OSM   H15G13242   4.782   6.861   7.943  1.0636 -0.3944 -0.8062
  124OSM   C16F13243   4.756   6.816   8.161  0.5652  0.1410  0.7327
  124OSM   H16F13244   4.709   6.752   8.239  0.2579  2.8571  2.9058
  124OSM   H16G13245   4.696   6.909   8.160  0.5467  0.2278 -2.7591
  124OSM   C17F13246   4.894   6.837   8.224 -0.2921 -0.8424  0.7904
  124OSM   H17F13247   4.961   6.902   8.164  1.2488 -2.5474  0.5454
  124OSM   H17G13248   4.949   6.740   8.234  0.2675 -0.5793  0.3448
  124OSM   C18F13249   4.874   6.896   8.365  0.1401  0.3267  0.3572
  124OSM   H18F13250   4.789   6.848   8.417 -1.3427  2.0937 -0.3139
  124OSM   H18G13251   4.844   7.003   8.358  1.4006  0.6347 -0.9201
  124OSM   H18H13252   4.966   6.885   8.427 -0.3395  0.2233  1.0542
  125OSM      N13253   2.142   2.768   6.421  0.1726 -0.4623  0.5500
  125OSM    C1513254   2.234   2.703   6.328  0.0884 -0.2937  0.6251
  125OSM   H15A13255   2.205   2.599   6.329  0.0724 -0.2882  1.8190
  125OSM   H15B13256   2.337   2.714   6.358 -0.0099 -1.9613  1.7004
  125OSM   H15C13257   2.215   2.740   6.229  0.9984  0.3077  0.6595
  125OSM    C1413258   1.999   2.802   6.371 -0.2820 -0.2246  0.3520
  125OSM   H14A13259   1.941   2.827   6.459  1.2439 -1.8677  1.9130
  125OSM   H14B13260   1.955   2.710   6.335  2.4060 -1.5896  0.3430
  125OSM   H14C13261   2.002   2.877   6.293  1.7116 -0.9357 -0.3092
  125OSM    C1313262   2.120   2.673   6.536  0.2927  0.7926 -0.3718
  125OSM   H13A13263   2.083   2.578   6.501  0.6769 -0.1116  1.5623
  125OSM   H13B13264   2.046   2.713   6.603 -2.3592 -1.4411 -1.7965
  125OSM   H13C13265   2.204   2.652   6.601 -0.0581 -2.3454 -0.7892
  125OSM    C1213266   2.205   2.907   6.468 -0.3787 -0.2068 -0.0739
  125OSM   H12A13267   2.293   2.886   6.527 -0.8307  2.4950  1.7596
  125OSM   H12B13268   2.134   2.965   6.526 -0.3574  0.0296 -0.2838
  125OSM    C1113269   2.250   3.000   6.359 -0.6342 -0.2953 -0.1276
  125OSM   H11A13270   2.311   2.942   6.287 -1.0379 -2.6386  1.2966
  125OSM   H11B13271   2.312   3.075   6.412  0.1638 -0.7586 -0.3929
  125OSM      P13272   2.087   3.200   6.311 -0.2282  0.0874 -0.0631
  125OSM    O1313273   2.183   3.298   6.264  0.0058 -0.2846 -0.2708
  125OSM    O1413274   1.948   3.201   6.258 -0.3849  0.2059 -0.0657
  125OSM    O1113275   2.090   3.218   6.461 -0.4330 -0.0264  0.2038
  125OSM    O1213276   2.144   3.052   6.284  0.7740  0.2417 -0.4205
  125OSM    C1S13277   1.985   3.169   6.544 -0.5107 -0.3043 -0.6492
  125OSM    H1S13278   1.997   3.059   6.548  1.0196 -0.1355  1.2118
  125OSM    H1T13279   1.881   3.185   6.507 -1.4251 -1.1401  1.3742
  125OSM     NF13280   1.910   3.118   6.784 -0.3012 -0.7245  0.2621
  125OSM    HNF13281   1.822   3.156   6.810  0.9328  0.7934  2.6377
  125OSM    C2S13282   1.999   3.204   6.699  0.2712 -0.7875  0.0065
  125OSM    H2S13283   2.105   3.193   6.728 -0.1030  1.3189  2.6115
  125OSM    C3S13284   1.965   3.355   6.721 -1.0004 -0.5779 -0.8207
  125OSM    H3S13285   1.856   3.372   6.709 -0.7366  1.2571 -0.8222
  125OSM     O313286   2.022   3.445   6.619 -0.1670 -0.3236 -0.1423
  125OSM    HO313287   2.073   3.389   6.560 -0.9729 -0.5172 -0.6705
  125OSM    C4S13288   2.021   3.404   6.844  0.2536  0.5014 -0.5561
  125OSM    H4S13289   2.121   3.363   6.864 -0.1159 -0.3671 -0.4778
  125OSM    C5S13290   1.958   3.458   6.948  0.2492  0.0518  0.0206
  125OSM    H5S13291   1.850   3.482   6.941  0.1958 -0.2223 -0.1166
  125OSM    C6S13292   2.007   3.487   7.085  0.4765  0.7781 -0.5619
  125OSM    H6S13293   2.110   3.451   7.100  0.7230  1.6712 -0.0039
  125OSM    H6T13294   1.947   3.429   7.158 -0.0110  2.0447  0.0644
  125OSM    C7S13295   1.992   3.632   7.112 -0.0162  0.5494  1.0622
  125OSM    H7S13296   1.882   3.650   7.118 -0.5217 -1.8445  0.2195
  125OSM    H7T13297   2.034   3.699   7.034 -1.8772  1.9267  1.1535
  125OSM    C8S13298   2.041   3.688   7.245 -0.1532 -0.1236 -0.5165
  125OSM    H8S13299   1.986   3.637   7.328  2.5241 -0.7249  1.0140
  125OSM    H8T13300   2.017   3.797   7.246 -1.0064 -0.2650 -2.2019
  125OSM    C9S13301   2.190   3.666   7.255 -0.4283  0.0137 -0.0342
  125OSM    H9S13302   2.237   3.680   7.155  1.0617  0.0303  0.6350
  125OSM    H9T13303   2.211   3.562   7.286  0.0516 -0.6808 -2.4866
  125OSM   C10S13304   2.245   3.759   7.366 -0.1301  0.1462 -0.4252
  125OSM   H10S13305   2.225   3.867   7.350  2.5637  1.2312  2.4463
  125OSM   H10T13306   2.355   3.744   7.356 -0.2586 -1.2090 -0.0379
  125OSM   C11S13307   2.204   3.707   7.504  0.3278  0.2562  0.2642
  125OSM   H11S13308   2.239   3.603   7.519  1.2182  0.5523  0.2814
  125OSM   H11T13309   2.094   3.713   7.519  0.3793 -0.5116  1.0276
  125OSM   C12S13310   2.269   3.778   7.625 -0.3863 -0.0283 -0.4518
  125OSM   H12S13311   2.249   3.888   7.628  0.8662  0.1983  1.0214
  125OSM   H12T13312   2.378   3.766   7.609 -0.8240 -0.5618 -3.5283
  125OSM   C13S13313   2.224   3.708   7.757  0.0319  0.4050 -0.0449
  125OSM   H13S13314   2.250   3.600   7.754  1.7980  0.7938 -0.0009
  125OSM   H13T13315   2.114   3.717   7.747  0.1299  1.3954 -0.3241
  125OSM   C14S13316   2.268   3.784   7.886  0.1605 -0.4339 -0.0129
  125OSM   H14S13317   2.255   3.891   7.862  0.8611 -0.4446 -0.4801
  125OSM   H14T13318   2.378   3.774   7.903 -0.2140  0.0182  3.4290
  125OSM   C15S13319   2.202   3.757   8.023  0.0870  1.1091 -0.6009
  125OSM   H15S13320   2.231   3.653   8.048  0.0815  0.9810 -1.1217
  125OSM   H15T13321   2.092   3.759   8.013 -0.5888 -2.2519  3.3212
  125OSM   C16S13322   2.241   3.858   8.139  0.5837 -0.1328  1.3212
  125OSM   H16S13323   2.229   3.955   8.087  1.1925 -2.0211 -2.7943
  125OSM   H16T13324   2.348   3.854   8.169  0.9805 -1.3909 -0.1084
  125OSM   C17S13325   2.151   3.829   8.258  0.1209  0.0828 -0.1963
  125OSM   H17S13326   2.050   3.803   8.217 -0.3525 -0.0403  1.0167
  125OSM   H17T13327   2.125   3.910   8.328 -3.3687 -1.2991  0.3172
  125OSM   C18S13328   2.203   3.711   8.343  0.3672  0.2432  0.1523
  125OSM   H18S13329   2.131   3.688   8.424  0.7790 -1.9075 -0.0342
  125OSM   H18T13330   2.302   3.738   8.384  0.7537  0.2359 -0.7481
  125OSM   H18U13331   2.195   3.621   8.277  0.5339 -0.6319  1.2976
  125OSM    C1F13332   1.932   2.988   6.809  0.2481 -0.0006  0.2067
  125OSM     OF13333   2.043   2.943   6.799  0.1533 -0.4269  0.0245
  125OSM    C2F13334   1.808   2.914   6.841 -0.5026  0.5704 -0.2701
  125OSM    H2F13335   1.745   2.892   6.752 -0.7036 -2.0614  0.4253
  125OSM    H2G13336   1.752   2.975   6.915 -1.2242 -1.2830  0.8060
  125OSM    C3F13337   1.839   2.781   6.919  0.0246 -0.4444  0.0553
  125OSM    H3F13338   1.913   2.728   6.856  0.5003  0.5774 -0.2690
  125OSM    H3G13339   1.745   2.721   6.915 -0.1559 -0.1407 -0.3532
  125OSM    C4F13340   1.882   2.793   7.065 -0.4949 -0.0124  0.3067
  125OSM    H4F13341   1.993   2.797   7.055 -0.5856  0.4347 -0.5880
  125OSM    H4G13342   1.863   2.693   7.109 -0.6094  1.0136  2.7669
  125OSM    C5F13343   1.816   2.902   7.151 -0.1750  0.1203  1.0364
  125OSM    H5F13344   1.811   3.005   7.111 -4.6519 -0.5962 -0.7893
  125OSM    H5G13345   1.867   2.904   7.250 -1.4832  2.0347  1.7283
  125OSM    C6F13346   1.674   2.873   7.188 -0.3420 -0.2713 -0.0612
  125OSM    H6F13347   1.668   2.767   7.219  0.7293 -0.7028 -1.2493
  125OSM    H6G13348   1.614   2.880   7.094  1.7349 -0.9290 -1.5017
  125OSM    C7F13349   1.606   2.962   7.287  0.8948 -0.7344  0.3956
  125OSM    H7F13350   1.621   3.055   7.228 -0.7368  0.3100  1.5341
  125OSM    H7G13351   1.669   2.967   7.379  1.4916 -0.1830 -0.0307
  125OSM    C8F13352   1.452   2.940   7.313  0.3804 -0.1492  0.4468
  125OSM    H8F13353   1.405   2.921   7.214  0.6865 -0.1208  0.2927
  125OSM    H8G13354   1.409   3.038   7.343  0.8529 -0.0199  0.7174
  125OSM    C9F13355   1.416   2.828   7.408  0.0343 -1.1412 -0.6551
  125OSM    H9F13356   1.446   2.728   7.375 -3.3098 -3.1587  1.7635
  125OSM   C10F13357   1.350   2.843   7.519  0.6861  0.5057  0.1255
  125OSM   H10F13358   1.333   2.750   7.576  1.1041  0.9739  1.0337
  125OSM   C11F13359   1.313   2.972   7.586 -0.3459  0.7416  0.2773
  125OSM   H11F13360   1.209   2.972   7.626 -0.4837  1.7688 -0.0407
  125OSM   H11G13361   1.316   3.061   7.520  1.2974 -0.0394 -0.7449
  125OSM   C12F13362   1.412   2.985   7.703  0.4776 -0.1855  0.1385
  125OSM   H12F13363   1.517   3.006   7.672  0.5772  1.2882  1.3861
  125OSM   H12G13364   1.410   2.903   7.778  1.2256  0.7930  1.2778
  125OSM   C13F13365   1.383   3.105   7.796 -0.5441  0.4695  0.1788
  125OSM   H13F13366   1.277   3.107   7.831 -0.9798  0.5076 -1.0634
  125OSM   H13G13367   1.405   3.194   7.733  1.1036  1.3886  1.9657
  125OSM   C14F13368   1.488   3.121   7.910  0.1318  0.3097  0.3831
  125OSM   H14F13369   1.588   3.153   7.872 -0.1999  0.0228 -0.7938
  125OSM   H14G13370   1.496   3.021   7.958  0.5865 -1.0681 -2.3578
  125OSM   C15F13371   1.438   3.229   7.998  0.3145  0.2622 -0.1183
  125OSM   H15F13372   1.327   3.229   8.004  0.1251  2.5526 -2.0556
  125OSM   H15G13373   1.469   3.323   7.947  0.9274 -1.2729 -2.8178
  125OSM   C16F13374   1.496   3.205   8.134  0.3363 -0.2478 -0.4940
  125OSM   H16F13375   1.606   3.194   8.122  0.3856  0.0478 -0.3125
  125OSM   H16G13376   1.444   3.114   8.171  0.1697 -0.8406 -2.0846
  125OSM   C17F13377   1.474   3.329   8.226  0.2363  0.0616  0.1874
  125OSM   H17F13378   1.363   3.335   8.239  0.0400 -0.4836 -1.0899
  125OSM   H17G13379   1.498   3.420   8.168  0.2260  0.3388  0.6193
  125OSM   C18F13380   1.528   3.323   8.371 -0.7691  0.4752  0.5284
  125OSM   H18F13381   1.477   3.249   8.435 -0.4181 -0.3751 -0.1466
  125OSM   H18G13382   1.528   3.420   8.424  1.3745  0.6541  0.3091
  125OSM   H18H13383   1.637   3.300   8.375 -0.7324  0.7556  1.1753
  126OSM      N13384   6.049   3.588   6.720 -0.3364  0.5751  0.3349
  126OSM    C1513385   6.030   3.700   6.799  0.4399 -0.0761 -0.1929
  126OSM   H15A13386   6.035   3.799   6.755 -0.0981  0.8821  1.7583
  126OSM   H15B13387   6.111   3.702   6.870  2.2385 -0.7154 -2.1547
  126OSM   H15C13388   5.943   3.698   6.863 -0.0482  0.5014 -0.8178
  126OSM    C1413389   5.920   3.552   6.655 -0.5728 -0.2180  0.7177
  126OSM   H14A13390   5.840   3.527   6.723 -2.1036  0.2284 -0.8194
  126OSM   H14B13391   5.935   3.468   6.589  0.0719 -1.0306  1.8689
  126OSM   H14C13392   5.875   3.629   6.594 -1.5208 -1.6293 -0.4451
  126OSM    C1313393   6.154   3.613   6.615  0.5637  0.3514  0.0627
  126OSM   H13A13394   6.253   3.624   6.658  1.6624 -3.2158 -1.1122
  126OSM   H13B13395   6.130   3.702   6.560 -0.1669 -0.4925 -1.0113
  126OSM   H13C13396   6.165   3.524   6.554 -0.2485 -0.9279  1.6803
  126OSM    C1213397   6.106   3.467   6.799 -0.1774 -0.0648 -0.4526
  126OSM   H12A13398   6.105   3.381   6.734  1.1881  1.2203 -2.3111
  126OSM   H12B13399   6.036   3.448   6.879  0.4208  0.9092  0.3360
  126OSM    C1113400   6.244   3.480   6.869 -0.7661 -0.4418  1.4651
  126OSM   H11A13401   6.253   3.384   6.925  0.5326 -2.0985 -1.3763
  126OSM   H11B13402   6.246   3.560   6.946 -1.2964  2.5340 -1.4055
  126OSM      P13403   6.430   3.370   6.725 -0.4618  0.1715 -0.2154
  126OSM    O1313404   6.330   3.270   6.683  0.2871 -0.5478  0.3916
  126OSM    O1413405   6.528   3.412   6.622  0.2929  0.8505  0.5134
  126OSM    O1113406   6.505   3.331   6.857  0.1552 -0.3941  0.4110
  126OSM    O1213407   6.354   3.497   6.782 -0.0350  0.1931  1.0671
  126OSM    C1S13408   6.597   3.400   6.935 -0.5354  0.7623 -0.7728
  126OSM    H1S13409   6.597   3.508   6.909  1.5460  1.3764  1.4289
  126OSM    H1T13410   6.699   3.355   6.927 -1.9159 -2.5778 -1.2978
  126OSM     NF13411   6.636   3.420   7.184  0.0992  0.5019 -0.1559
  126OSM    HNF13412   6.677   3.342   7.231  1.5992  0.7807 -0.9414
  126OSM    C2S13413   6.552   3.375   7.079 -0.0327 -0.1215  0.0801
  126OSM    H2S13414   6.453   3.423   7.093  0.7595  1.0596  2.0185
  126OSM    C3S13415   6.511   3.219   7.103  0.7235 -0.1157 -1.0769
  126OSM    H3S13416   6.599   3.154   7.081  0.3114 -0.9432 -0.3414
  126OSM     O313417   6.398   3.177   7.026 -0.2167  0.5610  0.6636
  126OSM    HO313418   6.390   3.245   6.958  0.4639  0.2125  0.2261
  126OSM    C4S13419   6.488   3.183   7.250 -0.0262 -0.1611  0.1902
  126OSM    H4S13420   6.581   3.154   7.302  0.3421  2.0117  0.8408
  126OSM    C5S13421   6.372   3.173   7.318 -0.1516 -0.1369 -0.0790
  126OSM    H5S13422   6.279   3.185   7.259 -0.6264 -0.7758  0.5276
  126OSM    C6S13423   6.361   3.129   7.461  0.2577  0.7668 -0.9790
  126OSM    H6S13424   6.319   3.207   7.528 -0.2932 -1.5036  1.4861
  126OSM    H6T13425   6.458   3.099   7.507 -0.4477  2.7521  2.1349
  126OSM    C7S13426   6.275   3.011   7.483  0.1092 -0.2750  0.1721
  126OSM    H7S13427   6.328   2.921   7.443  0.3670  0.2020 -0.5664
  126OSM    H7T13428   6.179   3.020   7.428 -0.0200 -1.3206  0.2050
  126OSM    C8S13429   6.233   2.986   7.628 -0.3769  0.0906 -0.9879
  126OSM    H8S13430   6.189   2.884   7.632 -1.3125  0.5239  0.8421
  126OSM    H8T13431   6.154   3.061   7.647  1.2628  1.6346  0.0807
  126OSM    C9S13432   6.347   2.985   7.733  0.0151  0.3748  0.5643
  126OSM    H9S13433   6.381   3.090   7.751  0.9778 -0.3102  3.2495
  126OSM    H9T13434   6.433   2.944   7.676 -0.3205  1.7903 -1.0283
  126OSM   C10S13435   6.321   2.900   7.864 -0.9855 -0.0122 -0.9615
  126OSM   H10S13436   6.287   2.798   7.835 -0.0920 -0.6127  0.0348
  126OSM   H10T13437   6.241   2.953   7.921  0.7021 -0.4815  2.0599
  126OSM   C11S13438   6.442   2.910   7.955 -0.2349  0.1806 -0.0061
  126OSM   H11S13439   6.478   3.015   7.959  0.6085 -0.1095  0.3687
  126OSM   H11T13440   6.526   2.862   7.900 -0.1869 -2.3242  2.0541
  126OSM   C12S13441   6.427   2.848   8.097  0.1038  0.0933 -0.2254
  126OSM   H12S13442   6.525   2.836   8.149 -1.3742 -1.6822  2.3703
  126OSM   H12T13443   6.377   2.749   8.089 -2.4992  1.3917 -1.0748
  126OSM   C13S13444   6.332   2.927   8.194  0.1827 -0.0563  0.5002
  126OSM   H13S13445   6.228   2.918   8.155  0.6865  0.2744 -0.9460
  126OSM   H13T13446   6.363   3.033   8.192 -0.8416  0.2921  1.6297
  126OSM   C14S13447   6.334   2.876   8.342 -0.1480  0.0053 -0.3706
  126OSM   H14S13448   6.433   2.874   8.391 -0.9198 -0.8674  1.2414
  126OSM   H14T13449   6.289   2.775   8.353  2.1277 -0.9601  0.6366
  126OSM   C15S13450   6.259   2.982   8.427 -0.3701 -0.0462 -0.0226
  126OSM   H15S13451   6.153   2.975   8.393  0.2619  0.2798 -2.2507
  126OSM   H15T13452   6.302   3.079   8.394  0.5671 -0.1559  0.8323
  126OSM   C16S13453   6.272   2.966   8.573  0.5312 -0.4208  0.1185
  126OSM   H16S13454   6.371   2.999   8.612  1.3358 -0.3226 -1.9201
  126OSM   H16T13455   6.261   2.858   8.597 -1.5042 -0.1478  0.6370
  126OSM   C17S13456   6.154   3.041   8.646  0.4863  0.3347 -0.2911
  126OSM   H17S13457   6.073   2.972   8.613  0.9156 -0.0170 -0.6296
  126OSM   H17T13458   6.161   3.141   8.599  0.5293 -0.3588 -1.8320
  126OSM   C18S13459   6.165   3.045   8.797 -0.2394 -0.0242 -0.3676
  126OSM   H18S13460   6.252   3.109   8.823  0.1502 -0.2470 -1.1183
  126OSM   H18T13461   6.186   2.946   8.844 -1.2342 -0.3549 -0.5759
  126OSM   H18U13462   6.073   3.093   8.838 -0.6181  0.6085 -1.8861
  126OSM    C1F13463   6.667   3.548   7.197  1.3580 -0.2700  0.5474
  126OSM     OF13464   6.644   3.632   7.109 -0.1685 -0.2202  0.4000
  126OSM    C2F13465   6.749   3.586   7.323 -0.1305  0.2789 -0.0648
  126OSM    H2F13466   6.850   3.546   7.302  0.3436  0.4084  1.8359
  126OSM    H2G13467   6.706   3.519   7.400  0.7585  0.4695  0.6094
  126OSM    C3F13468   6.740   3.732   7.350  0.1359  0.3967  0.7700
  126OSM    H3F13469   6.636   3.753   7.381  0.0185  1.0442 -0.0291
  126OSM    H3G13470   6.775   3.786   7.259  1.8877  0.6247  1.5394
  126OSM    C4F13471   6.829   3.760   7.469  0.9826 -0.6163 -0.5522
  126OSM    H4F13472   6.834   3.870   7.479  0.5697 -0.5979 -0.5228
  126OSM    H4G13473   6.930   3.722   7.445  0.9409 -0.0345 -1.7185
  126OSM    C5F13474   6.778   3.700   7.605  0.2112 -0.2897  0.9221
  126OSM    H5F13475   6.790   3.590   7.614 -3.5450 -0.9077  0.0593
  126OSM    H5G13476   6.671   3.723   7.626 -0.0946 -0.7535 -0.0709
  126OSM    C6F13477   6.839   3.773   7.714  0.3502  0.4242  0.2579
  126OSM    H6F13478   6.813   3.879   7.698  1.1175  1.0545  2.7988
  126OSM    H6G13479   6.949   3.765   7.702  0.4886  2.2236  0.0769
  126OSM    C7F13480   6.778   3.734   7.852  0.2226 -0.2662 -0.2183
  126OSM    H7F13481   6.804   3.626   7.861  0.4332 -0.2607 -0.7358
  126OSM    H7G13482   6.668   3.740   7.840  0.0901 -1.1443  0.4409
  126OSM    C8F13483   6.829   3.801   7.977 -0.0805 -0.0666  0.1750
  126OSM    H8F13484   6.936   3.823   7.957  0.0003 -1.3282 -0.9189
  126OSM    H8G13485   6.831   3.723   8.056  0.1334 -1.1142 -0.8459
  126OSM    C9F13486   6.753   3.927   8.022 -0.4580 -0.5777  0.5407
  126OSM    H9F13487   6.764   4.008   7.948 -1.7154  0.4287  1.4098
  126OSM   C10F13488   6.678   3.955   8.133 -0.2657 -0.0955 -0.1376
  126OSM   H10F13489   6.632   4.055   8.145 -1.6867 -0.6566 -0.6720
  126OSM   C11F13490   6.646   3.864   8.246  0.6445  0.4186 -0.2044
  126OSM   H11F13491   6.662   3.761   8.207  1.6929  0.7222 -0.6070
  126OSM   H11G13492   6.539   3.872   8.277  0.4120 -1.2355 -0.4890
  126OSM   C12F13493   6.738   3.858   8.370 -0.4863  0.2264 -0.3977
  126OSM   H12F13494   6.842   3.847   8.333 -0.0504 -0.0457  0.8736
  126OSM   H12G13495   6.707   3.768   8.427  2.1160 -0.0308  0.7216
  126OSM   C13F13496   6.735   3.978   8.465  0.2286 -0.1131  0.6843
  126OSM   H13F13497   6.635   3.958   8.510  0.4257 -0.4266  0.9787
  126OSM   H13G13498   6.727   4.071   8.404 -0.1779 -1.1543 -0.9223
  126OSM   C14F13499   6.844   3.970   8.567 -0.1756 -0.3741  0.2956
  126OSM   H14F13500   6.943   3.995   8.522  1.4183 -1.1227  3.1746
  126OSM   H14G13501   6.850   3.871   8.617  2.2871  0.3152  1.5318
  126OSM   C15F13502   6.812   4.071   8.679 -0.5175  0.3301  0.7566
  126OSM   H15F13503   6.730   4.024   8.737  0.3666 -2.4306 -0.0785
  126OSM   H15G13504   6.773   4.158   8.621  2.7805  1.5539  0.1406
  126OSM   C16F13505   6.927   4.128   8.763 -0.3034  0.1164  0.8245
  126OSM   H16F13506   6.987   4.196   8.698 -1.3900  1.8537  1.5642
  126OSM   H16G13507   6.987   4.048   8.810 -1.3477 -1.1418  0.0781
  126OSM   C17F13508   6.879   4.223   8.870  0.2896 -0.1148 -0.1228
  126OSM   H17F13509   6.808   4.166   8.934  0.2482  1.3453  1.2177
  126OSM   H17G13510   6.816   4.308   8.834  3.1228  3.4399  2.5160
  126OSM   C18F13511   6.985   4.269   8.967 -0.6311 -0.1145 -0.3438
  126OSM   H18F13512   7.039   4.187   9.019  0.2502 -0.3158 -1.5355
  126OSM   H18G13513   6.947   4.340   9.044 -1.2999  0.6742 -1.3685
  126OSM   H18H13514   7.062   4.331   8.918 -0.7164 -0.1050 -0.4667
  127OSM      N13515   4.631   4.428   5.998 -0.0815  0.4283 -1.0665
  127OSM    C1513516   4.644   4.280   6.030 -0.5407 -0.3904 -0.1112
  127OSM   H15A13517   4.675   4.222   5.945  0.2429 -0.0700 -0.0525
  127OSM   H15B13518   4.562   4.231   6.080 -2.8142  2.4769 -0.7815
  127OSM   H15C13519   4.724   4.279   6.103  0.1649  0.1893 -0.8640
  127OSM    C1413520   4.735   4.471   5.899  0.0060  0.0007 -0.3350
  127OSM   H14A13521   4.708   4.426   5.805 -0.9115 -0.0009 -0.0833
  127OSM   H14B13522   4.835   4.437   5.921  0.0408 -0.1726 -0.7659
  127OSM   H14C13523   4.744   4.578   5.897 -1.1945  0.2985  3.1179
  127OSM    C1313524   4.491   4.454   5.944  0.4596 -0.1249 -0.0360
  127OSM   H13A13525   4.480   4.392   5.857 -2.0671  0.0780  0.0509
  127OSM   H13B13526   4.472   4.558   5.922  2.3970  0.1474 -0.5850
  127OSM   H13C13527   4.427   4.417   6.023 -0.3819  0.8868 -0.2261
  127OSM    C1213528   4.652   4.499   6.135  0.7236  0.0646  0.3059
  127OSM   H12A13529   4.591   4.451   6.210 -0.3389  0.4754 -0.2884
  127OSM   H12B13530   4.619   4.601   6.121  3.4225  1.0605  0.6218
  127OSM    C1113531   4.799   4.512   6.187 -0.4849  0.4201 -0.0817
  127OSM   H11A13532   4.845   4.412   6.173  0.5620  1.0025 -0.9384
  127OSM   H11B13533   4.808   4.519   6.297  0.0264 -3.8113  0.3179
  127OSM      P13534   5.021   4.643   6.123 -0.0710 -0.3686 -0.2007
  127OSM    O1313535   5.080   4.532   6.048 -0.1044 -0.4820  0.5382
  127OSM    O1413536   5.055   4.783   6.080 -0.1886  0.5072  0.0419
  127OSM    O1113537   5.059   4.632   6.278 -0.0794  0.2485 -0.0779
  127OSM    O1213538   4.866   4.614   6.117  0.2481 -0.4809  0.3516
  127OSM    C1S13539   5.002   4.734   6.369  0.0228  0.4355 -0.3132
  127OSM    H1S13540   4.894   4.752   6.346 -0.1087 -0.3864 -0.3500
  127OSM    H1T13541   5.057   4.831   6.363  2.4398 -0.8189  0.4028
  127OSM     NF13542   4.950   4.762   6.613 -0.0058 -0.5738  0.3714
  127OSM    HNF13543   4.995   4.831   6.669  2.0465 -2.0298  0.6356
  127OSM    C2S13544   5.026   4.682   6.520  0.3221  0.2083 -0.6490
  127OSM    H2S13545   4.981   4.580   6.529 -3.3708  1.6277 -1.1479
  127OSM    C3S13546   5.179   4.684   6.548 -0.0426  0.2592  0.1763
  127OSM    H3S13547   5.219   4.787   6.535 -1.4162  0.5311 -2.4898
  127OSM     O313548   5.261   4.601   6.472  0.1887  0.1177 -0.3747
  127OSM    HO313549   5.203   4.582   6.398  1.4793  2.1438 -2.0268
  127OSM    C4S13550   5.205   4.653   6.696  0.5870  0.1002  1.2705
  127OSM    H4S13551   5.228   4.745   6.752  0.7288  2.1115 -1.8726
  127OSM    C5S13552   5.206   4.534   6.756  0.1197  0.6644 -0.1128
  127OSM    H5S13553   5.215   4.439   6.701  4.5936  0.6933  0.2399
  127OSM    C6S13554   5.237   4.501   6.896  0.0106 -0.2344  0.1285
  127OSM    H6S13555   5.274   4.592   6.949 -2.2265  0.2340  0.9814
  127OSM    H6T13556   5.313   4.420   6.891  0.1668 -0.1247  0.7231
  127OSM    C7S13557   5.124   4.439   6.962  0.2128  0.3469 -0.3958
  127OSM    H7S13558   5.116   4.343   6.907  2.8553  0.4674 -1.1454
  127OSM    H7T13559   5.035   4.505   6.969  0.4830  0.5921  1.0998
  127OSM    C8S13560   5.152   4.410   7.113 -0.3195  0.5891  0.5645
  127OSM    H8S13561   5.198   4.501   7.156  0.1631  0.3095  0.6446
  127OSM    H8T13562   5.236   4.339   7.100 -1.3777 -0.3656 -1.6511
  127OSM    C9S13563   5.032   4.356   7.188  0.4168 -0.0969 -0.7101
  127OSM    H9S13564   5.002   4.263   7.135  4.0748 -3.0338  1.8099
  127OSM    H9T13565   4.952   4.429   7.160  0.3340  0.1252  0.0763
  127OSM   C10S13566   5.073   4.343   7.335 -0.3011  0.2918 -0.1032
  127OSM   H10S13567   5.100   4.438   7.386 -1.9285 -0.5023  2.4901
  127OSM   H10T13568   5.165   4.281   7.346  0.0324  0.9867  1.3120
  127OSM   C11S13569   4.964   4.273   7.414  0.2495 -0.0697 -0.7162
  127OSM   H11S13570   4.864   4.323   7.410  0.1946 -0.0746  0.2793
  127OSM   H11T13571   4.992   4.286   7.521 -3.7147 -0.4501  0.5433
  127OSM   C12S13572   4.957   4.120   7.399 -0.2375  0.8650 -0.0102
  127OSM   H12S13573   4.951   4.090   7.292  0.6791  1.7807 -0.3335
  127OSM   H12T13574   4.863   4.075   7.437  0.7153 -0.3455  0.9844
  127OSM   C13S13575   5.075   4.035   7.463  0.3928 -0.4996  0.3211
  127OSM   H13S13576   5.171   4.069   7.420  0.0159 -1.5995 -1.5071
  127OSM   H13T13577   5.068   3.928   7.432  0.6529 -0.2372 -0.6744
  127OSM   C14S13578   5.085   4.032   7.615 -0.7054 -0.0189  0.2002
  127OSM   H14S13579   4.985   3.991   7.639  0.2186 -1.0643  2.4570
  127OSM   H14T13580   5.098   4.137   7.651  3.5277  0.4634 -2.0464
  127OSM   C15S13581   5.182   3.928   7.672 -0.4853 -0.1808  0.6629
  127OSM   H15S13582   5.169   3.831   7.620  2.2507  0.8500 -2.2811
  127OSM   H15T13583   5.161   3.908   7.780 -0.5506 -1.0522  0.4948
  127OSM   C16S13584   5.329   3.967   7.654 -0.2425  0.3599 -0.2409
  127OSM   H16S13585   5.347   4.074   7.676  2.8845 -0.0232 -0.4732
  127OSM   H16T13586   5.349   3.962   7.545 -1.2002 -1.5032 -0.3768
  127OSM   C17S13587   5.420   3.875   7.732 -0.8394  0.3377  0.2828
  127OSM   H17S13588   5.523   3.884   7.692 -0.5501  2.2277  1.3254
  127OSM   H17T13589   5.387   3.770   7.717  0.0369 -0.2255  1.9796
  127OSM   C18S13590   5.438   3.905   7.886  0.3340 -0.0847 -0.7999
  127OSM   H18S13591   5.524   3.969   7.914  0.6717 -1.9146  3.0081
  127OSM   H18T13592   5.451   3.816   7.952 -1.2481  2.7111  3.7918
  127OSM   H18U13593   5.346   3.948   7.931  0.9737  0.0041  0.4584
  127OSM    C1F13594   4.812   4.768   6.621 -0.3651  0.6681  0.4821
  127OSM     OF13595   4.738   4.687   6.552 -0.3551  0.7619  0.1473
  127OSM    C2F13596   4.758   4.870   6.717 -0.0731 -0.3069  0.9418
  127OSM    H2F13597   4.653   4.897   6.692  0.0743  0.8036  1.4633
  127OSM    H2G13598   4.813   4.967   6.719 -2.4486  1.1098  0.9976
  127OSM    C3F13599   4.755   4.815   6.861 -0.1542  0.0554 -0.4856
  127OSM    H3F13600   4.848   4.767   6.899  0.8528  1.8759 -0.5276
  127OSM    H3G13601   4.681   4.733   6.852 -1.9274  1.6655 -1.2784
  127OSM    C4F13602   4.711   4.927   6.951  0.2462  0.8633 -0.1135
  127OSM    H4F13603   4.622   4.978   6.909 -1.1778  1.4067  3.2210
  127OSM    H4G13604   4.791   5.003   6.964  0.5683  0.2851  1.6112
  127OSM    C5F13605   4.640   4.869   7.078 -0.4357  0.1977  0.4362
  127OSM    H5F13606   4.702   4.780   7.101 -0.8266 -0.1064  0.3116
  127OSM    H5G13607   4.540   4.827   7.055  0.3886 -0.5612 -1.9859
  127OSM    C6F13608   4.632   4.961   7.199  0.2313 -0.5085  0.0592
  127OSM    H6F13609   4.547   4.925   7.262  0.8659 -1.2817  0.4929
  127OSM    H6G13610   4.609   5.065   7.166 -1.1884 -0.1105  2.0873
  127OSM    C7F13611   4.758   4.972   7.289  0.4781  0.3937 -0.1321
  127OSM    H7F13612   4.830   4.998   7.209 -0.6387  1.1720 -0.9263
  127OSM    H7G13613   4.785   4.873   7.332 -1.5110 -0.3121 -0.3650
  127OSM    C8F13614   4.745   5.086   7.387  0.8611  1.4282 -0.0261
  127OSM    H8F13615   4.670   5.062   7.466 -0.1675  2.6319 -0.5993
  127OSM    H8G13616   4.707   5.176   7.335 -0.5589  1.7718  1.5300
  127OSM    C9F13617   4.879   5.110   7.438  0.0170  0.3093 -0.5615
  127OSM    H9F13618   4.958   5.151   7.374  2.2778  0.6688  2.2677
  127OSM   C10F13619   4.917   5.094   7.571 -0.0008  0.3264  0.0227
  127OSM   H10F13620   5.014   5.137   7.602  0.2619  0.8211 -1.3978
  127OSM   C11F13621   4.838   5.036   7.690 -0.7780 -0.6058 -0.6261
  127OSM   H11F13622   4.845   4.925   7.681 -0.0883 -0.4885 -1.6629
  127OSM   H11G13623   4.731   5.068   7.690  0.0107  2.6125 -3.6130
  127OSM   C12F13624   4.901   5.075   7.830 -0.7342  0.3428  0.3460
  127OSM   H12F13625   4.879   5.181   7.855 -1.9816 -0.4366  3.0113
  127OSM   H12G13626   5.006   5.040   7.821 -1.3134 -1.0180 -2.0897
  127OSM   C13F13627   4.833   4.979   7.938  0.5326 -0.7038 -0.2288
  127OSM   H13F13628   4.849   4.876   7.901  0.9130 -0.6091 -0.3260
  127OSM   H13G13629   4.725   5.006   7.938  0.2873 -1.2228  2.8969
  127OSM   C14F13630   4.889   5.006   8.078 -0.5709  0.2790 -0.4843
  127OSM   H14F13631   4.874   5.114   8.103  0.4609 -0.1094  2.0787
  127OSM   H14G13632   4.998   4.990   8.072 -0.3003  1.4352  0.7126
  127OSM   C15F13633   4.836   4.933   8.201  0.1490  0.2957  0.0052
  127OSM   H15F13634   4.740   4.981   8.230 -0.2205  0.7332 -1.8516
  127OSM   H15G13635   4.915   4.960   8.275 -0.6993  2.2755  0.2365
  127OSM   C16F13636   4.815   4.779   8.186  0.4243 -0.3223  0.4918
  127OSM   H16F13637   4.915   4.743   8.153  0.7025  0.2955  0.6445
  127OSM   H16G13638   4.737   4.764   8.109  0.2474  2.1568  0.1184
  127OSM   C17F13639   4.762   4.708   8.306  0.4602  0.9806  0.5947
  127OSM   H17F13640   4.659   4.746   8.321  0.5481  1.6287 -0.3911
  127OSM   H17G13641   4.824   4.726   8.396  1.8667  0.4409 -0.2374
  127OSM   C18F13642   4.759   4.550   8.289 -0.4317 -0.5066 -0.7065
  127OSM   H18F13643   4.730   4.507   8.387 -0.5437 -1.4693 -1.1498
  127OSM   H18G13644   4.861   4.513   8.263 -0.9086 -1.8627 -0.7132
  127OSM   H18H13645   4.680   4.517   8.219 -2.9935 -1.8145  2.5557
  128OSM      N13646   3.584   3.188   6.567  0.6870  0.1967 -0.4743
  128OSM    C1513647   3.712   3.145   6.636 -0.0242 -0.1995 -0.5345
  128OSM   H15A13648   3.698   3.054   6.691  1.4776 -0.7074 -0.9500
  128OSM   H15B13649   3.746   3.226   6.699  0.6045  0.5970 -1.8546
  128OSM   H15C13650   3.791   3.127   6.564  2.8370  0.9864  2.0840
  128OSM    C1413651   3.494   3.215   6.672  0.7945 -0.1364 -0.6618
  128OSM   H14A13652   3.472   3.142   6.749 -3.1598  2.2302  0.7203
  128OSM   H14B13653   3.395   3.236   6.635  0.7345 -1.9936 -1.7130
  128OSM   H14C13654   3.514   3.302   6.732 -1.0184  0.9950 -1.6268
  128OSM    C1313655   3.606   3.309   6.492  0.1059 -0.5549  0.3140
  128OSM   H13A13656   3.632   3.398   6.547 -0.3040  0.4863 -1.1016
  128OSM   H13B13657   3.516   3.337   6.440  0.6177  0.9644  0.1861
  128OSM   H13C13658   3.684   3.289   6.419 -1.4162 -2.2027 -0.9453
  128OSM    C1213659   3.531   3.080   6.471 -0.0394 -0.2277 -0.7414
  128OSM   H12A13660   3.449   3.123   6.415 -2.5413 -0.6254  2.3166
  128OSM   H12B13661   3.477   3.007   6.529 -2.4072  1.1100 -1.1092
  128OSM    C1113662   3.635   3.015   6.379  0.6899 -0.4270  0.1235
  128OSM   H11A13663   3.694   3.097   6.333  0.3441  1.1587  2.3470
  128OSM   H11B13664   3.572   2.976   6.296  0.0538 -1.2643  0.9699
  128OSM      P13665   3.720   2.767   6.445 -0.1248 -0.1559  0.1045
  128OSM    O1313666   3.584   2.721   6.419 -0.4017  0.2536  0.0072
  128OSM    O1413667   3.830   2.722   6.356  0.0834  0.0023  0.2619
  128OSM    O1113668   3.755   2.729   6.591 -0.1954 -0.1147  0.5154
  128OSM    O1213669   3.724   2.928   6.443  0.2603 -0.4714  0.4266
  128OSM    C1S13670   3.872   2.786   6.670 -0.2698  0.0119 -0.0574
  128OSM    H1S13671   3.875   2.894   6.647 -2.6390  0.0315 -0.5319
  128OSM    H1T13672   3.970   2.751   6.632 -0.8156 -0.4268 -1.0947
  128OSM     NF13673   3.978   2.838   6.875  0.0957  0.5177 -0.3117
  128OSM    HNF13674   4.068   2.801   6.895  0.3874  2.0376  1.3833
  128OSM    C2S13675   3.869   2.759   6.823 -0.1905  0.4898  0.5241
  128OSM    H2S13676   3.775   2.798   6.867 -0.4035  1.5072 -0.7541
  128OSM    C3S13677   3.875   2.600   6.837 -0.2186  0.0946 -0.0067
  128OSM    H3S13678   3.973   2.573   6.793 -1.4350 -0.4707 -2.5087
  128OSM     O313679   3.769   2.525   6.762  0.0378 -0.1261  0.0408
  128OSM    HO313680   3.754   2.564   6.676  1.5192  0.8195  0.1788
  128OSM    C4S13681   3.880   2.559   6.982  0.5046  0.2556  0.0196
  128OSM    H4S13682   3.976   2.575   7.034  0.3620 -1.0013  0.7169
  128OSM    C5S13683   3.770   2.524   7.053  0.0368 -0.0029 -0.3124
  128OSM    H5S13684   3.672   2.519   7.003 -0.8424  1.4432  1.1860
  128OSM    C6S13685   3.774   2.496   7.205 -0.6249  0.1285 -0.0724
  128OSM    H6S13686   3.702   2.415   7.229  1.4213 -1.8280 -0.1747
  128OSM    H6T13687   3.746   2.590   7.258 -0.2436  0.9504 -1.2778
  128OSM    C7S13688   3.909   2.436   7.257 -0.0743 -0.4099  0.5124
  128OSM    H7S13689   3.985   2.516   7.249  0.5128 -0.9360  0.7321
  128OSM    H7T13690   3.942   2.345   7.201 -1.6592  0.2368 -1.5782
  128OSM    C8S13691   3.899   2.411   7.405 -0.3017  0.3005 -0.4441
  128OSM    H8S13692   4.007   2.400   7.430 -0.1586  1.5688 -0.4319
  128OSM    H8T13693   3.851   2.314   7.431 -0.8122  1.3476  2.8619
  128OSM    C9S13694   3.841   2.517   7.497 -1.0609  0.0490 -0.7104
  128OSM    H9S13695   3.732   2.527   7.476 -1.1257  1.7665  0.2824
  128OSM    H9T13696   3.887   2.616   7.479  4.3335 -2.3839 -2.2672
  128OSM   C10S13697   3.854   2.475   7.646 -0.0419 -0.6315 -0.5913
  128OSM   H10S13698   3.960   2.463   7.676  0.2347 -2.0267 -1.9892
  128OSM   H10T13699   3.805   2.376   7.658 -2.1871  0.4514  0.2023
  128OSM   C11S13700   3.783   2.581   7.729  0.0900 -0.0758 -0.4739
  128OSM   H11S13701   3.678   2.583   7.692 -0.3960 -2.3006  0.5744
  128OSM   H11T13702   3.823   2.683   7.710 -0.8863  0.4979  0.4208
  128OSM   C12S13703   3.795   2.554   7.880  0.5606  0.2845 -0.0846
  128OSM   H12S13704   3.903   2.535   7.901  0.5302 -0.4996 -0.5794
  128OSM   H12T13705   3.741   2.457   7.892 -0.3241  0.6449 -0.9824
  128OSM   C13S13706   3.728   2.645   7.980 -0.0924 -0.0592 -0.4129
  128OSM   H13S13707   3.617   2.653   7.969 -0.0595  0.4458 -0.4024
  128OSM   H13T13708   3.765   2.747   7.957 -2.1733  0.9206  0.2853
  128OSM   C14S13709   3.749   2.608   8.122  0.7404 -0.1213  0.2233
  128OSM   H14S13710   3.857   2.622   8.145  1.4334 -1.6963 -1.7086
  128OSM   H14T13711   3.745   2.498   8.138  0.8996  0.0021  1.1242
  128OSM   C15S13712   3.652   2.682   8.215  0.0911  0.6319 -0.0716
  128OSM   H15S13713   3.545   2.662   8.195 -0.0003  1.6289 -0.6473
  128OSM   H15T13714   3.663   2.790   8.194 -0.0154  0.1439 -3.2166
  128OSM   C16S13715   3.677   2.651   8.359  0.6219  0.3730  0.1961
  128OSM   H16S13716   3.626   2.730   8.418  0.8160  0.0101  0.8616
  128OSM   H16T13717   3.787   2.649   8.379  1.1618 -3.1850 -2.1093
  128OSM   C17S13718   3.633   2.510   8.408  0.8224  0.7641  0.5081
  128OSM   H17S13719   3.689   2.431   8.355 -1.4380 -0.1361 -0.6655
  128OSM   H17T13720   3.525   2.496   8.385  1.5763  0.1120 -3.2473
  128OSM   C18S13721   3.657   2.464   8.556  0.1500 -0.3210 -0.2385
  128OSM   H18S13722   3.762   2.457   8.589  0.1878  0.6387 -0.1438
  128OSM   H18T13723   3.607   2.367   8.579 -1.1866  0.2131 -0.7793
  128OSM   H18U13724   3.600   2.538   8.617 -1.5140 -1.0986 -0.7663
  128OSM    C1F13725   3.958   2.973   6.894 -0.2344 -1.1169 -0.0207
  128OSM     OF13726   3.852   3.027   6.859 -0.1072 -0.4288  0.0394
  128OSM    C2F13727   4.076   3.043   6.954  0.1434 -0.5445  0.1227
  128OSM    H2F13728   4.065   3.153   6.959 -0.3365 -0.4778 -1.5958
  128OSM    H2G13729   4.166   3.023   6.893  0.0716  0.0173 -0.1726
  128OSM    C3F13730   4.111   2.985   7.096  0.6036  0.0216  0.2960
  128OSM    H3F13731   4.197   3.035   7.145  0.0682 -0.3445  1.6620
  128OSM    H3G13732   4.154   2.885   7.074  2.2391  1.0814 -1.6278
  128OSM    C4F13733   4.002   2.959   7.202 -0.1979  0.1106  0.7490
  128OSM    H4F13734   3.934   2.875   7.177  0.5971 -0.2749 -0.1635
  128OSM    H4G13735   3.932   3.044   7.221 -0.8868 -0.9459  3.2789
  128OSM    C5F13736   4.063   2.932   7.340  0.2865 -0.7458  0.1352
  128OSM    H5F13737   4.117   3.026   7.366 -1.2382  0.1908  0.0278
  128OSM    H5G13738   4.135   2.848   7.338 -1.0863 -2.0447  1.9152
  128OSM    C6F13739   3.958   2.910   7.451 -0.4741 -0.1620  0.3908
  128OSM    H6F13740   3.886   2.832   7.417 -0.4982  0.3010 -0.6604
  128OSM    H6G13741   3.901   3.003   7.474  1.9239  0.8735  2.6994
  128OSM    C7F13742   4.014   2.859   7.583  0.2834  0.8024 -0.5756
  128OSM    H7F13743   4.067   2.763   7.562  1.2288  1.0695  0.5093
  128OSM    H7G13744   3.930   2.843   7.655  1.1157  2.6127  0.8795
  128OSM    C8F13745   4.122   2.950   7.649  0.5813  0.4829  0.0122
  128OSM    H8F13746   4.206   2.969   7.579  1.5449  0.2588  1.0732
  128OSM    H8G13747   4.165   2.908   7.742 -2.3430  1.8270  2.1561
  128OSM    C9F13748   4.055   3.081   7.682 -0.6379 -0.3909  0.0791
  128OSM    H9F13749   4.063   3.153   7.599  0.6024 -0.3568  0.2151
  128OSM   C10F13750   3.990   3.113   7.791  0.3844 -0.1888 -0.3894
  128OSM   H10F13751   3.944   3.213   7.798 -1.1200 -0.9503  1.9549
  128OSM   C11F13752   3.951   3.012   7.904  0.0271  0.3219 -0.8765
  128OSM   H11F13753   4.033   2.939   7.923  0.1266  0.8524  0.9088
  128OSM   H11G13754   3.862   2.952   7.876 -2.0950  0.7460  3.8765
  128OSM   C12F13755   3.926   3.082   8.036  0.6902 -0.9448  0.0291
  128OSM   H12F13756   3.838   3.150   8.044  0.6581 -0.9786 -0.0350
  128OSM   H12G13757   4.007   3.158   8.047 -0.3040  0.3442 -1.0912
  128OSM   C13F13758   3.922   2.997   8.162 -0.0217  0.3569 -0.2967
  128OSM   H13F13759   4.018   2.942   8.167 -2.0065 -3.3279  0.5300
  128OSM   H13G13760   3.843   2.920   8.152 -0.9799  1.5248 -2.7299
  128OSM   C14F13761   3.898   3.073   8.295  0.0290 -0.3798  0.6049
  128OSM   H14F13762   3.803   3.131   8.296  1.5147  2.2889 -1.0626
  128OSM   H14G13763   3.987   3.138   8.308  0.8166 -1.3233  0.1199
  128OSM   C15F13764   3.889   2.972   8.408  0.0916  0.1871 -0.7095
  128OSM   H15F13765   3.978   2.906   8.399  0.4805  0.3561  1.4540
  128OSM   H15G13766   3.798   2.913   8.384  0.1852  0.7431 -2.6687
  128OSM   C16F13767   3.897   3.021   8.553  0.4564 -0.0936 -0.2942
  128OSM   H16F13768   3.896   2.938   8.628 -0.2484  0.3942  0.2431
  128OSM   H16G13769   3.805   3.078   8.578  0.5337  0.6417 -1.6335
  128OSM   C17F13770   4.017   3.114   8.582  0.1581  0.2522  0.5607
  128OSM   H17F13771   4.012   3.140   8.689 -1.4407 -2.3918  1.2221
  128OSM   H17G13772   4.000   3.208   8.525  0.6831 -0.0640 -0.1387
  128OSM   C18F13773   4.156   3.067   8.553 -0.2010  0.5414 -0.3406
  128OSM   H18F13774   4.229   3.148   8.575 -0.5263  1.3754 -2.1324
  128OSM   H18G13775   4.164   3.035   8.447  1.3158  1.0719 -0.4053
  128OSM   H18H13776   4.187   2.986   8.623 -2.3569  0.3549  0.4852
  129OSM      N13777   2.693   0.215   6.160  0.0521  0.0569  0.4649
  129OSM    C1513778   2.591   0.130   6.227  0.0588 -0.0410 -0.5166
  129OSM   H15A13779   2.540   0.182   6.307 -0.6514 -3.4165  1.4531
  129OSM   H15B13780   2.631   0.035   6.259  1.2537  1.1357  1.7754
  129OSM   H15C13781   2.514   0.095   6.160 -1.4037 -1.3401  1.7095
  129OSM    C1413782   2.799   0.258   6.260 -0.0092 -0.5086 -0.5102
  129OSM   H14A13783   2.753   0.303   6.347  0.8168 -1.0490  0.2252
  129OSM   H14B13784   2.865   0.333   6.221  0.9341 -0.5988  0.8376
  129OSM   H14C13785   2.853   0.178   6.309  0.6581  0.3231  0.1417
  129OSM    C1313786   2.752   0.138   6.050 -0.7734 -0.0795  0.2219
  129OSM   H13A13787   2.814   0.050   6.061 -2.0198 -0.8566  1.2192
  129OSM   H13B13788   2.821   0.201   5.995  0.4899 -0.6910  1.0637
  129OSM   H13C13789   2.669   0.117   5.984 -1.2183  1.4595  0.2661
  129OSM    C1213790   2.622   0.342   6.101 -0.4259 -0.8274  0.5576
  129OSM   H12A13791   2.703   0.397   6.058 -0.6396 -0.1429  1.0207
  129OSM   H12B13792   2.587   0.412   6.176 -2.2527  0.0275 -1.0082
  129OSM    C1113793   2.501   0.321   6.005  0.3357  0.0867 -0.5623
  129OSM   H11A13794   2.538   0.241   5.937  1.5435 -1.0313  1.3318
  129OSM   H11B13795   2.491   0.412   5.942 -3.0360 -0.0554 -0.4348
  129OSM      P13796   2.254   0.384   6.099  0.1872 -0.4475  0.0396
  129OSM    O1313797   2.237   0.483   5.993 -0.1978 -0.3718 -0.1607
  129OSM    O1413798   2.132   0.305   6.119 -0.1105  0.1687 -0.0594
  129OSM    O1113799   2.289   0.455   6.238  0.4839  0.0042 -0.0391
  129OSM    O1213800   2.381   0.290   6.070  0.5619  0.3830  0.7070
  129OSM    C1S13801   2.360   0.390   6.345 -0.0123 -0.4594 -0.8976
  129OSM    H1S13802   2.464   0.366   6.315  0.9485  0.9426  1.0169
  129OSM    H1T13803   2.308   0.298   6.381 -0.3887 -0.0794 -0.4487
  129OSM     NF13804   2.460   0.423   6.573 -0.0617  0.1352 -0.7059
  129OSM    HNF13805   2.408   0.407   6.657 -1.0934  1.7944 -0.9800
  129OSM    C2S13806   2.384   0.489   6.462  0.2066 -0.2855 -0.6548
  129OSM    H2S13807   2.445   0.572   6.420  0.5128 -0.6128 -0.8694
  129OSM    C3S13808   2.258   0.533   6.521  0.3722  0.4796  0.0234
  129OSM    H3S13809   2.216   0.440   6.566  1.3141  0.5039  0.9967
  129OSM     O313810   2.157   0.575   6.420  0.6773 -0.0297 -0.5829
  129OSM    HO313811   2.196   0.551   6.336 -1.4838 -0.7389 -1.4404
  129OSM    C4S13812   2.264   0.647   6.619 -0.2644  0.2885  0.2484
  129OSM    H4S13813   2.241   0.610   6.720  0.3478 -1.4761 -0.2094
  129OSM    C5S13814   2.280   0.779   6.602 -0.9805 -0.6483  0.2729
  129OSM    H5S13815   2.303   0.810   6.499  1.6420 -0.9212  0.6946
  129OSM    C6S13816   2.285   0.885   6.708  0.8165  0.0426  0.1989
  129OSM    H6S13817   2.188   0.939   6.717  0.5379 -0.3668 -0.3508
  129OSM    H6T13818   2.367   0.955   6.680 -1.1011  1.6491 -1.7670
  129OSM    C7S13819   2.292   0.836   6.849  0.3016  0.1534  0.3321
  129OSM    H7S13820   2.372   0.761   6.862 -1.3856 -1.9325 -0.6919
  129OSM    H7T13821   2.205   0.774   6.880  0.3334  0.7327  1.6191
  129OSM    C8S13822   2.305   0.939   6.967  0.3610 -0.4902  1.4167
  129OSM    H8S13823   2.265   1.036   6.931  0.5663 -0.9636 -0.1914
  129OSM    H8T13824   2.412   0.970   6.970  0.1565  0.1686  2.2027
  129OSM    C9S13825   2.248   0.895   7.101  0.4101 -0.7136 -0.5207
  129OSM    H9S13826   2.277   0.788   7.110  1.2940 -0.4528 -0.1955
  129OSM    H9T13827   2.137   0.884   7.098  0.3566 -0.2935 -0.2116
  129OSM   C10S13828   2.314   0.967   7.227  0.0575  0.3399  0.4243
  129OSM   H10S13829   2.274   1.070   7.226 -0.5503  0.1095 -0.3677
  129OSM   H10T13830   2.424   0.971   7.213  0.0379 -0.7796 -0.1814
  129OSM   C11S13831   2.299   0.890   7.358 -0.0355  1.0071  0.5561
  129OSM   H11S13832   2.372   0.806   7.357  0.2340  1.2224  1.2844
  129OSM   H11T13833   2.193   0.857   7.355  0.0036  0.9634 -1.1044
  129OSM   C12S13834   2.325   0.983   7.481  0.6814  0.4671 -0.3996
  129OSM   H12S13835   2.250   1.064   7.486 -0.2908 -0.4628  2.4874
  129OSM   H12T13836   2.426   1.016   7.449  1.0093  0.9691  1.0596
  129OSM   C13S13837   2.320   0.905   7.614  0.2731  0.8546 -0.2006
  129OSM   H13S13838   2.395   0.824   7.608  0.5538  1.1869 -1.5543
  129OSM   H13T13839   2.223   0.854   7.628  1.1823 -0.7837  0.2999
  129OSM   C14S13840   2.362   0.982   7.742  0.4152  0.5067  0.4432
  129OSM   H14S13841   2.302   1.076   7.741  1.7779  1.3968 -0.7957
  129OSM   H14T13842   2.468   1.016   7.747  0.1109  1.5904 -0.1410
  129OSM   C15S13843   2.330   0.898   7.866  0.1054  0.7555 -0.4383
  129OSM   H15S13844   2.368   0.795   7.850 -1.8186  0.1964 -1.8251
  129OSM   H15T13845   2.220   0.883   7.876  0.2878  0.7185  2.2914
  129OSM   C16S13846   2.379   0.968   8.000  0.2231  0.3471 -0.3198
  129OSM   H16S13847   2.329   1.066   8.015 -3.1742 -1.0730 -1.5113
  129OSM   H16T13848   2.485   0.990   7.973 -0.1607  0.2672 -2.0083
  129OSM   C17S13849   2.367   0.875   8.123  0.1926  0.0171  0.9255
  129OSM   H17S13850   2.426   0.784   8.098 -1.4361 -1.1525  1.1145
  129OSM   H17T13851   2.257   0.863   8.138 -0.2812  1.6873 -0.8147
  129OSM   C18S13852   2.422   0.934   8.248 -0.1032  0.3211 -0.3212
  129OSM   H18S13853   2.533   0.937   8.240 -0.2356  1.0818 -2.3064
  129OSM   H18T13854   2.397   0.863   8.330  1.1262  0.9520  0.6535
  129OSM   H18U13855   2.387   1.037   8.270 -0.6603  0.0281  0.2065
  129OSM    C1F13856   2.591   0.392   6.565 -0.6444  0.1400  0.5868
  129OSM     OF13857   2.662   0.428   6.466  0.1810 -0.3891  0.6780
  129OSM    C2F13858   2.655   0.308   6.673 -0.0981  1.1182  0.3241
  129OSM    H2F13859   2.743   0.270   6.617 -1.6342  1.7788 -2.6875
  129OSM    H2G13860   2.581   0.230   6.700 -1.0428  1.4849 -1.1247
  129OSM    C3F13861   2.704   0.387   6.792 -0.1024 -0.4033 -0.5336
  129OSM    H3F13862   2.618   0.441   6.837 -1.7723 -0.0773 -3.8251
  129OSM    H3G13863   2.776   0.462   6.752  0.4072 -0.1689  0.7776
  129OSM    C4F13864   2.772   0.298   6.896  0.3451 -1.0355 -0.0478
  129OSM    H4F13865   2.871   0.270   6.854  1.5690 -0.8293  2.4872
  129OSM    H4G13866   2.721   0.205   6.928 -0.6043 -0.7973 -0.8076
  129OSM    C5F13867   2.807   0.377   7.030  0.8223  0.0819  0.6560
  129OSM    H5F13868   2.706   0.417   7.051  0.6591  0.7061 -1.1280
  129OSM    H5G13869   2.887   0.453   7.015 -0.8050  1.9518  1.0604
  129OSM    C6F13870   2.846   0.285   7.146 -0.3260  0.1524  0.8846
  129OSM    H6F13871   2.947   0.239   7.142 -0.3675  0.1239 -0.3101
  129OSM    H6G13872   2.769   0.204   7.147 -0.2370  0.0667  0.7430
  129OSM    C7F13873   2.847   0.357   7.285 -0.0765  0.1588  0.5605
  129OSM    H7F13874   2.763   0.429   7.287 -0.1455  0.4315 -3.4158
  129OSM    H7G13875   2.937   0.422   7.284 -0.7505  1.1070  0.4450
  129OSM    C8F13876   2.849   0.261   7.406  0.3470 -0.0539 -0.1593
  129OSM    H8F13877   2.953   0.222   7.411  0.1545 -0.9279 -1.9891
  129OSM    H8G13878   2.777   0.178   7.391 -2.8844  2.3320  1.0480
  129OSM    C9F13879   2.812   0.331   7.537  0.7560  0.0811  0.5266
  129OSM    H9F13880   2.740   0.410   7.515  1.3141  0.5188  0.2285
  129OSM   C10F13881   2.854   0.310   7.660 -0.3694  0.4436 -0.7250
  129OSM   H10F13882   2.816   0.364   7.748 -1.3059 -3.0096  1.2053
  129OSM   C11F13883   2.958   0.205   7.708  0.2577  0.3721  0.1267
  129OSM   H11F13884   3.052   0.261   7.726  1.8347 -1.8750 -0.6754
  129OSM   H11G13885   2.973   0.125   7.633  0.0006 -0.1756  0.6461
  129OSM   C12F13886   2.921   0.122   7.837 -0.1686 -0.5934 -0.0452
  129OSM   H12F13887   2.823   0.071   7.835 -0.8544  0.6947 -0.5050
  129OSM   H12G13888   2.909   0.191   7.923  1.8678 -0.9569  0.6066
  129OSM   C13F13889   3.048   0.036   7.858  0.3228  0.1931  0.0660
  129OSM   H13F13890   3.143   0.092   7.842  1.1384 -1.6502 -1.9878
  129OSM   H13G13891   3.067  -0.051   7.792  0.7069 -0.2756  0.7671
  129OSM   C14F13892   3.040  -0.036   7.994 -0.1309 -0.3966 -0.1137
  129OSM   H14F13893   3.123  -0.110   7.994 -0.5752 -0.8983 -0.3677
  129OSM   H14G13894   2.947  -0.096   7.998  0.2269 -0.8918  1.6137
  129OSM   C15F13895   3.052   0.061   8.110  0.1536  0.1990 -0.7528
  129OSM   H15F13896   2.954   0.113   8.107 -0.4636 -0.9227 -0.6078
  129OSM   H15G13897   3.136   0.132   8.092  0.5881  0.3548  1.5210
  129OSM   C16F13898   3.067   0.001   8.249  0.2274  0.9222 -0.4321
  129OSM   H16F13899   3.149  -0.073   8.244 -1.0147 -0.3970 -3.1090
  129OSM   H16G13900   2.970  -0.053   8.258  0.6733  0.2362  0.4103
  129OSM   C17F13901   3.097   0.092   8.370  0.3808  0.3149 -1.1029
  129OSM   H17F13902   3.018   0.169   8.361 -0.3913 -0.2955  0.0602
  129OSM   H17G13903   3.197   0.140   8.376 -0.0591  1.1288  0.5993
  129OSM   C18F13904   3.074   0.018   8.503  0.1410  0.8384  0.1567
  129OSM   H18F13905   2.978  -0.035   8.485  1.5133 -0.8873 -2.7250
  129OSM   H18G13906   3.057   0.087   8.588  0.4398 -0.9356  1.7219
  129OSM   H18H13907   3.155  -0.057   8.519 -2.2872 -2.7187 -2.7022
  130OSM      N13908   2.195   3.670   6.260  0.0312 -0.1859 -0.0599
  130OSM    C1513909   2.204   3.572   6.147 -0.2010  0.0113 -0.6506
  130OSM   H15A13910   2.301   3.576   6.100 -1.1035  0.3459 -2.5506
  130OSM   H15B13911   2.136   3.588   6.065 -1.2107  0.8741  0.3208
  130OSM   H15C13912   2.186   3.468   6.173  0.2104 -0.5458 -2.4733
  130OSM    C1413913   2.316   3.663   6.347  0.0718  0.4712 -0.3356
  130OSM   H14A13914   2.308   3.737   6.426 -0.3845  0.3908 -0.3028
  130OSM   H14B13915   2.401   3.684   6.284  1.1033 -0.2134  0.7913
  130OSM   H14C13916   2.324   3.569   6.399  1.0886  1.0961  0.6909
  130OSM    C1313917   2.198   3.805   6.194  0.2519  0.3021  0.3609
  130OSM   H13A13918   2.172   3.877   6.269 -1.2640 -0.3077  0.4779
  130OSM   H13B13919   2.127   3.820   6.113  0.1304 -0.9139  0.2168
  130OSM   H13C13920   2.297   3.833   6.162  0.9390 -0.2051  1.9369
  130OSM    C1213921   2.065   3.643   6.335 -0.5046 -0.3086  0.2013
  130OSM   H12A13922   2.067   3.549   6.389 -0.6208 -0.6264 -0.3265
  130OSM   H12B13923   1.986   3.630   6.261 -2.8968  0.7907  2.4104
  130OSM    C1113924   2.016   3.753   6.438 -0.9078 -0.3810 -0.0704
  130OSM   H11A13925   2.106   3.776   6.499  0.1818 -2.8408 -0.6521
  130OSM   H11B13926   1.943   3.709   6.510  0.2160  0.6267  1.7630
  130OSM      P13927   1.813   3.877   6.321 -0.3779 -0.4584  0.0862
  130OSM    O1313928   1.815   3.982   6.212  0.0856 -0.3606 -0.2845
  130OSM    O1413929   1.778   3.741   6.282 -0.0547  0.2869 -0.3184
  130OSM    O1113930   1.747   3.925   6.452  0.3275 -0.1262  0.1153
  130OSM    O1213931   1.959   3.866   6.377 -0.4598 -0.0693  0.4515
  130OSM    C1S13932   1.766   4.046   6.520  0.4747  0.3058 -0.2048
  130OSM    H1S13933   1.721   4.130   6.463  1.1849  1.1221  0.4090
  130OSM    H1T13934   1.873   4.069   6.539  0.5783 -0.5036  0.2198
  130OSM     NF13935   1.706   4.182   6.723 -0.6569  0.3190  0.3792
  130OSM    HNF13936   1.776   4.197   6.793 -0.4562  0.5320  0.1334
  130OSM    C2S13937   1.697   4.049   6.662  0.3292 -0.3712  0.3466
  130OSM    H2S13938   1.590   4.024   6.645  0.1238 -0.4848  1.6382
  130OSM    C3S13939   1.757   3.935   6.745  0.0785 -1.0056 -0.1634
  130OSM    H3S13940   1.866   3.955   6.753 -0.0813  0.0568 -0.4796
  130OSM     O313941   1.758   3.807   6.687 -0.2423  0.7889  0.3229
  130OSM    HO313942   1.746   3.823   6.594  0.1367  0.3440  0.1935
  130OSM    C4S13943   1.690   3.944   6.883 -0.2798 -0.1546 -0.1677
  130OSM    H4S13944   1.581   3.941   6.874 -0.2324 -1.1721 -0.5138
  130OSM    C5S13945   1.747   3.959   7.007 -0.3306 -0.2858  0.4454
  130OSM    H5S13946   1.857   3.959   7.010 -0.0544 -0.0929 -3.5101
  130OSM    C6S13947   1.676   3.975   7.134  0.2553 -0.1068 -0.8588
  130OSM    H6S13948   1.569   4.000   7.113  0.3559 -1.0309 -2.5993
  130OSM    H6T13949   1.708   4.071   7.180 -2.2360  0.9074 -1.0681
  130OSM    C7S13950   1.691   3.850   7.232 -0.0501 -0.9511 -0.2670
  130OSM    H7S13951   1.799   3.827   7.247  0.4555  0.7451 -1.1431
  130OSM    H7T13952   1.649   3.761   7.181  2.9391 -1.2852 -2.4146
  130OSM    C8S13953   1.622   3.873   7.365 -0.1517 -0.3962  0.1049
  130OSM    H8S13954   1.538   3.802   7.380 -0.8860  0.6632  1.1508
  130OSM    H8T13955   1.561   3.965   7.357 -1.0677 -0.8560  1.4271
  130OSM    C9S13956   1.721   3.888   7.480  0.1459 -0.1590 -1.0396
  130OSM    H9S13957   1.787   3.977   7.481 -1.4330  1.1397 -3.2352
  130OSM    H9T13958   1.779   3.794   7.488 -1.1178 -0.9125 -0.4123
  130OSM   C10S13959   1.640   3.898   7.612 -0.4223 -0.4729 -0.4813
  130OSM   H10S13960   1.556   3.824   7.609 -1.9502  1.1195  0.6123
  130OSM   H10T13961   1.586   3.995   7.613 -1.4931 -1.0530  0.1622
  130OSM   C11S13962   1.727   3.878   7.737 -0.3020 -0.4736  0.0788
  130OSM   H11S13963   1.803   3.802   7.708 -1.1864 -1.0057 -0.9519
  130OSM   H11T13964   1.662   3.838   7.817 -0.1886  0.4174  0.6312
  130OSM   C12S13965   1.794   3.999   7.798  0.1519 -0.5904 -0.0658
  130OSM   H12S13966   1.725   4.085   7.790 -0.4183 -1.0866 -0.5169
  130OSM   H12T13967   1.888   4.024   7.744 -0.0960  0.2380 -0.1249
  130OSM   C13S13968   1.846   3.983   7.942 -0.4630 -0.2589 -0.7167
  130OSM   H13S13969   1.909   3.892   7.946 -1.9515 -1.3196 -0.8065
  130OSM   H13T13970   1.766   3.956   8.014 -0.8671 -0.6808 -1.3128
  130OSM   C14S13971   1.925   4.104   7.981  0.5339 -0.0769 -0.2768
  130OSM   H14S13972   1.862   4.195   7.970 -0.7865 -0.8430  0.7120
  130OSM   H14T13973   2.018   4.117   7.921  1.7331  0.1857  1.5658
  130OSM   C15S13974   1.970   4.096   8.128 -0.3398 -0.7702  0.3977
  130OSM   H15S13975   2.041   4.010   8.131 -1.7108 -2.0334 -1.5309
  130OSM   H15T13976   1.887   4.061   8.193 -2.8021  0.0533 -2.1616
  130OSM   C16S13977   2.034   4.230   8.169 -0.3551 -0.5126 -0.6153
  130OSM   H16S13978   1.961   4.312   8.151 -0.9215 -0.6955  0.7263
  130OSM   H16T13979   2.118   4.261   8.103 -0.5496  0.0702 -0.5985
  130OSM   C17S13980   2.088   4.227   8.315  0.0189  0.2094  0.5012
  130OSM   H17S13981   2.129   4.325   8.348  1.0290 -0.7662  2.2899
  130OSM   H17T13982   2.176   4.160   8.313 -1.2888 -1.7009  2.4620
  130OSM   C18S13983   1.989   4.181   8.424  0.0925  0.4593 -0.2101
  130OSM   H18S13984   1.896   4.242   8.422 -1.6387 -1.9757  0.4641
  130OSM   H18T13985   2.031   4.185   8.527  0.3310 -1.6919 -0.1697
  130OSM   H18U13986   1.954   4.076   8.410 -1.4289  0.7119  1.3427
  130OSM    C1F13987   1.632   4.289   6.684  0.1219  0.4692 -0.7900
  130OSM     OF13988   1.542   4.272   6.598 -0.3865  0.0419 -0.0997
  130OSM    C2F13989   1.676   4.425   6.729  0.0888 -0.3699  0.4238
  130OSM    H2F13990   1.592   4.494   6.708 -0.0837 -0.1639  1.7201
  130OSM    H2G13991   1.754   4.459   6.658  0.5980 -0.9190  0.7077
  130OSM    C3F13992   1.716   4.435   6.878 -0.1313  0.0715 -0.1893
  130OSM    H3F13993   1.753   4.539   6.893  0.4447 -0.2609  0.7687
  130OSM    H3G13994   1.802   4.367   6.893 -1.1409 -1.4299 -0.9402
  130OSM    C4F13995   1.598   4.415   6.974  0.0025  0.1037 -1.1017
  130OSM    H4F13996   1.534   4.330   6.942  0.6147 -0.4351 -0.9123
  130OSM    H4G13997   1.545   4.512   6.969  2.0004  1.2976 -0.3952
  130OSM    C5F13998   1.634   4.389   7.118  0.4404  0.0498 -0.2817
  130OSM    H5F13999   1.674   4.480   7.167 -0.5096 -0.5318  1.6575
  130OSM    H5G14000   1.709   4.307   7.126  0.0393 -0.1782  1.7493
  130OSM    C6F14001   1.519   4.322   7.196 -0.3651 -0.1656 -0.8594
  130OSM    H6F14002   1.497   4.215   7.180  2.5738 -0.7561 -1.5459
  130OSM    H6G14003   1.430   4.382   7.169 -0.0987 -0.1547 -1.7666
  130OSM    C7F14004   1.535   4.337   7.352  0.2329  0.1551  0.0712
  130OSM    H7F14005   1.571   4.440   7.375  0.4686 -0.0465  0.6341
  130OSM    H7G14006   1.624   4.276   7.380 -0.6169 -1.4040 -0.5175
  130OSM    C8F14007   1.415   4.313   7.450 -0.0856 -0.3878 -0.5243
  130OSM    H8F14008   1.341   4.384   7.407 -0.8415 -0.4620  0.6107
  130OSM    H8G14009   1.425   4.363   7.548  1.1096 -1.1771 -0.2221
  130OSM    C9F14010   1.359   4.171   7.455 -0.3133  0.2167  0.0716
  130OSM    H9F14011   1.369   4.112   7.363 -1.5783 -0.7979  0.5550
  130OSM   C10F14012   1.314   4.115   7.568  0.1120  0.7718 -0.6940
  130OSM   H10F14013   1.284   4.009   7.572 -2.2153  1.4127  0.1886
  130OSM   C11F14014   1.296   4.173   7.706  0.5089  0.1981  0.0155
  130OSM   H11F14015   1.307   4.284   7.712  1.5071  0.2897 -2.4230
  130OSM   H11G14016   1.371   4.129   7.775  0.5227  0.2879  0.0578
  130OSM   C12F14017   1.157   4.126   7.760  0.1469  0.7229  0.4393
  130OSM   H12F14018   1.147   4.016   7.744 -0.4453  0.7837  0.3695
  130OSM   H12G14019   1.092   4.185   7.693  1.8566  0.6654 -1.3813
  130OSM   C13F14020   1.136   4.148   7.906 -0.0795  0.1604 -0.3463
  130OSM   H13F14021   1.131   4.256   7.932  2.4890  0.0223  1.0176
  130OSM   H13G14022   1.223   4.109   7.963  0.9214  1.2469 -1.1015
  130OSM   C14F14023   1.000   4.083   7.942 -0.7227  0.0123  0.3653
  130OSM   H14F14024   1.018   3.975   7.961 -1.4808 -0.0851  0.5530
  130OSM   H14G14025   0.933   4.101   7.855  0.6951  2.4068 -0.3264
  130OSM   C15F14026   0.947   4.159   8.064  0.1521  0.1994  0.0176
  130OSM   H15F14027   0.838   4.141   8.076  0.2886  0.7514  2.6503
  130OSM   H15G14028   0.968   4.268   8.055 -0.7261  0.7182  3.1921
  130OSM   C16F14029   1.005   4.102   8.196 -0.3173 -0.0333 -0.3780
  130OSM   H16F14030   1.111   4.118   8.222 -0.3682 -0.5361  0.1600
  130OSM   H16G14031   0.985   3.993   8.202  0.4975 -0.3315 -2.2926
  130OSM   C17F14032   0.925   4.176   8.315 -0.1896 -0.4379  0.4433
  130OSM   H17F14033   0.936   4.123   8.411 -0.4071  0.4604  0.9787
  130OSM   H17G14034   0.817   4.179   8.290 -0.2502 -2.6647  0.2975
  130OSM   C18F14035   0.971   4.319   8.339 -0.3078 -0.1707 -0.5274
  130OSM   H18F14036   0.908   4.368   8.416  0.1991  1.7455 -1.2731
  130OSM   H18G14037   0.959   4.380   8.247  0.3806  0.9120  0.0747
  130OSM   H18H14038   1.080   4.320   8.361 -0.3207  0.1484 -0.4647
  131OSM      N14039   4.079   3.143   6.062 -0.1036  0.4253  0.6899
  131OSM    C1514040   4.221   3.177   6.038  0.0915  0.3388  0.2339
  131OSM   H15A14041   4.234   3.158   5.932  0.0144 -0.5599  0.3748
  131OSM   H15B14042   4.292   3.122   6.098 -0.2364  0.1418  0.4426
  131OSM   H15C14043   4.243   3.282   6.045 -1.3852  0.7413 -0.5988
  131OSM    C1414044   3.990   3.228   5.972 -0.3768  0.5705 -0.4651
  131OSM   H14A14045   4.011   3.332   5.988 -0.5738  0.4486  0.7233
  131OSM   H14B14046   3.884   3.209   5.980 -0.2734 -0.2494 -0.9359
  131OSM   H14C14047   4.016   3.211   5.869 -3.4057 -1.3431 -1.0384
  131OSM    C1314048   4.056   2.996   6.033  0.5889  0.1708  0.1423
  131OSM   H13A14049   3.950   2.980   6.043  0.6496 -0.2263  0.1825
  131OSM   H13B14050   4.100   2.927   6.104  0.5024  1.1293  1.1573
  131OSM   H13C14051   4.073   2.971   5.930 -1.6241  1.7223 -0.6552
  131OSM    C1214052   4.041   3.174   6.203  0.4805  0.2059 -0.0431
  131OSM   H12A14053   4.069   3.088   6.262 -0.8223  0.5982  1.1982
  131OSM   H12B14054   3.933   3.179   6.206  0.3991  0.0512 -1.7160
  131OSM    C1114055   4.081   3.307   6.271  0.4061 -0.7235  0.2342
  131OSM   H11A14056   4.190   3.321   6.258  0.2065 -0.3590 -1.1464
  131OSM   H11B14057   4.060   3.307   6.380 -1.6295  0.1599 -0.1185
  131OSM      P14058   3.858   3.449   6.238 -0.2764  0.0989  0.2132
  131OSM    O1314059   3.814   3.573   6.170  0.1234 -0.7316  0.2571
  131OSM    O1414060   3.786   3.318   6.211  0.6669 -0.2410 -0.4978
  131OSM    O1114061   3.863   3.478   6.397  0.0339 -0.1989 -0.7049
  131OSM    O1214062   4.008   3.413   6.206 -0.1362 -0.0147 -0.1311
  131OSM    C1S14063   3.940   3.591   6.456  0.0382  0.3647 -0.9441
  131OSM    H1S14064   3.916   3.682   6.398  2.1938  1.7272  0.1794
  131OSM    H1T14065   4.050   3.579   6.462 -0.0566  0.2538  2.4478
  131OSM     NF14066   3.929   3.747   6.664 -0.1338 -0.3422 -0.0674
  131OSM    HNF14067   4.001   3.763   6.731 -0.1219  0.7538 -0.3213
  131OSM    C2S14068   3.896   3.618   6.613  0.5858  0.3019 -0.2525
  131OSM    H2S14069   3.787   3.596   6.619  0.6679 -0.1454 -0.3667
  131OSM    C3S14070   3.965   3.502   6.686  0.8265 -0.0849 -0.2104
  131OSM    H3S14071   4.076   3.509   6.686  1.2042 -3.9812  0.2297
  131OSM     O314072   3.959   3.372   6.623  0.5484 -0.3798 -0.6085
  131OSM    HO314073   3.931   3.388   6.532 -0.1070  1.7076 -0.0923
  131OSM    C4S14074   3.922   3.495   6.827 -0.3263 -0.1489  0.1217
  131OSM    H4S14075   3.984   3.562   6.889 -0.0748  1.9566 -2.2151
  131OSM    C5S14076   3.819   3.433   6.890 -0.4491  0.3701 -0.5757
  131OSM    H5S14077   3.740   3.377   6.838 -0.6350  1.0988 -1.1016
  131OSM    C6S14078   3.804   3.454   7.040  0.1056 -0.2775 -0.3719
  131OSM    H6S14079   3.708   3.499   7.072  1.0917  0.2611  2.0601
  131OSM    H6T14080   3.878   3.522   7.089 -1.0964 -1.0189  2.7137
  131OSM    C7S14081   3.808   3.323   7.126 -0.7581 -0.6630  0.5311
  131OSM    H7S14082   3.889   3.256   7.090 -1.1432 -1.3204  0.8607
  131OSM    H7T14083   3.716   3.263   7.108  1.1246 -4.4569  2.3753
  131OSM    C8S14084   3.825   3.357   7.276  0.5451  0.1508 -0.4351
  131OSM    H8S14085   3.903   3.436   7.283 -1.7201  2.3840  2.6121
  131OSM    H8T14086   3.859   3.262   7.323  1.3883  1.3965  1.5868
  131OSM    C9S14087   3.700   3.416   7.340 -0.1016  0.2696  0.6732
  131OSM    H9S14088   3.636   3.328   7.363  1.9378 -1.3686  0.4291
  131OSM    H9T14089   3.645   3.483   7.270 -1.4110  1.0761  2.4100
  131OSM   C10S14090   3.729   3.504   7.469  0.2753  0.1510  0.5198
  131OSM   H10S14091   3.637   3.552   7.509 -0.4925 -0.7045 -0.1690
  131OSM   H10T14092   3.805   3.577   7.435 -0.3432  0.8978  0.7268
  131OSM   C11S14093   3.787   3.406   7.573 -0.7134  1.1179  0.2242
  131OSM   H11S14094   3.880   3.356   7.539 -1.7425  0.3875 -1.6085
  131OSM   H11T14095   3.716   3.324   7.595 -2.0224  2.3960  0.9408
  131OSM   C12S14096   3.817   3.487   7.703 -0.1998 -0.3190  0.7220
  131OSM   H12S14097   3.873   3.577   7.670  0.5053 -1.1771 -0.5173
  131OSM   H12T14098   3.881   3.417   7.760 -0.4056 -0.8522  0.3165
  131OSM   C13S14099   3.691   3.537   7.778  0.5691  0.3363  0.4448
  131OSM   H13S14100   3.620   3.454   7.798 -0.5220  1.3995  1.0895
  131OSM   H13T14101   3.631   3.609   7.719  1.0605 -0.6914 -1.4056
  131OSM   C14S14102   3.717   3.605   7.917 -0.1692 -0.3646  0.3436
  131OSM   H14S14103   3.627   3.661   7.949  0.0106  0.2868 -0.2563
  131OSM   H14T14104   3.782   3.692   7.894 -0.8791 -0.0142 -0.3948
  131OSM   C15S14105   3.766   3.510   8.021  0.3458  0.6105  0.5572
  131OSM   H15S14106   3.873   3.487   8.001  0.2741 -1.8094  2.5747
  131OSM   H15T14107   3.708   3.416   8.013 -1.0058  1.3189  1.6855
  131OSM   C16S14108   3.770   3.562   8.161 -0.5309  0.1780  0.2879
  131OSM   H16S14109   3.677   3.618   8.183 -0.8298  1.0213 -2.7659
  131OSM   H16T14110   3.848   3.641   8.165  0.3008 -0.6254  0.3983
  131OSM   C17S14111   3.788   3.461   8.264 -0.9747 -0.7479  0.6497
  131OSM   H17S14112   3.849   3.377   8.226 -2.0319 -0.9037 -0.7835
  131OSM   H17T14113   3.690   3.415   8.291 -1.1545 -0.9648 -0.3331
  131OSM   C18S14114   3.850   3.525   8.389  0.0251 -0.2154 -0.2270
  131OSM   H18S14115   3.842   3.447   8.467 -1.4754  1.6212  1.5490
  131OSM   H18T14116   3.790   3.613   8.419 -0.2855 -0.5198  0.0457
  131OSM   H18U14117   3.958   3.551   8.384 -0.1876  1.5249  2.3887
  131OSM    C1F14118   3.866   3.857   6.620  0.2369 -0.2615  0.5330
  131OSM     OF14119   3.767   3.845   6.548  0.1809  0.1174 -0.2567
  131OSM    C2F14120   3.933   3.994   6.659  0.1954  0.8088 -0.0378
  131OSM    H2F14121   3.958   4.045   6.564  0.5364  0.4158 -0.1670
  131OSM    H2G14122   4.021   3.958   6.718  0.4264  0.3466 -0.6582
  131OSM    C3F14123   3.848   4.064   6.764 -0.4360 -0.1359  0.3588
  131OSM    H3F14124   3.750   4.088   6.716  0.2930  3.1847  0.3226
  131OSM    H3G14125   3.888   4.166   6.780 -1.7839  0.1362  2.4259
  131OSM    C4F14126   3.853   3.995   6.902 -0.7097  0.0061 -0.4803
  131OSM    H4F14127   3.958   3.984   6.934 -0.7228  2.1209  0.4067
  131OSM    H4G14128   3.829   3.886   6.902 -1.8558  0.2327 -1.4714
  131OSM    C5F14129   3.792   4.072   7.020 -0.6697 -0.4735  0.2486
  131OSM    H5F14130   3.686   4.092   6.994 -0.4744 -1.9229 -2.0310
  131OSM    H5G14131   3.847   4.168   7.030 -0.4648 -0.6428  0.7839
  131OSM    C6F14132   3.808   3.986   7.143  0.0233 -0.3254 -0.1326
  131OSM    H6F14133   3.917   3.972   7.161  0.2424 -0.8577 -1.7073
  131OSM    H6G14134   3.758   3.887   7.140  3.2829 -2.0656 -1.7435
  131OSM    C7F14135   3.757   4.067   7.267  0.3079  1.1780 -0.4991
  131OSM    H7F14136   3.652   4.101   7.253 -0.4514  1.1247  3.8565
  131OSM    H7G14137   3.820   4.158   7.277  1.2736  0.5682 -0.8524
  131OSM    C8F14138   3.748   3.986   7.401  0.0785 -0.0099 -0.0211
  131OSM    H8F14139   3.652   3.934   7.384 -0.9606  1.4125  1.2524
  131OSM    H8G14140   3.727   4.057   7.484 -0.2656  1.0266 -0.9832
  131OSM    C9F14141   3.871   3.903   7.424 -0.1409  0.6330 -0.0530
  131OSM    H9F14142   3.899   3.834   7.342  1.6197 -1.0492  1.8450
  131OSM   C10F14143   3.943   3.913   7.539 -0.3099  0.2235 -0.2648
  131OSM   H10F14144   4.028   3.843   7.544 -0.1097  0.3936 -1.1506
  131OSM   C11F14145   3.923   4.004   7.661 -0.3220  0.1591 -0.1160
  131OSM   H11F14146   3.828   4.061   7.660 -0.9752 -0.8217  1.5309
  131OSM   H11G14147   4.017   4.061   7.678 -0.1903  0.1117 -0.6804
  131OSM   C12F14148   3.901   3.915   7.784 -0.4688  0.8548 -0.5582
  131OSM   H12F14149   3.940   3.811   7.777  1.1976  1.5303 -5.0531
  131OSM   H12G14150   3.792   3.904   7.803 -0.3039 -1.2781 -0.6082
  131OSM   C13F14151   3.970   3.975   7.913  1.1119  0.1559 -0.2441
  131OSM   H13F14152   3.947   4.083   7.914 -0.8647 -0.1292 -3.1645
  131OSM   H13G14153   4.080   3.968   7.898  1.2838  1.9313 -0.0224
  131OSM   C14F14154   3.934   3.911   8.049  0.4723  0.4704  0.7507
  131OSM   H14F14155   3.942   3.801   8.036  1.1135  0.6705 -0.7610
  131OSM   H14G14156   3.825   3.931   8.057  0.3594 -0.7136  2.8291
  131OSM   C15F14157   4.016   3.957   8.169  0.7678  0.0880  0.5293
  131OSM   H15F14158   3.993   4.065   8.184  0.3292  0.1771 -0.6960
  131OSM   H15G14159   4.119   3.922   8.151  1.2632  0.6722  2.0887
  131OSM   C16F14160   3.977   3.885   8.296  0.0823 -0.3278  0.4876
  131OSM   H16F14161   4.033   3.906   8.389 -0.9490  0.6280  0.9166
  131OSM   H16G14162   3.991   3.776   8.276 -0.5024 -0.6433  1.6713
  131OSM   C17F14163   3.834   3.903   8.344  0.4619 -0.4575 -0.2927
  131OSM   H17F14164   3.766   3.858   8.269 -0.8085 -0.5882  0.8993
  131OSM   H17G14165   3.799   4.009   8.350 -0.4590 -0.7623 -0.1172
  131OSM   C18F14166   3.815   3.850   8.485 -0.3960  0.6649 -0.1988
  131OSM   H18F14167   3.893   3.774   8.509 -1.9890 -0.5882  1.1982
  131OSM   H18G14168   3.712   3.811   8.492 -0.7725  1.6716 -0.0034
  131OSM   H18H14169   3.825   3.934   8.556  0.7999  0.3624  0.0134
  132OSM      N14170   5.216   1.432   6.245  0.0334 -0.0290 -0.5686
  132OSM    C1514171   5.340   1.501   6.202 -0.2401  1.3045  0.8455
  132OSM   H15A14172   5.323   1.581   6.132 -0.8483  0.6241  0.2064
  132OSM   H15B14173   5.412   1.431   6.163 -1.9100  0.2433 -0.4456
  132OSM   H15C14174   5.389   1.552   6.284  2.4362  1.9984 -1.0588
  132OSM    C1414175   5.176   1.326   6.147 -0.6264 -0.1305 -0.2945
  132OSM   H14A14176   5.147   1.365   6.051 -0.5670 -0.0184 -0.2680
  132OSM   H14B14177   5.097   1.268   6.191  0.1983 -0.9672  0.1165
  132OSM   H14C14178   5.252   1.252   6.129  1.2914  1.6760  0.0215
  132OSM    C1314179   5.255   1.358   6.368 -0.4705 -0.4225 -0.3618
  132OSM   H13A14180   5.332   1.283   6.359 -1.1269 -1.2524  0.7218
  132OSM   H13B14181   5.165   1.311   6.406 -1.0405  0.5794 -0.4293
  132OSM   H13C14182   5.284   1.432   6.441  1.2157  0.6906 -2.0598
  132OSM    C1214183   5.108   1.532   6.272  0.1872  0.5232  0.8803
  132OSM   H12A14184   5.019   1.480   6.303 -0.0243 -0.1488 -0.7272
  132OSM   H12B14185   5.079   1.567   6.173  0.8696 -0.1057  0.4488
  132OSM    C1114186   5.143   1.657   6.356  0.0314  0.3747  0.0140
  132OSM   H11A14187   5.251   1.679   6.338  0.3446 -0.8372  0.3169
  132OSM   H11B14188   5.139   1.624   6.462 -0.4456 -2.5086 -0.7982
  132OSM      P14189   4.909   1.775   6.293  0.1760  0.4551 -0.0079
  132OSM    O1314190   4.865   1.918   6.316  0.1654 -0.2468 -0.0514
  132OSM    O1414191   4.885   1.710   6.161  0.5523  0.1658  0.2172
  132OSM    O1114192   4.845   1.686   6.406 -0.0341 -0.3587  0.0509
  132OSM    O1214193   5.064   1.768   6.323 -0.9724  0.0361  0.4802
  132OSM    C1S14194   4.884   1.679   6.547  0.6590  0.0982  0.3990
  132OSM    H1S14195   4.967   1.752   6.562  1.3238 -0.8042  1.2563
  132OSM    H1T14196   4.915   1.576   6.577  1.5367  0.1501 -0.2842
  132OSM     NF14197   4.812   1.699   6.781  0.3526  0.6339 -0.1875
  132OSM    HNF14198   4.749   1.647   6.838  0.5856  2.1134  1.5216
  132OSM    C2S14199   4.770   1.720   6.648 -0.1224 -0.1637 -0.1992
  132OSM    H2S14200   4.764   1.830   6.630  2.9229  0.1961  0.4469
  132OSM    C3S14201   4.635   1.650   6.622 -0.1006 -0.0432  0.1413
  132OSM    H3S14202   4.646   1.543   6.650  0.4297 -0.2723 -0.9021
  132OSM     O314203   4.591   1.643   6.486 -0.6673  0.0637  0.9640
  132OSM    HO314204   4.669   1.687   6.452  0.0637 -0.6610  1.6664
  132OSM    C4S14205   4.523   1.714   6.694  0.4051 -0.3305  0.7247
  132OSM    H4S14206   4.496   1.812   6.651  3.1670  0.3061  0.2286
  132OSM    C5S14207   4.451   1.662   6.791  0.4073 -0.3150  0.0905
  132OSM    H5S14208   4.491   1.567   6.829 -1.0666 -0.6443  0.8920
  132OSM    C6S14209   4.334   1.721   6.867  0.0981 -0.0351 -0.8408
  132OSM    H6S14210   4.342   1.709   6.977 -1.4540  1.4774 -0.5117
  132OSM    H6T14211   4.235   1.677   6.840 -0.1455 -0.7454  1.0666
  132OSM    C7S14212   4.322   1.880   6.856  0.1651 -0.4255 -0.0788
  132OSM    H7S14213   4.293   1.907   6.752  0.0863 -1.0971 -0.2418
  132OSM    H7T14214   4.424   1.918   6.880 -0.5496  0.2187  2.1623
  132OSM    C8S14215   4.217   1.942   6.944  0.3651  0.1909  0.2069
  132OSM    H8S14216   4.118   1.899   6.920 -0.5127  1.6711  1.0273
  132OSM    H8T14217   4.203   2.051   6.932 -0.8008  0.3508  2.4379
  132OSM    C9S14218   4.249   1.924   7.095 -0.2028  0.3692  0.4765
  132OSM    H9S14219   4.351   1.963   7.110  1.0202 -2.0979 -0.7855
  132OSM    H9T14220   4.261   1.817   7.125 -1.2216 -0.1953 -1.0362
  132OSM   C10S14221   4.142   1.994   7.188  1.0450 -0.5494  1.4495
  132OSM   H10S14222   4.045   1.943   7.167  1.1295 -0.7872  1.6321
  132OSM   H10T14223   4.130   2.098   7.151  1.5902 -1.2528 -0.9135
  132OSM   C11S14224   4.178   1.988   7.338  0.1894  0.4113  0.1424
  132OSM   H11S14225   4.284   2.023   7.342  0.1915  0.4964 -0.6126
  132OSM   H11T14226   4.174   1.883   7.376  3.5484  0.1055 -0.0149
  132OSM   C12S14227   4.095   2.089   7.422 -0.1942  0.4736  0.0524
  132OSM   H12S14228   3.989   2.058   7.418 -0.2412  0.4840  0.9876
  132OSM   H12T14229   4.095   2.186   7.368  1.5952  0.9460  0.8151
  132OSM   C13S14230   4.158   2.103   7.565 -0.5990  0.6823  0.0347
  132OSM   H13S14231   4.248   2.167   7.548 -1.0996  1.4607  0.2819
  132OSM   H13T14232   4.196   2.002   7.591 -2.4686 -0.1056 -0.1908
  132OSM   C14S14233   4.070   2.175   7.667  0.2565  0.0101  0.3707
  132OSM   H14S14234   3.974   2.119   7.674  0.4997 -0.1802  2.9908
  132OSM   H14T14235   4.044   2.281   7.649 -1.8523 -0.7203 -1.3565
  132OSM   C15S14236   4.122   2.160   7.813  0.6148 -0.0872 -0.3193
  132OSM   H15S14237   4.220   2.209   7.833 -0.7537  2.5779  0.3319
  132OSM   H15T14238   4.127   2.052   7.839 -0.6343 -0.1916 -0.4550
  132OSM   C16S14239   4.029   2.232   7.910  0.0188  0.5479  0.4706
  132OSM   H16S14240   3.921   2.208   7.907 -0.2938  1.9656 -1.2325
  132OSM   H16T14241   4.045   2.342   7.907  3.4732  0.2132  1.5849
  132OSM   C17S14242   4.058   2.193   8.056  0.6053  0.4991  0.0537
  132OSM   H17S14243   4.159   2.224   8.091  2.2001 -2.0422 -1.9909
  132OSM   H17T14244   4.070   2.083   8.056 -0.0779  0.4243  0.5135
  132OSM   C18S14245   3.941   2.217   8.157 -0.1626  0.6857 -0.2069
  132OSM   H18S14246   3.986   2.195   8.256 -1.0523 -0.3671 -0.0310
  132OSM   H18T14247   3.859   2.146   8.134 -0.5343  1.4107 -1.1824
  132OSM   H18U14248   3.902   2.321   8.149  1.4483  1.2199 -1.6828
  132OSM    C1F14249   4.924   1.750   6.829 -0.7213 -0.6514  0.1505
  132OSM     OF14250   4.990   1.832   6.763 -0.0082  0.1975 -0.1062
  132OSM    C2F14251   4.960   1.720   6.974 -0.3299  0.0612  0.0816
  132OSM    H2F14252   4.920   1.620   7.002 -0.9916  0.6435  1.3170
  132OSM    H2G14253   4.909   1.794   7.039  0.0304  0.7979 -0.4615
  132OSM    C3F14254   5.112   1.719   7.009  0.2216  0.0893 -0.9027
  132OSM    H3F14255   5.156   1.820   6.990 -1.4102  0.5573 -2.4509
  132OSM    H3G14256   5.169   1.646   6.947 -0.4205  0.6629 -2.2176
  132OSM    C4F14257   5.120   1.697   7.163 -0.1500  0.0992 -0.1950
  132OSM    H4F14258   5.230   1.696   7.184 -0.1048  1.5424 -0.3111
  132OSM    H4G14259   5.083   1.595   7.187  2.2461 -1.0794 -1.0643
  132OSM    C5F14260   5.064   1.812   7.248  0.4392 -0.1669  1.4241
  132OSM    H5F14261   4.956   1.829   7.234  0.7483  1.7200  1.0584
  132OSM    H5G14262   5.118   1.900   7.207  0.1165  0.1361  1.6457
  132OSM    C6F14263   5.100   1.811   7.398  0.4629 -0.1263 -0.7818
  132OSM    H6F14264   5.209   1.804   7.417  0.4471  0.5708 -0.3894
  132OSM    H6G14265   5.051   1.721   7.441  0.9437  0.7013  1.6883
  132OSM    C7F14266   5.039   1.933   7.471  0.4307 -0.0233 -1.0454
  132OSM    H7F14267   4.933   1.927   7.438 -0.0861  0.9972  0.2895
  132OSM    H7G14268   5.082   2.028   7.432 -0.5925 -0.3876 -3.1949
  132OSM    C8F14269   5.037   1.936   7.629  0.7960 -0.1558  0.8449
  132OSM    H8F14270   4.987   2.031   7.658  0.1767 -0.1183 -0.2945
  132OSM    H8G14271   5.141   1.940   7.667  0.4913 -1.3770  1.9013
  132OSM    C9F14272   4.975   1.810   7.688  0.3506  0.8412  0.4024
  132OSM    H9F14273   4.995   1.712   7.643 -0.9241 -0.7128  2.9466
  132OSM   C10F14274   4.913   1.799   7.803  0.0923 -0.4965 -0.1576
  132OSM   H10F14275   4.876   1.700   7.833 -0.8253 -0.1239 -0.0366
  132OSM   C11F14276   4.869   1.908   7.899 -0.4400 -0.3100  0.1203
  132OSM   H11F14277   4.758   1.912   7.885 -0.2693 -0.1791 -1.4775
  132OSM   H11G14278   4.894   2.014   7.873 -0.1716 -0.4929 -0.3782
  132OSM   C12F14279   4.912   1.892   8.040  0.6518 -0.5520 -0.0431
  132OSM   H12F14280   5.023   1.884   8.048  0.6588 -0.4814 -0.0650
  132OSM   H12G14281   4.863   1.798   8.072 -1.5008 -0.6394 -3.1355
  132OSM   C13F14282   4.860   2.007   8.135 -0.6665  0.1870 -0.1281
  132OSM   H13F14283   4.766   2.047   8.092 -0.4907  0.6902 -0.0541
  132OSM   H13G14284   4.939   2.085   8.136  0.0687 -0.5155 -1.3852
  132OSM   C14F14285   4.841   1.963   8.287 -0.6454  0.0293  0.0558
  132OSM   H14F14286   4.778   1.873   8.274 -1.5685  0.7271 -0.4304
  132OSM   H14G14287   4.790   2.042   8.347 -1.9380 -0.3701 -0.4827
  132OSM   C15F14288   4.977   1.916   8.340 -0.1602 -0.8537  0.5903
  132OSM   H15F14289   5.062   1.985   8.319 -1.2393  0.2423 -0.3504
  132OSM   H15G14290   5.006   1.826   8.282 -0.3304  0.8837 -2.4190
  132OSM   C16F14291   4.971   1.885   8.495 -1.3400 -0.3400 -0.1547
  132OSM   H16F14292   5.063   1.828   8.520 -0.6172  0.6344 -0.5327
  132OSM   H16G14293   4.887   1.818   8.522 -0.4031 -0.8595  1.6078
  132OSM   C17F14294   4.969   2.005   8.583 -0.3133 -0.2511  0.1615
  132OSM   H17F14295   4.958   1.972   8.689 -1.4375  1.7133  0.7017
  132OSM   H17G14296   4.877   2.060   8.557  2.3576  3.9448 -1.3265
  132OSM   C18F14297   5.097   2.102   8.576  0.3022 -0.2459 -0.2517
  132OSM   H18F14298   5.125   2.140   8.476 -1.7474 -0.7915 -1.0797
  132OSM   H18G14299   5.180   2.047   8.626 -1.1570 -1.1371  1.2827
  132OSM   H18H14300   5.083   2.192   8.641  3.1630 -0.3242  0.5994
  133SAPE     N14301   3.671   4.685  10.960  0.8740  0.3294  0.4926
  133SAPE   HN114302   3.585   4.650  10.913 -0.5084  1.7961  1.8199
  133SAPE   HN214303   3.749   4.624  10.928  2.1487  2.2063 -0.1703
  133SAPE   HN314304   3.651   4.679  11.061 -0.0617 -0.8119  0.2591
  133SAPE   C1214305   3.703   4.826  10.915 -0.0008  0.0623 -0.2876
  133SAPE  H12A14306   3.750   4.866  11.008 -0.4155  0.6181 -0.3165
  133SAPE  H12B14307   3.611   4.884  10.893  0.4203  0.1302 -1.9560
  133SAPE   C1114308   3.793   4.828  10.794  0.0129 -0.1147  1.0779
  133SAPE  H11A14309   3.794   4.937  10.772  0.0358 -0.2642  0.2861
  133SAPE  H11B14310   3.758   4.790  10.696  1.9836  2.4984 -0.7983
  133SAPE     P14311   3.989   4.649  10.794  0.1424 -0.4559  0.2059
  133SAPE   O1314312   4.132   4.658  10.844 -0.5655  0.0185  0.1010
  133SAPE   O1414313   3.899   4.547  10.849 -0.1782  0.3099  0.1089
  133SAPE   O1214314   3.935   4.800  10.813  0.4780 -0.2606 -0.1930
  133SAPE   O1114315   3.980   4.634  10.632  0.3295  0.1558 -0.4402
  133SAPE    C114316   4.095   4.694  10.567 -0.2790  0.2436  0.5610
  133SAPE    HA14317   4.115   4.799  10.597  2.4655 -0.8452  3.0008
  133SAPE    HB14318   4.180   4.628  10.593 -2.1669 -1.9186  1.5784
  133SAPE    C214319   4.068   4.700  10.406 -1.2934 -0.2915 -0.4327
  133SAPE    HS14320   4.148   4.766  10.368 -0.0378  0.1089  2.5626
  133SAPE   O2114321   3.935   4.745  10.381 -0.1506 -0.5495  0.2025
  133SAPE   C2114322   3.914   4.878  10.399 -0.4565  0.5082  0.0347
  133SAPE   O2214323   4.007   4.949  10.440  0.3087  0.1244  0.0879
  133SAPE   C2214324   3.778   4.924  10.344 -0.3477 -0.1815 -0.0584
  133SAPE   H2R14325   3.798   4.952  10.238 -1.7800  1.7238  0.1211
  133SAPE   H2S14326   3.707   4.839  10.333 -0.9026 -0.0209  1.9115
  133SAPE    C314327   4.087   4.557  10.350 -0.3561 -0.0470 -0.1683
  133SAPE    HX14328   4.037   4.485  10.418  1.9040  0.4047  2.1125
  133SAPE    HY14329   4.195   4.542  10.367 -0.1554  0.1516 -1.2390
  133SAPE   O3114330   4.052   4.558  10.212  0.0954  0.6209  0.5050
  133SAPE   C3114331   3.919   4.535  10.190 -0.1462 -0.6411 -0.3549
  133SAPE   O3214332   3.841   4.494  10.265 -0.1632  0.3796 -0.5035
  133SAPE   C3214333   3.884   4.579  10.044 -0.5383 -0.2138 -0.1464
  133SAPE   H2X14334   3.778   4.557  10.024  0.2071 -2.2321 -2.2468
  133SAPE   H2Y14335   3.950   4.518   9.979  0.8293 -0.4498  1.3905
  133SAPE   C2314336   3.722   5.045  10.416 -0.4734  0.1860  0.3246
  133SAPE   H3R14337   3.799   5.104  10.470 -0.5514  0.6341 -0.0435
  133SAPE   H3S14338   3.662   5.014  10.504  2.4211 -0.2417  2.2849
  133SAPE   C2414339   3.650   5.153  10.328 -0.2164 -0.0178  0.1343
  133SAPE   H4R14340   3.722   5.172  10.246  1.4009  0.5197  1.6228
  133SAPE   H4S14341   3.640   5.253  10.375  0.7357 -0.2776  0.9301
  133SAPE   C2514342   3.513   5.108  10.275  0.0606 -0.1026 -0.1965
  133SAPE   H5R14343   3.431   5.115  10.348 -0.4456  2.6028 -0.9118
  133SAPE   C2614344   3.489   5.048  10.156  0.2303 -0.6626  0.7762
  133SAPE   H6R14345   3.388   5.021  10.122 -0.0061  0.7266  0.3219
  133SAPE   C2714346   3.588   5.029  10.045 -0.6813  0.1939  0.1755
  133SAPE   H7R14347   3.560   4.931  10.001 -1.1822 -0.2125  1.3508
  133SAPE   H7S14348   3.688   5.016  10.093 -0.8496  1.1999  0.8238
  133SAPE   C2814349   3.606   5.141   9.948 -0.3799  0.3374 -0.2253
  133SAPE   H8R14350   3.583   5.240   9.989 -2.7720 -0.4513  0.5134
  133SAPE   C2914351   3.628   5.125   9.817  0.2518 -0.3564 -0.9023
  133SAPE   H9R14352   3.637   5.221   9.764  1.4702  1.0287  1.6154
  133SAPE  C21014353   3.649   4.998   9.737  0.6287  0.8842  0.4250
  133SAPE  H10R14354   3.552   4.951   9.712  0.5992  1.0124  0.2961
  133SAPE  H10S14355   3.703   4.925   9.801 -2.5399 -1.2179  0.9438
  133SAPE  C21114356   3.726   5.021   9.607  0.1603 -0.1077  0.3523
  133SAPE  H11R14357   3.832   5.052   9.609  0.2370 -0.3890  0.6292
  133SAPE  C21214358   3.671   5.021   9.488 -0.4647  0.0209  0.3775
  133SAPE  H12R14359   3.743   5.054   9.411  1.3721 -0.6847  1.7139
  133SAPE  C21314360   3.533   4.999   9.445  0.4220 -0.5631  0.4527
  133SAPE  H13R14361   3.491   5.102   9.438  0.7728 -0.5268 -1.9036
  133SAPE  H13S14362   3.485   4.939   9.525 -0.8731 -0.5974 -0.3095
  133SAPE  C21414363   3.540   4.934   9.303  0.5885  1.2573 -0.1100
  133SAPE  H14R14364   3.521   4.825   9.307 -0.4428  1.4172 -0.3646
  133SAPE  C21514365   3.541   4.988   9.181  0.2658 -0.3278  0.4680
  133SAPE  H15R14366   3.548   4.926   9.090  2.1413 -2.3738  1.8906
  133SAPE  C21614367   3.555   5.136   9.160  0.4168  0.3614  0.0439
  133SAPE  H16R14368   3.601   5.190   9.246 -0.0994 -1.3356  1.4472
  133SAPE  H16S14369   3.460   5.185   9.131  1.2566  2.0074 -0.0951
  133SAPE  C21714370   3.648   5.170   9.037 -0.3857  0.3614 -0.2875
  133SAPE  H17R14371   3.644   5.281   9.025 -0.0637  0.3923 -0.1229
  133SAPE  H17S14372   3.609   5.121   8.945 -0.5082 -2.5531  1.2012
  133SAPE  C21814373   3.796   5.131   9.056 -0.0295  0.5384  0.1566
  133SAPE  H18R14374   3.817   5.054   8.979 -1.0728 -0.9369  1.2901
  133SAPE  H18S14375   3.819   5.090   9.156  0.0824  2.3603  0.9143
  133SAPE  C21914376   3.897   5.247   9.042  0.4976 -0.2434  0.1811
  133SAPE  H19R14377   3.875   5.320   9.123 -1.1327  2.7019 -2.7038
  133SAPE  H19S14378   3.881   5.292   8.942 -1.6588 -1.2858 -0.0033
  133SAPE  C22014379   4.040   5.193   9.049 -0.1945  0.5646 -0.0601
  133SAPE  H20R14380   4.047   5.107   8.980  1.7990  0.7124 -0.0962
  133SAPE  H20S14381   4.057   5.158   9.153 -0.1623 -0.9922 -0.5656
  133SAPE  H20T14382   4.112   5.270   9.015  1.7471 -1.3316 -0.4345
  133SAPE   C3314383   3.919   4.732  10.013 -0.0355  0.1710 -0.2426
  133SAPE   H3X14384   3.998   4.769  10.082  0.2475  1.2820 -1.1411
  133SAPE   H3Y14385   3.821   4.778  10.034 -1.4048 -2.9590  0.7799
  133SAPE   C3414386   3.956   4.765   9.869 -0.4059 -0.1995 -0.7160
  133SAPE   H4X14387   3.978   4.873   9.863 -3.3032  0.5140 -0.1383
  133SAPE   H4Y14388   3.864   4.760   9.807 -0.6343  1.4987 -0.5380
  133SAPE   C3514389   4.057   4.663   9.809 -0.7066  0.0013 -0.3351
  133SAPE   H5X14390   4.019   4.560   9.791 -0.8313 -0.5092  2.3417
  133SAPE   H5Y14391   4.136   4.648   9.886 -1.2765 -0.1154  0.2392
  133SAPE   C3614392   4.116   4.722   9.679  0.1426 -0.3039  0.0035
  133SAPE   H6X14393   4.209   4.666   9.656  0.9740  1.3973 -1.0266
  133SAPE   H6Y14394   4.149   4.824   9.709 -3.3867  1.3971 -1.2993
  133SAPE   C3714395   4.026   4.726   9.557  0.4426 -0.0299 -0.5622
  133SAPE   H7X14396   3.946   4.804   9.554  0.6829  0.2152 -0.5898
  133SAPE   H7Y14397   3.986   4.622   9.565 -0.7899  0.5577  1.6935
  133SAPE   C3814398   4.110   4.738   9.430 -0.7361  0.1319  0.3830
  133SAPE   H8X14399   4.137   4.635   9.399 -1.2102  0.4137 -1.0308
  133SAPE   H8Y14400   4.204   4.795   9.447 -1.0912  0.7767  0.2028
  133SAPE   C3914401   4.044   4.813   9.323  0.3143  0.0675  0.3170
  133SAPE   H9X14402   3.984   4.891   9.373 -0.7748 -0.1159 -0.6780
  133SAPE   H9Y14403   3.984   4.743   9.261  0.9460 -1.2132  1.1080
  133SAPE  C31014404   4.141   4.874   9.220 -0.2551  0.4340 -0.0923
  133SAPE  H10X14405   4.204   4.950   9.272  2.8472 -2.1603  0.2711
  133SAPE  H10Y14406   4.080   4.923   9.141  1.2783  0.9002 -1.0419
  133SAPE  C31114407   4.227   4.770   9.138 -0.0601 -1.1300 -0.4265
  133SAPE  H11X14408   4.162   4.692   9.094  1.9129 -2.2754 -1.4274
  133SAPE  H11Y14409   4.297   4.716   9.205  0.2596 -0.5788 -0.3055
  133SAPE  C31214410   4.323   4.827   9.036 -1.0860 -0.0521  1.2664
  133SAPE  H12X14411   4.397   4.895   9.084 -1.5933  0.5684  1.1691
  133SAPE  H12Y14412   4.268   4.894   8.967 -0.4219 -0.8952 -0.1273
  133SAPE  C31314413   4.412   4.715   8.976 -0.9149 -0.1262 -0.4050
  133SAPE  H13X14414   4.343   4.638   8.935 -0.0694 -1.0256 -0.1768
  133SAPE  H13Y14415   4.461   4.677   9.068 -0.0486  0.2113 -0.7125
  133SAPE  C31414416   4.507   4.773   8.876 -0.2922 -0.8674 -0.0055
  133SAPE  H14X14417   4.584   4.699   8.845  0.9609  0.8771 -1.2611
  133SAPE  H14Y14418   4.563   4.862   8.912 -1.5734  0.9576 -2.1989
  133SAPE  C31514419   4.438   4.828   8.745  0.3804 -0.0467 -0.2026
  133SAPE  H15X14420   4.381   4.920   8.769  0.7985  0.6804 -1.8518
  133SAPE  H15Y14421   4.356   4.757   8.718 -1.9291  2.4113 -0.0795
  133SAPE  C31614422   4.539   4.857   8.634  0.0379  0.0729 -0.1681
  133SAPE  H16X14423   4.484   4.878   8.540 -0.4107 -0.1132  0.0539
  133SAPE  H16Y14424   4.587   4.763   8.600 -1.6084 -0.0414 -2.3715
  133SAPE  C31714425   4.634   4.970   8.669  0.2247 -0.8711  0.2275
  133SAPE  H17X14426   4.686   4.942   8.763  0.4155  0.9637  0.7075
  133SAPE  H17Y14427   4.581   5.068   8.674  0.8496 -0.5390  0.5394
  133SAPE  C31814428   4.749   4.991   8.565 -0.6956  0.1156 -0.3924
  133SAPE  H18X14429   4.815   5.077   8.590 -0.9194 -0.0192  0.7019
  133SAPE  H18Y14430   4.701   4.999   8.466 -1.6176 -2.3086 -0.2193
  133SAPE  H18Z14431   4.806   4.896   8.568 -0.6395  0.1615  1.7262
  134SAPE     N14432   1.297   6.040  11.176 -0.4211 -0.0695 -0.0388
  134SAPE   HN114433   1.223   5.969  11.164  0.2414 -1.2999  2.5545
  134SAPE   HN214434   1.374   6.018  11.109  0.4582  0.3860  0.7920
  134SAPE   HN314435   1.314   6.040  11.279 -0.1467  0.8476 -0.0742
  134SAPE   C1214436   1.232   6.166  11.126  0.0190  0.2064 -0.0928
  134SAPE  H12A14437   1.315   6.239  11.134  2.1061 -2.1023  0.8686
  134SAPE  H12B14438   1.159   6.203  11.200  0.0888 -0.9534  0.5890
  134SAPE   C1114439   1.174   6.155  10.982 -0.7540  0.4551  0.1038
  134SAPE  H11A14440   1.249   6.113  10.911 -0.6914  0.9351 -0.1209
  134SAPE  H11B14441   1.150   6.257  10.944 -2.5384 -0.3205 -0.9714
  134SAPE     P14442   1.056   5.928  10.953  0.0305  0.1238  0.2906
  134SAPE   O1314443   1.109   5.861  11.077  0.1709  0.2577  0.0338
  134SAPE   O1414444   0.929   5.881  10.897  0.2335 -0.0939 -0.5022
  134SAPE   O1214445   1.044   6.087  10.973 -0.6256 -0.2528 -0.0723
  134SAPE   O1114446   1.163   5.914  10.837  0.1097  0.6076 -0.4024
  134SAPE    C114447   1.136   5.950  10.702 -0.3169 -0.7884 -0.0552
  134SAPE    HA14448   1.058   5.883  10.658  0.9682 -2.0490 -0.4901
  134SAPE    HB14449   1.101   6.054  10.684  1.6007 -0.3497 -1.5544
  134SAPE    C214450   1.262   5.928  10.621  0.0137 -0.8680 -0.4439
  134SAPE    HS14451   1.336   6.008  10.642 -1.1060  0.2740 -0.7471
  134SAPE   O2114452   1.230   5.934  10.486 -1.0214  0.2209  0.6088
  134SAPE   C2114453   1.183   6.051  10.438  0.3489  0.3018  1.0716
  134SAPE   O2214454   1.171   6.159  10.497 -0.0840 -0.3079  0.5954
  134SAPE   C2214455   1.158   6.023  10.286  0.3797 -0.4053  0.1260
  134SAPE   H2R14456   1.254   6.011  10.233  1.2471 -1.7506  1.8668
  134SAPE   H2S14457   1.094   5.932  10.286 -1.0606  0.4591  3.0376
  134SAPE    C314458   1.328   5.796  10.649  1.3100  0.7888  0.1167
  134SAPE    HX14459   1.246   5.728  10.618 -0.1051  2.2991  0.3709
  134SAPE    HY14460   1.349   5.789  10.758  0.1322 -0.6558  0.2751
  134SAPE   O3114461   1.442   5.786  10.573  0.3677 -0.7877 -0.5444
  134SAPE   C3114462   1.471   5.681  10.515 -0.0540  0.7950  0.1445
  134SAPE   O3214463   1.407   5.577  10.516  0.1452  0.0778 -0.2546
  134SAPE   C3214464   1.603   5.702  10.432 -0.6508  0.3348 -0.6820
  134SAPE   H2X14465   1.680   5.671  10.505 -0.3018 -3.5075 -2.4423
  134SAPE   H2Y14466   1.609   5.810  10.405 -0.5455  0.5506  0.1692
  134SAPE   C2314467   1.073   6.124  10.205 -0.2233 -0.2091  0.2475
  134SAPE   H3R14468   1.112   6.226  10.228 -0.4828  0.4075 -1.7824
  134SAPE   H3S14469   0.968   6.126  10.240  0.1527 -1.2388  1.4864
  134SAPE   C2414470   1.068   6.111  10.051 -0.2367  1.1055  0.3827
  134SAPE   H4R14471   0.996   6.187  10.013 -0.0389 -0.0941 -2.7006
  134SAPE   H4S14472   1.035   6.007  10.029  4.5904 -0.2179 -1.9866
  134SAPE   C2514473   1.197   6.137   9.976 -0.3459  0.1239  0.1511
  134SAPE   H5R14474   1.277   6.177  10.041  1.7360 -1.4523 -1.2775
  134SAPE   C2614475   1.217   6.105   9.845  0.1924  0.1316  0.4298
  134SAPE   H6R14476   1.311   6.144   9.803  1.5665 -0.8859  2.3992
  134SAPE   C2714477   1.121   6.037   9.745 -0.4503  0.4902  0.6093
  134SAPE   H7R14478   1.094   6.107   9.663 -0.7942 -1.5356 -1.1108
  134SAPE   H7S14479   1.026   5.997   9.787  0.6710 -1.0041  1.8017
  134SAPE   C2814480   1.177   5.912   9.675 -0.0711 -0.0790 -0.4200
  134SAPE   H8R14481   1.148   5.811   9.709  3.8000 -1.1475  0.1672
  134SAPE   C2914482   1.264   5.915   9.576  0.1360 -0.7083 -0.2625
  134SAPE   H9R14483   1.301   5.820   9.535  0.4395 -0.7440  0.0917
  134SAPE  C21014484   1.304   6.040   9.505  0.0148 -0.1133 -0.0431
  134SAPE  H10R14485   1.391   6.097   9.544 -0.6470  2.9909 -2.6543
  134SAPE  H10S14486   1.223   6.117   9.506 -0.7793 -0.9111 -0.6578
  134SAPE  C21114487   1.330   6.010   9.360  0.1828 -0.5953 -0.5480
  134SAPE  H11R14488   1.432   6.023   9.322 -0.6837 -0.4748 -3.0379
  134SAPE  C21214489   1.238   5.970   9.267 -0.7220  0.2306 -0.3515
  134SAPE  H12R14490   1.282   5.954   9.168  2.9150  0.5526  1.0511
  134SAPE  C21314491   1.090   5.949   9.287 -1.3278 -0.0537  0.9230
  134SAPE  H13R14492   1.077   5.875   9.369 -0.4788 -3.0989 -1.5419
  134SAPE  H13S14493   1.060   5.891   9.198  3.8982 -0.6402 -0.8008
  134SAPE  C21414494   1.006   6.074   9.308 -0.2932 -0.1067 -0.3472
  134SAPE  H14R14495   1.009   6.116   9.410 -1.5322 -1.1363  0.1362
  134SAPE  C21514496   0.918   6.122   9.219  0.0403 -1.0221 -0.1858
  134SAPE  H15R14497   0.862   6.211   9.250  0.0799 -0.1851 -2.3629
  134SAPE  C21614498   0.882   6.068   9.081 -0.4137  0.0849  0.0465
  134SAPE  H16R14499   0.775   6.043   9.073 -0.5528  0.7049 -0.1431
  134SAPE  H16S14500   0.946   5.980   9.058 -1.3716 -0.5239 -0.3461
  134SAPE  C21714501   0.919   6.181   8.981  0.0685  0.1579  0.6296
  134SAPE  H17R14502   1.029   6.197   8.975  0.0087  0.0176 -1.8591
  134SAPE  H17S14503   0.872   6.273   9.021 -1.3461 -0.0648 -0.4378
  134SAPE  C21814504   0.857   6.179   8.834 -0.3991  0.8906 -0.1363
  134SAPE  H18R14505   0.758   6.130   8.825  0.8892 -1.5755 -2.2993
  134SAPE  H18S14506   0.935   6.117   8.784 -0.7036 -0.2688  0.7880
  134SAPE  C21914507   0.862   6.318   8.764 -0.6865  0.2415  1.1859
  134SAPE  H19R14508   0.961   6.362   8.786  0.4197 -0.6712 -1.5078
  134SAPE  H19S14509   0.776   6.372   8.810 -0.7443  1.7126 -0.5628
  134SAPE  C22014510   0.851   6.300   8.612  0.2851  0.1181 -0.1025
  134SAPE  H20R14511   0.769   6.230   8.586 -0.2330  0.4925  0.4859
  134SAPE  H20S14512   0.945   6.254   8.575  0.7559  0.0724  1.0838
  134SAPE  H20T14513   0.825   6.397   8.565  0.6251 -0.3340 -1.2576
  134SAPE   C3314514   1.610   5.605  10.309  0.1529 -0.5846  0.2432
  134SAPE   H3X14515   1.541   5.651  10.234  0.7500 -0.7269 -0.4038
  134SAPE   H3Y14516   1.572   5.510  10.352 -0.0754 -0.7533 -0.3225
  134SAPE   C3414517   1.757   5.592  10.249  0.3235 -0.2621  0.4120
  134SAPE   H4X14518   1.828   5.567  10.331 -0.3715 -1.8364  0.5895
  134SAPE   H4Y14519   1.794   5.687  10.207 -1.9004  0.4767 -0.0204
  134SAPE   C3514520   1.761   5.499  10.129  0.1354 -0.5820 -0.0414
  134SAPE   H5X14521   1.739   5.392  10.154 -2.3615  0.1511  1.2716
  134SAPE   H5Y14522   1.865   5.509  10.093  0.5724 -0.2244  1.2701
  134SAPE   C3614523   1.662   5.538  10.025 -0.5541 -0.3082  0.0070
  134SAPE   H6X14524   1.674   5.647  10.010  1.4803 -0.3033  1.3011
  134SAPE   H6Y14525   1.557   5.533  10.062 -1.3811  2.2862 -1.7554
  134SAPE   C3714526   1.678   5.468   9.895 -0.7403  0.1644  0.8633
  134SAPE   H7X14527   1.678   5.357   9.889 -0.4726  0.2345 -2.5366
  134SAPE   H7Y14528   1.778   5.498   9.856 -1.3724 -0.2550 -1.2232
  134SAPE   C3814529   1.584   5.525   9.793 -0.1399  1.0695  0.2133
  134SAPE   H8X14530   1.555   5.630   9.817  1.8421  2.0698 -1.5047
  134SAPE   H8Y14531   1.500   5.453   9.803  0.7003  0.0523  0.1078
  134SAPE   C3914532   1.652   5.508   9.652  0.3340 -0.0386 -0.3029
  134SAPE   H9X14533   1.704   5.412   9.635 -0.4783 -0.5525  0.0349
  134SAPE   H9Y14534   1.742   5.571   9.640  1.0811 -1.0242  0.0091
  134SAPE  C31014535   1.574   5.528   9.523 -0.2056  0.2266  0.0372
  134SAPE  H10X14536   1.525   5.628   9.524  1.4549  1.1024 -1.0233
  134SAPE  H10Y14537   1.490   5.456   9.520 -0.2764  0.2821  0.6342
  134SAPE  C31114538   1.665   5.510   9.401 -0.1477 -0.0063 -0.5330
  134SAPE  H11X14539   1.722   5.415   9.412  0.3261  0.2265 -0.9690
  134SAPE  H11Y14540   1.737   5.594   9.402 -0.4390  0.2884 -1.8118
  134SAPE  C31214541   1.585   5.520   9.270  1.7350  0.4792 -1.5196
  134SAPE  H12X14542   1.530   5.617   9.264 -1.2384 -0.8742  0.8596
  134SAPE  H12Y14543   1.508   5.440   9.276  1.1748  1.1123  2.0186
  134SAPE  C31314544   1.674   5.506   9.143 -0.4829  1.0100 -0.4651
  134SAPE  H13X14545   1.661   5.410   9.089  4.1047  0.2555 -0.5754
  134SAPE  H13Y14546   1.779   5.518   9.174  0.2001 -0.5566 -2.0248
  134SAPE  C31414547   1.641   5.627   9.043 -0.1361  0.1878  0.5246
  134SAPE  H14X14548   1.649   5.718   9.105  0.3874 -1.3919  2.9163
  134SAPE  H14Y14549   1.539   5.619   8.999  0.5582 -0.3309 -1.0567
  134SAPE  C31514550   1.727   5.630   8.915  0.5045  0.3075  0.2602
  134SAPE  H15X14551   1.832   5.614   8.948  0.6443  0.8222  0.0763
  134SAPE  H15Y14552   1.714   5.726   8.862 -0.9449 -1.3472 -2.6061
  134SAPE  C31614553   1.680   5.519   8.816  0.0602  0.1758  0.6318
  134SAPE  H16X14554   1.581   5.557   8.783  0.3761 -0.7052 -1.5143
  134SAPE  H16Y14555   1.670   5.422   8.870  0.5045 -0.5297 -0.5148
  134SAPE  C31714556   1.781   5.506   8.701  0.3940 -0.2231  0.0636
  134SAPE  H17X14557   1.822   5.593   8.645 -0.4343 -0.9257 -1.7328
  134SAPE  H17Y14558   1.728   5.446   8.624 -0.2060  0.7248 -0.2745
  134SAPE  C31814559   1.904   5.433   8.735  0.7258 -0.6765  0.4987
  134SAPE  H18X14560   1.977   5.417   8.652  0.0552 -0.9389 -0.0533
  134SAPE  H18Y14561   1.874   5.327   8.751  1.8129 -1.3568 -1.5808
  134SAPE  H18Z14562   1.958   5.478   8.821  1.5212 -0.1810 -0.2435
  135SAPE     N14563   0.539   3.775  10.667 -0.4897  0.2929  0.0277
  135SAPE   HN114564   0.590   3.684  10.665 -1.0391 -0.0166 -0.2160
  135SAPE   HN214565   0.528   3.799  10.768  0.1890 -3.4754  1.1736
  135SAPE   HN314566   0.445   3.749  10.631 -0.2474 -1.2748  0.4404
  135SAPE   C1214567   0.588   3.882  10.578  0.2547 -0.0705  0.1361
  135SAPE  H12A14568   0.516   3.961  10.608 -0.0318 -0.2558 -0.0621
  135SAPE  H12B14569   0.565   3.848  10.475 -0.5983 -0.6063  0.4941
  135SAPE   C1114570   0.738   3.918  10.594 -0.3713 -0.3321 -0.2273
  135SAPE  H11A14571   0.754   3.986  10.681  0.7978 -0.5419 -0.2636
  135SAPE  H11B14572   0.756   3.978  10.502  0.4222 -1.9786 -1.1891
  135SAPE     P14573   0.977   3.837  10.601 -0.5386 -0.2657  0.3963
  135SAPE   O1314574   1.004   3.982  10.609 -0.2314  0.1246  0.1792
  135SAPE   O1414575   1.048   3.761  10.708 -0.2734  0.1776  0.8372
  135SAPE   O1214576   0.826   3.803  10.604 -0.4127 -0.0775 -0.4309
  135SAPE   O1114577   0.997   3.764  10.462 -0.0811 -0.0830  0.3213
  135SAPE    C114578   0.901   3.712  10.364 -0.1613  0.0003 -0.0405
  135SAPE    HA14579   0.812   3.779  10.358  0.5533  1.1142  1.2471
  135SAPE    HB14580   0.946   3.728  10.263 -0.2441  0.8574  0.0537
  135SAPE    C214581   0.857   3.557  10.385  0.6731 -0.0276  0.0057
  135SAPE    HS14582   0.828   3.539  10.491 -0.4850 -0.2474 -0.3323
  135SAPE   O2114583   0.961   3.480  10.337  0.1080 -0.3962  0.2601
  135SAPE   C2114584   1.041   3.442  10.436 -0.3109 -0.4207 -0.1285
  135SAPE   O2214585   1.012   3.450  10.554  0.2093 -0.0624 -0.3216
  135SAPE   C2214586   1.158   3.366  10.382 -0.0307  0.4739  0.4011
  135SAPE   H2R14587   1.221   3.432  10.318  1.0692 -1.4242 -0.5569
  135SAPE   H2S14588   1.218   3.320  10.464 -1.5501 -1.6869  0.3792
  135SAPE    C314589   0.723   3.520  10.305 -0.1305  0.0883  0.4320
  135SAPE    HX14590   0.645   3.591  10.338 -0.7998 -0.0666 -0.7580
  135SAPE    HY14591   0.695   3.417  10.335  0.1824 -0.5314 -1.2542
  135SAPE   O3114592   0.736   3.528  10.167 -0.0539 -0.7526  0.2523
  135SAPE   C3114593   0.633   3.561  10.097  0.0190 -0.2247  0.3283
  135SAPE   O3214594   0.520   3.568  10.135  0.1269  0.0541  0.5650
  135SAPE   C3214595   0.678   3.607   9.949 -0.4472  1.0138  0.3717
  135SAPE   H2X14596   0.730   3.520   9.902  0.4801  1.1716  1.0831
  135SAPE   H2Y14597   0.743   3.694   9.971  0.3109 -0.0771  2.8060
  135SAPE   C2314598   1.115   3.243  10.298  0.1475 -0.2344  0.4620
  135SAPE   H3R14599   1.210   3.215  10.246 -0.1240  1.0321 -0.7831
  135SAPE   H3S14600   1.040   3.270  10.221  0.5544 -0.3247  0.0339
  135SAPE   C2414601   1.061   3.128  10.380 -0.2681 -0.1132  0.4563
  135SAPE   H4R14602   1.146   3.089  10.439 -2.2015 -2.2679  2.0166
  135SAPE   H4S14603   1.052   3.050  10.302 -2.2865  1.9553 -1.5570
  135SAPE   C2514604   0.940   3.146  10.468 -0.0165  0.0025 -0.1678
  135SAPE   H5R14605   0.962   3.171  10.573  2.3840  0.1719 -0.6424
  135SAPE   C2614606   0.812   3.134  10.430  0.4134  0.3653 -0.0418
  135SAPE   H6R14607   0.736   3.152  10.508 -0.0546  1.0940 -0.6519
  135SAPE   C2714608   0.770   3.099  10.292 -0.5557 -0.3688 -0.4960
  135SAPE   H7R14609   0.839   3.023  10.250 -2.0194 -2.4768  0.7055
  135SAPE   H7S14610   0.775   3.192  10.233 -2.2867 -1.5942 -2.7405
  135SAPE   C2814611   0.632   3.049  10.275  0.3012  0.4792  0.2221
  135SAPE   H8R14612   0.610   2.956  10.330 -1.5281  0.4831 -0.4179
  135SAPE   C2914613   0.535   3.097  10.194  0.2796  0.5080 -0.3342
  135SAPE   H9R14614   0.433   3.057  10.206 -0.4940  1.8823 -1.8684
  135SAPE  C21014615   0.543   3.222  10.108  0.5136  0.5954  0.7956
  135SAPE  H10R14616   0.634   3.282  10.129  1.0188 -1.0412  3.7473
  135SAPE  H10S14617   0.461   3.294  10.129 -0.9925 -0.8196  0.0721
  135SAPE  C21114618   0.549   3.197   9.953  0.3421  0.4123  0.3606
  135SAPE  H11R14619   0.456   3.221   9.899 -0.8018 -4.8894 -0.5758
  135SAPE  C21214620   0.652   3.160   9.874 -0.2492 -0.6407 -0.1578
  135SAPE  H12R14621   0.640   3.137   9.767  1.9425  0.0559 -0.6136
  135SAPE  C21314622   0.784   3.118   9.919 -0.5092  0.3618 -0.5417
  135SAPE  H13R14623   0.784   3.014   9.959  2.4469  0.1002 -0.9732
  135SAPE  H13S14624   0.806   3.177  10.010 -0.1646 -1.1537  0.4000
  135SAPE  C21414625   0.896   3.130   9.821 -0.1777  0.3771  0.5267
  135SAPE  H14R14626   0.867   3.149   9.717 -1.3938  0.4119  0.8495
  135SAPE  C21514627   1.025   3.100   9.847  0.1711 -0.0373 -0.1967
  135SAPE  H15R14628   1.102   3.127   9.773 -0.9437  0.6695 -1.1266
  135SAPE  C21614629   1.077   3.049   9.978 -0.0921  0.3020 -0.2388
  135SAPE  H16R14630   1.001   3.040  10.058  1.3262 -0.9497  1.0411
  135SAPE  H16S14631   1.145   3.125  10.023 -1.6953  2.1294 -0.7535
  135SAPE  C21714632   1.131   2.898   9.976 -0.2449 -0.0817 -0.8245
  135SAPE  H17R14633   1.215   2.900   9.904 -0.9373  0.8399 -1.6396
  135SAPE  H17S14634   1.053   2.823   9.950 -1.2167 -0.0789  1.8079
  135SAPE  C21814635   1.204   2.865  10.109  0.2148  0.3125  0.3655
  135SAPE  H18R14636   1.232   2.758  10.101 -1.5949 -0.0855 -1.4950
  135SAPE  H18S14637   1.143   2.874  10.202  1.5371 -1.8278  1.5046
  135SAPE  C21914638   1.326   2.946  10.138 -0.4502 -0.0602  0.2768
  135SAPE  H19R14639   1.299   3.054  10.150  0.5637  0.2718 -0.3382
  135SAPE  H19S14640   1.387   2.944  10.046 -0.8911 -2.5008 -0.0148
  135SAPE  C22014641   1.400   2.907  10.266  0.5275  0.6170 -0.2181
  135SAPE  H20R14642   1.398   2.796  10.271  0.7266  0.6646  1.2509
  135SAPE  H20S14643   1.343   2.946  10.352  1.2329  1.5507 -0.1600
  135SAPE  H20T14644   1.502   2.950  10.274 -1.3022  5.6934 -0.8704
  135SAPE   C3314645   0.567   3.660   9.859  0.0217 -0.3607  0.6234
  135SAPE   H3X14646   0.614   3.707   9.770  0.1571 -2.5357 -0.5243
  135SAPE   H3Y14647   0.505   3.733   9.916  2.3869  1.5637  0.9228
  135SAPE   C3414648   0.471   3.544   9.802 -0.0270 -0.4006 -0.3654
  135SAPE   H4X14649   0.384   3.551   9.871 -0.1805  0.7250 -0.6567
  135SAPE   H4Y14650   0.529   3.449   9.806  1.4554  0.4562 -0.9064
  135SAPE   C3514651   0.432   3.564   9.655 -0.2667  0.6440  0.0174
  135SAPE   H5X14652   0.400   3.670   9.648  0.3491  0.8076 -0.3280
  135SAPE   H5Y14653   0.343   3.500   9.633 -1.1561  1.3347  1.4266
  135SAPE   C3614654   0.543   3.539   9.550 -0.7237  0.4003 -0.7317
  135SAPE   H6X14655   0.574   3.435   9.569 -0.7207  0.4921 -0.2196
  135SAPE   H6Y14656   0.627   3.611   9.561 -0.0600 -0.0346 -2.5522
  135SAPE   C3714657   0.488   3.556   9.406  0.3706 -0.1831  0.0097
  135SAPE   H7X14658   0.448   3.659   9.400  0.4263  0.1648  3.4161
  135SAPE   H7Y14659   0.405   3.484   9.388 -3.1169  3.3415  0.5147
  135SAPE   C3814660   0.591   3.555   9.295 -0.7163  0.0309 -0.3420
  135SAPE   H8X14661   0.636   3.455   9.308  0.0425  0.5268  1.0675
  135SAPE   H8Y14662   0.676   3.623   9.316  0.8580 -1.3930 -1.8595
  135SAPE   C3914663   0.534   3.587   9.160  0.0588 -0.3669  0.4572
  135SAPE   H9X14664   0.454   3.513   9.137 -1.5887  1.2547  0.7947
  135SAPE   H9Y14665   0.618   3.564   9.091  2.2973 -2.9947  3.6786
  135SAPE  C31014666   0.476   3.726   9.146  0.1420  0.1377 -0.0775
  135SAPE  H10X14667   0.551   3.799   9.182  0.2969  0.1636 -0.4436
  135SAPE  H10Y14668   0.384   3.739   9.206  0.1844  2.9139 -0.4867
  135SAPE  C31114669   0.444   3.758   8.998  0.1438  0.1157 -0.8010
  135SAPE  H11X14670   0.542   3.748   8.945  0.9488  0.8360  0.4937
  135SAPE  H11Y14671   0.405   3.861   8.991 -0.8538 -0.3056 -1.5793
  135SAPE  C31214672   0.325   3.665   8.953  0.3891 -0.6844 -0.8723
  135SAPE  H12X14673   0.248   3.670   9.033  0.3480  5.0520 -0.8068
  135SAPE  H12Y14674   0.377   3.569   8.936  2.5643  0.6442 -2.3175
  135SAPE  C31314675   0.260   3.721   8.824  0.1524  0.2234 -0.2329
  135SAPE  H13X14676   0.235   3.828   8.840  1.1175  0.3013  1.0423
  135SAPE  H13Y14677   0.170   3.658   8.812  0.4291 -0.2320  0.0275
  135SAPE  C31414678   0.359   3.703   8.710  0.0285  0.1918 -0.1009
  135SAPE  H14X14679   0.374   3.593   8.705  0.0270  0.2054 -0.4524
  135SAPE  H14Y14680   0.458   3.752   8.726  1.6623 -2.1089 -2.3140
  135SAPE  C31514681   0.308   3.767   8.576  0.2020 -0.2086  0.3239
  135SAPE  H15X14682   0.283   3.872   8.600  1.1397 -0.3251  1.9510
  135SAPE  H15Y14683   0.212   3.717   8.549  0.9000 -0.7969 -1.1943
  135SAPE  C31614684   0.400   3.756   8.453 -0.5561  0.5134  0.3341
  135SAPE  H16X14685   0.421   3.649   8.431  1.9544  0.7620  1.2106
  135SAPE  H16Y14686   0.497   3.804   8.475 -0.8214  0.2628  2.1517
  135SAPE  C31714687   0.330   3.808   8.325  0.0183 -0.0456 -1.5983
  135SAPE  H17X14688   0.310   3.917   8.335 -2.5466  0.0604 -5.4865
  135SAPE  H17Y14689   0.223   3.778   8.319 -0.7986  2.4797 -0.9277
  135SAPE  C31814690   0.397   3.779   8.191  0.1500  0.2418 -0.4454
  135SAPE  H18X14691   0.339   3.818   8.105  1.3196 -0.8688 -1.7888
  135SAPE  H18Y14692   0.411   3.672   8.167 -2.3550 -0.0029 -1.0262
  135SAPE  H18Z14693   0.496   3.829   8.181  0.1647  0.0326 -1.4576
  136SAPE     N14694   3.271   5.052  10.971 -0.4561  0.8434  0.0567
  136SAPE   HN114695   3.372   5.073  10.985 -0.5669  1.8005 -0.4816
  136SAPE   HN214696   3.225   5.056  11.065  0.2430  2.3603  0.3738
  136SAPE   HN314697   3.263   4.959  10.926 -2.0159  1.5813 -1.2775
  136SAPE   C1214698   3.210   5.149  10.866 -0.1558 -0.3901 -0.1986
  136SAPE  H12A14699   3.285   5.221  10.828 -0.5767 -0.9412 -2.1901
  136SAPE  H12B14700   3.144   5.206  10.936  0.2971 -0.4476  0.2754
  136SAPE   C1114701   3.108   5.090  10.770 -0.6839  0.2563  0.1162
  136SAPE  H11A14702   3.170   5.045  10.689  2.4152  2.1884  1.2606
  136SAPE  H11B14703   3.047   5.178  10.742 -0.5768  0.8915  1.7894
  136SAPE     P14704   3.040   4.837  10.820  0.7090  0.2239 -0.1505
  136SAPE   O1314705   3.179   4.802  10.855 -0.3338  0.2160 -0.2732
  136SAPE   O1414706   2.932   4.763  10.887 -0.6993 -0.6394 -0.2035
  136SAPE   O1214707   3.025   4.997  10.838 -0.0653  0.1285  0.1651
  136SAPE   O1114708   3.021   4.815  10.664  0.2152 -0.1687  0.5259
  136SAPE    C114709   2.890   4.832  10.599 -0.3993 -0.0828  0.2595
  136SAPE    HA14710   2.831   4.912  10.648 -2.4666 -1.7643  0.6607
  136SAPE    HB14711   2.896   4.867  10.494  1.1503 -0.9778  0.0190
  136SAPE    C214712   2.804   4.711  10.597 -0.2172  0.0559 -0.3455
  136SAPE    HS14713   2.813   4.665  10.698  0.1927 -3.5459 -1.8714
  136SAPE   O2114714   2.854   4.611  10.503  0.1966  0.2620  0.5978
  136SAPE   C2114715   2.843   4.484  10.547 -0.3604 -0.0274 -0.2757
  136SAPE   O2214716   2.803   4.456  10.662  0.7989 -0.1497  0.7465
  136SAPE   C2214717   2.880   4.391  10.433  0.0992  0.2533 -0.1090
  136SAPE   H2R14718   2.892   4.296  10.490 -0.5939  1.2477  1.7432
  136SAPE   H2S14719   2.785   4.379  10.377 -0.8636  0.0145  1.5206
  136SAPE    C314720   2.654   4.746  10.564  0.0942  0.3969 -0.0717
  136SAPE    HX14721   2.630   4.840  10.619  2.7173  1.0879  0.0362
  136SAPE    HY14722   2.589   4.666  10.605  1.1870 -0.4306  0.1147
  136SAPE   O3114723   2.624   4.770  10.425 -0.3565  0.1951  0.3626
  136SAPE   C3114724   2.597   4.668  10.345  0.2914  0.1056 -0.3758
  136SAPE   O3214725   2.571   4.555  10.379 -0.0125  0.3059 -0.3231
  136SAPE   C3214726   2.624   4.718  10.201 -0.4834 -0.2315 -0.0754
  136SAPE   H2X14727   2.646   4.827  10.203  2.4116 -0.7136 -1.0587
  136SAPE   H2Y14728   2.532   4.708  10.139 -0.6366 -1.2077  0.3007
  136SAPE   C2314729   3.002   4.421  10.343  0.1553  0.5779  0.2770
  136SAPE   H3R14730   3.098   4.395  10.393 -0.4115  1.6661  2.0485
  136SAPE   H3S14731   3.013   4.531  10.330 -2.0054  0.8211  0.1195
  136SAPE   C2414732   3.000   4.359  10.198  0.8584 -0.4385  0.4650
  136SAPE   H4R14733   3.065   4.415  10.127 -0.5180 -0.6061 -1.0021
  136SAPE   H4S14734   2.898   4.385  10.163  1.1826  0.1521 -0.0629
  136SAPE   C2514735   3.027   4.214  10.192  0.4111  0.1846  0.6239
  136SAPE   H5R14736   2.961   4.149  10.251  1.2360 -0.5610  0.7624
  136SAPE   C2614737   3.115   4.151  10.112  0.0465  0.4493 -0.4422
  136SAPE   H6R14738   3.124   4.041  10.113 -0.0399  0.4114 -2.0446
  136SAPE   C2714739   3.204   4.224  10.016 -0.1000 -0.2206  0.3044
  136SAPE   H7R14740   3.291   4.159   9.995  1.8162  1.7277  1.8035
  136SAPE   H7S14741   3.251   4.318  10.053 -0.0128 -1.0126  2.3325
  136SAPE   C2814742   3.132   4.263   9.890  0.1199  0.1450  0.6262
  136SAPE   H8R14743   3.066   4.351   9.898 -1.7900 -1.3557  3.3169
  136SAPE   C2914744   3.101   4.192   9.776 -0.2441 -0.5672 -0.1500
  136SAPE   H9R14745   3.062   4.255   9.695  0.0635  0.8043  0.7321
  136SAPE  C21014746   3.159   4.051   9.750  0.2682 -0.0417  0.4019
  136SAPE  H10R14747   3.230   4.028   9.832  0.0733 -1.2772  0.2468
  136SAPE  H10S14748   3.242   4.055   9.677 -0.9789  2.6417 -1.0163
  136SAPE  C21114749   3.059   3.934   9.731  0.6108 -0.0995 -1.1447
  136SAPE  H11R14750   3.036   3.881   9.825 -1.6989  3.2995  0.4112
  136SAPE  C21214751   2.991   3.903   9.614  0.2488  0.0135 -0.2137
  136SAPE  H12R14752   2.930   3.811   9.614  0.7926 -0.3561  0.3770
  136SAPE  C21314753   3.019   3.978   9.487 -0.5938 -0.0508  0.8728
  136SAPE  H13R14754   3.022   4.087   9.508 -2.1808 -0.2199  2.1262
  136SAPE  H13S14755   2.935   3.952   9.420 -1.7872  2.5164  1.2902
  136SAPE  C21414756   3.160   3.964   9.432 -0.1050  0.8976 -0.1325
  136SAPE  H14R14757   3.236   3.958   9.511 -1.8875  3.3423  1.9294
  136SAPE  C21514758   3.200   3.976   9.303 -0.1823 -0.5917 -0.1061
  136SAPE  H15R14759   3.305   3.978   9.271  0.4902  2.3477  1.9112
  136SAPE  C21614760   3.108   3.980   9.185 -0.2446  0.2485  0.6071
  136SAPE  H16R14761   3.137   4.054   9.107  2.3390 -1.0678  0.2036
  136SAPE  H16S14762   3.005   4.012   9.213 -0.9585 -1.1873 -0.2632
  136SAPE  C21714763   3.075   3.834   9.132  0.4097  0.5866 -0.2816
  136SAPE  H17R14764   3.052   3.767   9.219  0.6631  1.1588  0.2332
  136SAPE  H17S14765   3.158   3.776   9.086  1.2734  0.9022  0.8344
  136SAPE  C21814766   2.960   3.832   9.028 -0.0646 -0.4198 -0.3482
  136SAPE  H18R14767   2.973   3.742   8.964  0.0555 -0.3158 -0.4696
  136SAPE  H18S14768   2.973   3.924   8.968 -2.0098  0.7555  0.8870
  136SAPE  C21914769   2.817   3.846   9.084 -0.6211  0.0364 -0.4849
  136SAPE  H19R14770   2.752   3.877   8.999 -0.9519  0.9503  0.0798
  136SAPE  H19S14771   2.817   3.931   9.157  1.2653  1.8876 -2.4998
  136SAPE  C22014772   2.757   3.716   9.146  0.4781 -0.3015  0.0146
  136SAPE  H20R14773   2.646   3.721   9.139  0.5268 -0.7564 -1.7073
  136SAPE  H20S14774   2.784   3.714   9.253 -1.1815 -1.6132  0.4451
  136SAPE  H20T14775   2.804   3.631   9.091  0.3269 -0.3132 -0.0968
  136SAPE   C3314776   2.735   4.629  10.141  0.5442 -0.8578 -0.3261
  136SAPE   H3X14777   2.711   4.522  10.160  3.0403 -1.1686  1.6295
  136SAPE   H3Y14778   2.820   4.638  10.212 -1.0840  2.0478  1.4108
  136SAPE   C3414779   2.766   4.657  10.000 -0.2710  0.2658 -0.5397
  136SAPE   H4X14780   2.788   4.765   9.999 -0.5774  0.3827  1.4167
  136SAPE   H4Y14781   2.676   4.640   9.937 -2.5102  1.9599  1.9982
  136SAPE   C3514782   2.894   4.592   9.946 -0.2509  0.0826 -0.0916
  136SAPE   H5X14783   2.869   4.484   9.946 -1.6448  0.3630  1.6617
  136SAPE   H5Y14784   2.970   4.607  10.025  2.7121 -1.2907 -2.4836
  136SAPE   C3614785   2.940   4.659   9.812  0.8834 -0.0707 -0.1559
  136SAPE   H6X14786   3.036   4.617   9.776  0.9568  2.1259 -2.8324
  136SAPE   H6Y14787   2.957   4.766   9.837 -0.5509 -0.0326  0.8271
  136SAPE   C3714788   2.834   4.646   9.701  0.4432 -0.2981  0.6074
  136SAPE   H7X14789   2.772   4.739   9.694 -1.4683 -1.5770 -0.2694
  136SAPE   H7Y14790   2.764   4.566   9.732  1.0324  0.0210  2.9659
  136SAPE   C3814791   2.906   4.612   9.568  0.2017 -0.2856 -0.7185
  136SAPE   H8X14792   2.980   4.694   9.556  2.3322 -1.9058  0.8136
  136SAPE   H8Y14793   2.830   4.616   9.487 -0.1622  0.7096 -0.3450
  136SAPE   C3914794   2.969   4.478   9.562 -0.4763 -0.0907 -0.7852
  136SAPE   H9X14795   2.891   4.404   9.590 -0.6876  0.6447  0.6963
  136SAPE   H9Y14796   3.044   4.479   9.644 -2.9194  0.4679  1.6224
  136SAPE  C31014797   3.036   4.438   9.428 -0.3847  0.4289 -0.3413
  136SAPE  H10X14798   3.094   4.346   9.449  1.6664  2.1017  1.9944
  136SAPE  H10Y14799   3.108   4.522   9.415 -0.0061  0.0153 -0.9754
  136SAPE  C31114800   2.944   4.442   9.304  0.1029 -0.1064  0.1232
  136SAPE  H11X14801   2.927   4.551   9.289  1.1331  0.2312  1.2531
  136SAPE  H11Y14802   2.842   4.402   9.320  1.0865 -2.5632  0.8098
  136SAPE  C31214803   2.994   4.380   9.177 -0.0622 -0.5739 -0.2771
  136SAPE  H12X14804   3.006   4.272   9.197 -1.1973 -0.6958 -0.1914
  136SAPE  H12Y14805   3.087   4.437   9.153 -0.6410 -0.6714 -3.0482
  136SAPE  C31314806   2.895   4.409   9.073 -0.2117  0.2453  0.2434
  136SAPE  H13X14807   2.916   4.510   9.030  0.0964 -0.5849 -1.6817
  136SAPE  H13Y14808   2.791   4.419   9.110  0.1320 -1.0820  1.6654
  136SAPE  C31414809   2.910   4.321   8.945 -0.5647 -1.1848 -0.2236
  136SAPE  H14X14810   2.875   4.218   8.969 -0.0182 -1.7365 -1.7055
  136SAPE  H14Y14811   3.019   4.309   8.926 -0.2476  0.5873  0.3117
  136SAPE  C31514812   2.830   4.367   8.823 -0.2128 -0.3317 -1.0631
  136SAPE  H15X14813   2.729   4.406   8.848 -0.6018 -1.5266 -0.6722
  136SAPE  H15Y14814   2.824   4.281   8.753  1.3820 -2.7124  1.4871
  136SAPE  C31614815   2.901   4.487   8.754 -0.2119  0.2384  0.0207
  136SAPE  H16X14816   3.008   4.470   8.727 -0.8823 -1.5511 -1.8226
  136SAPE  H16Y14817   2.901   4.561   8.836  0.7039  0.3429 -0.0631
  136SAPE  C31714818   2.821   4.533   8.633  0.3109  0.0309  0.2235
  136SAPE  H17X14819   2.713   4.529   8.661  0.8657 -2.2468  2.3752
  136SAPE  H17Y14820   2.838   4.450   8.562 -0.6440  0.3900 -0.4333
  136SAPE  C31814821   2.873   4.664   8.568  0.2236 -0.5526 -0.5116
  136SAPE  H18X14822   2.816   4.683   8.475  1.6556  0.8670 -1.1510
  136SAPE  H18Y14823   2.976   4.653   8.528  0.3767  1.2143 -0.7064
  136SAPE  H18Z14824   2.864   4.756   8.630  2.5864  0.5082 -1.5846
  137SAPE     N14825   1.090   0.786  11.115 -0.0029 -0.1151  0.6088
  137SAPE   HN114826   1.148   0.872  11.126 -1.9126  1.5371 -1.3725
  137SAPE   HN214827   1.143   0.702  11.084  0.0877  0.0281  0.3722
  137SAPE   HN314828   1.029   0.819  11.037 -0.4985  0.6140  1.2922
  137SAPE   C1214829   1.007   0.771  11.233  0.2292  0.4550  0.2357
  137SAPE  H12A14830   0.986   0.874  11.269  2.3288  0.4359  1.7176
  137SAPE  H12B14831   1.059   0.708  11.308 -1.9212 -2.0823 -0.2169
  137SAPE   C1114832   0.882   0.683  11.200 -0.3152 -0.3319  0.2780
  137SAPE  H11A14833   0.860   0.650  11.303 -2.3015 -0.5916 -0.1847
  137SAPE  H11B14834   0.901   0.589  11.144 -1.1939  0.9731 -2.4328
  137SAPE     P14835   0.755   0.799  10.999  0.2294  0.0455 -0.0924
  137SAPE   O1314836   0.637   0.886  10.985 -0.0631 -0.2365  0.1790
  137SAPE   O1414837   0.885   0.855  10.958  0.4569  0.0240 -0.3749
  137SAPE   O1214838   0.771   0.757  11.147 -0.1469  0.2994  0.3257
  137SAPE   O1114839   0.730   0.661  10.928  0.0761  0.1756 -0.6025
  137SAPE    C114840   0.841   0.597  10.853  0.0982  0.2695 -0.6555
  137SAPE    HA14841   0.942   0.606  10.898 -0.2071  1.2196 -0.1293
  137SAPE    HB14842   0.829   0.488  10.870  1.1391  0.2542  0.0839
  137SAPE    C214843   0.846   0.647  10.705 -0.2992 -0.6285 -0.0315
  137SAPE    HS14844   0.868   0.755  10.715  0.1160 -0.8670  2.1566
  137SAPE   O2114845   0.725   0.616  10.632  0.4077 -0.1594 -0.1912
  137SAPE   C2114846   0.693   0.716  10.550 -0.6214  0.2022 -0.0321
  137SAPE   O2214847   0.766   0.812  10.531 -0.2504  0.1266 -0.1379
  137SAPE   C2214848   0.562   0.675  10.478  0.7326  0.2109 -0.1316
  137SAPE   H2R14849   0.552   0.564  10.477  0.6280  0.2224 -1.0531
  137SAPE   H2S14850   0.469   0.710  10.529  0.2021 -0.2720 -0.7512
  137SAPE    C314851   0.969   0.580  10.638  0.3712 -0.0877  0.1436
  137SAPE    HX14852   0.944   0.472  10.652  1.4527 -0.3442  0.1797
  137SAPE    HY14853   1.063   0.594  10.694 -1.9239  1.5503  4.0169
  137SAPE   O3114854   0.979   0.596  10.493  0.7420 -0.1854 -0.2315
  137SAPE   C3114855   1.046   0.701  10.444 -0.0581 -0.3950 -0.1186
  137SAPE   O3214856   1.103   0.787  10.512 -0.5130  0.0325 -0.3474
  137SAPE   C3214857   1.016   0.708  10.295  0.0905  0.1892 -0.7321
  137SAPE   H2X14858   0.905   0.693  10.291 -0.2664  2.7010 -1.4686
  137SAPE   H2Y14859   1.065   0.621  10.247 -1.6784 -0.4703 -1.4442
  137SAPE   C2314860   0.565   0.725  10.334  0.6437 -0.1171 -0.4676
  137SAPE   H3R14861   0.659   0.691  10.287 -0.1827 -2.6495 -0.4422
  137SAPE   H3S14862   0.552   0.835  10.330 -1.3255 -0.2874  0.1359
  137SAPE   C2414863   0.440   0.662  10.255 -0.4734  1.1224  0.0239
  137SAPE   H4R14864   0.432   0.724  10.163 -1.3927 -1.3223 -1.6497
  137SAPE   H4S14865   0.351   0.692  10.315 -0.4720 -0.2321  0.7526
  137SAPE   C2514866   0.464   0.512  10.214 -0.2963  0.2807  0.0808
  137SAPE   H5R14867   0.423   0.442  10.289 -1.3581 -1.1672 -1.7815
  137SAPE   C2614868   0.524   0.459  10.104 -0.3569 -0.3655  0.8075
  137SAPE   H6R14869   0.531   0.350  10.091  0.7512 -0.4884  2.1811
  137SAPE   C2714870   0.597   0.530   9.990  0.3806 -0.8686  0.5400
  137SAPE   H7R14871   0.673   0.606  10.016 -0.5990  0.3686 -0.1039
  137SAPE   H7S14872   0.526   0.593   9.933  0.3092  0.6800  2.2396
  137SAPE   C2814873   0.679   0.433   9.911 -0.4232  0.2142  0.1638
  137SAPE   H8R14874   0.720   0.357   9.979  1.6447  1.2864  0.2026
  137SAPE   C2914875   0.698   0.413   9.780 -0.4206 -0.4594  0.3421
  137SAPE   H9R14876   0.769   0.334   9.753 -0.3796  0.3204 -2.0513
  137SAPE  C21014877   0.641   0.502   9.669 -0.1605  0.0902 -0.3129
  137SAPE  H10R14878   0.724   0.544   9.608  1.3841  0.5854  1.9891
  137SAPE  H10S14879   0.584   0.583   9.720  0.7508  0.1478  0.6460
  137SAPE  C21114880   0.553   0.415   9.577 -0.3289 -0.2704 -0.2030
  137SAPE  H11R14881   0.480   0.349   9.625 -0.7862  0.0376 -0.4752
  137SAPE  C21214882   0.558   0.402   9.441 -0.3711 -0.6814 -0.8434
  137SAPE  H12R14883   0.489   0.333   9.391  0.4176 -2.4754  0.4345
  137SAPE  C21314884   0.635   0.476   9.336 -0.3686  0.0515 -0.5695
  137SAPE  H13R14885   0.717   0.538   9.378  0.8387 -0.3913 -2.1737
  137SAPE  H13S14886   0.572   0.551   9.284 -0.2781  0.1638 -0.5195
  137SAPE  C21414887   0.704   0.381   9.235  0.4226  0.0316  0.3661
  137SAPE  H14R14888   0.749   0.290   9.276  1.4728  0.1496 -0.4963
  137SAPE  C21514889   0.689   0.393   9.102 -0.3056  0.2831  0.8585
  137SAPE  H15R14890   0.746   0.325   9.037  1.1826 -0.1746  2.5658
  137SAPE  C21614891   0.604   0.496   9.042 -0.5437 -0.3457  0.2242
  137SAPE  H16R14892   0.614   0.596   9.088  2.1694  0.2175 -1.3785
  137SAPE  H16S14893   0.497   0.468   9.055 -0.4529 -0.6348  0.3800
  137SAPE  C21714894   0.622   0.512   8.888 -0.0293  0.7110 -0.1298
  137SAPE  H17R14895   0.564   0.435   8.832 -1.3367  0.7999  1.0384
  137SAPE  H17S14896   0.730   0.491   8.873  0.3474  1.6828  1.1108
  137SAPE  C21814897   0.576   0.643   8.831 -0.5341  0.0001 -0.5506
  137SAPE  H18R14898   0.632   0.713   8.898  0.5793 -2.2154  0.9763
  137SAPE  H18S14899   0.467   0.664   8.833 -0.4494  0.4810  1.3761
  137SAPE  C21914900   0.629   0.661   8.691  0.0986  0.2477  0.8998
  137SAPE  H19R14901   0.570   0.587   8.633 -2.7564  1.7364  1.7402
  137SAPE  H19S14902   0.735   0.628   8.694  0.2973  0.8589  0.7541
  137SAPE  C22014903   0.622   0.798   8.632  0.4656  0.2242 -0.2806
  137SAPE  H20R14904   0.674   0.874   8.694 -0.3932 -0.2215  1.0191
  137SAPE  H20S14905   0.514   0.819   8.618 -0.0864 -1.8757  0.4810
  137SAPE  H20T14906   0.668   0.804   8.531  0.9889  0.6671 -0.0242
  137SAPE   C3314907   1.067   0.839  10.234  0.1875  0.1507  0.0287
  137SAPE   H3X14908   1.176   0.845  10.219  0.2141 -0.6862 -0.1850
  137SAPE   H3Y14909   1.040   0.929  10.293 -0.0689  0.2505 -0.2392
  137SAPE   C3414910   0.995   0.859  10.102 -0.7047 -0.0023  0.6858
  137SAPE   H4X14911   0.997   0.967  10.073  2.5036 -0.6526 -2.1956
  137SAPE   H4Y14912   0.887   0.839  10.113 -1.0237  1.9864  1.6175
  137SAPE   C3514913   1.048   0.773   9.985 -0.0682 -0.2213  0.0617
  137SAPE   H5X14914   1.031   0.674  10.031 -1.7181  0.1336  0.2818
  137SAPE   H5Y14915   1.157   0.790   9.974  0.0962 -1.5455 -0.6210
  137SAPE   C3614916   0.972   0.794   9.857  0.6118  0.1867 -0.4486
  137SAPE   H6X14917   0.978   0.904   9.844 -0.9136  0.4297  0.6394
  137SAPE   H6Y14918   0.865   0.766   9.866  0.5558 -0.0659 -1.7036
  137SAPE   C3714919   1.037   0.713   9.750 -0.8988 -0.1823 -0.0214
  137SAPE   H7X14920   1.025   0.606   9.774  0.2846 -0.2407  0.3774
  137SAPE   H7Y14921   1.143   0.742   9.733 -2.0275  3.7109 -1.7364
  137SAPE   C3814922   0.960   0.742   9.621  0.0732  0.2420 -0.0007
  137SAPE   H8X14923   0.982   0.847   9.595  1.3849  0.3744  1.4915
  137SAPE   H8Y14924   0.851   0.738   9.644 -0.4101  0.2751 -2.0791
  137SAPE   C3914925   1.005   0.639   9.520  0.8177  0.3189  0.4339
  137SAPE   H9X14926   0.959   0.542   9.549 -0.5832  0.3434 -1.4876
  137SAPE   H9Y14927   1.114   0.620   9.513  0.6097 -0.2931 -2.3284
  137SAPE  C31014928   0.945   0.670   9.381 -0.1628  0.5589  0.1280
  137SAPE  H10X14929   0.837   0.691   9.393 -0.4440 -0.8067  0.0835
  137SAPE  H10Y14930   0.949   0.584   9.311 -0.6683  1.8380 -1.5476
  137SAPE  C31114931   1.008   0.795   9.308  0.6332  0.2352  0.5714
  137SAPE  H11X14932   1.109   0.755   9.287  0.0401 -1.1761  0.2970
  137SAPE  H11Y14933   1.009   0.883   9.376 -0.7795  1.5448 -1.0126
  137SAPE  C31214934   0.948   0.847   9.178  0.3345  0.1763  0.2362
  137SAPE  H12X14935   0.847   0.892   9.187  0.4313  0.9787 -2.0708
  137SAPE  H12Y14936   0.945   0.763   9.104 -1.6199  1.4577 -1.2592
  137SAPE  C31314937   1.026   0.964   9.107 -0.2278 -0.4597 -0.2648
  137SAPE  H13X14938   1.131   0.926   9.098 -0.4191 -0.8138 -1.1632
  137SAPE  H13Y14939   1.026   1.044   9.184  0.2520 -1.7972  1.1791
  137SAPE  C31414940   0.980   0.998   8.970 -0.6676  0.3805  0.3582
  137SAPE  H14X14941   0.870   1.013   8.978 -0.9188  0.1109 -1.8676
  137SAPE  H14Y14942   1.012   0.918   8.900  0.6144  1.9247 -0.9028
  137SAPE  C31514943   1.051   1.122   8.915  0.2304 -0.0831  0.5043
  137SAPE  H15X14944   1.159   1.101   8.927  0.7694  0.8381 -2.1528
  137SAPE  H15Y14945   1.037   1.208   8.985 -2.7160  1.0739 -1.3074
  137SAPE  C31614946   1.010   1.168   8.774 -0.3731 -0.3566 -0.2598
  137SAPE  H16X14947   1.018   1.087   8.698 -3.0163  0.0462 -1.0732
  137SAPE  H16Y14948   1.082   1.244   8.737 -0.6042 -0.3598 -0.7254
  137SAPE  C31714949   0.877   1.239   8.775  1.0779 -0.5715  0.0314
  137SAPE  H17X14950   0.888   1.322   8.847  0.2171 -0.0515 -0.4140
  137SAPE  H17Y14951   0.796   1.175   8.817  0.1587 -0.1057 -0.9648
  137SAPE  C31814952   0.845   1.290   8.638 -0.3344 -0.8047  0.6913
  137SAPE  H18X14953   0.820   1.205   8.570  2.2989 -1.4008  0.3732
  137SAPE  H18Y14954   0.933   1.347   8.601  0.3842 -1.7224  0.9332
  137SAPE  H18Z14955   0.762   1.363   8.649  0.8369  0.4887  1.1609
  138SAPE     N14956   4.331   5.535  10.795  0.3789  0.2903  0.4240
  138SAPE   HN114957   4.231   5.510  10.783  1.1401 -1.7257 -3.2704
  138SAPE   HN214958   4.391   5.450  10.797  0.0188  0.0071 -0.2493
  138SAPE   HN314959   4.347   5.591  10.881  1.1284  1.7774 -0.6345
  138SAPE   C1214960   4.388   5.601  10.675 -0.4401  0.0735 -0.2740
  138SAPE  H12A14961   4.339   5.539  10.597 -0.3647 -0.0457 -0.2254
  138SAPE  H12B14962   4.498   5.587  10.672 -0.2614  0.8214  1.3809
  138SAPE   C1114963   4.339   5.746  10.660  0.0029 -0.2873 -0.5605
  138SAPE  H11A14964   4.230   5.751  10.683 -0.0269  2.6936 -1.0377
  138SAPE  H11B14965   4.344   5.787  10.557  1.4741  2.5515  0.5241
  138SAPE     P14966   4.359   5.981  10.771  0.1365 -0.3773  0.0653
  138SAPE   O1314967   4.223   5.964  10.825 -0.2036 -0.6591  0.4243
  138SAPE   O1414968   4.457   6.053  10.860  0.5723 -0.3361 -0.4539
  138SAPE   O1214969   4.421   5.845  10.737  0.0217  0.0546  0.1731
  138SAPE   O1114970   4.341   6.053  10.632  0.0929 -0.3091  0.1717
  138SAPE    C114971   4.462   6.066  10.558  0.4717 -0.4064  0.3678
  138SAPE    HA14972   4.522   6.147  10.606 -1.5571  0.9843  0.6855
  138SAPE    HB14973   4.514   5.968  10.559 -1.0791 -1.2525  1.6382
  138SAPE    C214974   4.434   6.113  10.414  0.0515 -0.7335 -0.3450
  138SAPE    HS14975   4.376   6.207  10.401  0.6322 -0.3156  0.0171
  138SAPE   O2114976   4.376   5.998  10.347  0.1075 -0.3962 -0.0438
  138SAPE   C2114977   4.250   6.009  10.340  0.0821  0.2060  0.0987
  138SAPE   O2214978   4.175   6.098  10.382  0.6420  0.3524 -0.1622
  138SAPE   C2214979   4.196   5.886  10.259  1.1069 -0.0679  0.1925
  138SAPE   H2R14980   4.265   5.881  10.172  1.2251  1.9083  0.1331
  138SAPE   H2S14981   4.201   5.795  10.322  0.2261 -0.9814 -1.0152
  138SAPE    C314982   4.566   6.147  10.330 -0.5362 -0.2076  0.5717
  138SAPE    HX14983   4.622   6.052  10.319 -0.3102  0.1866 -2.6765
  138SAPE    HY14984   4.617   6.227  10.388  0.3795  1.0921 -1.8351
  138SAPE   O3114985   4.535   6.204  10.199  0.3202 -0.3948 -0.5336
  138SAPE   C3114986   4.570   6.122  10.096  0.0018  0.5587 -0.0635
  138SAPE   O3214987   4.625   6.017  10.112 -0.1807 -0.1373  0.4795
  138SAPE   C3214988   4.525   6.171   9.957 -0.4585 -0.9214  0.8057
  138SAPE   H2X14989   4.596   6.251   9.929 -2.4910  0.8014  0.3537
  138SAPE   H2Y14990   4.423   6.214   9.961 -0.3539 -0.7236  2.9418
  138SAPE   C2314991   4.050   5.906  10.213  0.0528  0.3753  0.0644
  138SAPE   H3R14992   3.980   5.910  10.300 -0.8906 -0.1812 -0.6470
  138SAPE   H3S14993   4.021   5.814  10.157 -1.1651  1.0877 -0.5188
  138SAPE   C2414994   4.036   6.039  10.128 -0.2073  0.6990 -0.0627
  138SAPE   H4R14995   4.063   6.128  10.189  1.8760  1.6899 -2.2697
  138SAPE   H4S14996   3.930   6.050  10.097  0.1920  1.6881 -1.1636
  138SAPE   C2514997   4.100   6.046   9.990 -0.3613 -0.5521  0.2717
  138SAPE   H5R14998   4.207   6.020   9.993  0.5460  2.6120 -0.6009
  138SAPE   C2614999   4.046   6.102   9.877  0.0513  0.2187 -0.8482
  138SAPE   H6R15000   4.102   6.088   9.783 -0.0946 -3.1559 -0.5333
  138SAPE   C2715001   3.904   6.166   9.861 -0.3649 -0.0198 -0.1110
  138SAPE   H7R15002   3.921   6.259   9.802  0.9008 -0.0362  0.1932
  138SAPE   H7S15003   3.854   6.200   9.955  2.1915 -0.1617  1.3936
  138SAPE   C2815004   3.836   6.052   9.800  0.6173  0.1753 -0.0141
  138SAPE   H8R15005   3.806   5.980   9.878 -0.9212  0.3471 -0.4114
  138SAPE   C2915006   3.812   6.033   9.668 -0.0520 -0.2465 -0.3719
  138SAPE   H9R15007   3.746   5.952   9.635  0.0813 -1.6232  2.4268
  138SAPE  C21015008   3.858   6.125   9.552  0.0927 -0.1901 -0.0367
  138SAPE  H10R15009   3.897   6.225   9.582 -0.2925  0.4375 -1.5350
  138SAPE  H10S15010   3.765   6.144   9.495 -0.2390 -0.3747  0.4433
  138SAPE  C21115011   3.982   6.078   9.484  0.3241  0.7952  0.0314
  138SAPE  H11R15012   4.073   6.100   9.542  0.3698 -1.5516  0.9433
  138SAPE  C21215013   3.990   6.011   9.367 -0.3015 -0.5643  0.5733
  138SAPE  H12R15014   4.089   5.987   9.325 -0.2896 -0.1841  0.3797
  138SAPE  C21315015   3.873   5.989   9.275 -0.3213  0.6320 -0.5852
  138SAPE  H13R15016   3.788   6.060   9.288 -1.3044  0.1359 -3.4201
  138SAPE  H13S15017   3.829   5.894   9.311  1.0794  0.7272  1.5251
  138SAPE  C21415018   3.917   5.986   9.133  0.9097 -0.4321 -0.7139
  138SAPE  H14R15019   3.970   5.894   9.103  1.6897 -0.7832  1.5504
  138SAPE  C21515020   3.885   6.081   9.044  0.0789 -0.5341 -0.9675
  138SAPE  H15R15021   3.929   6.077   8.944  0.4697  0.0717 -0.8260
  138SAPE  C21615022   3.807   6.213   9.074  0.3401  0.0054 -0.2881
  138SAPE  H16R15023   3.856   6.276   9.151 -1.1238 -0.8974  1.4815
  138SAPE  H16S15024   3.700   6.190   9.097  0.4564 -0.4673 -0.2121
  138SAPE  C21715025   3.792   6.306   8.951  0.2776  0.3129  0.3233
  138SAPE  H17R15026   3.701   6.258   8.908 -0.4070  2.3988 -0.7095
  138SAPE  H17S15027   3.875   6.289   8.879 -0.0068  2.7003 -0.6728
  138SAPE  C21815028   3.751   6.447   8.949  0.6441  0.3975 -0.0185
  138SAPE  H18R15029   3.839   6.514   8.966  1.1849  0.6400 -3.0725
  138SAPE  H18S15030   3.681   6.457   9.034 -0.4743 -0.2312 -0.8455
  138SAPE  C21915031   3.678   6.496   8.822  0.3011  0.2646 -0.0269
  138SAPE  H19R15032   3.635   6.596   8.841  0.5708  0.0031  2.2020
  138SAPE  H19S15033   3.595   6.423   8.821  0.1839  0.3938  0.3057
  138SAPE  C22015034   3.753   6.489   8.688 -0.3067  0.1546  0.1465
  138SAPE  H20R15035   3.857   6.527   8.686  0.0430 -0.8461 -1.5223
  138SAPE  H20S15036   3.704   6.557   8.615 -0.0988 -1.0330 -1.1370
  138SAPE  H20T15037   3.753   6.386   8.648  0.8963  0.0330  0.4144
  138SAPE   C3315038   4.514   6.051   9.867 -0.3135  0.1477 -0.0955
  138SAPE   H3X15039   4.467   5.960   9.912  3.0781 -1.1662  1.0608
  138SAPE   H3Y15040   4.616   6.018   9.840 -0.0367  0.1240  0.9558
  138SAPE   C3415041   4.433   6.087   9.741 -0.7931 -0.7406 -0.0453
  138SAPE   H4X15042   4.470   6.178   9.689 -2.9798  1.1782  1.5849
  138SAPE   H4Y15043   4.326   6.097   9.767 -1.2894 -2.6754 -1.1556
  138SAPE   C3515044   4.432   5.976   9.635 -0.9906 -0.2449 -0.2436
  138SAPE   H5X15045   4.374   5.888   9.670 -1.7860  0.3243 -0.0806
  138SAPE   H5Y15046   4.534   5.942   9.609 -0.4297  0.6102  0.7591
  138SAPE   C3615047   4.375   6.014   9.499 -0.4739 -0.1939  0.3306
  138SAPE   H6X15048   4.401   6.120   9.482 -0.9707  0.2441  2.0607
  138SAPE   H6Y15049   4.264   6.013   9.506 -0.5050  3.0800  3.1951
  138SAPE   C3715050   4.420   5.924   9.378  0.1740 -0.6456  0.4748
  138SAPE   H7X15051   4.395   5.818   9.401  3.2958 -1.0499  2.4974
  138SAPE   H7Y15052   4.531   5.923   9.378  0.1690 -1.0759  1.1571
  138SAPE   C3815053   4.377   5.972   9.238 -0.3677 -0.3005  0.0742
  138SAPE   H8X15054   4.403   6.080   9.235 -0.2818 -0.3153  0.2760
  138SAPE   H8Y15055   4.268   5.965   9.217 -0.1659  0.8232 -1.5455
  138SAPE   C3915056   4.456   5.889   9.130 -0.4705 -0.4966  0.2953
  138SAPE   H9X15057   4.462   5.782   9.160  2.7310 -0.5653 -0.2511
  138SAPE   H9Y15058   4.563   5.913   9.148 -1.4691  4.6933  1.0381
  138SAPE  C31015059   4.424   5.915   8.980  0.0603  0.0050 -0.2098
  138SAPE  H10X15060   4.436   6.023   8.959 -0.7759 -0.1981 -1.9813
  138SAPE  H10Y15061   4.317   5.887   8.962 -0.7080  1.2793  2.0326
  138SAPE  C31115062   4.516   5.841   8.880 -0.2210  0.4985 -0.1476
  138SAPE  H11X15063   4.542   5.737   8.911 -0.5086 -0.3285 -2.5226
  138SAPE  H11Y15064   4.609   5.900   8.873 -1.2167  2.3373  1.1348
  138SAPE  C31215065   4.456   5.831   8.740  0.3297  0.8945  0.3178
  138SAPE  H12X15066   4.392   5.919   8.717 -0.5228 -0.3790 -2.6451
  138SAPE  H12Y15067   4.399   5.736   8.729  0.1131  1.1386 -0.8850
  138SAPE  C31315068   4.568   5.841   8.632 -0.2078 -0.3448  0.4465
  138SAPE  H13X15069   4.643   5.759   8.647  0.6026  0.5416  1.4343
  138SAPE  H13Y15070   4.636   5.926   8.657  0.6078 -0.4974 -1.1247
  138SAPE  C31415071   4.535   5.885   8.489 -0.5991 -1.1509 -0.2194
  138SAPE  H14X15072   4.527   5.995   8.470 -2.1431 -0.6982  2.6123
  138SAPE  H14Y15073   4.432   5.846   8.483 -0.4196 -1.6854  0.1313
  138SAPE  C31515074   4.607   5.812   8.379 -0.4544 -0.4183 -0.9956
  138SAPE  H15X15075   4.582   5.705   8.398  0.2154 -0.1385  1.9342
  138SAPE  H15Y15076   4.715   5.834   8.393 -0.5054 -0.4190 -0.6075
  138SAPE  C31615077   4.562   5.856   8.234  0.9017  0.6377 -1.0381
  138SAPE  H16X15078   4.463   5.906   8.244  1.2512  1.2608 -0.6766
  138SAPE  H16Y15079   4.559   5.765   8.170 -1.1628  0.5368 -0.8862
  138SAPE  C31715080   4.652   5.950   8.162 -0.5773 -0.2898 -0.3444
  138SAPE  H17X15081   4.611   5.949   8.059 -1.7468  0.4274  0.1096
  138SAPE  H17Y15082   4.754   5.906   8.174  0.0117  1.2982  0.7172
  138SAPE  C31815083   4.654   6.089   8.222 -0.9046  0.0416  0.1555
  138SAPE  H18X15084   4.577   6.155   8.176 -1.2585  3.0899  4.5176
  138SAPE  H18Y15085   4.754   6.134   8.207 -1.1250  0.8536  0.9909
  138SAPE  H18Z15086   4.640   6.104   8.331  1.3994 -0.3730  0.5591
  139SAPE     N15087   4.291   6.357  10.974 -0.1225  0.7783  0.1161
  139SAPE   HN115088   4.230   6.276  10.951  0.4284  0.3634  0.1017
  139SAPE   HN215089   4.357   6.313  11.041 -0.8383  1.2129  1.1272
  139SAPE   HN315090   4.238   6.427  11.030 -0.3153  1.1784 -0.5534
  139SAPE   C1215091   4.355   6.416  10.855 -0.1096  0.1956 -0.0044
  139SAPE  H12A15092   4.273   6.449  10.788 -0.5837 -0.5768  0.1837
  139SAPE  H12B15093   4.387   6.321  10.806 -0.5413 -0.4262  0.8923
  139SAPE   C1115094   4.459   6.528  10.885  0.1746 -0.0857 -0.2054
  139SAPE  H11A15095   4.488   6.579  10.791  0.3799  0.3729  0.1027
  139SAPE  H11B15096   4.554   6.480  10.919  0.2879  0.0070 -0.3912
  139SAPE     P15097   4.420   6.772  10.961  0.0091  0.0469  0.3666
  139SAPE   O1315098   4.296   6.842  10.995 -0.3590 -0.0359 -0.0392
  139SAPE   O1415099   4.535   6.811  11.040 -0.2227  0.5044 -0.1857
  139SAPE   O1215100   4.397   6.618  10.980 -0.6349  0.3646  0.6277
  139SAPE   O1115101   4.453   6.800  10.806 -0.1839 -0.1264  0.2663
  139SAPE    C115102   4.342   6.810  10.718  0.3056  0.0503 -0.0614
  139SAPE    HA15103   4.249   6.753  10.739  0.4828 -0.4830 -0.6977
  139SAPE    HB15104   4.317   6.917  10.700  2.9116  0.3498 -2.6951
  139SAPE    C215105   4.363   6.753  10.574 -1.2194  0.2737 -0.3639
  139SAPE    HS15106   4.392   6.646  10.589  2.7958  1.1557 -0.6680
  139SAPE   O2115107   4.468   6.833  10.511 -0.3221  0.5505  0.4342
  139SAPE   C2115108   4.560   6.758  10.453  0.2320 -0.2966 -0.0333
  139SAPE   O2215109   4.567   6.636  10.469 -0.4485 -0.2902  0.1046
  139SAPE   C2215110   4.648   6.846  10.359  0.5017  0.0217  0.1125
  139SAPE   H2R15111   4.588   6.932  10.323 -0.2972 -0.9902 -1.0404
  139SAPE   H2S15112   4.740   6.879  10.411  0.0081  1.6451 -0.0055
  139SAPE    C315113   4.231   6.770  10.494  0.1593 -0.0942 -0.5716
  139SAPE    HX15114   4.214   6.879  10.496 -0.7831 -0.2297  1.7769
  139SAPE    HY15115   4.149   6.732  10.560 -0.3814 -1.2269 -1.8403
  139SAPE   O3115116   4.230   6.725  10.359  0.4514  0.2206  0.7040
  139SAPE   C3115117   4.211   6.598  10.336  0.0454  0.0941  0.4334
  139SAPE   O3215118   4.190   6.516  10.423  0.5334 -0.4785  0.1015
  139SAPE   C3215119   4.213   6.573  10.178 -0.9615  0.0204  0.1369
  139SAPE   H2X15120   4.290   6.640  10.133 -1.9395  0.3671 -1.0665
  139SAPE   H2Y15121   4.116   6.608  10.138 -1.5405 -2.8962 -1.2843
  139SAPE   C2315122   4.713   6.775  10.236 -0.4593 -0.0677  0.3190
  139SAPE   H3R15123   4.766   6.686  10.277  1.4776  1.2124  0.7703
  139SAPE   H3S15124   4.786   6.840  10.183 -2.9774  1.4403 -1.5103
  139SAPE   C2415125   4.617   6.703  10.136  0.2147 -0.2223  0.5379
  139SAPE   H4R15126   4.543   6.645  10.195  0.7513 -0.6784  0.7696
  139SAPE   H4S15127   4.677   6.629  10.079  0.9732  1.2694 -0.6895
  139SAPE   C2515128   4.541   6.803  10.051  0.5120  0.2509  0.0229
  139SAPE   H5R15129   4.464   6.857  10.108  1.3462 -0.4308  1.8594
  139SAPE   C2615130   4.578   6.846   9.926  0.6468 -0.3449 -0.2063
  139SAPE   H6R15131   4.511   6.924   9.886  1.3114 -0.1407 -0.9585
  139SAPE   C2715132   4.698   6.792   9.839  0.3691 -0.8983  0.1474
  139SAPE   H7R15133   4.777   6.748   9.903 -0.0268 -1.0174  0.5545
  139SAPE   H7S15134   4.753   6.868   9.778 -0.3479 -0.5057 -0.0225
  139SAPE   C2815135   4.636   6.687   9.751  0.3068  0.2777  0.5572
  139SAPE   H8R15136   4.548   6.627   9.776 -0.2786  0.0168 -1.8534
  139SAPE   C2915137   4.669   6.657   9.622 -0.5065 -0.2459 -0.1169
  139SAPE   H9R15138   4.612   6.576   9.575  1.4329 -0.6095 -2.0133
  139SAPE  C21015139   4.784   6.719   9.543 -0.4348 -0.1516 -0.4529
  139SAPE  H10R15140   4.866   6.749   9.612 -2.3435 -0.7154  2.2209
  139SAPE  H10S15141   4.736   6.812   9.505 -2.0863 -0.1618  1.4469
  139SAPE  C21115142   4.820   6.628   9.425  0.0032 -0.0842  0.1599
  139SAPE  H11R15143   4.916   6.577   9.441  0.9117  0.9298 -1.6939
  139SAPE  C21215144   4.762   6.611   9.310 -0.6432  0.3094  0.5842
  139SAPE  H12R15145   4.813   6.555   9.231  0.2317  1.4959  0.2799
  139SAPE  C21315146   4.636   6.682   9.259  0.0938 -0.1797 -0.5514
  139SAPE  H13R15147   4.662   6.777   9.208  1.0819 -0.1936 -0.1098
  139SAPE  H13S15148   4.569   6.696   9.347 -0.2405 -0.4168 -0.7648
  139SAPE  C21415149   4.568   6.593   9.160 -0.2534 -0.7129  0.0816
  139SAPE  H14R15150   4.488   6.531   9.201 -0.6323 -0.3375 -0.0846
  139SAPE  C21515151   4.609   6.576   9.031  0.7464 -0.7801  0.3877
  139SAPE  H15R15152   4.543   6.512   8.971  1.9512 -2.1449  0.4541
  139SAPE  C21615153   4.721   6.633   8.953  0.0172 -1.3299  0.9683
  139SAPE  H16R15154   4.753   6.549   8.888 -2.1629 -1.9551  0.6382
  139SAPE  H16S15155   4.798   6.677   9.021  0.3431 -0.6200  0.1468
  139SAPE  C21715156   4.663   6.750   8.870  0.4980 -0.3647  0.1860
  139SAPE  H17R15157   4.759   6.787   8.830  0.0437 -0.0564 -0.6448
  139SAPE  H17S15158   4.614   6.825   8.936 -2.9153 -1.2614 -1.1016
  139SAPE  C21815159   4.567   6.708   8.758  0.1200 -0.2307  0.2723
  139SAPE  H18R15160   4.465   6.698   8.800  0.5122 -1.0733  1.0569
  139SAPE  H18S15161   4.602   6.609   8.723  0.6950 -0.9280  2.6186
  139SAPE  C21915162   4.556   6.817   8.649 -0.3843 -0.3547 -0.5079
  139SAPE  H19R15163   4.660   6.850   8.629 -0.1830 -0.8504 -0.3070
  139SAPE  H19S15164   4.515   6.912   8.691 -0.3494 -0.0211 -1.2209
  139SAPE  C22015165   4.493   6.773   8.521 -0.1974 -0.6450 -0.0532
  139SAPE  H20R15166   4.528   6.840   8.439  1.8992 -0.7700  0.6798
  139SAPE  H20S15167   4.383   6.763   8.518 -0.1511 -1.1866 -0.0320
  139SAPE  H20T15168   4.529   6.672   8.491  0.2566 -1.1379  2.0095
  139SAPE   C3315169   4.240   6.425  10.133  0.1032  0.0708  0.1143
  139SAPE   H3X15170   4.175   6.352  10.186  0.1909 -1.1141 -1.3304
  139SAPE   H3Y15171   4.347   6.406  10.157  0.8137  0.8467 -2.1756
  139SAPE   C3415172   4.212   6.394   9.991 -0.5105 -0.3700  0.2040
  139SAPE   H4X15173   4.109   6.402   9.949  0.6027 -1.5298 -3.0062
  139SAPE   H4Y15174   4.239   6.286   9.988 -2.1319 -0.8864  1.8212
  139SAPE   C3515175   4.293   6.474   9.884 -0.3000 -0.0369  0.3778
  139SAPE   H5X15176   4.402   6.474   9.905 -0.2955  0.7958  0.3562
  139SAPE   H5Y15177   4.265   6.581   9.890  1.8290  0.4756  3.0571
  139SAPE   C3615178   4.252   6.428   9.741 -0.9795  0.1789 -0.3760
  139SAPE   H6X15179   4.143   6.442   9.728 -1.4715 -1.6499  1.1284
  139SAPE   H6Y15180   4.273   6.319   9.753 -0.9403  0.4327  2.7747
  139SAPE   C3715181   4.329   6.497   9.628 -0.6278 -0.1565 -0.4996
  139SAPE   H7X15182   4.435   6.497   9.661 -0.5028  0.4017 -0.8782
  139SAPE   H7Y15183   4.312   6.607   9.618  2.8430  0.2843 -4.4606
  139SAPE   C3815184   4.320   6.417   9.503  0.6249 -0.2138  0.4849
  139SAPE   H8X15185   4.341   6.311   9.529  0.1925 -0.0392  1.5800
  139SAPE   H8Y15186   4.398   6.446   9.428  0.7996 -3.9295 -0.9946
  139SAPE   C3915187   4.181   6.416   9.429  0.9421 -0.7501 -0.1059
  139SAPE   H9X15188   4.160   6.522   9.402  0.3567 -1.3113 -2.0057
  139SAPE   H9Y15189   4.104   6.385   9.503  3.5163 -1.1075  2.6346
  139SAPE  C31015190   4.178   6.321   9.305 -0.0652 -0.0656 -0.6820
  139SAPE  H10X15191   4.070   6.311   9.279  0.0645  0.1116 -1.3055
  139SAPE  H10Y15192   4.216   6.220   9.329  0.8416  0.6521  1.0686
  139SAPE  C31115193   4.234   6.379   9.172  0.3900  0.4276  0.0144
  139SAPE  H11X15194   4.344   6.372   9.166  0.5373  1.6408  0.9986
  139SAPE  H11Y15195   4.206   6.486   9.170  2.0343  0.8744 -0.0903
  139SAPE  C31215196   4.175   6.312   9.048 -0.1511  0.1272 -0.5063
  139SAPE  H12X15197   4.066   6.333   9.046  0.0278  1.3308  0.9960
  139SAPE  H12Y15198   4.192   6.202   9.053 -0.6222  0.0673 -0.1927
  139SAPE  C31315199   4.233   6.365   8.926 -0.3512  0.2545 -0.6508
  139SAPE  H13X15200   4.330   6.316   8.904  0.0678  1.0331 -0.5882
  139SAPE  H13Y15201   4.262   6.469   8.953  0.0337  0.3460 -1.3968
  139SAPE  C31415202   4.149   6.382   8.799  0.0982  0.3669 -0.1853
  139SAPE  H14X15203   4.212   6.456   8.746  0.6148  0.6034  0.7242
  139SAPE  H14Y15204   4.044   6.419   8.803 -0.1264 -0.3515  2.1006
  139SAPE  C31515205   4.146   6.247   8.726  1.0744 -0.4296 -0.0663
  139SAPE  H15X15206   4.091   6.173   8.788 -1.0855  1.5637  0.5614
  139SAPE  H15Y15207   4.251   6.211   8.720  1.6004  1.0547 -0.1635
  139SAPE  C31615208   4.084   6.259   8.586  0.5470  0.0142  0.3776
  139SAPE  H16X15209   3.980   6.300   8.588  0.2430 -0.5130 -1.7950
  139SAPE  H16Y15210   4.145   6.335   8.533  1.3181 -0.1567  1.0095
  139SAPE  C31715211   4.099   6.128   8.500  0.1741  1.1113 -0.8608
  139SAPE  H17X15212   4.027   6.052   8.537 -1.3603  2.2052 -1.4931
  139SAPE  H17Y15213   4.200   6.087   8.521 -0.3802  0.9349  1.8296
  139SAPE  C31815214   4.080   6.149   8.351  1.0174 -0.8832  0.1794
  139SAPE  H18X15215   4.108   6.052   8.304  0.5739 -0.4687 -0.9686
  139SAPE  H18Y15216   4.156   6.223   8.320  0.5241 -0.0670  0.8556
  139SAPE  H18Z15217   3.979   6.177   8.315  1.2106 -1.7226 -1.0691
  140SAPE     N15218   4.835   4.773  10.925 -0.2124  0.3822 -0.0480
  140SAPE   HN115219   4.826   4.832  11.010  2.6450  2.9110 -1.2838
  140SAPE   HN215220   4.930   4.798  10.889 -0.5570  2.0128  0.0975
  140SAPE   HN315221   4.780   4.809  10.844  0.4869 -0.5763 -0.9727
  140SAPE   C1215222   4.829   4.618  10.946 -0.6898 -0.2322 -0.1463
  140SAPE  H12A15223   4.755   4.598  11.026 -1.0403  2.0816  0.1889
  140SAPE  H12B15224   4.929   4.587  10.983 -0.7102 -0.6100 -0.4073
  140SAPE   C1115225   4.798   4.528  10.822 -0.3870  0.8613  0.3142
  140SAPE  H11A15226   4.872   4.531  10.739  0.2929  1.2489  0.9209
  140SAPE  H11B15227   4.705   4.562  10.772  1.1316  1.0277 -2.6270
  140SAPE     P15228   4.923   4.298  10.882  0.1965 -0.1780  0.2315
  140SAPE   O1315229   5.005   4.357  10.993  0.2452  0.7260 -0.1654
  140SAPE   O1415230   4.877   4.156  10.881 -0.2550  0.2545 -0.2686
  140SAPE   O1215231   4.785   4.390  10.866 -0.1948  0.0857  0.7940
  140SAPE   O1115232   5.006   4.321  10.751 -0.0684 -0.5683  0.7351
  140SAPE    C115233   4.956   4.282  10.629 -0.7243  0.2648  0.5602
  140SAPE    HA15234   4.949   4.171  10.621 -1.6332  0.4254 -1.5398
  140SAPE    HB15235   4.860   4.332  10.604 -0.4500  0.9915  0.9197
  140SAPE    C215236   5.062   4.329  10.517  0.2193  0.0738 -0.1396
  140SAPE    HS15237   5.060   4.440  10.511  1.3949  0.1806  1.0715
  140SAPE   O2115238   5.029   4.268  10.385  0.1927  0.2671 -0.5553
  140SAPE   C2115239   4.934   4.332  10.310 -0.4930  0.0982 -0.0755
  140SAPE   O2215240   4.878   4.437  10.341  0.0624  0.3212 -0.1062
  140SAPE   C2215241   4.924   4.254  10.178  0.8093 -0.7856  0.0127
  140SAPE   H2R15242   5.029   4.261  10.143  1.9729  1.3760  3.3953
  140SAPE   H2S15243   4.905   4.148  10.206  0.0852 -0.9869 -1.2162
  140SAPE    C315244   5.203   4.286  10.562 -0.3092 -0.1685  0.5773
  140SAPE    HX15245   5.203   4.175  10.571 -0.6718 -0.3023 -0.7889
  140SAPE    HY15246   5.227   4.311  10.667 -0.1764 -0.5610  0.6432
  140SAPE   O3115247   5.301   4.317  10.459 -0.5921 -0.2722  0.5830
  140SAPE   C3115248   5.327   4.451  10.456 -0.3450  0.1240  0.1452
  140SAPE   O3215249   5.274   4.527  10.537 -0.2152  0.1789 -0.2665
  140SAPE   C3215250   5.431   4.483  10.353 -0.7564 -0.4434  0.1399
  140SAPE   H2X15251   5.462   4.388  10.303 -0.0296 -0.3238  0.3554
  140SAPE   H2Y15252   5.515   4.537  10.402 -0.8680  1.2825 -1.4607
  140SAPE   C2315253   4.842   4.317  10.060 -0.2120 -0.1036 -0.4755
  140SAPE   H3R15254   4.744   4.346  10.103  0.1582 -0.4166  0.6230
  140SAPE   H3S15255   4.808   4.245   9.982  0.3806  0.7288 -1.5180
  140SAPE   C2415256   4.910   4.434   9.992 -0.0787  0.4289 -0.1528
  140SAPE   H4R15257   5.017   4.420   9.967 -0.5242  1.2804 -2.8409
  140SAPE   H4S15258   4.903   4.509  10.074  0.7340 -0.6576  0.9456
  140SAPE   C2515259   4.821   4.492   9.884  0.3966  1.1862  0.7685
  140SAPE   H5R15260   4.716   4.518   9.902  0.2684  0.5729  0.9021
  140SAPE   C2615261   4.858   4.500   9.755 -0.8655 -0.8331  0.2974
  140SAPE   H6R15262   4.779   4.539   9.689  0.0862  0.3239 -0.1869
  140SAPE   C2715263   4.993   4.466   9.708 -0.6500 -0.6067  0.6767
  140SAPE   H7R15264   5.000   4.355   9.712  1.1908 -0.4885  1.2054
  140SAPE   H7S15265   5.075   4.496   9.776 -1.0383 -0.3483  1.0352
  140SAPE   C2815266   5.038   4.513   9.568  0.2709  0.5090  0.8010
  140SAPE   H8R15267   5.080   4.613   9.556  2.0945 -0.2127  0.7912
  140SAPE   C2915268   5.006   4.448   9.453 -0.7489  0.5817 -0.0296
  140SAPE   H9R15269   5.032   4.494   9.356 -1.0701  0.6135 -0.1006
  140SAPE  C21015270   4.943   4.308   9.449  0.1251 -0.2883 -0.1118
  140SAPE  H10R15271   4.853   4.325   9.385  0.6183  0.9959 -0.4998
  140SAPE  H10S15272   4.895   4.288   9.547 -1.8216 -0.5339 -1.0607
  140SAPE  C21115273   5.026   4.187   9.398 -0.1264  0.0904  0.8182
  140SAPE  H11R15274   5.087   4.140   9.477  2.0976  2.9058  0.9414
  140SAPE  C21215275   5.013   4.131   9.274  0.4836  0.3871 -0.8082
  140SAPE  H12R15276   5.087   4.057   9.242  1.5522  0.9359  0.3557
  140SAPE  C21315277   4.914   4.168   9.166  0.6476 -0.4713 -0.5047
  140SAPE  H13R15278   4.885   4.275   9.175 -1.3320 -0.9905 -0.1587
  140SAPE  H13S15279   4.825   4.113   9.203  1.2415 -1.1151 -0.0114
  140SAPE  C21415280   4.951   4.133   9.024  0.4780 -0.9330  0.0471
  140SAPE  H14R15281   5.047   4.174   8.989  0.6004 -2.4041 -1.4684
  140SAPE  C21515282   4.889   4.062   8.931  0.8365 -0.0874 -0.3846
  140SAPE  H15R15283   4.924   4.054   8.827  1.2395 -0.7519 -0.2085
  140SAPE  C21615284   4.760   3.990   8.958  0.1653  0.0517 -0.1253
  140SAPE  H16R15285   4.718   4.000   9.061  0.2137 -2.3367  0.1794
  140SAPE  H16S15286   4.781   3.883   8.937 -0.1882 -0.2757  1.1129
  140SAPE  C21715287   4.652   4.042   8.862  0.3890 -0.8851 -0.1240
  140SAPE  H17R15288   4.566   3.985   8.902 -0.0563 -0.1267  0.0182
  140SAPE  H17S15289   4.674   4.033   8.753  0.4244  0.6607 -0.2687
  140SAPE  C21815290   4.612   4.192   8.881 -0.2736 -0.2169  0.7815
  140SAPE  H18R15291   4.692   4.251   8.832  1.2327 -2.8419 -0.1297
  140SAPE  H18S15292   4.613   4.226   8.986 -1.4574  2.2976  0.0632
  140SAPE  C21915293   4.472   4.219   8.819  0.4963 -0.4648 -0.0486
  140SAPE  H19R15294   4.399   4.161   8.879 -0.0279  0.8378  0.6052
  140SAPE  H19S15295   4.473   4.179   8.715 -0.5819 -0.5330 -0.0406
  140SAPE  C22015296   4.424   4.363   8.820 -0.3437  0.2165 -0.1213
  140SAPE  H20R15297   4.402   4.389   8.926 -0.3513 -0.8298  0.1419
  140SAPE  H20S15298   4.330   4.362   8.761  0.7664  1.1086 -2.0295
  140SAPE  H20T15299   4.492   4.439   8.777 -1.1390  1.1858  0.3015
  140SAPE   C3315300   5.363   4.583  10.258 -0.0677  0.1541 -0.0099
  140SAPE   H3X15301   5.452   4.634  10.214  2.2939 -2.0893  1.8512
  140SAPE   H3Y15302   5.301   4.659  10.310 -0.2012  1.5647 -2.0779
  140SAPE   C3415303   5.295   4.504  10.141  0.5744 -0.0946 -0.4564
  140SAPE   H4X15304   5.252   4.579  10.072  0.3686  1.4454  1.2636
  140SAPE   H4Y15305   5.213   4.436  10.174  1.0947 -1.9409 -2.7819
  140SAPE   C3515306   5.397   4.418  10.064  0.6069  0.3453  0.0899
  140SAPE   H5X15307   5.449   4.330  10.105  0.4662 -0.2965 -1.0680
  140SAPE   H5Y15308   5.481   4.482  10.030  0.8079 -0.8493 -1.8249
  140SAPE   C3615309   5.314   4.366   9.944  0.0987  0.6138 -0.1127
  140SAPE   H6X15310   5.275   4.453   9.887 -1.4295 -0.8818 -1.4653
  140SAPE   H6Y15311   5.227   4.302   9.972  0.3071  1.1953  1.9805
  140SAPE   C3715312   5.395   4.290   9.843 -0.3876 -0.2114  0.3087
  140SAPE   H7X15313   5.433   4.203   9.900  0.0439  0.7375  1.5067
  140SAPE   H7Y15314   5.483   4.347   9.808 -0.6974  0.4386  0.5820
  140SAPE   C3815315   5.330   4.230   9.720  0.3296 -0.2143  0.4242
  140SAPE   H8X15316   5.312   4.325   9.666  2.0983  0.6508  1.2903
  140SAPE   H8Y15317   5.234   4.182   9.750 -0.5254 -0.0121 -1.8028
  140SAPE   C3915318   5.433   4.143   9.643  0.1065  0.3047 -0.1149
  140SAPE   H9X15319   5.455   4.064   9.717 -3.1630 -1.5336 -0.9206
  140SAPE   H9Y15320   5.534   4.186   9.624  1.1010 -2.2396 -0.8920
  140SAPE  C31015321   5.393   4.075   9.514  0.4364  0.1104 -0.5912
  140SAPE  H10X15322   5.294   4.034   9.543  1.1191 -0.4334  1.0653
  140SAPE  H10Y15323   5.455   3.983   9.500  2.0858  1.2795 -1.2785
  140SAPE  C31115324   5.391   4.157   9.381 -0.2114  0.1695 -0.0853
  140SAPE  H11X15325   5.486   4.215   9.385 -0.2950  0.3359 -0.4780
  140SAPE  H11Y15326   5.309   4.230   9.364  2.2352  2.8301 -1.2538
  140SAPE  C31215327   5.387   4.067   9.254  0.0312  0.0171 -0.1771
  140SAPE  H12X15328   5.306   3.991   9.255  0.2792 -0.2483  0.1861
  140SAPE  H12Y15329   5.477   4.003   9.256 -1.1222 -1.6386  1.0196
  140SAPE  C31315330   5.395   4.142   9.121 -0.0642  0.1436  0.0324
  140SAPE  H13X15331   5.493   4.195   9.126 -1.2220  2.4527 -0.0906
  140SAPE  H13Y15332   5.306   4.206   9.097 -0.7928 -0.1604  1.7488
  140SAPE  C31415333   5.426   4.050   8.999  0.2759 -1.1439  0.5461
  140SAPE  H14X15334   5.326   4.019   8.962  0.7339 -1.2129 -0.6686
  140SAPE  H14Y15335   5.479   3.957   9.026  0.5667 -0.1879  3.6965
  140SAPE  C31515336   5.505   4.116   8.882 -0.0169 -0.4103  0.5227
  140SAPE  H15X15337   5.515   4.040   8.802 -0.8682 -0.0710  0.0869
  140SAPE  H15Y15338   5.608   4.145   8.914 -1.9610  3.1725  4.4781
  140SAPE  C31615339   5.441   4.248   8.833 -0.0247 -0.9212 -0.3986
  140SAPE  H16X15340   5.401   4.307   8.919 -1.2455 -3.7827  1.1363
  140SAPE  H16Y15341   5.344   4.227   8.783 -0.8394  2.6821 -0.5748
  140SAPE  C31715342   5.529   4.325   8.739 -0.4695 -0.0184  0.1613
  140SAPE  H17X15343   5.616   4.365   8.796 -0.3557 -0.3038  0.1873
  140SAPE  H17Y15344   5.467   4.409   8.701  1.3581  1.9503  1.2689
  140SAPE  C31815345   5.567   4.241   8.614 -0.4889 -0.7162 -0.1651
  140SAPE  H18X15346   5.637   4.160   8.646 -1.3983 -0.6561  2.1396
  140SAPE  H18Y15347   5.628   4.311   8.553 -1.7936 -0.1659 -0.8902
  140SAPE  H18Z15348   5.480   4.211   8.552  0.7826  0.5148 -2.7294
  141SAPE     N15349   1.173   3.527  10.748 -0.2534 -0.2147 -0.1225
  141SAPE   HN115350   1.254   3.540  10.684 -1.6222 -0.0109 -1.8957
  141SAPE   HN215351   1.133   3.432  10.737  1.0640 -0.6967 -1.0895
  141SAPE   HN315352   1.101   3.600  10.730 -1.0843 -1.5249 -2.5634
  141SAPE   C1215353   1.200   3.564  10.892 -0.1406 -0.2460  0.8780
  141SAPE  H12A15354   1.138   3.495  10.954 -1.8675  0.1381 -0.3416
  141SAPE  H12B15355   1.169   3.670  10.907  2.2706  0.7772 -0.7372
  141SAPE   C1115356   1.350   3.544  10.926 -0.2525  0.4563 -0.2204
  141SAPE  H11A15357   1.354   3.433  10.921 -0.1909  0.2451  2.7871
  141SAPE  H11B15358   1.365   3.564  11.034  0.1076  1.0075 -0.3724
  141SAPE     P15359   1.472   3.756  10.848  0.1227 -0.0821  0.0331
  141SAPE   O1315360   1.346   3.826  10.874 -0.2059 -0.5287  0.5595
  141SAPE   O1415361   1.575   3.772  10.949 -0.8877 -0.4964  0.0339
  141SAPE   O1215362   1.445   3.603  10.834 -0.6102  0.3610 -0.1766
  141SAPE   O1115363   1.524   3.792  10.710 -0.0005 -0.0756 -0.0203
  141SAPE    C115364   1.446   3.777  10.593 -0.2989  0.0496  0.1410
  141SAPE    HA15365   1.353   3.720  10.613 -0.2628 -0.6607 -1.5756
  141SAPE    HB15366   1.416   3.879  10.560  0.8518  0.4044  0.1470
  141SAPE    C215367   1.528   3.704  10.480  0.6928  0.0640  0.2750
  141SAPE    HS15368   1.466   3.678  10.392 -0.5182 -1.0040  1.4116
  141SAPE   O2115369   1.578   3.579  10.524 -0.0074  0.2496 -0.2159
  141SAPE   C2115370   1.493   3.488  10.553  0.3070  1.0353 -0.4347
  141SAPE   O2215371   1.373   3.492  10.548  0.3176  0.0008 -0.2799
  141SAPE   C2215372   1.578   3.360  10.568 -0.4857 -0.4691 -0.0693
  141SAPE   H2R15373   1.668   3.379  10.632 -0.6196 -1.4152  0.4229
  141SAPE   H2S15374   1.523   3.283  10.626  0.8447 -1.6325 -0.2845
  141SAPE    C315375   1.646   3.783  10.426 -0.3283 -0.2449 -0.2801
  141SAPE    HX15376   1.701   3.734  10.343 -0.5681  0.6294 -0.9774
  141SAPE    HY15377   1.715   3.794  10.513 -0.5276  1.4676 -0.2961
  141SAPE   O3115378   1.607   3.924  10.405 -0.0186 -0.1272  0.7479
  141SAPE   C3115379   1.555   3.946  10.285  0.9607 -0.7466  0.6743
  141SAPE   O3215380   1.536   3.862  10.198 -0.0543  0.1594  0.6630
  141SAPE   C3215381   1.510   4.093  10.275 -0.2621 -0.6864  0.6755
  141SAPE   H2X15382   1.603   4.154  10.274  0.2781 -1.0092 -5.2908
  141SAPE   H2Y15383   1.446   4.117  10.362 -0.9367 -0.1718  0.0397
  141SAPE   C2315384   1.632   3.317  10.434  0.6516  0.4395  0.4398
  141SAPE   H3R15385   1.703   3.232  10.444  0.3939 -0.1239 -1.7865
  141SAPE   H3S15386   1.687   3.399  10.384 -0.1061 -0.1771 -1.5059
  141SAPE   C2415387   1.522   3.251  10.343 -0.3820  0.0118  0.4523
  141SAPE   H4R15388   1.428   3.256  10.401 -0.5214  5.1764  0.2740
  141SAPE   H4S15389   1.570   3.152  10.327  2.1038  0.7916  2.3989
  141SAPE   C2515390   1.502   3.322  10.208 -0.2336 -0.1849 -0.2159
  141SAPE   H5R15391   1.425   3.401  10.201  1.4146  1.4822 -0.5265
  141SAPE   C2615392   1.566   3.274  10.092  0.0357  0.1996 -0.3181
  141SAPE   H6R15393   1.555   3.327   9.996  2.2094 -1.2731 -1.4638
  141SAPE   C2715394   1.663   3.160  10.074  0.7885  0.0831 -0.2839
  141SAPE   H7R15395   1.601   3.068  10.069  1.2573 -0.2504 -0.0056
  141SAPE   H7S15396   1.732   3.147  10.160  0.8692  1.7996 -0.0612
  141SAPE   C2815397   1.745   3.170   9.948  0.2800 -0.1716 -0.0988
  141SAPE   H8R15398   1.774   3.272   9.918  2.1466 -0.7100 -0.2390
  141SAPE   C2915399   1.805   3.074   9.879 -0.4135  0.0857 -0.7681
  141SAPE   H9R15400   1.879   3.105   9.803  0.5310 -0.3699 -0.0638
  141SAPE  C21015401   1.823   2.925   9.908 -0.1784  0.6241 -0.4630
  141SAPE  H10R15402   1.902   2.920   9.985  1.7070 -0.4706 -2.3447
  141SAPE  H10S15403   1.862   2.878   9.815  0.1523 -0.1079  0.0377
  141SAPE  C21115404   1.701   2.847   9.963  0.4672  0.1113  0.5723
  141SAPE  H11R15405   1.712   2.802  10.063  1.3338 -0.1522  0.3614
  141SAPE  C21215406   1.596   2.805   9.889  0.2764  0.3571 -0.5367
  141SAPE  H12R15407   1.512   2.750   9.933  0.5068  0.6904  0.3228
  141SAPE  C21315408   1.571   2.839   9.745 -0.1377 -0.0623  0.8473
  141SAPE  H13R15409   1.548   2.744   9.693 -1.0082  0.5325  0.1091
  141SAPE  H13S15410   1.666   2.882   9.706  0.3000 -0.9082  0.9596
  141SAPE  C21415411   1.459   2.940   9.719 -0.3555 -0.1684 -1.2162
  141SAPE  H14R15412   1.460   3.015   9.800 -0.2552 -2.0830  0.6278
  141SAPE  C21515413   1.363   2.953   9.628  0.4509  0.4348  0.2790
  141SAPE  H15R15414   1.287   3.032   9.639 -1.1847 -0.9152 -0.9387
  141SAPE  C21615415   1.344   2.866   9.502  0.0602 -0.6267  0.1533
  141SAPE  H16R15416   1.250   2.813   9.530  0.4380 -1.2189  0.3130
  141SAPE  H16S15417   1.428   2.796   9.487 -0.4239 -1.1802  0.0092
  141SAPE  C21715418   1.327   2.952   9.376  0.1596  0.0507 -0.1326
  141SAPE  H17R15419   1.400   3.035   9.388 -0.1294  0.1410  1.2070
  141SAPE  H17S15420   1.229   3.005   9.375 -0.1383 -0.4257  1.2481
  141SAPE  C21815421   1.352   2.870   9.246 -0.0594 -0.7417 -0.5694
  141SAPE  H18R15422   1.297   2.774   9.250  0.2381 -1.0517 -2.8943
  141SAPE  H18S15423   1.459   2.839   9.245 -0.0858 -0.8225 -0.7872
  141SAPE  C21915424   1.322   2.939   9.112 -0.0888  0.3029 -0.2583
  141SAPE  H19R15425   1.401   3.017   9.107  2.4049 -2.0192  0.9093
  141SAPE  H19S15426   1.222   2.987   9.096  0.4853  1.0614 -1.7530
  141SAPE  C22015427   1.353   2.846   8.987 -0.5477  0.0783  0.4685
  141SAPE  H20R15428   1.461   2.822   8.981 -0.6014  0.1933 -4.0061
  141SAPE  H20S15429   1.338   2.902   8.892 -0.5608 -0.0677  0.3845
  141SAPE  H20T15430   1.302   2.748   8.981 -2.4811  1.0612 -0.0769
  141SAPE   C3315431   1.422   4.129  10.150  0.0409  0.5319 -0.0438
  141SAPE   H3X15432   1.333   4.062  10.148  1.2869 -1.2152  1.1311
  141SAPE   H3Y15433   1.476   4.105  10.056  2.0218  0.2532  1.1101
  141SAPE   C3415434   1.356   4.264  10.138 -0.0653 -0.6487  0.0191
  141SAPE   H4X15435   1.436   4.340  10.124  0.5138 -1.6162 -2.8202
  141SAPE   H4Y15436   1.305   4.285  10.234  0.9766  2.9076 -0.0572
  141SAPE   C3515437   1.254   4.281  10.018  0.2046 -0.8723  0.1304
  141SAPE   H5X15438   1.208   4.381  10.028  0.1903 -0.7694 -0.9085
  141SAPE   H5Y15439   1.182   4.197  10.031  0.4226 -1.5290 -2.4269
  141SAPE   C3615440   1.302   4.250   9.878 -0.0680  0.5447  0.2365
  141SAPE   H6X15441   1.336   4.144   9.882  1.9823  1.2062  2.6356
  141SAPE   H6Y15442   1.388   4.314   9.850  1.5915 -1.6724  0.0028
  141SAPE   C3715443   1.192   4.286   9.787 -0.7000  0.0738  0.4794
  141SAPE   H7X15444   1.159   4.392   9.795 -1.4300  0.0869 -2.0382
  141SAPE   H7Y15445   1.101   4.232   9.819 -0.6718  1.2583  2.7754
  141SAPE   C3815446   1.223   4.260   9.637  0.9628 -0.9042  0.1132
  141SAPE   H8X15447   1.251   4.152   9.633 -2.7746 -1.9900 -0.9139
  141SAPE   H8Y15448   1.305   4.325   9.601  1.8952 -3.0195 -1.8890
  141SAPE   C3915449   1.098   4.267   9.541 -0.0810  0.3271  0.5982
  141SAPE   H9X15450   1.061   4.372   9.538 -3.7521 -0.8333 -0.0516
  141SAPE   H9Y15451   1.017   4.208   9.588 -3.7935  3.7506 -0.9333
  141SAPE  C31015452   1.129   4.201   9.407 -0.2780 -0.5796 -0.1790
  141SAPE  H10X15453   1.156   4.096   9.431 -3.0198 -1.9028 -2.4268
  141SAPE  H10Y15454   1.219   4.247   9.361 -0.4285  0.1818  0.2744
  141SAPE  C31115455   1.007   4.204   9.320  0.3516 -0.3923 -0.1224
  141SAPE  H11X15456   0.959   4.304   9.335  1.7628  0.0943  1.5035
  141SAPE  H11Y15457   0.918   4.141   9.343  0.5345 -0.3857  0.6358
  141SAPE  C31215458   1.032   4.198   9.166 -0.8703 -0.6567 -0.0974
  141SAPE  H12X15459   0.964   4.126   9.116 -0.7287 -0.1444 -1.0676
  141SAPE  H12Y15460   1.131   4.160   9.130 -1.2794 -0.7088 -1.2043
  141SAPE  C31315461   1.011   4.336   9.101  0.0721 -0.2212  0.0852
  141SAPE  H13X15462   1.098   4.401   9.122  0.1892 -0.8608  1.7356
  141SAPE  H13Y15463   0.924   4.393   9.140  0.7942 -0.4700  2.2144
  141SAPE  C31415464   0.984   4.324   8.955  0.7132  0.3691  0.1702
  141SAPE  H14X15465   0.908   4.404   8.943  0.0591  0.4148  3.6047
  141SAPE  H14Y15466   0.946   4.222   8.933 -2.8145  1.6511 -0.3645
  141SAPE  C31515467   1.102   4.361   8.865  0.2689 -0.1768  0.3563
  141SAPE  H15X15468   1.175   4.279   8.884  1.0588  0.5635  0.5859
  141SAPE  H15Y15469   1.147   4.457   8.898  0.7583 -0.5221  0.7197
  141SAPE  C31615470   1.081   4.354   8.716 -0.7633 -0.5673  0.3999
  141SAPE  H16X15471   1.006   4.430   8.685 -0.6039 -0.7108 -0.3746
  141SAPE  H16Y15472   1.044   4.252   8.689  1.2549 -1.5199  1.0127
  141SAPE  C31715473   1.216   4.381   8.640  0.1343  0.6000 -0.3031
  141SAPE  H17X15474   1.187   4.361   8.535 -0.6601 -0.1018  0.0416
  141SAPE  H17Y15475   1.291   4.303   8.666 -1.5939 -0.5853  1.3791
  141SAPE  C31815476   1.270   4.525   8.655 -0.6514  0.5962  0.0101
  141SAPE  H18X15477   1.298   4.553   8.758  0.1198 -0.9549  0.2464
  141SAPE  H18Y15478   1.183   4.592   8.635  0.7919  3.0675  1.4917
  141SAPE  H18Z15479   1.362   4.544   8.595 -0.0658  0.4196  0.8384
  142SAPE     N15480   0.442   1.072  11.014 -0.2984  0.0716 -0.2405
  142SAPE   HN115481   0.458   1.150  11.080  0.1225  0.0103 -0.2633
  142SAPE   HN215482   0.365   1.027  11.067 -3.0473  3.8768 -0.6109
  142SAPE   HN315483   0.527   1.013  10.998 -1.2176 -1.0352 -1.2266
  142SAPE   C1215484   0.380   1.112  10.889 -0.6754  0.2429  0.1996
  142SAPE  H12A15485   0.314   1.201  10.904 -0.0222  1.1735 -2.0282
  142SAPE  H12B15486   0.307   1.035  10.857  0.0748 -0.3013 -0.2182
  142SAPE   C1115487   0.489   1.138  10.788  0.0003  0.0249  0.5069
  142SAPE  H11A15488   0.450   1.146  10.684  2.0852 -1.1193 -0.4139
  142SAPE  H11B15489   0.556   1.051  10.774 -0.7348 -0.3741 -0.7314
  142SAPE     P15490   0.520   1.404  10.787  0.2989 -0.2206  0.2678
  142SAPE   O1315491   0.381   1.430  10.821  0.4461  0.1891 -0.1891
  142SAPE   O1415492   0.611   1.504  10.844 -0.1291  0.0517 -0.2638
  142SAPE   O1215493   0.558   1.257  10.835  0.1698  0.2983  0.5967
  142SAPE   O1115494   0.528   1.404  10.628  0.2655 -0.8018 -0.2623
  142SAPE    C115495   0.647   1.357  10.567  0.4261 -0.1746  0.2292
  142SAPE    HA15496   0.732   1.426  10.586  2.3762 -2.2588 -0.4665
  142SAPE    HB15497   0.668   1.250  10.591  1.0499  0.1088  0.9813
  142SAPE    C215498   0.630   1.369  10.413 -0.3111 -0.2631  0.2673
  142SAPE    HS15499   0.723   1.317  10.382  0.3500  0.1106  1.5526
  142SAPE   O2115500   0.626   1.508  10.371  0.1447  0.5587 -0.7140
  142SAPE   C2115501   0.659   1.523  10.250 -0.2988 -0.0748  0.6818
  142SAPE   O2215502   0.693   1.438  10.168  0.1057 -0.2273 -0.2265
  142SAPE   C2215503   0.652   1.665  10.218  0.1003  0.3147  0.2783
  142SAPE   H2R15504   0.563   1.681  10.153 -1.2479 -1.1426  1.6648
  142SAPE   H2S15505   0.624   1.718  10.311 -2.0741  0.1564 -0.2305
  142SAPE    C315506   0.497   1.302  10.365  0.2731  0.4291 -0.7114
  142SAPE    HX15507   0.412   1.365  10.397  2.2619  2.6288  0.5257
  142SAPE    HY15508   0.475   1.209  10.422 -0.6727  1.1388  0.1106
  142SAPE   O3115509   0.493   1.280  10.223  0.0064 -1.2810 -0.1320
  142SAPE   C3115510   0.560   1.174  10.185 -0.1262  0.3097  0.2357
  142SAPE   O3215511   0.618   1.092  10.261 -0.1638  0.2288  0.2747
  142SAPE   C3215512   0.544   1.148  10.034  0.2133 -0.6455  0.0465
  142SAPE   H2X15513   0.576   1.239   9.980 -3.9790  1.2642  0.3995
  142SAPE   H2Y15514   0.437   1.130  10.009 -1.0400  2.7446  2.1607
  142SAPE   C2315515   0.785   1.734  10.169 -0.0070 -0.0843  0.9453
  142SAPE   H3R15516   0.868   1.734  10.243  0.8317  1.1799  0.0504
  142SAPE   H3S15517   0.755   1.840  10.161  1.5819  0.3398  0.3039
  142SAPE   C2415518   0.826   1.695  10.026 -0.1941 -0.0217 -0.7514
  142SAPE   H4R15519   0.848   1.586  10.023 -2.2000 -0.4475 -1.2603
  142SAPE   H4S15520   0.924   1.746  10.016 -0.7453  1.1612 -0.2659
  142SAPE   C2515521   0.740   1.736   9.914  0.4203 -0.2613  0.3730
  142SAPE   H5R15522   0.738   1.844   9.898 -1.2047 -0.4356 -0.9091
  142SAPE   C2615523   0.672   1.664   9.825  0.8825  0.5321 -0.4167
  142SAPE   H6R15524   0.627   1.722   9.742 -0.2606 -1.6917 -1.4654
  142SAPE   C2715525   0.664   1.511   9.827  0.4375  0.1507  0.8574
  142SAPE   H7R15526   0.557   1.486   9.813  0.4588  0.8783 -0.9059
  142SAPE   H7S15527   0.687   1.458   9.922 -2.9094 -4.4304 -0.4965
  142SAPE   C2815528   0.744   1.442   9.716  0.1806  0.1628 -0.1241
  142SAPE   H8R15529   0.826   1.380   9.756  0.1468 -0.7458 -1.4031
  142SAPE   C2915530   0.715   1.449   9.588  0.4677  0.3786  0.4895
  142SAPE   H9R15531   0.765   1.386   9.513 -1.5281 -1.2876  0.4467
  142SAPE  C21015532   0.604   1.530   9.522 -0.6969 -0.1598 -0.0459
  142SAPE  H10R15533   0.547   1.594   9.592 -2.4347 -1.7298  0.0507
  142SAPE  H10S15534   0.522   1.486   9.461 -0.8529  2.3815 -1.8628
  142SAPE  C21115535   0.653   1.620   9.414 -0.4553 -0.0511 -0.5434
  142SAPE  H11R15536   0.760   1.602   9.395  0.0672  2.7933 -0.6518
  142SAPE  C21215537   0.589   1.716   9.347  0.4445  0.1784  0.3267
  142SAPE  H12R15538   0.633   1.765   9.259 -2.0126 -0.1153 -1.1461
  142SAPE  C21315539   0.440   1.740   9.354 -0.1613 -0.4393 -0.3781
  142SAPE  H13R15540   0.417   1.833   9.410 -0.6423 -0.5136 -0.4475
  142SAPE  H13S15541   0.388   1.660   9.411 -0.4167 -0.8785 -1.2279
  142SAPE  C21415542   0.383   1.746   9.217  0.1626 -0.0655  0.4638
  142SAPE  H14R15543   0.370   1.648   9.169 -0.4473  0.2414 -0.0243
  142SAPE  C21515544   0.357   1.853   9.133 -0.3597 -0.1480  0.6409
  142SAPE  H15R15545   0.298   1.832   9.042  2.0858 -4.4384 -0.2450
  142SAPE  C21615546   0.386   1.996   9.161  0.6831 -0.1340  0.4871
  142SAPE  H16R15547   0.472   2.019   9.228  0.4256 -1.0032  1.1349
  142SAPE  H16S15548   0.295   2.049   9.195 -1.8172 -1.9965 -2.7716
  142SAPE  C21715549   0.428   2.070   9.030 -0.6467 -0.7273 -0.8539
  142SAPE  H17R15550   0.347   2.073   8.953 -1.1806 -0.5527 -0.2944
  142SAPE  H17S15551   0.520   2.021   8.993  1.4239  1.2951  1.3376
  142SAPE  C21815552   0.463   2.220   9.061 -0.1844  0.9048  0.0704
  142SAPE  H18R15553   0.535   2.227   9.145  0.3543 -2.0669 -0.0307
  142SAPE  H18S15554   0.368   2.260   9.101 -1.0877 -1.2984  0.2823
  142SAPE  C21915555   0.510   2.297   8.935  0.6922  0.0730 -0.3301
  142SAPE  H19R15556   0.581   2.232   8.880  1.7518 -0.5752  1.6864
  142SAPE  H19S15557   0.559   2.391   8.970  0.2203 -0.4193  1.7936
  142SAPE  C22015558   0.397   2.332   8.844  0.4304  0.4650 -0.6433
  142SAPE  H20R15559   0.432   2.393   8.758  0.2203 -2.0972 -2.6535
  142SAPE  H20S15560   0.322   2.396   8.897  1.2061  0.5481  0.3883
  142SAPE  H20T15561   0.347   2.246   8.794 -0.8282 -0.0504  1.3404
  142SAPE   C3315562   0.624   1.022   9.988  0.0505 -0.0870  0.1316
  142SAPE   H3X15563   0.617   0.949  10.072 -0.8301  0.1404  0.2690
  142SAPE   H3Y15564   0.732   1.044   9.980 -0.1260  0.4532 -0.8854
  142SAPE   C3415565   0.587   0.957   9.856 -0.1053  0.2731  0.0827
  142SAPE   H4X15566   0.476   0.959   9.859 -0.1323 -0.9099  0.3087
  142SAPE   H4Y15567   0.620   0.851   9.854  2.0236  0.8777 -2.3296
  142SAPE   C3515568   0.647   1.030   9.730 -0.1578  0.8125  0.4059
  142SAPE   H5X15569   0.758   1.035   9.738 -0.1582  0.5301  0.5889
  142SAPE   H5Y15570   0.603   1.132   9.735 -2.2104  0.2198 -2.6469
  142SAPE   C3615571   0.604   0.981   9.593  0.1792 -0.0126  0.3203
  142SAPE   H6X15572   0.497   1.007   9.577  0.7565  2.5098  0.0856
  142SAPE   H6Y15573   0.622   0.872   9.596  3.1205  0.3913  0.4045
  142SAPE   C3715574   0.680   1.053   9.481  0.4355  0.7214 -0.3637
  142SAPE   H7X15575   0.785   1.020   9.496  0.2826  0.4435  0.1341
  142SAPE   H7Y15576   0.662   1.161   9.500  0.2602  0.7482 -0.6866
  142SAPE   C3815577   0.628   1.019   9.344 -0.4038  0.6384  0.4284
  142SAPE   H8X15578   0.518   1.032   9.333 -0.2190  1.5200 -0.5970
  142SAPE   H8Y15579   0.656   0.915   9.318 -1.0273  0.6700 -0.4066
  142SAPE   C3915580   0.690   1.098   9.220 -0.1669  0.1885  0.1573
  142SAPE   H9X15581   0.670   1.051   9.122 -2.0695  0.6757  0.2830
  142SAPE   H9Y15582   0.801   1.096   9.227 -0.1032  2.2044  0.0924
  142SAPE  C31015583   0.638   1.245   9.208  0.0243 -0.1043 -0.0650
  142SAPE  H10X15584   0.672   1.299   9.298 -0.3261 -0.6702  0.4165
  142SAPE  H10Y15585   0.527   1.252   9.213 -0.1388 -0.0219 -2.4283
  142SAPE  C31115586   0.678   1.305   9.074  0.1673  0.0753  0.0057
  142SAPE  H11X15587   0.669   1.242   8.983 -1.3343  1.8639 -1.1461
  142SAPE  H11Y15588   0.789   1.312   9.071  0.1250  0.3730 -1.5375
  142SAPE  C31215589   0.607   1.438   9.047 -0.8989 -0.8484  0.4702
  142SAPE  H12X15590   0.617   1.512   9.129  0.3706 -1.4532  0.8779
  142SAPE  H12Y15591   0.497   1.426   9.032 -0.8925 -0.4272  0.0447
  142SAPE  C31315592   0.652   1.508   8.914 -0.5691  0.0618  0.2622
  142SAPE  H13X15593   0.689   1.434   8.840 -0.6888  1.3269 -1.0908
  142SAPE  H13Y15594   0.741   1.567   8.946  0.9222 -2.7895  1.7444
  142SAPE  C31415595   0.543   1.587   8.841  0.2531  0.0797 -0.1459
  142SAPE  H14X15596   0.509   1.678   8.896  1.6695  1.8926 -2.1259
  142SAPE  H14Y15597   0.454   1.521   8.832  0.1268  0.3210 -0.6993
  142SAPE  C31515598   0.574   1.651   8.712  0.2081 -0.4156  0.1116
  142SAPE  H15X15599   0.624   1.585   8.638 -0.4828 -1.0411  0.1884
  142SAPE  H15Y15600   0.638   1.740   8.731 -0.4529  0.2622 -0.6980
  142SAPE  C31615601   0.463   1.728   8.635 -0.3980 -0.5500  0.6417
  142SAPE  H16X15602   0.418   1.803   8.704  0.5216  0.9898 -0.3912
  142SAPE  H16Y15603   0.393   1.649   8.599 -2.3299  2.1679 -2.0290
  142SAPE  C31715604   0.518   1.790   8.511 -0.1347 -0.6725  0.2744
  142SAPE  H17X15605   0.586   1.716   8.462  2.2140 -0.3293  2.7745
  142SAPE  H17Y15606   0.582   1.877   8.538 -2.7307  1.8517 -1.1867
  142SAPE  C31815607   0.419   1.851   8.416 -0.0174  0.1231 -0.7260
  142SAPE  H18X15608   0.371   1.935   8.469  1.8495  0.5676  0.3413
  142SAPE  H18Y15609   0.339   1.776   8.392 -0.1534 -0.0658  0.2982
  142SAPE  H18Z15610   0.462   1.896   8.324  1.8486  0.9537  0.5156
  143SAPE     N15611   5.288   3.473  10.898 -0.2971  0.7310  0.5505
  143SAPE   HN115612   5.287   3.443  10.998  2.8121 -2.2384 -0.1031
  143SAPE   HN215613   5.347   3.405  10.846  0.2765  2.2129 -0.8227
  143SAPE   HN315614   5.334   3.566  10.892  0.4612  0.2909 -0.8468
  143SAPE   C1215615   5.160   3.482  10.817 -0.3109 -0.4824 -0.5326
  143SAPE  H12A15616   5.081   3.434  10.879  0.0741 -0.4471 -0.0112
  143SAPE  H12B15617   5.167   3.435  10.716  0.4691  0.2998 -0.8488
  143SAPE   C1115618   5.117   3.631  10.819  0.9566  0.2320 -0.3463
  143SAPE  H11A15619   5.022   3.632  10.762  1.1672 -0.8550 -0.7438
  143SAPE  H11B15620   5.187   3.691  10.758  1.1742 -0.9908 -1.3344
  143SAPE     P15621   4.952   3.672  11.021 -0.1343  0.2023 -0.1064
  143SAPE   O1315622   4.965   3.699  11.170 -0.2887 -0.1144 -0.1334
  143SAPE   O1415623   4.860   3.757  10.948 -0.3874 -0.0168 -0.1196
  143SAPE   O1215624   5.090   3.678  10.954 -0.6607  0.3413 -0.1126
  143SAPE   O1115625   4.917   3.522  10.998  0.5636 -0.6399 -0.2834
  143SAPE    C115626   4.811   3.456  11.057  0.9188 -0.0339  0.7965
  143SAPE    HA15627   4.854   3.374  11.118  2.0001  0.6594  0.9873
  143SAPE    HB15628   4.732   3.515  11.108 -2.3797 -2.1704 -1.4339
  143SAPE    C215629   4.733   3.384  10.945 -0.3701 -0.1081 -0.1576
  143SAPE    HS15630   4.793   3.296  10.913  0.1027  0.6433 -1.4082
  143SAPE   O2115631   4.702   3.469  10.836 -0.1973 -0.3981  0.2135
  143SAPE   C2115632   4.779   3.455  10.732 -0.3473  0.1966  0.6269
  143SAPE   O2215633   4.858   3.363  10.711  0.4874 -0.5593  0.5691
  143SAPE   C2215634   4.749   3.568  10.635  0.4504  0.1492 -0.6631
  143SAPE   H2R15635   4.641   3.592  10.632  0.3204 -0.3573 -0.1780
  143SAPE   H2S15636   4.796   3.650  10.692  1.4691 -2.5252  2.6916
  143SAPE    C315637   4.603   3.333  11.017  0.5692  0.7205  0.4804
  143SAPE    HX15638   4.552   3.423  11.056 -3.3877 -0.8059 -0.6653
  143SAPE    HY15639   4.631   3.256  11.093  0.0119 -0.9043 -0.8996
  143SAPE   O3115640   4.524   3.266  10.910  0.3094  0.2644 -0.2496
  143SAPE   C3115641   4.392   3.280  10.920 -0.9959 -0.4978 -0.4883
  143SAPE   O3215642   4.331   3.351  10.998  0.3470  0.2469 -0.9349
  143SAPE   C3215643   4.333   3.197  10.811 -0.2709 -0.0767 -0.0467
  143SAPE   H2X15644   4.346   3.091  10.841 -1.4534 -0.2754 -0.1822
  143SAPE   H2Y15645   4.383   3.214  10.713 -0.4235 -0.0996 -0.1293
  143SAPE   C2315646   4.806   3.549  10.488  0.6901 -0.2435 -0.0128
  143SAPE   H3R15647   4.763   3.453  10.454 -1.3372  0.9196 -0.8847
  143SAPE   H3S15648   4.916   3.542  10.474  0.8182 -0.9544  1.1879
  143SAPE   C2415649   4.748   3.647  10.397 -0.0890 -0.7681 -0.1446
  143SAPE   H4R15650   4.637   3.642  10.400 -0.0130 -1.8230  1.4712
  143SAPE   H4S15651   4.781   3.621  10.294  0.3788  0.5603 -0.3557
  143SAPE   C2515652   4.791   3.790  10.430  0.2158 -1.1706  0.3995
  143SAPE   H5R15653   4.730   3.844  10.504 -0.5320 -0.7546 -0.4913
  143SAPE   C2615654   4.889   3.861  10.367 -0.3484  0.2843  0.0703
  143SAPE   H6R15655   4.907   3.969  10.385  2.8918 -0.3340  1.2873
  143SAPE   C2715656   4.988   3.812  10.261  0.1030 -0.3062 -0.9008
  143SAPE   H7R15657   4.937   3.799  10.163  1.4118 -0.0746 -1.6205
  143SAPE   H7S15658   5.030   3.714  10.293 -1.3846 -0.5472  0.4533
  143SAPE   C2815659   5.098   3.908  10.238  0.2505  0.5394 -0.5216
  143SAPE   H8R15660   5.151   3.950  10.325 -0.6295  0.3216  0.1289
  143SAPE   C2915661   5.142   3.949  10.119  0.0496  0.0046  0.5340
  143SAPE   H9R15662   5.235   4.006  10.113 -0.2393  0.4060 -0.2379
  143SAPE  C21015663   5.090   3.908   9.978 -0.8703 -0.4337  0.0868
  143SAPE  H10R15664   5.006   3.837   9.992 -0.0642 -1.6249 -0.9542
  143SAPE  H10S15665   5.176   3.862   9.925 -0.3975  0.9821 -0.4090
  143SAPE  C21115666   5.032   4.020   9.898 -0.0095  0.5442 -0.6084
  143SAPE  H11R15667   5.007   4.109   9.958 -0.2306 -0.0376  0.1777
  143SAPE  C21215668   4.979   4.001   9.771 -0.0512 -0.0313 -0.1292
  143SAPE  H12R15669   4.928   4.086   9.721 -0.5480  0.1238  0.6324
  143SAPE  C21315670   4.971   3.892   9.671 -0.3059 -0.1840  0.2124
  143SAPE  H13R15671   5.061   3.829   9.688  0.1142  0.4937  0.5800
  143SAPE  H13S15672   4.995   3.944   9.576  0.8217  3.3638  2.2403
  143SAPE  C21415673   4.845   3.819   9.657  0.3446  0.8674  0.3801
  143SAPE  H14R15674   4.765   3.857   9.722 -1.3719 -0.7195 -0.6909
  143SAPE  C21515675   4.813   3.727   9.563  0.4261 -0.4629  0.4287
  143SAPE  H15R15676   4.709   3.692   9.556  0.1503  0.5921 -1.0455
  143SAPE  C21615677   4.904   3.681   9.449  0.2508 -0.7428 -0.6943
  143SAPE  H16R15678   4.905   3.570   9.450  1.0753 -0.7571 -1.6584
  143SAPE  H16S15679   5.009   3.710   9.471  0.0366  0.8890 -1.6772
  143SAPE  C21715680   4.857   3.749   9.318 -0.2057  0.5530  0.1086
  143SAPE  H17R15681   4.930   3.730   9.237 -0.6466  0.3556 -0.2492
  143SAPE  H17S15682   4.845   3.858   9.333 -4.1595  0.6789 -2.4616
  143SAPE  C21815683   4.717   3.699   9.280 -0.5587  0.4301 -0.1831
  143SAPE  H18R15684   4.644   3.758   9.340 -0.0576  0.1701  0.7000
  143SAPE  H18S15685   4.709   3.592   9.310  2.2616  0.1461 -0.1911
  143SAPE  C21915686   4.686   3.696   9.120 -0.1928  0.3176 -0.5144
  143SAPE  H19R15687   4.786   3.688   9.071  1.2291 -1.4635  2.3969
  143SAPE  H19S15688   4.639   3.795   9.102 -3.4269 -0.5199  2.3451
  143SAPE  C22015689   4.597   3.589   9.079  0.4581  0.3220 -0.1578
  143SAPE  H20R15690   4.493   3.601   9.116  0.9030 -0.1219  1.3127
  143SAPE  H20S15691   4.627   3.489   9.117  1.3764  0.6759  0.0737
  143SAPE  H20T15692   4.591   3.585   8.968  1.2676  0.4306 -0.2106
  143SAPE   C3315693   4.178   3.214  10.800  0.9743  0.5479  0.5464
  143SAPE   H3X15694   4.159   3.314  10.756  0.5220  0.1193 -0.2651
  143SAPE   H3Y15695   4.122   3.200  10.895 -1.7098  0.2244 -0.9830
  143SAPE   C3415696   4.115   3.102  10.708 -0.1464  0.9002 -0.6665
  143SAPE   H4X15697   4.102   3.009  10.767  0.5079  3.1556  3.4111
  143SAPE   H4Y15698   4.190   3.078  10.629  1.5560 -2.3984  1.7193
  143SAPE   C3515699   3.981   3.151  10.650 -0.7593  0.0249 -0.1895
  143SAPE   H5X15700   3.914   3.178  10.734  0.9336  0.5478  1.0517
  143SAPE   H5Y15701   3.941   3.067  10.589  3.9709 -1.6921 -1.3919
  143SAPE   C3615702   3.988   3.276  10.568  0.3753  0.7821 -0.5353
  143SAPE   H6X15703   4.034   3.363  10.619  1.7863 -0.3087  0.1123
  143SAPE   H6Y15704   3.884   3.309  10.544 -0.1839 -1.8138 -2.0640
  143SAPE   C3715705   4.058   3.259  10.430  0.3395 -0.1280  0.0095
  143SAPE   H7X15706   4.031   3.164  10.378 -1.4019 -0.4474  1.3988
  143SAPE   H7Y15707   4.168   3.262  10.441  0.4346  0.4040 -0.9217
  143SAPE   C3815708   4.020   3.367  10.332  0.4643  0.2343  0.3807
  143SAPE   H8X15709   4.045   3.469  10.368 -2.1678  0.9147  0.5099
  143SAPE   H8Y15710   3.910   3.374  10.318  0.6850  2.6078 -0.6650
  143SAPE   C3915711   4.077   3.343  10.189 -0.2196 -0.0266 -0.5144
  143SAPE   H9X15712   4.025   3.255  10.146  0.0347 -0.1080 -0.6615
  143SAPE   H9Y15713   4.184   3.316  10.204 -0.0971  1.2699  1.1949
  143SAPE  C31015714   4.051   3.458  10.096  0.6927 -0.9886  0.2107
  143SAPE  H10X15715   4.088   3.549  10.148  1.0685 -0.3374 -1.1420
  143SAPE  H10Y15716   3.940   3.460  10.089  0.6857 -0.6035  0.3853
  143SAPE  C31115717   4.109   3.435   9.959 -0.4696  0.0667 -0.0967
  143SAPE  H11X15718   4.066   3.343   9.914  0.5469  0.0286 -1.0245
  143SAPE  H11Y15719   4.218   3.414   9.964 -0.5087  0.0186  0.7792
  143SAPE  C31215720   4.073   3.541   9.857  0.1477 -0.6639  0.8909
  143SAPE  H12X15721   3.964   3.553   9.846 -0.0459 -1.1630  2.0539
  143SAPE  H12Y15722   4.113   3.511   9.758  1.7798 -0.5185  1.4589
  143SAPE  C31315723   4.122   3.677   9.893 -0.2978  0.2133  0.0287
  143SAPE  H13X15724   4.233   3.673   9.884 -0.3241 -2.8134 -0.0578
  143SAPE  H13Y15725   4.113   3.689  10.003 -0.5479  0.4858 -0.0209
  143SAPE  C31415726   4.071   3.794   9.813  0.3363 -0.0240 -0.4864
  143SAPE  H14X15727   4.023   3.742   9.727  0.5927 -0.6081 -0.2883
  143SAPE  H14Y15728   4.164   3.843   9.778  0.1836  1.6097  1.2626
  143SAPE  C31515729   3.982   3.886   9.892  0.1088 -0.6178 -0.4917
  143SAPE  H15X15730   3.909   3.822   9.946 -1.1489 -0.4495 -1.9382
  143SAPE  H15Y15731   3.923   3.938   9.813  0.3497 -0.9404 -0.8880
  143SAPE  C31615732   4.048   3.992   9.977  0.1900  0.2365 -0.5841
  143SAPE  H16X15733   4.118   4.065   9.932 -0.3416  1.7305  0.8813
  143SAPE  H16Y15734   4.109   3.936  10.051  1.4992 -1.6111 -2.9555
  143SAPE  C31715735   3.949   4.078  10.056  1.1233 -0.7157 -0.5240
  143SAPE  H17X15736   3.995   4.103  10.155  2.3457 -1.0705 -0.9807
  143SAPE  H17Y15737   3.856   4.025  10.087 -0.2003  1.9889  0.4636
  143SAPE  C31815738   3.900   4.204   9.975  0.0379 -0.1927 -0.6874
  143SAPE  H18X15739   3.831   4.268  10.033  0.9519  3.5868 -3.3974
  143SAPE  H18Y15740   3.836   4.167   9.892 -0.6678 -0.4774 -0.0261
  143SAPE  H18Z15741   3.986   4.265   9.940  0.6474  0.0474  1.1275
  144SAPE     N15742   5.404   2.366  10.966 -0.0717  0.3247 -0.5659
  144SAPE   HN115743   5.353   2.395  10.881 -0.9157  2.1186  0.4977
  144SAPE   HN215744   5.426   2.456  11.013 -1.3478 -0.8444  2.5281
  144SAPE   HN315745   5.502   2.348  10.934 -0.1974  1.6375 -1.7664
  144SAPE   C1215746   5.337   2.258  11.052 -0.0926 -0.0975 -0.6516
  144SAPE  H12A15747   5.251   2.317  11.089  0.3173  0.5748 -0.7670
  144SAPE  H12B15748   5.409   2.229  11.131  0.7452 -0.1586 -1.4263
  144SAPE   C1115749   5.291   2.143  10.959 -0.1115  0.2628  0.3898
  144SAPE  H11A15750   5.376   2.122  10.891  0.7076  0.2801  1.3880
  144SAPE  H11B15751   5.205   2.177  10.897 -0.3704 -0.8188  0.1379
  144SAPE     P15752   5.124   1.997  11.088 -0.2084 -0.0312 -0.1058
  144SAPE   O1315753   5.107   1.960  11.230 -0.3537 -0.1626 -0.1610
  144SAPE   O1415754   5.043   2.114  11.044  0.3296 -0.3388  0.3437
  144SAPE   O1215755   5.275   2.026  11.045  0.2561  0.2579 -0.2886
  144SAPE   O1115756   5.081   1.867  11.005  0.2428  0.5138 -0.0845
  144SAPE    C115757   5.043   1.878  10.865 -0.7661  0.4168  0.3541
  144SAPE    HA15758   4.932   1.874  10.862 -0.9698  1.9841  2.8416
  144SAPE    HB15759   5.083   1.969  10.816 -2.8052  1.4858  0.5592
  144SAPE    C215760   5.097   1.759  10.781 -0.0321  0.2988  0.1385
  144SAPE    HS15761   5.088   1.667  10.843  2.0365  0.6988  1.1258
  144SAPE   O2115762   5.243   1.790  10.764  0.1585  0.5436 -0.0302
  144SAPE   C2115763   5.307   1.682  10.716 -0.3795 -0.5043 -0.6156
  144SAPE   O2215764   5.266   1.575  10.687  0.2235 -0.3605 -0.2958
  144SAPE   C2215765   5.453   1.723  10.677  0.7443  0.3980  0.3776
  144SAPE   H2R15766   5.464   1.830  10.652 -0.0004  0.2153 -0.8300
  144SAPE   H2S15767   5.512   1.703  10.769  0.6793 -1.0007  0.1449
  144SAPE    C315768   5.019   1.756  10.647 -0.4767 -0.3635  1.0557
  144SAPE    HX15769   4.914   1.728  10.668 -1.4012  3.6367  2.6734
  144SAPE    HY15770   5.069   1.674  10.592  0.9827  0.4722  1.0723
  144SAPE   O3115771   5.020   1.883  10.571 -0.1229  0.5106  0.4216
  144SAPE   C3115772   4.904   1.949  10.573  0.5091 -0.3816 -0.1064
  144SAPE   O3215773   4.807   1.927  10.641  0.5633  0.6653 -0.3880
  144SAPE   C3215774   4.898   2.048  10.458  0.1394 -0.2486 -0.0481
  144SAPE   H2X15775   5.005   2.068  10.438  0.3990 -1.6377 -0.0854
  144SAPE   H2Y15776   4.849   2.139  10.500  1.4569 -0.7966  2.8986
  144SAPE   C2315777   5.504   1.634  10.562  0.2010 -0.2482  0.3097
  144SAPE   H3R15778   5.464   1.660  10.461 -0.1157 -1.4567  0.1091
  144SAPE   H3S15779   5.484   1.525  10.571  1.3357 -0.4733  0.2836
  144SAPE   C2415780   5.662   1.635  10.564  0.1760  0.5360 -0.6683
  144SAPE   H4R15781   5.711   1.568  10.490 -0.4010 -0.1538 -0.4323
  144SAPE   H4S15782   5.692   1.590  10.661  0.3427 -0.0446 -0.9849
  144SAPE   C2515783   5.730   1.769  10.556 -0.5159 -0.6893 -0.2175
  144SAPE   H5R15784   5.791   1.797  10.643  1.8320 -1.6601 -1.4887
  144SAPE   C2615785   5.707   1.863  10.461  0.4981  0.5604  0.3710
  144SAPE   H6R15786   5.760   1.958  10.471  0.4237  0.7231 -0.6786
  144SAPE   C2715787   5.627   1.861  10.337  0.0912 -0.2662  0.3825
  144SAPE   H7R15788   5.591   1.757  10.320 -0.6224 -0.3509  2.1371
  144SAPE   H7S15789   5.705   1.877  10.260 -0.2479  0.0483  0.1062
  144SAPE   C2815790   5.506   1.964  10.329 -0.2748  0.8450  0.2448
  144SAPE   H8R15791   5.472   1.995  10.428  0.2496  0.0468  0.6880
  144SAPE   C2915792   5.445   2.005  10.219 -0.3913  0.4008  0.5048
  144SAPE   H9R15793   5.361   2.075  10.224 -0.5827  0.4131 -1.8685
  144SAPE  C21015794   5.472   1.967  10.078  0.1661  0.3891  0.2678
  144SAPE  H10R15795   5.563   1.904  10.079  0.1034  0.3034  0.9807
  144SAPE  H10S15796   5.500   2.055  10.016 -1.5209  2.1324  1.8339
  144SAPE  C21115797   5.359   1.889  10.024  0.8702 -0.3414 -0.8043
  144SAPE  H11R15798   5.331   1.808  10.093 -0.5543 -0.6583 -1.6981
  144SAPE  C21215799   5.292   1.904   9.905  0.4182  0.0891 -0.1609
  144SAPE  H12R15800   5.203   1.844   9.879 -1.3673  2.3643  0.3265
  144SAPE  C21315801   5.317   2.004   9.799  0.0001 -0.1253 -0.0378
  144SAPE  H13R15802   5.363   2.093   9.847 -2.9602  1.9772 -0.7948
  144SAPE  H13S15803   5.222   2.054   9.770  0.3524 -0.3981 -1.7893
  144SAPE  C21415804   5.395   1.945   9.682  0.5516 -0.8893 -0.3698
  144SAPE  H14R15805   5.496   1.902   9.691  0.8373 -0.9814 -3.1870
  144SAPE  C21515806   5.354   1.951   9.558 -0.5599 -0.3377  0.2948
  144SAPE  H15R15807   5.415   1.898   9.483 -0.0073 -0.2532  0.6703
  144SAPE  C21615808   5.223   2.010   9.510  0.8301 -0.4202 -0.0716
  144SAPE  H16R15809   5.225   2.121   9.498 -0.3708 -0.3383  0.3299
  144SAPE  H16S15810   5.136   1.980   9.572 -0.0860  0.4758 -0.8645
  144SAPE  C21715811   5.196   1.949   9.367 -0.2418  0.3286 -0.0234
  144SAPE  H17R15812   5.197   1.838   9.367  0.9477  0.3186  0.5713
  144SAPE  H17S15813   5.271   1.985   9.293 -1.5332 -1.2504 -2.2062
  144SAPE  C21815814   5.051   1.990   9.328 -0.5756  0.0369 -0.3368
  144SAPE  H18R15815   5.058   2.101   9.324 -0.4204  0.0324 -0.2028
  144SAPE  H18S15816   4.974   1.966   9.404  1.1263 -0.0131  1.4476
  144SAPE  C21915817   5.006   1.950   9.181 -0.3368  0.3086 -0.3222
  144SAPE  H19R15818   5.024   1.840   9.172  1.3617  0.5128  0.1778
  144SAPE  H19S15819   5.072   1.998   9.105  1.3518 -0.9601  0.2803
  144SAPE  C22015820   4.866   1.999   9.137 -0.2770  0.3727 -0.2395
  144SAPE  H20R15821   4.865   2.020   9.028 -4.8973  0.5283 -0.3746
  144SAPE  H20S15822   4.845   2.097   9.185  0.6485  1.4487 -1.9597
  144SAPE  H20T15823   4.780   1.932   9.158  0.3517 -0.2441  0.4280
  144SAPE   C3315824   4.826   1.996  10.327 -0.0078 -0.0804 -0.6631
  144SAPE   H3X15825   4.731   2.045  10.299 -1.4440 -3.5226 -2.2624
  144SAPE   H3Y15826   4.801   1.890  10.345 -1.1284 -0.1202 -2.2880
  144SAPE   C3415827   4.917   1.996  10.203  0.4231 -0.0622  0.1109
  144SAPE   H4X15828   5.020   1.963  10.231  1.0562  0.9010 -0.9765
  144SAPE   H4Y15829   4.915   2.097  10.156 -1.1219 -0.2348 -0.2273
  144SAPE   C3515830   4.850   1.901  10.105  0.1735  0.6803  0.0389
  144SAPE   H5X15831   4.741   1.921  10.117  0.1662  0.0152  1.3534
  144SAPE   H5Y15832   4.877   1.799  10.141  2.0643  0.4500 -1.8739
  144SAPE   C3615833   4.892   1.916   9.965 -0.3667  0.1478 -0.1307
  144SAPE   H6X15834   5.002   1.897   9.965  0.5599  4.1380  2.5724
  144SAPE   H6Y15835   4.862   2.019   9.933 -0.6336  0.1797  0.2211
  144SAPE   C3715836   4.821   1.820   9.865 -0.1087 -0.5672  0.7136
  144SAPE   H7X15837   4.713   1.845   9.861  0.0090 -0.1689 -1.7986
  144SAPE   H7Y15838   4.841   1.713   9.886 -0.7643 -0.8870 -0.1963
  144SAPE   C3815839   4.870   1.843   9.719  0.1693  0.7862 -0.2332
  144SAPE   H8X15840   4.978   1.868   9.719 -0.2147  2.5871  0.2873
  144SAPE   H8Y15841   4.819   1.926   9.664 -0.4380 -1.1758 -2.8287
  144SAPE   C3915842   4.854   1.711   9.641 -0.0632 -0.2627 -0.0443
  144SAPE   H9X15843   4.754   1.670   9.665  0.7895 -1.9460  0.8770
  144SAPE   H9Y15844   4.919   1.631   9.684 -2.9621 -2.0128  1.3819
  144SAPE  C31015845   4.883   1.732   9.489  0.4655 -0.4055  0.3307
  144SAPE  H10X15846   4.989   1.758   9.469  0.4724  2.0596  2.9976
  144SAPE  H10Y15847   4.820   1.813   9.445 -0.1843 -2.1283 -2.1720
  144SAPE  C31115848   4.834   1.598   9.411  0.4327  0.0123  0.1610
  144SAPE  H11X15849   4.730   1.580   9.444  0.0339  1.0036 -0.5128
  144SAPE  H11Y15850   4.891   1.507   9.440 -2.2973 -2.0115 -0.3820
  144SAPE  C31215851   4.817   1.606   9.259 -0.1261  0.0913 -0.1668
  144SAPE  H12X15852   4.917   1.636   9.221 -0.7110  2.3939 -0.0329
  144SAPE  H12Y15853   4.738   1.677   9.226 -0.1616 -0.4637 -1.3347
  144SAPE  C31315854   4.786   1.472   9.198  0.2129  0.4054  0.6240
  144SAPE  H13X15855   4.692   1.443   9.248 -1.3224  0.1749 -2.2151
  144SAPE  H13Y15856   4.864   1.399   9.230 -1.6409 -1.1317  1.8010
  144SAPE  C31415857   4.779   1.474   9.047  0.0910  0.0712 -0.7017
  144SAPE  H14X15858   4.747   1.575   9.014 -0.2308 -0.2099 -1.2686
  144SAPE  H14Y15859   4.704   1.396   9.021 -0.4105  0.0399  0.7155
  144SAPE  C31515860   4.914   1.443   8.983  0.4982  0.0912 -1.2574
  144SAPE  H15X15861   4.917   1.333   8.974  0.3925 -0.0766  0.5435
  144SAPE  H15Y15862   5.001   1.481   9.042  0.4830 -2.2454  0.4083
  144SAPE  C31615863   4.923   1.514   8.850 -0.6307 -0.8467 -0.5482
  144SAPE  H16X15864   4.912   1.623   8.868 -0.5343 -0.9295  0.0450
  144SAPE  H16Y15865   4.837   1.482   8.788 -1.8854 -0.3629  0.8888
  144SAPE  C31715866   5.065   1.482   8.782 -0.1085 -0.2509 -0.2119
  144SAPE  H17X15867   5.051   1.391   8.720 -1.3612 -1.1647  1.3404
  144SAPE  H17Y15868   5.146   1.472   8.857  0.6535 -1.7503 -1.2001
  144SAPE  C31815869   5.102   1.598   8.683  0.0357 -0.8710  0.7799
  144SAPE  H18X15870   5.028   1.587   8.601  1.0597 -1.9588 -0.0251
  144SAPE  H18Y15871   5.203   1.584   8.640 -1.1060 -1.7101 -1.8294
  144SAPE  H18Z15872   5.109   1.697   8.732 -0.3299 -1.6989  2.6227
  145SAPE     N15873   4.622   1.311  11.110  0.3180  0.2343  0.0748
  145SAPE   HN115874   4.694   1.384  11.095  2.7464 -1.9025  0.6338
  145SAPE   HN215875   4.666   1.220  11.085 -2.9207 -1.2861 -0.7307
  145SAPE   HN315876   4.534   1.333  11.060  0.8237 -1.0571 -1.4522
  145SAPE   C1215877   4.575   1.324  11.256 -0.8948  0.4879  0.5426
  145SAPE  H12A15878   4.661   1.312  11.326  0.6792  2.3253 -0.9566
  145SAPE  H12B15879   4.495   1.250  11.275  0.6385 -1.5032 -0.3703
  145SAPE   C1115880   4.515   1.456  11.282  0.2672 -0.0529  0.1167
  145SAPE  H11A15881   4.494   1.472  11.390  0.0694 -0.6118  0.1640
  145SAPE  H11B15882   4.417   1.466  11.231  1.1228 -0.9065 -1.7901
  145SAPE     P15883   4.553   1.710  11.251 -0.2414 -0.0581  0.1001
  145SAPE   O1315884   4.444   1.706  11.359  0.3177 -0.0774  0.7111
  145SAPE   O1415885   4.672   1.791  11.268 -0.6004  0.1244 -0.4372
  145SAPE   O1215886   4.609   1.559  11.230  0.1627 -0.3090  0.1440
  145SAPE   O1115887   4.487   1.753  11.113 -0.1239  0.5595 -0.1885
  145SAPE    C115888   4.538   1.715  10.982 -0.0615 -0.8817 -0.6137
  145SAPE    HA15889   4.639   1.760  10.969 -0.8180  0.6480 -1.5109
  145SAPE    HB15890   4.553   1.605  10.977  1.1743 -0.8561  1.3069
  145SAPE    C215891   4.455   1.759  10.862  0.3630 -0.3341 -0.0661
  145SAPE    HS15892   4.520   1.761  10.772 -0.1362  1.8384 -0.4269
  145SAPE   O2115893   4.418   1.892  10.886  0.2609  0.1700  0.0759
  145SAPE   C2115894   4.507   1.988  10.901 -0.1855  0.0702  0.2574
  145SAPE   O2215895   4.626   1.994  10.883  0.3542  0.4276  0.6937
  145SAPE   C2215896   4.434   2.111  10.948  0.0737 -0.9144  0.3050
  145SAPE   H2R15897   4.325   2.097  10.931  0.1514 -1.6348  0.3829
  145SAPE   H2S15898   4.452   2.104  11.057  0.7431  1.0747  0.3558
  145SAPE    C315899   4.327   1.680  10.840 -0.4404  0.3698 -0.2518
  145SAPE    HX15900   4.249   1.700  10.917  0.6776  0.6958  0.8444
  145SAPE    HY15901   4.362   1.575  10.852  1.4892  0.9545 -0.3639
  145SAPE   O3115902   4.272   1.689  10.711  0.1466 -0.4381  0.4415
  145SAPE   C3115903   4.164   1.763  10.701  0.3434  0.0961 -0.1064
  145SAPE   O3215904   4.106   1.822  10.793  0.4192 -0.0658  0.0527
  145SAPE   C3215905   4.110   1.755  10.559  0.2533  0.3676  0.1896
  145SAPE   H2X15906   4.111   1.651  10.522 -1.2052  0.2322  0.4763
  145SAPE   H2Y15907   4.172   1.822  10.495  3.2643 -0.6081  1.8780
  145SAPE   C2315908   4.481   2.245  10.884  0.9985  0.5260 -0.4623
  145SAPE   H3R15909   4.439   2.248  10.781 -0.9513 -0.2435  0.2718
  145SAPE   H3S15910   4.592   2.248  10.877  1.1940 -0.7298  1.2707
  145SAPE   C2415911   4.430   2.366  10.971  0.0129  0.7879  0.4617
  145SAPE   H4R15912   4.465   2.341  11.073 -1.6026 -0.5332  0.7169
  145SAPE   H4S15913   4.319   2.368  10.971 -0.0656 -0.0836 -2.0817
  145SAPE   C2515914   4.499   2.491  10.917  0.1158 -0.4111 -0.0140
  145SAPE   H5R15915   4.605   2.499  10.942 -0.2956 -0.4113  1.9056
  145SAPE   C2615916   4.444   2.591  10.848  0.1542 -0.6373 -0.0849
  145SAPE   H6R15917   4.505   2.681  10.827 -0.2303 -1.1397 -4.2993
  145SAPE   C2715918   4.301   2.590  10.795  0.6505  0.2426  0.2883
  145SAPE   H7R15919   4.242   2.588  10.889 -0.9027 -0.9951 -0.6644
  145SAPE   H7S15920   4.270   2.495  10.747 -0.9711  1.0677 -0.4111
  145SAPE   C2815921   4.256   2.703  10.700  0.0077  0.3750 -0.8337
  145SAPE   H8R15922   4.264   2.799  10.755  1.5116  0.0565 -0.4575
  145SAPE   C2915923   4.240   2.704  10.566 -0.5597 -1.2974  0.8113
  145SAPE   H9R15924   4.219   2.794  10.507  2.1703 -1.7293 -0.9980
  145SAPE  C21015925   4.246   2.586  10.478  0.7852  0.3686 -0.5723
  145SAPE  H10R15926   4.184   2.613  10.390 -0.2460 -0.1482 -0.0200
  145SAPE  H10S15927   4.186   2.509  10.531  2.7811 -0.1821  1.0535
  145SAPE  C21115928   4.392   2.534  10.461  0.6914 -0.0019 -0.1020
  145SAPE  H11R15929   4.448   2.529  10.556  0.0761 -1.4295  0.2175
  145SAPE  C21215930   4.453   2.494  10.344 -0.5260 -0.2984  0.0703
  145SAPE  H12R15931   4.558   2.462  10.346 -0.7471 -1.0309  0.3576
  145SAPE  C21315932   4.391   2.499  10.209 -0.0378  0.1144 -0.4221
  145SAPE  H13R15933   4.328   2.590  10.202 -0.8084 -0.4087 -0.5191
  145SAPE  H13S15934   4.325   2.410  10.202 -0.7741  0.7538 -2.0556
  145SAPE  C21415935   4.492   2.489  10.101 -0.3706 -0.3729  0.4232
  145SAPE  H14R15936   4.574   2.430  10.145  1.1972 -0.1517 -2.0201
  145SAPE  C21515937   4.495   2.536   9.978 -0.1703  0.8027 -0.0797
  145SAPE  H15R15938   4.577   2.508   9.910 -0.9162 -0.8047 -0.3386
  145SAPE  C21615939   4.381   2.609   9.907 -0.1536 -0.1104  0.6215
  145SAPE  H16R15940   4.427   2.661   9.820 -0.5645 -1.2075 -0.2744
  145SAPE  H16S15941   4.327   2.693   9.956 -0.3103  0.0662  0.1521
  145SAPE  C21715942   4.292   2.500   9.850 -0.6072 -0.2399  0.3327
  145SAPE  H17R15943   4.244   2.457   9.941 -0.6114  1.8218  1.3450
  145SAPE  H17S15944   4.349   2.428   9.788 -0.0375  0.8810 -0.4769
  145SAPE  C21815945   4.186   2.560   9.759  0.6422  0.2011 -0.5986
  145SAPE  H18R15946   4.236   2.605   9.671  0.6665  1.7479  0.1553
  145SAPE  H18S15947   4.162   2.659   9.804  0.8851  1.1288 -2.4040
  145SAPE  C21915948   4.063   2.475   9.721  0.1698 -0.0269 -0.0371
  145SAPE  H19R15949   4.007   2.450   9.814 -1.2053  2.9160  0.0372
  145SAPE  H19S15950   4.093   2.373   9.688  0.4502 -0.4818  1.5605
  145SAPE  C22015951   3.982   2.550   9.613  0.1455  0.5160  0.0905
  145SAPE  H20R15952   3.891   2.498   9.577  0.9351  0.3131 -1.7264
  145SAPE  H20S15953   4.044   2.575   9.524  0.5784 -0.2718  0.1655
  145SAPE  H20T15954   3.945   2.645   9.657 -0.3983  0.3675 -0.0450
  145SAPE   C3315955   3.962   1.798  10.542 -0.1748 -0.6279 -0.7409
  145SAPE   H3X15956   3.945   1.884  10.610  0.3023 -0.1489 -1.2179
  145SAPE   H3Y15957   3.894   1.718  10.579 -0.0596 -0.2135  0.4155
  145SAPE   C3415958   3.928   1.844  10.400 -0.0840  1.2537  0.2044
  145SAPE   H4X15959   3.968   1.771  10.326 -0.5686  0.7700  0.4098
  145SAPE   H4Y15960   3.967   1.946  10.380  1.4533  0.5775 -0.3587
  145SAPE   C3515961   3.775   1.857  10.387 -0.1101  0.5867 -0.0304
  145SAPE   H5X15962   3.741   1.921  10.472 -1.5737  0.4558 -0.4873
  145SAPE   H5Y15963   3.736   1.756  10.411 -0.8839  1.2054  1.4956
  145SAPE   C3615964   3.713   1.900  10.253 -0.0375  0.2326  0.2649
  145SAPE   H6X15965   3.726   1.820  10.177 -0.3981 -0.2782  0.7297
  145SAPE   H6Y15966   3.780   1.985  10.226  1.3390 -0.9700 -0.2646
  145SAPE   C3715967   3.569   1.955  10.249 -0.5476  0.7704 -0.6373
  145SAPE   H7X15968   3.557   2.029  10.331  1.9806 -0.7815  1.2992
  145SAPE   H7Y15969   3.510   1.861  10.260 -0.4789  0.8482  0.5653
  145SAPE   C3815970   3.543   2.032  10.119  0.1850  0.0619 -0.2594
  145SAPE   H8X15971   3.610   2.120  10.123  2.4203 -1.4598 -1.6333
  145SAPE   H8Y15972   3.442   2.077  10.121  0.9172  1.8225 -1.4496
  145SAPE   C3915973   3.578   1.951   9.989  0.0148  0.3745 -1.2223
  145SAPE   H9X15974   3.505   1.868   9.995  0.4286 -0.0646 -2.1119
  145SAPE   H9Y15975   3.677   1.902   9.981 -1.1291 -2.4269  0.3823
  145SAPE  C31015976   3.558   2.041   9.874 -0.0556  0.4914 -0.5779
  145SAPE  H10X15977   3.624   2.131   9.874 -1.2614  1.4222 -2.0201
  145SAPE  H10Y15978   3.452   2.074   9.879  0.5122  2.4716 -0.3767
  145SAPE  C31115979   3.581   1.961   9.747  0.3110  0.2643 -0.0216
  145SAPE  H11X15980   3.499   1.887   9.739  0.3505  0.4054 -2.0129
  145SAPE  H11Y15981   3.678   1.909   9.761 -1.0960 -2.4864  0.2532
  145SAPE  C31215982   3.581   2.045   9.626 -0.0621 -0.6932  0.8617
  145SAPE  H12X15983   3.637   2.140   9.637  1.4613 -0.7727 -3.8015
  145SAPE  H12Y15984   3.478   2.077   9.602 -0.7774 -2.5754  1.2352
  145SAPE  C31315985   3.651   1.974   9.508  0.6262  0.3336 -0.1388
  145SAPE  H13X15986   3.595   1.881   9.484  2.0068 -0.2827 -1.0259
  145SAPE  H13Y15987   3.751   1.934   9.534  0.6514 -0.3121 -1.1684
  145SAPE  C31415988   3.669   2.065   9.386 -0.2105  0.1159  0.2169
  145SAPE  H14X15989   3.585   2.138   9.385 -0.5359 -0.1894  2.1695
  145SAPE  H14Y15990   3.664   2.005   9.293 -0.4707 -0.9325  0.8911
  145SAPE  C31515991   3.814   2.133   9.381  0.4205  0.3081  0.8302
  145SAPE  H15X15992   3.883   2.048   9.361  1.4580  0.6707  2.6925
  145SAPE  H15Y15993   3.818   2.168   9.486 -1.0591 -1.6276  1.5978
  145SAPE  C31615994   3.825   2.246   9.275  0.0584 -0.1144  0.0142
  145SAPE  H16X15995   3.741   2.319   9.282  1.5183  1.6800 -0.4805
  145SAPE  H16Y15996   3.821   2.197   9.176 -1.8159  0.7167 -0.3732
  145SAPE  C31715997   3.958   2.319   9.288 -0.8613  0.2778 -0.4641
  145SAPE  H17X15998   4.041   2.247   9.299 -1.0502  0.2508  0.9828
  145SAPE  H17Y15999   3.971   2.384   9.378 -3.1815 -0.4759  0.4905
  145SAPE  C31816000   3.992   2.410   9.168  0.0643 -0.3670  0.0136
  145SAPE  H18X16001   3.918   2.493   9.162  0.1539 -0.2168  0.8232
  145SAPE  H18Y16002   4.011   2.358   9.072 -0.3930  0.5557 -0.5905
  145SAPE  H18Z16003   4.087   2.460   9.197 -0.0855 -0.7104  1.1439
  146SAPE     N16004   0.977   1.094  10.868 -0.0498  0.1578 -0.1621
  146SAPE   HN116005   0.947   0.998  10.892  1.9896 -0.4929  0.0276
  146SAPE   HN216006   0.994   1.080  10.766  0.0493  1.1409 -0.2878
  146SAPE   HN316007   1.065   1.114  10.920 -0.3110  0.7545  0.0542
  146SAPE   C1216008   0.875   1.199  10.889  0.4133  0.9204  0.5425
  146SAPE  H12A16009   0.859   1.207  10.999 -1.1373 -2.7860  0.7158
  146SAPE  H12B16010   0.784   1.164  10.836  1.1439  1.2730 -1.0181
  146SAPE   C1116011   0.933   1.329  10.824 -0.2962 -0.0313 -0.7807
  146SAPE  H11A16012   0.845   1.396  10.824  0.5806  1.1693 -1.5985
  146SAPE  H11B16013   0.967   1.310  10.720  1.3185 -1.4534 -0.0618
  146SAPE     P16014   1.183   1.397  10.884 -0.2081  0.0823  0.3384
  146SAPE   O1316015   1.260   1.452  11.001  0.0564  0.4870  0.3719
  146SAPE   O1416016   1.228   1.269  10.833 -0.9270 -0.8212 -0.5660
  146SAPE   O1216017   1.028   1.395  10.908 -0.1035  0.2749 -0.0461
  146SAPE   O1116018   1.189   1.499  10.764 -0.2963 -0.3739 -0.3229
  146SAPE    C116019   1.317   1.514  10.703 -0.5065 -0.5459  0.0708
  146SAPE    HA16020   1.350   1.620  10.714  2.5195 -1.3056 -0.6751
  146SAPE    HB16021   1.405   1.459  10.741  1.3488  0.2244 -2.7742
  146SAPE    C216022   1.307   1.484  10.546  0.5080  0.4597 -0.3786
  146SAPE    HS16023   1.405   1.469  10.497 -0.2529 -1.3078 -1.4604
  146SAPE   O2116024   1.228   1.591  10.480  0.4616 -0.5523 -0.0019
  146SAPE   C2116025   1.293   1.701  10.461 -0.7943 -0.3637 -0.6033
  146SAPE   O2216026   1.413   1.719  10.480  0.3692 -0.0654  0.2506
  146SAPE   C2216027   1.199   1.810  10.428  0.0937  0.6889  0.9718
  146SAPE   H2R16028   1.107   1.789  10.485 -0.7272  1.7291  0.0571
  146SAPE   H2S16029   1.239   1.910  10.456 -1.4760  1.7290 -0.3043
  146SAPE    C316030   1.234   1.342  10.523  0.0041 -0.4441  0.1420
  146SAPE    HX16031   1.147   1.349  10.591  2.5289  0.6851  3.5593
  146SAPE    HY16032   1.296   1.259  10.562  1.5351 -0.0489 -1.3185
  146SAPE   O3116033   1.205   1.318  10.388  0.0459 -0.2900  0.2174
  146SAPE   C3116034   1.082   1.358  10.350  0.6127 -0.1895 -0.0520
  146SAPE   O3216035   0.984   1.381  10.419  0.1660 -0.1509 -0.8119
  146SAPE   C3216036   1.081   1.374  10.192  0.8820  0.2619 -0.6970
  146SAPE   H2X16037   1.182   1.373  10.146 -0.3927 -0.3510 -3.6621
  146SAPE   H2Y16038   1.029   1.470  10.176 -1.1354 -1.0115 -2.2613
  146SAPE   C2316039   1.171   1.799  10.276 -0.5106  0.1509  0.6490
  146SAPE   H3R16040   1.079   1.854  10.248 -0.2314 -0.8799 -2.6527
  146SAPE   H3S16041   1.152   1.694  10.249  0.8695 -0.0925  0.5247
  146SAPE   C2416042   1.290   1.849  10.188  0.2708  0.4020 -0.5399
  146SAPE   H4R16043   1.267   1.834  10.081  0.2567 -1.0103 -0.3604
  146SAPE   H4S16044   1.377   1.783  10.208 -1.9721 -2.6967 -0.2852
  146SAPE   C2516045   1.335   1.996  10.200 -1.0197  0.5392  0.5961
  146SAPE   H5R16046   1.332   2.036  10.302 -1.6386  0.4704  0.6088
  146SAPE   C2616047   1.371   2.076  10.094  0.0866 -0.1039 -0.1575
  146SAPE   H6R16048   1.401   2.178  10.125 -0.4881  0.0546 -0.1211
  146SAPE   C2716049   1.386   2.040   9.949 -0.4784  0.3275  0.1651
  146SAPE   H7R16050   1.289   2.027   9.895 -0.8114 -1.5649  1.1399
  146SAPE   H7S16051   1.438   1.942   9.939  2.3264  1.9642 -3.8693
  146SAPE   C2816052   1.489   2.123   9.874  0.4827  0.6665  0.3518
  146SAPE   H8R16053   1.545   2.195   9.936 -1.5092  1.2463  1.5558
  146SAPE   C2916054   1.494   2.119   9.739 -0.2934  0.2491 -0.0667
  146SAPE   H9R16055   1.565   2.180   9.682  4.0022 -1.6299  2.7058
  146SAPE  C21016056   1.409   2.031   9.648 -0.5633 -0.0243  0.2477
  146SAPE  H10R16057   1.362   1.954   9.712 -0.1198  0.1284  0.7677
  146SAPE  H10S16058   1.464   1.972   9.571  2.0245 -1.0712  2.7338
  146SAPE  C21116059   1.305   2.122   9.594  0.8150  0.3564 -0.3649
  146SAPE  H11R16060   1.259   2.201   9.654  2.0254  1.6708 -1.1087
  146SAPE  C21216061   1.261   2.134   9.467 -0.8224  0.5600 -0.0752
  146SAPE  H12R16062   1.186   2.214   9.457 -0.8538  0.7729  1.5937
  146SAPE  C21316063   1.313   2.056   9.346  0.5210 -0.0863  0.0295
  146SAPE  H13R16064   1.273   1.954   9.362 -0.7967  0.5178  0.7745
  146SAPE  H13S16065   1.420   2.026   9.349 -0.0058 -2.0786  0.2092
  146SAPE  C21416066   1.284   2.130   9.216  0.5841  0.6428 -0.6334
  146SAPE  H14R16067   1.302   2.238   9.228  1.2587  0.3612  1.2248
  146SAPE  C21516068   1.222   2.072   9.105  0.3210  0.3187  0.3651
  146SAPE  H15R16069   1.201   2.143   9.024  2.6150 -0.6734 -1.1814
  146SAPE  C21616070   1.178   1.934   9.088  0.0438 -0.0325 -0.2497
  146SAPE  H16R16071   1.208   1.876   9.178  0.7331  0.0254 -0.4386
  146SAPE  H16S16072   1.219   1.875   9.004 -2.4423  2.9083 -3.8264
  146SAPE  C21716073   1.021   1.916   9.064  0.0637 -0.1078  0.1703
  146SAPE  H17R16074   0.974   1.952   9.157  0.7511 -2.2305  1.4273
  146SAPE  H17S16075   0.997   1.807   9.065 -1.1569  0.1508  0.6604
  146SAPE  C21816076   0.973   1.966   8.922  0.4363  0.3511  0.0831
  146SAPE  H18R16077   1.021   1.891   8.855 -0.3379  0.2391 -0.3646
  146SAPE  H18S16078   1.010   2.068   8.896  0.7797  0.4414  0.9205
  146SAPE  C21916079   0.824   1.963   8.897 -0.0244 -0.5935  0.1333
  146SAPE  H19R16080   0.768   2.027   8.969 -1.4225 -1.5781 -0.0290
  146SAPE  H19S16081   0.793   1.860   8.926  0.3823 -0.2384  1.9324
  146SAPE  C22016082   0.792   1.996   8.750 -0.0166  0.0535 -0.2055
  146SAPE  H20R16083   0.786   1.904   8.688  1.6457  0.0092 -0.3476
  146SAPE  H20S16084   0.866   2.067   8.706 -1.1838  1.3584 -0.1197
  146SAPE  H20T16085   0.696   2.052   8.753  0.3182  0.6046  1.3519
  146SAPE   C3316086   0.993   1.261  10.126 -0.5132 -0.1411 -0.0938
  146SAPE   H3X16087   0.892   1.289  10.161 -1.1417  0.0917 -1.9754
  146SAPE   H3Y16088   1.035   1.166  10.166  1.7167  0.8080 -0.0127
  146SAPE   C3416089   0.980   1.265   9.973 -0.0816 -0.6284 -0.5879
  146SAPE   H4X16090   0.958   1.370   9.945 -0.2409 -0.3318  0.6161
  146SAPE   H4Y16091   0.891   1.201   9.960 -1.6118  1.7577 -2.8796
  146SAPE   C3516092   1.083   1.200   9.881 -0.5751  0.0710 -0.0744
  146SAPE   H5X16093   1.096   1.091   9.903 -2.4948 -0.3627 -0.8988
  146SAPE   H5Y16094   1.181   1.248   9.900 -1.4408  1.4276  1.1943
  146SAPE   C3616095   1.049   1.206   9.728 -0.2948  0.0158  0.2405
  146SAPE   H6X16096   0.980   1.289   9.704  0.0741 -0.1785 -1.7063
  146SAPE   H6Y16097   0.980   1.121   9.712  0.9126 -0.9433  0.0211
  146SAPE   C3716098   1.167   1.212   9.623  0.0292  0.0112  0.3297
  146SAPE   H7X16099   1.245   1.138   9.649  0.4683 -1.4060 -4.1613
  146SAPE   H7Y16100   1.216   1.312   9.624 -1.1259  0.6418 -1.0735
  146SAPE   C3816101   1.122   1.199   9.475 -0.1119  0.4379 -0.3515
  146SAPE   H8X16102   1.052   1.114   9.459 -0.4142  0.4789  0.6850
  146SAPE   H8Y16103   1.211   1.173   9.415 -0.0374  0.1982 -0.1397
  146SAPE   C3916104   1.060   1.331   9.423 -0.0572  0.0876  0.1484
  146SAPE   H9X16105   1.144   1.403   9.435 -0.7386  0.9234 -0.0105
  146SAPE   H9Y16106   0.982   1.379   9.486  1.2275  2.2430  0.2066
  146SAPE  C31016107   1.011   1.326   9.273 -0.5694  0.2128 -0.6480
  146SAPE  H10X16108   0.922   1.260   9.276 -1.6906  1.6892  0.3045
  146SAPE  H10Y16109   1.089   1.278   9.209 -0.3595 -0.6236  0.2201
  146SAPE  C31116110   0.979   1.460   9.218 -0.1099  0.2554 -0.3529
  146SAPE  H11X16111   0.898   1.508   9.277 -1.5104 -0.1180 -1.8980
  146SAPE  H11Y16112   0.946   1.455   9.112  0.5376 -3.3966 -0.5127
  146SAPE  C31216113   1.110   1.548   9.208  1.2438  0.0528  0.6836
  146SAPE  H12X16114   1.170   1.554   9.301  0.1326  2.5007  1.3571
  146SAPE  H12Y16115   1.075   1.652   9.189  0.0744 -0.5918 -0.9571
  146SAPE  C31316116   1.204   1.509   9.097 -0.1775 -0.4433  0.0105
  146SAPE  H13X16117   1.253   1.410   9.113 -0.8450 -0.8895 -0.6293
  146SAPE  H13Y16118   1.289   1.579   9.109  1.1835 -2.2543  1.6064
  146SAPE  C31416119   1.156   1.509   8.943  0.8367 -0.5883  0.1443
  146SAPE  H14X16120   1.119   1.613   8.936 -0.1441 -0.6706  2.7735
  146SAPE  H14Y16121   1.066   1.445   8.929 -0.0707  0.6434  0.1961
  146SAPE  C31516122   1.257   1.472   8.834 -0.5712  0.3655 -0.1629
  146SAPE  H15X16123   1.212   1.491   8.734 -0.8127  1.4850  0.1523
  146SAPE  H15Y16124   1.268   1.362   8.847  0.5270  0.4203 -0.5129
  146SAPE  C31616125   1.391   1.545   8.847  0.4217  0.1167  0.4794
  146SAPE  H16X16126   1.440   1.503   8.937  2.1480 -0.2444 -0.5900
  146SAPE  H16Y16127   1.369   1.654   8.846 -2.5062 -0.3669  1.3832
  146SAPE  C31716128   1.492   1.518   8.736  0.3678  0.8231 -0.1586
  146SAPE  H17X16129   1.440   1.537   8.639 -0.3470 -1.3362 -0.2622
  146SAPE  H17Y16130   1.504   1.408   8.735 -3.5858  0.2225 -0.1374
  146SAPE  C31816131   1.614   1.602   8.742  1.1972 -0.0314 -0.6111
  146SAPE  H18X16132   1.676   1.594   8.834  2.9652  0.7810 -1.6890
  146SAPE  H18Y16133   1.596   1.709   8.718  1.9600 -0.2778 -2.4622
  146SAPE  H18Z16134   1.684   1.579   8.660  2.1747  0.8927 -0.0571
  147SAPE     N16135   6.527   4.979   6.375  0.1738  0.9692  0.0741
  147SAPE   HN116136   6.428   5.006   6.394  0.6996  2.6714  0.5952
  147SAPE   HN216137   6.579   5.063   6.342 -0.3622  0.9551 -0.8419
  147SAPE   HN316138   6.525   4.910   6.297 -0.7610 -0.5144  1.3575
  147SAPE   C1216139   6.621   4.929   6.483 -0.1223 -0.4739 -0.3719
  147SAPE  H12A16140   6.582   4.846   6.545  0.6178 -0.7840 -0.3045
  147SAPE  H12B16141   6.635   5.010   6.558  0.2604 -0.4253 -0.4945
  147SAPE   C1116142   6.760   4.891   6.421 -0.2563  0.0037 -0.0386
  147SAPE  H11A16143   6.838   4.871   6.498 -0.0591 -1.1337 -0.5043
  147SAPE  H11B16144   6.786   4.987   6.372  2.0685 -0.7621 -0.4059
  147SAPE     P16145   6.740   4.637   6.360  0.2762 -0.2947 -0.5039
  147SAPE   O1316146   6.598   4.615   6.389  0.1013 -0.5622  0.5872
  147SAPE   O1416147   6.794   4.558   6.251  0.3872  0.0628 -0.1142
  147SAPE   O1216148   6.757   4.788   6.322  0.3235  0.2511  0.3031
  147SAPE   O1116149   6.828   4.622   6.496  0.3241  0.2960 -0.5443
  147SAPE    C116150   6.852   4.494   6.550  0.0512  0.4704  0.6518
  147SAPE    HA16151   6.753   4.450   6.579  0.6117 -0.0893  1.7738
  147SAPE    HB16152   6.900   4.424   6.478 -2.1101 -0.6879  0.2361
  147SAPE    C216153   6.953   4.508   6.665  0.2896 -0.1837 -0.4904
  147SAPE    HS16154   6.972   4.404   6.697  1.4983 -0.3005 -1.5623
  147SAPE   O2116155   6.899   4.602   6.777  0.6799  0.5593  0.2433
  147SAPE   C2116156   6.784   4.553   6.838  0.6535 -0.7653  0.0861
  147SAPE   O2216157   6.741   4.443   6.817 -0.0536 -0.0687 -0.0510
  147SAPE   C2216158   6.728   4.655   6.934  0.7839 -0.2084 -0.6096
  147SAPE   H2R16159   6.781   4.753   6.930 -0.7457  0.6874  0.4237
  147SAPE   H2S16160   6.622   4.674   6.908  1.2777  0.5870 -2.1557
  147SAPE    C316161   7.092   4.556   6.613  0.8888 -1.1636  0.2333
  147SAPE    HX16162   7.070   4.636   6.539 -0.7049 -1.8527 -0.0842
  147SAPE    HY16163   7.141   4.476   6.553 -0.9363 -1.6914 -0.6222
  147SAPE   O3116164   7.184   4.613   6.707 -0.1643 -0.0032 -0.6096
  147SAPE   C3116165   7.249   4.528   6.782  0.8593  0.3441  0.1385
  147SAPE   O3216166   7.233   4.406   6.785  0.0423 -0.1135  0.4600
  147SAPE   C3216167   7.343   4.595   6.876  0.4896 -0.3962 -0.1566
  147SAPE   H2X16168   7.317   4.702   6.887  1.3361 -0.1593 -0.3800
  147SAPE   H2Y16169   7.445   4.581   6.836  0.3644  0.9286 -0.9865
  147SAPE   C2316170   6.718   4.600   7.077  0.6685 -0.4193  0.4500
  147SAPE   H3R16171   6.650   4.512   7.071  0.9592 -0.5477 -2.1537
  147SAPE   H3S16172   6.670   4.682   7.134 -1.0757  1.3086 -3.1961
  147SAPE   C2416173   6.862   4.561   7.141  0.1283 -0.4008  0.1637
  147SAPE   H4R16174   6.903   4.480   7.077 -1.0033  0.4717 -1.7537
  147SAPE   H4S16175   6.846   4.513   7.240  0.8791 -0.5431  0.2233
  147SAPE   C2516176   6.959   4.674   7.163 -0.1614 -0.0692  0.1711
  147SAPE   H5R16177   6.968   4.746   7.080 -2.4463 -0.2519 -0.2974
  147SAPE   C2616178   7.044   4.688   7.268  0.1088  0.4090 -0.0336
  147SAPE   H6R16179   7.113   4.774   7.269  1.9131 -0.9772 -0.1561
  147SAPE   C2716180   7.049   4.591   7.387  0.7312 -0.0632  0.4414
  147SAPE   H7R16181   7.150   4.614   7.428  1.3433  0.0567 -1.0571
  147SAPE   H7S16182   7.046   4.491   7.337  1.0672  1.2308 -2.3742
  147SAPE   C2816183   6.933   4.610   7.480 -0.0487  0.1377 -0.4021
  147SAPE   H8R16184   6.832   4.607   7.436  0.7512 -0.6108 -2.3268
  147SAPE   C2916185   6.947   4.640   7.608 -0.0047 -0.5015  0.2047
  147SAPE   H9R16186   6.856   4.655   7.667  1.1713  1.3121  1.6670
  147SAPE  C21016187   7.073   4.663   7.681 -0.2914  0.3572  0.5253
  147SAPE  H10R16188   7.147   4.585   7.655 -0.2758  0.6722 -0.3981
  147SAPE  H10S16189   7.055   4.655   7.791 -0.6411  0.0684  0.4487
  147SAPE  C21116190   7.131   4.799   7.639 -0.0049 -0.1991  0.2537
  147SAPE  H11R16191   7.120   4.833   7.535  1.1603  2.5596  0.9281
  147SAPE  C21216192   7.189   4.890   7.718  0.2416 -1.0453 -0.2594
  147SAPE  H12R16193   7.252   4.972   7.681 -2.7350  0.9644 -1.1950
  147SAPE  C21316194   7.210   4.879   7.868 -0.2928  0.1886  0.3715
  147SAPE  H13R16195   7.305   4.828   7.893 -0.8962 -2.3645 -1.9777
  147SAPE  H13S16196   7.131   4.815   7.912  0.8152 -2.1092 -0.7876
  147SAPE  C21416197   7.219   5.010   7.944 -0.0095  0.2729 -0.5590
  147SAPE  H14R16198   7.291   5.081   7.899  0.1265 -0.6691 -1.8853
  147SAPE  C21516199   7.162   5.041   8.058  0.6666 -0.4007 -0.4444
  147SAPE  H15R16200   7.180   5.140   8.103 -1.9937 -0.1198  0.1902
  147SAPE  C21616201   7.074   4.955   8.150  0.0289  0.8972  0.6904
  147SAPE  H16R16202   6.995   4.905   8.090  1.2480 -0.7464  0.3682
  147SAPE  H16S16203   7.021   5.024   8.219  1.1879  1.8484  0.6607
  147SAPE  C21716204   7.138   4.839   8.235 -0.0737 -0.3491  0.3169
  147SAPE  H17R16205   7.227   4.876   8.289  0.2418  2.6776 -2.0024
  147SAPE  H17S16206   7.169   4.757   8.166  0.0376  0.7053 -0.9290
  147SAPE  C21816207   7.040   4.782   8.335 -0.6872 -0.1100 -0.6042
  147SAPE  H18R16208   7.039   4.671   8.332 -0.1348 -0.2281  1.6350
  147SAPE  H18S16209   6.935   4.808   8.309  0.1558  4.6286 -0.2210
  147SAPE  C21916210   7.073   4.830   8.480  0.0516 -0.3038 -0.1112
  147SAPE  H19R16211   7.078   4.941   8.477  0.1179 -0.1741  2.4583
  147SAPE  H19S16212   7.169   4.783   8.509 -0.5251 -1.2167  0.3684
  147SAPE  C22016213   6.971   4.787   8.584  0.3322 -0.0541 -0.3014
  147SAPE  H20R16214   6.992   4.823   8.688 -1.1874  0.0720 -0.0066
  147SAPE  H20S16215   6.969   4.677   8.590  2.8548 -0.0995  1.2401
  147SAPE  H20T16216   6.869   4.823   8.558  0.6642  0.0807 -1.4518
  147SAPE   C3316217   7.345   4.524   7.016 -0.4258 -0.9745 -0.2653
  147SAPE   H3X16218   7.372   4.416   7.013 -2.3697 -1.7914  3.9734
  147SAPE   H3Y16219   7.239   4.517   7.051 -0.5672  0.5862 -0.3268
  147SAPE   C3416220   7.430   4.605   7.120  0.3993  0.1291 -0.1620
  147SAPE   H4X16221   7.384   4.705   7.136 -1.7744 -0.5837 -1.5290
  147SAPE   H4Y16222   7.533   4.621   7.081  0.2764  0.0632 -0.5182
  147SAPE   C3516223   7.439   4.537   7.261  0.2718  0.1505 -0.0293
  147SAPE   H5X16224   7.511   4.453   7.251  1.0948  1.0533 -2.8845
  147SAPE   H5Y16225   7.335   4.502   7.274 -0.0314  1.3932  1.0262
  147SAPE   C3616226   7.480   4.629   7.376  0.2179  0.9157  0.2198
  147SAPE   H6X16227   7.399   4.705   7.384  0.5591  1.1556  1.6337
  147SAPE   H6Y16228   7.584   4.667   7.366  1.0733 -0.9360  1.4325
  147SAPE   C3716229   7.495   4.540   7.506  0.7203 -0.2032  0.4438
  147SAPE   H7X16230   7.576   4.465   7.490  2.5711  1.8197 -0.1606
  147SAPE   H7Y16231   7.397   4.496   7.534  1.6043 -1.0528  2.4219
  147SAPE   C3816232   7.532   4.620   7.624 -0.1842  0.2531 -0.1906
  147SAPE   H8X16233   7.482   4.719   7.621  0.0657  0.4322  0.9242
  147SAPE   H8Y16234   7.638   4.654   7.621 -1.2185  3.9373 -0.1089
  147SAPE   C3916235   7.520   4.536   7.755 -0.6494 -0.4134  1.0387
  147SAPE   H9X16236   7.601   4.461   7.748 -0.4213 -0.0618 -0.3209
  147SAPE   H9Y16237   7.423   4.481   7.745 -2.0031  2.1036 -0.8596
  147SAPE  C31016238   7.543   4.615   7.882  0.0269 -0.1318  0.1028
  147SAPE  H10X16239   7.478   4.705   7.878 -3.3910 -2.4258 -0.6196
  147SAPE  H10Y16240   7.649   4.636   7.909  1.1805 -2.9108 -1.8175
  147SAPE  C31116241   7.485   4.525   7.995  0.7809  0.0845  0.1886
  147SAPE  H11X16242   7.542   4.431   8.008  0.4564  0.0839  1.9074
  147SAPE  H11Y16243   7.380   4.497   7.971  1.3526 -1.3607 -0.7416
  147SAPE  C31216244   7.485   4.598   8.131  0.1396  0.2478  0.0070
  147SAPE  H12X16245   7.412   4.681   8.126  1.4122  1.5266  1.3534
  147SAPE  H12Y16246   7.583   4.651   8.133 -0.8372  2.1954 -1.0178
  147SAPE  C31316247   7.457   4.512   8.249 -0.4882  0.1233  0.1354
  147SAPE  H13X16248   7.545   4.446   8.267 -0.4885 -0.0307 -0.4064
  147SAPE  H13Y16249   7.374   4.443   8.224  0.7396 -0.5886 -2.3019
  147SAPE  C31416250   7.423   4.600   8.368  0.2662 -0.0143  0.0819
  147SAPE  H14X16251   7.319   4.637   8.364  0.6015  1.2982  1.9802
  147SAPE  H14Y16252   7.481   4.695   8.367  0.3988 -0.0348  2.0622
  147SAPE  C31516253   7.440   4.522   8.498 -0.2068 -0.0301  0.1003
  147SAPE  H15X16254   7.536   4.467   8.494  0.2306  0.7488 -0.8198
  147SAPE  H15Y16255   7.371   4.435   8.494 -2.2292  1.3379  2.3499
  147SAPE  C31616256   7.443   4.619   8.620  0.1470  0.0164  0.0681
  147SAPE  H16X16257   7.353   4.682   8.603 -1.3286 -1.8666  0.5049
  147SAPE  H16Y16258   7.532   4.685   8.621 -0.5491  0.9713  0.3130
  147SAPE  C31716259   7.436   4.538   8.752 -0.7073 -0.5381 -0.4675
  147SAPE  H17X16260   7.531   4.482   8.768 -0.6931 -1.4461 -3.1162
  147SAPE  H17Y16261   7.367   4.451   8.746  1.0599 -2.0018 -0.4200
  147SAPE  C31816262   7.395   4.633   8.859  0.2021  0.5583 -0.0561
  147SAPE  H18X16263   7.299   4.684   8.837  0.1681  0.7285  0.4627
  147SAPE  H18Y16264   7.482   4.702   8.871  1.8016 -1.1845 -1.0334
  147SAPE  H18Z16265   7.382   4.576   8.954  0.1715 -0.9250 -0.9226
  148SAPE     N16266   1.624   3.532   6.330 -0.1118  0.2687  0.3028
  148SAPE   HN116267   1.671   3.613   6.284 -0.9541  0.0251 -1.0495
  148SAPE   HN216268   1.629   3.447   6.269  0.9224  1.0507 -0.7551
  148SAPE   HN316269   1.526   3.566   6.328 -0.9010 -1.8375 -0.4188
  148SAPE   C1216270   1.677   3.513   6.470  0.3232 -0.2199  0.2973
  148SAPE  H12A16271   1.651   3.604   6.528  1.4246 -0.2510  0.8665
  148SAPE  H12B16272   1.788   3.503   6.468  0.2196 -2.0050 -3.1931
  148SAPE   C1116273   1.612   3.387   6.544 -0.9488  0.0179  0.4375
  148SAPE  H11A16274   1.658   3.395   6.645 -1.1519  2.5847  0.3940
  148SAPE  H11B16275   1.655   3.302   6.487  0.1492 -0.4001  1.8431
  148SAPE     P16276   1.379   3.479   6.626 -0.0332  0.3102  0.3157
  148SAPE   O1316277   1.429   3.620   6.631  0.1120  0.4567  0.2177
  148SAPE   O1416278   1.231   3.465   6.585 -0.5172  0.7184  0.2471
  148SAPE   O1216279   1.468   3.390   6.534 -0.5251 -0.0658  0.3896
  148SAPE   O1116280   1.407   3.426   6.775 -0.3495  0.4303 -0.0992
  148SAPE    C116281   1.315   3.326   6.821 -0.4153 -0.6826 -0.2253
  148SAPE    HA16282   1.209   3.358   6.806 -0.2409 -0.6909 -1.5536
  148SAPE    HB16283   1.327   3.239   6.753 -0.0124  0.2710 -1.4171
  148SAPE    C216284   1.337   3.305   6.973  0.0952  0.9368  0.2200
  148SAPE    HS16285   1.436   3.258   6.988  0.2373  1.1270 -0.1269
  148SAPE   O2116286   1.220   3.240   7.030  0.4387 -0.0323 -0.1392
  148SAPE   C2116287   1.194   3.118   6.988 -0.5255  0.5069 -0.1608
  148SAPE   O2216288   1.258   3.056   6.907 -0.5525  0.7370 -0.5770
  148SAPE   C2216289   1.075   3.062   7.070  0.2203  1.1449 -0.0537
  148SAPE   H2R16290   1.092   3.079   7.178 -1.2690  1.7212  0.1107
  148SAPE   H2S16291   0.975   3.091   7.030  0.6954  1.3197 -1.1516
  148SAPE    C316292   1.359   3.443   7.041  0.0085  0.2804  0.3285
  148SAPE    HX16293   1.262   3.498   7.035 -0.6472 -0.8082  0.6598
  148SAPE    HY16294   1.435   3.508   6.994  1.2360 -0.2106  1.5730
  148SAPE   O3116295   1.396   3.431   7.182 -0.3920  0.5972 -0.2183
  148SAPE   C3116296   1.523   3.410   7.207  0.3862  0.9492 -0.0792
  148SAPE   O3216297   1.606   3.384   7.126  0.3146  1.1175  0.4420
  148SAPE   C3216298   1.545   3.418   7.364 -0.2804 -0.6550  0.2487
  148SAPE   H2X16299   1.465   3.354   7.407 -2.8114  1.9621 -0.1857
  148SAPE   H2Y16300   1.528   3.522   7.398 -2.2951 -0.6770 -0.5193
  148SAPE   C2316301   1.044   2.910   7.056  0.4622 -0.5457 -0.0389
  148SAPE   H3R16302   1.133   2.844   7.038  2.0982  1.9329 -1.6132
  148SAPE   H3S16303   0.979   2.896   6.967 -1.2978 -0.0796  1.1247
  148SAPE   C2416304   0.961   2.846   7.172  1.0054 -0.2477  0.0565
  148SAPE   H4R16305   0.944   2.741   7.139 -1.9925 -0.8218  2.8955
  148SAPE   H4S16306   0.871   2.911   7.175  0.1872 -1.3686  1.7298
  148SAPE   C2516307   1.044   2.843   7.301  0.3411  0.4283 -0.1821
  148SAPE   H5R16308   1.153   2.835   7.284 -0.0951 -0.0334 -3.3015
  148SAPE   C2616309   1.008   2.856   7.431  0.5102  0.0227  0.1690
  148SAPE   H6R16310   1.076   2.853   7.518  1.0917  1.3864 -0.2087
  148SAPE   C2716311   0.864   2.861   7.470  0.3599  0.1766  0.2907
  148SAPE   H7R16312   0.795   2.849   7.384  0.8268  2.6404 -0.5289
  148SAPE   H7S16313   0.834   2.958   7.516 -1.4409  0.9768 -2.3112
  148SAPE   C2816314   0.842   2.731   7.546 -1.1493  0.1120  0.5619
  148SAPE   H8R16315   0.845   2.644   7.479  1.1005 -0.1055  0.8751
  148SAPE   C2916316   0.833   2.708   7.676 -0.4986  0.3106 -0.5022
  148SAPE   H9R16317   0.798   2.607   7.706 -0.1697  0.6918  1.2796
  148SAPE  C21016318   0.837   2.811   7.783 -0.3606 -0.4031 -0.4454
  148SAPE  H10R16319   0.765   2.764   7.854 -0.6336 -0.2310 -0.6068
  148SAPE  H10S16320   0.788   2.902   7.743  0.4960  0.3159  0.1090
  148SAPE  C21116321   0.973   2.828   7.844  0.2666  0.0287 -0.2822
  148SAPE  H11R16322   1.062   2.852   7.784  2.4050 -1.2240  2.2026
  148SAPE  C21216323   0.999   2.790   7.971  0.2632 -0.0962  0.0156
  148SAPE  H12R16324   1.100   2.801   8.012  0.2533  0.7326 -0.1656
  148SAPE  C21316325   0.914   2.718   8.073 -0.2040 -0.2192 -0.0864
  148SAPE  H13R16326   0.806   2.729   8.052  0.4080  2.0585 -2.6261
  148SAPE  H13S16327   0.937   2.759   8.173 -0.7397  1.7070 -0.7069
  148SAPE  C21416328   0.948   2.570   8.068 -0.2479  0.0782 -0.1200
  148SAPE  H14R16329   0.975   2.527   7.970  0.3746  0.2392 -0.0285
  148SAPE  C21516330   0.957   2.479   8.168 -0.6352 -0.7726 -0.6777
  148SAPE  H15R16331   0.997   2.381   8.138 -1.3113 -2.2267  2.7026
  148SAPE  C21616332   0.944   2.506   8.313 -0.4734  0.6628  0.1898
  148SAPE  H16R16333   0.879   2.593   8.337  1.2676  2.4653 -1.3507
  148SAPE  H16S16334   1.041   2.523   8.363  0.7822 -0.4303 -1.7591
  148SAPE  C21716335   0.874   2.384   8.382  0.4365  0.7987  0.1089
  148SAPE  H17R16336   0.876   2.414   8.489 -0.1457 -0.0746  0.3708
  148SAPE  H17S16337   0.919   2.285   8.360  2.1007  1.5845 -0.1531
  148SAPE  C21816338   0.715   2.384   8.351  0.2951  0.5677  0.8576
  148SAPE  H18R16339   0.701   2.368   8.242  2.1912  1.4285  0.4242
  148SAPE  H18S16340   0.681   2.486   8.380  1.8507  0.8355  1.8730
  148SAPE  C21916341   0.634   2.288   8.437  0.0040  0.3415 -0.1376
  148SAPE  H19R16342   0.528   2.299   8.407  0.2366 -0.9880 -1.5490
  148SAPE  H19S16343   0.643   2.317   8.544  1.1763  0.5966 -0.2919
  148SAPE  C22016344   0.673   2.142   8.407  0.0542  0.3391 -0.0848
  148SAPE  H20R16345   0.778   2.109   8.425 -0.7622 -1.5001  1.7006
  148SAPE  H20S16346   0.668   2.125   8.297  1.1643 -1.7719  0.1272
  148SAPE  H20T16347   0.604   2.071   8.458 -2.4108  2.3127 -0.4887
  148SAPE   C3316348   1.691   3.370   7.395  0.1210  0.0587 -0.2412
  148SAPE   H3X16349   1.765   3.449   7.371  0.1641 -0.3194 -1.4014
  148SAPE   H3Y16350   1.713   3.278   7.337 -1.0102  1.0766 -2.3782
  148SAPE   C3416351   1.704   3.331   7.548 -0.1144 -0.1525 -0.4720
  148SAPE   H4X16352   1.797   3.279   7.578 -1.1451 -0.4819  2.5157
  148SAPE   H4Y16353   1.622   3.266   7.586  1.0314  0.0561  2.5737
  148SAPE   C3516354   1.709   3.460   7.648 -0.2832  0.0387 -0.4281
  148SAPE   H5X16355   1.614   3.518   7.643 -0.5517 -0.1091  1.8331
  148SAPE   H5Y16356   1.798   3.520   7.618 -0.2291  0.1167 -0.1144
  148SAPE   C3616357   1.734   3.422   7.794  0.5920 -0.3662  0.4488
  148SAPE   H6X16358   1.817   3.350   7.796  0.2499 -0.7566  1.3955
  148SAPE   H6Y16359   1.652   3.363   7.840  2.2559 -2.9067  0.3132
  148SAPE   C3716360   1.758   3.539   7.898 -0.2749 -0.1584  0.4492
  148SAPE   H7X16361   1.676   3.610   7.924 -0.0290  0.0558  0.6474
  148SAPE   H7Y16362   1.842   3.597   7.853 -0.3633 -1.3118 -1.3072
  148SAPE   C3816363   1.813   3.483   8.029 -0.4361  0.1402  0.4203
  148SAPE   H8X16364   1.902   3.420   8.009 -0.9507 -1.7698  3.4748
  148SAPE   H8Y16365   1.739   3.416   8.077 -0.0391 -2.3501 -2.1734
  148SAPE   C3916366   1.861   3.589   8.141 -0.7542  0.3527  0.2231
  148SAPE   H9X16367   1.920   3.666   8.087 -0.0435  0.1694  0.7308
  148SAPE   H9Y16368   1.928   3.537   8.213 -1.7141  1.0065  1.6419
  148SAPE  C31016369   1.741   3.651   8.221 -0.3860 -0.2327 -0.3843
  148SAPE  H10X16370   1.664   3.574   8.246 -1.9579  0.8524 -1.6428
  148SAPE  H10Y16371   1.704   3.733   8.155 -0.0484 -0.6556 -1.1093
  148SAPE  C31116372   1.780   3.706   8.364 -0.4638 -0.2492 -0.9508
  148SAPE  H11X16373   1.851   3.791   8.363 -0.7546  0.0044 -0.7212
  148SAPE  H11Y16374   1.839   3.624   8.411 -0.2035  0.6899  0.4527
  148SAPE  C31216375   1.661   3.741   8.461 -0.3109  0.6053  0.1205
  148SAPE  H12X16376   1.600   3.649   8.472 -0.1859  0.4324 -0.5724
  148SAPE  H12Y16377   1.595   3.829   8.446 -0.5561  0.3149 -0.5102
  148SAPE  C31316378   1.722   3.759   8.604 -0.0244 -0.3687 -1.1456
  148SAPE  H13X16379   1.811   3.693   8.617  2.1714  2.8809  2.5817
  148SAPE  H13Y16380   1.646   3.735   8.682 -0.5142 -0.6945 -1.7127
  148SAPE  C31416381   1.781   3.903   8.621 -0.6513  0.6884 -0.2895
  148SAPE  H14X16382   1.699   3.967   8.581 -1.8737  0.6458  1.9359
  148SAPE  H14Y16383   1.868   3.928   8.556 -0.1988 -0.4965 -0.1562
  148SAPE  C31516384   1.813   3.946   8.765 -0.1409  0.0187 -0.8107
  148SAPE  H15X16385   1.729   3.929   8.835  1.2414 -1.7653  0.5340
  148SAPE  H15Y16386   1.834   4.053   8.745  1.1350 -0.3684 -1.6684
  148SAPE  C31616387   1.941   3.872   8.826  0.1649 -0.6927 -0.7287
  148SAPE  H16X16388   2.026   3.881   8.755  1.9820 -1.4803  1.2486
  148SAPE  H16Y16389   1.925   3.762   8.831 -0.9086 -0.6294 -2.0298
  148SAPE  C31716390   1.982   3.919   8.964 -0.1296 -0.4316 -0.4988
  148SAPE  H17X16391   2.064   3.850   8.993  0.7369 -1.8171 -5.3100
  148SAPE  H17Y16392   1.894   3.919   9.032 -0.4974  3.0083 -0.7745
  148SAPE  C31816393   2.036   4.065   8.947  0.3235  0.0155  0.0992
  148SAPE  H18X16394   2.088   4.063   8.849 -0.1706  0.3770 -0.1719
  148SAPE  H18Y16395   2.112   4.089   9.024  0.3040 -1.2406  0.5452
  148SAPE  H18Z16396   1.953   4.139   8.946 -0.0707 -0.3919 -2.0942
  149SAPE     N16397   0.489   5.071   6.347 -0.1350  0.1465  0.3754
  149SAPE   HN116398   0.492   5.042   6.247  2.4288  1.1150  0.0934
  149SAPE   HN216399   0.508   5.173   6.350 -0.1334  0.1200  1.9125
  149SAPE   HN316400   0.570   5.024   6.391  1.6054  2.3213 -0.3275
  149SAPE   C1216401   0.361   5.029   6.412 -0.1088 -0.3401  0.2281
  149SAPE  H12A16402   0.277   5.059   6.345 -0.5458  0.5333  1.1484
  149SAPE  H12B16403   0.360   5.065   6.517  0.7855  0.1583  0.0768
  149SAPE   C1116404   0.350   4.876   6.416  0.3958  0.0949 -0.2097
  149SAPE  H11A16405   0.248   4.849   6.451 -0.2927  0.3306 -1.9117
  149SAPE  H11B16406   0.419   4.826   6.488  0.1221 -0.5255 -0.3668
  149SAPE     P16407   0.464   4.713   6.245 -0.0172  0.1759  0.2639
  149SAPE   O1316408   0.411   4.581   6.284  0.9179 -0.8189  0.1271
  149SAPE   O1416409   0.501   4.731   6.101 -0.1498  0.1194  0.1865
  149SAPE   O1216410   0.356   4.816   6.281  0.5430 -0.2707 -0.4404
  149SAPE   O1116411   0.589   4.752   6.329 -0.6119 -0.1565 -0.2807
  149SAPE    C116412   0.690   4.658   6.382 -0.3723  0.0364 -0.8391
  149SAPE    HA16413   0.724   4.680   6.486 -2.4618 -2.4992  0.4687
  149SAPE    HB16414   0.655   4.553   6.385 -1.8046  0.5027  1.8038
  149SAPE    C216415   0.815   4.681   6.294 -0.0693  0.0505 -0.0374
  149SAPE    HS16416   0.786   4.673   6.187 -1.7519  0.0216  0.3896
  149SAPE   O2116417   0.919   4.587   6.319  0.6615  0.1874  0.3661
  149SAPE   C2116418   0.893   4.459   6.314 -0.1359  0.1210  0.3542
  149SAPE   O2216419   0.794   4.407   6.262  0.4095 -0.0861  0.2652
  149SAPE   C2216420   1.008   4.370   6.386  0.2883  0.3295  0.2221
  149SAPE   H2R16421   0.969   4.266   6.397 -0.9425  0.5245 -1.8209
  149SAPE   H2S16422   1.090   4.372   6.311 -0.0508 -2.1360 -0.3100
  149SAPE    C316423   0.882   4.819   6.299 -0.0998  0.4359 -0.2227
  149SAPE    HX16424   0.817   4.893   6.248 -0.6550  0.5876  0.6951
  149SAPE    HY16425   0.980   4.813   6.246 -0.0594  2.9299 -0.5566
  149SAPE   O3116426   0.909   4.863   6.437  0.5212  0.3795  0.1471
  149SAPE   C3116427   0.827   4.956   6.486  0.3214  0.2656 -0.0863
  149SAPE   O3216428   0.732   5.008   6.431  0.9762 -0.0729 -0.3878
  149SAPE   C3216429   0.873   5.006   6.621 -0.4683  0.8180  0.1116
  149SAPE   H2X16430   0.788   5.059   6.669  0.3077 -0.0748  2.6161
  149SAPE   H2Y16431   0.951   5.080   6.595 -1.1370  0.7736 -2.2221
  149SAPE   C2316432   1.052   4.434   6.521 -0.3990  0.4082  0.5109
  149SAPE   H3R16433   1.117   4.524   6.515 -0.1601  0.1824 -0.3492
  149SAPE   H3S16434   1.115   4.364   6.580  1.3008  2.3639  1.1272
  149SAPE   C2416435   0.944   4.473   6.629 -0.2991  0.1221 -0.1444
  149SAPE   H4R16436   0.915   4.577   6.606  0.1862  0.5483  1.1107
  149SAPE   H4S16437   1.000   4.491   6.724  0.8384  0.5117 -0.8631
  149SAPE   C2516438   0.829   4.380   6.656  0.0661  0.4507 -0.3897
  149SAPE   H5R16439   0.734   4.411   6.610  1.3675  1.2783 -2.6594
  149SAPE   C2616440   0.842   4.263   6.720 -0.2056  0.1700  1.0423
  149SAPE   H6R16441   0.754   4.204   6.749 -0.4174  0.4051  0.8728
  149SAPE   C2716442   0.963   4.202   6.782 -0.4218  0.4614  0.1797
  149SAPE   H7R16443   1.050   4.212   6.713 -0.0536  1.5014  0.7720
  149SAPE   H7S16444   0.944   4.094   6.797  1.6377  0.1331  0.7866
  149SAPE   C2816445   1.010   4.258   6.913 -0.7454  0.3365 -0.3617
  149SAPE   H8R16446   1.005   4.368   6.912 -0.1244  0.3667 -0.7656
  149SAPE   C2916447   1.079   4.194   7.014  0.1952 -0.2046  0.5726
  149SAPE   H9R16448   1.113   4.254   7.100 -0.5112  2.6796 -1.0442
  149SAPE  C21016449   1.109   4.040   7.022 -0.6438 -0.0325 -0.2948
  149SAPE  H10R16450   1.100   3.990   6.923  1.6600 -3.4441  1.0283
  149SAPE  H10S16451   1.023   3.998   7.079  0.4688  1.9696  3.1670
  149SAPE  C21116452   1.242   4.000   7.083 -0.1202 -0.2933  0.1146
  149SAPE  H11R16453   1.320   4.056   7.030 -0.9292  1.1234  0.3607
  149SAPE  C21216454   1.267   3.907   7.180  0.0539 -0.4647 -0.5560
  149SAPE  H12R16455   1.371   3.890   7.212 -0.0101 -0.2984 -0.2592
  149SAPE  C21316456   1.156   3.829   7.247  0.4341  0.3071  0.2116
  149SAPE  H13R16457   1.063   3.819   7.188 -0.6533  0.5152  1.8255
  149SAPE  H13S16458   1.122   3.896   7.329  1.6895  1.9885 -0.5726
  149SAPE  C21416459   1.187   3.688   7.293  0.4293 -0.3911 -0.1545
  149SAPE  H14R16460   1.149   3.612   7.223 -0.5982  1.2930 -1.4899
  149SAPE  C21516461   1.230   3.644   7.413 -0.2931  0.5354  0.1093
  149SAPE  H15R16462   1.235   3.537   7.440  0.2150  0.7075  0.7323
  149SAPE  C21616463   1.272   3.736   7.522  0.2662  0.2210  0.1992
  149SAPE  H16R16464   1.188   3.802   7.553 -0.8035 -0.9519 -0.1117
  149SAPE  H16S16465   1.338   3.806   7.466  0.2548  0.3116  0.2997
  149SAPE  C21716466   1.344   3.668   7.642 -0.8548  0.3631  0.2348
  149SAPE  H17R16467   1.399   3.743   7.703  0.2852  0.3302 -0.6986
  149SAPE  H17S16468   1.419   3.594   7.606 -3.3171 -2.5769  0.8177
  149SAPE  C21816469   1.262   3.583   7.739 -0.1655 -0.3145  0.1712
  149SAPE  H18R16470   1.333   3.530   7.807  0.3511  0.8290  0.5433
  149SAPE  H18S16471   1.217   3.494   7.690 -3.0071 -0.7672  3.1776
  149SAPE  C21916472   1.156   3.658   7.828 -0.3817 -0.5437  1.0528
  149SAPE  H19R16473   1.091   3.580   7.871 -0.3072 -1.4476 -0.3804
  149SAPE  H19S16474   1.084   3.716   7.767  1.7530 -0.0900 -1.2114
  149SAPE  C22016475   1.215   3.736   7.947 -0.2565 -0.7404 -0.6059
  149SAPE  H20R16476   1.139   3.754   8.026  0.5849  1.3902 -0.2203
  149SAPE  H20S16477   1.247   3.834   7.906  1.0023 -0.4563  0.9927
  149SAPE  H20T16478   1.301   3.680   7.987 -1.1177 -0.2756  2.0993
  149SAPE   C3316479   0.896   4.885   6.718 -0.5083 -0.6245  0.3767
  149SAPE   H3X16480   0.981   4.822   6.685  0.1148  0.2428  0.2755
  149SAPE   H3Y16481   0.800   4.833   6.737 -2.0962  1.7619 -0.6268
  149SAPE   C3416482   0.956   4.929   6.858 -0.0997 -0.0320  0.0781
  149SAPE   H4X16483   0.981   5.037   6.863  1.6035 -0.2964 -1.8021
  149SAPE   H4Y16484   1.055   4.880   6.866 -1.1484 -2.3646 -0.4479
  149SAPE   C3516485   0.886   4.880   6.989  0.4443 -0.5930 -0.0440
  149SAPE   H5X16486   0.913   4.773   7.003  1.2951 -0.7365 -2.3755
  149SAPE   H5Y16487   0.775   4.887   6.981  0.3655 -0.5343  0.9948
  149SAPE   C3616488   0.952   4.954   7.106 -0.5443 -0.5635 -0.3974
  149SAPE   H6X16489   0.946   5.063   7.086  0.1452 -0.1813  1.2955
  149SAPE   H6Y16490   1.059   4.924   7.112 -1.0205 -2.0647  1.4446
  149SAPE   C3716491   0.878   4.935   7.237 -0.1215  0.0213 -0.3874
  149SAPE   H7X16492   0.888   4.826   7.255  0.7029  0.0853 -0.3958
  149SAPE   H7Y16493   0.777   4.974   7.214  0.8723  0.8488 -3.9775
  149SAPE   C3816494   0.948   4.990   7.364  0.2449 -0.3500 -0.0867
  149SAPE   H8X16495   0.938   5.100   7.364  1.0964 -0.2635  0.9087
  149SAPE   H8Y16496   1.059   4.981   7.363  0.2772 -0.6747  2.0674
  149SAPE   C3916497   0.881   4.940   7.496 -0.1745 -0.3918  0.0240
  149SAPE   H9X16498   0.887   4.829   7.497 -1.9242 -0.5270 -0.9331
  149SAPE   H9Y16499   0.776   4.975   7.493  0.3852  1.4473  0.5496
  149SAPE  C31016500   0.968   4.989   7.604 -0.9983 -0.3063  0.2620
  149SAPE  H10X16501   0.961   5.100   7.603 -0.7042 -0.2883 -0.6456
  149SAPE  H10Y16502   1.071   4.954   7.579 -0.7103  0.1799  0.7501
  149SAPE  C31116503   0.931   4.934   7.745 -0.8321  0.0085  0.2576
  149SAPE  H11X16504   0.942   4.823   7.747 -1.8250 -0.1114 -0.4125
  149SAPE  H11Y16505   0.822   4.950   7.754 -0.5648  0.7215  5.3045
  149SAPE  C31216506   1.000   4.996   7.869  0.2831  0.2646 -0.1165
  149SAPE  H12X16507   1.016   5.105   7.857  0.8819  0.3934  1.5360
  149SAPE  H12Y16508   1.096   4.943   7.892  0.4675  1.0264  0.9951
  149SAPE  C31316509   0.910   4.980   7.994 -0.0799  0.8065 -0.2656
  149SAPE  H13X16510   0.888   4.873   8.013  1.3880  0.7023  1.1096
  149SAPE  H13Y16511   0.811   5.030   7.983  0.0524  0.8900 -1.1095
  149SAPE  C31416512   0.972   5.035   8.122  0.2853 -0.3639 -0.4730
  149SAPE  H14X16513   0.995   5.143   8.110 -1.2980 -0.1378 -1.9840
  149SAPE  H14Y16514   1.059   4.971   8.148 -1.2802 -2.1386  0.5996
  149SAPE  C31516515   0.884   5.006   8.249 -0.3831  1.0332  0.3189
  149SAPE  H15X16516   0.830   4.910   8.243 -2.3450  2.1611 -2.0756
  149SAPE  H15Y16517   0.798   5.076   8.251  0.5534  2.2583 -0.2543
  149SAPE  C31616518   0.957   5.021   8.380 -0.3098 -0.2331 -0.3279
  149SAPE  H16X16519   1.033   5.101   8.368  0.8974 -1.6049 -2.6647
  149SAPE  H16Y16520   1.009   4.924   8.395 -0.3045  0.0501  1.7378
  149SAPE  C31716521   0.864   5.054   8.494  0.2449  0.7455 -0.7858
  149SAPE  H17X16522   0.842   5.162   8.488 -0.7019  0.7138  1.1205
  149SAPE  H17Y16523   0.926   5.039   8.585 -0.5244  1.4226 -0.1380
  149SAPE  C31816524   0.731   4.972   8.509 -0.2830 -0.9914  0.5963
  149SAPE  H18X16525   0.771   4.870   8.529 -1.0009 -2.2545 -3.4778
  149SAPE  H18Y16526   0.672   4.975   8.415 -0.9724  4.4900  0.8794
  149SAPE  H18Z16527   0.677   5.008   8.599 -1.0955 -1.6679  0.3938
  150SAPE     N16528   3.860   5.684   6.357  0.1243  0.4577 -0.5131
  150SAPE   HN116529   3.815   5.678   6.263 -0.6275 -2.0101 -0.0631
  150SAPE   HN216530   3.963   5.667   6.356  0.3316  1.5587 -1.9441
  150SAPE   HN316531   3.816   5.605   6.407  0.6037  0.7702  0.4343
  150SAPE   C1216532   3.831   5.811   6.426  0.6705 -0.0837  0.1635
  150SAPE  H12A16533   3.906   5.818   6.508  1.2148 -2.9874  0.0118
  150SAPE  H12B16534   3.725   5.815   6.458  0.7030  0.1074  0.2493
  150SAPE   C1116535   3.855   5.935   6.335  0.4463  0.2922  0.7192
  150SAPE  H11A16536   3.781   6.008   6.375 -0.6856  0.4676 -1.5213
  150SAPE  H11B16537   3.815   5.924   6.232  1.1230 -1.5273  0.6130
  150SAPE     P16538   4.041   6.106   6.438 -0.2677  0.1318 -0.1332
  150SAPE   O1316539   4.190   6.114   6.425 -0.2227  0.7836  0.1242
  150SAPE   O1416540   3.959   6.232   6.435 -0.3039  0.5847 -0.1005
  150SAPE   O1216541   3.988   5.986   6.347  0.2998 -0.3510  0.1415
  150SAPE   O1116542   4.021   6.038   6.582  0.0495 -0.3491 -0.1870
  150SAPE    C116543   3.918   6.074   6.674  0.1459 -0.3695  0.1409
  150SAPE    HA16544   3.837   6.134   6.629 -0.3941  0.8390  2.5813
  150SAPE    HB16545   3.877   5.983   6.724  0.9198 -1.0459 -0.4185
  150SAPE    C216546   3.965   6.163   6.789 -0.5273 -0.5545  0.1234
  150SAPE    HS16547   3.880   6.192   6.854 -2.0424  1.5657 -2.5823
  150SAPE   O2116548   4.018   6.283   6.731 -0.6615 -0.7094  0.5604
  150SAPE   C2116549   3.934   6.385   6.708  0.5123  0.3713 -0.0066
  150SAPE   O2216550   3.815   6.385   6.740  0.2301  0.1519  0.1636
  150SAPE   C2216551   3.998   6.502   6.637  0.4210 -0.0996  0.6818
  150SAPE   H2R16552   4.049   6.452   6.552  0.9749  0.2033  0.8290
  150SAPE   H2S16553   3.922   6.568   6.592  0.2039 -0.1230  1.0075
  150SAPE    C316554   4.079   6.091   6.869  0.1207 -0.3210 -0.2090
  150SAPE    HX16555   4.164   6.070   6.800 -0.6113  1.9373 -1.9397
  150SAPE    HY16556   4.037   5.994   6.903 -0.8189 -0.2743 -1.1892
  150SAPE   O3116557   4.126   6.171   6.980 -0.1344 -0.1283  0.2133
  150SAPE   C3116558   4.194   6.100   7.079  0.6372  1.4152  0.0984
  150SAPE   O3216559   4.209   5.979   7.072 -0.2300  0.0750 -0.5490
  150SAPE   C3216560   4.219   6.186   7.198 -0.2422 -0.3091 -0.6057
  150SAPE   H2X16561   4.151   6.144   7.276  0.7006  1.2185  1.1175
  150SAPE   H2Y16562   4.188   6.290   7.173  0.4955  0.0017 -0.2531
  150SAPE   C2316563   4.105   6.579   6.720  0.0955  0.7131  0.5467
  150SAPE   H3R16564   4.179   6.612   6.644  1.1578 -1.2258  0.6855
  150SAPE   H3S16565   4.150   6.503   6.788 -1.4922 -1.1749 -0.4055
  150SAPE   C2416566   4.049   6.705   6.794  0.4012 -0.3343  0.0787
  150SAPE   H4R16567   4.002   6.768   6.716  2.1411 -2.9771 -3.3916
  150SAPE   H4S16568   4.139   6.753   6.839 -0.5240 -1.4359  3.4063
  150SAPE   C2516569   3.965   6.660   6.912 -0.2897  0.4240  0.2999
  150SAPE   H5R16570   3.858   6.662   6.891 -0.5119 -0.1847  1.3291
  150SAPE   C2616571   3.996   6.621   7.035  0.3759 -0.4173 -0.0902
  150SAPE   H6R16572   3.925   6.576   7.105  1.6463 -0.0890  1.4510
  150SAPE   C2716573   4.132   6.628   7.097  0.2636  0.6589  0.6336
  150SAPE   H7R16574   4.209   6.638   7.018 -2.4883 -0.4927 -2.4400
  150SAPE   H7S16575   4.155   6.524   7.128  0.5056  0.8374  1.0709
  150SAPE   C2816576   4.153   6.726   7.211 -0.4974 -0.2681  0.6023
  150SAPE   H8R16577   4.113   6.827   7.195 -0.8346 -0.0102  2.7889
  150SAPE   C2916578   4.184   6.691   7.339  0.3466 -0.8539 -0.1463
  150SAPE   H9R16579   4.211   6.772   7.408  1.2093  0.3289 -1.7909
  150SAPE  C21016580   4.203   6.554   7.391 -0.3543  0.3305  0.3704
  150SAPE  H10R16581   4.288   6.560   7.463 -2.6985  1.0067  3.2638
  150SAPE  H10S16582   4.248   6.493   7.309 -0.7715 -0.3579  0.6406
  150SAPE  C21116583   4.075   6.506   7.454  0.6755  0.0346  0.3818
  150SAPE  H11R16584   3.985   6.518   7.392  0.1654  0.4739  1.1929
  150SAPE  C21216585   4.057   6.472   7.584  0.9370 -0.3282 -0.5507
  150SAPE  H12R16586   3.952   6.452   7.612  1.2846 -0.7950  0.4756
  150SAPE  C21316587   4.161   6.472   7.688 -0.9670 -0.3180 -0.1247
  150SAPE  H13R16588   4.264   6.442   7.658 -0.4530  0.8465  0.4068
  150SAPE  H13S16589   4.122   6.402   7.765 -2.2458  2.8494  2.3416
  150SAPE  C21416590   4.164   6.601   7.757 -1.6425 -1.2047 -0.8014
  150SAPE  H14R16591   4.098   6.681   7.719  0.9197  1.7547  0.4849
  150SAPE  C21516592   4.234   6.628   7.874 -0.0546 -1.3035 -0.0238
  150SAPE  H15R16593   4.225   6.732   7.907 -0.3943 -0.7683 -1.6780
  150SAPE  C21616594   4.327   6.536   7.940 -0.0890 -0.4567 -0.4427
  150SAPE  H16R16595   4.414   6.598   7.971 -0.2569 -0.4119 -0.0505
  150SAPE  H16S16596   4.364   6.461   7.868 -1.2276  0.6345 -2.2531
  150SAPE  C21716597   4.274   6.461   8.057  0.3487 -0.0063 -0.3755
  150SAPE  H17R16598   4.356   6.395   8.092  0.8320  0.6823 -0.1846
  150SAPE  H17S16599   4.192   6.393   8.026 -0.7300 -0.3446  2.8946
  150SAPE  C21816600   4.223   6.553   8.174  0.2697 -0.1861  0.3062
  150SAPE  H18R16601   4.136   6.610   8.135  0.0631 -1.5767 -1.3733
  150SAPE  H18S16602   4.306   6.627   8.178  0.9880 -1.0042  1.0010
  150SAPE  C21916603   4.171   6.479   8.299  0.2876 -0.4854 -1.2568
  150SAPE  H19R16604   4.248   6.411   8.340 -0.9058 -1.1062  0.0361
  150SAPE  H19S16605   4.082   6.418   8.271 -1.2753  1.0145  0.1810
  150SAPE  C22016606   4.133   6.567   8.419 -0.5943 -0.5649  0.0687
  150SAPE  H20R16607   4.106   6.509   8.510  1.0154 -1.1761  0.1909
  150SAPE  H20S16608   4.050   6.636   8.394  0.0782  0.8694  1.5991
  150SAPE  H20T16609   4.219   6.632   8.447 -1.9062  1.1169  0.3932
  150SAPE   C3316610   4.365   6.167   7.246  0.0152  0.2252 -0.9013
  150SAPE   H3X16611   4.441   6.224   7.189  1.2522  0.4921  0.9350
  150SAPE   H3Y16612   4.402   6.062   7.246 -1.3822 -0.2849 -1.2322
  150SAPE   C3416613   4.374   6.217   7.383 -0.0574  0.1247  0.1892
  150SAPE   H4X16614   4.292   6.186   7.452 -1.6959  1.2554 -1.1708
  150SAPE   H4Y16615   4.366   6.327   7.380 -1.5152  0.0429  0.2133
  150SAPE   C3516616   4.515   6.186   7.443  0.2633 -0.2055  0.3359
  150SAPE   H5X16617   4.527   6.261   7.524  4.3299  1.1303 -1.2769
  150SAPE   H5Y16618   4.593   6.207   7.368 -0.5842 -1.9955 -1.1239
  150SAPE   C3616619   4.512   6.047   7.515  0.0109 -0.3797  0.3685
  150SAPE   H6X16620   4.478   5.966   7.447 -1.9721 -0.1442  0.9967
  150SAPE   H6Y16621   4.430   6.054   7.590 -0.4633  0.5991 -0.2197
  150SAPE   C3716622   4.637   6.008   7.597  0.4013  0.0102 -0.2512
  150SAPE   H7X16623   4.666   6.091   7.664  2.8094  0.5199 -1.7589
  150SAPE   H7Y16624   4.721   5.991   7.526 -0.0302 -1.4760 -0.4258
  150SAPE   C3816625   4.608   5.876   7.669 -0.1957 -0.7035  0.2657
  150SAPE   H8X16626   4.585   5.797   7.595  2.9727 -0.5148 -1.0845
  150SAPE   H8Y16627   4.537   5.892   7.753 -0.4160  2.6864 -0.4333
  150SAPE   C3916628   4.741   5.823   7.725  0.4760  0.3782 -0.0663
  150SAPE   H9X16629   4.815   5.894   7.768  1.0356 -1.2348  1.7981
  150SAPE   H9Y16630   4.796   5.773   7.642  0.9363  1.0268 -0.1565
  150SAPE  C31016631   4.714   5.715   7.837  0.7118  0.0983 -0.3199
  150SAPE  H10X16632   4.660   5.627   7.794  0.8852 -0.6972  1.0395
  150SAPE  H10Y16633   4.649   5.761   7.914  1.5178 -0.1944  0.5453
  150SAPE  C31116634   4.841   5.663   7.904  0.1863 -0.1922 -0.5031
  150SAPE  H11X16635   4.911   5.745   7.932  2.6191 -1.8839 -1.3037
  150SAPE  H11Y16636   4.904   5.605   7.834  0.1056 -0.1399 -0.6192
  150SAPE  C31216637   4.825   5.586   8.039  0.6267  0.0488  0.2800
  150SAPE  H12X16638   4.758   5.498   8.025  1.9583 -0.7709 -1.2774
  150SAPE  H12Y16639   4.759   5.652   8.098 -2.7459 -0.4370 -2.6110
  150SAPE  C31316640   4.955   5.567   8.117 -0.5515  0.2381 -0.1968
  150SAPE  H13X16641   5.016   5.660   8.123 -1.0255  0.5794 -0.6146
  150SAPE  H13Y16642   5.024   5.498   8.063 -0.2281  0.1838  0.2843
  150SAPE  C31416643   4.948   5.499   8.257 -0.1178 -0.3058 -0.3060
  150SAPE  H14X16644   4.882   5.410   8.250 -1.0845  0.1633  1.8877
  150SAPE  H14Y16645   4.911   5.578   8.325  0.4704 -0.0992 -0.2157
  150SAPE  C31516646   5.081   5.449   8.310 -0.4765  0.1095 -0.7065
  150SAPE  H15X16647   5.084   5.465   8.419 -0.8356  0.4183 -0.7357
  150SAPE  H15Y16648   5.163   5.506   8.261  1.3750 -1.4770  0.4312
  150SAPE  C31616649   5.124   5.295   8.287  0.2627 -0.3386 -0.1757
  150SAPE  H16X16650   5.037   5.237   8.325 -0.5965  1.0900  0.0804
  150SAPE  H16Y16651   5.209   5.266   8.352  0.7279 -0.2007 -0.7084
  150SAPE  C31716652   5.144   5.255   8.141  0.0485 -0.0938 -0.3272
  150SAPE  H17X16653   5.056   5.289   8.084 -1.0873  0.1354  1.4755
  150SAPE  H17Y16654   5.144   5.144   8.147 -2.1479 -0.1083 -0.0200
  150SAPE  C31816655   5.272   5.310   8.076  0.3947 -0.0339  0.5223
  150SAPE  H18X16656   5.273   5.274   7.971  2.4996 -0.2779  0.5681
  150SAPE  H18Y16657   5.362   5.281   8.135  0.4264 -0.2750  0.3585
  150SAPE  H18Z16658   5.270   5.421   8.069 -1.4041 -0.0072  1.0813
  151SAPE     N16659   1.683   4.930   5.697  0.3506  0.2980 -0.1301
  151SAPE   HN116660   1.668   5.032   5.714 -1.0201 -0.0139  0.7195
  151SAPE   HN216661   1.783   4.908   5.714  0.2500  0.8404  1.3027
  151SAPE   HN316662   1.670   4.912   5.596  0.7655  0.9907 -0.3144
  151SAPE   C1216663   1.573   4.868   5.783 -0.5005 -0.1592  0.5418
  151SAPE  H12A16664   1.624   4.839   5.878 -1.1792  1.7477  1.5321
  151SAPE  H12B16665   1.547   4.773   5.731 -0.2426 -0.1316  0.3616
  151SAPE   C1116666   1.455   4.964   5.790 -0.7864  0.7985 -0.2393
  151SAPE  H11A16667   1.379   4.935   5.865 -2.4564 -0.7661 -2.4117
  151SAPE  H11B16668   1.399   4.952   5.695  0.4592 -3.9404 -0.6198
  151SAPE     P16669   1.507   5.165   5.946  0.2805 -0.1260 -0.2191
  151SAPE   O1316670   1.641   5.229   5.954  0.2381  0.2331 -0.4847
  151SAPE   O1416671   1.391   5.248   5.980  0.2867 -0.1288  0.1481
  151SAPE   O1216672   1.489   5.100   5.797 -0.0525 -0.4315  0.3855
  151SAPE   O1116673   1.500   5.027   6.035  0.7027 -0.2905 -0.0974
  151SAPE    C116674   1.605   5.001   6.123 -0.3310  0.1202 -0.6222
  151SAPE    HA16675   1.706   5.003   6.076 -0.6300  0.4074 -1.2609
  151SAPE    HB16676   1.606   5.078   6.204  0.2701 -0.1175 -0.3987
  151SAPE    C216677   1.593   4.857   6.173  0.0699 -0.0388  0.5258
  151SAPE    HS16678   1.563   4.791   6.088 -2.2811 -0.9716  1.9879
  151SAPE   O2116679   1.486   4.841   6.269 -0.0358  0.0623  0.4626
  151SAPE   C2116680   1.446   4.720   6.301 -0.2493 -0.3028 -0.0005
  151SAPE   O2216681   1.479   4.617   6.247 -0.8454  0.4011  0.0910
  151SAPE   C2216682   1.348   4.738   6.419  0.1035  0.3982  0.0830
  151SAPE   H2R16683   1.364   4.844   6.447  2.3227  0.4075 -1.0378
  151SAPE   H2S16684   1.241   4.738   6.389  0.2715  1.1564 -0.5436
  151SAPE    C316685   1.722   4.821   6.243 -0.5262 -0.4478  0.5724
  151SAPE    HX16686   1.807   4.840   6.174 -1.5082 -1.0363 -0.8385
  151SAPE    HY16687   1.718   4.713   6.266 -1.1689 -0.4736  0.3720
  151SAPE   O3116688   1.751   4.908   6.359  0.3032 -0.1772  0.0054
  151SAPE   C3116689   1.745   4.855   6.476  0.2053 -0.3385 -0.2429
  151SAPE   O3216690   1.736   4.737   6.504 -0.3419 -0.8806 -0.4267
  151SAPE   C3216691   1.766   4.968   6.576 -0.2370 -0.2260  0.4286
  151SAPE   H2X16692   1.724   5.063   6.536  0.0636 -0.6440 -0.9159
  151SAPE   H2Y16693   1.876   4.981   6.569 -0.1326 -1.4380 -0.4292
  151SAPE   C2316694   1.383   4.633   6.530 -0.1574 -0.3739 -0.1144
  151SAPE   H3R16695   1.491   4.640   6.553 -0.4692  0.2431  1.3033
  151SAPE   H3S16696   1.350   4.537   6.486 -0.2413  0.5747 -2.2504
  151SAPE   C2416697   1.318   4.651   6.673  0.2532 -0.4465  1.0804
  151SAPE   H4R16698   1.215   4.694   6.667  0.2845 -0.5152 -2.5056
  151SAPE   H4S16699   1.380   4.730   6.720  1.8946 -0.5987 -0.7083
  151SAPE   C2516700   1.305   4.523   6.749 -0.2361 -0.0638 -0.0695
  151SAPE   H5R16701   1.344   4.435   6.697 -0.2231 -1.6369  2.4322
  151SAPE   C2616702   1.248   4.505   6.872  0.5424  0.3358  0.4183
  151SAPE   H6R16703   1.258   4.403   6.912  1.9685 -0.0523 -0.8525
  151SAPE   C2716704   1.186   4.616   6.950  0.2975 -0.3222 -0.7629
  151SAPE   H7R16705   1.081   4.591   6.975  0.8701  0.2877  2.7829
  151SAPE   H7S16706   1.180   4.716   6.902 -0.1376 -1.0913 -2.3843
  151SAPE   C2816707   1.257   4.625   7.081 -0.5212 -0.3819 -0.0961
  151SAPE   H8R16708   1.365   4.645   7.070 -0.4125 -0.9256 -0.0249
  151SAPE   C2916709   1.203   4.599   7.202 -0.7696 -0.0587 -0.1013
  151SAPE   H9R16710   1.260   4.607   7.295 -3.0581  1.5370  1.2789
  151SAPE  C21016711   1.062   4.561   7.229  0.7988 -0.1220 -0.0763
  151SAPE  H10R16712   1.001   4.526   7.144  0.4687  1.6555 -0.6085
  151SAPE  H10S16713   1.017   4.657   7.263  2.2135  2.1655 -4.0227
  151SAPE  C21116714   1.058   4.447   7.321  0.9170  0.7393 -0.6693
  151SAPE  H11R16715   1.030   4.349   7.278  0.0099  1.9418 -3.0511
  151SAPE  C21216716   1.081   4.453   7.455 -0.1717 -0.0150  0.3036
  151SAPE  H12R16717   1.059   4.362   7.512  0.9630 -0.6952 -0.3202
  151SAPE  C21316718   1.106   4.574   7.542 -0.5333 -0.5630 -0.4381
  151SAPE  H13R16719   1.026   4.581   7.618 -0.7320 -0.9449 -0.6135
  151SAPE  H13S16720   1.110   4.666   7.479  2.3303 -0.6568 -0.5667
  151SAPE  C21416721   1.235   4.581   7.619  0.7715  0.1753  0.8242
  151SAPE  H14R16722   1.326   4.574   7.558 -0.9228 -2.8079 -1.6776
  151SAPE  C21516723   1.257   4.590   7.749  0.6345 -0.0955 -1.0678
  151SAPE  H15R16724   1.356   4.576   7.793 -0.0439  0.0157  0.5746
  151SAPE  C21616725   1.140   4.585   7.846  0.7835  0.2420  0.3141
  151SAPE  H16R16726   1.060   4.519   7.808  1.1151 -0.6293  1.0932
  151SAPE  H16S16727   1.091   4.685   7.843 -2.3506 -1.2126  0.2519
  151SAPE  C21716728   1.155   4.547   7.997 -0.4365  0.1953 -0.3643
  151SAPE  H17R16729   1.221   4.458   7.995  0.3008  0.6105  1.7896
  151SAPE  H17S16730   1.057   4.523   8.043 -0.1705 -1.3899 -0.5871
  151SAPE  C21816731   1.212   4.670   8.068  0.0110 -0.0271 -0.5207
  151SAPE  H18R16732   1.144   4.752   8.038 -2.6912 -1.0059  2.3036
  151SAPE  H18S16733   1.318   4.679   8.035  0.2569  1.3020  0.5336
  151SAPE  C21916734   1.217   4.655   8.220 -0.1810  0.2413  0.0131
  151SAPE  H19R16735   1.275   4.561   8.234 -4.7445 -3.4186 -2.6044
  151SAPE  H19S16736   1.111   4.646   8.251 -0.4551 -0.5246 -1.0873
  151SAPE  C22016737   1.272   4.775   8.289  0.3832 -0.4669  0.6612
  151SAPE  H20R16738   1.217   4.857   8.239 -0.5164 -0.7512  1.1533
  151SAPE  H20S16739   1.249   4.794   8.396 -2.4442  1.7265 -0.2217
  151SAPE  H20T16740   1.382   4.773   8.271  0.2078  3.2154 -1.8254
  151SAPE   C3316741   1.735   4.933   6.715 -0.0613  0.5909 -0.3456
  151SAPE   H3X16742   1.769   4.828   6.732  1.5173  1.3069  1.2736
  151SAPE   H3Y16743   1.629   4.943   6.744  0.2946  0.9827  0.8930
  151SAPE   C3416744   1.818   5.022   6.818  0.3671 -0.0679 -0.3748
  151SAPE   H4X16745   1.856   5.102   6.751  1.8567 -0.0827  0.4160
  151SAPE   H4Y16746   1.908   4.969   6.856  0.4679  0.5526  0.2724
  151SAPE   C3516747   1.725   5.086   6.923 -0.0304 -0.4595 -0.1433
  151SAPE   H5X16748   1.625   5.104   6.876 -0.1310 -2.0110 -0.5623
  151SAPE   H5Y16749   1.768   5.185   6.950 -0.6707 -0.4028  0.7229
  151SAPE   C3616750   1.712   5.005   7.053  0.7037 -0.0019  0.3221
  151SAPE   H6X16751   1.643   5.067   7.114  0.6392 -0.4212  0.6791
  151SAPE   H6Y16752   1.810   5.007   7.105  0.8454 -0.4967  0.0760
  151SAPE   C3716753   1.643   4.871   7.049 -0.5021 -0.4737 -0.3067
  151SAPE   H7X16754   1.708   4.784   7.025  1.0655 -0.0897  2.1468
  151SAPE   H7Y16755   1.565   4.880   6.970 -0.3208  1.2837 -0.3445
  151SAPE   C3816756   1.592   4.834   7.188 -0.3283  0.0738 -0.8782
  151SAPE   H8X16757   1.542   4.735   7.180  1.3265 -1.0905  1.8074
  151SAPE   H8Y16758   1.505   4.895   7.220 -2.4625 -2.8970 -0.6120
  151SAPE   C3916759   1.699   4.834   7.297 -0.1558 -0.8219  1.0553
  151SAPE   H9X16760   1.726   4.938   7.324 -1.0249  0.4318 -2.2974
  151SAPE   H9Y16761   1.789   4.794   7.244 -0.4191 -3.6552  2.5740
  151SAPE  C31016762   1.669   4.753   7.427  0.0985  0.2453  0.3108
  151SAPE  H10X16763   1.743   4.794   7.499  1.3146 -0.1298 -0.6889
  151SAPE  H10Y16764   1.682   4.643   7.413 -0.2647  0.4311 -1.7489
  151SAPE  C31116765   1.526   4.788   7.489 -1.0927  0.0890 -0.0745
  151SAPE  H11X16766   1.514   4.731   7.583 -1.2467 -0.7922 -0.6184
  151SAPE  H11Y16767   1.442   4.756   7.424 -0.2039  0.7174 -1.5865
  151SAPE  C31216768   1.501   4.938   7.536  0.0216  0.4776  0.1851
  151SAPE  H12X16769   1.498   5.012   7.453 -0.1638  3.4378  2.6417
  151SAPE  H12Y16770   1.584   4.974   7.600 -0.1937  0.2437  0.5952
  151SAPE  C31316771   1.371   4.943   7.617 -0.3201  0.8236  0.6465
  151SAPE  H13X16772   1.365   4.844   7.668  0.4501  0.4930  0.1173
  151SAPE  H13Y16773   1.290   4.962   7.544  1.2222  1.7209 -0.9179
  151SAPE  C31416774   1.363   5.041   7.736 -0.0589 -0.1134 -0.2256
  151SAPE  H14X16775   1.259   5.037   7.774 -0.6136 -1.4252 -1.7675
  151SAPE  H14Y16776   1.384   5.143   7.696 -3.5367  1.0371  0.5771
  151SAPE  C31516777   1.466   5.029   7.848 -0.1897 -0.2886  0.6185
  151SAPE  H15X16778   1.570   5.052   7.816 -0.6313  0.1068 -0.5984
  151SAPE  H15Y16779   1.468   4.925   7.889 -0.9429  0.1643  1.8672
  151SAPE  C31616780   1.420   5.116   7.965 -0.6214 -0.6731  0.4084
  151SAPE  H16X16781   1.315   5.095   7.992 -1.4056 -0.1784 -2.0125
  151SAPE  H16Y16782   1.431   5.220   7.927  0.4032 -1.0175 -0.2835
  151SAPE  C31716783   1.514   5.103   8.086 -0.4271  0.0659 -1.0211
  151SAPE  H17X16784   1.615   5.105   8.040  0.4505 -3.2970  0.4493
  151SAPE  H17Y16785   1.505   5.009   8.145  0.8867 -0.1380 -1.1202
  151SAPE  C31816786   1.497   5.219   8.183  0.6504 -0.5176 -0.1437
  151SAPE  H18X16787   1.508   5.319   8.133 -2.4846 -0.1984 -0.3949
  151SAPE  H18Y16788   1.570   5.212   8.266  0.8004 -2.6968 -0.3967
  151SAPE  H18Z16789   1.396   5.226   8.228  1.1016 -0.4645  0.8871
  152SAPE     N16790   4.374   0.971   6.345  0.0608 -0.3784  0.6144
  152SAPE   HN116791   4.299   0.901   6.360  0.3726 -0.8127  0.1519
  152SAPE   HN216792   4.460   0.940   6.394  1.9429  0.3145 -2.0273
  152SAPE   HN316793   4.341   1.065   6.377 -5.2065 -1.8745  0.5200
  152SAPE   C1216794   4.400   0.971   6.192 -0.3956  0.2010 -1.0389
  152SAPE  H12A16795   4.508   0.999   6.185 -0.0835 -0.4182  0.6758
  152SAPE  H12B16796   4.342   1.052   6.144 -0.5133  0.5114 -0.3749
  152SAPE   C1116797   4.386   0.833   6.132 -0.4910  0.9034 -0.3764
  152SAPE  H11A16798   4.429   0.857   6.033  1.5781 -1.0528 -0.0185
  152SAPE  H11B16799   4.278   0.813   6.116  0.3441 -2.8291 -2.2760
  152SAPE     P16800   4.458   0.583   6.183 -0.0798  0.1787  0.1540
  152SAPE   O1316801   4.320   0.524   6.165 -0.2086 -0.4223 -0.4172
  152SAPE   O1416802   4.555   0.558   6.069  0.3227  0.4614 -0.1967
  152SAPE   O1216803   4.460   0.736   6.207  0.0172 -0.0512  0.0517
  152SAPE   O1116804   4.522   0.518   6.316 -1.1251  0.2831  0.1013
  152SAPE    C116805   4.519   0.588   6.447 -0.3996 -0.0543 -0.5637
  152SAPE    HA16806   4.593   0.537   6.513 -0.1854  0.3047 -0.5229
  152SAPE    HB16807   4.556   0.693   6.450  1.2751 -0.6189  0.1960
  152SAPE    C216808   4.381   0.578   6.518 -0.2178  0.1257  0.2447
  152SAPE    HS16809   4.297   0.608   6.451 -0.6302  0.1810  0.7854
  152SAPE   O2116810   4.376   0.642   6.639 -0.3949 -0.2538  0.5254
  152SAPE   C2116811   4.265   0.684   6.686  0.0710 -0.8800 -0.0633
  152SAPE   O2216812   4.159   0.698   6.625 -0.4459 -0.4174 -0.1343
  152SAPE   C2216813   4.300   0.740   6.821  0.7533 -0.6644 -0.1916
  152SAPE   H2R16814   4.378   0.686   6.879  0.6524  0.3594  0.9358
  152SAPE   H2S16815   4.338   0.844   6.810 -0.8980  0.1337  1.1740
  152SAPE    C316816   4.352   0.426   6.549 -0.1502  0.2468 -0.3302
  152SAPE    HX16817   4.451   0.387   6.581  0.0363  0.9002 -0.1036
  152SAPE    HY16818   4.331   0.374   6.453  1.6736  1.1003 -1.2442
  152SAPE   O3116819   4.267   0.412   6.659  0.5318  0.2915  0.3536
  152SAPE   C3116820   4.222   0.285   6.691 -0.9546 -0.3557 -0.1015
  152SAPE   O3216821   4.253   0.189   6.624 -0.1878  0.0529  0.1437
  152SAPE   C3216822   4.117   0.295   6.819  0.1715  1.1044 -0.0433
  152SAPE   H2X16823   4.071   0.193   6.820 -0.3506  1.3340 -0.7080
  152SAPE   H2Y16824   4.035   0.360   6.784 -1.4282 -1.5066 -1.4759
  152SAPE   C2316825   4.174   0.744   6.913 -0.1140 -0.6632 -0.6126
  152SAPE   H3R16826   4.137   0.643   6.939 -1.5469  0.4479  2.0892
  152SAPE   H3S16827   4.093   0.803   6.865  2.1765  1.7716 -1.7218
  152SAPE   C2416828   4.205   0.806   7.053 -0.0627 -0.3739 -0.5962
  152SAPE   H4R16829   4.255   0.905   7.037  0.5071 -0.5411  0.0979
  152SAPE   H4S16830   4.286   0.744   7.096  0.0942  1.2135  1.5205
  152SAPE   C2516831   4.086   0.826   7.150  0.4425  0.0608  0.3612
  152SAPE   H5R16832   4.011   0.891   7.103 -0.2560 -0.8370  0.2172
  152SAPE   C2616833   4.072   0.776   7.274  0.1178 -0.4903  0.5664
  152SAPE   H6R16834   3.981   0.803   7.331  1.4529 -0.2152  2.6771
  152SAPE   C2716835   4.164   0.690   7.363 -0.1529 -0.2305 -0.2929
  152SAPE   H7R16836   4.237   0.619   7.317 -2.1952 -1.6941 -1.4597
  152SAPE   H7S16837   4.092   0.620   7.411 -0.2117 -0.3266 -0.5181
  152SAPE   C2816838   4.239   0.763   7.474 -0.7085 -0.5190 -1.2105
  152SAPE   H8R16839   4.340   0.801   7.455 -0.8355  1.7068  1.8385
  152SAPE   C2916840   4.194   0.798   7.595 -0.2127 -0.4594 -0.3851
  152SAPE   H9R16841   4.264   0.851   7.660  0.6589 -1.1303 -0.7529
  152SAPE  C21016842   4.054   0.764   7.659  0.2178  0.3483 -0.2771
  152SAPE  H10R16843   4.054   0.658   7.691 -0.8764  0.7788  1.3022
  152SAPE  H10S16844   3.976   0.780   7.583  2.5733  3.9618 -2.2474
  152SAPE  C21116845   4.020   0.861   7.772  0.0023 -0.2754 -0.0006
  152SAPE  H11R16846   3.948   0.943   7.761 -0.6784 -0.6196  1.6024
  152SAPE  C21216847   4.067   0.828   7.894 -0.2933  0.8329 -0.0403
  152SAPE  H12R16848   4.046   0.905   7.969 -1.6698  1.2961 -0.8704
  152SAPE  C21316849   4.158   0.707   7.926 -0.4235 -0.7474 -0.2617
  152SAPE  H13R16850   4.259   0.735   7.889 -0.0120 -0.0026  1.3366
  152SAPE  H13S16851   4.125   0.616   7.872  0.4513 -1.5400  0.5124
  152SAPE  C21416852   4.166   0.674   8.076  0.3942 -0.0891 -0.3425
  152SAPE  H14R16853   4.264   0.699   8.119 -0.3826 -0.0861  1.5014
  152SAPE  C21516854   4.063   0.645   8.159 -0.7317  0.1787 -0.6321
  152SAPE  H15R16855   4.100   0.631   8.261 -0.3668 -1.6650 -0.9919
  152SAPE  C21616856   3.920   0.634   8.122  0.4462  0.3863 -0.4966
  152SAPE  H16R16857   3.904   0.643   8.013 -0.9610 -0.9972 -0.4431
  152SAPE  H16S16858   3.876   0.727   8.164  0.5172  1.5203 -2.8171
  152SAPE  C21716859   3.854   0.508   8.170  0.1511 -0.4576  0.3970
  152SAPE  H17R16860   3.863   0.493   8.280 -0.7333 -3.3137  0.1451
  152SAPE  H17S16861   3.916   0.428   8.125 -1.1512 -2.3616  1.8180
  152SAPE  C21816862   3.715   0.496   8.124 -0.1334  0.8100 -0.5855
  152SAPE  H18R16863   3.697   0.393   8.086  1.4945  0.7909 -1.3967
  152SAPE  H18S16864   3.691   0.560   8.037 -1.3469 -1.5064 -2.0535
  152SAPE  C21916865   3.616   0.521   8.241 -0.1273  0.0097 -0.0169
  152SAPE  H19R16866   3.646   0.625   8.263  0.2246 -0.5586  2.5522
  152SAPE  H19S16867   3.632   0.455   8.329  0.7650  1.1927  0.7461
  152SAPE  C22016868   3.473   0.520   8.199  0.0110 -0.0972 -0.3780
  152SAPE  H20R16869   3.414   0.567   8.280  0.0792  1.6786 -1.2989
  152SAPE  H20S16870   3.427   0.425   8.164  1.0814  0.3019 -3.1621
  152SAPE  H20T16871   3.474   0.587   8.110  1.6141 -0.3707 -0.5939
  152SAPE   C3316872   4.174   0.322   6.957  0.6238 -0.1893 -0.4585
  152SAPE   H3X16873   4.214   0.426   6.956 -1.6909  0.7824 -2.6173
  152SAPE   H3Y16874   4.253   0.250   6.987 -0.4411 -0.3986  2.1271
  152SAPE   C3416875   4.070   0.303   7.067  0.0753 -0.4208  0.2637
  152SAPE   H4X16876   4.015   0.207   7.078 -0.4345 -0.0944  0.6032
  152SAPE   H4Y16877   3.988   0.374   7.042 -0.8468 -1.2432  0.8627
  152SAPE   C3516878   4.136   0.329   7.200  0.3825 -0.4308  0.0085
  152SAPE   H5X16879   4.159   0.437   7.188  1.0602 -0.6539 -0.7868
  152SAPE   H5Y16880   4.223   0.261   7.196  0.7929  0.1338 -1.4640
  152SAPE   C3616881   4.055   0.287   7.314 -0.2786  0.9083 -0.5204
  152SAPE   H6X16882   4.027   0.183   7.288 -0.2767  0.9876 -0.8455
  152SAPE   H6Y16883   3.957   0.338   7.313 -0.3851  0.7008 -1.1093
  152SAPE   C3716884   4.128   0.284   7.448 -0.6584  0.2620  0.1320
  152SAPE   H7X16885   4.161   0.383   7.486  0.9927 -0.7003  1.3179
  152SAPE   H7Y16886   4.224   0.230   7.437  0.4232  2.1501 -0.1552
  152SAPE   C3816887   4.048   0.218   7.557  0.3012  0.0567  0.2306
  152SAPE   H8X16888   4.059   0.108   7.544  3.6599  0.1090  1.6235
  152SAPE   H8Y16889   3.944   0.257   7.554  0.3928  0.3280  0.5221
  152SAPE   C3916890   4.088   0.241   7.705 -0.9305 -0.3204  0.6730
  152SAPE   H9X16891   4.077   0.350   7.724  1.1351  0.2311 -0.8025
  152SAPE   H9Y16892   4.198   0.221   7.711 -0.4297  1.2205 -1.9287
  152SAPE  C31016893   4.014   0.153   7.810  0.2340 -0.3555 -0.1298
  152SAPE  H10X16894   4.021   0.045   7.787 -1.6247 -0.4290 -0.4852
  152SAPE  H10Y16895   3.910   0.192   7.815  0.7490  0.9765  2.7505
  152SAPE  C31116896   4.063   0.174   7.950 -0.8789 -0.0095 -0.7284
  152SAPE  H11X16897   4.087   0.282   7.965  1.1320 -0.2598 -1.8200
  152SAPE  H11Y16898   4.167   0.139   7.971 -0.7554 -0.3149 -1.8304
  152SAPE  C31216899   3.975   0.106   8.062 -0.6479 -0.0301 -0.1040
  152SAPE  H12X16900   3.959  -0.003   8.049 -0.3995  0.0979 -1.5937
  152SAPE  H12Y16901   3.873   0.144   8.042 -0.5932 -0.6396 -1.6796
  152SAPE  C31316902   4.044   0.127   8.198  0.2813  1.1102 -0.2428
  152SAPE  H13X16903   4.080   0.232   8.209  1.9729  0.5204  0.1963
  152SAPE  H13Y16904   4.135   0.066   8.216  0.0047  0.6052 -0.5351
  152SAPE  C31416905   3.944   0.092   8.313 -1.1066  0.5497 -0.3640
  152SAPE  H14X16906   3.909  -0.013   8.302 -0.3818  0.4541 -2.0293
  152SAPE  H14Y16907   3.852   0.153   8.301 -2.1472 -0.7375  0.7307
  152SAPE  C31516908   4.001   0.119   8.456  0.0266 -0.5932 -0.8891
  152SAPE  H15X16909   4.099   0.067   8.456 -0.4834 -1.6691  1.2882
  152SAPE  H15Y16910   3.930   0.068   8.525  0.0486  0.1742 -0.2813
  152SAPE  C31616911   4.023   0.271   8.498 -0.1094 -0.1687  0.2938
  152SAPE  H16X16912   3.921   0.315   8.504  0.5479  1.2869  1.6299
  152SAPE  H16Y16913   4.080   0.333   8.425 -0.9701  2.0301  1.4027
  152SAPE  C31716914   4.090   0.285   8.628 -0.5569  0.2193 -0.6872
  152SAPE  H17X16915   4.195   0.251   8.634  0.4407  3.2089  2.7623
  152SAPE  H17Y16916   4.033   0.222   8.701  0.0406  2.0046  1.4308
  152SAPE  C31816917   4.079   0.424   8.692  0.2339 -0.2898  0.1659
  152SAPE  H18X16918   4.112   0.424   8.798 -2.2932  1.0281  1.0424
  152SAPE  H18Y16919   3.970   0.441   8.703  0.5260  1.0034  1.2066
  152SAPE  H18Z16920   4.118   0.516   8.644  1.7079  0.8677  3.2860
  153SAPE     N16921   1.414   2.016   6.153 -0.0603  0.6157 -0.4233
  153SAPE   HN116922   1.322   2.011   6.105  0.3075  3.7076 -1.6529
  153SAPE   HN216923   1.427   2.116   6.179 -0.3909  0.4906  0.2356
  153SAPE   HN316924   1.490   1.995   6.084  0.4685  3.1422 -0.7135
  153SAPE   C1216925   1.431   1.924   6.277  0.0550 -0.3572  0.0719
  153SAPE  H12A16926   1.521   1.950   6.337  0.5063  0.6190 -1.0028
  153SAPE  H12B16927   1.433   1.817   6.245  2.5077 -0.0134 -1.0990
  153SAPE   C1116928   1.317   1.938   6.380 -0.0535  0.6463  0.5025
  153SAPE  H11A16929   1.325   2.025   6.448  0.9172 -0.2314  1.5413
  153SAPE  H11B16930   1.311   1.844   6.439 -0.0223 -0.3169 -0.9671
  153SAPE     P16931   1.093   1.842   6.262 -0.2728 -0.5027  0.0751
  153SAPE   O1316932   1.005   1.917   6.171 -0.2520  0.2996 -0.4384
  153SAPE   O1416933   1.163   1.723   6.213 -0.3986 -0.4405 -0.4852
  153SAPE   O1216934   1.196   1.953   6.314 -0.4662  0.6362  0.2845
  153SAPE   O1116935   0.998   1.787   6.374 -0.2370  0.1518 -0.7221
  153SAPE    C116936   0.933   1.880   6.463 -0.3758 -1.1090 -0.0345
  153SAPE    HA16937   0.925   1.978   6.412 -1.2238 -1.6435 -0.9477
  153SAPE    HB16938   0.832   1.839   6.480 -0.9051 -0.8542 -2.2888
  153SAPE    C216939   1.003   1.903   6.603  0.5534 -0.4280 -0.7262
  153SAPE    HS16940   1.093   1.962   6.576 -1.5657  4.1641  1.3182
  153SAPE   O2116941   1.033   1.771   6.652 -0.0062  0.0068  0.2836
  153SAPE   C2116942   1.158   1.751   6.704 -0.2799  1.1485  0.1439
  153SAPE   O2216943   1.238   1.842   6.718 -0.0166 -0.1296 -0.1582
  153SAPE   C2216944   1.187   1.603   6.723 -1.2618 -0.0604  0.5909
  153SAPE   H2R16945   1.111   1.533   6.763  2.1522 -3.8409  1.1464
  153SAPE   H2S16946   1.227   1.571   6.624 -1.6093  1.0187  0.0960
  153SAPE    C316947   0.928   1.985   6.707  0.2000 -0.3465  0.6350
  153SAPE    HX16948   0.820   1.961   6.701 -0.4055  1.8865  1.4588
  153SAPE    HY16949   0.934   2.088   6.664  0.7805 -0.2444  0.9541
  153SAPE   O3116950   0.976   1.989   6.845  0.7859  0.4243  0.0598
  153SAPE   C3116951   1.077   2.060   6.873 -0.6808  0.0231 -0.1440
  153SAPE   O3216952   1.126   2.154   6.809  0.4317  0.7739 -0.0593
  153SAPE   C3216953   1.134   2.018   7.006  0.2428 -0.4287 -0.2413
  153SAPE   H2X16954   1.104   1.914   7.029 -2.9460  0.7682  1.7244
  153SAPE   H2Y16955   1.087   2.071   7.092 -0.7724 -2.0968  0.2789
  153SAPE   C2316956   1.308   1.597   6.820  0.2272  0.3339 -0.2545
  153SAPE   H3R16957   1.382   1.670   6.779  2.2675 -1.7235 -0.3881
  153SAPE   H3S16958   1.346   1.493   6.826 -2.6006 -0.8437 -0.9562
  153SAPE   C2416959   1.277   1.646   6.969 -0.5708 -0.0006 -0.8375
  153SAPE   H4R16960   1.202   1.728   6.969 -1.6438 -0.8896  2.2196
  153SAPE   H4S16961   1.370   1.695   7.007 -0.4168  0.0574 -1.2734
  153SAPE   C2516962   1.224   1.529   7.056  0.2577  0.0883 -0.1115
  153SAPE   H5R16963   1.155   1.469   6.993 -0.7457  1.1737 -0.0748
  153SAPE   C2616964   1.259   1.489   7.176 -0.0570 -0.4783  0.6580
  153SAPE   H6R16965   1.219   1.393   7.211 -0.6062  0.0453  1.5111
  153SAPE   C2716966   1.357   1.558   7.269  0.3234 -0.0514 -0.4272
  153SAPE   H7R16967   1.305   1.619   7.346  0.9562 -1.1747  0.9431
  153SAPE   H7S16968   1.417   1.627   7.205  2.4552 -1.1208  0.3005
  153SAPE   C2816969   1.457   1.465   7.341  0.6483  0.6146 -0.2646
  153SAPE   H8R16970   1.483   1.387   7.268 -0.3914  1.6877 -1.8723
  153SAPE   C2916971   1.500   1.475   7.464  0.4034  0.5452  0.1582
  153SAPE   H9R16972   1.559   1.390   7.500 -1.9417 -1.8245 -1.2245
  153SAPE  C21016973   1.483   1.595   7.561  0.2975 -0.0743  0.5005
  153SAPE  H10R16974   1.439   1.555   7.655 -0.9742  1.6178  0.6597
  153SAPE  H10S16975   1.402   1.657   7.518  0.8264 -0.0757 -0.5313
  153SAPE  C21116976   1.608   1.678   7.569 -0.1414 -0.3980 -0.6113
  153SAPE  H11R16977   1.649   1.708   7.471  0.9614 -0.0363 -0.0484
  153SAPE  C21216978   1.664   1.733   7.681  0.2236 -0.6015  0.1649
  153SAPE  H12R16979   1.745   1.804   7.662  0.4371 -1.4351 -2.4174
  153SAPE  C21316980   1.622   1.722   7.826 -0.5910 -0.7947  0.2582
  153SAPE  H13R16981   1.512   1.732   7.840 -0.5889 -0.3567 -0.0209
  153SAPE  H13S16982   1.662   1.811   7.878 -0.6966  1.6003 -3.4193
  153SAPE  C21416983   1.674   1.597   7.899  0.0833 -0.3117 -0.1412
  153SAPE  H14R16984   1.728   1.519   7.843  0.7951 -0.8942  1.3055
  153SAPE  C21516985   1.655   1.576   8.032  0.0219  0.6468  0.1238
  153SAPE  H15R16986   1.694   1.487   8.083  0.9380  1.8151  1.5324
  153SAPE  C21616987   1.584   1.663   8.121  0.3903  0.5448  0.2194
  153SAPE  H16R16988   1.531   1.597   8.193  0.5314  1.6937  1.4089
  153SAPE  H16S16989   1.515   1.730   8.064 -0.0431  0.2081  0.3368
  153SAPE  C21716990   1.689   1.755   8.203  1.2704  0.2046 -0.5980
  153SAPE  H17R16991   1.641   1.817   8.282 -0.6888 -0.7714 -0.9564
  153SAPE  H17S16992   1.728   1.823   8.124 -2.3212 -0.1294 -2.9027
  153SAPE  C21816993   1.808   1.681   8.268  0.0640 -0.7902  0.1107
  153SAPE  H18R16994   1.882   1.664   8.187  2.4970  0.2022  1.9646
  153SAPE  H18S16995   1.780   1.578   8.297 -0.4422 -1.2110 -1.7571
  153SAPE  C21916996   1.885   1.759   8.372  0.1294 -0.1423  0.1139
  153SAPE  H19R16997   1.980   1.713   8.406  0.1253  1.0008  1.7943
  153SAPE  H19S16998   1.821   1.767   8.462 -2.0273 -0.0988 -1.3610
  153SAPE  C22016999   1.934   1.899   8.327  0.0565  0.7631  0.2708
  153SAPE  H20R17000   1.970   1.960   8.413 -0.5431  0.8660  0.4485
  153SAPE  H20S17001   1.852   1.953   8.275 -0.6324  0.2544  0.8076
  153SAPE  H20T17002   2.011   1.881   8.248  0.9326  0.7538  1.1021
  153SAPE   C3317003   1.296   2.035   7.004  0.7586  0.0785 -0.2357
  153SAPE   H3X17004   1.303   2.141   6.969 -0.2979  0.5910  1.0287
  153SAPE   H3Y17005   1.339   1.959   6.935  2.7602 -0.2643  1.2772
  153SAPE   C3417006   1.353   1.992   7.138 -0.1881 -0.2315 -0.4454
  153SAPE   H4X17007   1.321   1.887   7.157 -0.2628 -0.6471 -2.6228
  153SAPE   H4Y17008   1.314   2.059   7.218  0.9932  0.2564 -0.2679
  153SAPE   C3517009   1.505   1.991   7.147 -0.3335 -0.3006  0.7169
  153SAPE   H5X17010   1.546   2.086   7.106  0.7595 -1.4740 -1.0708
  153SAPE   H5Y17011   1.546   1.909   7.084 -2.7309 -0.5379 -0.6607
  153SAPE   C3617012   1.553   1.960   7.292 -0.5865  0.5521  0.6497
  153SAPE   H6X17013   1.664   1.960   7.291 -0.5191  0.4150  2.9498
  153SAPE   H6Y17014   1.524   1.857   7.323  0.3034 -0.3291 -1.3130
  153SAPE   C3717015   1.519   2.064   7.400  0.5569  0.0191  0.3694
  153SAPE   H7X17016   1.412   2.052   7.428  0.4930  0.1518  0.1825
  153SAPE   H7Y17017   1.521   2.170   7.366  0.6538  1.3493  4.0290
  153SAPE   C3817018   1.610   2.068   7.518  0.3986 -0.2648  0.3861
  153SAPE   H8X17019   1.711   2.103   7.488  0.7808  0.4546  2.3516
  153SAPE   H8Y17020   1.631   1.964   7.550  0.9511 -0.4363 -0.5199
  153SAPE   C3917021   1.555   2.138   7.640 -0.3650 -0.2752  0.2887
  153SAPE   H9X17022   1.468   2.075   7.669  1.2251 -2.1413  1.2739
  153SAPE   H9Y17023   1.520   2.241   7.623  1.1416 -0.1307 -2.4484
  153SAPE  C31017024   1.657   2.147   7.758  0.3454 -0.2902 -0.6352
  153SAPE  H10X17025   1.703   2.248   7.758 -1.5767  0.6585  0.6999
  153SAPE  H10Y17026   1.736   2.070   7.742  0.0343 -1.2190  1.8598
  153SAPE  C31117027   1.589   2.113   7.892 -1.0674  0.1001 -0.2504
  153SAPE  H11X17028   1.553   2.008   7.891  3.6516 -1.8118 -2.5528
  153SAPE  H11Y17029   1.493   2.169   7.888 -0.6178  0.9258 -4.6441
  153SAPE  C31217030   1.680   2.150   8.014 -0.4881  0.0539  0.4850
  153SAPE  H12X17031   1.720   2.250   7.988  2.8566 -1.7280 -2.0951
  153SAPE  H12Y17032   1.766   2.080   8.012 -0.0615  0.5855 -0.7839
  153SAPE  C31317033   1.606   2.157   8.151  0.2159  0.8837  0.2963
  153SAPE  H13X17034   1.583   2.058   8.196  0.9364  0.5097 -0.1517
  153SAPE  H13Y17035   1.509   2.210   8.135 -1.2375 -1.6455  0.2069
  153SAPE  C31417036   1.694   2.229   8.256  0.5753  0.2718  1.0079
  153SAPE  H14X17037   1.717   2.334   8.226 -2.3571  1.4410  2.3809
  153SAPE  H14Y17038   1.794   2.182   8.267  0.7795  0.9197  2.1483
  153SAPE  C31517039   1.645   2.231   8.399  0.3982 -0.4144 -0.3361
  153SAPE  H15X17040   1.619   2.129   8.434 -1.5487  0.4619  0.9145
  153SAPE  H15Y17041   1.552   2.291   8.398  0.2935 -0.5726 -1.3357
  153SAPE  C31617042   1.739   2.325   8.481  0.1324  0.3838 -0.5800
  153SAPE  H16X17043   1.748   2.432   8.452  5.3112  1.1308  2.4377
  153SAPE  H16Y17044   1.841   2.280   8.484  0.1676  0.4921  0.2174
  153SAPE  C31717045   1.708   2.318   8.635 -0.4059 -0.4550 -0.1738
  153SAPE  H17X17046   1.705   2.211   8.668 -1.4709 -0.4859 -0.3273
  153SAPE  H17Y17047   1.603   2.351   8.646 -0.8226 -1.5041 -0.8201
  153SAPE  C31817048   1.791   2.398   8.727 -0.2283  0.3935 -0.4107
  153SAPE  H18X17049   1.895   2.360   8.733  1.1200  3.7801  0.2263
  153SAPE  H18Y17050   1.759   2.401   8.833  0.5654 -1.9423 -0.0541
  153SAPE  H18Z17051   1.797   2.501   8.686  3.0929  0.0498 -1.0334
  154SAPE     N17052   4.752   1.486   6.061 -0.7491 -0.1461 -0.4143
  154SAPE   HN117053   4.814   1.561   6.096 -1.1034  0.2678 -0.6739
  154SAPE   HN217054   4.817   1.414   6.022 -0.3026  0.2245 -0.3527
  154SAPE   HN317055   4.695   1.528   5.985 -1.7723 -2.4939 -1.0585
  154SAPE   C1217056   4.657   1.437   6.166  0.0790  0.4909 -0.4352
  154SAPE  H12A17057   4.601   1.354   6.118 -0.6792 -0.2544  1.6325
  154SAPE  H12B17058   4.574   1.511   6.169  1.3590  1.9842 -0.8114
  154SAPE   C1117059   4.733   1.393   6.291 -0.1249 -0.2513 -0.6906
  154SAPE  H11A17060   4.657   1.329   6.342 -0.8677  0.9566 -0.2450
  154SAPE  H11B17061   4.749   1.475   6.364 -0.0487 -0.7935 -0.0913
  154SAPE     P17062   4.832   1.151   6.269 -0.2880  0.0944  0.5699
  154SAPE   O1317063   4.723   1.105   6.183  0.9457  0.0571 -0.2799
  154SAPE   O1417064   4.972   1.099   6.238 -0.6605  0.2122 -1.0269
  154SAPE   O1217065   4.850   1.311   6.262  0.5149  0.1794  0.4356
  154SAPE   O1117066   4.788   1.119   6.423  0.0247  0.0790  0.2662
  154SAPE    C117067   4.875   1.152   6.535  0.2820 -0.2037  0.4993
  154SAPE    HA17068   4.875   1.069   6.609 -0.9537  0.3364  1.1323
  154SAPE    HB17069   4.980   1.161   6.499  0.1108 -2.5740 -0.8232
  154SAPE    C217070   4.830   1.279   6.613  1.1416  0.0071 -0.1855
  154SAPE    HS17071   4.853   1.371   6.555  0.1314  1.3385  1.3937
  154SAPE   O2117072   4.891   1.278   6.744 -0.1239  0.1287 -0.1741
  154SAPE   C2117073   5.019   1.311   6.757  0.3182  0.2162  0.6273
  154SAPE   O2217074   5.080   1.368   6.670  0.4826 -0.6740  0.1631
  154SAPE   C2217075   5.076   1.252   6.882 -0.1656 -0.0059  0.0859
  154SAPE   H2R17076   5.122   1.155   6.854 -3.0109 -0.8840 -1.9463
  154SAPE   H2S17077   5.157   1.322   6.915 -0.3904 -0.8340  2.5673
  154SAPE    C317078   4.676   1.265   6.642  0.3174 -0.5065  0.2493
  154SAPE    HX17079   4.615   1.276   6.550 -1.3709  0.4677  1.4150
  154SAPE    HY17080   4.643   1.353   6.701 -0.0209 -1.4527  1.5245
  154SAPE   O3117081   4.649   1.136   6.696 -0.2035  0.2432  0.1958
  154SAPE   C3117082   4.610   1.136   6.815  0.1831 -0.3243  0.2485
  154SAPE   O3217083   4.583   1.230   6.890 -0.0118 -0.1831  0.5874
  154SAPE   C3217084   4.594   0.989   6.850  0.0989  0.0519  0.2151
  154SAPE   H2X17085   4.698   0.957   6.830  0.3561  1.1973 -0.3821
  154SAPE   H2Y17086   4.526   0.947   6.773 -0.3264  1.3399 -0.1395
  154SAPE   C2317087   4.988   1.239   7.008  0.1474 -0.1566 -1.0146
  154SAPE   H3R17088   4.892   1.188   6.980  0.1890 -0.2900 -0.9126
  154SAPE   H3S17089   4.961   1.336   7.055 -0.5708  0.1318 -1.9607
  154SAPE   C2417090   5.023   1.125   7.111  0.1698 -0.7384 -0.3511
  154SAPE   H4R17091   5.046   1.032   7.053 -2.3106 -1.0333 -0.9724
  154SAPE   H4S17092   4.936   1.102   7.176  0.8289  1.3515  1.3779
  154SAPE   C2517093   5.145   1.179   7.177  0.6241 -0.1542  0.3463
  154SAPE   H5R17094   5.232   1.191   7.110 -0.5545  0.0246 -1.2197
  154SAPE   C2617095   5.151   1.237   7.299 -0.0347 -0.2571 -0.4416
  154SAPE   H6R17096   5.242   1.279   7.345 -0.3707  2.4197 -2.0274
  154SAPE   C2717097   5.033   1.239   7.388 -0.2348  0.5522  0.2210
  154SAPE   H7R17098   5.020   1.136   7.430 -3.6318  0.4946 -0.6275
  154SAPE   H7S17099   4.941   1.263   7.330 -1.3154 -1.3334  1.0283
  154SAPE   C2817100   5.061   1.340   7.496 -0.5155 -0.3360  0.1656
  154SAPE   H8R17101   5.067   1.441   7.454 -3.3218 -0.6625 -1.2558
  154SAPE   C2917102   5.069   1.330   7.629  0.0826  0.4769 -0.1683
  154SAPE   H9R17103   5.062   1.425   7.684  0.9834  0.9134 -0.7881
  154SAPE  C21017104   5.051   1.203   7.710 -0.1461 -0.3997  0.2132
  154SAPE  H10R17105   5.077   1.113   7.650  2.5514 -1.0578  2.1829
  154SAPE  H10S17106   4.941   1.188   7.720 -0.4151  1.4917  0.4841
  154SAPE  C21117107   5.129   1.202   7.842  0.4090 -0.4050  0.3915
  154SAPE  H11R17108   5.222   1.145   7.833  0.7301  0.1918 -0.1474
  154SAPE  C21217109   5.082   1.249   7.959  0.8318  0.2233 -0.2288
  154SAPE  H12R17110   5.146   1.231   8.047  0.8131 -2.4712 -0.6808
  154SAPE  C21317111   4.947   1.310   7.981  0.5735  0.5653  0.0106
  154SAPE  H13R17112   4.889   1.241   8.045 -1.9972  2.1811 -0.4703
  154SAPE  H13S17113   4.890   1.323   7.886 -4.2019 -0.2878  2.4737
  154SAPE  C21417114   4.958   1.435   8.060 -0.1780 -0.3626 -0.1751
  154SAPE  H14R17115   5.043   1.494   8.022  0.3976 -1.3005 -0.3715
  154SAPE  C21517116   4.896   1.484   8.172 -0.3474 -0.1544 -0.4674
  154SAPE  H15R17117   4.925   1.584   8.207 -0.3838  0.5874 -2.3926
  154SAPE  C21617118   4.792   1.413   8.248  0.2971  0.0152 -0.8698
  154SAPE  H16R17119   4.824   1.314   8.287  1.3778 -0.6688 -3.2677
  154SAPE  H16S17120   4.703   1.399   8.184 -0.1768 -1.4800  0.0591
  154SAPE  C21717121   4.754   1.496   8.379  0.2915 -0.2347  0.0046
  154SAPE  H17R17122   4.703   1.591   8.352 -0.7654 -0.8382 -0.1869
  154SAPE  H17S17123   4.847   1.509   8.438  0.4302 -1.4791  0.0968
  154SAPE  C21817124   4.651   1.427   8.480 -0.3182 -0.9974 -0.7913
  154SAPE  H18R17125   4.705   1.337   8.516 -0.5801 -1.5121 -1.6497
  154SAPE  H18S17126   4.564   1.388   8.423 -1.5499 -1.2772  1.1721
  154SAPE  C21917127   4.609   1.520   8.594 -0.0379  0.1823 -0.4686
  154SAPE  H19R17128   4.538   1.595   8.552 -0.9822  0.8087  2.0523
  154SAPE  H19S17129   4.703   1.566   8.632 -0.5501  0.8902 -0.0294
  154SAPE  C22017130   4.540   1.436   8.706 -0.2330  0.0795  0.1917
  154SAPE  H20R17131   4.615   1.360   8.738 -0.0178  0.0217 -0.4334
  154SAPE  H20S17132   4.444   1.388   8.675  0.4928 -1.0836 -0.3231
  154SAPE  H20T17133   4.524   1.499   8.796 -0.5252 -1.3373  1.1815
  154SAPE   C3317134   4.538   0.967   6.993 -0.0657  0.0722  0.5911
  154SAPE   H3X17135   4.485   0.870   6.998 -2.9790  1.5691  0.8659
  154SAPE   H3Y17136   4.445   1.028   6.997 -0.0736  0.4667 -2.8721
  154SAPE   C3417137   4.627   0.987   7.108  0.2558  0.2828  0.4149
  154SAPE   H4X17138   4.678   1.083   7.085 -2.9504  1.3866 -3.2195
  154SAPE   H4Y17139   4.708   0.911   7.102  0.4350  0.6010 -2.4688
  154SAPE   C3517140   4.549   0.975   7.238  0.4939 -0.1822  0.2507
  154SAPE   H5X17141   4.526   0.867   7.255 -0.0484 -0.3288 -1.2499
  154SAPE   H5Y17142   4.460   1.040   7.252 -2.1784 -3.8794  2.3494
  154SAPE   C3617143   4.635   1.016   7.365  0.6140  0.0197  0.1643
  154SAPE   H6X17144   4.674   1.113   7.327  2.5156 -1.2985 -1.4049
  154SAPE   H6Y17145   4.712   0.941   7.392 -0.2766 -1.0240 -0.1194
  154SAPE   C3717146   4.546   1.014   7.487  0.0764 -0.1998  0.6805
  154SAPE   H7X17147   4.490   0.919   7.500  0.6140 -0.3068  2.4460
  154SAPE   H7Y17148   4.480   1.103   7.480 -1.1885 -0.9597  2.2849
  154SAPE   C3817149   4.616   1.024   7.627  0.8483  0.5448  1.1835
  154SAPE   H8X17150   4.648   1.129   7.645  0.8692  0.8921 -0.6091
  154SAPE   H8Y17151   4.708   0.962   7.617  0.5801  0.1592  1.0801
  154SAPE   C3917152   4.515   0.963   7.728 -0.1246  0.1042 -0.1004
  154SAPE   H9X17153   4.536   0.855   7.738  2.0929  0.3046 -1.6757
  154SAPE   H9Y17154   4.409   0.991   7.709 -1.1287 -2.3419  1.5382
  154SAPE  C31017155   4.541   1.020   7.868  0.4592  0.0830 -0.1913
  154SAPE  H10X17156   4.537   1.131   7.863  1.5231  0.1581  0.3179
  154SAPE  H10Y17157   4.647   0.991   7.881 -0.1500 -1.6272  1.5553
  154SAPE  C31117158   4.442   0.965   7.974  0.1355 -0.0661  1.0199
  154SAPE  H11X17159   4.478   0.860   7.984  0.6950 -0.0239 -0.2995
  154SAPE  H11Y17160   4.340   0.950   7.932  0.7163 -0.6345 -0.2564
  154SAPE  C31217161   4.447   1.050   8.100 -0.8188 -0.0558  0.7719
  154SAPE  H12X17162   4.396   1.146   8.077 -0.4054 -0.3172 -1.3860
  154SAPE  H12Y17163   4.554   1.073   8.119 -0.1675  1.0148 -3.2951
  154SAPE  C31317164   4.376   0.989   8.222  0.4164 -0.1620  0.5053
  154SAPE  H13X17165   4.424   0.896   8.257  0.7459 -0.0707  0.3031
  154SAPE  H13Y17166   4.271   0.963   8.197  0.0063 -0.6098  2.5408
  154SAPE  C31417167   4.373   1.101   8.336  0.2723  0.9920 -0.3945
  154SAPE  H14X17168   4.311   1.182   8.292 -1.6786  0.2763  0.9102
  154SAPE  H14Y17169   4.477   1.136   8.353  0.1093  1.3370 -0.1211
  154SAPE  C31517170   4.310   1.055   8.475 -0.0208  0.2087  0.3284
  154SAPE  H15X17171   4.239   0.972   8.457 -1.1508  0.4406  3.1090
  154SAPE  H15Y17172   4.260   1.143   8.523 -0.7430  0.9951 -1.7617
  154SAPE  C31617173   4.423   1.006   8.569  0.1464  0.6616 -0.1792
  154SAPE  H16X17174   4.481   1.093   8.606  3.6686 -1.1676 -0.9341
  154SAPE  H16Y17175   4.491   0.955   8.497 -0.2589  0.0101 -0.1076
  154SAPE  C31717176   4.373   0.919   8.685 -0.2756  0.5292 -0.6508
  154SAPE  H17X17177   4.458   0.852   8.712 -1.2050 -0.2245  0.4904
  154SAPE  H17Y17178   4.282   0.861   8.661  0.0057 -0.5019  0.6853
  154SAPE  C31817179   4.345   1.000   8.814  0.2793  0.2507 -0.4190
  154SAPE  H18X17180   4.338   0.950   8.913  1.6800  0.2887 -0.2784
  154SAPE  H18Y17181   4.260   1.066   8.789 -0.3829 -0.3111  0.3078
  154SAPE  H18Z17182   4.426   1.070   8.842 -0.8934  0.8332  1.7659
  155SAPE     N17183   5.750   1.433   6.208  0.3149 -0.3022 -0.6444
  155SAPE   HN117184   5.834   1.471   6.159  0.3016 -2.0880 -2.1195
  155SAPE   HN217185   5.735   1.333   6.185  2.5058 -1.2704  1.6296
  155SAPE   HN317186   5.668   1.485   6.172  1.8493  1.3118 -1.9863
  155SAPE   C1217187   5.766   1.451   6.358  0.6691  0.0611  0.1100
  155SAPE  H12A17188   5.843   1.529   6.376 -1.3483  1.9178  1.1943
  155SAPE  H12B17189   5.821   1.363   6.398  2.9345  1.4751  0.3147
  155SAPE   C1117190   5.632   1.484   6.432  0.2301 -0.0723 -0.9023
  155SAPE  H11A17191   5.671   1.508   6.533  2.6221  0.8988 -1.9755
  155SAPE  H11B17192   5.576   1.388   6.429  1.1513 -0.7166  1.0704
  155SAPE     P17193   5.576   1.741   6.427 -0.0821 -0.1592 -0.1283
  155SAPE   O1317194   5.724   1.772   6.442  0.2628 -0.2382  0.2795
  155SAPE   O1417195   5.487   1.829   6.350  0.2551 -0.1024 -0.1080
  155SAPE   O1217196   5.564   1.595   6.369 -0.3556  1.0949  0.2554
  155SAPE   O1117197   5.514   1.723   6.568  0.2310 -0.2629 -0.3525
  155SAPE    C117198   5.396   1.785   6.618 -0.0246 -0.8207  0.7140
  155SAPE    HA17199   5.321   1.802   6.538  0.0121 -1.6209  0.5028
  155SAPE    HB17200   5.336   1.716   6.682 -2.8975 -0.1152 -1.0292
  155SAPE    C217201   5.433   1.923   6.689  0.1245 -0.5708 -0.3484
  155SAPE    HS17202   5.483   1.986   6.612  1.9007 -0.2047  1.0467
  155SAPE   O2117203   5.518   1.912   6.805 -0.0135  0.0318  0.2485
  155SAPE   C2117204   5.627   1.983   6.827  0.6107 -0.6504 -0.0414
  155SAPE   O2217205   5.668   2.061   6.741  0.1053 -0.4340 -0.2024
  155SAPE   C2217206   5.681   1.955   6.971 -0.0251  0.3704 -0.3877
  155SAPE   H2R17207   5.600   1.921   7.039 -0.3506  2.1102  0.1524
  155SAPE   H2S17208   5.749   1.867   6.971  1.8621  1.7008  2.0835
  155SAPE    C317209   5.305   2.011   6.732 -0.3966  0.8475  0.4124
  155SAPE    HX17210   5.258   1.957   6.817 -2.1294  1.3917 -0.1431
  155SAPE    HY17211   5.228   2.008   6.651 -0.8222  0.8587  0.8121
  155SAPE   O3117212   5.350   2.140   6.765 -0.2232 -0.1500 -0.0173
  155SAPE   C3117213   5.267   2.207   6.830  0.7834 -0.7440 -0.5869
  155SAPE   O3217214   5.147   2.180   6.844 -0.3290 -0.3033 -0.5882
  155SAPE   C3217215   5.339   2.328   6.883 -0.6682  1.0371 -0.4296
  155SAPE   H2X17216   5.267   2.410   6.903 -0.9302  0.4386  1.1982
  155SAPE   H2Y17217   5.420   2.361   6.814  0.1739  3.6304  1.6279
  155SAPE   C2317218   5.755   2.087   7.020 -0.3886  0.9182 -0.6956
  155SAPE   H3R17219   5.684   2.172   7.029 -2.0009 -0.4010 -0.4189
  155SAPE   H3S17220   5.840   2.110   6.952  0.5408  3.4494  1.1511
  155SAPE   C2417221   5.825   2.062   7.160  0.1349  0.9764 -0.0806
  155SAPE   H4R17222   5.897   2.147   7.170 -0.9144  1.7754  0.8686
  155SAPE   H4S17223   5.887   1.971   7.143 -1.5429 -0.1529 -0.2925
  155SAPE   C2517224   5.738   2.054   7.284  0.4361  0.0574 -0.4917
  155SAPE   H5R17225   5.672   2.138   7.309  0.4897 -0.0788  0.1158
  155SAPE   C2617226   5.731   1.944   7.371  0.6414  0.6335  0.3080
  155SAPE   H6R17227   5.667   1.942   7.461  2.1014 -1.4671  1.4197
  155SAPE   C2717228   5.816   1.818   7.361 -0.6837  0.1445  0.6406
  155SAPE   H7R17229   5.918   1.844   7.324 -1.3263  1.0687 -0.5652
  155SAPE   H7S17230   5.775   1.755   7.279  1.8665  1.6730 -2.0161
  155SAPE   C2817231   5.835   1.746   7.493  0.1563 -0.7508 -0.1583
  155SAPE   H8R17232   5.761   1.668   7.512  2.2971 -2.9367 -0.2620
  155SAPE   C2917233   5.927   1.770   7.588  0.1359 -0.7411  0.1715
  155SAPE   H9R17234   5.919   1.711   7.681 -2.1015 -0.8664 -0.0473
  155SAPE  C21017235   6.044   1.872   7.587 -0.0609  0.2953  0.0581
  155SAPE  H10R17236   6.073   1.872   7.479 -2.5176 -2.4914 -0.7644
  155SAPE  H10S17237   6.133   1.837   7.643 -1.2006 -2.0615  0.5492
  155SAPE  C21117238   5.975   2.008   7.616  0.0321  0.0628 -0.7284
  155SAPE  H11R17239   5.868   2.019   7.592 -0.0473 -1.7086 -1.2976
  155SAPE  C21217240   6.042   2.112   7.661  0.1841 -0.3709  0.4002
  155SAPE  H12R17241   5.991   2.209   7.669 -0.6277 -0.8471  1.2345
  155SAPE  C21317242   6.189   2.124   7.697 -0.0748  0.8655 -0.4794
  155SAPE  H13R17243   6.252   2.154   7.611 -0.6782  1.4972 -0.7025
  155SAPE  H13S17244   6.233   2.023   7.718 -1.0169  0.6737  0.7040
  155SAPE  C21417245   6.197   2.223   7.816  0.4046  0.0073  0.3342
  155SAPE  H14R17246   6.167   2.323   7.784  0.5386  0.1570  0.6666
  155SAPE  C21517247   6.204   2.203   7.954  0.1193  0.0439 -0.2038
  155SAPE  H15R17248   6.198   2.290   8.021 -0.0497  0.2476 -0.4800
  155SAPE  C21617249   6.239   2.068   8.011 -0.5695 -0.3721 -0.5025
  155SAPE  H16R17250   6.276   2.081   8.115 -0.2354 -0.8624 -0.5604
  155SAPE  H16S17251   6.312   2.024   7.941  3.0126 -0.6873  3.0890
  155SAPE  C21717252   6.122   1.972   8.027  0.2809 -0.1414  0.9635
  155SAPE  H17R17253   6.071   1.963   7.929  0.0928  1.6186  0.8792
  155SAPE  H17S17254   6.055   2.030   8.094 -2.1354 -0.4252 -1.0890
  155SAPE  C21817255   6.157   1.839   8.088  0.2500 -0.3239 -0.8294
  155SAPE  H18R17256   6.194   1.869   8.188  0.1535  0.7035 -1.0914
  155SAPE  H18S17257   6.234   1.785   8.030 -0.9843 -2.2755 -0.7537
  155SAPE  C21917258   6.047   1.740   8.090 -0.2190 -0.0694  0.0334
  155SAPE  H19R17259   5.958   1.789   8.135 -0.5831 -3.3504  3.4173
  155SAPE  H19S17260   6.076   1.663   8.165  1.6181 -0.0435 -0.6044
  155SAPE  C22017261   6.018   1.678   7.952  0.6703  0.9857 -0.5453
  155SAPE  H20R17262   5.941   1.599   7.966  1.4128  0.0822 -1.4127
  155SAPE  H20S17263   6.104   1.615   7.919 -0.6712 -1.1057 -0.2827
  155SAPE  H20T17264   5.984   1.747   7.872  1.3132 -0.1282 -1.8314
  155SAPE   C3317265   5.420   2.290   7.009  0.4012  0.3746 -0.0683
  155SAPE   H3X17266   5.478   2.382   7.033 -0.9174  1.2510 -0.1431
  155SAPE   H3Y17267   5.483   2.199   7.011 -1.8850 -1.2825  1.2942
  155SAPE   C3417268   5.322   2.268   7.138 -0.1172  0.3265 -0.7446
  155SAPE   H4X17269   5.259   2.178   7.127  0.1116 -0.1657  1.5306
  155SAPE   H4Y17270   5.250   2.352   7.141 -0.3238  0.1165  1.0788
  155SAPE   C3517271   5.402   2.243   7.264  0.2787 -0.0213 -0.6684
  155SAPE   H5X17272   5.491   2.309   7.278 -0.2282  0.5494 -0.0606
  155SAPE   H5Y17273   5.458   2.147   7.254 -0.5457 -0.4137 -1.6547
  155SAPE   C3617274   5.321   2.226   7.381  0.0087 -0.1578  0.2529
  155SAPE   H6X17275   5.231   2.168   7.352 -1.2288  1.2965  1.0024
  155SAPE   H6Y17276   5.270   2.319   7.415 -1.9709 -0.2674 -2.0734
  155SAPE   C3717277   5.397   2.179   7.504  0.4288  0.0587  0.2075
  155SAPE   H7X17278   5.494   2.234   7.501 -0.0000  0.8295  0.3656
  155SAPE   H7Y17279   5.426   2.072   7.498 -1.5536 -0.5405  0.5642
  155SAPE   C3817280   5.330   2.196   7.639  0.1667  0.1488  0.2489
  155SAPE   H8X17281   5.220   2.190   7.623  0.2806 -0.4591 -0.3946
  155SAPE   H8Y17282   5.349   2.294   7.688 -0.5545  0.9108 -0.9397
  155SAPE   C3917283   5.366   2.083   7.732 -0.3998 -0.4695  0.2897
  155SAPE   H9X17284   5.473   2.088   7.762  0.1936  1.0996 -1.8038
  155SAPE   H9Y17285   5.348   1.990   7.674 -0.2466 -0.3621  0.0660
  155SAPE  C31017286   5.275   2.090   7.853  0.2915 -0.6650  0.2532
  155SAPE  H10X17287   5.273   1.988   7.898  0.9712 -0.2590  1.2431
  155SAPE  H10Y17288   5.175   2.130   7.825 -0.2936 -1.5649  0.9457
  155SAPE  C31117289   5.340   2.188   7.954 -0.1346  0.0990  0.3375
  155SAPE  H11X17290   5.353   2.285   7.904 -2.0212  0.9305  1.3664
  155SAPE  H11Y17291   5.437   2.146   7.989  0.6310  0.7966 -0.8904
  155SAPE  C31217292   5.234   2.200   8.070 -0.1949  0.2066  0.1872
  155SAPE  H12X17293   5.232   2.105   8.129  1.0073  0.0328 -0.0160
  155SAPE  H12Y17294   5.140   2.212   8.012  0.5590 -1.4718 -1.5096
  155SAPE  C31317295   5.262   2.324   8.154  0.7146  0.9045  0.0344
  155SAPE  H13X17296   5.287   2.404   8.081 -1.4099  0.8727 -0.7991
  155SAPE  H13Y17297   5.344   2.303   8.226 -0.1818 -1.3869  0.4985
  155SAPE  C31417298   5.143   2.365   8.239  0.0567 -0.5894  0.1950
  155SAPE  H14X17299   5.110   2.288   8.313  2.9112 -1.7274  0.4198
  155SAPE  H14Y17300   5.057   2.382   8.171 -2.2761  0.6166  3.2465
  155SAPE  C31517301   5.157   2.504   8.309  0.1753 -0.1912 -0.3140
  155SAPE  H15X17302   5.062   2.549   8.345  0.0335  1.7078 -2.8001
  155SAPE  H15Y17303   5.194   2.586   8.245 -1.9390  0.1659 -1.1533
  155SAPE  C31617304   5.254   2.485   8.425 -0.1699 -0.0217  0.3059
  155SAPE  H16X17305   5.357   2.466   8.390  0.2187  1.8616  0.3357
  155SAPE  H16Y17306   5.213   2.393   8.472  0.0404 -1.2071 -1.7071
  155SAPE  C31717307   5.264   2.599   8.524 -0.1411  0.3123  0.4337
  155SAPE  H17X17308   5.312   2.560   8.616  0.1997 -1.1675 -0.3345
  155SAPE  H17Y17309   5.165   2.631   8.562  0.2965  0.8863  1.1143
  155SAPE  C31817310   5.327   2.726   8.453  0.1696  0.5128 -0.1754
  155SAPE  H18X17311   5.262   2.758   8.369  0.1847 -1.5796 -1.0699
  155SAPE  H18Y17312   5.424   2.687   8.414  0.7069  2.9241 -1.4666
  155SAPE  H18Z17313   5.342   2.802   8.532  1.8273 -3.2927  3.6108
  156SAPE     N17314   4.209   2.482   6.073  0.1542 -0.3966 -0.4814
  156SAPE   HN117315   4.147   2.453   5.995  1.7619 -3.2225 -0.8475
  156SAPE   HN217316   4.160   2.552   6.133  0.1900 -0.1916 -0.6874
  156SAPE   HN317317   4.284   2.538   6.028  0.7016 -1.7246 -1.2757
  156SAPE   C1217318   4.264   2.372   6.150 -0.8260 -0.3860 -0.0810
  156SAPE  H12A17319   4.322   2.303   6.085 -0.3225 -1.2037  1.1969
  156SAPE  H12B17320   4.177   2.313   6.186 -1.3558  0.0311 -0.6449
  156SAPE   C1117321   4.353   2.430   6.262  0.2514  0.8258  0.0733
  156SAPE  H11A17322   4.423   2.490   6.200  0.5932 -1.3914 -1.7789
  156SAPE  H11B17323   4.410   2.354   6.319 -0.2384  0.9886  0.7989
  156SAPE     P17324   4.347   2.571   6.472 -0.1891 -0.0068 -0.2680
  156SAPE   O1317325   4.478   2.633   6.425 -0.2530  0.0651 -0.2020
  156SAPE   O1417326   4.260   2.658   6.555 -0.0781  0.3017 -0.1604
  156SAPE   O1217327   4.278   2.511   6.349  0.5881  0.4220  0.2964
  156SAPE   O1117328   4.387   2.444   6.563 -0.0326 -0.3220 -0.2739
  156SAPE    C117329   4.290   2.354   6.599 -0.1982  0.3357  0.4985
  156SAPE    HA17330   4.194   2.396   6.638  0.3791  1.7898  0.4065
  156SAPE    HB17331   4.266   2.293   6.509 -1.5190 -0.4492  1.3451
  156SAPE    C217332   4.348   2.268   6.713 -0.1475  0.5144  0.0039
  156SAPE    HS17333   4.273   2.187   6.730  0.2240  0.1389 -0.1325
  156SAPE   O2117334   4.367   2.361   6.826  0.1910  0.2098  0.4563
  156SAPE   C2117335   4.271   2.367   6.917  0.6593  0.0519  0.1898
  156SAPE   O2217336   4.169   2.299   6.920 -0.4098 -0.3308 -0.1054
  156SAPE   C2217337   4.306   2.461   7.034 -0.3667  0.0435  0.7051
  156SAPE   H2R17338   4.406   2.502   7.009  1.0118 -3.5400 -0.1817
  156SAPE   H2S17339   4.237   2.548   7.042 -0.9880 -0.4802  1.2830
  156SAPE    C317340   4.488   2.210   6.675  0.8001  0.3542  0.1948
  156SAPE    HX17341   4.558   2.289   6.641 -0.0512  0.5814 -1.1106
  156SAPE    HY17342   4.471   2.145   6.586  0.3250  0.7932 -0.0366
  156SAPE   O3117343   4.537   2.124   6.780  0.1663  0.2461 -0.7276
  156SAPE   C3117344   4.614   2.179   6.876  0.6131  0.3401  0.1194
  156SAPE   O3217345   4.643   2.292   6.883 -0.6573 -0.5352 -0.2043
  156SAPE   C3217346   4.644   2.071   6.975  0.6156  0.5003  0.2177
  156SAPE   H2X17347   4.674   1.978   6.922  0.8234 -0.4025  1.8857
  156SAPE   H2Y17348   4.550   2.051   7.030  0.1430 -1.5821 -1.2087
  156SAPE   C2317349   4.332   2.390   7.175  0.3513  0.0571 -0.1604
  156SAPE   H3R17350   4.355   2.286   7.143 -0.6199 -0.6602  1.3265
  156SAPE   H3S17351   4.227   2.385   7.211  0.7869 -0.8345  1.0684
  156SAPE   C2417352   4.444   2.452   7.253 -0.0718  0.0497 -0.2186
  156SAPE   H4R17353   4.537   2.438   7.194  0.0807  4.3173 -1.2994
  156SAPE   H4S17354   4.458   2.398   7.349  1.9953 -0.6173 -0.8384
  156SAPE   C2517355   4.414   2.599   7.273 -0.1622 -0.3517 -0.2565
  156SAPE   H5R17356   4.411   2.661   7.182  0.2290  1.5676  0.9636
  156SAPE   C2617357   4.406   2.655   7.395 -0.0202 -0.1020  0.3933
  156SAPE   H6R17358   4.379   2.761   7.402  0.7556  0.1073  0.3175
  156SAPE   C2717359   4.423   2.592   7.530  0.0330  0.2917  0.0374
  156SAPE   H7R17360   4.472   2.669   7.593  1.1527  0.5636 -1.1304
  156SAPE   H7S17361   4.489   2.503   7.520  0.2443  0.3245  1.0015
  156SAPE   C2817362   4.291   2.549   7.592  0.2714 -0.1504 -0.4810
  156SAPE   H8R17363   4.209   2.523   7.523 -0.6807 -1.2110  0.9602
  156SAPE   C2917364   4.268   2.533   7.725 -0.2498 -0.1762 -0.1519
  156SAPE   H9R17365   4.173   2.494   7.765  0.0024  0.4274  1.0901
  156SAPE  C21017366   4.363   2.549   7.842  0.5274 -0.4867  0.1061
  156SAPE  H10R17367   4.468   2.537   7.810  0.7494 -0.9983  0.9829
  156SAPE  H10S17368   4.345   2.461   7.907  1.7216 -1.1883 -0.4901
  156SAPE  C21117369   4.330   2.684   7.906 -0.1089  0.3502 -0.5495
  156SAPE  H11R17370   4.381   2.774   7.871 -0.1578 -0.1807 -2.0549
  156SAPE  C21217371   4.263   2.698   8.021 -0.1608  0.6593 -0.9436
  156SAPE  H12R17372   4.244   2.795   8.069 -0.0614 -0.1918  0.9133
  156SAPE  C21317373   4.207   2.589   8.109  1.0132 -1.0419  0.6394
  156SAPE  H13R17374   4.190   2.493   8.056 -0.3063 -0.3357 -0.2527
  156SAPE  H13S17375   4.101   2.618   8.124  1.1053  0.2989 -1.0401
  156SAPE  C21417376   4.291   2.577   8.229 -0.0655 -0.4761 -0.2816
  156SAPE  H14R17377   4.377   2.510   8.217  0.0552 -0.4410  0.3869
  156SAPE  C21517378   4.265   2.624   8.353 -0.1301  0.1106  0.9791
  156SAPE  H15R17379   4.334   2.612   8.438  0.3589  2.1545  0.9250
  156SAPE  C21617380   4.141   2.697   8.398 -0.2793  0.7845  0.4684
  156SAPE  H16R17381   4.078   2.724   8.310 -1.3464 -0.7860  0.7084
  156SAPE  H16S17382   4.178   2.793   8.440  1.9097  0.7801 -1.2457
  156SAPE  C21717383   4.054   2.619   8.497  0.1096 -0.4553 -0.8482
  156SAPE  H17R17384   4.004   2.529   8.454  1.2648 -1.4001 -0.2757
  156SAPE  H17S17385   3.974   2.693   8.517 -1.3710 -2.0034 -0.7895
  156SAPE  C21817386   4.124   2.554   8.628 -0.3913 -0.1811 -0.6948
  156SAPE  H18R17387   4.203   2.482   8.596 -1.3294 -1.5515 -0.0011
  156SAPE  H18S17388   4.037   2.503   8.674  0.9957 -0.0736  2.2894
  156SAPE  C21917389   4.189   2.655   8.729  0.7118 -0.0789  0.7803
  156SAPE  H19R17390   4.279   2.697   8.679 -0.3799  0.0708 -1.1689
  156SAPE  H19S17391   4.230   2.588   8.807  2.6058 -0.4521 -0.4625
  156SAPE  C22017392   4.096   2.763   8.790 -0.1878  0.7818 -0.1491
  156SAPE  H20R17393   4.150   2.852   8.830 -1.1348  2.3968 -2.2630
  156SAPE  H20S17394   4.006   2.734   8.848 -0.6395  3.8024  0.8283
  156SAPE  H20T17395   4.047   2.810   8.702  0.1030  1.3342 -0.0177
  156SAPE   C3317396   4.756   2.112   7.071 -0.8324 -0.6750 -0.8401
  156SAPE   H3X17397   4.762   2.219   7.101  2.2567 -1.0767  0.2634
  156SAPE   H3Y17398   4.851   2.078   7.025 -1.2338 -1.5555 -1.0393
  156SAPE   C3417399   4.754   2.040   7.211  0.5773  0.1878 -0.3175
  156SAPE   H4X17400   4.846   2.072   7.264 -0.0328  0.8677  0.3716
  156SAPE   H4Y17401   4.744   1.930   7.199 -1.1614  0.2180  0.5211
  156SAPE   C3517402   4.642   2.091   7.311 -0.2506 -0.4087 -0.1713
  156SAPE   H5X17403   4.539   2.060   7.281 -1.4345  0.9958  2.1697
  156SAPE   H5Y17404   4.645   2.202   7.309  1.6235 -0.4124 -3.0828
  156SAPE   C3617405   4.667   2.033   7.450 -0.0017 -0.1024  0.0337
  156SAPE   H6X17406   4.772   2.059   7.473  0.3201 -0.0539 -1.4151
  156SAPE   H6Y17407   4.661   1.922   7.441 -1.8410 -0.0731  0.4729
  156SAPE   C3717408   4.566   2.086   7.541  0.1469  0.0388 -0.5459
  156SAPE   H7X17409   4.462   2.051   7.525 -0.0504 -0.7486  2.0258
  156SAPE   H7Y17410   4.548   2.195   7.526 -2.8019 -0.2429  0.3561
  156SAPE   C3817411   4.609   2.065   7.678  0.5002 -0.4349 -0.7431
  156SAPE   H8X17412   4.712   2.106   7.688 -0.3621  1.3943  1.3333
  156SAPE   H8Y17413   4.616   1.954   7.681  0.1421 -0.6485 -3.8611
  156SAPE   C3917414   4.509   2.123   7.788 -1.0691  0.0176  0.3373
  156SAPE   H9X17415   4.416   2.064   7.779 -0.0552 -1.5022 -0.7262
  156SAPE   H9Y17416   4.488   2.230   7.769 -0.0608  0.2748  0.6120
  156SAPE  C31017417   4.558   2.128   7.934  0.0222  0.5217 -0.4342
  156SAPE  H10X17418   4.637   2.205   7.950 -0.2748  0.3741  2.3362
  156SAPE  H10Y17419   4.608   2.033   7.964  1.6007  1.2849 -0.5002
  156SAPE  C31117420   4.441   2.148   8.035 -0.6682  0.1332  0.1163
  156SAPE  H11X17421   4.356   2.082   8.007 -0.1640 -0.4172 -0.1371
  156SAPE  H11Y17422   4.421   2.257   8.029  1.7697  0.6410  0.4402
  156SAPE  C31217423   4.497   2.129   8.179 -0.6666  0.0140 -0.8670
  156SAPE  H12X17424   4.559   2.218   8.205  1.2602 -1.7229  0.7786
  156SAPE  H12Y17425   4.558   2.037   8.182  1.3456  1.3146  0.4996
  156SAPE  C31317426   4.382   2.104   8.276  0.3725 -0.3049  0.0768
  156SAPE  H13X17427   4.331   2.010   8.246 -1.7749  0.2463  1.6974
  156SAPE  H13Y17428   4.312   2.188   8.254  1.1449  0.0274 -1.2017
  156SAPE  C31417429   4.417   2.104   8.428  1.0957  0.0574  0.3977
  156SAPE  H14X17430   4.323   2.091   8.486  2.0106 -1.6207  1.6221
  156SAPE  H14Y17431   4.463   2.198   8.464  0.0097  0.0078  2.0329
  156SAPE  C31517432   4.494   1.989   8.473  0.1257  0.1340  0.3371
  156SAPE  H15X17433   4.593   1.994   8.422  0.0356 -1.1716 -0.0152
  156SAPE  H15Y17434   4.448   1.892   8.444 -4.4175  1.8987  0.8428
  156SAPE  C31617435   4.526   1.975   8.621 -0.5724  0.1959  0.4624
  156SAPE  H16X17436   4.596   1.889   8.636 -0.5864 -0.5473 -2.8182
  156SAPE  H16Y17437   4.432   1.952   8.675  0.7048  0.2939  2.8670
  156SAPE  C31717438   4.583   2.104   8.680  0.1913  0.3297 -0.2848
  156SAPE  H17X17439   4.495   2.172   8.680 -0.3778 -0.3897 -0.0901
  156SAPE  H17Y17440   4.661   2.139   8.610  0.0499  1.6783  0.2144
  156SAPE  C31817441   4.644   2.097   8.821  0.0603  0.3905 -0.4442
  156SAPE  H18X17442   4.735   2.034   8.831  0.3083  0.9438  1.0119
  156SAPE  H18Y17443   4.565   2.054   8.887 -0.2696  1.5189 -0.0852
  156SAPE  H18Z17444   4.661   2.200   8.858 -2.4500  0.6972  0.0723
  157SAPE     N17445   0.735   1.941   6.096 -0.2965  0.0348  0.1653
  157SAPE   HN117446   0.734   2.006   6.015  0.0828 -0.9802 -0.6654
  157SAPE   HN217447   0.704   1.997   6.178 -0.7925 -1.1932  0.8385
  157SAPE   HN317448   0.836   1.921   6.109 -0.2566  0.3884  0.4331
  157SAPE   C1217449   0.651   1.830   6.072  0.3425 -0.3017 -0.1339
  157SAPE  H12A17450   0.712   1.753   6.020  2.0006  1.4541 -0.9235
  157SAPE  H12B17451   0.570   1.871   6.007 -0.3939  1.7065  1.9402
  157SAPE   C1117452   0.602   1.779   6.206 -0.0865 -0.7744 -0.5805
  157SAPE  H11A17453   0.670   1.736   6.282 -2.7993 -0.4472  2.1991
  157SAPE  H11B17454   0.546   1.692   6.165 -2.1241  0.1540  0.1251
  157SAPE     P17455   0.545   1.972   6.382 -0.5975  0.1995 -0.5567
  157SAPE   O1317456   0.670   2.047   6.340  0.2496  0.5838  0.1810
  157SAPE   O1417457   0.421   2.053   6.398  0.1523 -0.0039 -0.0184
  157SAPE   O1217458   0.513   1.871   6.264 -0.4941 -0.3647  0.3914
  157SAPE   O1117459   0.570   1.879   6.504  0.5308  0.0070  0.0931
  157SAPE    C117460   0.456   1.810   6.561 -0.1670  0.1115  0.2828
  157SAPE    HA17461   0.389   1.892   6.595  1.6111  1.3168  1.0832
  157SAPE    HB17462   0.405   1.748   6.484  0.1503  0.6331 -0.3618
  157SAPE    C217463   0.506   1.714   6.675  0.2964 -0.7844  0.5372
  157SAPE    HS17464   0.410   1.677   6.718 -1.2190  1.9091 -0.2624
  157SAPE   O2117465   0.582   1.790   6.768 -0.3520  0.1519 -0.5717
  157SAPE   C2117466   0.602   1.736   6.884 -0.6620  0.2404  0.1418
  157SAPE   O2217467   0.537   1.641   6.930  0.1534 -0.2048  0.2815
  157SAPE   C2217468   0.698   1.814   6.967  0.3307 -0.4202 -0.4300
  157SAPE   H2R17469   0.728   1.902   6.908 -1.1749 -1.0850 -2.2939
  157SAPE   H2S17470   0.631   1.848   7.050 -0.6662 -1.6688 -0.6822
  157SAPE    C317471   0.596   1.606   6.605  0.0169  0.0844  0.2259
  157SAPE    HX17472   0.694   1.657   6.596 -0.0241  0.0367 -0.5828
  157SAPE    HY17473   0.561   1.601   6.500 -0.1607 -1.5633  0.3288
  157SAPE   O3117474   0.607   1.475   6.668  0.1547  0.1597 -0.5841
  157SAPE   C3117475   0.722   1.444   6.722  1.0128  0.3052 -0.0330
  157SAPE   O3217476   0.825   1.504   6.698  0.4672  0.0489  0.0684
  157SAPE   C3217477   0.706   1.321   6.813  0.0297  0.2834 -0.4569
  157SAPE   H2X17478   0.702   1.231   6.748  1.9380 -0.1491 -0.0370
  157SAPE   H2Y17479   0.612   1.339   6.869 -0.4640  0.1166 -1.2221
  157SAPE   C2317480   0.813   1.739   7.031  0.1562  0.4692 -0.5628
  157SAPE   H3R17481   0.896   1.732   6.958  0.4254 -0.5407 -0.1645
  157SAPE   H3S17482   0.786   1.637   7.064  0.3690  0.4235 -0.5316
  157SAPE   C2417483   0.855   1.819   7.166  0.0535  0.2045  0.6126
  157SAPE   H4R17484   0.761   1.816   7.227 -0.3730 -0.1864 -0.0553
  157SAPE   H4S17485   0.855   1.927   7.143 -2.8326 -0.0902 -1.3455
  157SAPE   C2517486   0.965   1.745   7.236  0.1777 -0.2815  0.1913
  157SAPE   H5R17487   1.016   1.661   7.187  2.2071  1.2047 -0.4068
  157SAPE   C2617488   0.997   1.776   7.361  0.3107  0.5940 -0.2237
  157SAPE   H6R17489   1.078   1.715   7.403 -1.1062 -0.8633  0.5112
  157SAPE   C2717490   0.926   1.885   7.436  0.0855  0.4109  0.0410
  157SAPE   H7R17491   0.889   1.843   7.532 -1.0136  1.4493  0.0867
  157SAPE   H7S17492   0.841   1.932   7.382  1.7911  2.7239 -0.7605
  157SAPE   C2817493   1.033   1.985   7.455 -0.5191 -0.0467 -0.8058
  157SAPE   H8R17494   1.036   2.059   7.374  0.5709 -0.8077 -1.4987
  157SAPE   C2917495   1.115   2.002   7.562  0.8332  0.2471 -0.0663
  157SAPE   H9R17496   1.181   2.089   7.556  1.0638  0.0147 -1.0213
  157SAPE  C21017497   1.121   1.909   7.679  0.7963 -0.2705  0.8131
  157SAPE  H10R17498   1.093   1.805   7.650 -0.7227  0.3324  0.0102
  157SAPE  H10S17499   1.033   1.932   7.744  1.1853  0.7447  0.9834
  157SAPE  C21117500   1.246   1.894   7.754  0.1650  0.2760  0.3423
  157SAPE  H11R17501   1.333   1.865   7.693 -0.0607 -1.6720  0.8782
  157SAPE  C21217502   1.269   1.919   7.885  0.3423 -0.3589 -0.0077
  157SAPE  H12R17503   1.363   1.882   7.927  0.7055 -0.8449 -1.2170
  157SAPE  C21317504   1.174   1.958   7.999 -0.0090  0.2023  0.6114
  157SAPE  H13R17505   1.176   1.870   8.068 -3.6282 -0.8111 -0.3474
  157SAPE  H13S17506   1.072   1.959   7.956  0.4077 -0.6305 -0.4571
  157SAPE  C21417507   1.207   2.084   8.075 -0.3676 -0.0987  0.4936
  157SAPE  H14R17508   1.251   2.155   8.004  0.0161  0.0525  0.8845
  157SAPE  C21517509   1.188   2.112   8.207  0.1376 -0.3455  0.1205
  157SAPE  H15R17510   1.224   2.206   8.250  0.0178  0.4620 -1.4478
  157SAPE  C21617511   1.116   2.024   8.296 -0.0224 -0.0670  0.4750
  157SAPE  H16R17512   1.116   1.916   8.272  2.1726 -0.1094  0.4737
  157SAPE  H16S17513   1.008   2.050   8.306 -0.2454 -0.7969 -0.0390
  157SAPE  C21717514   1.169   2.032   8.441  0.2387 -0.9886 -0.0315
  157SAPE  H17R17515   1.094   1.985   8.507  0.8593 -0.3308  1.1674
  157SAPE  H17S17516   1.179   2.133   8.485  2.1243 -0.8090 -0.7554
  157SAPE  C21817517   1.295   1.952   8.473  0.0863  0.6866 -0.2301
  157SAPE  H18R17518   1.358   1.977   8.385 -0.6946 -1.0400 -1.3454
  157SAPE  H18S17519   1.273   1.844   8.458 -2.5792  0.9715  0.9988
  157SAPE  C21917520   1.359   1.995   8.603  0.2511  0.1830  0.9912
  157SAPE  H19R17521   1.349   2.104   8.621  0.3105 -0.0206  2.3120
  157SAPE  H19S17522   1.469   1.986   8.587 -0.2512 -0.7551 -3.0144
  157SAPE  C22017523   1.309   1.918   8.730  1.2009 -0.1480 -0.2600
  157SAPE  H20R17524   1.375   1.948   8.814  1.2605  2.2906 -1.1041
  157SAPE  H20S17525   1.301   1.808   8.719  1.0825 -0.0991 -0.6758
  157SAPE  H20T17526   1.209   1.959   8.755  0.2149 -1.3341 -2.0452
  157SAPE   C3317527   0.812   1.310   6.923  0.6225  0.4181 -0.2108
  157SAPE   H3X17528   0.805   1.377   7.011 -5.2437 -2.5761  2.1521
  157SAPE   H3Y17529   0.916   1.314   6.884  0.6996  0.9323  0.0431
  157SAPE   C3417530   0.804   1.168   6.986 -0.4994 -0.0938 -0.9556
  157SAPE   H4X17531   0.841   1.088   6.918 -0.9077 -2.2200  1.2047
  157SAPE   H4Y17532   0.696   1.144   6.997 -0.9554  1.6307 -1.3054
  157SAPE   C3517533   0.870   1.174   7.127  0.1807  0.4614  0.2688
  157SAPE   H5X17534   0.967   1.228   7.128  0.3631  0.1324  0.5239
  157SAPE   H5Y17535   0.897   1.068   7.147  0.8175  0.8845  1.8378
  157SAPE   C3617536   0.772   1.212   7.243  0.9421  0.1221  0.1495
  157SAPE   H6X17537   0.681   1.149   7.234  0.2151  1.3377 -1.5216
  157SAPE   H6Y17538   0.745   1.317   7.221  1.4387  0.0676 -0.7546
  157SAPE   C3717539   0.835   1.194   7.382 -0.9887  0.2006 -0.9511
  157SAPE   H7X17540   0.853   1.091   7.418 -1.1660  0.4261 -0.1977
  157SAPE   H7Y17541   0.767   1.246   7.453 -0.0968  1.1747 -0.7715
  157SAPE   C3817542   0.969   1.272   7.378 -1.0529  0.0541 -0.0279
  157SAPE   H8X17543   0.967   1.373   7.331  1.0169  1.3902  2.4996
  157SAPE   H8Y17544   1.044   1.220   7.315 -0.3350 -1.5802  2.0596
  157SAPE   C3917545   1.012   1.302   7.517  0.2077 -0.1224 -0.2761
  157SAPE   H9X17546   0.997   1.205   7.568  2.4112 -1.2919 -1.7108
  157SAPE   H9Y17547   0.951   1.382   7.565  2.3537  2.2446 -1.2473
  157SAPE  C31017548   1.156   1.363   7.540  0.5362 -0.1231 -0.4851
  157SAPE  H10X17549   1.180   1.460   7.490 -1.4912  1.4817  1.4415
  157SAPE  H10Y17550   1.232   1.291   7.504  2.3932  0.5253  1.9239
  157SAPE  C31117551   1.181   1.392   7.688  0.3878 -0.4551 -0.2080
  157SAPE  H11X17552   1.290   1.404   7.709  0.0053 -0.5973  2.1058
  157SAPE  H11Y17553   1.151   1.302   7.746 -0.2009 -0.1275  0.0001
  157SAPE  C31217554   1.116   1.500   7.761  0.3226 -0.2567 -0.2803
  157SAPE  H12X17555   1.006   1.487   7.756  0.3774 -0.6386 -0.4914
  157SAPE  H12Y17556   1.124   1.595   7.703  0.7741 -0.4476 -0.5344
  157SAPE  C31317557   1.163   1.514   7.905  0.2617  0.0704  0.2702
  157SAPE  H13X17558   1.264   1.560   7.910  0.1675  0.3331 -0.2659
  157SAPE  H13Y17559   1.176   1.409   7.940  0.4908 -0.0049 -0.0351
  157SAPE  C31417560   1.073   1.594   8.006 -0.2086 -0.1624 -0.6733
  157SAPE  H14X17561   0.977   1.541   8.023 -0.1686 -0.8793 -2.4737
  157SAPE  H14Y17562   1.032   1.691   7.970  0.7360  0.1845 -0.8434
  157SAPE  C31517563   1.141   1.598   8.150  0.7410  0.1556  0.1696
  157SAPE  H15X17564   1.227   1.667   8.163 -0.5963  1.5657  2.0795
  157SAPE  H15Y17565   1.175   1.493   8.163 -2.9581 -1.2804 -0.4337
  157SAPE  C31617566   1.038   1.629   8.268  0.8035 -0.5938  0.5524
  157SAPE  H16X17567   0.952   1.562   8.246  1.0806 -0.3569 -1.4641
  157SAPE  H16Y17568   1.011   1.736   8.252  1.9866 -0.6603 -2.5117
  157SAPE  C31717569   1.105   1.609   8.403 -0.0863 -0.2101  0.8588
  157SAPE  H17X17570   1.203   1.661   8.407 -1.8158  3.2886  2.6966
  157SAPE  H17Y17571   1.134   1.502   8.413 -1.1429 -0.3843  2.5401
  157SAPE  C31817572   1.014   1.659   8.513 -0.6827 -0.1562 -0.2125
  157SAPE  H18X17573   1.072   1.674   8.607 -0.8189 -2.0021  0.2022
  157SAPE  H18Y17574   0.931   1.589   8.536 -1.3848  0.2777 -1.3872
  157SAPE  H18Z17575   0.981   1.762   8.489  3.0838  1.8829  2.3166
  158SAPE     N17576   3.722   1.640   6.049  0.1967  0.3084 -0.2896
  158SAPE   HN117577   3.652   1.595   5.986  0.9536 -0.9870 -0.2387
  158SAPE   HN217578   3.723   1.744   6.049 -0.7980  0.3311  0.3030
  158SAPE   HN317579   3.819   1.605   6.037  0.2119 -0.0872  0.8769
  158SAPE   C1217580   3.700   1.594   6.192  0.4048  0.0303  0.9899
  158SAPE  H12A17581   3.725   1.486   6.193  0.4779 -0.1617 -3.5050
  158SAPE  H12B17582   3.592   1.606   6.214  0.0229  0.5843 -0.9934
  158SAPE   C1117583   3.790   1.672   6.283  0.0931  0.1189 -0.2619
  158SAPE  H11A17584   3.889   1.695   6.237  0.1135  1.3303  0.3485
  158SAPE  H11B17585   3.807   1.611   6.374  0.7328  1.4287  0.5231
  158SAPE     P17586   3.725   1.933   6.263  0.3156 -0.4333  0.0502
  158SAPE   O1317587   3.731   1.899   6.123 -0.0494 -0.3301  0.3979
  158SAPE   O1417588   3.604   2.005   6.316  0.0513 -0.2265  0.1022
  158SAPE   O1217589   3.732   1.788   6.339 -0.5714  0.1003 -0.4597
  158SAPE   O1117590   3.856   2.003   6.298 -0.0692  0.5224 -0.3335
  158SAPE    C117591   3.967   1.951   6.376 -0.1564 -0.3353  0.0302
  158SAPE    HA17592   3.973   1.840   6.377  0.3042 -0.3104  0.4833
  158SAPE    HB17593   4.065   1.985   6.336  0.8087 -1.9609  0.9098
  158SAPE    C217594   3.962   1.995   6.526  0.6867  0.2075 -0.0665
  158SAPE    HS17595   4.060   1.987   6.578  1.7597  1.9761 -1.7023
  158SAPE   O2117596   3.860   1.922   6.598 -0.3701 -0.1198 -0.6014
  158SAPE   C2117597   3.891   1.802   6.633 -0.2719  0.4375 -0.4325
  158SAPE   O2217598   3.995   1.744   6.607 -0.4578 -0.1448  0.2901
  158SAPE   C2217599   3.762   1.738   6.696 -0.1372 -0.5831  0.0108
  158SAPE   H2R17600   3.743   1.787   6.795 -0.1167 -2.1615  0.8265
  158SAPE   H2S17601   3.683   1.742   6.618 -1.5041 -2.8461  1.1796
  158SAPE    C317602   3.916   2.142   6.530 -0.5060  0.5202 -0.3700
  158SAPE    HX17603   3.816   2.149   6.482 -0.6965  5.0868  0.2318
  158SAPE    HY17604   3.985   2.207   6.472  1.5600  0.2502  1.6756
  158SAPE   O3117605   3.922   2.189   6.668  0.3854 -0.3248  0.8470
  158SAPE   C3117606   3.804   2.196   6.726  0.1945 -0.3700  0.3570
  158SAPE   O3217607   3.697   2.187   6.678  0.0437  0.5855  0.7480
  158SAPE   C3217608   3.834   2.220   6.873  0.1398 -0.3925  0.1358
  158SAPE   H2X17609   3.746   2.281   6.905  1.2164  1.4314 -0.2627
  158SAPE   H2Y17610   3.923   2.285   6.880 -0.2143  0.1354 -0.1812
  158SAPE   C2317611   3.765   1.588   6.730 -0.0966 -0.2078  0.2231
  158SAPE   H3R17612   3.836   1.531   6.667  2.4605  0.7738  2.0200
  158SAPE   H3S17613   3.663   1.548   6.711  0.4509 -0.9001 -1.3994
  158SAPE   C2417614   3.796   1.561   6.875 -0.0592 -0.0618  0.2448
  158SAPE   H4R17615   3.769   1.463   6.922 -1.6323  0.2384  0.0399
  158SAPE   H4S17616   3.746   1.640   6.935  1.2417  1.7412 -0.9414
  158SAPE   C2517617   3.939   1.590   6.916 -0.1366 -0.1243 -0.1881
  158SAPE   H5R17618   4.021   1.601   6.844  0.6265  0.0214  0.6856
  158SAPE   C2617619   3.988   1.606   7.042  0.0271  0.6057 -0.1269
  158SAPE   H6R17620   4.092   1.642   7.040 -0.1322  1.0851 -2.8907
  158SAPE   C2717621   3.919   1.583   7.177  0.3038  0.3027 -0.2243
  158SAPE   H7R17622   3.959   1.503   7.242 -2.0351 -0.6406  0.1564
  158SAPE   H7S17623   3.813   1.561   7.152  0.1656 -0.4774  0.9713
  158SAPE   C2817624   3.916   1.712   7.247 -0.2908 -0.7222 -1.0973
  158SAPE   H8R17625   3.882   1.798   7.187  0.8708  0.4190 -0.1912
  158SAPE   C2917626   3.944   1.731   7.384 -0.5592  0.6708  0.2817
  158SAPE   H9R17627   3.922   1.828   7.431 -4.5412 -1.4671  3.3785
  158SAPE  C21017628   3.988   1.618   7.482 -0.0804 -0.8883 -0.6726
  158SAPE  H10R17629   4.048   1.657   7.567  1.5245 -1.6486 -1.4281
  158SAPE  H10S17630   4.055   1.543   7.435  0.1986 -0.0673 -1.6314
  158SAPE  C21117631   3.866   1.542   7.542  0.2945  0.3335  0.4437
  158SAPE  H11R17632   3.811   1.485   7.466  0.6170 -2.1782  1.9870
  158SAPE  C21217633   3.834   1.548   7.676  0.8356  0.2473  0.6918
  158SAPE  H12R17634   3.754   1.480   7.709  0.3974 -0.9088 -2.3949
  158SAPE  C21317635   3.896   1.631   7.786  0.0276 -0.5254 -0.4599
  158SAPE  H13R17636   4.005   1.615   7.770  0.1679 -0.0041 -0.0654
  158SAPE  H13S17637   3.876   1.588   7.886  0.3932 -0.4687 -0.3620
  158SAPE  C21417638   3.865   1.774   7.773  0.1102  0.2707 -0.1299
  158SAPE  H14R17639   3.833   1.813   7.676 -0.9829 -0.3071 -0.0116
  158SAPE  C21517640   3.839   1.848   7.879 -0.1946 -0.0574 -0.3288
  158SAPE  H15R17641   3.815   1.955   7.864  0.6815  0.5497  2.1211
  158SAPE  C21617642   3.860   1.805   8.020  0.1736  0.0263  0.5989
  158SAPE  H16R17643   3.893   1.894   8.077  0.4504  0.1709  0.2139
  158SAPE  H16S17644   3.944   1.733   8.028 -1.9209 -2.7503 -0.4381
  158SAPE  C21717645   3.733   1.757   8.083  0.4634 -0.1879  0.2828
  158SAPE  H17R17646   3.696   1.659   8.046 -0.1937  0.2696 -0.2955
  158SAPE  H17S17647   3.649   1.826   8.062  0.6646  0.1564  0.5982
  158SAPE  C21817648   3.737   1.741   8.237 -0.3405 -0.0145  0.1963
  158SAPE  H18R17649   3.763   1.842   8.273  0.3159 -0.7198  1.7891
  158SAPE  H18S17650   3.826   1.682   8.267  0.4004 -0.0648 -1.9395
  158SAPE  C21917651   3.612   1.680   8.297  0.7009 -0.3395 -0.7829
  158SAPE  H19R17652   3.639   1.576   8.267 -1.6383 -1.8685  1.9458
  158SAPE  H19S17653   3.517   1.701   8.244 -0.2101 -1.6750  0.2745
  158SAPE  C22017654   3.593   1.677   8.448  0.2453 -0.3577  0.5384
  158SAPE  H20R17655   3.692   1.686   8.498  0.3950 -0.4734  0.2636
  158SAPE  H20S17656   3.552   1.578   8.478 -2.2704  0.5592  0.3325
  158SAPE  H20T17657   3.537   1.761   8.494 -1.1183 -0.6212 -0.5678
  158SAPE   C3317658   3.854   2.085   6.942  0.3651 -0.1702 -0.1113
  158SAPE   H3X17659   3.888   2.111   7.045 -0.5328 -0.5628  0.2853
  158SAPE   H3Y17660   3.925   2.013   6.896  0.4551 -0.7504  0.9082
  158SAPE   C3417661   3.723   2.010   6.972  0.1870 -0.0601 -0.2829
  158SAPE   H4X17662   3.755   1.913   7.016  0.5099 -0.5344 -1.5298
  158SAPE   H4Y17663   3.688   1.985   6.870  0.3452 -1.0211 -0.1150
  158SAPE   C3517664   3.628   2.091   7.066 -0.5663  0.3265 -0.7740
  158SAPE   H5X17665   3.536   2.030   7.073  0.8686 -1.7396  2.2754
  158SAPE   H5Y17666   3.600   2.188   7.019  1.7716  0.1492 -2.7382
  158SAPE   C3617667   3.684   2.117   7.213  0.4597  0.7161  1.3019
  158SAPE   H6X17668   3.763   2.194   7.203 -0.1514  1.0492 -2.3961
  158SAPE   H6Y17669   3.726   2.018   7.239 -0.2862 -0.4420 -1.4839
  158SAPE   C3717670   3.575   2.150   7.326 -0.0882  0.0944 -0.7907
  158SAPE   H7X17671   3.554   2.258   7.313 -0.3172  0.1106 -0.2950
  158SAPE   H7Y17672   3.485   2.089   7.301 -0.7081  1.2994 -1.5966
  158SAPE   C3817673   3.620   2.126   7.465  0.4781  0.5126  0.2388
  158SAPE   H8X17674   3.707   2.189   7.495  2.0183 -2.2301  2.0047
  158SAPE   H8Y17675   3.652   2.020   7.464 -0.8077  0.0905  1.1631
  158SAPE   C3917676   3.505   2.157   7.558  0.2868  0.2537  0.0607
  158SAPE   H9X17677   3.411   2.110   7.521  0.5938  1.0920 -1.8835
  158SAPE   H9Y17678   3.479   2.265   7.551 -1.6542 -0.0983  1.1693
  158SAPE  C31017679   3.526   2.103   7.702  0.0368  0.0196  0.4368
  158SAPE  H10X17680   3.572   2.002   7.695  1.0492  0.3189  2.0531
  158SAPE  H10Y17681   3.425   2.099   7.748 -0.4885  2.2879 -0.3871
  158SAPE  C31117682   3.606   2.197   7.791 -0.2319 -0.0001  0.0418
  158SAPE  H11X17683   3.569   2.302   7.792 -2.2662 -0.6564  1.6855
  158SAPE  H11Y17684   3.715   2.203   7.772 -0.6232  0.5987 -2.2601
  158SAPE  C31217685   3.589   2.149   7.941 -1.0884 -0.0005 -0.0877
  158SAPE  H12X17686   3.678   2.194   7.992 -2.0810  2.1313 -0.0992
  158SAPE  H12Y17687   3.581   2.039   7.937  2.1257 -0.4335  1.6923
  158SAPE  C31317688   3.484   2.221   8.026  0.9654 -0.5783 -0.2610
  158SAPE  H13X17689   3.389   2.223   7.968  0.4307 -1.1847  0.5721
  158SAPE  H13Y17690   3.517   2.324   8.049 -3.1552  0.5380  1.5778
  158SAPE  C31417691   3.443   2.149   8.161  0.3040  0.6668 -0.6366
  158SAPE  H14X17692   3.387   2.053   8.153  0.0433  0.7555  0.1241
  158SAPE  H14Y17693   3.367   2.216   8.206 -0.6966 -0.4179 -0.6419
  158SAPE  C31517694   3.570   2.139   8.252  0.1728  0.5868  0.0897
  158SAPE  H15X17695   3.619   2.238   8.253  1.5230 -0.0632 -0.0105
  158SAPE  H15Y17696   3.646   2.071   8.210 -1.9594 -2.2889  0.5659
  158SAPE  C31617697   3.546   2.103   8.398  0.2953  0.6450 -0.3840
  158SAPE  H16X17698   3.478   2.015   8.406 -0.8213  1.5598  0.4632
  158SAPE  H16Y17699   3.488   2.183   8.448 -3.0656 -1.1469 -1.1037
  158SAPE  C31717700   3.672   2.057   8.478  0.0889  0.3172 -0.2015
  158SAPE  H17X17701   3.757   2.125   8.456  1.5172 -0.9616  1.0984
  158SAPE  H17Y17702   3.691   1.953   8.443 -1.6968  0.0469 -0.4844
  158SAPE  C31817703   3.644   2.053   8.629 -0.8174 -0.2398 -0.0272
  158SAPE  H18X17704   3.608   1.952   8.658  3.3559 -1.9381 -0.0843
  158SAPE  H18Y17705   3.567   2.128   8.657 -2.0775 -2.4157  2.9650
  158SAPE  H18Z17706   3.726   2.077   8.699 -1.5715  0.3637  0.6645
  159SAPE     N17707   2.711   2.065   6.377 -0.4196 -0.3432  0.5296
  159SAPE   HN117708   2.806   2.100   6.401  0.4242 -0.8437 -1.7719
  159SAPE   HN217709   2.727   2.005   6.293  0.2161 -0.2270  0.5582
  159SAPE   HN317710   2.642   2.142   6.368 -0.1327  0.0497  1.4999
  159SAPE   C1217711   2.665   1.973   6.482  0.6476  0.2169  0.1677
  159SAPE  H12A17712   2.649   2.030   6.576 -0.3584 -0.4397  0.4125
  159SAPE  H12B17713   2.744   1.898   6.506  0.4538  0.1892  0.7222
  159SAPE   C1117714   2.543   1.890   6.436 -0.8374  0.3805 -0.1138
  159SAPE  H11A17715   2.506   1.817   6.512  0.0595  0.3519  0.3027
  159SAPE  H11B17716   2.567   1.837   6.341  0.3052  0.6645  0.0105
  159SAPE     P17717   2.314   2.015   6.502 -0.2068 -0.4251  0.1567
  159SAPE   O1317718   2.368   2.072   6.622 -0.4510  1.2609  0.3963
  159SAPE   O1417719   2.211   2.092   6.424  0.1756 -0.2357  0.0236
  159SAPE   O1217720   2.432   1.976   6.403 -0.0975  0.9638 -0.3562
  159SAPE   O1117721   2.248   1.877   6.535 -0.0532 -0.1443  0.1394
  159SAPE    C117722   2.164   1.853   6.649 -0.5603 -0.2733 -0.1665
  159SAPE    HA17723   2.122   1.953   6.676 -0.1511 -0.2450  0.3788
  159SAPE    HB17724   2.078   1.787   6.623  0.0279 -0.2221 -2.4317
  159SAPE    C217725   2.245   1.796   6.771  0.4253 -0.3628  0.1288
  159SAPE    HS17726   2.349   1.832   6.759  0.7591 -1.3670 -0.1027
  159SAPE   O2117727   2.233   1.656   6.760  0.0808 -0.6670 -0.4479
  159SAPE   C2117728   2.342   1.587   6.788  0.9865  0.0481  0.2337
  159SAPE   O2217729   2.447   1.643   6.823  0.0796  0.0966  0.3447
  159SAPE   C2217730   2.321   1.431   6.784 -0.5453 -0.1310 -0.1805
  159SAPE   H2R17731   2.299   1.410   6.678  2.2372  1.1446 -1.1257
  159SAPE   H2S17732   2.428   1.401   6.790 -0.1683  0.6109 -2.4695
  159SAPE    C317733   2.196   1.842   6.901  0.4804  0.3249 -0.2825
  159SAPE    HX17734   2.094   1.809   6.930  1.2819 -2.4139 -0.3221
  159SAPE    HY17735   2.182   1.952   6.898  1.8063  0.5333  0.1976
  159SAPE   O3117736   2.287   1.811   7.002  0.1829 -0.0246 -0.2776
  159SAPE   C3117737   2.362   1.904   7.059  0.1301 -0.4047  0.0708
  159SAPE   O3217738   2.353   2.026   7.035 -0.5084 -0.0094  0.3222
  159SAPE   C3217739   2.463   1.828   7.146 -0.2887 -0.1389  0.2366
  159SAPE   H2X17740   2.537   1.796   7.069  0.2190  1.7108 -0.0984
  159SAPE   H2Y17741   2.414   1.738   7.190 -0.8865  1.4866  3.1731
  159SAPE   C2317742   2.231   1.361   6.881  0.4164  0.0254 -0.6043
  159SAPE   H3R17743   2.185   1.274   6.828  0.3485  0.1524 -0.7534
  159SAPE   H3S17744   2.135   1.406   6.913 -0.8777 -2.4489 -0.7873
  159SAPE   C2417745   2.301   1.301   7.008  0.7012  0.5427 -0.2170
  159SAPE   H4R17746   2.367   1.220   6.970  1.6684  1.7069 -1.0785
  159SAPE   H4S17747   2.220   1.265   7.076 -0.2230 -0.5179 -1.8301
  159SAPE   C2517748   2.384   1.405   7.081 -0.1878  0.4725 -0.4248
  159SAPE   H5R17749   2.458   1.459   7.021  1.1123 -1.2112 -0.4089
  159SAPE   C2617750   2.376   1.433   7.213 -0.1782  0.6562  0.1552
  159SAPE   H6R17751   2.434   1.512   7.264 -0.7090  0.6160  0.8311
  159SAPE   C2717752   2.276   1.386   7.308  0.3472  0.7882 -0.7300
  159SAPE   H7R17753   2.215   1.305   7.264  1.3010 -0.8176  0.7677
  159SAPE   H7S17754   2.191   1.457   7.320 -0.6701 -0.0140 -2.7118
  159SAPE   C2817755   2.339   1.337   7.443  0.2875 -0.3195 -0.1746
  159SAPE   H8R17756   2.366   1.231   7.455 -0.4818 -0.2382  3.3153
  159SAPE   C2917757   2.362   1.400   7.560 -0.1293 -0.1053  0.3080
  159SAPE   H9R17758   2.398   1.335   7.640 -0.1296 -2.2269 -1.3268
  159SAPE  C21017759   2.327   1.542   7.585 -0.7005 -0.0678 -0.3128
  159SAPE  H10R17760   2.298   1.540   7.692 -0.7006  1.3308 -0.2645
  159SAPE  H10S17761   2.245   1.569   7.515 -0.4022  0.7781 -0.3500
  159SAPE  C21117762   2.439   1.649   7.570  0.5892 -0.5392 -0.2235
  159SAPE  H11R17763   2.459   1.670   7.464 -3.8476 -0.7037 -1.2672
  159SAPE  C21217764   2.497   1.720   7.668  0.1951  0.0194  0.3753
  159SAPE  H12R17765   2.567   1.798   7.635 -0.2619 -0.2317 -1.3022
  159SAPE  C21317766   2.462   1.707   7.818  0.7884 -0.0347  0.3204
  159SAPE  H13R17767   2.468   1.599   7.840  1.6373 -0.0820 -0.1125
  159SAPE  H13S17768   2.354   1.730   7.833 -0.0732 -3.9279  1.2555
  159SAPE  C21417769   2.558   1.787   7.896 -0.2382 -1.2124  0.1425
  159SAPE  H14R17770   2.614   1.866   7.844 -1.3177 -0.9597 -0.6531
  159SAPE  C21517771   2.600   1.759   8.017 -0.3959  0.2420 -0.4830
  159SAPE  H15R17772   2.681   1.818   8.061  0.1182 -1.4689  0.9629
  159SAPE  C21617773   2.552   1.648   8.107 -1.2910  0.4380  0.5346
  159SAPE  H16R17774   2.638   1.578   8.117 -0.9775  0.8351  0.6253
  159SAPE  H16S17775   2.466   1.586   8.072 -0.9890 -0.0262  0.5954
  159SAPE  C21717776   2.521   1.708   8.249  0.5429 -0.0227  0.2735
  159SAPE  H17R17777   2.615   1.743   8.296 -0.7018  1.5949  1.6701
  159SAPE  H17S17778   2.478   1.627   8.311  1.4667  1.2873  2.7426
  159SAPE  C21817779   2.441   1.834   8.269 -0.0405 -0.9578  0.1183
  159SAPE  H18R17780   2.357   1.837   8.197 -0.1796  1.3048  0.3250
  159SAPE  H18S17781   2.501   1.918   8.228 -0.6882 -1.4166 -1.8748
  159SAPE  C21917782   2.390   1.852   8.418 -0.3775 -0.7292 -0.3963
  159SAPE  H19R17783   2.385   1.756   8.473 -1.1746 -0.5918 -0.2266
  159SAPE  H19S17784   2.284   1.885   8.415 -0.2474 -0.3706 -1.3417
  159SAPE  C22017785   2.467   1.954   8.505  0.1965 -0.0668 -0.5515
  159SAPE  H20R17786   2.483   2.053   8.456  4.6570 -0.1778  0.2968
  159SAPE  H20S17787   2.570   1.916   8.518  0.2666  0.6186  1.0875
  159SAPE  H20T17788   2.420   1.974   8.604 -0.3066  3.0814 -1.3066
  159SAPE   C3317789   2.540   1.913   7.248  0.7199  0.1081 -0.7543
  159SAPE   H3X17790   2.598   1.992   7.194  0.5927  0.7158 -0.0210
  159SAPE   H3Y17791   2.619   1.851   7.296  1.0474  0.4853 -0.7946
  159SAPE   C3417792   2.447   1.969   7.358 -0.5062  0.8322 -0.1511
  159SAPE   H4X17793   2.382   1.888   7.398  0.8698  1.0898  2.8260
  159SAPE   H4Y17794   2.370   2.036   7.315 -2.7689 -0.8567  1.0264
  159SAPE   C3517795   2.521   2.038   7.472  0.6114 -0.0478  0.7550
  159SAPE   H5X17796   2.589   2.121   7.442  1.3883 -0.0412  2.3947
  159SAPE   H5Y17797   2.589   1.958   7.509  0.2301 -1.6251 -1.7678
  159SAPE   C3617798   2.427   2.081   7.589 -1.0205  0.1735 -0.2596
  159SAPE   H6X17799   2.370   1.989   7.615 -1.4061 -0.1707 -2.1548
  159SAPE   H6Y17800   2.352   2.155   7.554 -1.6812 -0.3866 -0.0352
  159SAPE   C3717801   2.511   2.119   7.711  0.2367  0.8420 -0.2425
  159SAPE   H7X17802   2.559   2.214   7.679  0.5624  0.6670 -0.2783
  159SAPE   H7Y17803   2.588   2.040   7.725 -1.2572 -0.1672  3.7057
  159SAPE   C3817804   2.431   2.130   7.845  0.3532 -0.6096 -0.2671
  159SAPE   H8X17805   2.375   2.035   7.861  0.3966 -0.3289  1.9326
  159SAPE   H8Y17806   2.374   2.221   7.817  1.6704 -0.6159 -3.3011
  159SAPE   C3917807   2.524   2.147   7.968 -1.2744  0.4913  0.1756
  159SAPE   H9X17808   2.569   2.248   7.963 -2.9712  1.3211  0.8367
  159SAPE   H9Y17809   2.609   2.076   7.962 -1.1938  0.6512 -0.7528
  159SAPE  C31017810   2.462   2.150   8.110  0.0509 -0.1803 -0.0558
  159SAPE  H10X17811   2.547   2.154   8.181  0.1761 -4.6762  0.3313
  159SAPE  H10Y17812   2.403   2.057   8.125  0.8042 -0.4823  1.1868
  159SAPE  C31117813   2.360   2.267   8.137 -0.1119 -0.1287  0.4162
  159SAPE  H11X17814   2.303   2.266   8.041 -1.6721  2.6854  1.2261
  159SAPE  H11Y17815   2.415   2.362   8.152  2.2893 -1.8032  3.3680
  159SAPE  C31217816   2.276   2.252   8.266 -0.0115  0.0368 -0.3184
  159SAPE  H12X17817   2.291   2.159   8.325  1.6469  0.8779  0.6335
  159SAPE  H12Y17818   2.165   2.263   8.260  0.0069 -0.3364 -1.7052
  159SAPE  C31317819   2.315   2.355   8.370 -0.5840  0.4615  0.1369
  159SAPE  H13X17820   2.320   2.455   8.321 -0.5822  0.6058  0.4301
  159SAPE  H13Y17821   2.415   2.330   8.410 -0.2672 -1.0555 -1.4876
  159SAPE  C31417822   2.219   2.369   8.490 -0.0012 -0.2287  0.0919
  159SAPE  H14X17823   2.245   2.272   8.537  0.1735  0.1056  0.6942
  159SAPE  H14Y17824   2.116   2.368   8.448 -0.1283 -1.4744  0.4042
  159SAPE  C31517825   2.246   2.487   8.575  0.3622  0.5348 -0.2224
  159SAPE  H15X17826   2.198   2.578   8.532  1.3853  1.7420  1.0939
  159SAPE  H15Y17827   2.355   2.508   8.580  0.9672 -1.7131 -2.1519
  159SAPE  C31617828   2.182   2.483   8.722  0.7474  0.6299 -0.0123
  159SAPE  H16X17829   2.199   2.383   8.766 -0.4973  0.1091 -0.6698
  159SAPE  H16Y17830   2.071   2.487   8.715  0.6655 -1.0200  0.0627
  159SAPE  C31717831   2.237   2.581   8.830  0.0980 -0.0158 -0.1867
  159SAPE  H17X17832   2.215   2.686   8.800 -1.7403  0.4055  2.3381
  159SAPE  H17Y17833   2.347   2.576   8.820  0.0027 -1.1949 -0.7450
  159SAPE  C31817834   2.193   2.574   8.976  1.1428 -0.0862  0.6239
  159SAPE  H18X17835   2.137   2.481   8.994  1.2324 -0.0926  0.8736
  159SAPE  H18Y17836   2.120   2.655   8.999 -0.7182 -1.2758 -0.8221
  159SAPE  H18Z17837   2.269   2.600   9.053  0.1370 -1.9000  2.2942
  160SAPE     N17838   3.701   4.415   6.079 -0.6226  0.4198  0.5413
  160SAPE   HN117839   3.619   4.435   6.140 -0.5255 -0.8715  1.1341
  160SAPE   HN217840   3.715   4.481   6.001 -0.1684  1.4069  1.4287
  160SAPE   HN317841   3.674   4.331   6.023 -0.8897  2.2043 -2.1616
  160SAPE   C1217842   3.822   4.403   6.177 -0.0766 -0.4665  0.2318
  160SAPE  H12A17843   3.905   4.354   6.122  0.8674  0.2688  0.9784
  160SAPE  H12B17844   3.801   4.337   6.264  0.6734 -1.8437 -0.5915
  160SAPE   C1117845   3.872   4.544   6.208  0.0382 -0.4158  0.6792
  160SAPE  H11A17846   3.910   4.590   6.114 -2.6261 -0.4688 -0.5267
  160SAPE  H11B17847   3.956   4.557   6.279 -0.2268  3.5538  0.4915
  160SAPE     P17848   3.716   4.633   6.399 -0.1244 -0.0250  0.1789
  160SAPE   O1317849   3.785   4.744   6.467  0.4383 -0.4915  0.5139
  160SAPE   O1417850   3.569   4.645   6.389 -0.0866 -0.0790  0.1706
  160SAPE   O1217851   3.763   4.624   6.254 -0.1033  0.3788  0.2162
  160SAPE   O1117852   3.761   4.494   6.467  0.1361  0.8508  0.3900
  160SAPE    C117853   3.677   4.435   6.569  0.1613  0.4958  0.1781
  160SAPE    HA17854   3.569   4.455   6.552 -0.0630  2.1875  2.8823
  160SAPE    HB17855   3.686   4.325   6.561  0.9790  0.2486  3.3264
  160SAPE    C217856   3.712   4.467   6.717  0.4443  0.1968  0.3036
  160SAPE    HS17857   3.696   4.577   6.725 -0.7875  0.0301  0.4717
  160SAPE   O2117858   3.849   4.431   6.735  0.4283  0.1988 -0.1158
  160SAPE   C2117859   3.909   4.488   6.837 -0.0989 -0.3155  0.0975
  160SAPE   O2217860   3.869   4.591   6.891 -0.1947 -0.2109  0.3865
  160SAPE   C2217861   4.012   4.399   6.900 -0.3360 -0.2606 -0.1624
  160SAPE   H2R17862   3.980   4.404   7.007 -3.3089  0.9234 -1.0062
  160SAPE   H2S17863   3.998   4.292   6.873  1.2007 -0.8052  1.0409
  160SAPE    C317864   3.612   4.397   6.814  0.1505 -0.2826 -0.0854
  160SAPE    HX17865   3.626   4.288   6.794 -1.0688 -0.5831  0.6711
  160SAPE    HY17866   3.513   4.430   6.777 -0.4630 -2.6761 -0.8006
  160SAPE   O3117867   3.658   4.418   6.949 -0.2271 -0.4208 -0.7294
  160SAPE   C3117868   3.591   4.499   7.026 -0.1205 -0.3350  1.0012
  160SAPE   O3217869   3.483   4.546   7.000 -0.1401 -0.4974 -1.0033
  160SAPE   C3217870   3.674   4.522   7.152 -0.2528 -0.0601  0.8428
  160SAPE   H2X17871   3.680   4.632   7.160 -1.7867  0.1054  0.0019
  160SAPE   H2Y17872   3.776   4.480   7.136 -0.7970 -2.1037  2.2155
  160SAPE   C2317873   4.160   4.435   6.867 -0.1471  0.9922  0.4847
  160SAPE   H3R17874   4.165   4.494   6.773 -1.8981 -1.7788 -1.5066
  160SAPE   H3S17875   4.214   4.338   6.855 -2.0015 -0.1719  1.0692
  160SAPE   C2417876   4.232   4.508   6.979  0.7530 -0.2748 -0.2775
  160SAPE   H4R17877   4.340   4.512   6.955  0.7234  2.4315 -0.1787
  160SAPE   H4S17878   4.221   4.439   7.066  0.8568 -0.3393 -0.3148
  160SAPE   C2517879   4.186   4.645   7.017 -0.5747  0.8691  0.6908
  160SAPE   H5R17880   4.188   4.712   6.929 -0.4944  0.3585  0.2957
  160SAPE   C2617881   4.154   4.684   7.145  0.8261 -0.5852  0.0878
  160SAPE   H6R17882   4.117   4.788   7.148  1.5001 -0.3503  0.3227
  160SAPE   C2717883   4.161   4.604   7.280  0.3943 -0.1227  0.6216
  160SAPE   H7R17884   4.151   4.672   7.367  0.2622 -0.5671  0.9613
  160SAPE   H7S17885   4.267   4.572   7.277  0.3746 -0.1193 -1.9871
  160SAPE   C2817886   4.068   4.492   7.308  0.1421  0.2727  0.5107
  160SAPE   H8R17887   3.976   4.478   7.249 -0.0586  1.8673  0.3974
  160SAPE   C2917888   4.090   4.389   7.394  0.4699  0.1657  0.3573
  160SAPE   H9R17889   4.003   4.322   7.390 -0.7091  1.7096 -1.3739
  160SAPE  C21017890   4.200   4.376   7.495 -0.5575 -0.1992 -0.1356
  160SAPE  H10R17891   4.184   4.450   7.576 -0.1710 -0.6942  0.4091
  160SAPE  H10S17892   4.293   4.403   7.440  0.5868 -3.2710  0.0694
  160SAPE  C21117893   4.212   4.238   7.548 -0.0668  0.4942 -0.5782
  160SAPE  H11R17894   4.157   4.158   7.496  0.2455  0.7646 -1.3437
  160SAPE  C21217895   4.270   4.204   7.663  0.2983  0.6326  0.0174
  160SAPE  H12R17896   4.279   4.095   7.680 -2.5908  0.2225 -0.6525
  160SAPE  C21317897   4.343   4.296   7.758  0.3356  0.1759  0.4076
  160SAPE  H13R17898   4.264   4.323   7.831 -0.4394 -3.3786  1.0737
  160SAPE  H13S17899   4.380   4.393   7.719 -0.3242  0.1092 -0.4011
  160SAPE  C21417900   4.464   4.251   7.838 -0.2633 -0.1895  0.5194
  160SAPE  H14R17901   4.543   4.199   7.781 -1.0070 -0.3166 -0.4272
  160SAPE  C21517902   4.482   4.272   7.966 -0.1339  0.6485 -0.1722
  160SAPE  H15R17903   4.572   4.227   8.010  0.1114 -0.7811 -2.0457
  160SAPE  C21617904   4.390   4.348   8.062  0.2393  1.4287 -0.4053
  160SAPE  H16R17905   4.307   4.398   8.008 -0.1014  1.2411 -0.0604
  160SAPE  H16S17906   4.437   4.436   8.110  3.0931 -0.2052  0.0631
  160SAPE  C21717907   4.322   4.271   8.185 -0.6279  0.2813 -0.5120
  160SAPE  H17R17908   4.276   4.177   8.149 -2.2361  0.4507  0.9578
  160SAPE  H17S17909   4.243   4.333   8.233 -0.6610  0.0108 -0.2150
  160SAPE  C21817910   4.423   4.231   8.290  0.1044  0.0980 -0.3073
  160SAPE  H18R17911   4.493   4.315   8.306  0.2602 -0.2300  0.8654
  160SAPE  H18S17912   4.474   4.140   8.252  1.9401 -0.9619  4.0462
  160SAPE  C21917913   4.358   4.190   8.425 -0.6956 -0.4465 -0.0167
  160SAPE  H19R17914   4.309   4.280   8.469 -1.0123 -1.5736  2.0537
  160SAPE  H19S17915   4.442   4.159   8.491  0.1153  1.0746 -0.2849
  160SAPE  C22017916   4.272   4.070   8.411 -0.3638 -0.2519 -0.1911
  160SAPE  H20R17917   4.199   4.080   8.328 -0.5305  1.3349  0.1130
  160SAPE  H20S17918   4.215   4.048   8.504 -1.7596 -1.5882 -1.3081
  160SAPE  H20T17919   4.331   3.981   8.383  0.3760  0.3514 -0.5779
  160SAPE   C3317920   3.607   4.458   7.273  0.1540 -0.2204  0.4457
  160SAPE   H3X17921   3.587   4.354   7.241  0.6980 -0.4926  0.9694
  160SAPE   H3Y17922   3.506   4.498   7.292  0.9402  1.0027  2.3337
  160SAPE   C3417923   3.690   4.450   7.402  0.0946  0.0388  0.2124
  160SAPE   H4X17924   3.709   4.555   7.433  2.5784 -0.8375  1.9810
  160SAPE   H4Y17925   3.783   4.395   7.379 -0.3211  0.3571 -2.4615
  160SAPE   C3517926   3.613   4.376   7.506 -0.6101 -0.6104 -0.7984
  160SAPE   H5X17927   3.583   4.277   7.466  0.8081 -1.7177  0.7641
  160SAPE   H5Y17928   3.533   4.444   7.542 -0.1972 -1.1056  1.1407
  160SAPE   C3617929   3.693   4.363   7.636 -0.4146  0.3860  0.1709
  160SAPE   H6X17930   3.790   4.313   7.614 -1.2606 -0.9735 -0.6383
  160SAPE   H6Y17931   3.627   4.300   7.699 -0.9104 -0.4686 -1.1506
  160SAPE   C3717932   3.717   4.500   7.710 -0.3344  0.3438 -0.6132
  160SAPE   H7X17933   3.619   4.523   7.755 -0.4355  0.2791 -0.7997
  160SAPE   H7Y17934   3.744   4.582   7.640 -0.5141  1.4717  0.5961
  160SAPE   C3817935   3.815   4.491   7.830 -0.0423 -0.0050 -0.0406
  160SAPE   H8X17936   3.845   4.596   7.849  0.3376  0.0824 -1.0804
  160SAPE   H8Y17937   3.902   4.434   7.794 -0.4990 -0.1447 -0.9506
  160SAPE   C3917938   3.758   4.413   7.944 -0.4242  0.3868 -0.0913
  160SAPE   H9X17939   3.757   4.310   7.904  0.2440 -0.3140  1.6072
  160SAPE   H9Y17940   3.658   4.459   7.962 -0.2606  2.1448 -3.0853
  160SAPE  C31017941   3.843   4.401   8.070  0.6843  0.0596  0.5399
  160SAPE  H10X17942   3.868   4.504   8.102  2.4969  1.7724 -5.0624
  160SAPE  H10Y17943   3.939   4.356   8.035  0.5951  1.2902 -1.4556
  160SAPE  C31117944   3.783   4.326   8.189 -0.3805  0.1485  0.6275
  160SAPE  H11X17945   3.798   4.217   8.172  2.4195  0.7898 -2.2187
  160SAPE  H11Y17946   3.676   4.356   8.189 -0.7493 -1.0056 -1.0314
  160SAPE  C31217947   3.849   4.354   8.322 -1.0395 -0.3195  0.6987
  160SAPE  H12X17948   3.853   4.463   8.345 -0.5712 -0.7491  2.8922
  160SAPE  H12Y17949   3.953   4.314   8.324 -1.6387 -1.9856 -0.2570
  160SAPE  C31317950   3.792   4.293   8.451 -0.6801  0.8690  0.1302
  160SAPE  H13X17951   3.847   4.329   8.541  1.0209 -1.8952  0.3332
  160SAPE  H13Y17952   3.818   4.185   8.450  2.0578  1.3718  2.5751
  160SAPE  C31417953   3.642   4.332   8.471  0.1354  0.5313 -0.6143
  160SAPE  H14X17954   3.581   4.278   8.395  0.2315  1.9391 -1.7168
  160SAPE  H14Y17955   3.634   4.442   8.460  1.0771  0.6114 -0.5306
  160SAPE  C31517956   3.594   4.284   8.610 -0.2467  0.6281  0.5831
  160SAPE  H15X17957   3.674   4.305   8.684 -0.1706  1.1812  0.3490
  160SAPE  H15Y17958   3.583   4.174   8.608  1.1772  0.4742 -0.1323
  160SAPE  C31617959   3.460   4.326   8.659 -0.5089 -0.6056  0.7104
  160SAPE  H16X17960   3.369   4.311   8.596  0.0148  2.6387 -1.0202
  160SAPE  H16Y17961   3.449   4.433   8.685 -0.6587 -0.4231 -0.0842
  160SAPE  C31717962   3.430   4.268   8.801  0.0044 -0.8830  0.3009
  160SAPE  H17X17963   3.512   4.298   8.869 -0.6313  0.0192  0.6940
  160SAPE  H17Y17964   3.433   4.158   8.792  2.9211 -0.9678  1.1204
  160SAPE  C31817965   3.299   4.316   8.858 -0.2734 -0.0284 -0.5000
  160SAPE  H18X17966   3.319   4.420   8.893  0.3064 -1.3022  3.4797
  160SAPE  H18Y17967   3.288   4.250   8.946  1.4770  2.1474  1.4960
  160SAPE  H18Z17968   3.206   4.310   8.797  0.5424 -3.8102 -1.5816
  161SOPE     N17969   1.146   4.846  10.809  0.2737 -0.3828  0.6412
  161SOPE   HN117970   1.128   4.863  10.708  1.3276  1.3591  0.7056
  161SOPE   HN217971   1.219   4.915  10.836  2.3988 -2.8754  1.6783
  161SOPE   HN317972   1.186   4.752  10.825  4.2818  1.0864  0.3518
  161SOPE   C1217973   1.019   4.843  10.892  0.3148 -0.3984  0.6573
  161SOPE  H12A17974   1.041   4.871  10.997 -1.5087 -1.1339  1.2818
  161SOPE  H12B17975   0.968   4.744  10.889 -0.4974  0.0301 -1.5381
  161SOPE   C1117976   0.913   4.948  10.837  0.4378 -0.1678 -0.3282
  161SOPE  H11A17977   0.817   4.940  10.891  0.3440  1.2715 -0.2373
  161SOPE  H11B17978   0.895   4.909  10.734 -0.0098 -0.3960 -0.1654
  161SOPE     P17979   0.870   5.192  10.769  0.2525 -0.0844 -0.4733
  161SOPE   O1317980   0.918   5.323  10.814  0.1981 -0.0737 -0.2196
  161SOPE   O1417981   0.730   5.155  10.796  0.3062  0.1820 -0.8606
  161SOPE   O1217982   0.973   5.078  10.822  0.1345 -0.0101  0.2872
  161SOPE   O1117983   0.893   5.178  10.619  0.1765 -0.3165  0.1018
  161SOPE    C117984   1.026   5.159  10.572  0.0590 -0.0615 -0.1079
  161SOPE    HA17985   1.060   5.059  10.606  3.4367  0.4597 -1.4899
  161SOPE    HB17986   1.098   5.227  10.623 -1.2505  1.3682 -0.0736
  161SOPE    C217987   1.026   5.170  10.420 -0.0183  0.6817 -0.2999
  161SOPE    HS17988   1.123   5.134  10.380 -0.3085 -0.6838  0.1776
  161SOPE   O2117989   1.008   5.305  10.377  0.0120 -0.6924 -0.2705
  161SOPE   C2117990   1.112   5.384  10.413  0.7024 -0.0407  0.4499
  161SOPE   O2217991   1.215   5.337  10.456 -0.2039  0.1002  0.3126
  161SOPE   C2217992   1.079   5.531  10.418 -0.5852  0.1805 -0.4474
  161SOPE   H2R17993   1.163   5.588  10.463 -0.5391 -0.1958 -0.0378
  161SOPE   H2S17994   0.998   5.544  10.493 -1.4014  0.6617 -1.3887
  161SOPE    C317995   0.914   5.089  10.355 -0.1024  0.5769 -0.3589
  161SOPE    HX17996   0.821   5.138  10.392 -0.1706  0.4136 -0.3129
  161SOPE    HY17997   0.928   4.987  10.396  1.9750  1.6096  1.6633
  161SOPE   O3117998   0.928   5.083  10.211 -0.2702  0.0973 -0.6723
  161SOPE   C3117999   0.851   5.157  10.141 -0.5618 -0.5772  0.6063
  161SOPE   O3218000   0.753   5.217  10.177  0.0689  0.2095 -0.1508
  161SOPE   C3218001   0.895   5.141   9.994  0.2544 -0.5376  0.0653
  161SOPE   H2X18002   0.913   5.033   9.972  4.2146 -0.0689  0.2535
  161SOPE   H2Y18003   0.989   5.197   9.973  0.0722 -0.7501 -1.3693
  161SOPE   C2318004   1.023   5.595  10.289 -0.0028 -0.5870  0.0493
  161SOPE   H3R18005   0.963   5.684  10.317  0.2296 -0.4041 -0.0310
  161SOPE   H3S18006   0.966   5.520  10.230 -0.2350  0.5673 -1.2471
  161SOPE   C2418007   1.131   5.655  10.204 -0.4007 -0.2618  0.2453
  161SOPE   H4R18008   1.190   5.723  10.270 -2.4255  0.7873  1.0726
  161SOPE   H4S18009   1.200   5.572  10.179 -0.6695 -1.4955  3.1745
  161SOPE   C2518010   1.076   5.725  10.077 -0.3253 -0.6121 -0.1915
  161SOPE   H5R18011   0.983   5.780  10.104 -0.3891 -1.8058  2.1782
  161SOPE   H5S18012   1.160   5.782  10.031  0.6834 -0.6403  1.5494
  161SOPE   C2618013   1.039   5.628   9.960  0.1634  0.2652 -0.2718
  161SOPE   H6R18014   0.981   5.539   9.991 -1.1903  0.8084 -1.1236
  161SOPE   H6S18015   0.981   5.691   9.889 -0.7875  0.9216  1.0482
  161SOPE   C2718016   1.159   5.583   9.883 -0.2161  0.3413 -0.2537
  161SOPE   H7R18017   1.221   5.672   9.860 -1.8195  0.6263 -4.3597
  161SOPE   H7S18018   1.225   5.514   9.940 -0.2308  0.8114  0.3380
  161SOPE   C2818019   1.124   5.501   9.755 -0.5920  0.2094  0.1470
  161SOPE   H8R18020   1.085   5.400   9.780 -0.7889  0.2096 -0.1519
  161SOPE   H8S18021   1.035   5.546   9.706 -0.8800 -1.8146 -1.3318
  161SOPE   C2918022   1.240   5.494   9.657  0.4704 -0.7433  0.3927
  161SOPE   H9118023   1.346   5.506   9.687 -0.1491 -0.5507  2.7008
  161SOPE  C21018024   1.218   5.471   9.528  1.4012  0.2347  0.1159
  161SOPE  H10118025   1.295   5.461   9.450 -0.0221  1.6605 -1.5241
  161SOPE  C21118026   1.087   5.442   9.461 -0.2812  0.0679  0.0144
  161SOPE  H11R18027   0.999   5.434   9.527 -0.4392 -2.5324 -0.3741
  161SOPE  H11S18028   1.093   5.332   9.441 -1.1342 -0.4054  2.1302
  161SOPE  C21218029   1.055   5.530   9.334 -0.0569 -1.0481  0.0521
  161SOPE  H12R18030   1.014   5.627   9.371 -1.8132 -2.3653  1.7867
  161SOPE  H12S18031   0.965   5.478   9.295 -2.2628  1.9137  0.8705
  161SOPE  C21318032   1.165   5.542   9.229  0.2094 -0.2624 -0.2523
  161SOPE  H13R18033   1.229   5.452   9.216  1.6473  0.4255  1.5265
  161SOPE  H13S18034   1.237   5.614   9.273  0.8694 -2.3557  2.3935
  161SOPE  C21418035   1.112   5.605   9.102  0.2830 -0.4439 -0.3520
  161SOPE  H14R18036   1.033   5.681   9.117  0.8712  0.3174 -1.0205
  161SOPE  H14S18037   1.071   5.524   9.037  0.6398  0.4517 -1.7418
  161SOPE  C21518038   1.219   5.679   9.016  0.1174 -0.0134 -0.1701
  161SOPE  H15R18039   1.292   5.605   8.976  0.7076  0.1292  0.6223
  161SOPE  H15S18040   1.283   5.744   9.080 -0.4490 -1.2860  1.7902
  161SOPE  C21618041   1.160   5.754   8.897 -0.4050  0.6417  0.5834
  161SOPE  H16R18042   1.074   5.814   8.932  0.3560  2.2272 -0.1881
  161SOPE  H16S18043   1.127   5.671   8.830  0.7179 -1.8562  2.9397
  161SOPE  C21718044   1.260   5.847   8.819  0.3101 -0.1641  0.2914
  161SOPE  H17R18045   1.336   5.788   8.763 -0.3915 -0.5906 -0.2217
  161SOPE  H17S18046   1.316   5.910   8.892 -2.8784  1.7656  1.2428
  161SOPE  C21818047   1.197   5.948   8.724  0.3135 -0.6351 -0.1410
  161SOPE  H18R18048   1.281   6.012   8.689  2.0098 -0.8594  3.1665
  161SOPE  H18S18049   1.115   6.000   8.777 -0.0243  1.9581 -2.9453
  161SOPE  H18T18050   1.162   5.890   8.636 -0.1490 -0.5171 -0.0376
  161SOPE   C3318051   0.790   5.187   9.896 -0.5796  0.5543  0.0983
  161SOPE   H3X18052   0.774   5.296   9.912 -0.3137  1.3947 -4.1676
  161SOPE   H3Y18053   0.696   5.137   9.927 -0.7084  0.4803 -0.4021
  161SOPE   C3418054   0.825   5.144   9.751 -0.0226 -0.1602 -0.6822
  161SOPE   H4X18055   0.850   5.037   9.764  1.5075  0.2798  0.3315
  161SOPE   H4Y18056   0.913   5.202   9.717  0.9117 -0.7259  0.6939
  161SOPE   C3518057   0.731   5.188   9.648 -0.1182  0.7167  0.4427
  161SOPE   H5X18058   0.731   5.298   9.662 -0.8421  0.6698  0.8519
  161SOPE   H5Y18059   0.629   5.146   9.657  0.1947 -0.5364 -1.3059
  161SOPE   C3618060   0.787   5.144   9.509  0.5002 -0.1293  0.0486
  161SOPE   H6X18061   0.813   5.038   9.489  0.2608  0.0267 -1.2142
  161SOPE   H6Y18062   0.888   5.189   9.514 -0.1856  1.3540  1.3943
  161SOPE   C3718063   0.705   5.207   9.397  0.3683 -0.6867 -0.1149
  161SOPE   H7X18064   0.735   5.314   9.402 -0.8089 -0.3900  1.3604
  161SOPE   H7Y18065   0.597   5.200   9.424  0.5330 -2.4401  0.1799
  161SOPE   C3818066   0.730   5.158   9.254 -0.0795  1.1073 -0.0206
  161SOPE   H8X18067   0.659   5.195   9.177 -1.9377 -1.2165  0.4367
  161SOPE   H8Y18068   0.709   5.049   9.261  2.0977  0.7444  1.7772
  161SOPE   C3918069   0.878   5.179   9.215  0.1411  0.0254  0.1108
  161SOPE   H9X18070   0.949   5.126   9.283  0.2967 -0.3368 -0.3274
  161SOPE   H9Y18071   0.887   5.289   9.226 -2.8675  0.2489  1.3166
  161SOPE  C31018072   0.905   5.134   9.071  0.6279 -0.2916 -0.9363
  161SOPE  H10X18073   0.868   5.029   9.062  2.1254 -0.8449 -0.9247
  161SOPE  H10Y18074   1.016   5.132   9.062  0.6607  0.1606 -0.6204
  161SOPE  C31118075   0.853   5.235   8.979  0.6302 -0.1093 -0.6986
  161SOPE  H11X18076   0.899   5.328   9.018 -0.1412 -0.0981  0.2175
  161SOPE  H11Y18077   0.744   5.252   8.971  1.0147  1.7234 -3.1403
  161SOPE  C31218078   0.899   5.227   8.834  0.2022  0.1056 -0.0225
  161SOPE  H12X18079   0.861   5.134   8.785  1.1535  0.9153 -2.4141
  161SOPE  H12Y18080   1.010   5.224   8.828  0.2619 -2.0241  0.9025
  161SOPE  C31318081   0.840   5.343   8.761 -0.2222 -0.0303  0.5707
  161SOPE  H13X18082   0.733   5.348   8.789 -0.4368 -0.3249 -0.1836
  161SOPE  H13Y18083   0.847   5.313   8.655 -1.3762  2.0357 -0.1358
  161SOPE  C31418084   0.908   5.479   8.767  0.3728  0.0908  0.2449
  161SOPE  H14X18085   1.015   5.480   8.734  0.2211  2.4944 -0.4086
  161SOPE  H14Y18086   0.894   5.517   8.870  1.6170 -1.1016  0.8858
  161SOPE  C31518087   0.830   5.567   8.669  1.1646 -0.3922  0.0111
  161SOPE  H15X18088   0.721   5.566   8.692  1.1417 -0.0429 -0.0754
  161SOPE  H15Y18089   0.842   5.523   8.568 -0.6064  1.5678 -1.1511
  161SOPE  C31618090   0.878   5.711   8.664 -0.3804 -0.9774  0.3126
  161SOPE  H16X18091   0.977   5.711   8.614  0.5101  1.0883  1.9279
  161SOPE  H16Y18092   0.889   5.774   8.755 -0.7609 -0.3911 -0.0507
  161SOPE  C31718093   0.790   5.797   8.571 -0.3067 -0.1997 -0.2775
  161SOPE  H17X18094   0.699   5.828   8.626  0.0029  0.6033 -0.2142
  161SOPE  H17Y18095   0.755   5.736   8.484  2.9824 -1.4320 -0.8809
  161SOPE  C31818096   0.860   5.926   8.521 -0.1887  0.1200 -0.3266
  161SOPE  H18X18097   0.945   5.901   8.453 -0.3359  0.4567 -0.6438
  161SOPE  H18Y18098   0.895   5.982   8.610 -0.7372  1.1493 -0.7415
  161SOPE  H18Z18099   0.789   5.981   8.456  0.5638  0.3548 -0.9707
  162SOPE     N18100   5.348   5.867  10.886 -0.1277  0.0852 -0.1662
  162SOPE   HN118101   5.400   5.957  10.888 -2.4791  1.5020  1.4382
  162SOPE   HN218102   5.279   5.862  10.809 -1.0035 -1.1561  0.6612
  162SOPE   HN318103   5.297   5.860  10.976  0.8093  1.3317  0.4876
  162SOPE   C1218104   5.449   5.754  10.864 -0.7335 -0.4153 -0.4342
  162SOPE  H12A18105   5.482   5.761  10.758  3.0855  2.1948  0.7420
  162SOPE  H12B18106   5.400   5.657  10.890 -0.7534 -0.4015 -0.4205
  162SOPE   C1118107   5.578   5.758  10.963  0.4970 -0.4820 -0.2947
  162SOPE  H11A18108   5.655   5.705  10.902 -0.4091  0.8978 -2.7610
  162SOPE  H11B18109   5.553   5.709  11.060 -0.9825 -0.4634 -0.6520
  162SOPE     P18110   5.683   5.992  10.906  0.3342  0.1952  0.0067
  162SOPE   O1318111   5.820   6.008  10.951  0.9527  0.2270 -0.5512
  162SOPE   O1418112   5.598   6.111  10.879  0.2365 -0.3087 -0.7486
  162SOPE   O1218113   5.610   5.893  11.000  0.1619  0.2011  0.3561
  162SOPE   O1118114   5.684   5.910  10.771 -0.2538  0.1838  0.1217
  162SOPE    C118115   5.708   5.975  10.648 -0.2391  0.0538 -0.1284
  162SOPE    HA18116   5.809   6.021  10.654 -0.9834  1.6237  3.8210
  162SOPE    HB18117   5.635   6.057  10.634 -2.5379 -1.5892  1.5219
  162SOPE    C218118   5.687   5.876  10.531  0.2026 -0.6185  0.0503
  162SOPE    HS18119   5.580   5.849  10.519  0.3502 -0.6218 -1.5300
  162SOPE   O2118120   5.779   5.760  10.540 -0.2292  0.2183 -0.2536
  162SOPE   C2118121   5.732   5.654  10.484  0.0936  0.1575  0.1836
  162SOPE   O2218122   5.616   5.633  10.441  0.0956 -0.4837 -0.3849
  162SOPE   C2218123   5.847   5.552  10.491 -0.3615  0.3513 -0.2783
  162SOPE   H2R18124   5.871   5.529  10.598  0.7161 -0.6145 -0.7007
  162SOPE   H2S18125   5.935   5.591  10.436 -0.3443  0.4845 -0.1552
  162SOPE    C318126   5.718   5.958  10.402  0.0530  0.1819 -0.4659
  162SOPE    HX18127   5.821   5.995  10.424  0.4629 -0.3472 -1.4335
  162SOPE    HY18128   5.656   6.049  10.403  0.5421  0.5560 -1.8226
  162SOPE   O3118129   5.705   5.887  10.276 -0.1811  0.1742 -0.3869
  162SOPE   C3118130   5.580   5.860  10.244 -0.5535 -0.2327 -0.3051
  162SOPE   O3218131   5.488   5.913  10.302  0.7806 -0.9037  0.5935
  162SOPE   C3218132   5.570   5.768  10.126  0.8810 -0.1536  0.3300
  162SOPE   H2X18133   5.609   5.667  10.150 -0.2445 -0.1303  2.4330
  162SOPE   H2Y18134   5.636   5.809  10.046  0.5623 -0.6152 -0.1759
  162SOPE   C2318135   5.817   5.412  10.429 -0.2641  0.9789 -0.0995
  162SOPE   H3R18136   5.711   5.381  10.435 -0.3417  0.5440 -2.6656
  162SOPE   H3S18137   5.877   5.337  10.485 -0.8145  0.5245 -0.1091
  162SOPE   C2418138   5.852   5.410  10.280  0.0719 -0.1664 -0.7610
  162SOPE   H4R18139   5.818   5.499  10.225  0.1195 -1.4885 -3.0358
  162SOPE   H4S18140   5.962   5.416  10.268 -0.1518  1.3448 -2.4363
  162SOPE   C2518141   5.800   5.276  10.216 -0.0383  0.1526  0.0682
  162SOPE   H5R18142   5.827   5.185  10.275  2.6745  1.0598  0.3629
  162SOPE   H5S18143   5.694   5.272  10.183  0.8717 -1.7885 -3.0461
  162SOPE   C2618144   5.869   5.245  10.085  0.2389  0.2727 -0.3238
  162SOPE   H6R18145   5.888   5.337  10.025  1.3126  0.3089  0.0495
  162SOPE   H6S18146   5.972   5.212  10.110 -0.0565 -1.0855 -0.8246
  162SOPE   C2718147   5.814   5.122  10.011  0.0568  0.2877  0.5904
  162SOPE   H7R18148   5.816   5.045  10.091  4.1162 -0.4201  0.0483
  162SOPE   H7S18149   5.706   5.135   9.989  0.1161 -1.4326 -0.8558
  162SOPE   C2818150   5.893   5.088   9.886  0.4587 -0.2080  0.4246
  162SOPE   H8R18151   5.996   5.075   9.927  1.2617  2.1759 -0.6496
  162SOPE   H8S18152   5.859   4.998   9.830  0.5074  1.2483 -2.1219
  162SOPE   C2918153   5.889   5.193   9.773  0.1115 -0.7690 -0.1150
  162SOPE   H9118154   5.966   5.271   9.768 -1.3126  0.6746 -0.7437
  162SOPE  C21018155   5.795   5.215   9.679 -0.4573 -0.1681  0.5821
  162SOPE  H10118156   5.795   5.303   9.613  0.3778 -0.0404  0.7416
  162SOPE  C21118157   5.676   5.114   9.671 -1.1579 -0.6485 -0.1443
  162SOPE  H11R18158   5.662   5.049   9.759 -0.8972 -1.1308 -0.4565
  162SOPE  H11S18159   5.694   5.044   9.587  0.4427 -0.9227  0.3921
  162SOPE  C21218160   5.538   5.177   9.661  0.5813  0.1605 -0.2825
  162SOPE  H12R18161   5.534   5.276   9.611  0.8001  0.0048 -0.6160
  162SOPE  H12S18162   5.518   5.187   9.770  1.8379 -2.7079  0.3241
  162SOPE  C21318163   5.438   5.075   9.593 -0.4630  0.2312 -0.5017
  162SOPE  H13R18164   5.332   5.081   9.625 -1.1199 -1.2276 -2.2671
  162SOPE  H13S18165   5.465   4.969   9.614 -0.9097  0.3335  0.6524
  162SOPE  C21418166   5.447   5.109   9.443 -0.2865 -0.0183 -0.8490
  162SOPE  H14R18167   5.556   5.097   9.430 -0.4711 -0.1559 -2.4002
  162SOPE  H14S18168   5.430   5.219   9.442  3.2445  0.8822  3.4773
  162SOPE  C21518169   5.375   5.014   9.348  0.2282 -1.0361 -0.2876
  162SOPE  H15R18170   5.265   5.026   9.338  0.2375 -0.9198 -0.2425
  162SOPE  H15S18171   5.408   4.910   9.369  1.8457 -0.3721  0.6333
  162SOPE  C21618172   5.427   5.039   9.206 -0.5944 -0.2785 -0.1023
  162SOPE  H16R18173   5.536   5.020   9.199 -0.4542 -0.3462  1.8423
  162SOPE  H16S18174   5.391   5.139   9.173 -0.1898 -0.2543 -0.4732
  162SOPE  C21718175   5.356   4.936   9.122 -0.7242 -0.0494 -0.4831
  162SOPE  H17R18176   5.246   4.942   9.136 -0.5908  1.1688  0.1728
  162SOPE  H17S18177   5.390   4.833   9.147  0.7031  0.4509 -0.2664
  162SOPE  C21818178   5.385   4.958   8.971  0.3070 -0.7508  0.0936
  162SOPE  H18R18179   5.320   5.046   8.949 -2.8939 -2.5389  1.7061
  162SOPE  H18S18180   5.361   4.866   8.914 -1.4599  0.0144 -0.4551
  162SOPE  H18T18181   5.488   4.997   8.957 -0.5322  1.9554  0.8124
  162SOPE   C3318182   5.432   5.764  10.056 -0.6499 -0.0084  0.3065
  162SOPE   H3X18183   5.437   5.729   9.951 -0.4856 -0.7532  0.5533
  162SOPE   H3Y18184   5.382   5.863  10.056 -0.2870  0.1764  0.1730
  162SOPE   C3418185   5.337   5.670  10.129  0.0587 -0.4015 -0.6259
  162SOPE   H4X18186   5.237   5.675  10.083 -0.6681 -0.7287  0.8384
  162SOPE   H4Y18187   5.326   5.702  10.235 -3.1296 -0.0834 -0.9624
  162SOPE   C3518188   5.377   5.529  10.139  0.0527 -0.6531 -0.0768
  162SOPE   H5X18189   5.303   5.473  10.201  0.0518 -1.5268 -0.8341
  162SOPE   H5Y18190   5.471   5.508  10.195 -1.5636 -1.2620  2.6129
  162SOPE   C3618191   5.400   5.467  10.001  0.3698  0.4662  1.2114
  162SOPE   H6X18192   5.452   5.370  10.020 -2.1719 -1.6187 -1.5860
  162SOPE   H6Y18193   5.474   5.525   9.942 -0.0001 -1.9741 -1.8706
  162SOPE   C3718194   5.268   5.449   9.932  0.0129 -0.3233 -0.1444
  162SOPE   H7X18195   5.219   5.545   9.908 -2.4352 -1.6070 -0.5844
  162SOPE   H7Y18196   5.204   5.396  10.005  2.1821 -1.3497  1.1182
  162SOPE   C3818197   5.273   5.373   9.794 -0.3791  0.3487  0.9918
  162SOPE   H8X18198   5.315   5.271   9.795 -1.8231 -0.3103 -0.4810
  162SOPE   H8Y18199   5.347   5.437   9.743  0.0008 -0.3962  0.5970
  162SOPE   C3918200   5.141   5.373   9.712 -0.2037 -0.5170  0.1341
  162SOPE   H9X18201   5.113   5.480   9.706 -0.6517 -0.6800 -0.6574
  162SOPE   H9Y18202   5.069   5.315   9.774 -0.2334 -1.1452 -0.4901
  162SOPE  C31018203   5.149   5.306   9.577 -0.6703 -0.1415  0.5083
  162SOPE  H10X18204   5.128   5.197   9.580  2.0204 -0.8518 -1.7579
  162SOPE  H10Y18205   5.253   5.315   9.539 -1.2021 -0.3492 -1.0880
  162SOPE  C31118206   5.078   5.370   9.460  0.4478  0.5745  0.1823
  162SOPE  H11X18207   5.133   5.467   9.453  2.1017 -0.2872  0.7157
  162SOPE  H11Y18208   4.968   5.374   9.468  0.4885  0.8857  0.6316
  162SOPE  C31218209   5.113   5.304   9.324 -0.5387 -0.3345  0.4797
  162SOPE  H12X18210   5.104   5.194   9.323  1.3286 -0.5678  2.2445
  162SOPE  H12Y18211   5.222   5.321   9.308 -0.9413  0.2886 -2.2150
  162SOPE  C31318212   5.041   5.354   9.201  0.2236 -0.8559  0.0794
  162SOPE  H13X18213   5.053   5.464   9.193  2.1528 -0.8317  2.3894
  162SOPE  H13Y18214   4.933   5.326   9.200  0.3524 -1.3699 -0.4312
  162SOPE  C31418215   5.103   5.303   9.069  0.1982 -0.1981  0.5090
  162SOPE  H14X18216   5.124   5.194   9.064  0.3449 -0.1174 -2.2325
  162SOPE  H14Y18217   5.195   5.363   9.050 -0.1409  0.0997 -0.2493
  162SOPE  C31518218   5.005   5.325   8.952  0.3853 -0.1391 -0.4289
  162SOPE  H15X18219   4.977   5.432   8.947 -4.7338 -1.2482 -1.1345
  162SOPE  H15Y18220   4.907   5.283   8.984  0.6559 -0.2586  0.2563
  162SOPE  C31618221   5.046   5.278   8.813 -0.6919  0.1734 -0.6374
  162SOPE  H16X18222   5.146   5.319   8.787 -1.6808  2.4448 -1.1511
  162SOPE  H16Y18223   4.971   5.315   8.740 -1.8083  1.5778  1.1290
  162SOPE  C31718224   5.021   5.132   8.799  0.6711  0.3954  0.5191
  162SOPE  H17X18225   4.912   5.110   8.804  0.8772 -0.6523  0.7815
  162SOPE  H17Y18226   5.052   5.073   8.888  1.1644  1.7207  1.2430
  162SOPE  C31818227   5.097   5.074   8.676  1.0717  0.6559 -0.0755
  162SOPE  H18X18228   5.073   5.142   8.591  0.3241  1.3411  0.6634
  162SOPE  H18Y18229   5.066   4.970   8.653  1.8137 -0.0355  1.8536
  162SOPE  H18Z18230   5.207   5.085   8.690  1.0719  1.5327 -0.6116
  163SOPE     N18231   0.047   1.345  11.357  0.2365  0.4976  0.0702
  163SOPE   HN118232   0.146   1.360  11.383  0.3709 -1.0528  0.5465
  163SOPE   HN218233   0.008   1.438  11.332  0.3383  1.0889  1.9596
  163SOPE   HN318234  -0.015   1.324  11.438  0.5264  2.0029  0.7101
  163SOPE   C1218235   0.033   1.235  11.247 -0.0767 -0.4581 -0.8558
  163SOPE  H12A18236   0.041   1.131  11.287 -1.3568 -0.7130 -1.2175
  163SOPE  H12B18237   0.117   1.256  11.177  1.1889 -0.9964  0.4505
  163SOPE   C1118238  -0.111   1.254  11.187 -1.1028  0.3670  0.3461
  163SOPE  H11A18239  -0.179   1.201  11.257  0.2484  0.0637  1.4856
  163SOPE  H11B18240  -0.108   1.202  11.089 -1.1571  0.7451  0.1412
  163SOPE     P18241  -0.131   1.472  11.040  0.1543 -0.2607  0.1996
  163SOPE   O1318242   0.014   1.511  11.040 -0.1690  0.4794 -0.5779
  163SOPE   O1418243  -0.226   1.581  11.038  0.1345  0.1642 -0.2668
  163SOPE   O1218244  -0.163   1.391  11.170  0.4794 -0.2623  0.0224
  163SOPE   O1118245  -0.174   1.375  10.924 -0.5536 -0.0067  0.2013
  163SOPE    C118246  -0.303   1.335  10.908 -0.0445 -0.5050  0.5096
  163SOPE    HA18247  -0.368   1.375  10.989 -0.4518  0.4317 -0.2691
  163SOPE    HB18248  -0.317   1.226  10.895 -0.3824 -0.5998  1.5691
  163SOPE    C218249  -0.364   1.392  10.772 -0.3086  0.0849 -0.1780
  163SOPE    HS18250  -0.454   1.331  10.751 -2.7764  3.3943 -0.0143
  163SOPE   O2118251  -0.263   1.376  10.668  0.1663 -0.6332 -0.1190
  163SOPE   C2118252  -0.302   1.347  10.548  0.1322  0.5964 -0.3259
  163SOPE   O2218253  -0.414   1.326  10.512  0.7253 -0.5677 -0.3713
  163SOPE   C2218254  -0.176   1.334  10.460 -0.0889  0.4354 -0.4883
  163SOPE   H2R18255  -0.177   1.230  10.420 -2.0043 -0.1306  0.8947
  163SOPE   H2S18256  -0.088   1.344  10.527  0.3032  0.1306 -0.9501
  163SOPE    C318257  -0.411   1.534  10.777 -0.1317 -0.4569  0.3842
  163SOPE    HX18258  -0.327   1.607  10.782 -0.0448 -0.2233 -2.4937
  163SOPE    HY18259  -0.468   1.551  10.870 -1.0537 -2.3504  0.2078
  163SOPE   O3118260  -0.478   1.579  10.663 -0.5088  0.0210  0.1909
  163SOPE   C3118261  -0.609   1.549  10.657  0.4116  0.6662 -0.0536
  163SOPE   O3218262  -0.666   1.470  10.730  0.1436 -0.3125 -0.1894
  163SOPE   C3218263  -0.667   1.590  10.525 -0.3832  0.3233 -0.0167
  163SOPE   H2X18264  -0.588   1.644  10.469  1.0253  0.6617  2.1812
  163SOPE   H2Y18265  -0.754   1.658  10.537 -0.6798 -0.1695  0.7650
  163SOPE   C2318266  -0.167   1.433  10.344  0.0386 -0.0815 -0.2793
  163SOPE   H3R18267  -0.065   1.425  10.301 -0.8381  0.8583 -2.6911
  163SOPE   H3S18268  -0.178   1.535  10.387  0.1502 -1.6327  3.9725
  163SOPE   C2418269  -0.263   1.406  10.238  0.4317 -0.1555  0.9840
  163SOPE   H4R18270  -0.251   1.303  10.198  1.4355  0.6559 -0.9943
  163SOPE   H4S18271  -0.369   1.428  10.264 -0.6336 -1.7513 -1.5822
  163SOPE   C2518272  -0.223   1.495  10.113  0.0653 -0.6840  0.5208
  163SOPE   H5R18273  -0.226   1.599  10.152 -0.3966 -0.4362 -0.1500
  163SOPE   H5S18274  -0.119   1.470  10.084 -0.2324 -1.4939  0.1260
  163SOPE   C2618275  -0.311   1.483   9.988  0.6480 -0.0292 -0.2821
  163SOPE   H6R18276  -0.285   1.573   9.929 -0.1303  0.5122  0.1819
  163SOPE   H6S18277  -0.293   1.385   9.938  1.4888 -0.1824  0.2903
  163SOPE   C2718278  -0.459   1.489  10.014  0.2411  0.6332 -0.6222
  163SOPE   H7R18279  -0.494   1.401  10.073  1.5829  2.4141  3.1599
  163SOPE   H7S18280  -0.479   1.574  10.083  1.8743 -0.0864  0.8106
  163SOPE   C2818281  -0.539   1.478   9.888 -0.6499  0.2843 -0.4211
  163SOPE   H8R18282  -0.500   1.379   9.854 -0.5373 -0.4264  1.6779
  163SOPE   H8S18283  -0.649   1.481   9.899 -0.3951 -0.3651  3.2903
  163SOPE   C2918284  -0.505   1.587   9.788 -0.7625  0.6035  0.1376
  163SOPE   H9118285  -0.558   1.681   9.806 -0.5887  1.2754 -2.3718
  163SOPE  C21018286  -0.430   1.570   9.678  0.1494  0.6335 -0.0946
  163SOPE  H10118287  -0.409   1.645   9.601  0.5392  0.5110 -0.1095
  163SOPE  C21118288  -0.361   1.446   9.636  0.6912  0.4425 -0.6811
  163SOPE  H11R18289  -0.428   1.358   9.642  1.4093  0.0026  2.7040
  163SOPE  H11S18290  -0.280   1.441   9.712  1.0046 -1.2932 -1.0910
  163SOPE  C21218291  -0.300   1.446   9.495 -0.1509  0.6047  0.5084
  163SOPE  H12R18292  -0.232   1.359   9.486 -2.0337 -0.8745  0.1135
  163SOPE  H12S18293  -0.243   1.541   9.486  0.6839  0.0775  0.1601
  163SOPE  C21318294  -0.393   1.438   9.377 -0.0718 -0.1665 -0.5503
  163SOPE  H13R18295  -0.467   1.521   9.382  0.1710  0.2057 -2.2878
  163SOPE  H13S18296  -0.457   1.347   9.378  1.1625 -1.0723  1.6800
  163SOPE  C21418297  -0.318   1.455   9.240 -0.1245 -0.2741 -0.2593
  163SOPE  H14R18298  -0.232   1.385   9.243  1.3190  1.4043 -0.8020
  163SOPE  H14S18299  -0.285   1.561   9.238  0.7698 -0.5492 -0.8284
  163SOPE  C21518300  -0.406   1.444   9.119 -0.7780  0.0823  0.9627
  163SOPE  H15R18301  -0.502   1.496   9.137  1.0743  3.8880  0.8486
  163SOPE  H15S18302  -0.430   1.338   9.098 -0.2786  0.2199 -0.4315
  163SOPE  C21618303  -0.340   1.507   8.989  0.4538  0.2801 -0.4975
  163SOPE  H16R18304  -0.249   1.455   8.952 -0.0910  0.1994 -1.7458
  163SOPE  H16S18305  -0.309   1.611   9.017  2.5143  0.3386 -2.7326
  163SOPE  C21718306  -0.441   1.522   8.872 -0.0693 -0.1915  0.3093
  163SOPE  H17R18307  -0.512   1.600   8.906  0.2904  1.6666 -2.8275
  163SOPE  H17S18308  -0.492   1.423   8.871  1.4353 -0.9981 -0.5882
  163SOPE  C21818309  -0.382   1.555   8.729  0.8229  0.9983  1.0714
  163SOPE  H18R18310  -0.329   1.652   8.723 -0.8128  1.8480 -0.6198
  163SOPE  H18S18311  -0.459   1.555   8.649  1.6289 -0.2926  0.2632
  163SOPE  H18T18312  -0.307   1.479   8.699  0.7210  1.2241  0.2110
  163SOPE   C3318313  -0.724   1.471  10.453 -0.0845 -0.0127  0.6466
  163SOPE   H3X18314  -0.822   1.439  10.496  0.4338  0.5842  2.3730
  163SOPE   H3Y18315  -0.659   1.382  10.463  0.3000 -0.1911 -2.5317
  163SOPE   C3418316  -0.750   1.478  10.299 -0.3616 -0.1471 -0.3354
  163SOPE   H4X18317  -0.789   1.383  10.257 -2.8314  0.6187  0.0543
  163SOPE   H4Y18318  -0.652   1.503  10.254  0.2284  1.3659  1.6655
  163SOPE   C3518319  -0.861   1.577  10.252 -0.1892  1.1846 -0.1204
  163SOPE   H5X18320  -0.839   1.684  10.274 -1.3285  1.5294 -0.5385
  163SOPE   H5Y18321  -0.958   1.554  10.300  0.1427  2.8968  1.4570
  163SOPE   C3618322  -0.879   1.562  10.097  0.1381  0.2945 -0.0295
  163SOPE   H6X18323  -0.956   1.486  10.073  0.6307 -0.2428  0.0510
  163SOPE   H6Y18324  -0.785   1.531  10.046  0.1139  0.2129 -0.0261
  163SOPE   C3718325  -0.938   1.697  10.040  0.6275  0.1173 -0.5556
  163SOPE   H7X18326  -0.867   1.782  10.040  1.6571 -0.6832  1.2600
  163SOPE   H7Y18327  -1.025   1.718  10.105  1.8183  0.7245  0.8954
  163SOPE   C3818328  -0.986   1.691   9.890 -0.1295 -0.2798  0.7410
  163SOPE   H8X18329  -1.072   1.761   9.883  1.5325  2.0862  2.5173
  163SOPE   H8Y18330  -1.002   1.585   9.860  0.4823 -1.0498  2.9579
  163SOPE   C3918331  -0.871   1.747   9.801 -0.7814 -0.0879 -0.1655
  163SOPE   H9X18332  -0.777   1.694   9.826 -2.3957 -3.1700 -0.1335
  163SOPE   H9Y18333  -0.863   1.856   9.823 -1.2043  0.1015 -0.9210
  163SOPE  C31018334  -0.897   1.733   9.654  0.5919  0.3319  0.3500
  163SOPE  H10X18335  -0.897   1.624   9.630 -1.9068 -0.1974  2.3528
  163SOPE  H10Y18336  -0.806   1.773   9.603  1.9117 -2.1647  0.5810
  163SOPE  C31118337  -1.013   1.812   9.597  1.1805 -0.2257  0.2059
  163SOPE  H11X18338  -1.010   1.908   9.653  0.0351  0.2395 -0.4981
  163SOPE  H11Y18339  -1.102   1.756   9.633  0.3156  0.2038 -1.2107
  163SOPE  C31218340  -0.996   1.833   9.448  0.8441 -0.5844  0.2862
  163SOPE  H12X18341  -1.009   1.737   9.393 -2.2187  0.7073 -1.4830
  163SOPE  H12Y18342  -0.889   1.861   9.437  0.1330  1.7635 -1.3560
  163SOPE  C31318343  -1.100   1.942   9.405  0.3670  0.1874  0.1420
  163SOPE  H13X18344  -1.104   2.023   9.481 -1.1487 -1.1296  1.5710
  163SOPE  H13Y18345  -1.200   1.895   9.390 -0.3246  1.3533  0.9543
  163SOPE  C31418346  -1.052   2.010   9.277 -0.0155  0.1431 -0.0521
  163SOPE  H14X18347  -1.043   1.924   9.206 -3.0709 -1.2609  1.0755
  163SOPE  H14Y18348  -0.947   2.044   9.288  0.4157 -1.2717  0.4350
  163SOPE  C31518349  -1.145   2.125   9.237  0.5858 -0.3667 -0.2360
  163SOPE  H15X18350  -1.109   2.224   9.272  0.1404 -0.5599  0.7761
  163SOPE  H15Y18351  -1.246   2.112   9.281  0.5401  0.4979 -0.0843
  163SOPE  C31618352  -1.139   2.153   9.084  0.3071 -0.3161  0.8935
  163SOPE  H16X18353  -1.236   2.194   9.047  1.1346  0.7842 -0.1080
  163SOPE  H16Y18354  -1.147   2.053   9.037 -1.2696 -0.1330  0.6973
  163SOPE  C31718355  -1.011   2.220   9.029  0.3320  0.3771 -0.2587
  163SOPE  H17X18356  -0.915   2.183   9.071  0.9445 -0.3339 -2.1826
  163SOPE  H17Y18357  -1.002   2.326   9.058  1.5925  0.1311  0.2868
  163SOPE  C31818358  -0.981   2.200   8.884  0.0937  0.3021  0.8226
  163SOPE  H18X18359  -0.878   2.233   8.861  0.0207 -0.8522 -1.4191
  163SOPE  H18Y18360  -1.046   2.265   8.822  2.8914  2.0818 -0.4550
  163SOPE  H18Z18361  -0.996   2.094   8.856 -1.2318  0.8694 -0.8147
  164SOPE     N18362   2.610   0.736  10.996  0.5150 -0.3751  0.2767
  164SOPE   HN118363   2.530   0.700  11.051 -1.2722  0.1450 -1.8217
  164SOPE   HN218364   2.680   0.661  10.980  0.1270 -0.9634  1.2463
  164SOPE   HN318365   2.661   0.813  11.043  1.7734 -0.0365 -1.5156
  164SOPE   C1218366   2.556   0.794  10.871 -0.0475 -0.0020 -0.7981
  164SOPE  H12A18367   2.634   0.856  10.822  1.8081 -1.4858  0.1508
  164SOPE  H12B18368   2.479   0.867  10.902  0.3433  0.1976 -0.2853
  164SOPE   C1118369   2.510   0.675  10.787  0.4312 -0.2739  0.0505
  164SOPE  H11A18370   2.585   0.596  10.767  1.0293  0.1297  0.5993
  164SOPE  H11B18371   2.485   0.711  10.685  0.4997  1.6193  0.6614
  164SOPE     P18372   2.251   0.639  10.818  0.0612 -0.3594 -0.2035
  164SOPE   O1318373   2.243   0.787  10.834 -0.9297  0.2916  0.0122
  164SOPE   O1418374   2.168   0.557  10.907  0.9333  0.6327 -0.2159
  164SOPE   O1218375   2.400   0.611  10.853  0.3118 -0.3479 -0.1317
  164SOPE   O1118376   2.253   0.594  10.666 -0.3985  0.7555  0.0168
  164SOPE    C118377   2.318   0.471  10.641 -0.1261  0.2718 -0.3221
  164SOPE    HA18378   2.268   0.389  10.696  0.2790 -0.1085 -0.5121
  164SOPE    HB18379   2.428   0.470  10.658  0.7659 -3.4922 -4.4091
  164SOPE    C218380   2.309   0.428  10.492  0.1486 -0.1763 -0.3827
  164SOPE    HS18381   2.371   0.338  10.470 -0.1346 -0.3913 -0.3048
  164SOPE   O2118382   2.345   0.537  10.410  0.4994 -0.6093  1.0185
  164SOPE   C2118383   2.474   0.567  10.405  0.2741 -0.3870  0.2639
  164SOPE   O2218384   2.567   0.503  10.451 -0.6494 -0.4900 -0.2555
  164SOPE   C2218385   2.506   0.695  10.318 -0.0851  0.5832  0.1376
  164SOPE   H2R18386   2.616   0.705  10.310 -0.2776  2.9699 -0.6044
  164SOPE   H2S18387   2.463   0.782  10.374 -2.3054 -1.6086  2.0738
  164SOPE    C318388   2.159   0.399  10.451 -0.6901  0.7797 -0.4911
  164SOPE    HX18389   2.095   0.482  10.488  0.3246  0.9121  1.0616
  164SOPE    HY18390   2.124   0.300  10.486  1.2943  0.0618 -0.3981
  164SOPE   O3118391   2.147   0.388  10.309  0.5041  1.0093  0.1296
  164SOPE   C3118392   2.018   0.374  10.263 -0.5903 -0.4287  0.1714
  164SOPE   O3218393   1.921   0.367  10.337 -0.6545 -0.0009  0.2482
  164SOPE   C3218394   2.009   0.367  10.117  0.1295 -0.3520  0.3063
  164SOPE   H2X18395   2.055   0.273  10.081  0.6097  0.0212 -0.0705
  164SOPE   H2Y18396   2.070   0.454  10.085  0.9117 -0.8080  0.5330
  164SOPE   C2318397   2.447   0.689  10.175 -0.8426 -0.1929  0.3418
  164SOPE   H3R18398   2.473   0.784  10.122 -1.1844 -0.9567 -1.2705
  164SOPE   H3S18399   2.336   0.681  10.176 -1.2461  2.8989 -2.4008
  164SOPE   C2418400   2.498   0.569  10.089  0.2636  0.5094  0.5136
  164SOPE   H4R18401   2.603   0.585  10.057 -0.2694 -0.3447 -1.8755
  164SOPE   H4S18402   2.478   0.476  10.147 -1.9406  0.0959 -0.7566
  164SOPE   C2518403   2.412   0.548   9.964 -0.9122  0.1401  0.3352
  164SOPE   H5R18404   2.434   0.450   9.916 -0.1736  0.7831 -0.6723
  164SOPE   H5S18405   2.307   0.545  10.000 -0.4636 -1.1400  1.6031
  164SOPE   C2618406   2.424   0.671   9.866  0.1506  0.3801  0.4244
  164SOPE   H6R18407   2.393   0.765   9.917 -1.0849 -1.5885  3.6802
  164SOPE   H6S18408   2.533   0.672   9.850  0.5078 -0.8257  2.3990
  164SOPE   C2718409   2.346   0.660   9.740  0.7986 -0.3649  0.3890
  164SOPE   H7R18410   2.237   0.669   9.760  0.3874 -0.7463 -1.5059
  164SOPE   H7S18411   2.363   0.755   9.684 -0.8727  0.2250  0.8148
  164SOPE   C2818412   2.370   0.541   9.660  0.4090 -0.2199  0.0777
  164SOPE   H8R18413   2.348   0.454   9.726 -1.6385  0.3829  0.2602
  164SOPE   H8S18414   2.289   0.527   9.586  1.4005 -1.8684 -0.7662
  164SOPE   C2918415   2.512   0.535   9.598  0.0960 -0.6452  0.2230
  164SOPE   H9118416   2.581   0.465   9.647 -0.2142 -0.3820  1.0531
  164SOPE  C21018417   2.549   0.590   9.487 -0.5848 -0.1735 -0.1299
  164SOPE  H10118418   2.651   0.568   9.452 -0.9406 -4.5614  1.0695
  164SOPE  C21118419   2.461   0.675   9.404  0.2095 -0.4258  0.0031
  164SOPE  H11R18420   2.512   0.769   9.376  0.1949 -0.6808 -0.9132
  164SOPE  H11S18421   2.373   0.708   9.464  1.7425 -0.7428  2.5666
  164SOPE  C21218422   2.400   0.600   9.287 -0.2330  0.0762  0.8075
  164SOPE  H12R18423   2.317   0.662   9.248  1.5612  1.7080 -0.6365
  164SOPE  H12S18424   2.359   0.501   9.314 -0.9149  0.4425  1.1334
  164SOPE  C21318425   2.504   0.607   9.173  0.6757  0.3443 -0.5763
  164SOPE  H13R18426   2.596   0.557   9.210 -1.7650 -3.9124  0.4306
  164SOPE  H13S18427   2.543   0.710   9.153 -1.0780  0.6678 -2.7829
  164SOPE  C21418428   2.466   0.522   9.053  0.0694 -0.2061 -0.0621
  164SOPE  H14R18429   2.358   0.532   9.029  0.4689 -0.4803 -2.1781
  164SOPE  H14S18430   2.473   0.414   9.080 -1.0214 -0.1196  0.6024
  164SOPE  C21518431   2.553   0.558   8.939 -0.1340  0.0528  0.6474
  164SOPE  H15R18432   2.657   0.527   8.961  0.0889 -0.8428 -1.3800
  164SOPE  H15S18433   2.548   0.669   8.936  1.9864  0.2899  2.8335
  164SOPE  C21618434   2.499   0.501   8.811 -0.3463 -0.4700  0.8532
  164SOPE  H16R18435   2.395   0.541   8.802 -0.6167 -1.3078  0.1450
  164SOPE  H16S18436   2.502   0.390   8.811  0.0249 -0.5087 -1.5583
  164SOPE  C21718437   2.577   0.547   8.690  0.9163  0.1533  0.2061
  164SOPE  H17R18438   2.541   0.475   8.612 -2.4503  1.2752  0.5590
  164SOPE  H17S18439   2.684   0.545   8.719  1.0461 -1.0561 -0.2697
  164SOPE  C21818440   2.564   0.689   8.638  0.7380 -0.0688 -0.8161
  164SOPE  H18R18441   2.457   0.718   8.639 -0.0879 -2.6140  2.4221
  164SOPE  H18S18442   2.600   0.699   8.533 -2.7069 -0.1282 -2.1075
  164SOPE  H18T18443   2.607   0.769   8.703 -1.1243  2.0796 -2.0971
  164SOPE   C3318444   1.866   0.376  10.062  0.3673  0.2367  0.7943
  164SOPE   H3X18445   1.795   0.419  10.135 -0.0213  0.9889 -0.0106
  164SOPE   H3Y18446   1.836   0.270  10.043  0.1175  0.2357  1.1888
  164SOPE   C3418447   1.861   0.448   9.924  0.6985  0.0676 -0.4289
  164SOPE   H4X18448   1.876   0.558   9.932 -0.3443  0.2500 -0.8468
  164SOPE   H4Y18449   1.755   0.444   9.891  0.6056 -0.0107 -0.1317
  164SOPE   C3518450   1.962   0.404   9.822 -0.1063 -0.2304  0.5058
  164SOPE   H5X18451   1.975   0.294   9.810  0.0463 -0.2357  0.7084
  164SOPE   H5Y18452   2.065   0.436   9.849 -0.1493 -0.5629  1.0785
  164SOPE   C3618453   1.929   0.451   9.674 -0.4964  0.5281 -0.0813
  164SOPE   H6X18454   1.926   0.562   9.673 -0.8058  0.5191 -0.2525
  164SOPE   H6Y18455   1.826   0.415   9.650  0.4473 -0.6359 -2.7335
  164SOPE   C3718456   2.024   0.377   9.576  0.1233 -0.3573  0.2747
  164SOPE   H7X18457   2.022   0.266   9.582  0.2258 -0.6447 -3.1561
  164SOPE   H7Y18458   2.127   0.416   9.593  0.2932 -0.7965  0.2509
  164SOPE   C3818459   1.984   0.403   9.435 -0.1935  0.8803  0.6266
  164SOPE   H8X18460   1.974   0.510   9.407  0.1844  0.5453 -0.8616
  164SOPE   H8Y18461   1.884   0.355   9.432 -0.6252  1.7355  0.8957
  164SOPE   C3918462   2.080   0.338   9.341  0.0671  0.3032 -0.1389
  164SOPE   H9X18463   2.085   0.229   9.364 -1.8825  0.0771 -0.6212
  164SOPE   H9Y18464   2.180   0.379   9.369  1.5077 -1.4919 -2.3069
  164SOPE  C31018465   2.038   0.349   9.199 -0.3125  0.4821  0.6397
  164SOPE  H10X18466   2.018   0.455   9.173  0.0662 -0.1285 -2.4137
  164SOPE  H10Y18467   1.941   0.298   9.182  0.2337 -0.0538 -1.0404
  164SOPE  C31118468   2.146   0.299   9.101 -0.4207 -0.8822 -0.1404
  164SOPE  H11X18469   2.167   0.191   9.117 -0.3204 -0.9156 -0.4824
  164SOPE  H11Y18470   2.234   0.360   9.131 -2.1277  1.8512 -0.3180
  164SOPE  C31218471   2.109   0.355   8.961  0.0698  1.0714 -0.2618
  164SOPE  H12X18472   2.196   0.387   8.900  0.5852 -0.4755 -0.3783
  164SOPE  H12Y18473   2.054   0.451   8.971 -1.3212  0.3632 -0.9013
  164SOPE  C31318474   2.028   0.251   8.878  0.1770 -0.1349 -0.0411
  164SOPE  H13X18475   1.925   0.250   8.920  0.7659  1.9622  1.6620
  164SOPE  H13Y18476   2.074   0.155   8.909  0.1234 -0.1099  0.1185
  164SOPE  C31418477   2.035   0.290   8.731 -0.7235  0.1836  0.2636
  164SOPE  H14X18478   2.128   0.342   8.699 -0.3578 -0.4960  0.2095
  164SOPE  H14Y18479   1.958   0.368   8.713  1.3280  2.4897  0.8358
  164SOPE  C31518480   2.015   0.165   8.636  0.4498  0.3821  0.1919
  164SOPE  H15X18481   1.915   0.116   8.643  0.0096  1.1140 -0.7421
  164SOPE  H15Y18482   2.088   0.085   8.660 -0.6748 -0.7835 -0.1219
  164SOPE  C31618483   2.024   0.207   8.481  0.1677  0.8065  0.1398
  164SOPE  H16X18484   2.131   0.231   8.466  0.5512 -1.6402 -1.6296
  164SOPE  H16Y18485   1.956   0.293   8.464 -0.6022  0.2129  0.1039
  164SOPE  C31718486   1.975   0.106   8.368 -0.1644 -0.6047  0.3264
  164SOPE  H17X18487   1.981   0.149   8.266 -0.7221 -1.2259  0.0293
  164SOPE  H17Y18488   1.871   0.071   8.387  0.0533 -1.3766  0.1406
  164SOPE  C31818489   2.064  -0.015   8.369  0.2642 -0.7841 -0.3215
  164SOPE  H18X18490   2.171   0.011   8.355  0.3391 -0.0168  1.3969
  164SOPE  H18Y18491   2.046  -0.099   8.298  0.0981 -0.7627 -0.3046
  164SOPE  H18Z18492   2.055  -0.056   8.472 -0.0454 -1.0804 -0.4635
  165SOPE     N18493   0.737   1.724  10.726 -0.5602 -0.4345  0.7124
  165SOPE   HN118494   0.819   1.676  10.684  1.1041  0.3802  2.8292
  165SOPE   HN218495   0.775   1.777  10.807  0.7882 -3.2238  2.0307
  165SOPE   HN318496   0.679   1.645  10.761  0.7690 -1.3210  0.9925
  165SOPE   C1218497   0.659   1.811  10.631 -0.4888  0.5897  0.0264
  165SOPE  H12A18498   0.703   1.786  10.532 -0.1085  0.4890  0.2198
  165SOPE  H12B18499   0.673   1.917  10.658 -0.6111  0.5163  0.3801
  165SOPE   C1118500   0.509   1.780  10.629  0.9761 -0.1672  0.7459
  165SOPE  H11A18501   0.482   1.681  10.588  1.9997  1.0208 -3.2266
  165SOPE  H11B18502   0.466   1.856  10.560 -0.2172  0.1319  1.7783
  165SOPE     P18503   0.334   1.887  10.797  0.1288  0.1995  0.1959
  165SOPE   O1318504   0.339   2.024  10.750 -0.5412 -0.3621 -0.3225
  165SOPE   O1418505   0.302   1.864  10.940  0.8627 -0.2701  0.4365
  165SOPE   O1218506   0.456   1.800  10.762 -0.7969 -0.0561 -0.1287
  165SOPE   O1118507   0.232   1.814  10.700  0.4770  0.0422  0.2850
  165SOPE    C118508   0.189   1.680  10.714 -1.0452 -0.1622 -0.1778
  165SOPE    HA18509   0.169   1.646  10.818  0.3983  0.6530  0.3951
  165SOPE    HB18510   0.271   1.618  10.670 -0.0527  1.1710 -0.2561
  165SOPE    C218511   0.063   1.658  10.638  0.0837  0.0279  0.3575
  165SOPE    HS18512   0.022   1.555  10.650 -0.3379  0.2933  1.2868
  165SOPE   O2118513   0.083   1.689  10.498 -0.1622 -0.1031  0.1772
  165SOPE   C2118514   0.164   1.610  10.431 -0.2774 -0.4628  0.0950
  165SOPE   O2218515   0.198   1.496  10.466  0.5806  0.1966  0.3350
  165SOPE   C2218516   0.188   1.676  10.295  0.3330 -0.2427 -0.5338
  165SOPE   H2R18517   0.288   1.725  10.296 -0.4765  1.4898  0.7046
  165SOPE   H2S18518   0.116   1.755  10.264  0.3687 -0.2307 -0.5870
  165SOPE    C318519  -0.053   1.739  10.699  0.0477 -0.2212  0.0591
  165SOPE    HX18520  -0.011   1.839  10.726 -1.8837  1.1062 -1.5181
  165SOPE    HY18521  -0.081   1.686  10.792  1.1568  0.1347  0.6126
  165SOPE   O3118522  -0.155   1.744  10.598  0.0379  0.6938 -0.3177
  165SOPE   C3118523  -0.228   1.847  10.591 -0.2916  0.0974  0.0255
  165SOPE   O3218524  -0.228   1.938  10.671  0.0084 -0.1789  0.0987
  165SOPE   C3218525  -0.314   1.842  10.472  0.1707  1.2666 -0.1189
  165SOPE   H2X18526  -0.408   1.894  10.501  0.1209  0.7301  0.7008
  165SOPE   H2Y18527  -0.341   1.737  10.448  2.1546  0.9764 -1.2525
  165SOPE   C2318528   0.191   1.562  10.197  0.2801 -0.2916 -0.3266
  165SOPE   H3R18529   0.097   1.504  10.207  0.1171  0.0212 -0.0220
  165SOPE   H3S18530   0.261   1.479  10.222 -0.5884  0.1277  4.3444
  165SOPE   C2418531   0.221   1.597  10.049  0.4475 -0.4390 -0.3633
  165SOPE   H4R18532   0.311   1.661  10.037 -0.0262  0.2351 -0.3891
  165SOPE   H4S18533   0.234   1.507   9.986  1.7152  0.9714 -2.2209
  165SOPE   C2518534   0.103   1.680   9.988  1.2126  0.0854 -0.0169
  165SOPE   H5R18535   0.001   1.649  10.017  1.8354 -1.9305  0.2241
  165SOPE   H5S18536   0.114   1.784  10.024  0.5538 -0.9636  3.6293
  165SOPE   C2618537   0.112   1.686   9.840  0.3482 -0.0810  0.0481
  165SOPE   H6R18538   0.201   1.743   9.806 -2.1033  1.9858 -3.4702
  165SOPE   H6S18539   0.122   1.583   9.799  1.4006  0.4886 -1.1805
  165SOPE   C2718540  -0.013   1.750   9.773  0.0814 -0.7758 -0.6204
  165SOPE   H7R18541  -0.102   1.715   9.830 -0.2622 -0.1550 -0.7661
  165SOPE   H7S18542  -0.004   1.858   9.795  0.1663 -1.2047  1.6861
  165SOPE   C2818543  -0.026   1.715   9.629  0.7126 -0.6199 -0.0643
  165SOPE   H8R18544  -0.051   1.608   9.614  0.7953 -0.6561  0.0550
  165SOPE   H8S18545  -0.119   1.763   9.592  2.2493  2.9167  0.2726
  165SOPE   C2918546   0.099   1.779   9.560 -0.0079  0.3097 -0.3911
  165SOPE   H9118547   0.193   1.723   9.571 -0.5747 -0.3407  1.4296
  165SOPE  C21018548   0.097   1.902   9.497  0.2248 -0.2450 -0.1561
  165SOPE  H10118549   0.189   1.936   9.448 -0.3325  0.5680 -0.6755
  165SOPE  C21118550  -0.022   1.997   9.473  0.5580 -0.1688  0.2751
  165SOPE  H11R18551  -0.002   2.098   9.513  1.8001 -0.9096  1.6104
  165SOPE  H11S18552  -0.114   1.963   9.524  0.5093 -0.9696 -0.3256
  165SOPE  C21218553  -0.052   2.003   9.315  0.1079 -0.1383  0.6634
  165SOPE  H12R18554   0.032   2.042   9.255  1.5190 -0.8623  2.0940
  165SOPE  H12S18555  -0.149   2.056   9.304 -0.3441 -1.3046 -1.4701
  165SOPE  C21318556  -0.093   1.865   9.256 -0.1217 -0.0966 -0.1729
  165SOPE  H13R18557  -0.177   1.825   9.316 -0.0887  1.3449  0.8764
  165SOPE  H13S18558  -0.007   1.796   9.271  0.3064  0.6972  1.2207
  165SOPE  C21418559  -0.121   1.867   9.104  0.1047 -0.1379 -0.9937
  165SOPE  H14R18560  -0.148   1.762   9.079 -0.6030 -0.8692  2.4220
  165SOPE  H14S18561  -0.026   1.891   9.051  1.0970  2.1717  1.5840
  165SOPE  C21518562  -0.238   1.960   9.061 -0.5292  0.7128 -0.2025
  165SOPE  H15R18563  -0.224   2.063   9.102 -0.3851  0.4930  0.3062
  165SOPE  H15S18564  -0.327   1.928   9.119 -1.1658 -0.2694 -1.6773
  165SOPE  C21618565  -0.273   1.967   8.909 -0.2863 -0.0270  0.2260
  165SOPE  H16R18566  -0.306   1.866   8.877  1.9108 -0.7465  0.0929
  165SOPE  H16S18567  -0.178   1.987   8.856  0.4429 -2.4385  0.5174
  165SOPE  C21718568  -0.377   2.072   8.879  0.2794 -0.5765  0.0796
  165SOPE  H17R18569  -0.326   2.170   8.888 -1.2639  0.1563  1.5617
  165SOPE  H17S18570  -0.458   2.065   8.955  3.2286 -0.5642  3.4539
  165SOPE  C21818571  -0.428   2.044   8.740  0.1122 -0.5616 -0.3584
  165SOPE  H18R18572  -0.529   2.085   8.720  0.5074 -0.4369 -2.3373
  165SOPE  H18S18573  -0.440   1.935   8.724  0.6774 -0.4682 -1.5831
  165SOPE  H18T18574  -0.355   2.072   8.661  1.0311 -1.3336  0.1883
  165SOPE   C3318575  -0.258   1.891  10.340 -0.6558  0.2616  0.3363
  165SOPE   H3X18576  -0.168   1.827  10.325 -1.3223 -0.3615 -1.2256
  165SOPE   H3Y18577  -0.228   1.997  10.356 -0.0652 -0.2097  2.8178
  165SOPE   C3418578  -0.362   1.877  10.222 -0.4582  0.5073 -0.8116
  165SOPE   H4X18579  -0.439   1.956  10.232 -1.3315 -0.2248 -1.5542
  165SOPE   H4Y18580  -0.416   1.781  10.236  1.0830 -0.2387  0.3716
  165SOPE   C3518581  -0.312   1.904  10.074 -0.2335  0.0104  0.2934
  165SOPE   H5X18582  -0.237   1.827  10.045  3.1269  3.3177 -0.5280
  165SOPE   H5Y18583  -0.256   2.000  10.077  3.0021 -1.7431  0.1603
  165SOPE   C3618584  -0.423   1.917   9.961  0.1531 -0.3951  1.2312
  165SOPE   H6X18585  -0.485   2.009   9.972  0.2973  0.0547 -1.1838
  165SOPE   H6Y18586  -0.475   1.819   9.963  1.2904 -1.0516  0.1802
  165SOPE   C3718587  -0.361   1.923   9.817 -0.3211  0.3508 -0.2360
  165SOPE   H7X18588  -0.301   1.831   9.802  1.8867  1.8031 -0.7226
  165SOPE   H7Y18589  -0.280   1.998   9.823 -0.1493  0.1042  0.6512
  165SOPE   C3818590  -0.451   1.960   9.700  0.5787  0.1696 -0.8840
  165SOPE   H8X18591  -0.505   2.049   9.740  2.3241  1.4030 -1.1494
  165SOPE   H8Y18592  -0.520   1.876   9.677  1.3484 -0.5070 -0.7654
  165SOPE   C3918593  -0.378   1.993   9.572  0.1764  0.8207 -0.4410
  165SOPE   H9X18594  -0.312   1.910   9.542  0.1722 -0.0730  1.8445
  165SOPE   H9Y18595  -0.304   2.076   9.577  0.3127  0.9649 -3.1057
  165SOPE  C31018596  -0.475   2.032   9.456 -0.0214  0.9865 -0.3723
  165SOPE  H10X18597  -0.423   2.081   9.371  1.6856 -1.8036 -1.0972
  165SOPE  H10Y18598  -0.555   2.090   9.505  0.4383  1.0011  0.3777
  165SOPE  C31118599  -0.537   1.908   9.377 -0.2266  0.1276 -0.3444
  165SOPE  H11X18600  -0.612   1.863   9.446 -0.1483  0.4458 -0.0482
  165SOPE  H11Y18601  -0.463   1.830   9.350  0.0357  0.4481 -0.5552
  165SOPE  C31218602  -0.614   1.934   9.249 -0.0888 -0.5612 -0.2242
  165SOPE  H12X18603  -0.539   1.977   9.178 -0.3177  0.8327  0.3435
  165SOPE  H12Y18604  -0.682   2.018   9.275 -0.6748 -1.5619  1.6451
  165SOPE  C31318605  -0.682   1.811   9.188  0.6246 -0.0602  0.3917
  165SOPE  H13X18606  -0.766   1.778   9.253 -0.2227  0.0260 -0.6208
  165SOPE  H13Y18607  -0.615   1.723   9.179  1.3971  0.2348  2.7749
  165SOPE  C31418608  -0.752   1.861   9.066  0.0051 -0.0688  0.4141
  165SOPE  H14X18609  -0.674   1.883   8.990  0.0956 -0.9102  0.2444
  165SOPE  H14Y18610  -0.807   1.953   9.093 -1.3917 -0.9253  0.5490
  165SOPE  C31518611  -0.854   1.759   9.008  0.2132 -0.2647 -0.1298
  165SOPE  H15X18612  -0.880   1.826   8.923  0.7621  2.1759  1.5054
  165SOPE  H15Y18613  -0.940   1.757   9.078  0.3937  2.2268  0.2688
  165SOPE  C31618614  -0.799   1.620   8.965  0.0766  0.5950 -0.1283
  165SOPE  H16X18615  -0.736   1.579   9.047  1.1914  1.5102 -0.5045
  165SOPE  H16Y18616  -0.733   1.625   8.876  0.5428  1.0398  0.2347
  165SOPE  C31718617  -0.905   1.517   8.929 -0.3180  0.1100  0.6268
  165SOPE  H17X18618  -0.958   1.556   8.840 -0.3085  0.1674  0.6461
  165SOPE  H17Y18619  -0.989   1.509   9.001 -0.3954 -0.2122  0.5030
  165SOPE  C31818620  -0.848   1.376   8.891  0.6197 -0.5111  0.0763
  165SOPE  H18X18621  -0.740   1.399   8.881  0.1792  1.5735 -0.2709
  165SOPE  H18Y18622  -0.877   1.324   8.797  0.4973 -0.2613 -0.0253
  165SOPE  H18Z18623  -0.854   1.311   8.981 -0.4006  0.7246  0.9383
  166SOPE     N18624   5.584   6.371  10.831 -0.0244  0.6970  0.0579
  166SOPE   HN118625   5.546   6.385  10.735 -0.9332 -0.4984  0.2214
  166SOPE   HN218626   5.666   6.435  10.837 -0.5704  1.3335  0.9156
  166SOPE   HN318627   5.620   6.273  10.836  0.8496  0.9998 -0.0274
  166SOPE   C1218628   5.490   6.400  10.944  0.5933  0.3961  0.3917
  166SOPE  H12A18629   5.452   6.504  10.929 -1.4500 -0.6367 -2.5906
  166SOPE  H12B18630   5.536   6.389  11.044  1.5683  0.5624 -0.0322
  166SOPE   C1118631   5.358   6.318  10.925 -0.4075 -0.4199 -0.0970
  166SOPE  H11A18632   5.281   6.366  10.989 -2.5855 -1.6129 -1.6844
  166SOPE  H11B18633   5.381   6.217  10.966  0.4296  0.1349  0.8373
  166SOPE     P18634   5.177   6.216  10.777  0.6135 -0.3165 -0.3794
  166SOPE   O1318635   5.057   6.289  10.816 -0.0558  0.5550  0.3725
  166SOPE   O1418636   5.213   6.094  10.853  0.0509  0.6367  0.6004
  166SOPE   O1218637   5.302   6.313  10.788 -0.4404  0.5467  0.2689
  166SOPE   O1118638   5.169   6.166  10.631 -0.0266  0.0520  0.6805
  166SOPE    C118639   5.283   6.156  10.544  0.1653 -0.6963  0.1712
  166SOPE    HA18640   5.289   6.051  10.510 -0.7009 -1.2870  1.7488
  166SOPE    HB18641   5.378   6.179  10.599 -0.2674 -0.1041  0.6909
  166SOPE    C218642   5.278   6.252  10.422  0.0114  0.5790  0.2504
  166SOPE    HS18643   5.284   6.356  10.461  0.5782 -0.1121  2.1788
  166SOPE   O2118644   5.156   6.227  10.353 -0.3959  0.5417 -0.5871
  166SOPE   C2118645   5.055   6.306  10.370 -0.2438 -0.5458 -0.2293
  166SOPE   O2218646   5.067   6.419  10.422 -0.1722 -0.0766  0.9700
  166SOPE   C2218647   4.932   6.258  10.298  0.2526  0.3791  0.0404
  166SOPE   H2R18648   4.855   6.338  10.286 -1.8007 -1.2899  1.4390
  166SOPE   H2S18649   4.877   6.186  10.362  1.0217 -0.9755 -0.7673
  166SOPE    C318650   5.398   6.238  10.325  0.6859  0.2358 -0.0568
  166SOPE    HX18651   5.404   6.134  10.288  0.4663  0.2057 -0.0055
  166SOPE    HY18652   5.498   6.246  10.373  0.4798  1.7471  0.1835
  166SOPE   O3118653   5.378   6.313  10.198 -0.4486  0.1972 -0.0361
  166SOPE   C3118654   5.424   6.429  10.218 -0.4486 -0.5009  0.0434
  166SOPE   O3218655   5.461   6.476  10.331 -0.2299  0.3415  0.2597
  166SOPE   C3218656   5.388   6.507  10.094  0.2165 -0.3957 -0.3277
  166SOPE   H2X18657   5.361   6.437  10.012 -1.5672  0.5534 -0.5849
  166SOPE   H2Y18658   5.479   6.562  10.060 -0.4858  0.0622 -1.5530
  166SOPE   C2318659   4.956   6.185  10.164 -0.0778 -0.4842 -0.5134
  166SOPE   H3R18660   4.882   6.106  10.143  0.0916 -1.1005  1.0899
  166SOPE   H3S18661   5.042   6.116  10.174 -0.0135 -0.0272  3.6762
  166SOPE   C2418662   4.982   6.280  10.051 -0.3274 -0.3530  0.4037
  166SOPE   H4R18663   4.889   6.339  10.036 -0.2862 -0.7107 -1.4106
  166SOPE   H4S18664   5.067   6.350  10.069 -0.1220  0.1408 -2.1063
  166SOPE   C2518665   5.019   6.201   9.926 -0.7925 -0.6436 -0.5595
  166SOPE   H5R18666   5.111   6.143   9.947  1.0365  1.6445 -1.6891
  166SOPE   H5S18667   4.932   6.133   9.922 -0.8244 -0.5949 -0.7360
  166SOPE   C2618668   5.043   6.293   9.793  0.0952 -0.2732 -0.0985
  166SOPE   H6R18669   5.074   6.395   9.824 -0.5167  0.1454 -0.8213
  166SOPE   H6S18670   5.114   6.242   9.725 -0.6340 -1.1346 -0.2354
  166SOPE   C2718671   4.903   6.322   9.730 -0.3107  0.2593  0.1832
  166SOPE   H7R18672   4.824   6.306   9.806  1.0704 -4.9634  0.8939
  166SOPE   H7S18673   4.910   6.426   9.692  1.4340  0.5579  1.2475
  166SOPE   C2818674   4.873   6.239   9.603  0.0760  0.6542 -0.0648
  166SOPE   H8R18675   4.964   6.252   9.542  1.0521 -0.4843  1.0788
  166SOPE   H8S18676   4.877   6.135   9.644 -0.7821  0.4519 -0.4693
  166SOPE   C2918677   4.750   6.278   9.522  0.1281  0.2007  0.0037
  166SOPE   H9118678   4.686   6.357   9.565  1.7440  1.2932  0.4891
  166SOPE  C21018679   4.717   6.228   9.403 -0.4365  0.2124 -1.1157
  166SOPE  H10118680   4.617   6.242   9.361 -0.7793  0.6932 -0.1738
  166SOPE  C21118681   4.795   6.112   9.339  0.0643 -0.0334  1.0693
  166SOPE  H11R18682   4.727   6.024   9.333 -1.1590  0.9572 -0.7631
  166SOPE  H11S18683   4.891   6.076   9.381  1.2296  0.1403 -1.2947
  166SOPE  C21218684   4.834   6.155   9.192 -0.0418 -0.1305 -0.3046
  166SOPE  H12R18685   4.898   6.080   9.141 -1.2892 -0.0313 -2.0762
  166SOPE  H12S18686   4.901   6.242   9.210  1.0794 -1.4261  2.3917
  166SOPE  C21318687   4.714   6.190   9.095  0.5391 -0.0865 -0.1311
  166SOPE  H13R18688   4.664   6.279   9.138 -0.1350 -0.4599 -0.1343
  166SOPE  H13S18689   4.646   6.102   9.099 -1.7458  1.6419  1.5965
  166SOPE  C21418690   4.763   6.243   8.959 -0.3325 -0.5444 -0.8801
  166SOPE  H14R18691   4.836   6.177   8.907 -0.3613 -0.9659 -0.3913
  166SOPE  H14S18692   4.807   6.343   8.978  2.4099 -1.7683 -0.2023
  166SOPE  C21518693   4.644   6.245   8.868  0.0601  0.5375  0.6145
  166SOPE  H15R18694   4.556   6.292   8.916 -1.2056 -2.3324  1.3001
  166SOPE  H15S18695   4.602   6.145   8.848  2.1047  0.2215 -2.8414
  166SOPE  C21618696   4.667   6.304   8.722 -0.5682  0.9796  0.1931
  166SOPE  H16R18697   4.759   6.250   8.692 -1.4760  0.2500 -1.3875
  166SOPE  H16S18698   4.700   6.409   8.732  0.9206  0.6649 -1.0582
  166SOPE  C21718699   4.547   6.289   8.622 -0.3005  0.2947 -0.5204
  166SOPE  H17R18700   4.466   6.341   8.678 -0.9743 -1.1950 -0.0653
  166SOPE  H17S18701   4.512   6.184   8.613  0.5081 -0.4246  3.0795
  166SOPE  C21818702   4.580   6.342   8.484  0.2260 -0.4352  0.2121
  166SOPE  H18R18703   4.492   6.344   8.417  1.5881  3.8153 -1.7836
  166SOPE  H18S18704   4.660   6.284   8.433 -1.7908 -2.3800 -0.9294
  166SOPE  H18T18705   4.611   6.448   8.490 -0.9391 -0.0659 -0.1654
  166SOPE   C3318706   5.264   6.595  10.117 -0.4123  0.0864 -0.3089
  166SOPE   H3X18707   5.303   6.684  10.172  0.6448 -0.2925 -0.4250
  166SOPE   H3Y18708   5.190   6.542  10.182  0.5086  1.8390  2.3516
  166SOPE   C3418709   5.189   6.625   9.992 -0.1698 -0.1338 -0.2544
  166SOPE   H4X18710   5.109   6.701  10.010 -0.4915 -0.3184 -0.8825
  166SOPE   H4Y18711   5.138   6.528   9.973  2.1645 -1.5682  0.4182
  166SOPE   C3518712   5.270   6.685   9.879 -0.3047 -0.0936 -0.0994
  166SOPE   H5X18713   5.350   6.613   9.851 -0.4567 -0.0084 -0.7628
  166SOPE   H5Y18714   5.322   6.779   9.909  1.3008 -1.4789  1.7152
  166SOPE   C3618715   5.180   6.723   9.767  0.1869  0.1647  0.1076
  166SOPE   H6X18716   5.112   6.799   9.810 -0.6726 -1.0478  0.9623
  166SOPE   H6Y18717   5.114   6.637   9.740  0.5788  0.6946 -2.9519
  166SOPE   C3718718   5.248   6.781   9.644 -0.3296  0.0352 -0.3212
  166SOPE   H7X18719   5.316   6.711   9.591 -3.4074 -2.6839 -1.0036
  166SOPE   H7Y18720   5.306   6.868   9.681  0.3936  0.4689 -2.3360
  166SOPE   C3818721   5.157   6.840   9.531  0.4633 -0.2100 -0.2485
  166SOPE   H8X18722   5.117   6.935   9.572  0.4045 -1.3346  2.5486
  166SOPE   H8Y18723   5.078   6.775   9.488 -0.9098  2.8714 -2.7429
  166SOPE   C3918724   5.239   6.875   9.402 -0.4851 -0.0259 -0.5492
  166SOPE   H9X18725   5.286   6.783   9.361  3.9202  1.2242  1.0385
  166SOPE   H9Y18726   5.325   6.936   9.437 -0.5340  0.6271 -1.5440
  166SOPE  C31018727   5.176   6.953   9.285 -0.1583 -0.6357 -0.5381
  166SOPE  H10X18728   5.259   6.980   9.217 -0.6773  1.8062 -0.2996
  166SOPE  H10Y18729   5.119   7.047   9.307 -0.2899 -0.5693 -1.1455
  166SOPE  C31118730   5.085   6.861   9.200  0.6225 -0.2135 -0.1766
  166SOPE  H11X18731   5.047   6.782   9.268  1.0585 -0.4616 -0.2201
  166SOPE  H11Y18732   5.147   6.806   9.126 -0.4920 -1.1242 -0.4698
  166SOPE  C31218733   4.986   6.939   9.126 -0.0149 -0.2680  0.1095
  166SOPE  H12X18734   4.929   7.014   9.185  0.9240  0.1196  0.5401
  166SOPE  H12Y18735   4.911   6.872   9.080  1.5434 -0.9112 -1.6238
  166SOPE  C31318736   5.050   7.005   9.006  0.6509  0.0594 -0.4049
  166SOPE  H13X18737   5.157   7.009   9.035  0.7411 -1.7967 -0.3220
  166SOPE  H13Y18738   5.002   7.105   9.000 -1.1277 -0.7000  0.2482
  166SOPE  C31418739   5.043   6.931   8.870 -0.3343  0.1528  0.3306
  166SOPE  H14X18740   4.936   6.926   8.840 -0.4656  0.3713  0.7552
  166SOPE  H14Y18741   5.094   6.834   8.890  0.3408  0.6547  1.0964
  166SOPE  C31518742   5.129   7.005   8.767  0.0406 -0.0872 -0.3043
  166SOPE  H15X18743   5.137   6.937   8.680 -0.8277 -1.0453  0.3371
  166SOPE  H15Y18744   5.228   7.031   8.811  0.1264 -0.6806 -0.1359
  166SOPE  C31618745   5.061   7.133   8.710 -0.4169  0.1075  0.2284
  166SOPE  H16X18746   5.083   7.224   8.770 -0.3534 -1.9639  3.5974
  166SOPE  H16Y18747   4.950   7.126   8.708 -0.4042  0.0891 -0.9290
  166SOPE  C31718748   5.098   7.153   8.563  0.1110 -0.9071 -1.0032
  166SOPE  H17X18749   5.050   7.247   8.529 -0.5928 -1.6448 -2.1037
  166SOPE  H17Y18750   5.043   7.078   8.503  0.1614 -2.7341  1.0889
  166SOPE  C31818751   5.250   7.176   8.529 -0.6211  0.0821 -0.4728
  166SOPE  H18X18752   5.271   7.175   8.420  0.7152 -2.0403 -0.2555
  166SOPE  H18Y18753   5.309   7.097   8.581 -0.5494  1.2100  1.2504
  166SOPE  H18Z18754   5.298   7.263   8.579 -1.7731  0.0231  0.8117
  167SOPE     N18755   2.437   5.934   6.322 -0.5605  0.3850 -0.0849
  167SOPE   HN118756   2.387   6.014   6.365 -0.4888  0.6281 -0.4472
  167SOPE   HN218757   2.538   5.957   6.307 -0.6659  2.2722  1.6387
  167SOPE   HN318758   2.394   5.887   6.240 -2.6007  1.2215  0.4577
  167SOPE   C1218759   2.433   5.833   6.434 -0.7338  0.8351  0.2300
  167SOPE  H12A18760   2.328   5.812   6.464  0.3680 -2.3161  2.4901
  167SOPE  H12B18761   2.494   5.875   6.517 -1.1444  1.1472  0.3752
  167SOPE   C1118762   2.484   5.693   6.395 -0.2733 -1.0292  0.6365
  167SOPE  H11A18763   2.495   5.624   6.481  0.1474 -1.6251  0.1170
  167SOPE  H11B18764   2.587   5.699   6.353 -1.0195 -0.2949 -1.2093
  167SOPE     P18765   2.377   5.479   6.288  0.2033  0.1771 -0.2570
  167SOPE   O1318766   2.485   5.428   6.203 -0.0200  0.9323 -0.0400
  167SOPE   O1418767   2.235   5.445   6.257 -0.0279 -0.2932 -0.1487
  167SOPE   O1218768   2.386   5.643   6.302 -0.4546  0.7508  0.1809
  167SOPE   O1118769   2.418   5.434   6.434 -0.3451 -0.4150  0.8563
  167SOPE    C118770   2.337   5.362   6.524  0.4726 -0.1090  0.9292
  167SOPE    HA18771   2.394   5.283   6.576 -0.5197 -0.1618  1.9899
  167SOPE    HB18772   2.254   5.309   6.472 -0.6327  0.7085  1.8007
  167SOPE    C218773   2.259   5.444   6.632  0.0033  0.0865 -0.2535
  167SOPE    HS18774   2.238   5.541   6.582  0.1761 -0.1683 -0.8298
  167SOPE   O2118775   2.345   5.468   6.744 -0.3667 -0.0512 -0.4176
  167SOPE   C2118776   2.377   5.587   6.767  0.0103 -0.2986 -0.0359
  167SOPE   O2218777   2.359   5.687   6.700  0.1889  0.0902  0.5504
  167SOPE   C2218778   2.452   5.588   6.900 -0.7467 -0.9075  0.5108
  167SOPE   H2R18779   2.541   5.522   6.889 -1.1620 -1.6133  1.2727
  167SOPE   H2S18780   2.387   5.537   6.974 -1.8781  2.1654  1.7529
  167SOPE    C318781   2.123   5.379   6.671 -0.2406  0.1732 -0.1114
  167SOPE    HX18782   2.048   5.381   6.589 -2.3421  1.7006  1.7574
  167SOPE    HY18783   2.074   5.447   6.743  2.9846  2.5003  0.1163
  167SOPE   O3118784   2.133   5.238   6.715  0.3842  0.1796 -0.3089
  167SOPE   C3118785   2.143   5.226   6.846 -0.1870  0.5865 -0.0898
  167SOPE   O3218786   2.130   5.320   6.924  0.2342 -0.4857 -0.2208
  167SOPE   C3218787   2.188   5.091   6.893  0.0280 -0.3774  0.1199
  167SOPE   H2X18788   2.131   5.005   6.851  0.1995 -0.2357 -0.4051
  167SOPE   H2Y18789   2.162   5.085   7.001 -0.3469  0.1723  0.0652
  167SOPE   C2318790   2.489   5.733   6.946  0.2245 -0.1024  0.3181
  167SOPE   H3R18791   2.398   5.789   6.975 -0.1569  0.0351 -1.0501
  167SOPE   H3S18792   2.534   5.779   6.855 -0.2804 -2.2742 -1.0983
  167SOPE   C2418793   2.592   5.733   7.058 -0.1829  0.8660  0.7787
  167SOPE   H4R18794   2.681   5.676   7.024 -0.3710  0.8125  0.3629
  167SOPE   H4S18795   2.628   5.838   7.070  1.2910  0.1747  2.7341
  167SOPE   C2518796   2.525   5.685   7.182  0.2922  0.2591  0.2645
  167SOPE   H5R18797   2.417   5.712   7.190 -0.5590 -2.7134 -0.0866
  167SOPE   H5S18798   2.524   5.574   7.187 -0.1186  0.2075 -0.7441
  167SOPE   C2618799   2.595   5.719   7.317 -0.4377 -0.2993  0.3846
  167SOPE   H6R18800   2.704   5.697   7.311  0.2873  2.6598  1.3086
  167SOPE   H6S18801   2.598   5.827   7.339  0.3929 -0.3665  0.6643
  167SOPE   C2718802   2.527   5.663   7.438 -0.5875 -0.1441 -0.2780
  167SOPE   H7R18803   2.420   5.669   7.409 -0.9119  2.4442  1.2199
  167SOPE   H7S18804   2.559   5.557   7.452 -0.4707 -0.1077 -0.2656
  167SOPE   C2818805   2.552   5.735   7.575  0.0089  0.0582 -0.3272
  167SOPE   H8R18806   2.649   5.700   7.616  0.0347  2.4773  1.9088
  167SOPE   H8S18807   2.574   5.843   7.571 -1.9558  0.5297  0.5485
  167SOPE   C2918808   2.449   5.711   7.677  0.1831 -0.1888  0.4662
  167SOPE   H9118809   2.352   5.750   7.643  0.1952 -1.2401 -0.8445
  167SOPE  C21018810   2.465   5.662   7.798  0.6368 -0.6501  0.2777
  167SOPE  H10118811   2.375   5.669   7.861  0.9185  1.6466  0.5196
  167SOPE  C21118812   2.584   5.600   7.863 -0.4456 -0.0801 -0.2189
  167SOPE  H11R18813   2.625   5.674   7.936 -0.6299  0.0378 -0.2348
  167SOPE  H11S18814   2.660   5.591   7.783  0.0371 -1.3267  0.3535
  167SOPE  C21218815   2.556   5.451   7.909 -0.3503 -0.8301 -1.1354
  167SOPE  H12R18816   2.647   5.410   7.958  0.6906  1.1610 -1.3214
  167SOPE  H12S18817   2.545   5.387   7.818 -0.6836 -0.1596 -1.5719
  167SOPE  C21318818   2.437   5.432   8.001  0.2478  0.7011 -0.6594
  167SOPE  H13R18819   2.417   5.324   8.014 -1.7864  0.7868 -2.5407
  167SOPE  H13S18820   2.341   5.465   7.955 -2.3882  0.7367  4.1959
  167SOPE  C21418821   2.460   5.506   8.139 -0.3818  0.7549  0.6361
  167SOPE  H14R18822   2.492   5.611   8.122  1.5347  0.3480  1.4850
  167SOPE  H14S18823   2.553   5.455   8.173 -1.2928 -2.6117 -1.4677
  167SOPE  C21518824   2.346   5.513   8.238 -0.7923  0.6969  0.1279
  167SOPE  H15R18825   2.329   5.406   8.259 -0.1195  0.5289 -0.1517
  167SOPE  H15S18826   2.252   5.558   8.201  0.2139  1.3666 -1.7847
  167SOPE  C21618827   2.384   5.601   8.363  0.8087  0.5495 -0.1343
  167SOPE  H16R18828   2.409   5.708   8.345  1.9853  0.3732  0.4010
  167SOPE  H16S18829   2.481   5.560   8.399  0.7699  0.5993  0.0244
  167SOPE  C21718830   2.279   5.604   8.474 -0.1438  0.0688  0.4526
  167SOPE  H17R18831   2.273   5.503   8.520  1.2972 -0.5598 -0.6383
  167SOPE  H17S18832   2.184   5.632   8.425  1.1324  3.3343 -0.4204
  167SOPE  C21818833   2.299   5.709   8.582 -0.5054  0.0761 -0.2219
  167SOPE  H18R18834   2.400   5.694   8.625  0.0864 -0.1172 -1.6124
  167SOPE  H18S18835   2.216   5.703   8.655 -0.4053  2.1944  0.1365
  167SOPE  H18T18836   2.295   5.812   8.539  1.8937  0.7436  0.9723
  167SOPE   C3318837   2.341   5.083   6.876 -0.8903  0.1134  0.0842
  167SOPE   H3X18838   2.370   5.085   6.769  0.0106 -1.3581  0.2758
  167SOPE   H3Y18839   2.374   4.983   6.912  0.7941  0.5909 -0.0256
  167SOPE   C3418840   2.432   5.172   6.967  0.2141  0.2330  0.0215
  167SOPE   H4X18841   2.417   5.277   6.937 -2.7236  1.0058  3.5174
  167SOPE   H4Y18842   2.534   5.132   6.946 -0.0985  0.0369 -1.1823
  167SOPE   C3518843   2.400   5.145   7.114  0.8587 -0.2522  0.4559
  167SOPE   H5X18844   2.490   5.119   7.174  0.2915  0.0487  1.4642
  167SOPE   H5Y18845   2.330   5.058   7.118  1.3441 -0.6904 -0.2910
  167SOPE   C3618846   2.346   5.267   7.189 -0.3193 -0.5724 -0.4631
  167SOPE   H6X18847   2.244   5.292   7.153 -0.5112  0.3408  0.6754
  167SOPE   H6Y18848   2.409   5.356   7.169  0.5037 -1.4338 -1.9019
  167SOPE   C3718849   2.324   5.248   7.339 -0.4326 -0.4295  0.4687
  167SOPE   H7X18850   2.407   5.197   7.391  0.6224 -0.7831 -1.4673
  167SOPE   H7Y18851   2.235   5.181   7.346 -0.8872  0.3009  2.4351
  167SOPE   C3818852   2.282   5.376   7.415 -0.5665 -0.0091 -0.2583
  167SOPE   H8X18853   2.216   5.437   7.350  0.1560 -2.3677 -3.4824
  167SOPE   H8Y18854   2.380   5.428   7.423  0.7513 -2.3457 -0.2722
  167SOPE   C3918855   2.221   5.354   7.557 -0.0080  0.1523 -0.4637
  167SOPE   H9X18856   2.124   5.302   7.541 -0.7327  0.9548  1.1188
  167SOPE   H9Y18857   2.192   5.450   7.606 -0.7084 -0.1395 -0.2989
  167SOPE  C31018858   2.323   5.260   7.646  1.0364  0.3085 -0.2057
  167SOPE  H10X18859   2.417   5.316   7.666  0.0075  1.3005  2.2094
  167SOPE  H10Y18860   2.346   5.165   7.593  0.4277  0.7848 -1.3712
  167SOPE  C31118861   2.263   5.206   7.774 -0.1126 -0.2493 -0.3212
  167SOPE  H11X18862   2.166   5.160   7.745 -1.2812  0.6421  1.9365
  167SOPE  H11Y18863   2.229   5.293   7.833 -1.6118 -0.6034 -0.6173
  167SOPE  C31218864   2.357   5.112   7.856  0.6021  0.4154  0.0507
  167SOPE  H12X18865   2.457   5.158   7.874  0.9106 -0.2840  0.1521
  167SOPE  H12Y18866   2.387   5.025   7.794 -0.1971 -0.3452  0.7111
  167SOPE  C31318867   2.285   5.063   7.982  0.2049  0.5597 -0.5051
  167SOPE  H13X18868   2.184   5.039   7.944  0.2095  0.4743 -0.4622
  167SOPE  H13Y18869   2.281   5.152   8.049  2.5041 -0.0797  0.5829
  167SOPE  C31418870   2.347   4.943   8.053 -0.8977  0.0527 -0.2015
  167SOPE  H14X18871   2.347   4.852   7.989 -0.7032  0.5780 -0.9544
  167SOPE  H14Y18872   2.279   4.918   8.137 -2.0680 -1.9114 -1.6425
  167SOPE  C31518873   2.492   4.961   8.111  0.8629 -0.7805  0.3343
  167SOPE  H15X18874   2.571   4.961   8.033 -0.0437 -1.0436 -0.6055
  167SOPE  H15Y18875   2.506   4.870   8.173 -1.3689 -0.3281  1.6034
  167SOPE  C31618876   2.494   5.077   8.216 -0.6360 -0.5677 -0.3834
  167SOPE  H16X18877   2.414   5.064   8.292  0.7690  2.3293  1.7967
  167SOPE  H16Y18878   2.491   5.172   8.158 -0.3670  0.9272  1.9398
  167SOPE  C31718879   2.635   5.088   8.286  0.0036 -0.0341 -0.2791
  167SOPE  H17X18880   2.707   5.064   8.205  0.4072  1.5180 -0.4085
  167SOPE  H17Y18881   2.651   5.010   8.363  1.5865  1.8746  1.4577
  167SOPE  C31818882   2.661   5.229   8.342  0.1663 -0.4663 -0.4479
  167SOPE  H18X18883   2.645   5.319   8.279  1.2777  0.9232  1.1658
  167SOPE  H18Y18884   2.768   5.224   8.372 -0.6933 -0.6882  2.9989
  167SOPE  H18Z18885   2.601   5.242   8.435 -3.6375 -1.8112 -2.5103
  168SOPE     N18886   0.763   3.465   6.289  0.0389 -0.2002  0.6927
  168SOPE   HN118887   0.764   3.507   6.384  1.7829 -1.0913  1.1153
  168SOPE   HN218888   0.826   3.510   6.220 -0.4194 -0.4472  0.1057
  168SOPE   HN318889   0.671   3.483   6.244  1.2121  0.9189 -1.4484
  168SOPE   C1218890   0.784   3.317   6.312  0.0238  0.5324  0.0738
  168SOPE  H12A18891   0.817   3.313   6.418  0.0085  0.4506  0.0757
  168SOPE  H12B18892   0.873   3.298   6.248  0.9563  1.6199  0.9812
  168SOPE   C1118893   0.653   3.233   6.291 -0.4612 -0.2800 -0.1111
  168SOPE  H11A18894   0.682   3.126   6.303 -1.4289 -0.4475  0.8413
  168SOPE  H11B18895   0.627   3.242   6.184 -0.7646 -0.2313 -0.0332
  168SOPE     P18896   0.416   3.178   6.365  0.1393  0.1856  0.5304
  168SOPE   O1318897   0.428   3.046   6.434 -0.0418  0.5067  0.5014
  168SOPE   O1418898   0.382   3.167   6.218 -0.5425  0.0062 -0.5088
  168SOPE   O1218899   0.544   3.266   6.381 -1.0249  0.2645  0.1185
  168SOPE   O1118900   0.302   3.260   6.450 -0.2692 -0.5077  0.0768
  168SOPE    C118901   0.328   3.398   6.470 -0.4669  0.1999  0.0459
  168SOPE    HA18902   0.229   3.448   6.465 -2.5979 -3.6426  0.1172
  168SOPE    HB18903   0.389   3.449   6.392  0.4490 -0.7529  0.1268
  168SOPE    C218904   0.394   3.449   6.602  0.6273 -0.3805  0.3183
  168SOPE    HS18905   0.504   3.433   6.600  0.8056  0.7547  0.2070
  168SOPE   O2118906   0.327   3.388   6.712 -0.1656  0.0096 -0.2836
  168SOPE   C2118907   0.407   3.367   6.813 -0.5205 -0.3753  0.8741
  168SOPE   O2218908   0.528   3.368   6.808 -0.5875  0.0987 -0.7614
  168SOPE   C2218909   0.324   3.322   6.930  0.4506  0.1531 -0.1860
  168SOPE   H2R18910   0.321   3.211   6.938 -1.8732  0.2038  0.5577
  168SOPE   H2S18911   0.215   3.345   6.923  0.3081 -0.2448  0.5929
  168SOPE    C318912   0.391   3.601   6.607  0.0381 -0.8802 -0.4565
  168SOPE    HX18913   0.285   3.635   6.603  0.2557 -0.3075 -1.9974
  168SOPE    HY18914   0.433   3.644   6.514 -0.4182  1.7667  0.4619
  168SOPE   O3118915   0.446   3.668   6.722  0.3041 -0.1752  0.6817
  168SOPE   C3118916   0.526   3.772   6.698  1.2362 -0.2277  0.5119
  168SOPE   O3218917   0.544   3.824   6.586  0.2690 -0.3964 -0.0627
  168SOPE   C3218918   0.594   3.811   6.831 -0.6895  0.2034  0.3941
  168SOPE   H2X18919   0.580   3.730   6.906  0.3050 -0.3541 -0.0066
  168SOPE   H2Y18920   0.541   3.903   6.865 -4.7343 -1.9136  0.4428
  168SOPE   C2318921   0.376   3.402   7.050  0.7288 -1.2689 -0.2254
  168SOPE   H3R18922   0.404   3.505   7.019 -1.3209 -0.6174 -0.0708
  168SOPE   H3S18923   0.467   3.355   7.092  1.1373  1.4613  2.3169
  168SOPE   C2418924   0.272   3.413   7.172  0.3593  0.2737  0.3910
  168SOPE   H4R18925   0.206   3.499   7.148 -0.8459 -0.0141  2.4943
  168SOPE   H4S18926   0.210   3.321   7.178  2.6431 -1.2593  2.3928
  168SOPE   C2518927   0.338   3.428   7.316 -0.4759 -0.7392  0.5330
  168SOPE   H5R18928   0.257   3.408   7.390 -2.5472  1.8674 -0.8444
  168SOPE   H5S18929   0.413   3.347   7.332  0.1370 -0.4216 -0.6236
  168SOPE   C2618930   0.403   3.564   7.328  0.0449  0.3185 -0.1859
  168SOPE   H6R18931   0.486   3.582   7.257  1.5692 -1.0969  1.1385
  168SOPE   H6S18932   0.327   3.645   7.328  0.2711  0.5420 -1.4710
  168SOPE   C2718933   0.475   3.586   7.464  0.0219  0.2666  0.8289
  168SOPE   H7R18934   0.566   3.523   7.463 -0.4900 -0.4824 -0.0780
  168SOPE   H7S18935   0.512   3.690   7.478 -1.7498  0.8981  1.0147
  168SOPE   C2818936   0.388   3.532   7.583 -0.7139  0.3110 -0.1244
  168SOPE   H8R18937   0.279   3.552   7.571 -0.9043 -1.3990 -1.5921
  168SOPE   H8S18938   0.409   3.424   7.593 -0.7681  0.2215 -0.9701
  168SOPE   C2918939   0.415   3.608   7.708 -0.0788 -0.2642  0.0429
  168SOPE   H9118940   0.370   3.707   7.717  0.0589 -0.1863 -0.1218
  168SOPE  C21018941   0.481   3.560   7.819  0.1920 -0.1683  0.8950
  168SOPE  H10118942   0.484   3.622   7.910 -0.7803  1.3188 -0.0556
  168SOPE  C21118943   0.551   3.429   7.826 -0.2423  0.5429  0.2828
  168SOPE  H11R18944   0.660   3.445   7.812 -0.3946  0.2643 -1.4303
  168SOPE  H11S18945   0.525   3.366   7.739 -0.7981 -0.4452  1.1460
  168SOPE  C21218946   0.530   3.353   7.958  0.6774 -0.0347  0.4888
  168SOPE  H12R18947   0.421   3.335   7.971  0.3294  0.8629 -0.9742
  168SOPE  H12S18948   0.574   3.418   8.037  1.4916 -2.3879  2.0820
  168SOPE  C21318949   0.607   3.221   7.957 -0.3245  0.6155 -0.5103
  168SOPE  H13R18950   0.696   3.232   7.891 -0.5193  1.5811 -0.6296
  168SOPE  H13S18951   0.530   3.154   7.915 -0.7757  0.6909  0.1721
  168SOPE  C21418952   0.639   3.175   8.095  0.0322 -0.7214 -0.0812
  168SOPE  H14R18953   0.708   3.245   8.149 -0.8014  1.0730 -1.2351
  168SOPE  H14S18954   0.689   3.076   8.097  0.5465 -0.5223 -1.8098
  168SOPE  C21518955   0.505   3.156   8.182  0.4145  0.0573  0.2059
  168SOPE  H15R18956   0.447   3.093   8.112  2.0740  0.7361 -1.8840
  168SOPE  H15S18957   0.457   3.252   8.210 -0.4708 -0.6223  1.1112
  168SOPE  C21618958   0.525   3.077   8.312 -0.4284  0.3846  0.0022
  168SOPE  H16R18959   0.580   3.146   8.380  2.3677  0.9981 -2.6445
  168SOPE  H16S18960   0.601   2.997   8.294  1.0826  1.7476  0.0754
  168SOPE  C21718961   0.404   3.012   8.367  0.0239  0.1497 -0.1356
  168SOPE  H17R18962   0.365   2.948   8.285  2.2103 -0.3844 -0.8510
  168SOPE  H17S18963   0.331   3.094   8.379  1.5140  1.8292 -1.7726
  168SOPE  C21818964   0.431   2.920   8.488 -0.0422 -0.7046  0.9648
  168SOPE  H18R18965   0.335   2.868   8.508 -0.2357 -1.1653 -0.9862
  168SOPE  H18S18966   0.459   2.980   8.578  0.3658  0.9983 -0.2471
  168SOPE  H18T18967   0.496   2.830   8.480  1.4605  0.3459  0.9329
  168SOPE   C3318968   0.746   3.837   6.813 -1.0615  0.3116  0.4390
  168SOPE   H3X18969   0.778   3.908   6.892  0.0530 -1.7647  1.9491
  168SOPE   H3Y18970   0.767   3.892   6.719  0.6924  0.9774  1.1977
  168SOPE   C3418971   0.825   3.710   6.803 -0.6009  0.3226 -1.2526
  168SOPE   H4X18972   0.917   3.727   6.742 -0.0078  0.7450 -0.2605
  168SOPE   H4Y18973   0.774   3.617   6.772  1.9576 -1.8053  0.4408
  168SOPE   C3518974   0.877   3.670   6.945 -0.4622  0.1481 -0.3635
  168SOPE   H5X18975   0.921   3.760   6.993 -1.6558  0.6605 -0.1976
  168SOPE   H5Y18976   0.966   3.605   6.929 -1.0295 -0.7343  0.0011
  168SOPE   C3618977   0.784   3.592   7.040  0.6902 -0.5922  0.6796
  168SOPE   H6X18978   0.735   3.514   6.978  0.7236  0.6674 -0.9968
  168SOPE   H6Y18979   0.703   3.655   7.084  0.2174 -0.6276 -0.1276
  168SOPE   C3718980   0.856   3.509   7.152  0.4317  0.2263  1.0347
  168SOPE   H7X18981   0.935   3.571   7.201  1.5108 -1.0852  1.0107
  168SOPE   H7Y18982   0.902   3.418   7.107 -1.2099 -0.5185  0.7914
  168SOPE   C3818983   0.760   3.466   7.263 -0.4615 -0.5006 -0.6631
  168SOPE   H8X18984   0.699   3.377   7.236 -0.7975 -0.5633  0.2577
  168SOPE   H8Y18985   0.691   3.550   7.282 -0.5147 -0.4162 -1.2255
  168SOPE   C3918986   0.845   3.427   7.386  0.7503  0.7490 -0.4945
  168SOPE   H9X18987   0.777   3.389   7.466 -1.1062  0.4294 -2.1515
  168SOPE   H9Y18988   0.898   3.515   7.427 -0.0507 -0.0394  2.4933
  168SOPE  C31018989   0.956   3.317   7.362 -0.7131  0.2600 -0.1812
  168SOPE  H10X18990   1.050   3.374   7.348 -0.1659 -0.6509 -0.2531
  168SOPE  H10Y18991   0.958   3.274   7.260 -0.3259  1.5761 -0.7578
  168SOPE  C31118992   0.987   3.219   7.474 -0.3245  0.7330 -0.1776
  168SOPE  H11X18993   1.072   3.156   7.444  0.2602  1.1725  0.5144
  168SOPE  H11Y18994   0.897   3.154   7.481 -0.2096  0.2071 -2.6780
  168SOPE  C31218995   1.009   3.284   7.616  0.1317 -0.6187 -0.5932
  168SOPE  H12X18996   0.949   3.377   7.624  0.3958 -0.5242  0.5835
  168SOPE  H12Y18997   1.115   3.314   7.630  0.2190 -0.0634 -2.2091
  168SOPE  C31318998   0.981   3.189   7.739 -0.2077 -0.9824  0.1751
  168SOPE  H13X18999   1.060   3.111   7.748  0.1379 -0.7942 -1.0447
  168SOPE  H13Y19000   0.883   3.138   7.738 -0.0553 -1.3290  1.4959
  168SOPE  C31419001   1.004   3.264   7.870 -0.3265 -0.2850  0.2749
  168SOPE  H14X19002   0.931   3.347   7.878 -1.8085 -1.5105 -0.1484
  168SOPE  H14Y19003   1.109   3.299   7.884 -0.5355  0.0608  1.0581
  168SOPE  C31519004   0.977   3.179   7.991 -0.3634  0.5880 -0.7031
  168SOPE  H15X19005   1.000   3.074   7.964 -1.8010 -0.1030  0.6010
  168SOPE  H15Y19006   0.866   3.180   8.004 -0.2706  1.1596  0.1277
  168SOPE  C31619007   1.042   3.236   8.116  0.4970  0.2166  0.3824
  168SOPE  H16X19008   1.054   3.346   8.103  2.3390 -0.2551 -3.1583
  168SOPE  H16Y19009   1.141   3.185   8.118  0.3753 -0.0089  1.4473
  168SOPE  C31719010   0.981   3.189   8.251 -0.7621 -0.4533  0.3770
  168SOPE  H17X19011   0.878   3.228   8.236 -0.5726  0.2015  0.7346
  168SOPE  H17Y19012   1.024   3.247   8.336 -0.1159 -2.1945  1.2759
  168SOPE  C31819013   0.976   3.037   8.267 -0.1830  0.4391  0.1084
  168SOPE  H18X19014   0.913   3.015   8.356  2.4503 -2.3817  1.4473
  168SOPE  H18Y19015   1.079   2.996   8.279  0.4030  0.7705 -3.0204
  168SOPE  H18Z19016   0.920   2.997   8.180 -0.9774 -1.0057  1.2210
  169SOPE     N19017   2.854   3.235   6.587  0.2541  0.6170 -0.6439
  169SOPE   HN119018   2.920   3.158   6.565  1.0807  1.3825 -0.9168
  169SOPE   HN219019   2.914   3.309   6.628  0.4720  1.4216 -2.3589
  169SOPE   HN319020   2.802   3.187   6.664  0.6483 -4.1751 -3.0383
  169SOPE   C1219021   2.777   3.280   6.465 -0.0011  0.1574  0.2539
  169SOPE  H12A19022   2.848   3.305   6.383  1.4987 -0.7710  1.2340
  169SOPE  H12B19023   2.725   3.375   6.488 -1.7694 -0.1576 -2.0333
  169SOPE   C1119024   2.670   3.182   6.421 -0.2526 -0.2113 -0.3224
  169SOPE  H11A19025   2.720   3.085   6.399  2.1550  0.9200 -0.1570
  169SOPE  H11B19026   2.636   3.216   6.321  0.1580  2.4332  0.3676
  169SOPE     P19027   2.560   3.050   6.610 -0.3310  0.0294  0.0810
  169SOPE   O1319028   2.689   3.043   6.686  0.3480 -0.0055  0.4896
  169SOPE   O1419029   2.525   2.930   6.531  0.3855  0.4987 -0.2192
  169SOPE   O1219030   2.562   3.177   6.515 -0.1707 -0.3183  0.2182
  169SOPE   O1119031   2.436   3.066   6.701  0.1976 -0.3433 -0.1422
  169SOPE    C119032   2.415   3.189   6.767 -0.2581 -0.1683 -1.0179
  169SOPE    HA19033   2.314   3.195   6.813 -0.3097  1.5637 -1.2788
  169SOPE    HB19034   2.391   3.277   6.704 -1.2287 -0.8375 -1.6051
  169SOPE    C219035   2.512   3.227   6.889 -0.4080 -0.0445  0.4059
  169SOPE    HS19036   2.601   3.276   6.843 -0.9098  0.8800  0.3937
  169SOPE   O2119037   2.555   3.114   6.968  0.0398  0.0298 -0.4213
  169SOPE   C2119038   2.683   3.091   6.977 -0.0682 -0.2613 -0.1444
  169SOPE   O2219039   2.772   3.167   6.947  0.3839 -0.0720  0.4653
  169SOPE   C2219040   2.703   2.950   7.036  0.0960 -0.0323 -0.0324
  169SOPE   H2R19041   2.708   2.882   6.948 -0.9111 -2.1568  1.4576
  169SOPE   H2S19042   2.609   2.926   7.090  0.6375  0.5485  1.2173
  169SOPE    C319043   2.452   3.337   6.980 -0.2441  0.3033  0.7993
  169SOPE    HX19044   2.351   3.303   7.012  0.4800 -1.0400  1.7947
  169SOPE    HY19045   2.424   3.426   6.921 -0.2478  0.6756  1.3575
  169SOPE   O3119046   2.531   3.367   7.095  0.4508 -0.2002 -0.0053
  169SOPE   C3119047   2.609   3.478   7.098 -0.8473  0.2120  0.7313
  169SOPE   O3219048   2.604   3.569   7.020  0.4527  0.0061  0.3556
  169SOPE   C3219049   2.716   3.473   7.206  0.7545 -0.4818 -0.8751
  169SOPE   H2X19050   2.767   3.572   7.215 -0.2806  0.0561 -0.7712
  169SOPE   H2Y19051   2.802   3.408   7.178  1.7732  0.7488 -0.6856
  169SOPE   C2319052   2.825   2.937   7.127 -0.1818  0.3446  0.2588
  169SOPE   H3R19053   2.919   2.964   7.074 -0.1036  0.0893  0.2624
  169SOPE   H3S19054   2.835   2.828   7.149  0.4097  0.6869  1.7916
  169SOPE   C2419055   2.810   3.014   7.260 -0.0383 -0.3869  0.3131
  169SOPE   H4R19056   2.913   3.015   7.302  0.6221 -0.4146 -1.2645
  169SOPE   H4S19057   2.780   3.118   7.235 -2.1218 -0.5669  1.8039
  169SOPE   C2519058   2.712   2.956   7.352 -0.4972  1.6410 -0.2112
  169SOPE   H5R19059   2.619   2.939   7.294 -1.2332 -2.3571  1.8040
  169SOPE   H5S19060   2.750   2.858   7.388 -2.4936  1.0177  0.3015
  169SOPE   C2619061   2.703   3.034   7.488 -0.0761 -0.5715  0.2192
  169SOPE   H6R19062   2.656   3.132   7.466  0.9386  0.1054  0.9826
  169SOPE   H6S19063   2.643   2.963   7.549 -0.8554 -1.1720 -1.1838
  169SOPE   C2719064   2.840   3.061   7.555  0.3471 -0.1644  0.2157
  169SOPE   H7R19065   2.894   2.965   7.570 -0.7100 -1.1859 -2.1261
  169SOPE   H7S19066   2.890   3.123   7.477  1.8056  0.0415  1.2750
  169SOPE   C2819067   2.811   3.148   7.680  0.0655  0.1364  0.0808
  169SOPE   H8R19068   2.908   3.195   7.707 -0.4949  0.8891  0.8189
  169SOPE   H8S19069   2.742   3.225   7.640 -2.6765 -2.2202  0.0115
  169SOPE   C2919070   2.751   3.069   7.789  0.0602  0.0520 -0.7928
  169SOPE   H9119071   2.659   3.012   7.768  0.5583 -1.0010 -0.2154
  169SOPE  C21019072   2.789   3.068   7.918 -0.0468 -0.4941 -0.5313
  169SOPE  H10119073   2.729   3.008   7.988  3.3159 -1.7600  1.5355
  169SOPE  C21119074   2.906   3.143   7.988 -0.4589  0.6743  0.4669
  169SOPE  H11R19075   2.919   3.243   7.943  1.4372  0.3379  0.2001
  169SOPE  H11S19076   2.998   3.082   7.976 -0.8231  0.1374  0.3437
  169SOPE  C21219077   2.885   3.161   8.136  0.3228 -0.2458  0.0143
  169SOPE  H12R19078   2.847   3.072   8.190  0.6958  0.0111  0.7241
  169SOPE  H12S19079   2.812   3.245   8.146 -0.8824 -1.1807 -0.6492
  169SOPE  C21319080   3.017   3.194   8.211 -0.4195 -0.0572  0.1031
  169SOPE  H13R19081   3.071   3.271   8.151  0.1300  0.4424  1.2179
  169SOPE  H13S19082   3.092   3.115   8.232 -0.3477 -0.0974 -0.2972
  169SOPE  C21419083   3.007   3.267   8.347  0.3686 -0.2952 -1.0416
  169SOPE  H14R19084   2.899   3.270   8.373  1.1471  1.3247  2.7780
  169SOPE  H14S19085   3.040   3.372   8.339 -0.3383 -0.0378 -0.6969
  169SOPE  C21519086   3.078   3.190   8.463  0.3397  0.1504  0.0203
  169SOPE  H15R19087   3.186   3.203   8.442  0.0193  1.2493 -1.0899
  169SOPE  H15S19088   3.066   3.081   8.451  1.2758  0.1773 -1.3004
  169SOPE  C21619089   3.043   3.232   8.604  0.5479 -0.0535 -1.3350
  169SOPE  H16R19090   2.934   3.216   8.621  0.6260 -0.0545 -0.8338
  169SOPE  H16S19091   3.060   3.342   8.601  1.7343 -0.2534 -2.5321
  169SOPE  C21719092   3.123   3.166   8.719  0.0103 -0.6831 -0.2631
  169SOPE  H17R19093   3.229   3.142   8.698  0.1925  1.1345 -1.7308
  169SOPE  H17S19094   3.076   3.074   8.759  2.0385 -0.7998  2.0980
  169SOPE  C21819095   3.114   3.272   8.837 -0.4488 -0.3217 -0.6598
  169SOPE  H18R19096   3.178   3.235   8.920 -0.9594 -1.2315 -0.6557
  169SOPE  H18S19097   3.006   3.274   8.861  0.1269  1.7996  2.3835
  169SOPE  H18T19098   3.139   3.374   8.803  0.0351 -0.1506  0.1768
  169SOPE   C3319099   2.669   3.435   7.345  0.3024 -0.0776  0.3041
  169SOPE   H3X19100   2.758   3.422   7.409 -0.3496 -1.1582  1.0309
  169SOPE   H3Y19101   2.615   3.339   7.330  0.7615 -0.4096  0.7774
  169SOPE   C3419102   2.583   3.545   7.404  0.4285 -0.4079  0.5470
  169SOPE   H4X19103   2.483   3.553   7.357 -0.0921 -0.4467  1.5977
  169SOPE   H4Y19104   2.635   3.643   7.395 -1.0638  0.5416  1.6863
  169SOPE   C3519105   2.566   3.519   7.553  0.4738 -0.0772 -0.0658
  169SOPE   H5X19106   2.527   3.415   7.567  0.8564 -0.1217  0.7598
  169SOPE   H5Y19107   2.491   3.590   7.594 -0.8335 -1.9861  1.0658
  169SOPE   C3619108   2.691   3.548   7.644  0.5669  0.2390 -0.5932
  169SOPE   H6X19109   2.732   3.647   7.614  1.3304  0.1776  0.2171
  169SOPE   H6Y19110   2.773   3.474   7.630  1.4686  0.7800  1.4720
  169SOPE   C3719111   2.638   3.537   7.790 -0.6676  0.2553 -0.5552
  169SOPE   H7X19112   2.603   3.435   7.819  0.9494  0.4022  2.2486
  169SOPE   H7Y19113   2.557   3.612   7.804  1.6604  2.7020  0.4745
  169SOPE   C3819114   2.748   3.566   7.889  0.1384 -0.3473 -0.5300
  169SOPE   H8X19115   2.843   3.512   7.871  0.0276 -0.7512  0.0769
  169SOPE   H8Y19116   2.791   3.666   7.864 -0.8461  0.5010  1.0153
  169SOPE   C3919117   2.707   3.578   8.042 -0.1906 -0.1844  0.5928
  169SOPE   H9X19118   2.654   3.484   8.071  1.0728 -0.6800  1.3928
  169SOPE   H9Y19119   2.623   3.649   8.057 -0.1654  0.2337 -1.0542
  169SOPE  C31019120   2.818   3.629   8.125 -0.0832  0.5035 -0.0791
  169SOPE  H10X19121   2.858   3.718   8.073  1.1718  0.8673  1.4256
  169SOPE  H10Y19122   2.895   3.549   8.124  0.2317  0.8050 -0.0970
  169SOPE  C31119123   2.788   3.665   8.270 -0.4492  0.0012 -0.6577
  169SOPE  H11X19124   2.731   3.582   8.316 -1.3516  0.0893 -1.5960
  169SOPE  H11Y19125   2.717   3.751   8.267 -1.1355 -0.2648  3.0587
  169SOPE  C31219126   2.916   3.700   8.352  0.0216 -0.8515  0.1792
  169SOPE  H12X19127   2.971   3.779   8.297 -0.0272 -0.9505 -0.0128
  169SOPE  H12Y19128   2.986   3.614   8.360 -0.4780 -1.2594  0.1903
  169SOPE  C31319129   2.886   3.744   8.495 -0.5116  0.1696  0.3982
  169SOPE  H13X19130   2.803   3.816   8.498 -0.1154  0.6004  1.7527
  169SOPE  H13Y19131   2.981   3.775   8.545  1.2311 -1.7526 -1.5066
  169SOPE  C31419132   2.849   3.621   8.580  0.2700  0.1833  0.7182
  169SOPE  H14X19133   2.918   3.534   8.574  0.0744  0.1036 -0.6730
  169SOPE  H14Y19134   2.759   3.573   8.537  0.9673 -1.5669  1.1261
  169SOPE  C31519135   2.821   3.654   8.722  0.1663  0.2234 -0.7725
  169SOPE  H15X19136   2.777   3.754   8.743 -0.2165 -0.0315 -0.3433
  169SOPE  H15Y19137   2.919   3.666   8.772 -0.3576 -0.7721  0.5524
  169SOPE  C31619138   2.749   3.545   8.812 -0.5791  0.2644 -0.1158
  169SOPE  H16X19139   2.738   3.587   8.914 -3.0489  0.6578 -0.4745
  169SOPE  H16Y19140   2.820   3.460   8.811 -1.7539 -0.8020 -2.8668
  169SOPE  C31719141   2.609   3.493   8.777 -0.3429 -0.9691 -0.4049
  169SOPE  H17X19142   2.593   3.411   8.850 -0.3962 -2.4144 -2.0002
  169SOPE  H17Y19143   2.618   3.441   8.679 -1.7149  2.4461 -2.5567
  169SOPE  C31819144   2.495   3.600   8.783 -0.4367 -0.1508 -0.1214
  169SOPE  H18X19145   2.518   3.693   8.726  1.9984  0.4523  1.6573
  169SOPE  H18Y19146   2.491   3.614   8.893 -0.9641  1.2774 -0.3002
  169SOPE  H18Z19147   2.407   3.540   8.751 -1.2218  0.8743  0.0683
  170SOPE     N19148   5.361   2.681   6.326  0.0362 -0.0865 -0.2442
  170SOPE   HN119149   5.304   2.768   6.325 -1.3110 -0.9393 -1.1386
  170SOPE   HN219150   5.312   2.616   6.261 -0.0164 -1.3703  1.0405
  170SOPE   HN319151   5.347   2.628   6.414 -0.8072  0.3069 -0.1241
  170SOPE   C1219152   5.500   2.696   6.278 -0.1694 -0.5844  0.3626
  170SOPE  H12A19153   5.549   2.786   6.320  3.2813 -2.4628  0.6598
  170SOPE  H12B19154   5.486   2.697   6.167  1.2649  0.7284  0.1717
  170SOPE   C1119155   5.583   2.578   6.322 -0.2739 -0.2697  0.5345
  170SOPE  H11A19156   5.687   2.584   6.283  0.0730 -1.8415  1.1483
  170SOPE  H11B19157   5.536   2.486   6.283  1.4906 -0.3018 -1.7260
  170SOPE     P19158   5.704   2.635   6.544 -0.1292  0.2336 -0.0040
  170SOPE   O1319159   5.776   2.727   6.451  0.2099  0.5154 -0.6560
  170SOPE   O1419160   5.788   2.529   6.605  0.2065 -0.1484  0.8361
  170SOPE   O1219161   5.584   2.571   6.465  0.2048 -0.1157  0.1183
  170SOPE   O1119162   5.639   2.723   6.674  0.1294  0.1099  0.0279
  170SOPE    C119163   5.508   2.681   6.721 -0.1674  0.0564 -0.7188
  170SOPE    HA19164   5.494   2.573   6.742  2.1820  0.2849  3.1127
  170SOPE    HB19165   5.431   2.713   6.648 -1.6984 -0.3200  0.6564
  170SOPE    C219166   5.481   2.755   6.851  0.1152 -0.7180 -0.1741
  170SOPE    HS19167   5.525   2.857   6.841  0.6606 -1.1227 -2.5781
  170SOPE   O2119168   5.535   2.673   6.956  0.3644 -0.1112 -0.6950
  170SOPE   C2119169   5.568   2.739   7.070  1.1482  0.2325  0.1638
  170SOPE   O2219170   5.579   2.860   7.075 -0.0856  0.6456  0.1055
  170SOPE   C2219171   5.588   2.649   7.182 -0.0593  0.6288 -0.2914
  170SOPE   H2R19172   5.693   2.614   7.169  0.4569  1.9437  0.1308
  170SOPE   H2S19173   5.517   2.564   7.173  0.4067  0.0572  1.1576
  170SOPE    C319174   5.328   2.771   6.867  0.7314 -0.0800  0.4584
  170SOPE    HX19175   5.281   2.670   6.875 -0.7163  0.6464  1.3709
  170SOPE    HY19176   5.281   2.814   6.777  0.2672 -0.3865  0.5501
  170SOPE   O3119177   5.282   2.831   6.995 -0.0092  0.0475 -0.4453
  170SOPE   C3119178   5.245   2.955   7.000  0.6274  0.1991 -0.1044
  170SOPE   O3219179   5.240   3.034   6.910  0.0864 -0.2864  0.5997
  170SOPE   C3219180   5.200   2.985   7.141  0.1764  0.3836 -0.0224
  170SOPE   H2X19181   5.224   2.899   7.208 -0.9214  0.7350  0.8510
  170SOPE   H2Y19182   5.089   2.992   7.139  0.1568  0.8204  1.2650
  170SOPE   C2319183   5.563   2.725   7.313 -0.8613  0.0387  0.6299
  170SOPE   H3R19184   5.464   2.775   7.315 -0.0936  1.8008 -1.6486
  170SOPE   H3S19185   5.634   2.810   7.326  1.7876 -2.1369  1.1001
  170SOPE   C2419186   5.563   2.630   7.439 -0.4647 -0.4387 -0.2428
  170SOPE   H4R19187   5.485   2.555   7.413 -0.0098 -0.8772 -0.3507
  170SOPE   H4S19188   5.660   2.576   7.450  1.2911  2.5844  0.1069
  170SOPE   C2519189   5.528   2.703   7.571  0.7454  0.5985 -0.3986
  170SOPE   H5R19190   5.612   2.775   7.582  0.1781  1.5727 -1.9670
  170SOPE   H5S19191   5.435   2.764   7.568 -0.2214 -0.8189  0.2257
  170SOPE   C2619192   5.519   2.602   7.691  0.2887 -0.0293  0.9334
  170SOPE   H6R19193   5.418   2.556   7.687 -0.3029  1.1232  2.0042
  170SOPE   H6S19194   5.603   2.534   7.664  1.3725  1.1554  1.2383
  170SOPE   C2719195   5.553   2.668   7.825 -0.6721 -0.0292  0.3145
  170SOPE   H7R19196   5.664   2.669   7.833 -0.6772 -2.0985  1.1928
  170SOPE   H7S19197   5.513   2.771   7.820 -1.8148 -0.5167 -2.4453
  170SOPE   C2819198   5.510   2.608   7.956 -0.1391 -0.0960  0.1787
  170SOPE   H8R19199   5.399   2.608   7.965 -0.2429 -0.6839 -0.9407
  170SOPE   H8S19200   5.551   2.505   7.948  1.7902  0.7309 -1.3100
  170SOPE   C2919201   5.566   2.687   8.077  0.0302  0.2135  0.7253
  170SOPE   H9119202   5.556   2.797   8.077  1.1740  0.3483 -0.4064
  170SOPE  C21019203   5.634   2.618   8.170 -0.1759 -0.7318 -0.3339
  170SOPE  H10119204   5.680   2.663   8.260 -1.2600 -0.5282  0.1335
  170SOPE  C21119205   5.652   2.466   8.174  0.5044 -0.4708 -0.5086
  170SOPE  H11R19206   5.745   2.437   8.121  1.0119  3.5418 -2.2070
  170SOPE  H11S19207   5.561   2.415   8.136  1.1784  0.2261 -3.2721
  170SOPE  C21219208   5.644   2.423   8.329  0.2044 -0.1156  0.1887
  170SOPE  H12R19209   5.547   2.462   8.368 -1.9447 -4.1006 -0.6269
  170SOPE  H12S19210   5.729   2.465   8.388  0.1250 -1.0623  1.0151
  170SOPE  C21319211   5.626   2.272   8.342  0.2548 -0.1056 -0.2232
  170SOPE  H13R19212   5.718   2.219   8.309  1.9279  1.4381  1.6325
  170SOPE  H13S19213   5.535   2.235   8.292 -1.5577  2.0516  1.2886
  170SOPE  C21419214   5.599   2.239   8.489  0.7246 -1.0056 -0.0562
  170SOPE  H14R19215   5.505   2.290   8.520  0.5078 -1.0362 -0.6548
  170SOPE  H14S19216   5.682   2.282   8.549 -0.6098  1.9620 -0.1793
  170SOPE  C21519217   5.587   2.090   8.514 -0.5057  0.5135 -0.1096
  170SOPE  H15R19218   5.576   2.080   8.624 -1.2918  0.3941 -0.1960
  170SOPE  H15S19219   5.683   2.048   8.478 -1.2590 -3.2052  1.7575
  170SOPE  C21619220   5.474   2.005   8.450  0.0403  0.3594  0.1769
  170SOPE  H16R19221   5.493   2.006   8.341 -0.0459  0.6837  0.1627
  170SOPE  H16S19222   5.377   2.059   8.448 -0.5370 -0.4641 -4.1470
  170SOPE  C21719223   5.455   1.867   8.517 -0.0421 -0.1502 -0.8630
  170SOPE  H17R19224   5.395   1.882   8.610 -1.8837  0.1264 -2.0460
  170SOPE  H17S19225   5.552   1.829   8.554  0.2402  0.5996 -0.8090
  170SOPE  C21819226   5.389   1.765   8.431 -0.2443  0.5358 -0.2601
  170SOPE  H18R19227   5.439   1.742   8.335  1.1014 -0.3149  0.6142
  170SOPE  H18S19228   5.284   1.799   8.414 -0.6862 -0.2959  0.6672
  170SOPE  H18T19229   5.378   1.665   8.479  0.1377 -0.3874 -2.0357
  170SOPE   C3319230   5.270   3.103   7.205 -0.2437  0.8789  0.2484
  170SOPE   H3X19231   5.250   3.189   7.137 -0.9587 -0.1043 -0.8143
  170SOPE   H3Y19232   5.381   3.101   7.208 -0.2258  2.0652  1.3885
  170SOPE   C3419233   5.216   3.133   7.347  0.0050 -0.0204  0.4074
  170SOPE   H4X19234   5.115   3.179   7.337  0.7784  1.3069 -1.8474
  170SOPE   H4Y19235   5.287   3.212   7.378  1.6080 -1.3218  0.1603
  170SOPE   C3519236   5.229   3.020   7.446  0.3346 -0.1694 -0.5657
  170SOPE   H5X19237   5.331   2.978   7.439  0.2929 -0.5137  0.7298
  170SOPE   H5Y19238   5.160   2.936   7.420 -2.1183  0.8176  2.2524
  170SOPE   C3619239   5.215   3.074   7.590 -0.3758 -0.3928 -0.5049
  170SOPE   H6X19240   5.120   3.126   7.613  0.0832  0.0960  0.3357
  170SOPE   H6Y19241   5.297   3.145   7.613  0.1393 -1.4994  1.4026
  170SOPE   C3719242   5.225   2.969   7.708 -0.1973 -0.2544  0.2106
  170SOPE   H7X19243   5.321   2.913   7.695 -0.5735 -1.0618  0.8356
  170SOPE   H7Y19244   5.143   2.894   7.713 -0.4020 -0.4992 -3.6585
  170SOPE   C3819245   5.221   3.040   7.847 -0.4171  0.7669 -0.1159
  170SOPE   H8X19246   5.147   3.123   7.854  2.0547  3.2182 -1.2770
  170SOPE   H8Y19247   5.321   3.088   7.852  0.3851  0.2792 -5.5128
  170SOPE   C3919248   5.192   2.932   7.957  0.2984  0.8966 -0.5950
  170SOPE   H9X19249   5.280   2.866   7.968 -0.0550  0.7350  1.7051
  170SOPE   H9Y19250   5.113   2.866   7.915  0.6761 -0.8817  1.3638
  170SOPE  C31019251   5.156   2.982   8.094  0.1205 -0.1451  0.0528
  170SOPE  H10X19252   5.116   2.901   8.158 -0.2167 -0.5657 -0.6727
  170SOPE  H10Y19253   5.075   3.057   8.080 -1.3578 -1.8948 -1.3031
  170SOPE  C31119254   5.276   3.047   8.166 -0.0867  0.6860  0.6220
  170SOPE  H11X19255   5.289   3.149   8.123  0.3110 -0.8158 -3.2393
  170SOPE  H11Y19256   5.377   3.000   8.161  1.5516  4.0023 -0.6739
  170SOPE  C31219257   5.217   3.073   8.305  0.0419  0.5427 -0.1482
  170SOPE  H12X19258   5.187   2.973   8.343  0.9241  0.8635  1.5091
  170SOPE  H12Y19259   5.120   3.126   8.315 -1.5896 -2.3111  0.3320
  170SOPE  C31319260   5.327   3.137   8.400 -0.1633  0.1529  0.6674
  170SOPE  H13X19261   5.349   3.234   8.350 -0.0891 -0.5743 -0.7780
  170SOPE  H13Y19262   5.414   3.071   8.419  0.2942  0.5548  0.0035
  170SOPE  C31419263   5.265   3.171   8.535  0.6062 -0.7163 -0.0738
  170SOPE  H14X19264   5.330   3.133   8.616 -0.0199 -1.6768 -0.0036
  170SOPE  H14Y19265   5.170   3.115   8.549  0.1165 -0.2764 -1.3759
  170SOPE  C31519266   5.231   3.325   8.544 -0.6181  1.0295 -0.2646
  170SOPE  H15X19267   5.199   3.359   8.443  0.5365  1.8784 -0.3740
  170SOPE  H15Y19268   5.327   3.381   8.551 -1.0979  2.4989 -3.4811
  170SOPE  C31619269   5.142   3.362   8.663 -0.2643 -0.1052 -0.6543
  170SOPE  H16X19270   5.140   3.471   8.679 -0.6918 -0.1060 -0.6852
  170SOPE  H16Y19271   5.199   3.317   8.747 -1.1942  0.4845  0.3134
  170SOPE  C31719272   5.003   3.312   8.665 -0.0245  0.2671  0.0907
  170SOPE  H17X19273   4.991   3.210   8.624  1.0895  0.6538 -1.2583
  170SOPE  H17Y19274   4.938   3.379   8.604  0.0578  1.3790  1.1743
  170SOPE  C31819275   4.946   3.315   8.806 -0.4598 -0.5749 -0.0825
  170SOPE  H18X19276   5.001   3.238   8.864  2.1072  0.2113 -1.3231
  170SOPE  H18Y19277   4.835   3.307   8.809 -0.4994 -0.0228 -0.0156
  170SOPE  H18Z19278   4.966   3.415   8.849  1.3488 -0.7227 -0.4952
  171SOPE     N19279   2.701   5.543   6.119 -0.1157  0.6503 -0.3965
  171SOPE   HN119280   2.690   5.644   6.143  1.7450  0.2637  2.7029
  171SOPE   HN219281   2.699   5.529   6.016 -0.5404  2.7991 -0.7201
  171SOPE   HN319282   2.622   5.489   6.159 -0.1421  2.1655  1.7789
  171SOPE   C1219283   2.844   5.511   6.163 -0.0679  0.8079  0.0903
  171SOPE  H12A19284   2.846   5.522   6.273 -0.2594  2.0673 -0.0113
  171SOPE  H12B19285   2.914   5.585   6.117  2.5454  0.2352  2.8824
  171SOPE   C1119286   2.881   5.369   6.117 -0.1451 -0.4913 -0.4851
  171SOPE  H11A19287   2.988   5.349   6.138 -0.3435 -0.2459  0.8473
  171SOPE  H11B19288   2.864   5.366   6.007 -1.6089 -0.0272 -0.2973
  171SOPE     P19289   2.818   5.200   6.311  0.0286  0.1462  0.2552
  171SOPE   O1319290   2.949   5.143   6.295 -0.0782 -0.2996  0.4549
  171SOPE   O1419291   2.707   5.103   6.337  0.5247  0.1045  0.5210
  171SOPE   O1219292   2.792   5.272   6.172  0.2297 -0.4523  0.0315
  171SOPE   O1119293   2.823   5.314   6.414 -0.1765  0.2013 -0.2406
  171SOPE    C119294   2.708   5.388   6.452 -0.1349  0.1745  0.2137
  171SOPE    HA19295   2.611   5.335   6.442 -0.5615 -0.0054  3.9814
  171SOPE    HB19296   2.706   5.492   6.414 -0.4893  1.1638  2.7749
  171SOPE    C219297   2.704   5.427   6.602 -0.6177 -0.8683 -0.5135
  171SOPE    HS19298   2.607   5.478   6.617  0.3115  0.5954  0.7758
  171SOPE   O2119299   2.824   5.508   6.635  0.0124  0.0819  0.5584
  171SOPE   C2119300   2.797   5.639   6.632 -0.1919 -0.5811 -0.1289
  171SOPE   O2219301   2.694   5.696   6.602  0.3247 -0.1041 -0.3338
  171SOPE   C2219302   2.922   5.708   6.688  0.2823 -0.1333  0.0375
  171SOPE   H2R19303   2.915   5.815   6.659  3.6388  0.0751 -0.4204
  171SOPE   H2S19304   3.014   5.665   6.643 -0.0801  0.1405 -1.0024
  171SOPE    C319305   2.704   5.297   6.691 -0.4127  0.0879  0.1902
  171SOPE    HX19306   2.799   5.244   6.671 -0.8394 -0.3827 -0.6613
  171SOPE    HY19307   2.632   5.219   6.657 -0.5606  0.0359  0.6179
  171SOPE   O3119308   2.680   5.328   6.830 -1.1553  0.1064 -0.5442
  171SOPE   C3119309   2.782   5.309   6.909  0.0479 -0.5866 -0.7592
  171SOPE   O3219310   2.887   5.256   6.884 -0.2713  0.1581  0.0814
  171SOPE   C3219311   2.731   5.338   7.054 -0.0458 -0.3911 -0.2537
  171SOPE   H2X19312   2.620   5.350   7.061 -0.2397 -2.0489 -0.2058
  171SOPE   H2Y19313   2.775   5.439   7.072  0.1934 -0.3445 -1.0634
  171SOPE   C2319314   2.928   5.701   6.844  0.0853 -0.1949 -0.1596
  171SOPE   H3R19315   2.940   5.597   6.880  1.3436 -0.2037 -0.5580
  171SOPE   H3S19316   2.838   5.741   6.895 -0.5008 -1.6173 -0.0145
  171SOPE   C2419317   3.034   5.787   6.909 -0.6429 -0.2987 -1.1900
  171SOPE   H4R19318   3.134   5.753   6.875 -0.1253  0.2185 -0.1982
  171SOPE   H4S19319   3.031   5.891   6.872  0.2938  0.1161 -0.1691
  171SOPE   C2519320   3.007   5.802   7.064 -0.2704  0.6104  0.1462
  171SOPE   H5R19321   3.084   5.873   7.103  0.3721  1.2396 -2.1072
  171SOPE   H5S19322   2.905   5.845   7.075 -0.5747  0.5436 -1.9882
  171SOPE   C2619323   3.006   5.667   7.144  0.2720  0.0027  0.1641
  171SOPE   H6R19324   2.903   5.626   7.137  1.2787 -2.7048 -0.0778
  171SOPE   H6S19325   3.076   5.596   7.093 -1.1836 -0.0145 -1.9397
  171SOPE   C2719326   3.040   5.694   7.282 -0.0239 -0.0421 -0.4391
  171SOPE   H7R19327   3.151   5.695   7.295  0.0088  1.9607 -0.5985
  171SOPE   H7S19328   3.002   5.796   7.302  0.8263  0.9243 -3.1695
  171SOPE   C2819329   2.981   5.595   7.386 -0.6523 -0.2751 -0.1169
  171SOPE   H8R19330   2.884   5.554   7.351  0.2644 -1.4085 -1.4393
  171SOPE   H8S19331   3.057   5.515   7.398  0.8732  1.4148  2.7358
  171SOPE   C2919332   2.958   5.654   7.526 -0.4785  0.4294  0.2855
  171SOPE   H9119333   2.939   5.762   7.532 -0.9157  0.2716  3.0852
  171SOPE  C21019334   2.970   5.587   7.642  0.2468 -0.3128  0.2468
  171SOPE  H10119335   2.942   5.635   7.737  1.3779 -0.3982  0.6445
  171SOPE  C21119336   3.011   5.443   7.644  0.8462 -0.3169 -0.2464
  171SOPE  H11R19337   3.122   5.439   7.656  0.9308  1.7717  0.0894
  171SOPE  H11S19338   2.978   5.389   7.553 -0.2670  0.0930 -0.1003
  171SOPE  C21219339   2.944   5.371   7.769 -1.2405  0.0419 -0.2741
  171SOPE  H12R19340   2.999   5.275   7.766 -1.0394  0.0882  1.3601
  171SOPE  H12S19341   2.834   5.353   7.764 -1.5571  1.7615 -0.0063
  171SOPE  C21319342   2.993   5.419   7.906  0.0467  0.2092  0.0182
  171SOPE  H13R19343   2.943   5.516   7.924 -1.8063 -0.2713 -2.1582
  171SOPE  H13S19344   3.103   5.438   7.915  0.2949 -0.1548 -1.8461
  171SOPE  C21419345   2.958   5.327   8.020 -0.2300 -0.3382  0.8750
  171SOPE  H14R19346   3.021   5.238   8.003 -0.1988 -0.0148 -0.8864
  171SOPE  H14S19347   2.853   5.291   8.021 -0.4390  0.0852 -0.9646
  171SOPE  C21519348   2.979   5.392   8.154  0.5451  0.6799  0.4057
  171SOPE  H15R19349   3.086   5.419   8.168  1.0788 -1.2604  0.3694
  171SOPE  H15S19350   2.974   5.311   8.230  0.3197 -1.6833 -1.9973
  171SOPE  C21619351   2.884   5.503   8.195  0.9263  0.1143 -0.2884
  171SOPE  H16R19352   2.788   5.450   8.177  0.0067  1.2649  0.9971
  171SOPE  H16S19353   2.884   5.590   8.127  0.2244  0.7925  0.5568
  171SOPE  C21719354   2.893   5.555   8.341 -0.5077 -0.0415  0.0928
  171SOPE  H17R19355   2.987   5.615   8.347 -0.8013  0.4792 -0.4419
  171SOPE  H17S19356   2.908   5.461   8.399  1.7841 -0.6433 -1.3236
  171SOPE  C21819357   2.779   5.641   8.387  0.9203 -0.6013  0.2535
  171SOPE  H18R19358   2.800   5.684   8.487  0.4472  0.3412 -0.0412
  171SOPE  H18S19359   2.684   5.583   8.391  0.2156  0.5753  1.5957
  171SOPE  H18T19360   2.759   5.723   8.315 -2.2295 -1.5030 -0.0555
  171SOPE   C3319361   2.789   5.246   7.165  0.0029 -0.2623  0.1799
  171SOPE   H3X19362   2.898   5.264   7.162  0.0951 -0.8660 -0.0463
  171SOPE   H3Y19363   2.756   5.148   7.126 -1.1830  0.0085  0.4478
  171SOPE   C3419364   2.722   5.288   7.303 -0.1193  0.2576 -0.0644
  171SOPE   H4X19365   2.613   5.271   7.298  0.0864 -0.7213 -2.4167
  171SOPE   H4Y19366   2.745   5.395   7.323 -0.6651  0.1836  1.0373
  171SOPE   C3519367   2.786   5.207   7.417 -0.0536 -0.1851  0.3418
  171SOPE   H5X19368   2.889   5.247   7.430  1.0426 -2.4034 -0.8805
  171SOPE   H5Y19369   2.785   5.097   7.401 -1.0833 -0.1560  0.1976
  171SOPE   C3619370   2.701   5.220   7.543 -0.2547 -0.2222 -0.6783
  171SOPE   H6X19371   2.592   5.220   7.522 -0.8897  1.0006  2.1541
  171SOPE   H6Y19372   2.712   5.321   7.589 -0.8292 -1.6032  2.7439
  171SOPE   C3719373   2.729   5.121   7.658  0.0474  0.3887  0.2567
  171SOPE   H7X19374   2.692   5.176   7.748 -0.2140  0.2626  0.2252
  171SOPE   H7Y19375   2.839   5.115   7.671 -0.0688  0.3554  1.3901
  171SOPE   C3819376   2.671   4.981   7.646  0.4364 -0.7186 -0.6847
  171SOPE   H8X19377   2.703   4.930   7.553  1.6042 -0.4444 -0.4476
  171SOPE   H8Y19378   2.561   4.993   7.641  0.4161 -0.5734  0.0571
  171SOPE   C3919379   2.722   4.889   7.757  0.1416  0.4748 -0.7860
  171SOPE   H9X19380   2.713   4.937   7.857  2.1847  1.8277 -1.1818
  171SOPE   H9Y19381   2.832   4.874   7.757 -0.1670 -2.4761 -2.3158
  171SOPE  C31019382   2.657   4.752   7.734  0.4390  0.1163  0.0190
  171SOPE  H10X19383   2.679   4.719   7.631  0.2095  0.1681 -0.0474
  171SOPE  H10Y19384   2.546   4.748   7.742  0.4286  1.2175  0.7086
  171SOPE  C31119385   2.718   4.641   7.818  0.4172 -0.3458  0.3519
  171SOPE  H11X19386   2.824   4.622   7.793  0.7171  1.1478  0.3948
  171SOPE  H11Y19387   2.662   4.545   7.805 -3.7356  1.7438  0.9853
  171SOPE  C31219388   2.689   4.654   7.971  0.2351 -0.1857 -0.3389
  171SOPE  H12X19389   2.585   4.688   7.993  0.8729  1.9249 -0.3622
  171SOPE  H12Y19390   2.744   4.740   8.014 -2.1662  0.0381  2.7102
  171SOPE  C31319391   2.714   4.526   8.058  0.1139 -0.3815 -0.4137
  171SOPE  H13X19392   2.823   4.508   8.047  0.3230  0.4191  0.2704
  171SOPE  H13Y19393   2.656   4.436   8.029 -1.9181  0.2139  1.5485
  171SOPE  C31419394   2.675   4.539   8.208 -0.9907 -0.2011 -0.8083
  171SOPE  H14X19395   2.719   4.635   8.244  0.1255 -0.7691 -0.6115
  171SOPE  H14Y19396   2.719   4.473   8.286  0.5491 -0.1505 -1.5984
  171SOPE  C31519397   2.528   4.530   8.240 -0.0281  0.7244  0.2099
  171SOPE  H15X19398   2.489   4.431   8.211  0.1560  0.9380 -0.7869
  171SOPE  H15Y19399   2.466   4.593   8.172  0.0215 -1.6087 -2.1210
  171SOPE  C31619400   2.469   4.569   8.384 -0.0747 -0.0390  0.0222
  171SOPE  H16X19401   2.496   4.675   8.403 -1.2125  0.0490  1.2570
  171SOPE  H16Y19402   2.503   4.498   8.463  0.5195  0.1448 -0.0635
  171SOPE  C31719403   2.317   4.544   8.380  0.5374 -0.2470  1.1879
  171SOPE  H17X19404   2.288   4.523   8.486 -3.1444  2.1920  0.8484
  171SOPE  H17Y19405   2.304   4.451   8.320  0.9858  0.4979 -0.0961
  171SOPE  C31819406   2.241   4.659   8.315  0.1989  0.1195 -0.6262
  171SOPE  H18X19407   2.289   4.686   8.219  2.9468  0.0332  0.6171
  171SOPE  H18Y19408   2.261   4.750   8.377 -2.2282  1.3089 -1.4720
  171SOPE  H18Z19409   2.131   4.651   8.310  0.3852 -3.2446 -1.0612
  172SOPE     N19410   6.706   2.346   6.602 -0.1792  0.4180 -0.0874
  172SOPE   HN119411   6.685   2.363   6.703 -1.7994 -2.4285  0.1687
  172SOPE   HN219412   6.692   2.244   6.590  0.4276  0.1810  1.0977
  172SOPE   HN319413   6.805   2.371   6.586 -1.2277  3.0691 -3.8651
  172SOPE   C1219414   6.628   2.427   6.506  0.5071 -0.2362  0.2116
  172SOPE  H12A19415   6.671   2.409   6.405  3.1873 -1.4988  1.4725
  172SOPE  H12B19416   6.630   2.531   6.544 -0.4639  0.6425 -1.9703
  172SOPE   C1119417   6.480   2.382   6.502  0.1168 -0.3494  0.2187
  172SOPE  H11A19418   6.421   2.455   6.443  2.1858  0.5506 -0.8726
  172SOPE  H11B19419   6.443   2.388   6.606  1.3890 -0.0033  0.6797
  172SOPE     P19420   6.451   2.122   6.512 -0.3582  0.0560 -0.0270
  172SOPE   O1319421   6.576   2.101   6.587 -0.0137 -0.3778 -0.4173
  172SOPE   O1419422   6.416   2.010   6.419 -0.2484  0.0588 -0.0990
  172SOPE   O1219423   6.469   2.255   6.427  0.1580 -0.0242  0.1669
  172SOPE   O1119424   6.329   2.153   6.608  0.0888  0.2790 -0.2320
  172SOPE    C119425   6.239   2.050   6.643 -0.5077  0.0991  0.0901
  172SOPE    HA19426   6.275   1.948   6.615 -1.5440 -0.4805  0.8254
  172SOPE    HB19427   6.142   2.063   6.591  0.4514  0.0803 -1.7808
  172SOPE    C219428   6.237   2.051   6.795  0.2984  0.6696 -0.5295
  172SOPE    HS19429   6.339   2.047   6.839  0.4539 -0.2731 -0.9551
  172SOPE   O2119430   6.140   1.951   6.845  0.1687 -0.2606  0.1563
  172SOPE   C2119431   6.178   1.877   6.940  0.6599 -0.2143  0.0597
  172SOPE   O2219432   6.265   1.902   7.021 -1.0506 -0.1018  0.1738
  172SOPE   C2219433   6.077   1.761   6.964 -0.2813 -0.3651 -0.7246
  172SOPE   H2R19434   6.078   1.692   6.877 -0.4616  0.8179 -1.6750
  172SOPE   H2S19435   5.977   1.808   6.973  0.2536  0.9822 -1.6437
  172SOPE    C319436   6.165   2.189   6.837 -0.4385 -0.5237 -0.2966
  172SOPE    HX19437   6.070   2.190   6.779  0.2817  2.9431 -1.6784
  172SOPE    HY19438   6.208   2.283   6.796  0.6111 -0.0828  1.7158
  172SOPE   O3119439   6.158   2.200   6.981 -0.2124  0.1209  0.7234
  172SOPE   C3119440   6.256   2.270   7.036 -0.5939  0.5935  0.8292
  172SOPE   O3219441   6.363   2.305   6.986  0.5096 -0.2762 -0.0357
  172SOPE   C3219442   6.238   2.275   7.184  1.1675 -0.4128 -0.0749
  172SOPE   H2X19443   6.330   2.314   7.233  1.9701 -1.5656 -0.6193
  172SOPE   H2Y19444   6.229   2.174   7.232  0.0011 -1.1149 -1.6862
  172SOPE   C2319445   6.107   1.693   7.095 -0.1920  0.0506 -0.0909
  172SOPE   H3R19446   6.088   1.769   7.174 -0.3320 -2.3467  2.3455
  172SOPE   H3S19447   6.212   1.657   7.101 -0.9984 -2.4541  0.1643
  172SOPE   C2419448   6.035   1.558   7.118 -0.0132 -0.1103 -0.4079
  172SOPE   H4R19449   5.928   1.582   7.139 -0.1133 -2.1448  1.7516
  172SOPE   H4S19450   6.041   1.501   7.023  3.4762  1.2768 -1.1752
  172SOPE   C2519451   6.067   1.476   7.243 -1.0627 -0.5471 -0.7709
  172SOPE   H5R19452   6.170   1.437   7.225 -0.8481  0.3573 -1.5680
  172SOPE   H5S19453   6.064   1.535   7.337  0.0937  1.4960 -1.9377
  172SOPE   C2619454   5.964   1.357   7.253  0.1099 -1.2253 -0.3891
  172SOPE   H6R19455   5.866   1.403   7.278  1.4650  1.6192  0.1545
  172SOPE   H6S19456   5.955   1.290   7.165 -0.5598 -0.8233 -0.6373
  172SOPE   C2719457   6.013   1.256   7.365  0.0316 -0.3776  0.2177
  172SOPE   H7R19458   6.037   1.160   7.313  2.0326  0.2480 -0.1195
  172SOPE   H7S19459   6.102   1.305   7.410 -0.9212  0.3910  1.3316
  172SOPE   C2819460   5.896   1.230   7.463 -0.3015 -0.0127 -0.4830
  172SOPE   H8R19461   5.804   1.204   7.406  1.5547 -1.3142 -3.1096
  172SOPE   H8S19462   5.915   1.145   7.532 -1.1617 -0.0499 -0.2712
  172SOPE   C2919463   5.879   1.357   7.542  0.3850 -0.0096 -0.2435
  172SOPE   H9119464   5.904   1.446   7.483  0.7863 -0.0652 -0.1606
  172SOPE  C21019465   5.838   1.365   7.670 -1.1246 -0.4705  0.0877
  172SOPE  H10119466   5.838   1.465   7.715  0.5303 -0.9941  1.3449
  172SOPE  C21119467   5.789   1.250   7.750  1.1398  0.3472  0.0174
  172SOPE  H11R19468   5.831   1.153   7.718 -0.0927 -0.5714  1.1133
  172SOPE  H11S19469   5.678   1.243   7.743  1.0867 -2.1300  1.9934
  172SOPE  C21219470   5.816   1.256   7.898 -0.3100 -0.0796 -0.8313
  172SOPE  H12R19471   5.924   1.278   7.915 -0.8608  0.8896  1.8715
  172SOPE  H12S19472   5.789   1.158   7.943 -1.1338  0.0322 -1.0773
  172SOPE  C21319473   5.735   1.355   7.978  0.2544  0.4439 -0.5424
  172SOPE  H13R19474   5.628   1.335   7.956 -0.4319  2.5671  0.6111
  172SOPE  H13S19475   5.745   1.456   7.932 -0.2564 -0.1674 -2.0557
  172SOPE  C21419476   5.747   1.356   8.127  0.0078  0.4143 -0.1604
  172SOPE  H14R19477   5.855   1.367   8.154 -0.0581  2.0041 -0.4922
  172SOPE  H14S19478   5.713   1.263   8.177  2.5529 -1.0639 -0.9361
  172SOPE  C21519479   5.679   1.479   8.184 -0.0787 -0.0444 -0.1775
  172SOPE  H15R19480   5.577   1.489   8.142 -0.2427 -0.5013  0.1162
  172SOPE  H15S19481   5.746   1.562   8.151  0.0507 -0.1213 -0.1131
  172SOPE  C21619482   5.676   1.460   8.336 -0.6145 -0.6657 -0.0596
  172SOPE  H16R19483   5.754   1.383   8.354 -0.2207 -0.7996 -2.0617
  172SOPE  H16S19484   5.582   1.406   8.362 -2.3108  1.6756 -0.9674
  172SOPE  C21719485   5.724   1.578   8.414 -0.1868 -0.4491  0.0620
  172SOPE  H17R19486   5.646   1.656   8.402 -1.7273 -1.6609  1.7141
  172SOPE  H17S19487   5.828   1.613   8.393 -0.5631 -0.4869 -2.1756
  172SOPE  C21819488   5.729   1.546   8.562  0.3522 -0.0527 -0.0727
  172SOPE  H18R19489   5.798   1.459   8.572 -0.4567 -0.5893  1.0494
  172SOPE  H18S19490   5.629   1.522   8.605  0.7083  1.0713  1.4581
  172SOPE  H18T19491   5.778   1.629   8.615  0.4789 -0.6776  0.8065
  172SOPE   C3319492   6.113   2.356   7.242 -0.0064  0.0853 -0.4900
  172SOPE   H3X19493   6.016   2.337   7.191 -0.5985 -1.0149  0.9796
  172SOPE   H3Y19494   6.122   2.466   7.228  0.8885  0.0038 -0.6267
  172SOPE   C3419495   6.081   2.325   7.390  0.4473 -0.3924  0.9710
  172SOPE   H4X19496   6.175   2.349   7.443  2.5416 -3.4273 -1.0315
  172SOPE   H4Y19497   6.061   2.216   7.393 -0.1865 -0.4711 -2.1822
  172SOPE   C3519498   5.959   2.403   7.450  0.1937 -0.1219  0.9313
  172SOPE   H5X19499   5.938   2.355   7.548 -1.5580 -1.2236  0.0648
  172SOPE   H5Y19500   5.868   2.394   7.387  1.7675  1.3361 -1.7058
  172SOPE   C3619501   5.973   2.557   7.469  0.6461 -0.6653  0.7690
  172SOPE   H6X19502   5.877   2.608   7.449  1.0247 -0.9069 -2.2100
  172SOPE   H6Y19503   6.036   2.603   7.389  0.8705  0.2754  1.4683
  172SOPE   C3719504   6.039   2.605   7.591  0.1490 -0.5173  0.2140
  172SOPE   H7X19505   6.059   2.713   7.577  0.5910 -0.7783 -1.3507
  172SOPE   H7Y19506   6.137   2.553   7.599  0.3729 -0.2733 -0.8470
  172SOPE   C3819507   5.965   2.567   7.721  0.2588  0.3635  0.3642
  172SOPE   H8X19508   5.952   2.457   7.733  2.3882  0.0139 -0.1255
  172SOPE   H8Y19509   5.868   2.621   7.723 -0.9870 -1.7855  0.2023
  172SOPE   C3919510   6.059   2.603   7.832 -0.2884  0.1728  0.2949
  172SOPE   H9X19511   6.076   2.712   7.821  1.2497 -0.0324  0.4208
  172SOPE   H9Y19512   6.158   2.554   7.826 -0.8174 -0.8552 -0.4454
  172SOPE  C31019513   6.000   2.573   7.970 -0.3288 -0.2360  0.2392
  172SOPE  H10X19514   6.001   2.462   7.973  0.1860 -0.2295  2.8329
  172SOPE  H10Y19515   5.902   2.622   7.987 -0.2164  0.5150 -1.0880
  172SOPE  C31119516   6.093   2.615   8.084  0.0544 -1.4261  0.0607
  172SOPE  H11X19517   6.089   2.726   8.090  2.3934 -1.2363 -0.6108
  172SOPE  H11Y19518   6.195   2.575   8.061  1.0564  0.5249  0.8857
  172SOPE  C31219519   6.035   2.553   8.213 -0.0158 -0.5422  0.1687
  172SOPE  H12X19520   5.929   2.588   8.217  0.7473  1.8341  2.2561
  172SOPE  H12Y19521   6.092   2.597   8.298  0.4583 -0.2181 -0.3100
  172SOPE  C31319522   6.065   2.401   8.228 -0.1524 -0.1707  0.0186
  172SOPE  H13X19523   6.175   2.395   8.221 -0.0947  0.0846  0.6129
  172SOPE  H13Y19524   6.025   2.337   8.147  0.5457 -1.8109  0.9218
  172SOPE  C31419525   6.001   2.342   8.352  0.4697 -0.0332 -0.1469
  172SOPE  H14X19526   5.890   2.333   8.344  0.4731  1.2966 -2.9489
  172SOPE  H14Y19527   6.022   2.405   8.441  3.2457  0.0812 -0.7897
  172SOPE  C31519528   6.066   2.202   8.370  0.1581  0.1068 -0.0265
  172SOPE  H15X19529   6.171   2.224   8.397  0.0267  0.2413  0.3751
  172SOPE  H15Y19530   6.059   2.133   8.283 -0.2005 -0.8272  0.7316
  172SOPE  C31619531   5.993   2.144   8.496  0.3006 -0.3497 -0.4028
  172SOPE  H16X19532   5.886   2.129   8.470 -0.2709  0.3226  1.3973
  172SOPE  H16Y19533   6.016   2.208   8.584  6.1228 -1.6347 -0.6222
  172SOPE  C31719534   6.048   2.003   8.519  0.2443  0.0459 -0.6051
  172SOPE  H17X19535   6.158   2.004   8.530  0.4187 -0.1902 -2.0615
  172SOPE  H17Y19536   6.027   1.939   8.431  1.7387  1.0604 -1.7394
  172SOPE  C31819537   5.983   1.944   8.650  0.3310  0.0699  1.0160
  172SOPE  H18X19538   5.872   1.941   8.643  0.3740 -2.9558 -0.1190
  172SOPE  H18Y19539   6.016   2.005   8.736 -0.7676  1.9710  0.1544
  172SOPE  H18Z19540   6.016   1.837   8.652 -1.7496 -0.8844 -3.3199
  173SAPI   C1219541   4.270   5.090  10.733  0.2580  0.5616  0.8291
  173SAPI    H219542   4.293   5.049  10.632 -1.2719 -0.1003  0.7286
  173SAPI    O219543   4.316   5.224  10.741  0.4105  0.0990 -0.2110
  173SAPI   HO219544   4.410   5.227  10.756  0.3166  0.8114  0.2446
  173SAPI   C1319545   4.122   5.083  10.748  1.0209  0.0727  0.0459
  173SAPI    H319546   4.083   4.979  10.744  1.0831  0.0816 -1.8843
  173SAPI    O319547   4.059   5.152  10.640 -0.0858 -0.1410  0.1678
  173SAPI   HO319548   4.054   5.088  10.568 -1.5532  0.1781 -0.0385
  173SAPI   C1419549   4.087   5.141  10.884  0.2917  0.3291  0.0372
  173SAPI    H419550   4.136   5.240  10.895  0.5162  0.1925  0.2643
  173SAPI    O419551   3.946   5.172  10.886 -0.1150  0.7893 -0.1873
  173SAPI   HO419552   3.916   5.195  10.798 -1.4468  2.6809  0.7048
  173SAPI   C1519553   4.144   5.049  10.990 -0.2669 -0.5871 -0.1584
  173SAPI    H519554   4.099   4.948  10.974 -1.3975  0.1388 -1.9201
  173SAPI    O519555   4.094   5.084  11.128  0.3992 -0.1554  0.4164
  173SAPI   HO519556   4.101   5.178  11.146 -0.0283  0.0975 -0.6891
  173SAPI   C1619557   4.296   5.045  10.981  0.2747 -0.1622  0.4716
  173SAPI    H619558   4.338   5.147  10.994 -0.2848  0.1333  0.0101
  173SAPI    O619559   4.342   4.960  11.081  0.1226 -0.1934 -0.3562
  173SAPI   HO619560   4.349   4.871  11.046 -1.0019 -0.9763  1.2564
  173SAPI   C1119561   4.339   5.005  10.839  0.1265  0.3533 -0.1062
  173SAPI    H119562   4.304   4.900  10.829  1.6180 -0.1940  0.0957
  173SAPI     P19563   4.566   4.915  10.728 -0.0146  0.3466  0.1392
  173SAPI   O1319564   4.511   4.776  10.718  0.4672  0.0206  0.2693
  173SAPI   O1419565   4.710   4.928  10.756  0.6621  0.1161 -0.0627
  173SAPI   O1219566   4.484   5.004  10.831 -0.3404  0.6810  0.2382
  173SAPI   O1119567   4.534   4.990  10.591 -0.4983  0.4940  0.4653
  173SAPI    C119568   4.615   5.085  10.520 -0.4869  0.1718  0.1494
  173SAPI    HA19569   4.697   5.135  10.576 -1.1199  0.6547  0.6684
  173SAPI    HB19570   4.663   5.031  10.436  1.6295 -2.8361  3.0273
  173SAPI    C219571   4.528   5.204  10.461  0.4736 -0.0166  0.4005
  173SAPI    HS19572   4.469   5.239  10.548  1.4583  0.6725  0.8080
  173SAPI   O2119573   4.442   5.148  10.358  0.4165  0.6742  0.2910
  173SAPI   C2119574   4.335   5.224  10.345 -0.1926  0.8168 -0.7110
  173SAPI   O2219575   4.308   5.326  10.406 -0.0886 -0.5700  0.1283
  173SAPI   C2219576   4.229   5.147  10.264 -0.6341  0.0415  0.2252
  173SAPI   H2R19577   4.245   5.042  10.298  0.0945 -0.7180 -2.2161
  173SAPI   H2S19578   4.133   5.196  10.289 -1.2216 -1.0728  0.2484
  173SAPI    C319579   4.616   5.316  10.409 -0.2623  0.4829  0.5844
  173SAPI    HX19580   4.659   5.353  10.504 -0.7177 -0.7159  1.2699
  173SAPI    HY19581   4.556   5.406  10.380 -1.1216 -0.4668 -0.7261
  173SAPI   O3119582   4.713   5.272  10.308 -0.0483  0.4858  0.0704
  173SAPI   C3119583   4.667   5.258  10.176 -0.8620 -0.2512 -0.3030
  173SAPI   O3219584   4.553   5.276  10.137 -0.1139  0.6555  0.4768
  173SAPI   C3219585   4.792   5.237  10.088 -0.3893 -0.1834  0.1433
  173SAPI   H2X19586   4.844   5.147  10.129 -0.8416  0.6013  2.6347
  173SAPI   H2Y19587   4.861   5.324  10.097  0.7764 -1.0391 -0.2683
  173SAPI   C2319588   4.266   5.154  10.114 -0.8445 -0.2422  0.2223
  173SAPI   H3R19589   4.373   5.124  10.108 -0.1049  2.2958 -0.2905
  173SAPI   H3S19590   4.271   5.261  10.084  1.0211 -0.5736 -0.8274
  173SAPI   C2419591   4.181   5.069  10.020 -0.1430  1.1290  0.3322
  173SAPI   H4R19592   4.168   4.965  10.058  1.8452  0.9716  0.7275
  173SAPI   H4S19593   4.224   5.066   9.918 -0.4209 -1.2035  0.2127
  173SAPI   C2519594   4.042   5.126  10.014  0.1937  0.1465  0.8434
  173SAPI   H5R19595   3.974   5.104  10.098  0.4307 -2.4645  0.4391
  173SAPI   C2619596   3.985   5.190   9.911 -0.5102  0.6153 -0.1612
  173SAPI   H6R19597   3.888   5.237   9.933  0.1591  1.9436  0.0271
  173SAPI   C2719598   4.041   5.231   9.780  0.7734 -0.2656 -0.1976
  173SAPI   H7R19599   4.130   5.295   9.795 -0.1239  1.8423 -3.0058
  173SAPI   H7S19600   3.978   5.313   9.738  0.1483 -1.0396 -0.8162
  173SAPI   C2819601   4.056   5.119   9.680 -0.3938 -0.2862 -0.3170
  173SAPI   H8R19602   4.042   5.015   9.711  0.4707 -0.1429  0.6152
  173SAPI   C2919603   4.101   5.145   9.555 -0.2262  0.3379 -1.0289
  173SAPI   H9R19604   4.116   5.057   9.491 -0.5294  0.2087 -0.9243
  173SAPI  C21019605   4.128   5.276   9.484 -0.3512  0.1345 -0.1233
  173SAPI  H10R19606   4.047   5.346   9.516 -0.9961 -1.0154  0.8741
  173SAPI  H10S19607   4.118   5.261   9.375  3.1542 -2.5741 -0.2342
  173SAPI  C21119608   4.269   5.324   9.515  0.0046 -0.1736  0.8358
  173SAPI  H11R19609   4.276   5.414   9.578 -0.4065  0.5497 -0.1262
  173SAPI  C21219610   4.379   5.286   9.450  0.0875  0.7653  0.2697
  173SAPI  H12R19611   4.475   5.316   9.493  0.8095 -1.4862  0.3580
  173SAPI  C21319612   4.407   5.186   9.340 -0.1359  0.4512 -0.1379
  173SAPI  H13R19613   4.363   5.229   9.248  0.8243  2.0549  0.0980
  173SAPI  H13S19614   4.349   5.092   9.347 -0.9463  0.7818 -1.9667
  173SAPI  C21419615   4.551   5.148   9.313  0.0435  0.5445 -0.1210
  173SAPI  H14R19616   4.615   5.129   9.401 -2.7907  1.1242  2.2080
  173SAPI  C21519617   4.611   5.154   9.187  0.3384 -0.3666  0.3620
  173SAPI  H15R19618   4.718   5.131   9.173  0.8867  0.1772  3.0779
  173SAPI  C21619619   4.541   5.187   9.055  0.4642 -0.0245 -0.4115
  173SAPI  H16R19620   4.432   5.165   9.056  0.8793 -2.5321 -1.9373
  173SAPI  H16S19621   4.581   5.131   8.968  0.0634 -1.1272  0.1071
  173SAPI  C21719622   4.562   5.336   9.037  0.3005 -0.0400 -1.1496
  173SAPI  H17R19623   4.672   5.347   9.034  0.3252  0.5605  0.7115
  173SAPI  H17S19624   4.526   5.392   9.126  2.2987  2.5555 -1.8676
  173SAPI  C21819625   4.486   5.401   8.916 -0.3975 -0.3472  0.5551
  173SAPI  H18R19626   4.496   5.511   8.920 -0.3311 -0.1377 -2.7750
  173SAPI  H18S19627   4.381   5.368   8.928  0.2840 -1.5213  6.0904
  173SAPI  C21919628   4.524   5.361   8.775  0.4734 -0.1439  0.2751
  173SAPI  H19R19629   4.461   5.403   8.694  0.7316  0.5755  0.4438
  173SAPI  H19S19630   4.519   5.250   8.770  4.2033 -0.4237 -0.2728
  173SAPI  C22019631   4.679   5.386   8.745  0.0808 -0.4778 -0.4618
  173SAPI  H20R19632   4.711   5.352   8.644 -1.1479 -2.4885 -0.2127
  173SAPI  H20S19633   4.750   5.338   8.816  1.7351  1.1098 -0.9389
  173SAPI  H20T19634   4.688   5.495   8.766 -1.6544 -0.3107 -0.4264
  173SAPI   C3319635   4.754   5.221   9.934  0.3691 -0.4927  0.6945
  173SAPI   H3X19636   4.674   5.144   9.923  0.0652 -0.2737  1.3109
  173SAPI   H3Y19637   4.836   5.178   9.872  0.6305 -1.2953  1.5629
  173SAPI   C3419638   4.702   5.354   9.877 -0.7002  0.8640 -0.3603
  173SAPI   H4X19639   4.783   5.429   9.895  0.0160 -0.2907  1.5742
  173SAPI   H4Y19640   4.613   5.389   9.933 -1.0247 -0.8533  0.2564
  173SAPI   C3519641   4.675   5.351   9.723 -0.5831  0.1113  0.8814
  173SAPI   H5X19642   4.619   5.265   9.683  1.6828 -0.9235 -0.2767
  173SAPI   H5Y19643   4.777   5.333   9.683  0.7979  3.5332  2.4602
  173SAPI   C3619644   4.626   5.486   9.666 -0.0413  0.3605 -0.1660
  173SAPI   H6X19645   4.656   5.555   9.748 -0.0017  0.5199 -0.3133
  173SAPI   H6Y19646   4.515   5.484   9.669 -0.1868 -4.6033 -0.4961
  173SAPI   C3719647   4.688   5.522   9.533 -0.2055  0.6388 -0.0354
  173SAPI   H7X19648   4.686   5.432   9.468 -0.2313  0.1079  0.6915
  173SAPI   H7Y19649   4.793   5.554   9.551 -0.0948 -0.3722  1.2761
  173SAPI   C3819650   4.619   5.638   9.467  0.5304  0.0146  0.1993
  173SAPI   H8X19651   4.590   5.713   9.543  1.7022 -2.6082  3.4925
  173SAPI   H8Y19652   4.528   5.596   9.420  1.2145 -0.4453 -0.7592
  173SAPI   C3919653   4.708   5.697   9.354 -0.2849  0.6877 -0.6410
  173SAPI   H9X19654   4.800   5.741   9.398  0.6459 -0.3530 -1.4771
  173SAPI   H9Y19655   4.641   5.765   9.297 -0.4744 -0.4055 -1.7643
  173SAPI  C31019656   4.769   5.585   9.268  0.1849 -0.2984  0.7768
  173SAPI  H10X19657   4.687   5.515   9.240  1.3754 -0.8938 -1.4069
  173SAPI  H10Y19658   4.842   5.526   9.327 -1.3907 -0.2770  2.8525
  173SAPI  C31119659   4.836   5.643   9.141  0.3241  0.1987 -0.2833
  173SAPI  H11X19660   4.768   5.691   9.068 -1.6619 -1.9962 -0.0024
  173SAPI  H11Y19661   4.882   5.557   9.088  1.9400  1.1754 -0.5279
  173SAPI  C31219662   4.939   5.751   9.174  0.5695 -0.6489  0.0295
  173SAPI  H12X19663   5.000   5.718   9.261  1.3237 -0.1018 -0.2857
  173SAPI  H12Y19664   4.882   5.841   9.206 -1.9984 -1.9099 -0.6884
  173SAPI  C31319665   5.040   5.771   9.063 -0.1790  0.3166 -0.1934
  173SAPI  H13X19666   5.096   5.675   9.054  2.0313  1.6398 -2.0746
  173SAPI  H13Y19667   5.111   5.849   9.097 -0.1897  0.2460 -0.0109
  173SAPI  C31419668   4.980   5.830   8.933  1.2720  0.1033  0.6140
  173SAPI  H14X19669   4.936   5.927   8.965  0.5537  0.0431 -0.1476
  173SAPI  H14Y19670   4.909   5.755   8.893  0.9496 -0.1360  1.6032
  173SAPI  C31519671   5.075   5.860   8.817  0.3381  0.4613 -0.5895
  173SAPI  H15X19672   5.139   5.771   8.799 -0.5050 -0.6546  1.6202
  173SAPI  H15Y19673   5.137   5.949   8.842  1.4722 -0.6138  0.5024
  173SAPI  C31619674   4.994   5.890   8.687  0.5155  0.4849  0.0846
  173SAPI  H16X19675   4.952   5.993   8.689 -3.2509 -0.9250  1.6163
  173SAPI  H16Y19676   4.915   5.816   8.666  0.5692  0.6567 -0.7571
  173SAPI  C31719677   5.086   5.879   8.568 -0.3573 -0.6544 -0.0706
  173SAPI  H17X19678   5.163   5.799   8.581  0.7959  0.1648 -1.5803
  173SAPI  H17Y19679   5.143   5.974   8.582  0.3609 -1.2354  1.1359
  173SAPI  C31819680   5.022   5.876   8.428  0.2880 -0.3431  0.5286
  173SAPI  H18X19681   4.984   5.775   8.403 -1.4111  0.4963 -0.4486
  173SAPI  H18Y19682   5.100   5.896   8.351  0.6732 -0.4145  0.8987
  173SAPI  H18Z19683   4.939   5.948   8.415 -0.8130 -1.8559 -1.4259
  174SAPI   C1219684   6.418   0.774  11.042 -0.4662  0.1160  0.2121
  174SAPI    H219685   6.420   0.856  10.968  1.6785  0.8171  0.9935
  174SAPI    O219686   6.460   0.835  11.166  0.1682 -0.3954 -0.4751
  174SAPI   HO219687   6.556   0.837  11.166  0.5056 -0.0331  4.9950
  174SAPI   C1319688   6.287   0.710  11.058  0.0767  0.5838 -0.0352
  174SAPI    H319689   6.243   0.677  10.962 -1.6710  0.4121  0.7825
  174SAPI    O319690   6.197   0.808  11.110 -0.5371  0.3580 -0.0887
  174SAPI   HO319691   6.238   0.853  11.184 -2.0996  0.2245  0.9168
  174SAPI   C1419692   6.289   0.593  11.159 -0.3833 -0.4419  0.7242
  174SAPI    H419693   6.328   0.635  11.254  0.8954 -1.0812  0.5045
  174SAPI    O419694   6.167   0.535  11.186 -0.3511 -0.1231 -0.4649
  174SAPI   HO419695   6.127   0.508  11.103 -0.5383  0.2385 -0.4907
  174SAPI   C1519696   6.389   0.486  11.108 -0.3290 -0.2507  0.3178
  174SAPI    H519697   6.363   0.448  11.007 -1.0368 -0.6767  0.6540
  174SAPI    O519698   6.396   0.377  11.198  0.7319 -0.2277 -0.0395
  174SAPI   HO519699   6.408   0.405  11.289 -2.9860  0.0465  0.5403
  174SAPI   C1619700   6.532   0.551  11.092  0.5267 -0.2859 -0.7581
  174SAPI    H619701   6.581   0.582  11.186 -0.9225  1.2057 -0.4442
  174SAPI    O619702   6.611   0.450  11.021  0.3463  0.1907  0.1982
  174SAPI   HO619703   6.687   0.493  10.982  1.1517 -0.7176  0.7073
  174SAPI   C1119704   6.523   0.668  10.992  0.6235 -0.6426  0.6241
  174SAPI    H119705   6.505   0.637  10.887  1.4289 -0.8377  0.5378
  174SAPI     P19706   6.769   0.715  10.893  0.2175 -0.5300  0.3752
  174SAPI   O1319707   6.815   0.574  10.889  0.3011  0.1295 -0.0468
  174SAPI   O1419708   6.869   0.814  10.936  0.3276 -0.4599  0.4984
  174SAPI   O1219709   6.647   0.743  10.996 -0.4739  0.2848  0.1122
  174SAPI   O1119710   6.709   0.761  10.754  0.1376  0.2525 -0.8612
  174SAPI    C119711   6.684   0.670  10.643 -0.1636  0.3545  0.3422
  174SAPI    HA19712   6.681   0.565  10.679  1.5278  0.5138  1.0895
  174SAPI    HB19713   6.583   0.692  10.603 -0.3391 -1.8701 -0.5790
  174SAPI    C219714   6.781   0.686  10.526 -0.0667 -0.0358 -0.0172
  174SAPI    HS19715   6.873   0.629  10.550  1.2772  0.1874 -3.9474
  174SAPI   O2119716   6.817   0.820  10.504 -0.4030 -0.4546 -0.0332
  174SAPI   C2119717   6.933   0.868  10.551  0.6750 -0.1209  0.2329
  174SAPI   O2219718   7.009   0.813  10.625 -0.0190 -0.2869  0.1069
  174SAPI   C2219719   6.953   1.012  10.492  0.1191  0.8338 -0.1475
  174SAPI   H2R19720   6.854   1.062  10.486 -0.8501 -0.7363  1.9532
  174SAPI   H2S19721   7.019   1.065  10.564 -1.0623  0.9099  0.9155
  174SAPI    C319722   6.723   0.633  10.395  0.3561  0.0506 -0.0206
  174SAPI    HX19723   6.632   0.691  10.368  1.1386  0.2309 -2.5492
  174SAPI    HY19724   6.692   0.529  10.417  0.2579  0.0288 -0.2547
  174SAPI   O3119725   6.820   0.625  10.287  0.6093 -0.3724 -0.0138
  174SAPI   C3119726   6.787   0.561  10.174  0.1620  0.8510  0.0400
  174SAPI   O3219727   6.682   0.504  10.157 -0.7564  0.0800 -0.1530
  174SAPI   C3219728   6.910   0.559  10.073  0.3957 -0.2481 -1.0221
  174SAPI   H2X19729   6.929   0.456  10.036 -1.7079  0.4449 -4.4703
  174SAPI   H2Y19730   6.992   0.600  10.136 -0.7493  0.8147 -0.1833
  174SAPI   C2319731   7.023   1.003  10.357  0.5273 -0.0108  1.2701
  174SAPI   H3R19732   7.102   0.925  10.352  0.0506 -0.4530  0.4152
  174SAPI   H3S19733   7.072   1.096  10.321  2.2790 -1.9745 -1.9699
  174SAPI   C2419734   6.919   0.962  10.239 -0.0184 -0.6839 -0.4159
  174SAPI   H4R19735   6.864   0.872  10.274  2.0994 -1.6166  0.6907
  174SAPI   H4S19736   6.982   0.940  10.151 -0.9289 -1.2074 -0.9567
  174SAPI   C2519737   6.819   1.070  10.205  0.4875 -0.1211  0.7464
  174SAPI   H5R19738   6.752   1.085  10.291  1.7221  1.3651  1.4831
  174SAPI   C2619739   6.801   1.141  10.090 -0.9146 -0.0566  0.3931
  174SAPI   H6R19740   6.725   1.221  10.088 -1.7376 -0.7865  1.6089
  174SAPI   C2719741   6.890   1.124   9.970  0.1286 -0.9908 -0.3323
  174SAPI   H7R19742   6.817   1.098   9.889 -2.1434  0.8967  0.9948
  174SAPI   H7S19743   6.961   1.040   9.982 -0.5734 -1.3082  2.2545
  174SAPI   C2819744   6.962   1.251   9.929 -0.0705 -0.0434 -0.0044
  174SAPI   H8R19745   6.995   1.305  10.018  0.2686 -1.9771  1.1009
  174SAPI   C2919746   6.997   1.289   9.805  0.8015 -0.7136  0.0167
  174SAPI   H9R19747   7.059   1.379   9.797  0.8096 -0.6780  0.4904
  174SAPI  C21019748   6.955   1.204   9.683  0.4910 -0.3461 -0.1104
  174SAPI  H10R19749   6.861   1.242   9.636  0.2118 -0.5122  0.3029
  174SAPI  H10S19750   6.938   1.096   9.701  2.1521 -0.9030 -1.6107
  174SAPI  C21119751   7.075   1.202   9.588 -0.4491  0.6294 -0.2178
  174SAPI  H11R19752   7.179   1.192   9.622 -0.2040  0.3053 -1.0273
  174SAPI  C21219753   7.056   1.209   9.453  0.1121  0.8894 -0.2806
  174SAPI  H12R19754   7.142   1.192   9.387 -0.3652 -1.7018 -0.3545
  174SAPI  C21319755   6.929   1.218   9.372  0.2739 -0.1690 -0.6038
  174SAPI  H13R19756   6.839   1.171   9.416 -0.3785  2.3472  0.9274
  174SAPI  H13S19757   6.961   1.175   9.275  4.9117  2.2254 -0.4310
  174SAPI  C21419758   6.894   1.363   9.350  0.2997 -0.4252 -0.3495
  174SAPI  H14R19759   6.843   1.398   9.441  0.9696 -0.9497  0.2459
  174SAPI  C21519760   6.922   1.443   9.239 -0.0500 -0.2792 -0.9027
  174SAPI  H15R19761   6.855   1.529   9.220 -1.0615 -1.2697 -2.0567
  174SAPI  C21619762   6.991   1.391   9.113 -0.6535 -0.5039  0.6979
  174SAPI  H16R19763   7.014   1.283   9.123 -0.6291 -0.5009  0.6748
  174SAPI  H16S19764   7.086   1.448   9.127 -1.3186  0.3278  1.9967
  174SAPI  C21719765   6.919   1.406   8.982 -0.3183  0.0087 -0.2465
  174SAPI  H17R19766   6.821   1.355   8.987 -0.9546  1.3044  2.0192
  174SAPI  H17S19767   6.986   1.355   8.910 -0.4246 -0.6236  0.0883
  174SAPI  C21819768   6.910   1.546   8.941 -0.3226 -1.4403 -0.4531
  174SAPI  H18R19769   7.006   1.599   8.954 -0.5671 -1.2750  0.7745
  174SAPI  H18S19770   6.842   1.592   9.016 -0.5728  0.2277 -1.6460
  174SAPI  C21919771   6.863   1.571   8.798  0.3337 -0.2742 -0.8282
  174SAPI  H19R19772   6.803   1.490   8.751  1.6757 -0.8736 -1.5437
  174SAPI  H19S19773   6.956   1.581   8.738 -0.1751  1.1594 -1.4368
  174SAPI  C22019774   6.796   1.709   8.787  0.1585  0.6402 -0.4643
  174SAPI  H20R19775   6.715   1.715   8.862  0.8999 -0.4020  0.4433
  174SAPI  H20S19776   6.760   1.732   8.684 -2.2413  1.7899  0.5566
  174SAPI  H20T19777   6.860   1.793   8.823 -1.2127  0.5994  2.3304
  174SAPI   C3319778   6.906   0.649   9.949  0.2797 -0.0827  0.3728
  174SAPI   H3X19779   6.878   0.754   9.974 -0.4496  0.0540 -0.9330
  174SAPI   H3Y19780   6.835   0.609   9.874  2.0595  1.6792 -2.4186
  174SAPI   C3419781   7.032   0.650   9.861  1.2667  0.2072 -0.6673
  174SAPI   H4X19782   7.056   0.543   9.845 -1.8819 -0.7409  0.1947
  174SAPI   H4Y19783   7.109   0.698   9.924  1.4171 -2.1053  1.0117
  174SAPI   C3519784   7.023   0.744   9.740 -0.1322  0.5216 -0.3646
  174SAPI   H5X19785   7.023   0.853   9.764  1.4371  0.6619 -0.9274
  174SAPI   H5Y19786   6.924   0.718   9.697 -0.2906 -0.9103  0.7977
  174SAPI   C3619787   7.132   0.719   9.637 -0.4177  0.8658  0.2268
  174SAPI   H6X19788   7.157   0.611   9.629 -1.9532  0.5159 -0.0027
  174SAPI   H6Y19789   7.230   0.757   9.675  1.1603 -2.5815 -0.0007
  174SAPI   C3719790   7.120   0.781   9.495 -0.2086 -0.3628  0.8049
  174SAPI   H7X19791   7.220   0.809   9.455 -1.9126  2.4950 -1.9742
  174SAPI   H7Y19792   7.067   0.877   9.516  0.0752  0.0351 -0.2408
  174SAPI   C3819793   7.025   0.714   9.397 -0.2520 -0.1048  0.1842
  174SAPI   H8X19794   6.933   0.682   9.451  1.5292 -0.6092  3.1480
  174SAPI   H8Y19795   7.075   0.625   9.353  0.0363  0.3934 -0.5069
  174SAPI   C3919796   6.977   0.798   9.276 -0.1438 -0.4768 -0.0977
  174SAPI   H9X19797   6.914   0.879   9.318  3.5663  1.0065  3.2647
  174SAPI   H9Y19798   6.913   0.742   9.204 -2.1752  3.0075 -1.2570
  174SAPI  C31019799   7.096   0.866   9.197 -0.6415  0.0029  0.0962
  174SAPI  H10X19800   7.189   0.807   9.208 -0.1844  0.1875 -2.3010
  174SAPI  H10Y19801   7.120   0.963   9.246  0.0513 -0.5751  0.9391
  174SAPI  C31119802   7.067   0.880   9.050 -0.2281 -0.4637  0.1425
  174SAPI  H11X19803   6.967   0.925   9.032  0.8119  1.5047 -1.0844
  174SAPI  H11Y19804   7.074   0.780   9.000 -2.1977 -0.6511  0.1656
  174SAPI  C31219805   7.175   0.969   8.979  1.0483  0.0784 -0.5410
  174SAPI  H12X19806   7.282   0.940   8.987  1.2554  1.1201  1.0163
  174SAPI  H12Y19807   7.169   1.070   9.026 -0.1105  0.0617 -0.6364
  174SAPI  C31319808   7.138   1.005   8.832  0.1534  0.0130 -0.0658
  174SAPI  H13X19809   7.041   1.058   8.836  0.8510  1.4093 -0.8340
  174SAPI  H13Y19810   7.123   0.911   8.775  2.0174 -0.7884  0.6732
  174SAPI  C31419811   7.232   1.098   8.761  0.5280  0.5591  0.0931
  174SAPI  H14X19812   7.330   1.056   8.728  0.3169 -0.4993  0.7518
  174SAPI  H14Y19813   7.259   1.187   8.822  1.4888  0.4197 -0.1047
  174SAPI  C31519814   7.172   1.135   8.624 -0.2411 -0.2589 -0.2782
  174SAPI  H15X19815   7.067   1.167   8.642 -0.6093 -1.7228  0.2880
  174SAPI  H15Y19816   7.166   1.046   8.558  0.6143 -0.5153 -0.0312
  174SAPI  C31619817   7.259   1.236   8.545  0.8281  0.0321 -0.1923
  174SAPI  H16X19818   7.355   1.179   8.547  0.3514 -0.8059  2.1222
  174SAPI  H16Y19819   7.290   1.330   8.594  1.3607 -1.0740  1.7105
  174SAPI  C31719820   7.219   1.273   8.399  0.2054  0.1483 -0.0176
  174SAPI  H17X19821   7.111   1.294   8.388  0.0614 -0.1454  0.7837
  174SAPI  H17Y19822   7.240   1.197   8.321 -1.2575  1.1806 -1.4725
  174SAPI  C31819823   7.301   1.400   8.348  0.5154  0.7438  0.5264
  174SAPI  H18X19824   7.272   1.431   8.245 -1.6778 -1.0337  0.5383
  174SAPI  H18Y19825   7.412   1.388   8.349  0.7650  2.1302 -2.0898
  174SAPI  H18Z19826   7.278   1.484   8.417 -3.0353  0.1628  0.2013
  175SAPI   C1219827   5.708   5.833   5.980  0.9030  0.4658 -0.1495
  175SAPI    H219828   5.703   5.939   6.014  1.4060  0.6301 -0.5677
  175SAPI    O219829   5.623   5.822   5.867 -0.0856  0.2385  0.3157
  175SAPI   HO219830   5.583   5.909   5.860  1.2730  0.9780  1.2240
  175SAPI   C1319831   5.853   5.814   5.940  0.4940 -0.7201 -0.1040
  175SAPI    H319832   5.914   5.828   6.032 -0.0125 -0.2354  0.1611
  175SAPI    O319833   5.885   5.914   5.843  0.6116 -0.1299  0.7147
  175SAPI   HO319834   5.809   5.932   5.787  1.3725 -0.0740 -0.3298
  175SAPI   C1419835   5.888   5.670   5.912  0.1706 -0.4368  0.0665
  175SAPI    H419836   5.832   5.625   5.828  2.7876 -1.7859 -1.0794
  175SAPI    O419837   6.025   5.656   5.889 -0.1342  0.4571  0.1340
  175SAPI   HO419838   6.043   5.699   5.805  1.1201  1.4199  0.8657
  175SAPI   C1519839   5.852   5.591   6.037  1.4304  0.5956  0.3489
  175SAPI    H519840   5.902   5.629   6.129  0.2815 -1.2237  1.7959
  175SAPI    O519841   5.896   5.457   6.015  0.0276 -0.3441 -0.1331
  175SAPI   HO519842   5.959   5.463   5.942 -0.1253  0.5571 -0.1955
  175SAPI   C1619843   5.693   5.601   6.059 -0.3407  0.4452  0.3606
  175SAPI    H619844   5.646   5.577   5.962  2.3663 -1.0027 -0.6899
  175SAPI    O619845   5.646   5.504   6.154  0.4885 -0.0547 -0.7397
  175SAPI   HO619846   5.551   5.491   6.145  0.5484  0.5722 -2.5443
  175SAPI   C1119847   5.663   5.742   6.099  0.9596  0.8891 -0.3538
  175SAPI    H119848   5.725   5.774   6.185  1.6781  0.3882 -0.6784
  175SAPI     P19849   5.465   5.875   6.225 -0.2859  0.2300 -0.0196
  175SAPI   O1319850   5.316   5.885   6.214 -0.7088 -0.2935 -0.0503
  175SAPI   O1419851   5.548   5.997   6.196 -0.9705  0.4482 -0.3602
  175SAPI   O1219852   5.522   5.751   6.131  0.0204 -0.0486 -0.3655
  175SAPI   O1119853   5.513   5.840   6.380  0.0460 -0.8480  0.0152
  175SAPI    C119854   5.516   5.704   6.408  0.2757  0.2702 -0.2499
  175SAPI    HA19855   5.420   5.652   6.385  0.7639 -0.6235 -0.3349
  175SAPI    HB19856   5.586   5.654   6.339  0.4093  1.7952 -1.2643
  175SAPI    C219857   5.555   5.669   6.552  0.6513 -0.3030 -0.4072
  175SAPI    HS19858   5.572   5.559   6.554 -0.1931 -0.4356 -0.4441
  175SAPI   O2119859   5.446   5.710   6.641  0.6221 -0.4609 -0.3204
  175SAPI   C2119860   5.375   5.617   6.701 -0.9061 -0.3226 -0.1953
  175SAPI   O2219861   5.386   5.498   6.683  0.4744  0.5477 -0.1182
  175SAPI   C2219862   5.283   5.681   6.804  0.3631  0.5308  0.7695
  175SAPI   H2R19863   5.344   5.744   6.873 -0.0758  1.9503 -0.1032
  175SAPI   H2S19864   5.196   5.731   6.756  0.8926  0.3682 -0.3858
  175SAPI    C319865   5.692   5.738   6.590  0.2051 -0.4661  0.5326
  175SAPI    HX19866   5.694   5.844   6.556 -3.1647 -0.5634 -0.3043
  175SAPI    HY19867   5.761   5.688   6.519 -1.4585  0.8262 -2.1767
  175SAPI   O3119868   5.727   5.726   6.721 -0.3308  0.1008  0.4358
  175SAPI   C3119869   5.676   5.799   6.812 -0.9465 -0.3274  0.0983
  175SAPI   O3219870   5.602   5.894   6.796 -0.3359 -0.0335 -0.3161
  175SAPI   C3219871   5.702   5.738   6.953 -0.9306 -0.3934  0.0428
  175SAPI   H2X19872   5.810   5.713   6.958 -0.1817  1.9450 -2.0048
  175SAPI   H2Y19873   5.642   5.645   6.951 -1.0177 -0.3546  0.6530
  175SAPI   C2319874   5.231   5.563   6.887  0.0924 -0.0297  0.3118
  175SAPI   H3R19875   5.313   5.494   6.920  1.7892  3.3457  3.9815
  175SAPI   H3S19876   5.150   5.508   6.834  0.0005 -2.3081  2.6055
  175SAPI   C2419877   5.181   5.600   7.027 -0.2292 -0.3377 -0.2165
  175SAPI   H4R19878   5.118   5.522   7.075 -0.7568 -0.4553 -1.0685
  175SAPI   H4S19879   5.117   5.689   7.015  0.5178  0.4371  1.3756
  175SAPI   C2519880   5.286   5.654   7.117  0.1677  0.1570 -0.2149
  175SAPI   H5R19881   5.278   5.761   7.139 -1.6148 -0.1777  0.9374
  175SAPI   C2619882   5.368   5.574   7.181 -0.0356  0.3033 -0.0159
  175SAPI   H6R19883   5.449   5.617   7.242 -0.7614  2.2351 -0.3432
  175SAPI   C2719884   5.377   5.424   7.176  0.1039  1.0955  0.1024
  175SAPI   H7R19885   5.336   5.374   7.085 -0.3659 -1.4542  1.6023
  175SAPI   H7S19886   5.317   5.369   7.251 -1.0905 -1.3799 -2.4516
  175SAPI   C2819887   5.521   5.382   7.186 -0.3630 -0.2162  0.0940
  175SAPI   H8R19888   5.566   5.369   7.087 -1.7504 -1.1160 -0.4390
  175SAPI   C2919889   5.580   5.336   7.298 -0.5536  0.1009  0.1114
  175SAPI   H9R19890   5.690   5.330   7.294 -0.4676  1.1185  0.4464
  175SAPI  C21019891   5.529   5.322   7.446 -0.0500 -0.4104  0.2679
  175SAPI  H10R19892   5.552   5.217   7.474  0.7599 -0.7982 -1.6705
  175SAPI  H10S19893   5.419   5.335   7.452  0.1856  4.3901 -0.9343
  175SAPI  C21119894   5.572   5.431   7.538 -0.9461  0.6699  0.2884
  175SAPI  H11R19895   5.567   5.529   7.488 -0.5057 -0.0178 -1.1617
  175SAPI  C21219896   5.626   5.409   7.663  0.4108  0.7807  0.4453
  175SAPI  H12R19897   5.644   5.491   7.735  1.0391 -0.1707  1.4079
  175SAPI  C21319898   5.652   5.272   7.718  0.4705  0.8280  0.2220
  175SAPI  H13R19899   5.676   5.188   7.649 -1.8267  1.2863 -1.2301
  175SAPI  H13S19900   5.556   5.239   7.765 -0.1210 -0.5133 -1.8013
  175SAPI  C21419901   5.757   5.278   7.821 -0.2772  0.5460 -0.2450
  175SAPI  H14R19902   5.859   5.294   7.782  0.5786  0.0974  1.7289
  175SAPI  C21519903   5.751   5.266   7.958 -1.0033  0.1622  0.2097
  175SAPI  H15R19904   5.844   5.270   8.017 -0.4282  0.9011 -0.7225
  175SAPI  C21619905   5.633   5.258   8.048 -0.4331  0.8147 -0.5834
  175SAPI  H16R19906   5.541   5.288   7.992 -0.0907  0.3129 -1.4217
  175SAPI  H16S19907   5.655   5.332   8.128  0.6250  0.4376 -0.5138
  175SAPI  C21719908   5.609   5.125   8.124  0.3539  0.5129  0.3264
  175SAPI  H17R19909   5.593   5.039   8.055  2.5510 -0.4967  0.9887
  175SAPI  H17S19910   5.511   5.146   8.172 -0.0344 -2.3236  0.9066
  175SAPI  C21819911   5.722   5.087   8.224  0.5145 -0.0871 -0.4986
  175SAPI  H18R19912   5.812   5.072   8.161  1.2199 -2.2386  0.9253
  175SAPI  H18S19913   5.704   4.987   8.268 -4.3693  0.5219 -0.5580
  175SAPI  C21919914   5.742   5.186   8.335 -0.4729  0.5484  0.9103
  175SAPI  H19R19915   5.647   5.215   8.383 -0.2705  1.1569  0.9549
  175SAPI  H19S19916   5.783   5.279   8.289  0.4138 -0.4351 -0.3957
  175SAPI  C22019917   5.847   5.140   8.432  0.0621  0.1641  0.1918
  175SAPI  H20R19918   5.870   5.226   8.499  0.7706  0.4566 -0.4113
  175SAPI  H20S19919   5.945   5.103   8.394 -1.1287 -2.3085 -0.7072
  175SAPI  H20T19920   5.793   5.053   8.474 -0.0015 -0.3960 -1.0250
  175SAPI   C3319921   5.646   5.817   7.065  0.2779 -0.2325  0.1225
  175SAPI   H3X19922   5.646   5.756   7.158  0.4619  1.4652  1.2786
  175SAPI   H3Y19923   5.542   5.849   7.046  0.1933 -0.3984  0.3033
  175SAPI   C3419924   5.733   5.939   7.091  0.1186  0.1026 -0.3124
  175SAPI   H4X19925   5.748   6.001   7.000 -0.5444  0.0005 -0.4968
  175SAPI   H4Y19926   5.828   5.883   7.104 -0.5454 -2.0452 -3.5189
  175SAPI   C3519927   5.693   6.032   7.209 -0.3226 -0.1989 -0.1185
  175SAPI   H5X19928   5.677   5.967   7.297 -0.5125 -0.8550 -0.6337
  175SAPI   H5Y19929   5.601   6.094   7.203  0.3298  0.9336  1.0842
  175SAPI   C3619930   5.803   6.143   7.233  0.0429 -0.1844 -0.5626
  175SAPI   H6X19931   5.812   6.210   7.145 -0.0663 -0.6032 -0.8994
  175SAPI   H6Y19932   5.895   6.082   7.248  0.1493 -0.2575 -1.4496
  175SAPI   C3719933   5.778   6.229   7.347  0.0912  0.2294 -0.2659
  175SAPI   H7X19934   5.679   6.278   7.344  1.6996  3.7778 -0.7983
  175SAPI   H7Y19935   5.859   6.305   7.351 -0.3218  0.6075  1.7308
  175SAPI   C3819936   5.776   6.148   7.475  0.5787  0.2238 -0.5781
  175SAPI   H8X19937   5.864   6.083   7.492 -0.7669 -1.0876  2.1197
  175SAPI   H8Y19938   5.688   6.079   7.481  1.3946 -0.7441  1.4599
  175SAPI   C3919939   5.786   6.250   7.595  0.1040  0.3133  0.0778
  175SAPI   H9X19940   5.699   6.318   7.605 -0.5109 -0.6205  1.2416
  175SAPI   H9Y19941   5.879   6.311   7.594 -0.1265  0.7947  2.4221
  175SAPI  C31019942   5.790   6.169   7.734  0.6400  0.3228  0.3798
  175SAPI  H10X19943   5.880   6.107   7.751  0.4352  0.2656  1.3259
  175SAPI  H10Y19944   5.709   6.093   7.740  1.5332 -0.5534  2.4853
  175SAPI  C31119945   5.771   6.264   7.847  0.5365 -0.0482  0.4598
  175SAPI  H11X19946   5.685   6.332   7.826 -0.6647 -1.6304 -0.0226
  175SAPI  H11Y19947   5.863   6.324   7.855  2.3081 -2.2008 -2.0694
  175SAPI  C31219948   5.742   6.207   7.990 -0.0315 -0.1207 -0.6077
  175SAPI  H12X19949   5.824   6.143   8.029  1.8255  0.9856 -2.4605
  175SAPI  H12Y19950   5.650   6.145   7.987  0.3410 -0.8144  1.1749
  175SAPI  C31319951   5.713   6.317   8.095  0.2267  0.0600 -0.3199
  175SAPI  H13X19952   5.603   6.335   8.096  0.3103  0.6589 -1.0987
  175SAPI  H13Y19953   5.757   6.415   8.068  3.1343 -1.6558 -2.3314
  175SAPI  C31419954   5.774   6.280   8.236  0.0525 -0.7215  0.2506
  175SAPI  H14X19955   5.884   6.267   8.239  0.2393 -0.5997 -2.8046
  175SAPI  H14Y19956   5.732   6.185   8.275 -1.7161 -1.0378 -2.1779
  175SAPI  C31519957   5.756   6.395   8.335  0.2396  0.4483 -0.1401
  175SAPI  H15X19958   5.650   6.427   8.344  0.1785  0.0085  0.8561
  175SAPI  H15Y19959   5.810   6.486   8.303 -0.1970  0.0466 -2.1555
  175SAPI  C31619960   5.820   6.364   8.477  0.6409  0.2617  0.1683
  175SAPI  H16X19961   5.921   6.318   8.467 -0.4296 -2.5560  1.3254
  175SAPI  H16Y19962   5.760   6.282   8.522 -0.0960  0.2768 -0.7393
  175SAPI  C31719963   5.823   6.483   8.584  0.8057  0.3207 -0.2888
  175SAPI  H17X19964   5.875   6.447   8.675 -1.4684  0.8836  1.3231
  175SAPI  H17Y19965   5.715   6.499   8.605  0.7974  0.3750 -0.3715
  175SAPI  C31819966   5.889   6.617   8.544  0.8058 -0.0413 -0.2504
  175SAPI  H18X19967   5.886   6.686   8.631  1.6961 -0.0508 -0.2014
  175SAPI  H18Y19968   5.842   6.658   8.453  0.4022 -0.9538 -0.4655
  175SAPI  H18Z19969   5.996   6.601   8.519  1.0518  0.2573  0.5538
  176SAPI   C1219970   5.073   5.528   6.363  0.3175 -0.0481  0.0188
  176SAPI    H219971   5.060   5.457   6.279  1.8629  1.3727 -1.5147
  176SAPI    O219972   5.204   5.511   6.418 -0.3447 -0.2457 -0.0855
  176SAPI   HO219973   5.208   5.416   6.425 -0.5400 -0.1587  1.6631
  176SAPI   C1319974   5.060   5.662   6.300  0.0355 -0.3919  0.4340
  176SAPI    H319975   4.961   5.678   6.251  1.6463  0.6985 -2.7932
  176SAPI    O319976   5.141   5.677   6.184  0.6460  0.4360 -0.4266
  176SAPI   HO319977   5.207   5.746   6.192  0.3528  0.7359 -0.6191
  176SAPI   C1419978   5.084   5.768   6.402  0.7862 -1.4109 -0.2121
  176SAPI    H419979   5.188   5.758   6.439  1.1061  0.6087 -0.4448
  176SAPI    O419980   5.083   5.898   6.336  0.2096  0.2449  0.3926
  176SAPI   HO419981   5.171   5.909   6.297 -0.6025  2.3646 -1.0467
  176SAPI   C1519982   4.985   5.766   6.518 -0.0101  0.3155  0.0951
  176SAPI    H519983   4.881   5.791   6.488 -0.1362  4.1456  2.9741
  176SAPI    O519984   5.020   5.867   6.609  0.2487 -0.1125  0.0371
  176SAPI   HO519985   4.981   5.951   6.585  1.1401 -0.1894 -1.8768
  176SAPI   C1619986   4.981   5.628   6.579  0.3183 -0.4946 -0.1839
  176SAPI    H619987   5.072   5.608   6.640  0.8367 -2.8449 -1.6069
  176SAPI    O619988   4.879   5.637   6.681 -0.2213 -0.4267  0.7543
  176SAPI   HO619989   4.874   5.548   6.717 -0.3008 -0.4059  0.7948
  176SAPI   C1119990   4.963   5.524   6.474 -0.0651 -0.7847 -0.0353
  176SAPI    H119991   4.871   5.549   6.417 -1.3180  0.2772  2.3383
  176SAPI     P19992   4.842   5.317   6.599 -0.2523  0.1056  0.1026
  176SAPI   O1319993   4.854   5.171   6.610 -0.2644 -0.2782  0.2180
  176SAPI   O1419994   4.716   5.374   6.543 -0.1034 -0.2288  0.0253
  176SAPI   O1219995   4.965   5.391   6.520  0.5462  0.0856  0.3471
  176SAPI   O1119996   4.862   5.379   6.751 -0.3574  0.1468 -0.1165
  176SAPI    C119997   4.791   5.305   6.855 -0.4541  0.0765  0.3943
  176SAPI    HA19998   4.684   5.335   6.861 -1.1220 -1.5209 -2.0191
  176SAPI    HB19999   4.798   5.195   6.845 -0.6966 -0.1887  2.7298
  176SAPI    C220000   4.851   5.357   6.986  0.8379  0.5475 -0.4177
  176SAPI    HS20001   4.920   5.441   6.964  0.9182  0.8605  0.9615
  176SAPI   O2120002   4.931   5.262   7.055  0.4974  0.1568  0.0210
  176SAPI   C2120003   5.037   5.215   6.980  0.4276 -0.5415  0.0972
  176SAPI   O2220004   5.074   5.246   6.871 -0.2911  0.6127  0.0954
  176SAPI   C2220005   5.110   5.115   7.070 -0.0546  0.0807  0.0178
  176SAPI   H2R20006   5.175   5.166   7.144 -1.8640  1.5173  0.7016
  176SAPI   H2S20007   5.029   5.063   7.125 -3.2961  2.0644 -2.4987
  176SAPI    C320008   4.737   5.407   7.081  0.4865 -0.8955 -0.0348
  176SAPI    HX20009   4.667   5.323   7.097 -0.2507 -0.0275  1.5803
  176SAPI    HY20010   4.686   5.493   7.033  1.5523 -0.8066 -1.0622
  176SAPI   O3120011   4.777   5.452   7.214  0.7830 -0.3537  0.1382
  176SAPI   C3120012   4.838   5.580   7.227  0.6270  0.3246 -0.4123
  176SAPI   O3220013   4.875   5.644   7.134  0.2474  0.0647 -0.4864
  176SAPI   C3220014   4.828   5.621   7.373 -0.0017 -0.1123  0.5778
  176SAPI   H2X20015   4.772   5.548   7.435 -0.5619 -0.8371 -0.7365
  176SAPI   H2Y20016   4.774   5.718   7.369  1.1095  0.4940 -0.1155
  176SAPI   C2320017   5.182   5.002   6.989 -0.3410 -0.1800 -0.0288
  176SAPI   H3R20018   5.266   5.054   6.937  0.8586  1.5227  3.2867
  176SAPI   H3S20019   5.113   4.957   6.916 -2.1458 -0.2407  1.6406
  176SAPI   C2420020   5.224   4.876   7.081 -0.8195 -0.1649 -0.5099
  176SAPI   H4R20021   5.260   4.923   7.175 -1.0598  1.4717 -1.2135
  176SAPI   H4S20022   5.308   4.818   7.037 -0.9249  0.0334 -0.9727
  176SAPI   C2520023   5.106   4.783   7.102  0.4423  0.5539  0.1462
  176SAPI   H5R20024   5.074   4.727   7.012 -0.9642 -0.6506  1.3481
  176SAPI   C2620025   5.037   4.759   7.215 -0.2539 -0.3330  0.5326
  176SAPI   H6R20026   4.949   4.694   7.211 -1.4416  1.2875 -1.2311
  176SAPI   C2720027   5.071   4.819   7.351 -0.5572  0.5836 -1.0318
  176SAPI   H7R20028   4.986   4.807   7.422  0.5989  3.3416  1.0184
  176SAPI   H7S20029   5.078   4.930   7.349  2.1143  0.7411  3.5839
  176SAPI   C2820030   5.199   4.755   7.403  0.0089  0.2840 -0.3598
  176SAPI   H8R20031   5.220   4.651   7.373 -1.1803 -0.1978  0.4219
  176SAPI   C2920032   5.282   4.817   7.491 -0.0053 -0.6030  0.0259
  176SAPI   H9R20033   5.370   4.770   7.538 -0.8905 -3.1770 -0.7288
  176SAPI  C21020034   5.250   4.956   7.553 -0.3088 -0.1260  0.0017
  176SAPI  H10R20035   5.159   4.955   7.616  1.2972  1.1502  2.4767
  176SAPI  H10S20036   5.223   5.025   7.470  0.2249  2.3138  1.7463
  176SAPI  C21120037   5.364   5.012   7.648  0.7433  0.3174 -0.4790
  176SAPI  H11R20038   5.441   5.072   7.597  1.0903  0.6904  0.4646
  176SAPI  C21220039   5.372   4.982   7.775 -0.4147 -0.0759 -0.7015
  176SAPI  H12R20040   5.456   5.019   7.836 -1.3781 -1.6895  1.7646
  176SAPI  C21320041   5.278   4.881   7.855 -0.3526 -1.0223 -0.4938
  176SAPI  H13R20042   5.207   4.823   7.791 -0.0637 -1.3711 -0.4974
  176SAPI  H13S20043   5.206   4.945   7.912  2.5400  0.1719  2.1325
  176SAPI  C21420044   5.350   4.785   7.951 -0.3729 -0.7108  0.0030
  176SAPI  H14R20045   5.416   4.713   7.901 -0.7957 -0.3946 -1.0448
  176SAPI  C21520046   5.358   4.792   8.086  0.3768 -0.6861 -0.7123
  176SAPI  H15R20047   5.429   4.727   8.138 -0.3413 -1.1782 -0.3319
  176SAPI  C21620048   5.293   4.893   8.177 -0.3041  0.0499 -0.4270
  176SAPI  H16R20049   5.192   4.911   8.135 -0.0201  2.3604 -0.2866
  176SAPI  H16S20050   5.341   4.993   8.172 -0.1101 -0.0978 -1.7580
  176SAPI  C21720051   5.288   4.844   8.325 -0.7748  0.5305 -0.1620
  176SAPI  H17R20052   5.276   4.935   8.388  2.4943  0.7448  0.3140
  176SAPI  H17S20053   5.391   4.812   8.352 -0.7783  1.4100  1.0011
  176SAPI  C21820054   5.181   4.730   8.348  0.0335 -0.0387 -0.2097
  176SAPI  H18R20055   5.201   4.638   8.289  2.5734  0.2447  0.1135
  176SAPI  H18S20056   5.078   4.756   8.316 -0.2051 -2.6863 -1.8484
  176SAPI  C21920057   5.156   4.706   8.502  0.0802 -0.1537  0.0473
  176SAPI  H19R20058   5.086   4.619   8.496  0.9358 -0.7876 -4.1309
  176SAPI  H19S20059   5.125   4.801   8.551 -1.0902 -1.9772  3.1385
  176SAPI  C22020060   5.277   4.655   8.585  0.4483  0.4944 -0.5078
  176SAPI  H20R20061   5.312   4.559   8.541  0.2209 -0.3312  1.0391
  176SAPI  H20S20062   5.249   4.652   8.693  0.5961  0.2103 -0.4774
  176SAPI  H20T20063   5.355   4.733   8.574  0.6502  0.3770  0.0595
  176SAPI   C3320064   4.966   5.640   7.444 -0.6703 -0.1510  0.3407
  176SAPI   H3X20065   4.938   5.681   7.543 -1.5362  2.4533 -0.8960
  176SAPI   H3Y20066   5.041   5.698   7.386 -2.2487 -1.4366 -3.2776
  176SAPI   C3420067   5.035   5.506   7.465  1.1202 -0.7466  0.2992
  176SAPI   H4X20068   5.021   5.446   7.373 -0.2262  0.2587 -0.1932
  176SAPI   H4Y20069   4.969   5.465   7.543  1.4969 -0.2923  0.8681
  176SAPI   C3520070   5.183   5.513   7.499  0.1783  0.1266  0.7278
  176SAPI   H5X20071   5.225   5.541   7.400 -2.2529 -0.8318 -0.6651
  176SAPI   H5Y20072   5.226   5.413   7.519 -1.0851 -0.2610  1.6912
  176SAPI   C3620073   5.234   5.608   7.603  0.3523  0.0289 -0.4691
  176SAPI   H6X20074   5.187   5.708   7.595  0.9560  0.5531  1.7825
  176SAPI   H6Y20075   5.342   5.631   7.590  0.6622 -0.2359  1.3564
  176SAPI   C3720076   5.233   5.540   7.743  0.4910 -0.6827 -0.0426
  176SAPI   H7X20077   5.312   5.462   7.754  1.9080  0.7171  0.0961
  176SAPI   H7Y20078   5.140   5.483   7.760  1.3749 -1.5367  2.3787
  176SAPI   C3820079   5.243   5.634   7.860 -0.1391 -0.4607 -0.8372
  176SAPI   H8X20080   5.213   5.577   7.951 -0.6013 -0.0489 -0.7308
  176SAPI   H8Y20081   5.169   5.716   7.859  0.9118  0.5143 -0.7952
  176SAPI   C3920082   5.378   5.703   7.877 -0.9288  0.2889  0.3943
  176SAPI   H9X20083   5.392   5.764   7.786  0.2112 -1.5767 -0.7478
  176SAPI   H9Y20084   5.440   5.611   7.868 -0.0084  1.0184 -0.9237
  176SAPI  C31020085   5.406   5.796   7.994  0.5230 -0.0449  0.1358
  176SAPI  H10X20086   5.318   5.864   7.995 -0.2737 -1.0552  0.8245
  176SAPI  H10Y20087   5.497   5.854   7.968 -1.9347  2.9619 -2.6673
  176SAPI  C31120088   5.399   5.725   8.127 -0.0023 -0.2004  0.2926
  176SAPI  H11X20089   5.466   5.636   8.129  0.1763 -0.2013 -2.2547
  176SAPI  H11Y20090   5.299   5.678   8.142 -0.0147  0.0067  0.8745
  176SAPI  C31220091   5.437   5.812   8.250  0.3566  0.3710  0.4986
  176SAPI  H12X20092   5.371   5.900   8.257  0.8365  0.6432  1.6814
  176SAPI  H12Y20093   5.539   5.853   8.235  0.9747 -1.0621  0.6260
  176SAPI  C31320094   5.421   5.732   8.385  0.1815  0.2832  0.4928
  176SAPI  H13X20095   5.318   5.691   8.391  0.0514  0.7450  1.6822
  176SAPI  H13Y20096   5.427   5.805   8.467 -0.7516  0.4303  0.4303
  176SAPI  C31420097   5.513   5.617   8.405 -0.0282 -0.4143  0.5717
  176SAPI  H14X20098   5.620   5.646   8.397  0.1390 -1.3066 -0.6473
  176SAPI  H14Y20099   5.495   5.540   8.328 -2.5175 -0.2544  0.9284
  176SAPI  C31520100   5.493   5.566   8.548 -0.6441 -0.2390 -0.4636
  176SAPI  H15X20101   5.390   5.590   8.583 -0.2218 -2.2244  2.5344
  176SAPI  H15Y20102   5.567   5.606   8.620  0.2483 -2.1057 -0.2831
  176SAPI  C31620103   5.504   5.413   8.550 -0.2778  0.0057  0.4281
  176SAPI  H16X20104   5.613   5.392   8.540 -0.0351  1.1490  0.4727
  176SAPI  H16Y20105   5.449   5.370   8.464 -0.6341  0.3815  0.4650
  176SAPI  C31720106   5.453   5.360   8.677 -0.3033 -0.1488 -0.7328
  176SAPI  H17X20107   5.346   5.383   8.691  0.1826  0.8243  1.8081
  176SAPI  H17Y20108   5.499   5.402   8.769 -1.1582  1.3142 -0.9523
  176SAPI  C31820109   5.467   5.205   8.687 -0.0266 -0.1096 -0.6495
  176SAPI  H18X20110   5.429   5.174   8.787 -1.6874  2.5627 -0.3505
  176SAPI  H18Y20111   5.573   5.171   8.685  0.3715  1.0555 -0.2150
  176SAPI  H18Z20112   5.406   5.158   8.608 -0.1931  0.2855 -0.7585
  177SLPC     N20113   1.978   2.494  11.011 -0.7716 -0.1026 -0.2826
  177SLPC   C1320114   1.865   2.455  11.105 -0.2097  0.2238  0.4780
  177SLPC  H13A20115   1.854   2.349  11.124 -1.6634  0.4264  0.8824
  177SLPC  H13B20116   1.890   2.500  11.200 -1.1865  1.0866  0.3508
  177SLPC  H13C20117   1.772   2.494  11.067  0.2829  0.4039 -0.5732
  177SLPC   C1420118   2.098   2.435  11.074  0.1329 -0.2313 -0.2971
  177SLPC  H14A20119   2.088   2.464  11.178  0.6065 -0.2665 -0.2389
  177SLPC  H14B20120   2.088   2.328  11.065  0.0631 -0.1582 -1.2066
  177SLPC  H14C20121   2.192   2.466  11.030 -0.1881  0.8483 -0.2305
  177SLPC   C1520122   1.987   2.643  11.015  0.5224 -0.0930 -0.0740
  177SLPC  H15A20123   2.076   2.684  10.970  0.2036 -0.2939 -0.9120
  177SLPC  H15B20124   1.895   2.686  10.977  0.7776 -0.8877 -1.6762
  177SLPC  H15C20125   1.991   2.661  11.122 -0.7610  0.2351 -0.0556
  177SLPC   C1220126   1.946   2.437  10.877  0.1710  0.3467 -0.4979
  177SLPC  H12A20127   1.942   2.329  10.880 -0.6731  0.3900  0.2320
  177SLPC  H12B20128   2.029   2.456  10.810  0.3195  1.2571 -0.0706
  177SLPC   C1120129   1.806   2.477  10.816 -0.2385  0.3420  0.0585
  177SLPC  H11A20130   1.810   2.463  10.706  3.4931  1.4060 -0.1078
  177SLPC  H11B20131   1.784   2.585  10.820  0.1087  0.4439 -0.6414
  177SLPC     P20132   1.688   2.246  10.846  0.2598  0.1377 -0.2714
  177SLPC   O1320133   1.682   2.177  10.979  0.2605 -0.0607  0.4185
  177SLPC   O1420134   1.575   2.225  10.756 -0.7920  0.1462  0.1899
  177SLPC   O1220135   1.698   2.400  10.870  0.0331 -0.4034 -0.0243
  177SLPC   O1120136   1.822   2.201  10.770  0.4154  0.1503  0.1474
  177SLPC    C120137   1.866   2.062  10.787 -0.2757 -0.0247  0.4038
  177SLPC    HA20138   1.947   2.056  10.862  0.9140 -0.8993 -0.9094
  177SLPC    HB20139   1.785   1.993  10.817 -0.4005 -0.6693 -1.2899
  177SLPC    C220140   1.920   2.014  10.659 -0.3088 -0.6065 -0.0253
  177SLPC    HS20141   2.010   2.070  10.625 -1.0279 -1.0528 -3.0059
  177SLPC   O2120142   1.831   2.054  10.547 -0.1445  0.0971  0.2055
  177SLPC   C2120143   1.716   1.999  10.542  0.2441 -0.0124  0.3046
  177SLPC   O2220144   1.667   1.917  10.623 -0.3972 -0.1409  0.0645
  177SLPC   C2220145   1.629   2.061  10.442  0.2362 -0.2529  0.1722
  177SLPC   H2R20146   1.531   2.011  10.442  1.0704 -1.9560 -0.3747
  177SLPC   H2S20147   1.616   2.170  10.464 -1.3490 -0.7627  2.0096
  177SLPC    C320148   1.957   1.866  10.646  0.2292  0.0730 -0.0142
  177SLPC    HX20149   1.876   1.797  10.679  1.1202  0.0590  2.3240
  177SLPC    HY20150   2.037   1.851  10.722 -0.6939  0.6173  1.0892
  177SLPC   O3120151   1.990   1.832  10.509  0.3115  0.3781 -0.1909
  177SLPC   C3120152   2.123   1.827  10.489  0.9054  0.0283 -0.1635
  177SLPC   O3220153   2.205   1.891  10.547 -0.1966 -0.1668 -0.1160
  177SLPC   C3220154   2.137   1.745  10.368 -0.1097 -0.5026  0.2594
  177SLPC   H2X20155   2.075   1.793  10.290  0.4123 -0.5089 -0.1680
  177SLPC   H2Y20156   2.088   1.646  10.380  0.0127 -0.4942  0.8872
  177SLPC   C2320157   1.685   2.061  10.296 -0.0580  0.1471 -0.0519
  177SLPC   H3R20158   1.774   2.127  10.300  0.0901 -0.0339 -0.3179
  177SLPC   H3S20159   1.613   2.108  10.226  0.8776  0.1203 -1.0535
  177SLPC   C2420160   1.711   1.922  10.236 -0.6608  0.4493  0.1506
  177SLPC   H4R20161   1.621   1.858  10.238 -0.4972  0.2302  0.6333
  177SLPC   H4S20162   1.795   1.872  10.289  0.2772  2.1296  0.3486
  177SLPC   C2520163   1.760   1.935  10.092 -0.2371  0.0854 -0.3488
  177SLPC   H5R20164   1.856   1.991  10.098  0.4965 -1.1898  0.2355
  177SLPC   H5S20165   1.682   1.988  10.034 -1.3251 -0.9240  0.1565
  177SLPC   C2620166   1.805   1.807  10.021 -0.9774 -0.1198  0.3816
  177SLPC   H6R20167   1.705   1.780   9.980 -0.4085 -0.7491 -0.6298
  177SLPC   H6S20168   1.841   1.736  10.098 -0.6253  1.0597  1.3249
  177SLPC   C2720169   1.897   1.830   9.907  0.9165 -0.1727  0.2356
  177SLPC   H7R20170   1.909   1.730   9.861  0.7997 -0.0351 -0.0927
  177SLPC   H7S20171   1.998   1.848   9.950  0.5108 -0.9773  1.5745
  177SLPC   C2820172   1.872   1.944   9.802  0.1948  0.0266 -0.5998
  177SLPC   H8R20173   1.960   1.946   9.736 -0.6510 -3.5192 -2.0596
  177SLPC   H8S20174   1.862   2.038   9.861 -0.1887  0.1547 -0.8633
  177SLPC   C2920175   1.745   1.914   9.734  0.3455 -0.5578 -0.2098
  177SLPC   H9R20176   1.656   1.914   9.799  1.0111 -0.3464  0.7243
  177SLPC  C21020177   1.731   1.899   9.601 -0.6577 -0.6896 -0.2790
  177SLPC  H10R20178   1.633   1.875   9.558 -1.0739  2.0881 -1.0566
  177SLPC  C21120179   1.846   1.904   9.502  0.2736  0.3913  0.4246
  177SLPC  H11R20180   1.935   1.959   9.538  2.0522 -2.4915  0.7999
  177SLPC  H11S20181   1.884   1.803   9.473  1.0026  0.4383  1.1669
  177SLPC  C21220182   1.797   1.987   9.387 -0.1093 -0.8333 -0.0952
  177SLPC  H12R20183   1.814   2.096   9.387 -1.4192 -0.6003  1.3169
  177SLPC  C21320184   1.732   1.938   9.280  0.4622 -0.5224 -0.0558
  177SLPC  H13R20185   1.700   2.005   9.199  2.9447  0.8536 -0.0169
  177SLPC  C21420186   1.699   1.793   9.245  0.4856  0.0560  0.5736
  177SLPC  H14R20187   1.762   1.720   9.302 -1.2235 -1.0549  1.1163
  177SLPC  H14S20188   1.736   1.762   9.145 -0.1116  2.4811 -0.4692
  177SLPC  C21520189   1.546   1.778   9.245 -0.2590 -0.2430 -0.4281
  177SLPC  H15R20190   1.506   1.813   9.148 -1.2488 -1.9350 -0.6809
  177SLPC  H15S20191   1.498   1.834   9.329  2.2313  2.2730 -0.5673
  177SLPC  C21620192   1.501   1.640   9.278  0.6100  0.1473  0.1905
  177SLPC  H16R20193   1.549   1.561   9.216  1.6060  1.6042 -0.9411
  177SLPC  H16S20194   1.390   1.628   9.284  0.7257 -0.4348  1.4463
  177SLPC  C21720195   1.548   1.598   9.423  0.4287  0.8086 -0.0936
  177SLPC  H17R20196   1.506   1.676   9.490 -1.6413 -1.2047  1.1444
  177SLPC  H17S20197   1.658   1.594   9.437  0.1766 -3.2189  2.3368
  177SLPC  C21820198   1.484   1.463   9.468 -0.5519  0.0330  0.3030
  177SLPC  H18R20199   1.376   1.461   9.439  0.1120  0.0702 -2.5246
  177SLPC  H18S20200   1.494   1.447   9.577 -0.9967  2.0130  0.6693
  177SLPC  H18T20201   1.531   1.379   9.412  0.0160  1.9745 -2.3753
  177SLPC   C3320202   2.289   1.728  10.322 -0.1685 -0.2725  0.0225
  177SLPC   H3X20203   2.341   1.692  10.413 -1.4251  3.1968  2.3075
  177SLPC   H3Y20204   2.324   1.834  10.315  0.4041 -0.0997  3.6441
  177SLPC   C3420205   2.330   1.650  10.198  0.2557 -0.3637  0.9644
  177SLPC   H4X20206   2.312   1.540  10.206 -0.3594 -0.1796  2.4359
  177SLPC   H4Y20207   2.440   1.652  10.181 -0.0254  2.1418 -1.1597
  177SLPC   C3520208   2.282   1.705  10.064 -0.3534  0.0441  0.1248
  177SLPC   H5X20209   2.342   1.794  10.037  0.8044 -1.1402 -1.3732
  177SLPC   H5Y20210   2.174   1.728  10.081 -0.8345 -1.4226 -0.7209
  177SLPC   C3620211   2.302   1.607   9.938  0.1522 -0.4427  0.0694
  177SLPC   H6X20212   2.238   1.518   9.954  0.4845 -0.6751  0.1076
  177SLPC   H6Y20213   2.406   1.572   9.956 -0.4814 -1.3173  2.3327
  177SLPC   C3720214   2.270   1.667   9.799 -0.8960  0.9411  0.4995
  177SLPC   H7X20215   2.309   1.771   9.803 -0.1418  0.7819 -1.5570
  177SLPC   H7Y20216   2.162   1.672   9.774 -1.4109 -1.3150  1.9656
  177SLPC   C3820217   2.346   1.584   9.691  0.5701  0.5988 -0.2507
  177SLPC   H8X20218   2.290   1.488   9.679 -0.9772  1.3409  0.6851
  177SLPC   H8Y20219   2.450   1.557   9.717  0.4055 -0.5654 -0.7321
  177SLPC   C3920220   2.335   1.652   9.553 -0.1533 -0.6559 -0.6847
  177SLPC   H9X20221   2.402   1.740   9.543 -2.0053  0.9186  0.1798
  177SLPC   H9Y20222   2.232   1.690   9.536 -0.6835 -0.4909  2.3412
  177SLPC  C31020223   2.387   1.560   9.442 -0.1513  0.0569 -0.0988
  177SLPC  H10X20224   2.330   1.465   9.430  0.2570 -0.4512  1.6564
  177SLPC  H10Y20225   2.485   1.528   9.482  0.4724  0.6972 -1.0890
  177SLPC  C31120226   2.414   1.639   9.314  0.3291  0.2474  0.2705
  177SLPC  H11X20227   2.501   1.709   9.320  0.2935  0.2050  2.1108
  177SLPC  H11Y20228   2.320   1.697   9.298  1.6642  1.9896 -1.8068
  177SLPC  C31220229   2.433   1.561   9.181 -0.5298  0.0757 -0.2637
  177SLPC  H12X20230   2.340   1.507   9.154  0.0184 -0.5387 -0.9675
  177SLPC  H12Y20231   2.504   1.476   9.189 -1.0915 -0.4437 -0.7554
  177SLPC  C31320232   2.474   1.645   9.056 -0.1869  0.2988 -0.0934
  177SLPC  H13X20233   2.580   1.674   9.073 -0.2092  0.2667  0.1060
  177SLPC  H13Y20234   2.414   1.736   9.036 -0.2524  0.6745  1.6936
  177SLPC  C31420235   2.463   1.569   8.924 -0.4481 -0.2223 -0.1353
  177SLPC  H14X20236   2.366   1.514   8.921  0.7913 -2.7486  1.9638
  177SLPC  H14Y20237   2.544   1.494   8.913  0.2351  0.1875  1.7612
  177SLPC  C31520238   2.476   1.667   8.801 -0.8277  0.4063 -0.2906
  177SLPC  H15X20239   2.520   1.608   8.718  0.1229 -2.0088  1.7750
  177SLPC  H15Y20240   2.541   1.751   8.833  1.6848 -1.5441  0.0299
  177SLPC  C31620241   2.340   1.714   8.764  0.1094  0.5494  0.4276
  177SLPC  H16X20242   2.358   1.781   8.676  1.7435 -0.4365 -0.0231
  177SLPC  H16Y20243   2.293   1.769   8.849 -0.4847 -0.6632  0.9054
  177SLPC  C31720244   2.241   1.611   8.708  0.1429  0.5244 -0.4124
  177SLPC  H17X20245   2.200   1.548   8.790 -0.4283 -0.1954 -1.2423
  177SLPC  H17Y20246   2.274   1.535   8.635  1.7909 -0.5366  1.3322
  177SLPC  C31820247   2.115   1.683   8.640 -0.6228 -0.3148 -0.0351
  177SLPC  H18X20248   2.058   1.751   8.707 -0.3991 -1.0383  0.9093
  177SLPC  H18Y20249   2.042   1.603   8.615 -0.9328  0.1413 -0.6096
  177SLPC  H18Z20250   2.151   1.739   8.551 -0.0934 -2.5148 -1.2701
  178SLPC     N20251   4.837   2.358  11.313 -0.3273  0.5786  0.1244
  178SLPC   C1320252   4.866   2.475  11.399  0.1324 -0.7606  0.2074
  178SLPC  H13A20253   4.779   2.519  11.446  0.3346  0.3122 -0.3927
  178SLPC  H13B20254   4.949   2.456  11.465  0.8328  2.8952  0.6217
  178SLPC  H13C20255   4.908   2.557  11.343 -0.1695 -0.0609  0.9791
  178SLPC   C1420256   4.717   2.392  11.234 -0.5681 -0.3957  0.4229
  178SLPC  H14A20257   4.727   2.481  11.175  1.9942 -0.8562  0.0610
  178SLPC  H14B20258   4.676   2.307  11.181 -2.8971  0.5647  0.5556
  178SLPC  H14C20259   4.638   2.416  11.304 -1.9898 -0.0769 -1.2286
  178SLPC   C1520260   4.808   2.250  11.411  0.4738  0.3626  0.3923
  178SLPC  H15A20261   4.719   2.286  11.462 -0.2450 -0.3703 -0.3130
  178SLPC  H15B20262   4.778   2.156  11.366  0.9024 -0.4171  1.6666
  178SLPC  H15C20263   4.880   2.221  11.487 -0.8861 -0.1342  1.5512
  178SLPC   C1220264   4.959   2.342  11.226  0.6666 -0.2304  0.5473
  178SLPC  H12A20265   4.968   2.241  11.188 -0.0174 -0.4176  0.8669
  178SLPC  H12B20266   5.049   2.358  11.284  0.1547  1.0871  1.0046
  178SLPC   C1120267   4.969   2.427  11.097 -0.1997 -0.5484  0.0067
  178SLPC  H11A20268   4.883   2.413  11.028  0.6101  3.5199 -2.1546
  178SLPC  H11B20269   5.049   2.395  11.027  0.7052  1.4534  0.0565
  178SLPC     P20270   5.133   2.611  11.155 -0.2314 -0.6949 -0.2215
  178SLPC   O1320271   5.136   2.756  11.187  0.5063  0.0252 -0.0328
  178SLPC   O1420272   5.194   2.525  11.260 -0.1230 -0.1829 -0.0903
  178SLPC   O1220273   4.986   2.562  11.135 -0.2968  0.1558 -0.3604
  178SLPC   O1120274   5.197   2.578  11.011  0.3013 -0.1430  0.1073
  178SLPC    C120275   5.220   2.680  10.907 -0.1379  0.6807 -0.2778
  178SLPC    HA20276   5.282   2.764  10.946 -0.5788  0.1406  1.7291
  178SLPC    HB20277   5.281   2.630  10.829  0.3017 -1.9920  1.6221
  178SLPC    C220278   5.085   2.738  10.855 -0.0830  0.2504 -0.1353
  178SLPC    HS20279   5.021   2.762  10.942 -0.0957  0.4783 -0.2079
  178SLPC   O2120280   5.040   2.622  10.778  0.1543 -0.9261 -0.6098
  178SLPC   C2120281   4.909   2.610  10.771  0.3954  0.5371  0.1798
  178SLPC   O2220282   4.827   2.682  10.830 -0.3652  0.0757 -0.1842
  178SLPC   C2220283   4.854   2.504  10.675 -0.5419  0.0335  0.7226
  178SLPC   H2R20284   4.939   2.440  10.644  0.8170  2.4034 -0.7261
  178SLPC   H2S20285   4.776   2.453  10.737 -0.4043 -2.4768 -1.0436
  178SLPC    C320286   5.099   2.863  10.766  0.1395 -0.3433  0.4838
  178SLPC    HX20287   5.151   2.832  10.672 -1.3110  1.8553 -1.1320
  178SLPC    HY20288   5.157   2.942  10.816 -2.2923  0.8052  1.6548
  178SLPC   O3120289   4.970   2.920  10.729  0.4795 -0.2022 -0.0788
  178SLPC   C3120290   4.923   3.001  10.832  0.0771  0.2845 -1.1644
  178SLPC   O3220291   4.984   3.031  10.933 -0.1306  0.4725 -0.8068
  178SLPC   C3220292   4.785   3.059  10.782  0.1393  0.0432  0.3200
  178SLPC   H2X20293   4.816   3.137  10.708 -0.2123 -1.9793 -2.0883
  178SLPC   H2Y20294   4.733   3.101  10.871  0.1767 -0.4254  0.5662
  178SLPC   C2320295   4.780   2.559  10.544  0.1403 -0.7900  0.4390
  178SLPC   H3R20296   4.702   2.626  10.586  1.1914  0.4349  0.4901
  178SLPC   H3S20297   4.719   2.479  10.496 -1.8913 -0.4997  2.3886
  178SLPC   C2420298   4.868   2.647  10.451 -0.2357  0.0850  0.1084
  178SLPC   H4R20299   4.947   2.579  10.411 -0.3199 -0.3788  0.7206
  178SLPC   H4S20300   4.926   2.723  10.506 -1.0906  0.6960  0.1733
  178SLPC   C2520301   4.791   2.721  10.333 -0.2086  0.2664  0.4031
  178SLPC   H5R20302   4.718   2.789  10.382  0.1735  0.6381  0.4658
  178SLPC   H5S20303   4.735   2.639  10.284 -1.0011  2.0476 -1.8375
  178SLPC   C2620304   4.886   2.784  10.237 -0.4944 -0.2947  0.2816
  178SLPC   H6R20305   4.952   2.704  10.196 -1.2298 -0.3502 -0.8274
  178SLPC   H6S20306   4.953   2.853  10.293  1.0919 -0.1647 -1.6394
  178SLPC   C2720307   4.822   2.868  10.116 -0.8713  0.2133  0.1740
  178SLPC   H7R20308   4.901   2.928  10.066 -0.4275  0.6534  1.3523
  178SLPC   H7S20309   4.748   2.937  10.162 -0.1875 -0.3797  2.2852
  178SLPC   C2820310   4.749   2.778  10.009  0.0808  0.2221 -0.5775
  178SLPC   H8R20311   4.682   2.712  10.068  1.5657 -0.6059  0.2453
  178SLPC   H8S20312   4.819   2.711   9.955 -0.1160 -0.3260 -0.1627
  178SLPC   C2920313   4.663   2.866   9.919 -0.8536 -0.2362  0.3881
  178SLPC   H9R20314   4.586   2.930   9.965 -0.3189  0.7171 -0.0151
  178SLPC  C21020315   4.652   2.870   9.784  0.9265 -0.4200  0.0404
  178SLPC  H10R20316   4.577   2.939   9.744 -1.9566 -2.7163  1.1646
  178SLPC  C21120317   4.723   2.792   9.682 -0.2637 -0.1063  0.0172
  178SLPC  H11R20318   4.735   2.686   9.716 -3.5777 -0.4118  0.4901
  178SLPC  H11S20319   4.819   2.844   9.663  0.0081 -0.9069 -0.9252
  178SLPC  C21220320   4.665   2.786   9.542  1.1899  0.2537 -0.1885
  178SLPC  H12R20321   4.624   2.686   9.523  0.7105  0.3021  0.5786
  178SLPC  C21320322   4.637   2.882   9.449  0.3261 -0.2021  0.3608
  178SLPC  H13R20323   4.601   2.860   9.347  1.4115  2.7953 -0.7732
  178SLPC  C21420324   4.666   3.027   9.450 -0.2122  0.4330  0.0350
  178SLPC  H14R20325   4.732   3.056   9.535  0.2412 -1.2669  0.3054
  178SLPC  H14S20326   4.571   3.081   9.467  0.2669  0.9241  1.3002
  178SLPC  C21520327   4.750   3.065   9.328 -0.3699 -0.0511 -0.0670
  178SLPC  H15R20328   4.676   3.074   9.245  2.4004  1.3051 -2.5834
  178SLPC  H15S20329   4.823   2.985   9.302 -0.5883  0.0183 -0.9385
  178SLPC  C21620330   4.821   3.199   9.334  0.3871 -0.1285  0.2151
  178SLPC  H16R20331   4.891   3.201   9.421  1.7316 -1.3612 -0.7945
  178SLPC  H16S20332   4.750   3.280   9.361 -1.6403 -1.6888 -0.1975
  178SLPC  C21720333   4.913   3.232   9.212  0.0149  0.0454 -0.2082
  178SLPC  H17R20334   4.855   3.251   9.119 -1.2653  0.8433  0.7183
  178SLPC  H17S20335   4.970   3.138   9.195  2.2332  1.1167  0.8293
  178SLPC  C21820336   5.011   3.344   9.247  0.0299 -0.4792 -0.4491
  178SLPC  H18R20337   5.056   3.388   9.155  0.6671 -0.9341 -0.3595
  178SLPC  H18S20338   5.084   3.307   9.321 -3.8944 -1.6135  3.2495
  178SLPC  H18T20339   4.959   3.433   9.289 -1.9076 -1.2616 -1.0776
  178SLPC   C3320340   4.694   2.963  10.699 -0.0264 -0.3112  0.3895
  178SLPC   H3X20341   4.628   2.907  10.767  1.6270 -0.7389  1.7034
  178SLPC   H3Y20342   4.749   2.881  10.648 -2.3140 -0.3258 -2.3273
  178SLPC   C3420343   4.615   3.039  10.587 -0.8326 -0.3278 -0.3930
  178SLPC   H4X20344   4.681   3.083  10.511 -0.0468 -0.0961  0.4086
  178SLPC   H4Y20345   4.562   3.117  10.646  0.2878 -0.3879  0.7383
  178SLPC   C3520346   4.504   2.954  10.518 -0.4618  0.1616 -0.2218
  178SLPC   H5X20347   4.438   2.934  10.605 -0.1412 -0.8306 -0.1974
  178SLPC   H5Y20348   4.550   2.856  10.495  0.7740  0.5166  0.6277
  178SLPC   C3620349   4.439   3.025  10.395 -0.1114  0.7839 -0.3273
  178SLPC   H6X20350   4.415   3.126  10.433  1.0225  1.1427 -0.5461
  178SLPC   H6Y20351   4.346   2.967  10.377  0.0099  0.2460  0.6788
  178SLPC   C3720352   4.526   3.024  10.270 -0.1041 -0.8015  0.1805
  178SLPC   H7X20353   4.546   2.919  10.240  3.3995 -0.1884 -0.0738
  178SLPC   H7Y20354   4.628   3.063  10.293 -0.1676 -0.4288 -0.1681
  178SLPC   C3820355   4.458   3.104  10.150 -0.4165  0.6532  0.4838
  178SLPC   H8X20356   4.545   3.119  10.083 -0.7961  0.3300 -0.0902
  178SLPC   H8Y20357   4.408   3.196  10.188 -1.9906  0.8887 -1.9031
  178SLPC   C3920358   4.358   3.019  10.065  0.1425  0.5651 -0.3022
  178SLPC   H9X20359   4.267   2.999  10.125 -0.2028  0.4828 -0.8492
  178SLPC   H9Y20360   4.406   2.920  10.050 -0.8441 -0.1094  0.8087
  178SLPC  C31020361   4.312   3.081   9.934  0.8865  0.0607  0.1025
  178SLPC  H10X20362   4.396   3.105   9.865  1.5834 -3.2204 -0.3715
  178SLPC  H10Y20363   4.248   3.167   9.964 -2.6731 -2.8624  1.5490
  178SLPC  C31120364   4.234   2.975   9.856 -0.0384 -0.1237  0.0502
  178SLPC  H11X20365   4.133   2.971   9.902  0.9010  1.1604  2.3733
  178SLPC  H11Y20366   4.297   2.885   9.869  2.2091  1.4551  0.8481
  178SLPC  C31220367   4.223   3.011   9.706  0.3925 -0.3516 -0.2962
  178SLPC  H12X20368   4.322   3.010   9.655  0.2232 -3.3963 -0.8030
  178SLPC  H12Y20369   4.194   3.117   9.717  1.4373 -0.3377  3.6587
  178SLPC  C31320370   4.119   2.931   9.627  0.5558 -0.4502  0.3651
  178SLPC  H13X20371   4.016   2.939   9.668 -1.6896  0.3700 -4.6476
  178SLPC  H13Y20372   4.133   2.821   9.630 -1.5398 -0.7813 -0.1097
  178SLPC  C31420373   4.107   2.974   9.479 -0.3288  0.6969  0.3792
  178SLPC  H14X20374   4.214   2.959   9.453 -0.8120 -3.8988  0.2864
  178SLPC  H14Y20375   4.070   3.078   9.468  1.4373  1.1849 -1.4017
  178SLPC  C31520376   4.027   2.875   9.389  0.2059  0.3375 -0.1330
  178SLPC  H15X20377   4.048   2.897   9.282 -0.1674 -0.4624 -0.3735
  178SLPC  H15Y20378   4.064   2.774   9.415 -0.5411 -0.0711 -0.6273
  178SLPC  C31620379   3.876   2.891   9.425 -0.4770  0.7260 -0.0439
  178SLPC  H16X20380   3.854   2.893   9.534  0.0847  0.2287  0.0791
  178SLPC  H16Y20381   3.817   2.805   9.388 -1.9700  1.2362  1.0245
  178SLPC  C31720382   3.811   3.011   9.348 -0.4049  0.1355 -0.2489
  178SLPC  H17X20383   3.816   2.997   9.238 -1.1164 -1.3230 -0.1143
  178SLPC  H17Y20384   3.871   3.103   9.366 -4.2986  2.9327 -0.2492
  178SLPC  C31820385   3.664   3.039   9.382  0.1383 -0.2045 -0.7118
  178SLPC  H18X20386   3.639   3.137   9.336  0.8647 -0.3355 -1.4088
  178SLPC  H18Y20387   3.640   3.050   9.490 -0.0657 -0.6155 -0.7135
  178SLPC  H18Z20388   3.599   2.958   9.341 -0.4804 -1.1129  1.8740
  179SLPC     N20389   5.869   6.732  10.609 -0.0186 -0.3362  0.1983
  179SLPC   C1320390   5.945   6.670  10.715  0.0195 -0.2673 -0.0722
  179SLPC  H13A20391   6.032   6.612  10.687  0.7448  1.4739 -1.6351
  179SLPC  H13B20392   5.990   6.748  10.774  2.1994 -0.7505 -0.9962
  179SLPC  H13C20393   5.876   6.613  10.775  0.6209 -3.9933 -2.5339
  179SLPC   C1420394   5.971   6.793  10.521 -0.0590 -0.1317 -0.0828
  179SLPC  H14A20395   5.922   6.836  10.435  1.4653  1.2426 -0.3050
  179SLPC  H14B20396   6.046   6.861  10.559  2.1229 -1.5534 -1.5573
  179SLPC  H14C20397   6.030   6.711  10.482  0.9288  0.4126  0.2335
  179SLPC   C1520398   5.783   6.851  10.638  0.2556 -0.3947 -0.1130
  179SLPC  H15A20399   5.753   6.887  10.541  2.3754 -1.8797 -1.4120
  179SLPC  H15B20400   5.696   6.835  10.700  0.0968 -0.1613 -0.2718
  179SLPC  H15C20401   5.844   6.930  10.680  3.2975 -3.2910  1.3765
  179SLPC   C1220402   5.784   6.629  10.536 -0.8126 -0.3608  0.1471
  179SLPC  H12A20403   5.714   6.688  10.479 -1.1403 -1.3479 -0.5009
  179SLPC  H12B20404   5.727   6.573  10.609 -2.9368  1.9653  0.4131
  179SLPC   C1120405   5.852   6.522  10.452 -1.0099 -0.5704 -0.0684
  179SLPC  H11A20406   5.904   6.576  10.370  0.6674  0.8755  1.8316
  179SLPC  H11B20407   5.776   6.462  10.398  0.7207 -0.3588 -2.9281
  179SLPC     P20408   5.892   6.308  10.585 -0.0237  0.0967  0.0938
  179SLPC   O1320409   5.972   6.255  10.702 -0.4124  0.1762  0.1406
  179SLPC   O1420410   5.747   6.320  10.620  0.5551 -0.5070 -0.7960
  179SLPC   O1220411   5.942   6.441  10.525  0.8393 -0.1881  0.3754
  179SLPC   O1120412   5.905   6.200  10.477 -0.3472  0.5453 -0.0327
  179SLPC    C120413   6.022   6.199  10.394  0.4998  0.3871 -0.0169
  179SLPC    HA20414   6.109   6.255  10.433  0.2431 -0.4298  1.8798
  179SLPC    HB20415   6.056   6.095  10.375  1.0023  0.3650  0.9262
  179SLPC    C220416   5.978   6.259  10.263 -0.3151 -0.6382  0.1156
  179SLPC    HS20417   5.941   6.361  10.287  0.2023  0.0374 -1.7496
  179SLPC   O2120418   5.876   6.183  10.201  1.0935  0.4751 -0.8640
  179SLPC   C2120419   5.778   6.245  10.137 -0.5275 -0.3958  0.0788
  179SLPC   O2220420   5.758   6.364  10.139 -0.1469 -0.1054 -0.5524
  179SLPC   C2220421   5.702   6.152  10.037  0.8924  0.4533  0.1894
  179SLPC   H2R20422   5.782   6.084  10.000  0.6054  0.0770  0.2553
  179SLPC   H2S20423   5.622   6.094  10.088  0.0727  0.6250 -0.8779
  179SLPC    C320424   6.104   6.270  10.174  0.7261 -0.1207  0.6786
  179SLPC    HX20425   6.123   6.166  10.141  0.4465 -0.1047  0.4595
  179SLPC    HY20426   6.194   6.318  10.218  0.8119 -0.7641  1.2229
  179SLPC   O3120427   6.071   6.343  10.056  0.0288  0.3095  0.0428
  179SLPC   C3120428   6.069   6.479  10.062  0.7414 -0.5148  0.5921
  179SLPC   O3220429   6.099   6.544  10.158 -0.6181 -0.0966 -0.5232
  179SLPC   C3220430   6.005   6.536   9.934  0.0654 -0.0567 -0.5299
  179SLPC   H2X20431   6.076   6.613   9.896 -0.0252 -0.2664 -1.1361
  179SLPC   H2Y20432   5.910   6.586   9.962  0.7883  0.2467  1.5233
  179SLPC   C2320433   5.641   6.226   9.913  0.4203 -0.0371 -0.0067
  179SLPC   H3R20434   5.722   6.264   9.847 -1.3655  1.5891 -1.3812
  179SLPC   H3S20435   5.582   6.313   9.947 -1.2907 -1.0677 -0.2365
  179SLPC   C2420436   5.557   6.143   9.823 -0.1804  0.6378  0.2672
  179SLPC   H4R20437   5.505   6.064   9.882  1.7534 -1.2580 -0.4636
  179SLPC   H4S20438   5.624   6.084   9.757 -0.7296 -1.3647  1.4308
  179SLPC   C2520439   5.450   6.216   9.742 -0.2733 -0.2163 -0.0132
  179SLPC   H5R20440   5.400   6.291   9.807 -0.3033 -0.8783  0.7378
  179SLPC   H5S20441   5.375   6.142   9.706 -2.4952  0.7691  2.2962
  179SLPC   C2620442   5.525   6.288   9.631 -0.4419 -0.3486 -0.4011
  179SLPC   H6R20443   5.568   6.203   9.572 -0.3881 -0.9215  0.4421
  179SLPC   H6S20444   5.607   6.353   9.669  0.3000 -2.1190  1.1876
  179SLPC   C2720445   5.429   6.358   9.539 -0.0092 -0.2418 -0.8284
  179SLPC   H7R20446   5.383   6.436   9.604 -0.5851 -1.0676 -0.2354
  179SLPC   H7S20447   5.347   6.293   9.503 -2.1594  1.3510  0.9019
  179SLPC   C2820448   5.506   6.418   9.415 -0.4426 -0.2630  0.3835
  179SLPC   H8R20449   5.531   6.338   9.342 -2.4827 -1.3316  0.7883
  179SLPC   H8S20450   5.598   6.462   9.460  0.7325 -0.1753 -1.9476
  179SLPC   C2920451   5.432   6.530   9.351  0.5217  0.0687  0.7657
  179SLPC   H9R20452   5.458   6.630   9.388 -0.5414  1.2619 -1.4952
  179SLPC  C21020453   5.327   6.525   9.260  0.4707  0.0443  0.7276
  179SLPC  H10R20454   5.293   6.622   9.221  0.0900  0.5038  2.1562
  179SLPC  C21120455   5.265   6.399   9.199 -0.7053  0.7247  0.6501
  179SLPC  H11R20456   5.304   6.308   9.251  1.1912  0.4869 -1.0586
  179SLPC  H11S20457   5.322   6.386   9.104 -1.5854  1.0072  0.0709
  179SLPC  C21220458   5.117   6.397   9.171 -0.0895  0.4347  0.9892
  179SLPC  H12R20459   5.056   6.360   9.254 -0.2849 -1.0819  0.2007
  179SLPC  C21320460   5.065   6.447   9.054 -0.3964  0.5147 -1.3502
  179SLPC  H13R20461   4.958   6.472   9.051  0.0150  2.5205 -1.0869
  179SLPC  C21420462   5.144   6.509   8.936  0.2417 -0.1117 -0.6581
  179SLPC  H14R20463   5.211   6.430   8.896 -0.2433 -2.0562  2.0674
  179SLPC  H14S20464   5.210   6.595   8.963  1.3365 -1.0083 -0.3972
  179SLPC  C21520465   5.055   6.557   8.827  0.3671 -0.3707  0.4758
  179SLPC  H15R20466   4.988   6.624   8.885  1.0081 -0.9134  1.8770
  179SLPC  H15S20467   4.996   6.468   8.796 -1.0633 -0.1693  2.4423
  179SLPC  C21620468   5.123   6.616   8.702 -0.0154  0.2836  0.0126
  179SLPC  H16R20469   5.195   6.549   8.649  0.2935  0.6593 -0.0465
  179SLPC  H16S20470   5.180   6.708   8.728 -0.5643  0.6900 -0.2094
  179SLPC  C21720471   5.012   6.662   8.600 -0.3146  0.3560  0.0445
  179SLPC  H17R20472   5.068   6.716   8.520 -2.0736 -1.4920 -2.5519
  179SLPC  H17S20473   4.942   6.732   8.650  0.0973 -0.8195  2.4456
  179SLPC  C21820474   4.936   6.552   8.532  0.2206 -0.1575  0.1001
  179SLPC  H18R20475   4.872   6.584   8.447  0.3595 -0.6285 -0.1821
  179SLPC  H18S20476   4.874   6.501   8.609  2.5552 -2.4115  0.5994
  179SLPC  H18T20477   5.003   6.484   8.476 -0.5410 -1.2784  0.5134
  179SLPC   C3320478   5.992   6.436   9.815 -0.1176  0.2795 -0.6910
  179SLPC   H3X20479   5.914   6.365   9.846 -2.3904  2.5265 -0.9263
  179SLPC   H3Y20480   6.089   6.383   9.803 -0.4445 -1.1913  2.3745
  179SLPC   C3420481   5.941   6.506   9.688  0.0230 -0.0662 -0.8096
  179SLPC   H4X20482   6.024   6.573   9.656 -1.2199  2.8189  1.5632
  179SLPC   H4Y20483   5.851   6.568   9.709 -0.8097 -1.8627  1.3338
  179SLPC   C3520484   5.924   6.411   9.568 -0.2812 -0.5980 -0.1708
  179SLPC   H5X20485   5.838   6.350   9.603 -0.0466 -0.1867  1.2034
  179SLPC   H5Y20486   6.012   6.345   9.556 -1.4057 -1.7470 -2.8080
  179SLPC   C3620487   5.899   6.489   9.442 -0.2733 -0.3630 -0.3771
  179SLPC   H6X20488   5.974   6.566   9.415 -0.0212  0.2963  2.0553
  179SLPC   H6Y20489   5.801   6.540   9.456  0.1431  0.5582 -0.7419
  179SLPC   C3720490   5.902   6.413   9.313 -0.4692 -0.4084  0.6145
  179SLPC   H7X20491   5.805   6.359   9.302 -2.1393  2.5263 -0.2549
  179SLPC   H7Y20492   5.990   6.345   9.300  0.4284  0.5589  1.5212
  179SLPC   C3820493   5.912   6.502   9.185 -0.4200  0.4412 -0.4532
  179SLPC   H8X20494   5.865   6.601   9.205 -0.5550  0.2916 -0.0217
  179SLPC   H8Y20495   5.854   6.444   9.110  1.1385 -2.7644  0.6128
  179SLPC   C3920496   6.055   6.519   9.132  0.2585  0.1724  0.4992
  179SLPC   H9X20497   6.081   6.421   9.086  1.0274  0.1567  0.9436
  179SLPC   H9Y20498   6.124   6.536   9.218  2.1664  2.2920 -1.3039
  179SLPC  C31020499   6.067   6.626   9.021 -0.0214 -0.0964 -0.4371
  179SLPC  H10X20500   6.126   6.711   9.061 -0.2492 -0.0350 -0.2366
  179SLPC  H10Y20501   5.966   6.667   9.000 -0.5655  0.3965  2.6998
  179SLPC  C31120502   6.136   6.571   8.895  0.9516  0.0394 -0.6689
  179SLPC  H11X20503   6.081   6.484   8.853 -0.6155  0.6798 -0.0206
  179SLPC  H11Y20504   6.229   6.516   8.923  0.8078  1.6773  3.6584
  179SLPC  C31220505   6.181   6.676   8.788  0.1041 -0.2957 -0.7175
  179SLPC  H12X20506   6.234   6.754   8.848  0.9623 -1.0370 -0.4970
  179SLPC  H12Y20507   6.088   6.726   8.752 -0.5229 -0.8767  0.0764
  179SLPC  C31320508   6.274   6.629   8.680  0.2760 -0.3836 -0.9249
  179SLPC  H13X20509   6.274   6.717   8.613  0.2027 -1.3276 -2.1960
  179SLPC  H13Y20510   6.234   6.539   8.629 -1.2933 -0.2316 -0.0174
  179SLPC  C31420511   6.417   6.605   8.732 -0.1764  0.1424 -0.2098
  179SLPC  H14X20512   6.412   6.524   8.808  0.3575  2.2267  2.1828
  179SLPC  H14Y20513   6.452   6.700   8.778 -0.7197  0.1514  0.1904
  179SLPC  C31520514   6.520   6.571   8.621  0.2640 -0.0609 -0.3446
  179SLPC  H15X20515   6.497   6.474   8.572 -0.2149  0.4646 -1.1835
  179SLPC  H15Y20516   6.621   6.555   8.664  0.2580 -1.1646 -0.7134
  179SLPC  C31620517   6.532   6.677   8.512  0.0148  0.2262  0.1511
  179SLPC  H16X20518   6.529   6.774   8.565  2.3781 -0.4489  1.6642
  179SLPC  H16Y20519   6.445   6.667   8.443 -1.3155  0.1112  1.7818
  179SLPC  C31720520   6.661   6.667   8.438 -0.4100 -0.5320  0.2005
  179SLPC  H17X20521   6.674   6.570   8.385 -1.3479  1.0480 -3.2481
  179SLPC  H17Y20522   6.752   6.673   8.501  0.8321  2.5697 -1.6518
  179SLPC  C31820523   6.680   6.779   8.338  0.2448 -0.6217  0.0559
  179SLPC  H18X20524   6.782   6.761   8.298  0.0075 -0.9386 -0.4103
  179SLPC  H18Y20525   6.657   6.877   8.383 -1.9072 -1.3275  0.6027
  179SLPC  H18Z20526   6.602   6.774   8.259  0.9030 -0.7711 -0.5985
  180SLPC     N20527   2.411   3.815  11.010  0.4546  0.4024 -0.5318
  180SLPC   C1320528   2.478   3.943  10.956  0.3361 -0.0004 -0.4485
  180SLPC  H13A20529   2.528   3.926  10.862  3.4801 -0.6514  1.1769
  180SLPC  H13B20530   2.407   4.025  10.954  0.2903 -0.0019  0.4827
  180SLPC  H13C20531   2.545   3.972  11.036 -0.9956  0.3420  0.5804
  180SLPC   C1420532   2.387   3.838  11.163 -0.3053 -0.0477 -0.7058
  180SLPC  H14A20533   2.351   3.741  11.195 -0.7588 -0.1355 -1.4520
  180SLPC  H14B20534   2.482   3.855  11.210 -0.8587 -1.3461  1.0032
  180SLPC  H14C20535   2.315   3.917  11.180  0.2893  0.3263  0.1360
  180SLPC   C1520536   2.509   3.703  11.000  0.1945  0.3094  0.1656
  180SLPC  H15A20537   2.561   3.709  10.906 -2.2590  1.5764 -1.2058
  180SLPC  H15B20538   2.583   3.703  11.078 -1.2572 -0.1340  1.6248
  180SLPC  H15C20539   2.450   3.612  11.005 -3.2772  2.2284 -1.7967
  180SLPC   C1220540   2.283   3.773  10.941 -0.1013 -0.6298  0.1346
  180SLPC  H12A20541   2.246   3.677  10.974  0.5865 -1.0457 -0.3102
  180SLPC  H12B20542   2.311   3.763  10.837  0.9350  2.1489  0.0634
  180SLPC   C1120543   2.170   3.876  10.952  0.0213 -0.4051  0.4980
  180SLPC  H11A20544   2.138   3.894  11.056  1.9371 -1.8810  1.4236
  180SLPC  H11B20545   2.080   3.832  10.905  0.3620 -0.9858  0.3710
  180SLPC     P20546   2.226   4.006  10.722  0.5194 -0.0535 -0.3923
  180SLPC   O1320547   2.191   4.143  10.687 -0.1697 -0.0192  0.1520
  180SLPC   O1420548   2.362   3.969  10.682 -0.0896  0.0226 -0.6780
  180SLPC   O1220549   2.201   3.991  10.877 -0.1765  0.3249 -0.5626
  180SLPC   O1120550   2.116   3.905  10.656 -0.3072 -0.2308  0.2612
  180SLPC    C120551   2.162   3.780  10.602 -0.0128 -0.3025  0.1707
  180SLPC    HA20552   2.272   3.764  10.607  0.1442  0.5046 -0.4794
  180SLPC    HB20553   2.114   3.699  10.662 -0.2942  1.5276  2.5454
  180SLPC    C220554   2.120   3.775  10.455 -0.4025  0.4515 -0.0998
  180SLPC    HS20555   2.030   3.839  10.444 -1.6185 -1.4308 -1.7592
  180SLPC   O2120556   2.104   3.640  10.413  0.6333  0.3126 -0.0230
  180SLPC   C2120557   1.985   3.578  10.435  0.6661 -0.2306 -0.4027
  180SLPC   O2220558   1.892   3.626  10.497 -0.3059 -0.0752  0.0863
  180SLPC   C2220559   1.974   3.442  10.360 -0.1057  0.6488 -0.3621
  180SLPC   H2R20560   1.959   3.359  10.431  3.1253  0.1763 -0.0921
  180SLPC   H2S20561   1.894   3.449  10.283 -1.1128  1.5202  0.7292
  180SLPC    C320562   2.233   3.835  10.362 -0.2886 -0.1525 -0.3188
  180SLPC    HX20563   2.327   3.791  10.402 -0.3139  1.7720  2.1192
  180SLPC    HY20564   2.243   3.945  10.374 -1.5739  0.1137 -1.4375
  180SLPC   O3120565   2.221   3.806  10.225 -0.4841 -0.1735 -0.1566
  180SLPC   C3120566   2.113   3.858  10.177  0.5438  0.3256  0.0555
  180SLPC   O3220567   2.061   3.961  10.215  0.3000 -0.4395 -0.5473
  180SLPC   C3220568   2.071   3.776  10.050  0.0593 -0.0919  0.5389
  180SLPC   H2X20569   2.059   3.672  10.085  1.9016 -1.2683 -1.9951
  180SLPC   H2Y20570   2.152   3.779   9.974 -0.9188 -1.0016 -0.5639
  180SLPC   C2320571   2.107   3.415  10.277  0.1688  0.2861 -0.0678
  180SLPC   H3R20572   2.188   3.367  10.338 -0.8528  0.3098  1.3675
  180SLPC   H3S20573   2.135   3.511  10.230 -1.3838  0.5958 -0.4205
  180SLPC   C2420574   2.069   3.335  10.154  0.0877  0.1316  0.6811
  180SLPC   H4R20575   1.987   3.390  10.103  0.9686 -1.1239 -2.2645
  180SLPC   H4S20576   2.031   3.239  10.195  1.3038 -0.7465 -0.1718
  180SLPC   C2520577   2.192   3.315  10.063  0.0684 -0.3279 -0.2136
  180SLPC   H5R20578   2.267   3.247  10.107  1.7965  1.5354 -0.1342
  180SLPC   H5S20579   2.239   3.415  10.051 -0.1294 -0.2850 -0.6670
  180SLPC   C2620580   2.161   3.248   9.922 -0.6208  0.5144  0.2661
  180SLPC   H6R20581   2.092   3.310   9.861 -0.9689 -0.7241 -0.6187
  180SLPC   H6S20582   2.114   3.150   9.941 -0.5050  0.3391 -0.3309
  180SLPC   C2720583   2.288   3.223   9.843  0.4236  0.2996 -0.1729
  180SLPC   H7R20584   2.377   3.178   9.891  0.6697  0.2067 -0.7128
  180SLPC   H7S20585   2.336   3.319   9.812 -3.2457  1.8086 -1.8416
  180SLPC   C2820586   2.255   3.137   9.721 -0.2072  0.3325 -0.2661
  180SLPC   H8R20587   2.184   3.201   9.664 -0.6976 -0.3054 -0.3911
  180SLPC   H8S20588   2.209   3.038   9.743 -2.2385  0.9886 -1.3018
  180SLPC   C2920589   2.382   3.108   9.646  0.8327  0.3129 -0.1391
  180SLPC   H9R20590   2.419   3.008   9.673  0.0513  0.2035  0.5842
  180SLPC  C21020591   2.436   3.188   9.554 -0.0333 -0.3610  0.3072
  180SLPC  H10R20592   2.516   3.143   9.493  0.8789 -0.5829  1.6242
  180SLPC  C21120593   2.381   3.323   9.503  0.2528 -0.1791  0.0113
  180SLPC  H11R20594   2.467   3.392   9.490  0.0448 -0.3587 -3.3227
  180SLPC  H11S20595   2.327   3.369   9.589 -2.4957 -1.8307 -0.6933
  180SLPC  C21220596   2.282   3.319   9.385 -0.6356  0.2523  0.1527
  180SLPC  H12R20597   2.176   3.292   9.396 -0.3754 -0.4907  0.8546
  180SLPC  C21320598   2.332   3.343   9.263 -0.0039 -1.0627 -0.9020
  180SLPC  H13R20599   2.257   3.337   9.183 -2.4424 -1.4297  1.2795
  180SLPC  C21420600   2.469   3.385   9.224 -0.2671  0.2410  0.4637
  180SLPC  H14R20601   2.526   3.442   9.301  0.5894  1.5384 -1.0655
  180SLPC  H14S20602   2.467   3.460   9.142 -0.1004 -1.2832 -0.9597
  180SLPC  C21520603   2.558   3.267   9.188  0.0222  0.3646  0.1364
  180SLPC  H15R20604   2.500   3.228   9.102 -1.2343  0.7363  0.7840
  180SLPC  H15S20605   2.557   3.184   9.262  0.2654  0.9605  0.8191
  180SLPC  C21620606   2.700   3.301   9.155 -0.4662  0.9436 -0.9327
  180SLPC  H16R20607   2.696   3.397   9.099  0.6379  2.0158  0.7442
  180SLPC  H16S20608   2.735   3.223   9.084  1.7159 -0.7615  1.7883
  180SLPC  C21720609   2.790   3.324   9.273 -0.3266 -0.2071 -0.1049
  180SLPC  H17R20610   2.758   3.421   9.316  2.2750  1.1181 -0.9883
  180SLPC  H17S20611   2.894   3.337   9.236 -0.3795  0.9499  0.1135
  180SLPC  C21820612   2.799   3.211   9.387 -0.1351 -0.4142  0.9459
  180SLPC  H18R20613   2.831   3.112   9.349 -0.7846 -0.3652  0.2546
  180SLPC  H18S20614   2.700   3.213   9.437 -0.2223  1.9728  0.7770
  180SLPC  H18T20615   2.861   3.246   9.473 -0.3663 -0.7212  1.2408
  180SLPC   C3320616   1.945   3.839   9.968 -0.1896  0.1418 -0.2198
  180SLPC   H3X20617   1.961   3.838   9.858  1.0135 -1.4216 -0.0619
  180SLPC   H3Y20618   1.929   3.948   9.985  2.4485  1.0461 -2.6219
  180SLPC   C3420619   1.815   3.763   9.990  0.8278 -1.6562  0.0769
  180SLPC   H4X20620   1.732   3.821   9.946  0.5397 -0.2949  2.2980
  180SLPC   H4Y20621   1.797   3.744  10.098  2.3876 -0.2212  0.6314
  180SLPC   C3520622   1.817   3.619   9.924  1.6966 -0.5357 -0.4650
  180SLPC   H5X20623   1.713   3.588   9.947  1.0564  1.7940  0.1001
  180SLPC   H5Y20624   1.892   3.557   9.976  1.8627  1.1158  1.3680
  180SLPC   C3620625   1.829   3.610   9.771 -1.0297  0.4182 -0.2352
  180SLPC   H6X20626   1.938   3.633   9.764 -0.9875  0.1340 -0.5165
  180SLPC   H6Y20627   1.797   3.703   9.719  0.4716 -0.0841 -2.1676
  180SLPC   C3720628   1.793   3.475   9.712  0.0761 -0.4553  0.3203
  180SLPC   H7X20629   1.691   3.453   9.751  0.0106 -0.1173  0.3435
  180SLPC   H7Y20630   1.858   3.387   9.734 -2.8659 -3.2956 -1.5441
  180SLPC   C3820631   1.781   3.485   9.557 -0.0043  0.7646 -0.2286
  180SLPC   H8X20632   1.877   3.506   9.506  0.7719 -1.3156  0.2793
  180SLPC   H8Y20633   1.711   3.567   9.530 -0.3802  0.9529  1.2472
  180SLPC   C3920634   1.722   3.367   9.486 -0.7846 -0.5445  0.9549
  180SLPC   H9X20635   1.698   3.386   9.379  1.4239 -1.4046  0.2498
  180SLPC   H9Y20636   1.626   3.328   9.526 -0.5638 -0.3846  1.6503
  180SLPC  C31020637   1.830   3.258   9.482 -0.5890 -0.6072  0.4242
  180SLPC  H10X20638   1.830   3.199   9.576 -1.4696  0.1680  0.9313
  180SLPC  H10Y20639   1.933   3.295   9.465 -0.7619  0.3697  1.4184
  180SLPC  C31120640   1.779   3.154   9.385  0.8070  0.4425  0.4037
  180SLPC  H11X20641   1.791   3.194   9.282 -2.2662  0.3423 -0.0939
  180SLPC  H11Y20642   1.672   3.129   9.404 -0.0101  1.2276 -2.5827
  180SLPC  C31220643   1.856   3.019   9.392 -0.1334  0.1278  0.2063
  180SLPC  H12X20644   1.846   2.970   9.491 -0.3750  0.3598  0.2989
  180SLPC  H12Y20645   1.962   3.044   9.370 -0.3170  0.5288 -0.2378
  180SLPC  C31320646   1.805   2.909   9.291  0.1756 -0.4740 -0.3828
  180SLPC  H13X20647   1.702   2.887   9.324 -0.1147  1.8035  0.3675
  180SLPC  H13Y20648   1.874   2.823   9.307 -0.2217 -0.6060  0.6785
  180SLPC  C31420649   1.808   2.953   9.144  0.2881 -0.3026 -0.2536
  180SLPC  H14X20650   1.908   2.995   9.120  1.3794 -0.9327  2.6917
  180SLPC  H14Y20651   1.722   3.020   9.128  1.4064  1.3189  0.2961
  180SLPC  C31520652   1.786   2.831   9.049  0.8411 -0.6500  0.4033
  180SLPC  H15X20653   1.694   2.787   9.091  0.6879 -0.5092  0.2198
  180SLPC  H15Y20654   1.875   2.764   9.055  2.8393  1.9365  1.7801
  180SLPC  C31620655   1.753   2.865   8.902 -0.2593 -0.0210 -0.5865
  180SLPC  H16X20656   1.656   2.917   8.884  1.1188  2.6706 -0.8365
  180SLPC  H16Y20657   1.745   2.774   8.840 -2.1260  0.8496 -1.7286
  180SLPC  C31720658   1.865   2.954   8.825  0.1788  0.0100  0.2736
  180SLPC  H17X20659   1.880   3.044   8.889 -1.2420  0.5322 -0.0924
  180SLPC  H17Y20660   1.832   2.966   8.720 -0.5157 -0.4182  0.4387
  180SLPC  C31820661   1.999   2.872   8.797  0.4320  0.3368 -0.3814
  180SLPC  H18X20662   1.980   2.789   8.724 -0.5067  1.0278 -0.9558
  180SLPC  H18Y20663   2.033   2.841   8.898  2.3452 -0.4088 -1.1994
  180SLPC  H18Z20664   2.085   2.930   8.760  0.8525  1.2546  1.8998
  181SLPC     N20665   3.632   0.810  11.236  0.1737 -0.4084  0.3972
  181SLPC   C1320666   3.642   0.957  11.272 -0.7265  0.1239  0.3978
  181SLPC  H13A20667   3.578   1.009  11.202 -1.7712 -0.4232  0.9140
  181SLPC  H13B20668   3.608   0.980  11.372  1.1259  1.0235  0.8664
  181SLPC  H13C20669   3.747   0.979  11.265  0.1583 -3.5292  0.4732
  181SLPC   C1420670   3.488   0.778  11.253  0.5200 -0.2126 -0.2553
  181SLPC  H14A20671   3.466   0.685  11.202  1.4927  0.1870 -1.4440
  181SLPC  H14B20672   3.457   0.777  11.356 -2.8049 -1.1029 -1.1253
  181SLPC  H14C20673   3.412   0.844  11.214 -0.7694 -3.3114 -3.5583
  181SLPC   C1520674   3.713   0.729  11.329  0.1372 -0.1497 -0.0670
  181SLPC  H15A20675   3.724   0.627  11.295 -2.5669 -0.7228  0.5579
  181SLPC  H15B20676   3.813   0.767  11.334  1.0157 -1.4149 -4.1621
  181SLPC  H15C20677   3.674   0.719  11.429 -0.0735 -2.2843 -0.3203
  181SLPC   C1220678   3.682   0.786  11.093  0.9902 -0.0950 -0.1416
  181SLPC  H12A20679   3.787   0.810  11.095  0.6023  1.6883  0.5708
  181SLPC  H12B20680   3.644   0.855  11.019 -0.1793 -2.3059 -1.7286
  181SLPC   C1120681   3.655   0.644  11.030  0.1537 -0.3639  0.9475
  181SLPC  H11A20682   3.642   0.655  10.920 -1.1550  1.4278  1.2229
  181SLPC  H11B20683   3.560   0.599  11.064 -0.1592 -0.3969  0.0522
  181SLPC     P20684   3.910   0.574  10.987  0.2215 -0.3619 -0.2674
  181SLPC   O1320685   3.951   0.708  11.037  0.1207  0.3871 -0.0406
  181SLPC   O1420686   4.006   0.466  11.019 -0.1187  0.3735  0.1660
  181SLPC   O1220687   3.767   0.559  11.062 -0.3912 -0.7906 -0.0643
  181SLPC   O1120688   3.881   0.591  10.835 -0.0325  0.0642  0.3585
  181SLPC    C120689   3.858   0.478  10.747 -0.0927 -0.7600  0.0713
  181SLPC    HA20690   3.939   0.405  10.770 -0.2141 -1.3875 -1.3732
  181SLPC    HB20691   3.758   0.436  10.772 -0.8079  0.0494 -1.2953
  181SLPC    C220692   3.863   0.519  10.595  0.5461  0.1001  0.6066
  181SLPC    HS20693   3.821   0.437  10.532  0.8880  1.1176 -0.9889
  181SLPC   O2120694   3.999   0.548  10.541 -0.3917  0.6565 -0.4715
  181SLPC   C2120695   4.076   0.435  10.539 -0.6067 -0.3943 -0.0350
  181SLPC   O2220696   4.031   0.324  10.543 -0.1961  0.3617 -0.8533
  181SLPC   C2220697   4.217   0.471  10.500  0.2890 -0.5985  0.0404
  181SLPC   H2R20698   4.245   0.575  10.528 -1.9103 -0.2973  1.4123
  181SLPC   H2S20699   4.280   0.404  10.562  0.5006  0.9241  1.5353
  181SLPC    C320700   3.774   0.646  10.563  0.7023 -0.1086 -1.1234
  181SLPC    HX20701   3.778   0.713  10.651 -2.3550  1.4093 -2.0112
  181SLPC    HY20702   3.670   0.610  10.550  1.2714 -1.9987 -0.7353
  181SLPC   O3120703   3.812   0.709  10.441 -0.3761  0.0897  0.3516
  181SLPC   C3120704   3.909   0.801  10.442 -1.0337 -0.2049  0.4155
  181SLPC   O3220705   3.957   0.852  10.538  0.4113  0.0236 -0.4573
  181SLPC   C3220706   3.950   0.841  10.301 -0.0829  0.1561 -0.7867
  181SLPC   H2X20707   4.049   0.891  10.307  0.8437 -1.6767  0.1084
  181SLPC   H2Y20708   3.864   0.906  10.276 -0.9120 -1.4189 -2.2698
  181SLPC   C2320709   4.230   0.437  10.355 -0.4623  0.0445 -0.1698
  181SLPC   H3R20710   4.189   0.507  10.279  1.8346  0.9520 -0.6513
  181SLPC   H3S20711   4.180   0.340  10.330 -0.5501  0.8727 -3.8252
  181SLPC   C2420712   4.375   0.408  10.311 -0.3532  0.0027 -0.0896
  181SLPC   H4R20713   4.428   0.344  10.385  1.3802  2.3655  0.8509
  181SLPC   H4S20714   4.429   0.505  10.312  1.4181 -0.9326 -0.2871
  181SLPC   C2520715   4.368   0.343  10.169  0.4093  0.3118  0.2636
  181SLPC   H5R20716   4.299   0.255  10.168 -1.0891  1.4559 -0.3137
  181SLPC   H5S20717   4.467   0.296  10.151  1.0277  1.5319  0.4278
  181SLPC   C2620718   4.318   0.424  10.053  0.3357  0.1567 -0.2273
  181SLPC   H6R20719   4.219   0.461  10.090  1.2820  1.7048  0.9180
  181SLPC   H6S20720   4.310   0.363   9.961  0.7443  1.0127 -0.8472
  181SLPC   C2720721   4.417   0.537  10.013  0.1534 -0.0856 -0.6964
  181SLPC   H7R20722   4.457   0.580  10.107 -0.2993 -1.7354  0.2885
  181SLPC   H7S20723   4.353   0.607   9.954 -1.1501 -0.9791 -0.3846
  181SLPC   C2820724   4.523   0.473   9.925  0.3239 -0.8082  0.1766
  181SLPC   H8R20725   4.468   0.409   9.852  0.7254 -3.0402  1.7398
  181SLPC   H8S20726   4.568   0.408  10.002 -2.0158 -0.8659  1.5922
  181SLPC   C2920727   4.614   0.579   9.870 -0.9217 -0.4796 -0.1203
  181SLPC   H9R20728   4.691   0.617   9.938 -1.7457  2.6455 -0.7674
  181SLPC  C21020729   4.623   0.632   9.754 -0.0933  0.2685 -0.4192
  181SLPC  H10R20730   4.689   0.720   9.752 -0.8317  0.8399  0.0415
  181SLPC  C21120731   4.540   0.601   9.631 -0.4840 -0.5614 -0.1707
  181SLPC  H11R20732   4.438   0.641   9.653  0.6149  2.5216 -0.1368
  181SLPC  H11S20733   4.524   0.491   9.624 -0.1932 -0.7478  1.5301
  181SLPC  C21220734   4.591   0.662   9.504  0.8084  0.0130 -0.4749
  181SLPC  H12R20735   4.697   0.636   9.487  0.4225 -0.9472 -1.4583
  181SLPC  C21320736   4.527   0.739   9.418 -0.1197 -0.3234  0.0900
  181SLPC  H13R20737   4.583   0.780   9.333  0.9512  0.3370  1.0867
  181SLPC  C21420738   4.387   0.786   9.423 -0.6696  0.7373 -0.8259
  181SLPC  H14R20739   4.362   0.889   9.390  0.5035  0.5554 -2.3950
  181SLPC  H14S20740   4.343   0.771   9.524 -0.6962 -0.0297 -0.9451
  181SLPC  C21520741   4.288   0.709   9.341 -0.5048 -0.5358  0.2142
  181SLPC  H15R20742   4.182   0.723   9.369  0.1191 -1.1798  3.2512
  181SLPC  H15S20743   4.318   0.603   9.358 -1.6884 -1.3740 -2.3666
  181SLPC  C21620744   4.292   0.740   9.189 -0.2417  0.2138 -0.1120
  181SLPC  H16R20745   4.393   0.731   9.144 -1.0298  0.2485 -1.9528
  181SLPC  H16S20746   4.264   0.848   9.188  2.0662  0.9127  1.5773
  181SLPC  C21720747   4.198   0.652   9.103  0.1206  0.1633  0.1679
  181SLPC  H17R20748   4.094   0.676   9.133  0.0047  0.7610 -0.6897
  181SLPC  H17S20749   4.216   0.542   9.112 -0.3526 -0.1703 -2.1833
  181SLPC  C21820750   4.200   0.683   8.957 -0.1194  0.4503 -0.1101
  181SLPC  H18R20751   4.139   0.616   8.892 -1.7807  1.9220 -0.1490
  181SLPC  H18S20752   4.305   0.682   8.923  0.1840  3.1973  0.4849
  181SLPC  H18T20753   4.159   0.784   8.936  0.4482  0.5199 -0.8954
  181SLPC   C3320754   3.981   0.720  10.209  0.0617  0.3484 -0.5251
  181SLPC   H3X20755   3.910   0.635  10.213 -0.6639  0.9852  1.2416
  181SLPC   H3Y20756   4.080   0.678  10.236 -0.4512 -1.4485 -1.2773
  181SLPC   C3420757   4.004   0.756  10.058 -0.7699  0.1417  0.7535
  181SLPC   H4X20758   4.106   0.799  10.052 -0.7806  0.2181  1.0660
  181SLPC   H4Y20759   3.933   0.831  10.015 -0.8008 -0.6968 -0.7015
  181SLPC   C3520760   3.993   0.633   9.960 -0.8269 -0.1751  0.1918
  181SLPC   H5X20761   3.910   0.566   9.992 -0.1597 -1.5932 -0.9483
  181SLPC   H5Y20762   4.091   0.581   9.961 -1.0074 -0.5294 -0.1517
  181SLPC   C3620763   3.976   0.680   9.810 -0.5162 -0.5423 -0.8254
  181SLPC   H6X20764   4.077   0.710   9.774  0.4530  1.7417  3.1529
  181SLPC   H6Y20765   3.902   0.763   9.809 -1.3879 -1.3046 -0.3257
  181SLPC   C3720766   3.909   0.581   9.714  0.6298 -0.3093 -0.5890
  181SLPC   H7X20767   3.801   0.568   9.733  0.7818 -0.6867  0.0660
  181SLPC   H7Y20768   3.952   0.481   9.738 -2.4042 -1.9869 -1.5944
  181SLPC   C3820769   3.928   0.608   9.562  0.2411 -0.5966 -0.2409
  181SLPC   H8X20770   3.861   0.542   9.504 -2.4811  1.5147  0.2919
  181SLPC   H8Y20771   4.031   0.587   9.528  0.1160  0.1649 -1.1087
  181SLPC   C3920772   3.890   0.754   9.530  0.6715 -0.7748 -0.6002
  181SLPC   H9X20773   3.984   0.810   9.548 -1.1169  2.5336 -0.7685
  181SLPC   H9Y20774   3.813   0.804   9.593  0.4391 -1.6879 -0.1288
  181SLPC  C31020775   3.853   0.774   9.381 -0.0213  0.6540 -0.0218
  181SLPC  H10X20776   3.742   0.771   9.370 -0.0513 -1.0156  0.5028
  181SLPC  H10Y20777   3.898   0.695   9.318  1.0641 -1.3429  3.0283
  181SLPC  C31120778   3.893   0.914   9.342 -0.4403  0.7544  0.2183
  181SLPC  H11X20779   3.995   0.939   9.379  0.9831 -0.3785 -2.6504
  181SLPC  H11Y20780   3.818   0.985   9.382  0.1839  0.1764  2.5752
  181SLPC  C31220781   3.912   0.928   9.185 -0.0602 -0.3586  0.4163
  181SLPC  H12X20782   3.956   0.828   9.165  1.1625  0.1697  0.3420
  181SLPC  H12Y20783   4.003   0.986   9.158  0.7387 -1.3846  0.8294
  181SLPC  C31320784   3.793   0.960   9.101  0.6545  0.3610  0.1493
  181SLPC  H13X20785   3.753   1.061   9.124 -2.1097  0.2339 -3.2135
  181SLPC  H13Y20786   3.716   0.882   9.123 -1.0429  1.2106 -2.3373
  181SLPC  C31420787   3.798   0.960   8.947  0.0869  0.8023  0.2307
  181SLPC  H14X20788   3.879   1.028   8.913  1.1978  0.7609  2.6104
  181SLPC  H14Y20789   3.705   1.004   8.904  0.4853  0.4023 -1.0787
  181SLPC  C31520790   3.810   0.816   8.883 -0.6672  0.0446  0.3624
  181SLPC  H15X20791   3.719   0.767   8.925 -0.7325  0.3101  0.5295
  181SLPC  H15Y20792   3.896   0.758   8.922 -1.7138 -2.5623 -0.9004
  181SLPC  C31620793   3.820   0.817   8.731 -0.1427  0.3571  0.2038
  181SLPC  H16X20794   3.777   0.911   8.690  5.0182  2.4394 -1.2551
  181SLPC  H16Y20795   3.774   0.731   8.678  1.8753 -0.2241 -0.6825
  181SLPC  C31720796   3.970   0.796   8.694 -0.0236  0.7555  0.2694
  181SLPC  H17X20797   4.008   0.702   8.740 -0.9913  0.2667  0.0993
  181SLPC  H17Y20798   4.030   0.882   8.731  2.9596 -0.1005 -2.1776
  181SLPC  C31820799   3.993   0.779   8.545  0.4062 -0.0135  0.7469
  181SLPC  H18X20800   3.921   0.709   8.496 -0.1155  1.5373 -0.8208
  181SLPC  H18Y20801   4.099   0.748   8.536  0.9322  1.3220  2.0374
  181SLPC  H18Z20802   3.986   0.877   8.493  1.2039 -0.3166  0.0540
  182SLPC     N20803   1.317   2.517  10.894 -0.8534 -0.0552 -0.2498
  182SLPC   C1320804   1.325   2.367  10.898 -0.8247 -0.1761  0.5517
  182SLPC  H13A20805   1.230   2.330  10.863 -0.0665 -0.6881 -1.0702
  182SLPC  H13B20806   1.394   2.318  10.830 -0.0456  2.5256 -0.7540
  182SLPC  H13C20807   1.337   2.323  10.996  1.0223 -1.2561 -0.1022
  182SLPC   C1420808   1.456   2.568  10.938 -0.1263  0.3858 -0.3406
  182SLPC  H14A20809   1.469   2.673  10.958 -0.3223 -0.0847  2.7185
  182SLPC  H14B20810   1.483   2.497  11.015 -1.1709 -1.2310 -1.3970
  182SLPC  H14C20811   1.514   2.545  10.849 -0.1096 -3.2813  0.4607
  182SLPC   C1520812   1.220   2.561  11.001  0.8674  0.2028 -0.3704
  182SLPC  H15A20813   1.116   2.541  10.983  0.2369 -2.2841  4.4083
  182SLPC  H15B20814   1.237   2.504  11.091 -2.5411 -0.6480 -0.1248
  182SLPC  H15C20815   1.233   2.667  11.016  0.4818  0.2590 -0.4169
  182SLPC   C1220816   1.276   2.571  10.762 -0.9479  0.2647  0.2881
  182SLPC  H12A20817   1.365   2.562  10.702  0.3171  1.7130  1.8605
  182SLPC  H12B20818   1.260   2.677  10.776  0.6303  0.4614  0.8462
  182SLPC   C1120819   1.158   2.509  10.682 -0.5847  1.0561 -0.0214
  182SLPC  H11A20820   1.178   2.402  10.658 -0.3300  1.0070  0.4066
  182SLPC  H11B20821   1.147   2.566  10.587  0.3625  0.6099 -0.4139
  182SLPC     P20822   0.948   2.650  10.753 -0.4042 -0.1947 -0.5573
  182SLPC   O1320823   0.874   2.645  10.882 -0.2314  0.0735 -0.1223
  182SLPC   O1420824   1.028   2.772  10.716  0.0702 -0.4197 -0.1952
  182SLPC   O1220825   1.039   2.524  10.752  0.4846 -0.1576  0.0656
  182SLPC   O1120826   0.841   2.623  10.638  0.1017  0.1868  0.0250
  182SLPC    C120827   0.812   2.485  10.598 -0.6297 -0.2893  0.4695
  182SLPC    HA20828   0.900   2.424  10.570  0.0095  0.1587  1.4353
  182SLPC    HB20829   0.755   2.434  10.679 -1.0058  0.5994  0.7852
  182SLPC    C220830   0.709   2.486  10.475  0.2190  0.6162 -0.1816
  182SLPC    HS20831   0.721   2.390  10.421  0.4618  0.5093  0.0566
  182SLPC   O2120832   0.729   2.588  10.384 -0.2610  0.2675 -0.1615
  182SLPC   C2120833   0.847   2.588  10.327 -0.5529  0.5736 -0.6314
  182SLPC   O2220834   0.931   2.501  10.332 -0.4286 -0.6057 -0.1723
  182SLPC   C2220835   0.873   2.724  10.253  0.1317 -0.2598 -0.0771
  182SLPC   H2R20836   0.819   2.803  10.309  1.5363  0.7098 -0.0229
  182SLPC   H2S20837   0.984   2.736  10.255  0.5162 -2.5269 -2.3928
  182SLPC    C320838   0.571   2.498  10.530  0.6737  0.0131 -0.0712
  182SLPC    HX20839   0.560   2.584  10.599  1.4331  0.3309 -0.3354
  182SLPC    HY20840   0.546   2.401  10.579  2.2728  0.2125  1.2004
  182SLPC   O3120841   0.475   2.510  10.424 -0.0232 -0.4020  0.2251
  182SLPC   C3120842   0.446   2.636  10.378 -0.2340  0.6919 -0.4750
  182SLPC   O3220843   0.495   2.736  10.423  0.5849  0.0568 -0.1624
  182SLPC   C3220844   0.343   2.624  10.261  0.0106  0.4773 -0.1486
  182SLPC   H2X20845   0.256   2.562  10.292  0.9890 -1.5487 -1.2612
  182SLPC   H2Y20846   0.392   2.565  10.180 -0.5315  1.5951 -1.3258
  182SLPC   C2320847   0.823   2.705  10.103  0.1759 -0.2816  0.1552
  182SLPC   H3R20848   0.892   2.638  10.048 -0.4594 -1.2392  0.4904
  182SLPC   H3S20849   0.840   2.810  10.070 -2.5494  0.3876  0.6561
  182SLPC   C2420850   0.675   2.669  10.079  0.4320  0.0954 -0.3689
  182SLPC   H4R20851   0.614   2.729  10.150 -0.7905  0.7449 -1.8936
  182SLPC   H4S20852   0.646   2.567  10.113  1.1033  0.1901  0.5267
  182SLPC   C2520853   0.628   2.697   9.937 -0.1148 -0.0637 -1.8468
  182SLPC   H5R20854   0.628   2.808   9.926  1.6699  0.1243 -0.5395
  182SLPC   H5S20855   0.521   2.670   9.926 -0.1768 -1.0523  0.5518
  182SLPC   C2620856   0.716   2.653   9.821 -0.2779 -0.0682  0.0224
  182SLPC   H6R20857   0.707   2.543   9.832  0.6707 -0.2626 -0.9642
  182SLPC   H6S20858   0.823   2.682   9.833  0.3705 -1.5148 -1.9154
  182SLPC   C2720859   0.672   2.694   9.679  0.4131 -0.7508 -0.0410
  182SLPC   H7R20860   0.561   2.690   9.676  0.3132 -0.1886  1.7104
  182SLPC   H7S20861   0.710   2.623   9.602  2.5161  0.5184 -0.2293
  182SLPC   C2820862   0.713   2.838   9.641 -0.0028 -0.4848 -0.1862
  182SLPC   H8R20863   0.671   2.915   9.709 -2.7235  0.4631 -2.7455
  182SLPC   H8S20864   0.641   2.859   9.559 -1.6954 -0.1992  1.2914
  182SLPC   C2920865   0.856   2.855   9.602 -0.3189 -0.3160 -0.2872
  182SLPC   H9R20866   0.922   2.793   9.664 -1.2291  1.3694  2.5510
  182SLPC  C21020867   0.896   2.910   9.482 -0.2988  0.3024  0.2069
  182SLPC  H10R20868   1.002   2.899   9.456  0.1051  0.2804  1.7685
  182SLPC  C21120869   0.798   2.969   9.379  0.0636 -0.0154 -0.3764
  182SLPC  H11R20870   0.725   3.044   9.416 -0.7961  0.3162 -2.6016
  182SLPC  H11S20871   0.731   2.887   9.346 -1.4588  0.3633  1.5962
  182SLPC  C21220872   0.873   3.020   9.257 -0.2534  0.1245  0.5260
  182SLPC  H12R20873   0.942   3.105   9.271 -0.8633  1.0455 -1.6356
  182SLPC  C21320874   0.873   2.971   9.132  0.2719 -0.8018  0.7399
  182SLPC  H13R20875   0.939   3.008   9.052 -0.4554 -1.7205 -0.3106
  182SLPC  C21420876   0.801   2.849   9.080 -0.1835 -0.6487 -0.0536
  182SLPC  H14R20877   0.708   2.832   9.137  0.7342 -1.0851  1.3786
  182SLPC  H14S20878   0.856   2.754   9.100 -1.6278 -1.8089 -1.3591
  182SLPC  C21520879   0.777   2.849   8.922 -0.0031 -0.2667  0.4163
  182SLPC  H15R20880   0.878   2.853   8.875  0.4606  0.9714  1.4219
  182SLPC  H15S20881   0.727   2.944   8.893 -1.1659 -1.0209 -0.0689
  182SLPC  C21620882   0.687   2.741   8.874 -0.4517  0.2423  0.3139
  182SLPC  H16R20883   0.586   2.751   8.920 -0.0053 -1.9111  1.9073
  182SLPC  H16S20884   0.722   2.642   8.910  0.5341  0.7879  0.8947
  182SLPC  C21720885   0.669   2.727   8.722 -0.1284 -0.5895 -0.5531
  182SLPC  H17R20886   0.769   2.707   8.678 -0.4127 -0.2838 -1.3495
  182SLPC  H17S20887   0.636   2.818   8.669 -2.1126 -2.8250 -3.4737
  182SLPC  C21820888   0.575   2.609   8.691 -0.3420  0.3508  0.0709
  182SLPC  H18R20889   0.479   2.633   8.742  0.7343 -2.6155  4.0584
  182SLPC  H18S20890   0.616   2.521   8.745 -2.6386 -0.3968  0.7357
  182SLPC  H18T20891   0.570   2.583   8.584  0.1809 -1.7569  0.5176
  182SLPC   C3320892   0.308   2.766  10.211  0.9604  0.4103  0.4660
  182SLPC   H3X20893   0.403   2.799  10.162  2.1698 -2.3748  0.7671
  182SLPC   H3Y20894   0.280   2.837  10.292 -2.3808 -0.4917  0.2254
  182SLPC   C3420895   0.178   2.765  10.123 -0.0531  0.0438  1.2073
  182SLPC   H4X20896   0.129   2.864  10.118  0.0159  0.0348 -2.4266
  182SLPC   H4Y20897   0.104   2.700  10.176 -1.7576  2.0105  1.3780
  182SLPC   C3520898   0.201   2.724   9.975  0.0129  0.1176  0.2526
  182SLPC   H5X20899   0.097   2.718   9.935 -0.2918 -2.3397  1.2173
  182SLPC   H5Y20900   0.237   2.619   9.969 -3.2346 -1.0524 -1.2621
  182SLPC   C3620901   0.269   2.834   9.901  0.2682  0.2604  0.0505
  182SLPC   H6X20902   0.371   2.845   9.945  0.6211 -0.4239 -0.5720
  182SLPC   H6Y20903   0.228   2.934   9.927  0.3355  0.0874  0.8776
  182SLPC   C3720904   0.280   2.816   9.758  0.2721 -0.2114 -0.0305
  182SLPC   H7X20905   0.182   2.811   9.706 -0.8141  1.3524  1.7292
  182SLPC   H7Y20906   0.347   2.735   9.724  0.2384  0.6573 -2.3811
  182SLPC   C3820907   0.361   2.931   9.697 -0.5603 -0.1914 -1.0266
  182SLPC   H8X20908   0.463   2.939   9.741 -1.4609 -0.0466  1.1440
  182SLPC   H8Y20909   0.314   3.022   9.740  1.5276  0.7677 -0.6168
  182SLPC   C3920910   0.364   2.929   9.544  0.4252 -0.4967  0.7615
  182SLPC   H9X20911   0.256   2.933   9.517  0.7287  1.6227 -0.3338
  182SLPC   H9Y20912   0.398   2.829   9.511 -2.0117 -1.0631 -0.2391
  182SLPC  C31020913   0.424   3.061   9.483 -1.2838 -0.5025  0.8050
  182SLPC  H10X20914   0.529   3.064   9.519 -1.3271 -2.0074  1.1177
  182SLPC  H10Y20915   0.387   3.156   9.526  1.7314  0.3704  1.7074
  182SLPC  C31120916   0.428   3.045   9.329 -0.1736  0.2776  0.5122
  182SLPC  H11X20917   0.323   3.025   9.298 -0.0377  1.3671 -0.7647
  182SLPC  H11Y20918   0.487   2.955   9.303  2.8035  1.4269  2.7326
  182SLPC  C31220919   0.476   3.170   9.260  0.4147 -0.2997 -0.0521
  182SLPC  H12X20920   0.586   3.179   9.267  0.3367 -0.4059  1.7536
  182SLPC  H12Y20921   0.435   3.261   9.307  0.9865 -0.6377  1.1491
  182SLPC  C31320922   0.444   3.185   9.105 -0.2402  0.9610  0.6418
  182SLPC  H13X20923   0.453   3.294   9.087 -0.0005  1.2738  2.4020
  182SLPC  H13Y20924   0.338   3.156   9.093 -0.5481  1.2395  2.3891
  182SLPC  C31420925   0.540   3.109   9.013  0.2134 -0.3606  0.5043
  182SLPC  H14X20926   0.516   3.000   9.012  0.0868 -0.3350 -1.2806
  182SLPC  H14Y20927   0.645   3.128   9.045  0.2293 -2.5794  2.0351
  182SLPC  C31520928   0.548   3.148   8.861  0.0525 -0.3787 -0.2245
  182SLPC  H15X20929   0.446   3.168   8.820  0.2178  1.1308  0.0501
  182SLPC  H15Y20930   0.579   3.070   8.788  2.0685  0.7104 -0.6052
  182SLPC  C31620931   0.620   3.289   8.840 -0.2635  0.6495  0.5445
  182SLPC  H16X20932   0.716   3.278   8.895  0.3950  1.9491 -0.2920
  182SLPC  H16Y20933   0.559   3.372   8.881 -0.0349  0.5550  1.0769
  182SLPC  C31720934   0.677   3.321   8.704  0.0298  0.6119  0.1599
  182SLPC  H17X20935   0.753   3.251   8.663  0.4253  0.0871  1.7169
  182SLPC  H17Y20936   0.722   3.422   8.715  0.6964  0.2675  0.7185
  182SLPC  C31820937   0.575   3.325   8.590 -0.0576 -0.4939 -0.6356
  182SLPC  H18X20938   0.491   3.390   8.621  0.0381 -1.1512  1.1160
  182SLPC  H18Y20939   0.546   3.220   8.569 -0.8770 -0.3272 -0.3839
  182SLPC  H18Z20940   0.628   3.367   8.502  0.3751 -0.0035 -0.1447
  183SLPC     N20941   3.214   4.339  10.783  0.2842 -0.9149  0.8748
  183SLPC   C1320942   3.201   4.467  10.693 -0.3705 -0.2526  0.3111
  183SLPC  H13A20943   3.298   4.495  10.654  0.0971 -1.6389  0.4321
  183SLPC  H13B20944   3.134   4.461  10.608  0.8818  0.6251 -0.7929
  183SLPC  H13C20945   3.178   4.554  10.753  0.3083  1.2604 -1.4923
  183SLPC   C1420946   3.077   4.312  10.833 -0.6283 -0.0748  0.1685
  183SLPC  H14A20947   3.008   4.267  10.763 -0.5358 -1.7533  1.1087
  183SLPC  H14B20948   3.082   4.228  10.900  0.7810  0.2952  0.5631
  183SLPC  H14C20949   3.040   4.404  10.877  1.0976  0.5719  0.3428
  183SLPC   C1520950   3.306   4.382  10.902  0.1532 -0.2643  0.0749
  183SLPC  H15A20951   3.337   4.288  10.945  3.2187 -0.9801 -3.2099
  183SLPC  H15B20952   3.393   4.435  10.866 -2.0554  3.0555 -0.8046
  183SLPC  H15C20953   3.257   4.452  10.968  2.2961  1.2113  0.1896
  183SLPC   C1220954   3.268   4.224  10.702  0.2699  0.5954  0.4012
  183SLPC  H12A20955   3.312   4.151  10.768  1.5944  0.0073 -1.0670
  183SLPC  H12B20956   3.355   4.245  10.641 -1.0060  0.9233 -1.3629
  183SLPC   C1120957   3.177   4.155  10.590 -0.3626 -0.4458 -0.4758
  183SLPC  H11A20958   3.244   4.081  10.543  1.1300  1.6474 -1.8288
  183SLPC  H11B20959   3.149   4.231  10.514 -1.6844 -2.5105 -2.1522
  183SLPC     P20960   3.063   3.971  10.721  0.4604 -0.0254 -0.1236
  183SLPC   O1320961   3.193   3.909  10.731 -0.1853 -0.3888  0.5146
  183SLPC   O1420962   3.004   4.001  10.854 -0.2733  0.5782 -0.1548
  183SLPC   O1220963   3.054   4.105  10.638 -0.1215  0.8292 -0.5923
  183SLPC   O1120964   2.962   3.864  10.656 -0.0525 -0.3932 -0.0020
  183SLPC    C120965   2.818   3.891  10.659  0.3090 -0.1218  0.1686
  183SLPC    HA20966   2.781   3.848  10.754  0.7396  0.3917  0.5727
  183SLPC    HB20967   2.793   3.999  10.668  0.5640 -0.2481  4.6233
  183SLPC    C220968   2.744   3.836  10.534 -0.8152  0.0104  0.3171
  183SLPC    HS20969   2.642   3.879  10.532 -0.1578  1.7135  1.2627
  183SLPC   O2120970   2.753   3.695  10.541  0.5491  0.3246 -0.5347
  183SLPC   C2120971   2.650   3.647  10.613 -0.0952  0.2513 -0.2962
  183SLPC   O2220972   2.563   3.708  10.671  0.1188 -0.2020  0.0392
  183SLPC   C2220973   2.673   3.497  10.637 -0.2456  0.0895  0.4376
  183SLPC   H2R20974   2.762   3.487  10.702  3.1094  0.6647 -3.5880
  183SLPC   H2S20975   2.588   3.449  10.690  1.6016 -2.5397  1.1942
  183SLPC    C320976   2.811   3.885  10.398  0.2067  0.1943 -0.0858
  183SLPC    HX20977   2.911   3.838  10.396  0.3247  0.4505 -0.7824
  183SLPC    HY20978   2.818   3.996  10.403  0.8087  0.3055 -2.2571
  183SLPC   O3120979   2.743   3.869  10.271  0.3898 -0.0926 -0.1144
  183SLPC   C3120980   2.779   3.768  10.194  0.4956  0.2499  0.2111
  183SLPC   O3220981   2.867   3.687  10.223  0.1151 -0.5786 -0.2659
  183SLPC   C3220982   2.708   3.781  10.058 -0.0190  0.4176 -0.5227
  183SLPC   H2X20983   2.734   3.687  10.003 -0.5208 -0.7445  1.1379
  183SLPC   H2Y20984   2.748   3.871  10.007  0.9507  0.8315  0.9121
  183SLPC   C2320985   2.705   3.419  10.505 -0.3493  0.4361 -0.6449
  183SLPC   H3R20986   2.765   3.329  10.531 -0.2633  0.8727  0.7652
  183SLPC   H3S20987   2.755   3.477  10.424 -1.7058 -1.2372 -2.7886
  183SLPC   C2420988   2.568   3.378  10.445  0.7210 -0.0321  0.2809
  183SLPC   H4R20989   2.496   3.461  10.428  1.6299  0.6534 -0.3401
  183SLPC   H4S20990   2.523   3.300  10.509  1.2972 -0.9069 -0.3558
  183SLPC   C2520991   2.579   3.308  10.308 -0.4018 -0.0134  0.3086
  183SLPC   H5R20992   2.486   3.250  10.288 -1.4600  1.6482  0.1754
  183SLPC   H5S20993   2.672   3.250  10.289  1.1957  2.6055 -0.3579
  183SLPC   C2620994   2.584   3.410  10.192 -0.0362 -0.8678 -0.1601
  183SLPC   H6R20995   2.664   3.483  10.219  0.6531 -2.6063  3.0080
  183SLPC   H6S20996   2.490   3.468  10.193  0.3113 -0.2819  0.6733
  183SLPC   C2720997   2.602   3.362  10.048  0.0565 -0.5379  0.2927
  183SLPC   H7R20998   2.526   3.428  10.001 -2.8001 -1.9948  2.5995
  183SLPC   H7S20999   2.555   3.262  10.040  2.4092 -1.8291  1.6686
  183SLPC   C2821000   2.740   3.387   9.985  0.1523 -0.1115  0.3031
  183SLPC   H8R21001   2.815   3.351  10.058 -0.9934 -0.5163  1.3079
  183SLPC   H8S21002   2.765   3.495   9.995 -0.5488 -0.0519  1.6625
  183SLPC   C2921003   2.746   3.336   9.842 -0.5909  0.4686  0.5052
  183SLPC   H9R21004   2.694   3.240   9.825  1.9353 -1.0607  0.8653
  183SLPC  C21021005   2.821   3.398   9.740  0.0566 -0.0783 -0.4087
  183SLPC  H10R21006   2.814   3.341   9.646  1.3143 -1.8601  0.5217
  183SLPC  C21121007   2.915   3.519   9.751  0.6318  0.5406 -0.3301
  183SLPC  H11R21008   2.905   3.571   9.849 -0.1597 -0.2381  0.0215
  183SLPC  H11S21009   2.871   3.590   9.678  0.1964 -0.5213 -1.1303
  183SLPC  C21221010   3.057   3.474   9.718  0.1433  0.2756 -0.3522
  183SLPC  H12R21011   3.101   3.423   9.805 -1.7964 -2.3251 -0.7568
  183SLPC  C21321012   3.119   3.486   9.599 -0.7240 -0.3067 -0.4049
  183SLPC  H13R21013   3.222   3.448   9.596 -0.4532  0.4370 -0.8419
  183SLPC  C21421014   3.060   3.559   9.480  0.8639  0.0870  0.3433
  183SLPC  H14R21015   3.083   3.668   9.484 -1.4593  0.5992  1.2520
  183SLPC  H14S21016   2.950   3.558   9.492  0.8808  1.5601  0.7984
  183SLPC  C21521017   3.099   3.497   9.345  0.4187 -0.3435  0.6612
  183SLPC  H15R21018   3.019   3.526   9.273  1.3895 -0.2579 -0.4020
  183SLPC  H15S21019   3.091   3.386   9.338 -0.5075 -0.1949 -2.2005
  183SLPC  C21621020   3.236   3.535   9.281 -0.3328 -0.9534  0.0140
  183SLPC  H16R21021   3.318   3.505   9.350 -0.1796 -0.2825  0.1316
  183SLPC  H16S21022   3.243   3.645   9.267  0.4420 -1.1650 -1.4106
  183SLPC  C21721023   3.261   3.476   9.142  0.0606 -0.2301  0.4137
  183SLPC  H17R21024   3.164   3.487   9.089 -0.4420 -0.9931  1.1518
  183SLPC  H17S21025   3.282   3.367   9.153 -2.0860 -0.7959 -0.6182
  183SLPC  C21821026   3.369   3.545   9.055  0.1073  0.5956 -0.1962
  183SLPC  H18R21027   3.461   3.545   9.116  0.3961 -0.0688 -0.6240
  183SLPC  H18S21028   3.332   3.647   9.029  1.3274  0.8942 -0.8275
  183SLPC  H18T21029   3.380   3.495   8.957  1.7340  3.8259 -1.8471
  183SLPC   C3321030   2.552   3.784  10.070  0.1260  0.0526  0.1674
  183SLPC   H3X21031   2.524   3.890  10.088  0.1787 -0.3114  2.7719
  183SLPC   H3Y21032   2.517   3.723  10.156 -0.7407  0.0357 -0.1936
  183SLPC   C3421033   2.489   3.720   9.947  0.1962  0.0324  0.3242
  183SLPC   H4X21034   2.382   3.697   9.963 -0.0238  1.4877  1.0302
  183SLPC   H4Y21035   2.532   3.620   9.924 -0.7959 -0.7225  1.6042
  183SLPC   C3521036   2.514   3.807   9.829  0.2218 -0.1481  0.6548
  183SLPC   H5X21037   2.620   3.837   9.841 -0.0677  1.4918 -0.6361
  183SLPC   H5Y21038   2.459   3.902   9.841  0.9102  0.2840  0.4152
  183SLPC   C3621039   2.481   3.753   9.690 -0.3745  0.3114 -0.2876
  183SLPC   H6X21040   2.531   3.654   9.679 -0.5587  0.2171 -0.2792
  183SLPC   H6Y21041   2.534   3.818   9.616  2.1042  1.8394  2.5887
  183SLPC   C3721042   2.333   3.737   9.666  0.0038  0.1761  0.3537
  183SLPC   H7X21043   2.276   3.690   9.749  1.4114 -0.7779  0.8059
  183SLPC   H7Y21044   2.315   3.676   9.576  0.6324 -1.6162  1.3885
  183SLPC   C3821045   2.259   3.875   9.643 -0.1506 -0.2660 -0.0502
  183SLPC   H8X21046   2.326   3.939   9.582 -2.8375  2.7256 -0.1243
  183SLPC   H8Y21047   2.248   3.937   9.734  0.5432  1.0928 -0.8569
  183SLPC   C3921048   2.129   3.864   9.564  0.4196 -0.2760  1.0862
  183SLPC   H9X21049   2.102   3.971   9.556 -0.6342 -0.6121 -0.1561
  183SLPC   H9Y21050   2.051   3.822   9.632 -1.2709 -0.6587 -0.9933
  183SLPC  C31021051   2.128   3.779   9.429  0.1321 -0.4679 -0.4193
  183SLPC  H10X21052   2.146   3.674   9.458 -0.9019 -0.3583  0.7187
  183SLPC  H10Y21053   2.204   3.817   9.358 -1.5505  0.3721 -1.8704
  183SLPC  C31121054   1.995   3.785   9.364  0.7198  0.5346  0.3699
  183SLPC  H11X21055   1.981   3.884   9.317 -1.2088  0.6104  1.0104
  183SLPC  H11Y21056   1.906   3.775   9.431 -2.3297  0.1603 -3.3783
  183SLPC  C31221057   1.976   3.679   9.254  0.6389 -0.4281 -0.8942
  183SLPC  H12X21058   1.997   3.582   9.303  0.4490  0.3986  0.9158
  183SLPC  H12Y21059   2.056   3.667   9.178  2.4243  0.6937  0.7269
  183SLPC  C31321060   1.838   3.679   9.196  1.0063  0.5735 -0.2143
  183SLPC  H13X21061   1.823   3.767   9.131 -1.8995 -0.4603 -1.0936
  183SLPC  H13Y21062   1.757   3.702   9.268  1.4455  0.8714  0.1949
  183SLPC  C31421063   1.796   3.555   9.099 -0.0803  0.7178 -0.3358
  183SLPC  H14X21064   1.792   3.462   9.160  4.4658  2.6256  3.4039
  183SLPC  H14Y21065   1.871   3.537   9.019  0.6673  2.7460 -0.1370
  183SLPC  C31521066   1.669   3.585   9.017  0.5109 -0.2143 -0.2386
  183SLPC  H15X21067   1.703   3.646   8.931  2.3470 -1.5556 -0.5140
  183SLPC  H15Y21068   1.615   3.667   9.070  1.8003  0.9891 -0.7039
  183SLPC  C31621069   1.590   3.458   8.981  0.3694 -0.5714  0.2863
  183SLPC  H16X21070   1.507   3.496   8.917  1.0113  0.9544  0.3089
  183SLPC  H16Y21071   1.542   3.425   9.075 -0.8189 -2.0976 -0.7989
  183SLPC  C31721072   1.669   3.346   8.901 -0.2289 -0.1202 -0.6143
  183SLPC  H17X21073   1.601   3.258   8.890 -1.5031  0.5854  1.1741
  183SLPC  H17Y21074   1.751   3.315   8.969 -0.0593  3.4002  0.9708
  183SLPC  C31821075   1.718   3.383   8.763 -0.0266 -0.3996  0.7115
  183SLPC  H18X21076   1.627   3.368   8.700 -1.1969 -1.1823  2.5107
  183SLPC  H18Y21077   1.798   3.312   8.734  1.2230  1.2873 -0.1078
  183SLPC  H18Z21078   1.740   3.491   8.749 -0.1422 -0.6971 -2.5488
  184SLPC     N21079   5.095   6.652  10.839 -0.0209 -0.4250  0.5114
  184SLPC   C1321080   5.095   6.573  10.967 -0.0811 -1.1313  0.4567
  184SLPC  H13A21081   5.188   6.564  11.021  0.2866  0.0371  0.0379
  184SLPC  H13B21082   5.020   6.615  11.032  0.0603  1.0894 -0.7381
  184SLPC  H13C21083   5.079   6.469  10.944  0.0268 -1.1928  0.6576
  184SLPC   C1421084   4.949   6.668  10.797 -0.7194 -0.0660  0.1622
  184SLPC  H14A21085   4.895   6.576  10.785 -0.9470  0.2154 -1.1456
  184SLPC  H14B21086   4.896   6.728  10.870 -2.4212 -0.2380 -0.8745
  184SLPC  H14C21087   4.937   6.713  10.699 -0.5895 -1.2510 -0.4109
  184SLPC   C1521088   5.165   6.574  10.736 -0.0045 -0.3509  0.6902
  184SLPC  H15A21089   5.110   6.485  10.707  0.4874 -1.0510  1.8490
  184SLPC  H15B21090   5.170   6.632  10.645 -0.8052 -4.3628 -2.1982
  184SLPC  H15C21091   5.266   6.548  10.764  0.1666 -2.0131 -1.1817
  184SLPC   C1221092   5.156   6.786  10.860  0.6253 -0.1723  0.1471
  184SLPC  H12A21093   5.263   6.771  10.864  0.4741 -1.1164  1.2386
  184SLPC  H12B21094   5.126   6.819  10.958  1.4552 -1.3079  0.8052
  184SLPC   C1121095   5.132   6.893  10.747 -0.0814  0.2794 -0.2221
  184SLPC  H11A21096   5.181   6.988  10.776 -3.1908  1.8097  0.3965
  184SLPC  H11B21097   5.022   6.907  10.740 -0.2608 -0.4401  0.9270
  184SLPC     P21098   5.356   6.875  10.614 -0.0091 -0.1719  0.0776
  184SLPC   O1321099   5.431   6.876  10.739 -0.0395  0.2233 -0.5451
  184SLPC   O1421100   5.400   6.773  10.522 -0.2720  0.5050 -0.1433
  184SLPC   O1221101   5.197   6.860  10.629  0.3359 -0.1005 -0.1439
  184SLPC   O1121102   5.361   7.015  10.540 -0.0617  0.0689  0.2408
  184SLPC    C121103   5.332   7.024  10.399  0.0917  0.6017  0.0468
  184SLPC    HA21104   5.364   6.929  10.351  1.2127 -0.4066  2.5876
  184SLPC    HB21105   5.224   7.046  10.385 -0.5691  0.1028  3.4168
  184SLPC    C221106   5.410   7.146  10.341 -0.5007  0.6531 -0.9116
  184SLPC    HS21107   5.346   7.235  10.360 -0.9287  0.1400  0.1377
  184SLPC   O2121108   5.438   7.124  10.199  0.1522  0.4189  0.1046
  184SLPC   C2121109   5.360   7.179  10.106 -0.1812  0.9662 -0.3211
  184SLPC   O2221110   5.254   7.237  10.132 -0.1664 -0.4002 -0.2098
  184SLPC   C2221111   5.414   7.142   9.968  0.1631 -0.0965 -0.3485
  184SLPC   H2R21112   5.518   7.109   9.982 -0.0260 -0.8861 -0.7513
  184SLPC   H2S21113   5.347   7.063   9.928 -0.2713 -0.1855  0.5400
  184SLPC    C321114   5.541   7.174  10.414  0.0457 -0.2394  0.0769
  184SLPC    HX21115   5.601   7.087  10.448 -0.4866  0.9190  4.6448
  184SLPC    HY21116   5.521   7.227  10.510 -2.6923  2.3307 -1.7340
  184SLPC   O3121117   5.631   7.258  10.336 -0.0100  0.3005  0.2800
  184SLPC   C3121118   5.616   7.388  10.354 -0.3692  0.0412 -0.1675
  184SLPC   O3221119   5.546   7.446  10.431 -0.1771  0.0759  0.2455
  184SLPC   C3221120   5.715   7.450  10.251 -0.3148  0.2380 -0.1099
  184SLPC   H2X21121   5.819   7.423  10.281  0.4265  1.4901 -1.4343
  184SLPC   H2Y21122   5.703   7.560  10.254 -1.6665  0.1613 -1.5248
  184SLPC   C2321123   5.383   7.247   9.864 -0.3785 -0.8612 -0.4656
  184SLPC   H3R21124   5.424   7.347   9.892 -1.2783 -1.0945  2.0151
  184SLPC   H3S21125   5.274   7.265   9.847 -0.5177  1.8263  2.3362
  184SLPC   C2421126   5.433   7.201   9.733  1.1484 -0.7728 -0.4845
  184SLPC   H4R21127   5.361   7.118   9.712  0.9837 -0.1233 -2.8520
  184SLPC   H4S21128   5.539   7.168   9.732  2.2265  2.3612 -0.5378
  184SLPC   C2521129   5.422   7.301   9.620 -0.7478  0.0087  1.0506
  184SLPC   H5R21130   5.500   7.379   9.636  0.8603 -1.1863 -0.5115
  184SLPC   H5S21131   5.323   7.348   9.634 -0.4169  1.7649 -1.6675
  184SLPC   C2621132   5.435   7.222   9.485 -0.2150  0.1595  0.3793
  184SLPC   H6R21133   5.357   7.144   9.474 -0.6258  0.6882 -0.5620
  184SLPC   H6S21134   5.533   7.169   9.484  0.5058  1.4563  0.1176
  184SLPC   C2721135   5.436   7.324   9.374  0.0848  0.5448  0.9780
  184SLPC   H7R21136   5.535   7.373   9.387 -0.1201  2.0572 -2.1746
  184SLPC   H7S21137   5.354   7.398   9.384  0.6627  1.4825 -0.8112
  184SLPC   C2821138   5.430   7.262   9.232  0.1927 -0.7198  0.0912
  184SLPC   H8R21139   5.350   7.185   9.226  0.3571 -0.7852 -3.0902
  184SLPC   H8S21140   5.525   7.206   9.220  1.5216  1.3402  0.5113
  184SLPC   C2921141   5.425   7.364   9.119  0.7071  0.2157  0.3407
  184SLPC   H9R21142   5.325   7.365   9.073 -0.0337 -0.3833  1.8550
  184SLPC  C21021143   5.523   7.449   9.078 -0.6457  0.2605 -0.8235
  184SLPC  H10R21144   5.502   7.528   9.005 -0.4007  1.0637 -0.0413
  184SLPC  C21121145   5.663   7.466   9.130  0.7137  0.0981 -1.0127
  184SLPC  H11R21146   5.694   7.376   9.187  0.1558 -0.4332 -1.5309
  184SLPC  H11S21147   5.664   7.559   9.191 -3.3635  1.0697 -2.0890
  184SLPC  C21221148   5.757   7.487   9.011  0.2307  0.0104  0.6748
  184SLPC  H12R21149   5.792   7.391   8.970 -1.0354 -1.3024  2.5030
  184SLPC  C21321150   5.767   7.606   8.945 -0.2785 -0.3321  0.0652
  184SLPC  H13R21151   5.845   7.617   8.869 -0.1571 -0.2947  0.1959
  184SLPC  C21421152   5.700   7.739   8.980 -0.7523  0.0654  0.6127
  184SLPC  H14R21153   5.779   7.811   9.010  0.4980 -1.2445  0.6381
  184SLPC  H14S21154   5.624   7.742   9.061 -1.0824 -0.3992  0.3208
  184SLPC  C21521155   5.623   7.773   8.856  0.6519  1.5055  0.0720
  184SLPC  H15R21156   5.552   7.691   8.835  0.2467  1.8051  0.2532
  184SLPC  H15S21157   5.685   7.787   8.764  2.0027  0.0181  0.7190
  184SLPC  C21621158   5.544   7.899   8.871  0.3191 -0.7797 -0.2005
  184SLPC  H16R21159   5.624   7.976   8.875  0.2500 -0.7201  0.0776
  184SLPC  H16S21160   5.489   7.906   8.968  1.3499  3.8207  0.2937
  184SLPC  C21721161   5.439   7.921   8.763  0.0588  0.4869 -0.7901
  184SLPC  H17R21162   5.385   7.824   8.770  2.0600 -0.7359 -1.2731
  184SLPC  H17S21163   5.493   7.932   8.667  0.5520 -1.3838 -0.7742
  184SLPC  C21821164   5.360   8.050   8.771 -0.2466  0.0911  0.3610
  184SLPC  H18R21165   5.342   8.080   8.876  1.2811 -1.0442  0.9824
  184SLPC  H18S21166   5.261   8.024   8.728 -0.1697 -0.7830  0.6859
  184SLPC  H18T21167   5.407   8.141   8.730  1.0460 -0.0471  1.4654
  184SLPC   C3321168   5.693   7.411  10.103  0.4556 -0.4990 -0.3131
  184SLPC   H3X21169   5.599   7.462  10.073  0.2642 -0.4875  0.2975
  184SLPC   H3Y21170   5.681   7.302  10.085 -0.9545 -0.1132 -1.9973
  184SLPC   C3421171   5.809   7.459  10.017  0.7824 -0.0600  0.1284
  184SLPC   H4X21172   5.901   7.401  10.041  0.2870 -1.0552 -0.2839
  184SLPC   H4Y21173   5.829   7.564  10.045  2.5496 -0.3457  0.0573
  184SLPC   C3521174   5.781   7.438   9.865 -0.2848 -0.0999  0.3177
  184SLPC   H5X21175   5.678   7.450   9.824 -0.8429 -1.5797  1.2088
  184SLPC   H5Y21176   5.795   7.329   9.847 -0.8419 -0.1044 -0.1221
  184SLPC   C3621177   5.876   7.523   9.773  0.1173 -0.0768  1.1849
  184SLPC   H6X21178   5.977   7.477   9.771  0.0516 -0.2069  0.9245
  184SLPC   H6Y21179   5.874   7.626   9.816 -0.6195  0.4541 -0.0638
  184SLPC   C3721180   5.832   7.518   9.627  0.6167  0.4541  0.4448
  184SLPC   H7X21181   5.722   7.513   9.615  0.6534 -1.0814  0.4706
  184SLPC   H7Y21182   5.868   7.424   9.579 -0.0051  0.7902 -0.7156
  184SLPC   C3821183   5.883   7.639   9.548 -0.3033 -0.4543  0.1928
  184SLPC   H8X21184   5.991   7.648   9.574  0.5314 -0.9449 -2.8010
  184SLPC   H8Y21185   5.834   7.731   9.586 -0.3051 -0.6771  0.7379
  184SLPC   C3921186   5.876   7.614   9.392  0.6461 -1.0606 -0.0484
  184SLPC   H9X21187   5.769   7.605   9.366 -0.4109 -0.2244  3.5486
  184SLPC   H9Y21188   5.933   7.520   9.371 -0.3060 -1.7901  0.5438
  184SLPC  C31021189   5.946   7.730   9.318  0.0504  0.9948 -0.3837
  184SLPC  H10X21190   5.925   7.714   9.210 -1.5409 -0.8607  0.1304
  184SLPC  H10Y21191   6.056   7.730   9.337  0.0159  0.3587 -0.1423
  184SLPC  C31121192   5.886   7.866   9.354 -0.1150  0.0260  0.1623
  184SLPC  H11X21193   5.903   7.892   9.460  4.5503  2.5663 -0.9574
  184SLPC  H11Y21194   5.777   7.870   9.329 -0.3343  1.8476  1.2308
  184SLPC  C31221195   5.968   7.974   9.287  0.2992 -0.5302 -0.4785
  184SLPC  H12X21196   5.979   7.951   9.179  0.7753 -3.6210  0.1386
  184SLPC  H12Y21197   6.075   7.971   9.315 -0.3109 -1.1477  2.0574
  184SLPC  C31321198   5.916   8.117   9.319 -0.2940 -0.2407  0.0338
  184SLPC  H13X21199   5.823   8.133   9.261  0.0971  0.9588 -0.2824
  184SLPC  H13Y21200   5.989   8.188   9.275  0.0812 -2.2926 -2.9516
  184SLPC  C31421201   5.901   8.150   9.466  0.3434  0.0458  0.7278
  184SLPC  H14X21202   5.804   8.103   9.492  0.7528 -1.1898  0.1072
  184SLPC  H14Y21203   5.882   8.258   9.480  2.6440  0.9139 -1.9045
  184SLPC  C31521204   6.020   8.110   9.555  0.4737  0.1807 -0.2760
  184SLPC  H15X21205   6.101   8.177   9.522  1.0407 -0.1459  0.4333
  184SLPC  H15Y21206   6.046   8.005   9.531 -0.0299  0.0303 -0.1823
  184SLPC  C31621207   5.995   8.118   9.702 -0.5527  0.1282 -0.2315
  184SLPC  H16X21208   5.974   8.226   9.714 -0.1312  0.1631  0.2617
  184SLPC  H16Y21209   6.089   8.092   9.757 -0.4799  1.3512  0.2495
  184SLPC  C31721210   5.895   8.020   9.752 -0.5782 -0.8833  0.2216
  184SLPC  H17X21211   5.920   7.926   9.698  3.2862  0.8066 -1.2488
  184SLPC  H17Y21212   5.793   8.048   9.719  0.3105  2.1448 -0.2515
  184SLPC  C31821213   5.907   8.009   9.901  0.6179  0.1974 -0.3445
  184SLPC  H18X21214   5.828   7.941   9.938 -1.8918  2.9261 -0.3546
  184SLPC  H18Y21215   5.893   8.108   9.949 -1.0237  0.3289 -1.0418
  184SLPC  H18Z21216   6.000   7.956   9.930  0.9497  0.3123 -1.1759
  185SLPC     N21217   5.369   4.926   6.151  0.2052  0.5057  0.3145
  185SLPC   C1321218   5.246   5.014   6.116  0.3128  0.3504  0.5962
  185SLPC  H13A21219   5.160   4.949   6.106  0.3977 -0.0136  2.0625
  185SLPC  H13B21220   5.235   5.087   6.195  3.2809  0.7134  0.7976
  185SLPC  H13C21221   5.251   5.062   6.019  0.4937 -1.3591 -0.2826
  185SLPC   C1421222   5.371   4.820   6.044  0.0043  0.3259  0.2886
  185SLPC  H14A21223   5.266   4.793   6.039 -0.3365  0.8940  2.7902
  185SLPC  H14B21224   5.390   4.861   5.946 -2.4920 -2.4035 -1.5152
  185SLPC  H14C21225   5.443   4.742   6.060  2.4373  2.0665 -1.5046
  185SLPC   C1521226   5.349   4.873   6.289 -0.2947  0.1019  0.2175
  185SLPC  H15A21227   5.444   4.853   6.335 -0.5814 -1.1903  0.2994
  185SLPC  H15B21228   5.308   4.951   6.351  3.5665  1.3339  1.5319
  185SLPC  H15C21229   5.293   4.780   6.289 -0.2875  0.0919  1.3074
  185SLPC   C1221230   5.501   5.004   6.133 -0.3121  0.1990  0.2231
  185SLPC  H12A21231   5.496   5.101   6.178 -0.0854 -0.0840  0.8680
  185SLPC  H12B21232   5.508   5.018   6.026  0.3269 -0.5114  0.1610
  185SLPC   C1121233   5.624   4.925   6.178  0.1249  0.1636 -0.5552
  185SLPC  H11A21234   5.707   4.984   6.134 -1.4263  1.2516 -2.1816
  185SLPC  H11B21235   5.613   4.828   6.123 -0.2914 -0.2216  0.1958
  185SLPC     P21236   5.763   4.835   6.382 -0.4034  0.1381 -0.4991
  185SLPC   O1321237   5.854   4.793   6.273 -0.1737 -0.1950 -0.2128
  185SLPC   O1421238   5.825   4.913   6.495 -0.5111  0.2460 -0.0945
  185SLPC   O1221239   5.641   4.909   6.322 -0.0286 -0.1730 -0.2174
  185SLPC   O1121240   5.712   4.703   6.448 -0.1379 -0.6984  0.4226
  185SLPC    C121241   5.576   4.689   6.500 -0.4046 -0.2725 -0.4539
  185SLPC    HA21242   5.517   4.782   6.491 -2.9498 -1.7530 -0.1001
  185SLPC    HB21243   5.531   4.616   6.430  1.8491 -0.3787 -1.8899
  185SLPC    C221244   5.564   4.642   6.647 -0.8409  0.0984 -0.6106
  185SLPC    HS21245   5.461   4.647   6.687 -0.7465 -0.9945 -0.2103
  185SLPC   O2121246   5.655   4.710   6.729 -0.0879  0.4422  0.0505
  185SLPC   C2121247   5.619   4.835   6.753 -0.0859 -0.1126  0.1039
  185SLPC   O2221248   5.514   4.888   6.720 -0.0388 -0.3789 -0.0627
  185SLPC   C2221249   5.733   4.905   6.825 -0.0492  0.2975  0.0312
  185SLPC   H2R21250   5.804   4.830   6.867  2.2537  2.2149 -0.2074
  185SLPC   H2S21251   5.793   4.967   6.755  0.2282 -0.9642 -0.8878
  185SLPC    C321252   5.594   4.496   6.648  0.3097 -0.1425  0.3550
  185SLPC    HX21253   5.678   4.454   6.589 -1.1887 -1.5518 -0.8687
  185SLPC    HY21254   5.505   4.448   6.601  0.1541  0.2989  0.1897
  185SLPC   O3121255   5.598   4.450   6.780 -0.5232 -0.4950  0.3783
  185SLPC   C3121256   5.724   4.451   6.836  0.0458  0.2214 -0.9590
  185SLPC   O3221257   5.825   4.465   6.777  0.3544  0.3060 -0.3187
  185SLPC   C3221258   5.722   4.410   6.984 -0.0499 -0.8366 -0.1551
  185SLPC   H2X21259   5.821   4.419   7.033  0.0208  0.0493 -0.4483
  185SLPC   H2Y21260   5.689   4.303   6.979 -0.2595 -0.7374 -1.2345
  185SLPC   C2321261   5.685   5.000   6.930  0.1668  0.1939 -0.4831
  185SLPC   H3R21262   5.584   5.038   6.905 -1.6340 -4.7282 -1.7822
  185SLPC   H3S21263   5.763   5.079   6.938  0.2823  0.1966 -1.5115
  185SLPC   C2421264   5.673   4.933   7.062  0.3338 -0.0705  0.2173
  185SLPC   H4R21265   5.775   4.900   7.091  0.8160  1.2906  0.1343
  185SLPC   H4S21266   5.613   4.841   7.043  1.3425 -0.3065 -2.1848
  185SLPC   C2521267   5.610   5.025   7.163  0.3318  0.2714  0.1056
  185SLPC   H5R21268   5.532   5.093   7.121 -0.0023 -1.1675 -1.7467
  185SLPC   H5S21269   5.695   5.093   7.186  1.2379 -1.3128  1.6490
  185SLPC   C2621270   5.556   4.964   7.292 -0.2692 -0.0788  0.1639
  185SLPC   H6R21271   5.468   4.898   7.280 -1.0281  0.6029  1.6620
  185SLPC   H6S21272   5.533   5.043   7.367 -0.5203  0.0010  0.0035
  185SLPC   C2721273   5.659   4.866   7.354  0.3205  0.4923 -0.7447
  185SLPC   H7R21274   5.749   4.930   7.362  1.6525 -1.4800  1.0577
  185SLPC   H7S21275   5.685   4.779   7.290 -0.2203  0.1672 -0.5263
  185SLPC   C2821276   5.641   4.806   7.499 -0.1230  0.3444 -0.7625
  185SLPC   H8R21277   5.565   4.726   7.513 -0.3333  0.8381  1.1831
  185SLPC   H8S21278   5.598   4.891   7.555 -1.4643  0.2858 -1.6659
  185SLPC   C2921279   5.782   4.752   7.551 -0.0626 -0.5508  0.1824
  185SLPC   H9R21280   5.842   4.700   7.475  0.2189  0.5212 -0.3505
  185SLPC  C21021281   5.832   4.764   7.676 -0.0414  0.5633  0.3176
  185SLPC  H10R21282   5.919   4.699   7.688  0.1635  1.0118  1.3811
  185SLPC  C21121283   5.774   4.821   7.799 -0.1527  0.0960 -0.2892
  185SLPC  H11R21284   5.771   4.738   7.873  0.1528 -0.3419 -0.7691
  185SLPC  H11S21285   5.671   4.862   7.790 -1.5653 -3.0566  0.2772
  185SLPC  C21221286   5.866   4.927   7.855 -0.5241 -0.2615  0.0468
  185SLPC  H12R21287   5.876   5.021   7.798 -2.2409  0.5968  1.0962
  185SLPC  C21321288   5.936   4.923   7.967  0.6293 -0.1565 -0.2616
  185SLPC  H13R21289   5.981   5.015   8.007  3.1168 -0.4892 -2.0607
  185SLPC  C21421290   5.925   4.814   8.074 -0.3419 -0.2079  0.2977
  185SLPC  H14R21291   5.952   4.716   8.029 -2.7972 -0.4188 -0.8647
  185SLPC  H14S21292   5.821   4.807   8.111 -0.8718 -0.2486 -1.1590
  185SLPC  C21521293   6.019   4.820   8.192 -0.7561  0.1743 -0.3427
  185SLPC  H15R21294   5.988   4.907   8.255 -1.7879 -0.9526  0.7646
  185SLPC  H15S21295   6.124   4.830   8.159 -0.8914 -0.7081 -1.0716
  185SLPC  C21621296   6.007   4.690   8.283  0.1705 -0.4691  0.0686
  185SLPC  H16R21297   5.906   4.660   8.316 -0.5631  1.1530 -0.6219
  185SLPC  H16S21298   6.063   4.700   8.379 -1.2018 -3.9479  1.3901
  185SLPC  C21721299   6.062   4.563   8.223 -0.0215 -0.1986  0.8241
  185SLPC  H17R21300   6.169   4.579   8.198 -0.0948 -1.1817 -0.1976
  185SLPC  H17S21301   6.013   4.552   8.124  1.5115  0.4694 -0.0436
  185SLPC  C21821302   6.041   4.441   8.306 -0.0199 -0.0092  0.2972
  185SLPC  H18R21303   6.072   4.353   8.246  0.9394 -0.0202  0.7848
  185SLPC  H18S21304   5.941   4.427   8.352 -0.6667  0.1943 -0.9873
  185SLPC  H18T21305   6.116   4.431   8.388  2.5819  0.1430 -1.9169
  185SLPC   C3321306   5.624   4.503   7.063  0.7432  0.1697  0.3701
  185SLPC   H3X21307   5.530   4.506   7.004  1.1354 -0.1851 -0.2811
  185SLPC   H3Y21308   5.643   4.612   7.071  0.8312  0.0477  2.0887
  185SLPC   C3421309   5.582   4.448   7.197 -0.0596  0.1532  0.9002
  185SLPC   H4X21310   5.547   4.344   7.186 -0.6467  0.6126 -3.8728
  185SLPC   H4Y21311   5.495   4.513   7.223  1.0998  1.7968  0.8672
  185SLPC   C3521312   5.687   4.468   7.303 -0.0400 -0.0736  0.0742
  185SLPC   H5X21313   5.675   4.576   7.326 -0.9087  0.0957 -1.0631
  185SLPC   H5Y21314   5.785   4.443   7.257 -0.4985 -0.7816 -0.5334
  185SLPC   C3621315   5.668   4.394   7.436 -0.5086 -0.0415  0.0889
  185SLPC   H6X21316   5.743   4.429   7.509 -1.9356  2.5187  0.4364
  185SLPC   H6Y21317   5.685   4.286   7.417  1.3870  0.3309 -0.6119
  185SLPC   C3721318   5.530   4.406   7.505 -1.0985 -0.8772 -0.3576
  185SLPC   H7X21319   5.455   4.405   7.423  0.3058  1.8241 -1.8301
  185SLPC   H7Y21320   5.527   4.510   7.546 -0.9367 -0.3321 -1.6677
  185SLPC   C3821321   5.500   4.293   7.603  0.0036  0.6044 -0.5361
  185SLPC   H8X21322   5.468   4.203   7.547 -2.6392  0.4908  0.9875
  185SLPC   H8Y21323   5.406   4.320   7.656  0.5608  1.9867 -0.1913
  185SLPC   C3921324   5.618   4.269   7.703  0.4298 -0.8318 -0.0388
  185SLPC   H9X21325   5.697   4.235   7.634 -1.3890  0.6435 -3.0551
  185SLPC   H9Y21326   5.601   4.188   7.777 -1.5686  1.3884  2.1615
  185SLPC  C31021327   5.650   4.398   7.785  0.1497 -0.2415  0.4201
  185SLPC  H10X21328   5.564   4.443   7.839  0.1901 -0.2636  0.5039
  185SLPC  H10Y21329   5.686   4.474   7.712  0.5304  0.2426  1.0981
  185SLPC  C31121330   5.766   4.381   7.893 -0.1454 -0.0625  0.2470
  185SLPC  H11X21331   5.732   4.304   7.966  0.5924 -0.2675  0.3830
  185SLPC  H11Y21332   5.786   4.477   7.945  0.7407  0.1896 -0.5335
  185SLPC  C31221333   5.902   4.331   7.836  0.1124  0.0347 -0.0826
  185SLPC  H12X21334   5.954   4.420   7.793 -0.8815  1.0326  0.7066
  185SLPC  H12Y21335   5.878   4.262   7.752 -1.0370 -1.1297  1.1693
  185SLPC  C31321336   5.984   4.265   7.947  0.2273  0.3695  0.1117
  185SLPC  H13X21337   5.921   4.186   7.995 -1.7708  1.5819 -0.3859
  185SLPC  H13Y21338   6.004   4.340   8.026  0.4267  1.8813 -1.3125
  185SLPC  C31421339   6.113   4.201   7.888 -0.2961  0.1137 -0.3922
  185SLPC  H14X21340   6.157   4.255   7.802  1.3755  0.3276  0.5566
  185SLPC  H14Y21341   6.077   4.101   7.858 -0.7441  0.7949 -2.2330
  185SLPC  C31521342   6.221   4.186   7.999 -0.5001 -0.0778  0.5657
  185SLPC  H15X21343   6.259   4.281   8.041  0.6224 -1.0098  1.7526
  185SLPC  H15Y21344   6.305   4.138   7.945  0.0187  0.8644  0.5330
  185SLPC  C31621345   6.175   4.093   8.113  0.0948 -0.4405 -0.8328
  185SLPC  H16X21346   6.132   4.001   8.067 -0.4172  0.0777 -1.4090
  185SLPC  H16Y21347   6.091   4.153   8.153  1.5702  0.4479  1.0850
  185SLPC  C31721348   6.272   4.056   8.225 -1.4796  0.0348 -0.2908
  185SLPC  H17X21349   6.294   4.142   8.292 -0.1287 -0.8809  0.5001
  185SLPC  H17Y21350   6.371   4.045   8.176 -1.8722 -0.7809 -0.9169
  185SLPC  C31821351   6.242   3.924   8.290 -0.0710 -0.4507  0.3081
  185SLPC  H18X21352   6.310   3.900   8.375  2.5353 -1.8367 -1.9734
  185SLPC  H18Y21353   6.272   3.846   8.217 -1.0618  0.8024 -1.5206
  185SLPC  H18Z21354   6.138   3.913   8.326  0.4151 -3.7554  1.0926
  186SLPC     N21355   0.206   6.104   6.154  0.5172  0.3065 -0.0213
  186SLPC   C1321356   0.061   6.067   6.189  0.2247 -0.1634  0.5418
  186SLPC  H13A21357  -0.002   6.104   6.110  0.9736  2.1831  0.9384
  186SLPC  H13B21358   0.048   5.962   6.206  2.5358 -0.5196  0.5130
  186SLPC  H13C21359   0.028   6.122   6.276 -2.0297 -0.2141 -0.2330
  186SLPC   C1421360   0.232   6.045   6.024  0.2549  0.1535 -0.2460
  186SLPC  H14A21361   0.339   6.042   6.011  0.0999 -0.5840 -1.5424
  186SLPC  H14B21362   0.205   5.940   6.025  2.6827 -0.5348 -0.4309
  186SLPC  H14C21363   0.188   6.100   5.942 -0.5854 -1.4605 -0.9291
  186SLPC   C1521364   0.290   6.036   6.264 -0.7656  0.2193  0.6043
  186SLPC  H15A21365   0.271   5.930   6.257  0.9422 -0.0153 -1.5481
  186SLPC  H15B21366   0.394   6.052   6.237 -0.8627 -1.0417 -0.6022
  186SLPC  H15C21367   0.262   6.072   6.363 -0.7201  1.3720  0.2122
  186SLPC   C1221368   0.237   6.254   6.146 -0.3572 -0.2310 -0.1163
  186SLPC  H12A21369   0.175   6.291   6.066  1.3766  1.1274 -0.8812
  186SLPC  H12B21370   0.342   6.256   6.122  0.1322 -1.1746  1.7505
  186SLPC   C1121371   0.219   6.343   6.279 -0.6241 -0.1021 -0.1337
  186SLPC  H11A21372   0.242   6.446   6.245 -2.8826  1.3288  2.2978
  186SLPC  H11B21373   0.286   6.305   6.359 -1.4021 -2.0956 -0.3640
  186SLPC     P21374   0.011   6.479   6.380 -0.3334  0.2888  0.0960
  186SLPC   O1321375   0.000   6.581   6.270 -0.3644 -0.1363  0.0280
  186SLPC   O1421376  -0.111   6.440   6.455 -0.3971  0.5533 -0.3753
  186SLPC   O1221377   0.084   6.345   6.323  0.2681  0.3796 -0.5373
  186SLPC   O1121378   0.108   6.540   6.492 -0.3916  0.3298 -0.5984
  186SLPC    C121379   0.141   6.461   6.610 -0.2988 -0.3042 -1.0070
  186SLPC    HA21380   0.056   6.403   6.651  1.2975  0.0022  3.2305
  186SLPC    HB21381   0.224   6.389   6.595 -1.5317 -2.2217  0.9048
  186SLPC    C221382   0.211   6.554   6.721 -0.5330 -0.1378  0.3082
  186SLPC    HS21383   0.314   6.591   6.701 -0.6297 -1.1333 -2.4046
  186SLPC   O2121384   0.206   6.477   6.850  0.3517 -0.2261 -0.0446
  186SLPC   C2121385   0.304   6.515   6.936 -0.2029 -0.5477  0.2171
  186SLPC   O2221386   0.412   6.567   6.906  0.5038  0.4298 -0.2869
  186SLPC   C2221387   0.267   6.465   7.075  0.0146 -0.1981 -0.3179
  186SLPC   H2R21388   0.157   6.465   7.087  0.0901 -0.3001  0.3892
  186SLPC   H2S21389   0.312   6.364   7.068 -1.4114 -0.7518 -5.0742
  186SLPC    C321390   0.115   6.678   6.739 -0.7776  0.2121 -0.0695
  186SLPC    HX21391   0.016   6.638   6.772 -0.3079  0.3101  1.5321
  186SLPC    HY21392   0.096   6.730   6.643 -0.7054  1.0824  0.3829
  186SLPC   O3121393   0.173   6.767   6.833  0.8773 -0.3864  0.4866
  186SLPC   C3121394   0.087   6.867   6.867 -0.9912  0.6927 -0.1808
  186SLPC   O3221395  -0.029   6.879   6.833  0.1940  0.2616  0.5485
  186SLPC   C3221396   0.159   6.966   6.957 -0.4675  0.8122  0.7459
  186SLPC   H2X21397   0.197   7.054   6.901  2.0746 -2.0570 -2.5329
  186SLPC   H2Y21398   0.242   6.909   7.003 -0.5441 -0.4550 -0.6053
  186SLPC   C2321399   0.320   6.534   7.199  0.5284 -0.1285  0.6322
  186SLPC   H3R21400   0.301   6.643   7.187 -4.3833 -0.7767  0.5479
  186SLPC   H3S21401   0.430   6.520   7.208  0.6812  1.5454  1.8319
  186SLPC   C2421402   0.267   6.476   7.326 -0.2340  0.7586  0.8729
  186SLPC   H4R21403   0.252   6.369   7.298  1.6529  0.3254  1.3589
  186SLPC   H4S21404   0.167   6.515   7.355 -0.0140  0.4836  2.0716
  186SLPC   C2521405   0.362   6.474   7.445  0.7386  0.3633 -0.1013
  186SLPC   H5R21406   0.367   6.578   7.485  1.1112  0.3889 -0.2084
  186SLPC   H5S21407   0.467   6.441   7.432  1.1445  1.4975  0.1405
  186SLPC   C2621408   0.303   6.386   7.558  0.4613 -0.3069 -0.0444
  186SLPC   H6R21409   0.294   6.282   7.519  1.3032 -0.3546 -0.1423
  186SLPC   H6S21410   0.198   6.418   7.572  0.6991  0.4676  0.0026
  186SLPC   C2721411   0.376   6.385   7.693  0.3158  0.5086  0.8245
  186SLPC   H7R21412   0.374   6.480   7.751 -0.7090 -0.4225  2.3847
  186SLPC   H7S21413   0.483   6.369   7.666 -0.0336 -1.1499  0.2923
  186SLPC   C2821414   0.321   6.274   7.795 -0.5666 -0.2746  0.3913
  186SLPC   H8R21415   0.211   6.266   7.800 -0.5105 -0.3546  1.8489
  186SLPC   H8S21416   0.365   6.316   7.887 -0.7491  1.4399 -0.2711
  186SLPC   C2921417   0.383   6.140   7.769  0.2197 -0.0629 -0.3727
  186SLPC   H9R21418   0.380   6.104   7.665 -1.3359 -2.5508  0.4434
  186SLPC  C21021419   0.437   6.053   7.852 -0.0453  0.5774  0.7122
  186SLPC  H10R21420   0.461   5.951   7.820  1.1187  1.1123 -0.1883
  186SLPC  C21121421   0.462   6.071   7.998 -0.1968  0.6904  0.3969
  186SLPC  H11R21422   0.491   6.177   8.015 -1.8300  1.4417 -1.1681
  186SLPC  H11S21423   0.549   6.010   8.029  1.0003  2.0785 -0.0996
  186SLPC  C21221424   0.352   6.044   8.095 -1.1018 -0.3579 -0.0181
  186SLPC  H12R21425   0.256   6.072   8.049 -1.0520 -0.8687 -0.4366
  186SLPC  C21321426   0.357   5.998   8.222 -0.6530 -0.0227  0.0927
  186SLPC  H13R21427   0.260   5.987   8.273 -0.7096  0.3288  0.0643
  186SLPC  C21421428   0.482   5.972   8.310  0.2511  0.6158  0.5030
  186SLPC  H14R21429   0.582   5.993   8.266  2.1808 -0.8708  3.7945
  186SLPC  H14S21430   0.491   5.863   8.330 -1.6578  0.3002 -0.1514
  186SLPC  C21521431   0.481   6.060   8.431 -0.2954  0.0716 -0.2838
  186SLPC  H15R21432   0.436   6.160   8.410 -0.8985 -0.3800 -1.1730
  186SLPC  H15S21433   0.581   6.070   8.477 -1.4896  0.8712  2.3292
  186SLPC  C21621434   0.394   5.993   8.542 -0.2618 -0.0341  0.7299
  186SLPC  H16R21435   0.421   5.885   8.545  3.6005  0.6490 -2.3063
  186SLPC  H16S21436   0.290   6.002   8.502 -1.3747  0.3968  3.4801
  186SLPC  C21721437   0.404   6.058   8.686  0.6300 -0.2595  0.4710
  186SLPC  H17R21438   0.500   6.046   8.740  0.2389  1.2183  1.5826
  186SLPC  H17S21439   0.331   6.007   8.752 -1.8852  1.1443 -1.0763
  186SLPC  C21821440   0.365   6.201   8.685  0.0272 -0.3481  0.7645
  186SLPC  H18R21441   0.378   6.245   8.786 -1.6211  1.7603  0.1290
  186SLPC  H18S21442   0.261   6.219   8.651  0.6169 -0.2220 -1.0785
  186SLPC  H18T21443   0.430   6.266   8.624  0.8885 -1.1362  0.8206
  186SLPC   C3321444   0.063   7.027   7.063  0.0791  0.7454  0.1154
  186SLPC   H3X21445  -0.036   7.038   7.014  0.3462 -1.8100 -1.1794
  186SLPC   H3Y21446   0.103   7.127   7.089 -1.9235  1.3539  1.0253
  186SLPC   C3421447   0.049   6.952   7.195  0.9824 -0.3666  0.7485
  186SLPC   H4X21448  -0.004   6.859   7.167  0.7740  0.1583 -0.7252
  186SLPC   H4Y21449  -0.019   7.013   7.257  1.0927 -0.9253  1.4334
  186SLPC   C3521450   0.177   6.930   7.267  0.1011 -0.1394  0.2046
  186SLPC   H5X21451   0.243   7.018   7.255 -0.6126  0.1405 -2.1448
  186SLPC   H5Y21452   0.234   6.846   7.221  1.8706  0.7194  0.7801
  186SLPC   C3621453   0.153   6.880   7.412  0.6758 -0.5360 -0.1200
  186SLPC   H6X21454   0.091   6.788   7.414  2.6735 -1.9501  1.5980
  186SLPC   H6Y21455   0.099   6.964   7.462  2.2060 -0.4137  1.4262
  186SLPC   C3721456   0.291   6.863   7.483 -0.1674 -0.4100  0.2206
  186SLPC   H7X21457   0.341   6.962   7.483  2.1401 -1.4595  2.4606
  186SLPC   H7Y21458   0.349   6.795   7.416 -0.4715 -0.3485 -0.1083
  186SLPC   C3821459   0.295   6.819   7.627 -0.3710 -0.2636 -0.5166
  186SLPC   H8X21460   0.390   6.763   7.642 -0.7423 -0.5490  0.9770
  186SLPC   H8Y21461   0.213   6.751   7.656  0.6822 -0.5617  2.0686
  186SLPC   C3921462   0.269   6.934   7.729  0.0593 -0.8891  0.0231
  186SLPC   H9X21463   0.177   6.984   7.690  0.0025 -0.8159  0.2477
  186SLPC   H9Y21464   0.352   7.007   7.729 -0.4595 -0.2319  1.7557
  186SLPC  C31021465   0.245   6.877   7.870  0.7095  0.0008 -0.4312
  186SLPC  H10X21466   0.337   6.845   7.925 -0.0453 -2.1305 -0.3187
  186SLPC  H10Y21467   0.203   6.775   7.859  0.8713 -0.2885  1.2790
  186SLPC  C31121468   0.150   6.965   7.955 -0.6188  0.0670 -0.4361
  186SLPC  H11X21469   0.107   6.916   8.045 -0.9883 -0.2205 -0.7654
  186SLPC  H11Y21470   0.062   7.001   7.897 -1.5866 -0.4154  0.6827
  186SLPC  C31221471   0.227   7.093   8.001 -0.4126  0.3492  0.5495
  186SLPC  H12X21472   0.253   7.159   7.916 -1.5843  1.5083  1.0685
  186SLPC  H12Y21473   0.319   7.059   8.054 -0.1351  1.6844  0.9627
  186SLPC  C31321474   0.131   7.171   8.086  0.1502  0.5143 -0.4900
  186SLPC  H13X21475   0.098   7.107   8.171  0.3662 -0.0710 -0.8432
  186SLPC  H13Y21476   0.049   7.211   8.022 -0.3243 -0.8264 -0.7551
  186SLPC  C31421477   0.204   7.296   8.144 -0.5537  0.7009 -1.2695
  186SLPC  H14X21478   0.250   7.358   8.064  0.8087  1.8380  0.3208
  186SLPC  H14Y21479   0.287   7.247   8.200 -1.0613  0.0915 -1.0277
  186SLPC  C31521480   0.115   7.376   8.237 -0.2716  0.0390  0.1258
  186SLPC  H15X21481   0.067   7.312   8.313 -2.9616  1.3852 -0.2943
  186SLPC  H15Y21482   0.035   7.418   8.172 -1.4006  0.4160  1.6999
  186SLPC  C31621483   0.186   7.488   8.314  0.7578  0.2922 -0.2936
  186SLPC  H16X21484   0.231   7.547   8.231  1.0516 -0.6838 -0.8564
  186SLPC  H16Y21485   0.269   7.454   8.378 -0.2417  1.6115  1.7930
  186SLPC  C31721486   0.096   7.574   8.402  0.6622 -0.2418  0.4329
  186SLPC  H17X21487   0.043   7.508   8.474  0.7173  0.9118  1.5612
  186SLPC  H17Y21488   0.020   7.628   8.343  0.9261  0.2344  0.5206
  186SLPC  C31821489   0.171   7.671   8.485  0.3535 -0.0050 -0.9642
  186SLPC  H18X21490   0.189   7.762   8.424 -0.2124 -0.0640 -1.2194
  186SLPC  H18Y21491   0.266   7.629   8.524 -0.5743 -1.1935  0.1105
  186SLPC  H18Z21492   0.114   7.692   8.578  2.5308 -0.4769  0.5415
  187SLPC     N21493   2.162   5.018   6.302  0.2160  0.1930  0.6266
  187SLPC   C1321494   2.254   5.117   6.232  0.1747  0.4148 -0.0304
  187SLPC  H13A21495   2.311   5.062   6.158  1.3120  2.2611 -0.5940
  187SLPC  H13B21496   2.199   5.187   6.171  0.1798  0.3084 -0.1577
  187SLPC  H13C21497   2.308   5.179   6.302  0.0458  0.7110 -0.1904
  187SLPC   C1421498   2.080   4.937   6.201 -0.7788  0.1855 -0.1457
  187SLPC  H14A21499   2.135   4.896   6.117  1.9415  1.2800  0.9921
  187SLPC  H14B21500   2.035   4.851   6.248 -2.7797  0.6062 -1.1869
  187SLPC  H14C21501   2.008   5.001   6.153  0.9292  1.7901 -0.7040
  187SLPC   C1521502   2.067   5.094   6.393 -0.3444  0.4459 -0.1059
  187SLPC  H15A21503   2.011   5.168   6.337 -0.0286  0.2842 -0.6319
  187SLPC  H15B21504   2.009   5.017   6.442  1.3446 -0.7803  0.0545
  187SLPC  H15C21505   2.121   5.151   6.467  0.6942  0.3223 -0.7493
  187SLPC   C1221506   2.247   4.933   6.405  0.0138 -0.1842 -0.2374
  187SLPC  H12A21507   2.301   5.005   6.465 -1.7306  0.7593  0.2637
  187SLPC  H12B21508   2.315   4.875   6.345  1.2428  0.7609  0.1936
  187SLPC   C1121509   2.167   4.857   6.506  0.4607  0.7905 -0.2078
  187SLPC  H11A21510   2.113   4.923   6.577 -2.3683 -1.2905 -0.2409
  187SLPC  H11B21511   2.232   4.792   6.569 -1.2610 -1.9950 -1.1550
  187SLPC     P21512   2.116   4.622   6.405 -0.0102  0.2721 -0.2039
  187SLPC   O1321513   2.005   4.546   6.341 -0.0168  0.2514  0.2467
  187SLPC   O1421514   2.245   4.628   6.333  0.3724 -0.6134 -0.2193
  187SLPC   O1221515   2.076   4.774   6.440  0.3791  0.5488  0.1704
  187SLPC   O1121516   2.145   4.568   6.545 -0.4156 -0.4489 -0.1442
  187SLPC    C121517   2.044   4.533   6.636 -0.0769 -0.0183 -0.2168
  187SLPC    HA21518   2.008   4.628   6.683 -1.3637  0.5642 -2.2693
  187SLPC    HB21519   1.953   4.497   6.584  0.5414 -1.0210 -0.6139
  187SLPC    C221520   2.089   4.431   6.748  0.5727  0.0439 -0.5954
  187SLPC    HS21521   1.996   4.429   6.809  0.6940  1.5080 -0.3291
  187SLPC   O2121522   2.196   4.482   6.825  0.0165 -0.2943 -0.3209
  187SLPC   C2121523   2.160   4.572   6.913 -0.1862 -0.5026 -0.1802
  187SLPC   O2221524   2.043   4.618   6.928 -0.5873 -0.1349  0.4767
  187SLPC   C2221525   2.282   4.628   6.979 -0.4652  0.2880 -0.4216
  187SLPC   H2R21526   2.353   4.656   6.898 -0.2373  1.6903  0.2468
  187SLPC   H2S21527   2.252   4.718   7.036 -1.2807 -1.6250  2.4259
  187SLPC    C321528   2.123   4.291   6.690  0.3857 -0.1974 -0.1566
  187SLPC    HX21529   2.200   4.307   6.612 -0.9179 -2.7716 -2.1284
  187SLPC    HY21530   2.029   4.257   6.641 -1.0467  3.9868 -0.7480
  187SLPC   O3121531   2.178   4.196   6.780  0.3528 -0.1256 -0.4746
  187SLPC   C3121532   2.104   4.164   6.877  0.4348  0.3206 -0.3461
  187SLPC   O3221533   1.989   4.193   6.894  0.4899  0.4796  0.0386
  187SLPC   C3221534   2.175   4.061   6.968 -0.1808 -0.5604  0.0357
  187SLPC   H2X21535   2.261   4.031   6.904  2.4890  3.2574  1.4550
  187SLPC   H2Y21536   2.107   3.978   6.998  0.1843 -1.6843 -2.0259
  187SLPC   C2321537   2.352   4.531   7.079 -0.6561 -0.8290 -0.5708
  187SLPC   H3R21538   2.458   4.557   7.098 -1.3213  1.1917  0.6909
  187SLPC   H3S21539   2.368   4.433   7.029  2.3026  0.0269 -1.4537
  187SLPC   C2421540   2.273   4.519   7.216 -0.3025  0.2012 -0.4158
  187SLPC   H4R21541   2.298   4.436   7.286 -0.6915 -1.3259 -1.9991
  187SLPC   H4S21542   2.171   4.490   7.182  0.3851 -0.7086 -1.8457
  187SLPC   C2521543   2.283   4.651   7.293 -0.6168  0.5215 -0.3960
  187SLPC   H5R21544   2.262   4.738   7.228  1.0019 -0.2254 -2.0075
  187SLPC   H5S21545   2.390   4.658   7.321 -0.1920 -1.2819 -1.3791
  187SLPC   C2621546   2.201   4.655   7.422 -0.1485  0.2353  0.2747
  187SLPC   H6R21547   2.209   4.560   7.479  2.1705  0.0900 -0.1866
  187SLPC   H6S21548   2.098   4.644   7.382  0.0736 -3.3001  0.3558
  187SLPC   C2721549   2.237   4.768   7.520  0.0141 -0.3629 -0.3975
  187SLPC   H7R21550   2.236   4.868   7.472 -0.5393 -0.0870  0.1878
  187SLPC   H7S21551   2.334   4.732   7.562 -0.7708 -1.0586  0.8612
  187SLPC   C2821552   2.134   4.777   7.631  0.1277 -0.5132 -0.0143
  187SLPC   H8R21553   2.178   4.804   7.730 -0.4154  1.7293 -0.3528
  187SLPC   H8S21554   2.093   4.673   7.632  0.0309 -0.4739  0.6532
  187SLPC   C2921555   2.033   4.876   7.601  0.0504 -0.0247 -0.5037
  187SLPC   H9R21556   2.050   4.940   7.514 -2.9979 -0.5021 -1.5504
  187SLPC  C21021557   1.911   4.893   7.668 -0.4816  0.2763  0.0951
  187SLPC  H10R21558   1.838   4.958   7.618 -0.0055  0.9066  0.2130
  187SLPC  C21121559   1.880   4.818   7.799 -0.7379 -0.3952  0.1722
  187SLPC  H11R21560   1.941   4.727   7.815 -0.7523 -0.0751  2.3213
  187SLPC  H11S21561   1.775   4.781   7.796 -1.6896  1.6299  3.6935
  187SLPC  C21221562   1.897   4.903   7.921 -0.4860 -0.8628 -0.6296
  187SLPC  H12R21563   1.979   4.977   7.915 -0.7860 -0.4366  0.4309
  187SLPC  C21321564   1.835   4.882   8.045  0.2476 -0.2746 -0.0532
  187SLPC  H13R21565   1.858   4.954   8.126  0.1879  0.6037 -0.8033
  187SLPC  C21421566   1.738   4.777   8.086 -0.3015  0.3715 -0.6445
  187SLPC  H14R21567   1.673   4.725   8.012 -1.1245  0.1873  0.1977
  187SLPC  H14S21568   1.667   4.831   8.152 -1.8683  0.5138 -2.3623
  187SLPC  C21521569   1.808   4.663   8.175  0.2299  0.8975  0.7831
  187SLPC  H15R21570   1.912   4.646   8.139  0.3386 -0.7037  1.7609
  187SLPC  H15S21571   1.750   4.570   8.159  0.0045  1.2496 -0.5093
  187SLPC  C21621572   1.809   4.691   8.321 -0.1935  0.1297 -0.7696
  187SLPC  H16R21573   1.713   4.745   8.339 -0.3653 -0.3665 -0.1283
  187SLPC  H16S21574   1.896   4.751   8.353  0.4420 -0.9531 -0.4100
  187SLPC  C21721575   1.834   4.557   8.394 -0.0889  0.3166  0.0933
  187SLPC  H17R21576   1.914   4.505   8.336 -0.3227 -0.0033  0.0531
  187SLPC  H17S21577   1.750   4.485   8.385  0.2875 -0.2186  0.7092
  187SLPC  C21821578   1.877   4.554   8.540 -0.6295 -0.0533 -0.0663
  187SLPC  H18R21579   1.803   4.608   8.603  0.4218 -0.0386  1.1693
  187SLPC  H18S21580   1.977   4.600   8.552 -0.0858 -0.9459 -1.0133
  187SLPC  H18T21581   1.887   4.450   8.577  2.6631  0.1638 -0.0663
  187SLPC   C3321582   2.226   4.131   7.101 -0.0899  0.1655 -0.1310
  187SLPC   H3X21583   2.282   4.222   7.070 -0.4295  0.5974  0.4801
  187SLPC   H3Y21584   2.299   4.062   7.149 -1.4455  0.0833  1.9633
  187SLPC   C3421585   2.117   4.159   7.206  0.2058 -0.0204 -0.1194
  187SLPC   H4X21586   2.028   4.093   7.194  1.3903 -1.5601 -0.8272
  187SLPC   H4Y21587   2.083   4.262   7.183  0.5453 -0.0578 -0.8111
  187SLPC   C3521588   2.164   4.154   7.352 -0.2210  0.6419  0.9355
  187SLPC   H5X21589   2.226   4.243   7.375  0.6564  0.3523 -0.2236
  187SLPC   H5Y21590   2.246   4.079   7.362  0.5696  1.0721 -1.6480
  187SLPC   C3621591   2.049   4.107   7.450 -0.4034 -0.3812  0.3533
  187SLPC   H6X21592   2.098   4.086   7.547  2.0250 -0.6092 -0.8345
  187SLPC   H6Y21593   2.016   4.009   7.409 -1.4498  1.0806 -2.5656
  187SLPC   C3721594   1.934   4.205   7.477  0.1109 -0.0429  0.6035
  187SLPC   H7X21595   1.870   4.200   7.386 -0.8321 -0.1649  1.2553
  187SLPC   H7Y21596   1.877   4.159   7.561  1.2956 -2.3783  0.2007
  187SLPC   C3821597   1.994   4.344   7.520  0.1320  0.9119  0.1618
  187SLPC   H8X21598   2.073   4.393   7.459 -0.3561  3.9888  1.8039
  187SLPC   H8Y21599   2.041   4.317   7.616  1.6066 -2.1648 -1.2829
  187SLPC   C3921600   1.878   4.440   7.552  0.1800  0.5177  0.2075
  187SLPC   H9X21601   1.824   4.452   7.456  0.1553 -0.5802  0.0779
  187SLPC   H9Y21602   1.914   4.543   7.574  1.3559  0.4703 -1.3248
  187SLPC  C31021603   1.772   4.403   7.664 -0.1897 -1.2233 -0.0576
  187SLPC  H10X21604   1.835   4.388   7.754 -0.7910  0.9982  0.7893
  187SLPC  H10Y21605   1.726   4.307   7.634 -0.3772 -0.1076 -3.8182
  187SLPC  C31121606   1.664   4.510   7.696  0.0435 -0.2713  0.2719
  187SLPC  H11X21607   1.580   4.490   7.626  0.0561 -0.3685  0.2841
  187SLPC  H11Y21608   1.712   4.608   7.675  0.6478  0.3648  3.9287
  187SLPC  C31221609   1.630   4.506   7.845 -0.0742 -0.8253  0.9115
  187SLPC  H12X21610   1.566   4.594   7.870  2.5732  0.9650  1.8001
  187SLPC  H12Y21611   1.728   4.528   7.893 -0.3299  2.3870  0.1910
  187SLPC  C31321612   1.559   4.379   7.902 -0.4185 -0.6311  0.4829
  187SLPC  H13X21613   1.625   4.292   7.883 -1.8810 -1.5689 -0.4370
  187SLPC  H13Y21614   1.460   4.373   7.852 -0.5402  1.0114  0.4726
  187SLPC  C31421615   1.528   4.391   8.057  0.1423  0.3055  1.1826
  187SLPC  H14X21616   1.459   4.478   8.059 -2.8621 -1.8593 -0.5659
  187SLPC  H14Y21617   1.618   4.406   8.121  1.0995 -0.4561  0.0427
  187SLPC  C31521618   1.449   4.263   8.103 -0.2160 -0.3448 -0.2654
  187SLPC  H15X21619   1.510   4.171   8.094 -1.1901 -1.4029  2.7730
  187SLPC  H15Y21620   1.355   4.266   8.044  0.7551 -2.1074 -2.0765
  187SLPC  C31621621   1.423   4.257   8.255  0.5008 -0.3364  0.3897
  187SLPC  H16X21622   1.342   4.186   8.282 -0.7243  0.8558 -0.0229
  187SLPC  H16Y21623   1.376   4.355   8.278 -2.0098 -0.4184 -3.3812
  187SLPC  C31721624   1.546   4.230   8.346 -1.1487 -0.3546  0.5609
  187SLPC  H17X21625   1.616   4.315   8.328 -0.9896 -1.0263 -2.5492
  187SLPC  H17Y21626   1.595   4.137   8.311  0.2741  1.1585 -1.7372
  187SLPC  C31821627   1.514   4.223   8.495 -0.1377  0.4712 -0.4806
  187SLPC  H18X21628   1.475   4.313   8.546  0.2753 -0.7461  2.1793
  187SLPC  H18Y21629   1.607   4.198   8.552 -1.0193  1.5387  1.5210
  187SLPC  H18Z21630   1.447   4.135   8.507  0.9973 -0.5450 -1.3662
  188SLPC     N21631   0.803   5.544   5.957  0.1162 -0.4239  0.4079
  188SLPC   C1321632   0.715   5.637   5.879 -0.2302  0.3331  0.1399
  188SLPC  H13A21633   0.627   5.664   5.937  0.9076  1.6359  1.3215
  188SLPC  H13B21634   0.772   5.726   5.860 -0.5352  0.4045 -0.4946
  188SLPC  H13C21635   0.682   5.598   5.783 -0.1742 -0.2977  0.3695
  188SLPC   C1421636   0.941   5.536   5.888 -0.0239 -0.6877 -0.0574
  188SLPC  H14A21637   0.998   5.626   5.903 -1.2958  0.2827 -0.8574
  188SLPC  H14B21638   1.012   5.464   5.927  0.5122 -0.8012 -1.2120
  188SLPC  H14C21639   0.931   5.516   5.783 -1.5149 -1.3271  0.1747
  188SLPC   C1521640   0.735   5.406   5.963 -0.0358  0.3240 -0.2120
  188SLPC  H15A21641   0.790   5.334   6.023  0.2282 -0.8455 -1.7848
  188SLPC  H15B21642   0.640   5.408   6.014  0.3578  0.1846  0.5548
  188SLPC  H15C21643   0.725   5.355   5.868  1.0022 -0.4709  0.0834
  188SLPC   C1221644   0.820   5.592   6.099 -0.4537 -0.7506 -0.3784
  188SLPC  H12A21645   0.722   5.622   6.133 -0.5651  0.7607 -1.9013
  188SLPC  H12B21646   0.870   5.688   6.099 -0.0391 -0.9514  0.5994
  188SLPC   C1121647   0.898   5.503   6.199  0.6045 -1.1096 -0.4838
  188SLPC  H11A21648   0.933   5.576   6.274 -1.2118  0.1223 -0.7645
  188SLPC  H11B21649   0.983   5.462   6.140  1.4815  0.2370 -0.1898
  188SLPC     P21650   0.698   5.439   6.355  0.4667 -0.1126  0.3164
  188SLPC   O1321651   0.634   5.563   6.308  0.4294  0.0647  0.7071
  188SLPC   O1421652   0.607   5.322   6.354 -0.3764 -0.5916  0.1580
  188SLPC   O1221653   0.814   5.410   6.255  0.4204  0.6392  0.1836
  188SLPC   O1121654   0.772   5.463   6.500 -0.0979  0.4137  0.5339
  188SLPC    C121655   0.899   5.403   6.529  0.1837 -0.3376  0.7169
  188SLPC    HA21656   0.927   5.314   6.468  0.2914  1.3803 -1.9208
  188SLPC    HB21657   0.981   5.476   6.510 -0.4509 -0.2356 -2.0539
  188SLPC    C221658   0.915   5.374   6.677 -0.1561 -0.2475 -0.0491
  188SLPC    HS21659   0.855   5.292   6.722  0.5073  0.0316  1.3909
  188SLPC   O2121660   0.885   5.493   6.748  0.1394 -0.3951  0.1912
  188SLPC   C2121661   0.764   5.504   6.798 -0.0736  0.6486 -0.6741
  188SLPC   O2221662   0.672   5.427   6.783  0.0847  0.3128  0.1421
  188SLPC   C2221663   0.766   5.620   6.889 -0.1136 -0.3050 -1.2326
  188SLPC   H2R21664   0.801   5.577   6.984 -0.2021  0.5753 -0.7870
  188SLPC   H2S21665   0.842   5.699   6.871  0.1531  0.1306  1.4824
  188SLPC    C321666   1.064   5.332   6.714 -0.3613 -0.6276  0.0271
  188SLPC    HX21667   1.139   5.411   6.696  0.5910 -1.8468 -1.6824
  188SLPC    HY21668   1.108   5.251   6.651  1.0796 -1.3173  1.8319
  188SLPC   O3121669   1.078   5.275   6.850  0.0850 -0.2717 -0.2031
  188SLPC   C3121670   1.198   5.228   6.883  1.1385 -0.0962  0.2416
  188SLPC   O3221671   1.291   5.219   6.807 -0.7442  0.1254  0.2454
  188SLPC   C3221672   1.203   5.186   7.027  0.1291  0.1240 -0.2727
  188SLPC   H2X21673   1.189   5.076   7.029 -1.1894  0.2951  1.1986
  188SLPC   H2Y21674   1.125   5.249   7.075  0.7571 -1.3493  3.0016
  188SLPC   C2321675   0.627   5.677   6.922  0.1663 -0.5598 -0.3102
  188SLPC   H3R21676   0.551   5.600   6.943 -1.1247  0.7402 -0.0635
  188SLPC   H3S21677   0.587   5.736   6.837 -1.4880 -1.8321 -0.4544
  188SLPC   C2421678   0.644   5.772   7.043  0.2090 -0.0104  0.5574
  188SLPC   H4R21679   0.567   5.852   7.034  1.8504  1.5291 -0.6097
  188SLPC   H4S21680   0.745   5.815   7.059  0.7135 -1.9014  3.0370
  188SLPC   C2521681   0.621   5.687   7.169  0.4256  0.1949  0.5093
  188SLPC   H5R21682   0.712   5.623   7.168  0.8321  0.7573 -0.3750
  188SLPC   H5S21683   0.531   5.624   7.152 -0.0230  0.9977 -0.1681
  188SLPC   C2621684   0.611   5.769   7.294 -0.0286  0.0556 -0.1359
  188SLPC   H6R21685   0.684   5.851   7.282 -0.2615  0.5542  1.5188
  188SLPC   H6S21686   0.645   5.711   7.383  1.8977  1.3915  0.0520
  188SLPC   C2721687   0.469   5.824   7.330 -0.8063  0.2219  0.0684
  188SLPC   H7R21688   0.403   5.734   7.326 -1.0169  0.3750 -3.9777
  188SLPC   H7S21689   0.443   5.889   7.243  0.2042  0.4473 -0.0731
  188SLPC   C2821690   0.456   5.891   7.469  0.7158  0.3541  0.1384
  188SLPC   H8R21691   0.513   5.986   7.465  0.9686  0.2768  1.5173
  188SLPC   H8S21692   0.497   5.822   7.545  1.3287 -1.2396 -1.5674
  188SLPC   C2921693   0.306   5.909   7.498 -0.8824  0.0294 -0.1014
  188SLPC   H9R21694   0.257   5.982   7.432  0.7402  1.0102 -0.2590
  188SLPC  C21021695   0.232   5.855   7.597  0.2566 -0.5207 -0.3563
  188SLPC  H10R21696   0.125   5.879   7.602 -0.1151 -0.6227 -4.4743
  188SLPC  C21121697   0.280   5.764   7.706 -0.0223 -0.1814  0.2784
  188SLPC  H11R21698   0.307   5.819   7.799 -2.2280 -0.8218  1.3699
  188SLPC  H11S21699   0.365   5.709   7.662 -2.2048 -1.2792 -2.9232
  188SLPC  C21221700   0.178   5.664   7.758 -0.9335  0.3313  0.6310
  188SLPC  H12R21701   0.174   5.569   7.703  1.1219  1.3051 -1.3545
  188SLPC  C21321702   0.087   5.681   7.855 -0.0698  0.0408 -0.5941
  188SLPC  H13R21703   0.016   5.597   7.865 -1.3417  1.1212 -0.3745
  188SLPC  C21421704   0.060   5.797   7.946  0.1177 -0.6011  0.0557
  188SLPC  H14R21705  -0.046   5.832   7.939  0.6660  1.3862  1.2624
  188SLPC  H14S21706   0.128   5.880   7.920 -0.8727  0.5062  0.8961
  188SLPC  C21521707   0.109   5.779   8.090 -0.8285  0.1014  0.1787
  188SLPC  H15R21708   0.076   5.870   8.145 -0.6972  1.1106 -1.3551
  188SLPC  H15S21709   0.219   5.781   8.077 -0.6348 -0.9711  1.3875
  188SLPC  C21621710   0.055   5.652   8.165  0.0145 -0.1194 -0.6644
  188SLPC  H16R21711   0.132   5.571   8.157  0.0913 -0.0045 -1.1531
  188SLPC  H16S21712  -0.038   5.618   8.116 -1.9428  0.0135  2.7140
  188SLPC  C21721713   0.033   5.677   8.321 -0.4462 -0.0693  0.0799
  188SLPC  H17R21714   0.012   5.581   8.371 -2.5163 -0.3865 -1.2859
  188SLPC  H17S21715  -0.053   5.747   8.331 -1.5822 -0.8437 -3.0855
  188SLPC  C21821716   0.166   5.738   8.378 -0.7139  0.5456 -0.1090
  188SLPC  H18R21717   0.252   5.679   8.339 -0.2300 -0.3526  2.1289
  188SLPC  H18S21718   0.159   5.724   8.488  2.0596 -0.4939  0.0035
  188SLPC  H18T21719   0.170   5.848   8.366 -1.5502  0.6131  0.1110
  188SLPC   C3321720   1.331   5.225   7.104 -0.4593 -0.1408 -0.0633
  188SLPC   H3X21721   1.339   5.334   7.083 -1.0431 -0.5180 -2.5176
  188SLPC   H3Y21722   1.420   5.183   7.053 -0.7007 -3.7813  2.1798
  188SLPC   C3421723   1.327   5.191   7.257  0.5898  0.6429  0.3889
  188SLPC   H4X21724   1.431   5.188   7.297  0.6097 -2.1510  0.3440
  188SLPC   H4Y21725   1.292   5.086   7.267  1.1462  0.5072  1.0133
  188SLPC   C3521726   1.240   5.280   7.332  0.0542  0.5569 -0.4278
  188SLPC   H5X21727   1.133   5.284   7.303 -0.5705  2.2829  1.8629
  188SLPC   H5Y21728   1.274   5.384   7.317  1.6065  0.1927  0.3135
  188SLPC   C3621729   1.249   5.262   7.485  0.3804 -0.2034  0.1649
  188SLPC   H6X21730   1.358   5.266   7.510  0.9525  1.7046 -2.2037
  188SLPC   H6Y21731   1.204   5.163   7.507 -0.0482  0.2564  1.4535
  188SLPC   C3721732   1.177   5.373   7.562  0.2278  0.0815  0.4921
  188SLPC   H7X21733   1.082   5.403   7.513  1.7716  3.1763 -0.8623
  188SLPC   H7Y21734   1.241   5.460   7.539  2.8054 -1.1359  2.5103
  188SLPC   C3821735   1.160   5.335   7.711  0.2107  0.1648  0.3233
  188SLPC   H8X21736   1.263   5.299   7.732 -0.0425 -0.8644 -0.1756
  188SLPC   H8Y21737   1.086   5.253   7.717 -1.3143  1.3067 -1.6219
  188SLPC   C3921738   1.119   5.436   7.811 -0.4873  0.2611 -0.1071
  188SLPC   H9X21739   1.101   5.380   7.905  0.9921  2.0869  1.3596
  188SLPC   H9Y21740   1.026   5.493   7.788 -0.5467  0.1792 -0.0687
  188SLPC  C31021741   1.232   5.541   7.832  0.4055 -0.1421 -0.1345
  188SLPC  H10X21742   1.200   5.601   7.920 -0.9632 -0.0145 -0.6879
  188SLPC  H10Y21743   1.234   5.603   7.740 -0.2614  1.5986  0.9781
  188SLPC  C31121744   1.373   5.485   7.845 -0.2767  0.0166  0.1322
  188SLPC  H11X21745   1.405   5.431   7.754 -1.4134  0.3721 -0.5025
  188SLPC  H11Y21746   1.351   5.411   7.925  0.7640 -2.3660 -1.6571
  188SLPC  C31221747   1.461   5.601   7.894 -0.0171  0.0266 -0.2741
  188SLPC  H12X21748   1.440   5.696   7.840 -1.7586  0.4873  1.1041
  188SLPC  H12Y21749   1.564   5.573   7.862 -0.0678  1.5066 -1.8965
  188SLPC  C31321750   1.461   5.621   8.046  0.0413 -0.4020  0.5475
  188SLPC  H13X21751   1.444   5.522   8.093  1.6532 -1.6455 -1.3431
  188SLPC  H13Y21752   1.368   5.677   8.070  0.1592  0.8529 -1.6705
  188SLPC  C31421753   1.590   5.691   8.107  0.7685 -0.2403 -0.1279
  188SLPC  H14X21754   1.606   5.797   8.078 -2.3906  0.0595 -1.1813
  188SLPC  H14Y21755   1.677   5.631   8.071  0.4011 -1.1796  0.5054
  188SLPC  C31521756   1.584   5.686   8.257  0.2808 -0.1268  0.2060
  188SLPC  H15X21757   1.675   5.735   8.299  1.6980 -1.1972 -1.4481
  188SLPC  H15Y21758   1.593   5.579   8.285  3.0184 -0.5104 -1.7381
  188SLPC  C31621759   1.467   5.747   8.337 -0.6284  0.2882  0.5974
  188SLPC  H16X21760   1.381   5.680   8.317 -0.5788 -0.2129  1.9484
  188SLPC  H16Y21761   1.442   5.851   8.310 -0.1995  0.4474  0.8073
  188SLPC  C31721762   1.493   5.748   8.488  0.2663  0.1222 -0.1597
  188SLPC  H17X21763   1.491   5.651   8.542 -0.0945 -0.0509 -0.4799
  188SLPC  H17Y21764   1.394   5.782   8.524  1.0232  2.2166  0.0856
  188SLPC  C31821765   1.605   5.839   8.537 -0.6912  0.1708 -0.5088
  188SLPC  H18X21766   1.707   5.815   8.498 -0.4903 -1.2032  0.7913
  188SLPC  H18Y21767   1.618   5.825   8.646 -0.3534 -1.7037 -0.7685
  188SLPC  H18Z21768   1.583   5.946   8.517 -3.5224  0.0193  1.2709
  189SLPC     N21769   3.660   0.565   6.192 -0.3858 -0.2055 -0.4475
  189SLPC   C1321770   3.702   0.690   6.263  0.1941  0.8919 -0.6052
  189SLPC  H13A21771   3.786   0.746   6.225  1.9506  0.2455  2.0225
  189SLPC  H13B21772   3.614   0.752   6.273 -1.0557 -0.9240  0.4232
  189SLPC  H13C21773   3.729   0.664   6.365 -2.1482  1.3053  0.1889
  189SLPC   C1421774   3.768   0.461   6.211 -0.5021 -0.2186  0.0167
  189SLPC  H14A21775   3.854   0.494   6.154 -2.4976  1.2755 -2.3344
  189SLPC  H14B21776   3.794   0.441   6.314  3.3523  0.4387 -0.6723
  189SLPC  H14C21777   3.727   0.367   6.177 -1.4083 -0.2701  1.1726
  189SLPC   C1521778   3.641   0.594   6.046  0.4887  0.0670 -0.3006
  189SLPC  H15A21779   3.733   0.611   5.993  1.2271 -0.8235  0.6657
  189SLPC  H15B21780   3.595   0.505   6.006  2.3163 -1.5093  0.9295
  189SLPC  H15C21781   3.576   0.678   6.025 -0.0555 -0.1912  0.3203
  189SLPC   C1221782   3.536   0.505   6.255  0.5537  0.1139  0.3194
  189SLPC  H12A21783   3.472   0.584   6.292  1.4336  0.8033  0.3822
  189SLPC  H12B21784   3.562   0.453   6.346 -1.7873  0.7496  1.4410
  189SLPC   C1121785   3.442   0.418   6.161  0.4203 -0.5047 -0.6585
  189SLPC  H11A21786   3.387   0.484   6.090 -1.4244  0.5887  1.6593
  189SLPC  H11B21787   3.356   0.380   6.220  1.4565 -1.8999  0.0033
  189SLPC     P21788   3.534   0.165   6.151  0.2729  0.4649  0.1737
  189SLPC   O1321789   3.456   0.073   6.064 -0.5203 -0.2025  0.0156
  189SLPC   O1421790   3.681   0.143   6.162 -0.0547  0.7189  0.2623
  189SLPC   O1221791   3.506   0.310   6.097  0.0069 -0.0965 -0.2142
  189SLPC   O1121792   3.460   0.172   6.293 -0.0255 -0.1499  0.0998
  189SLPC    C121793   3.535   0.194   6.410  0.0077  0.8124  0.2245
  189SLPC    HA21794   3.596   0.287   6.404 -0.6349  1.1623 -1.3544
  189SLPC    HB21795   3.467   0.220   6.493  1.7573  2.6051  1.1818
  189SLPC    C221796   3.613   0.070   6.456  0.4956 -0.4264 -0.0160
  189SLPC    HS21797   3.673   0.036   6.369 -2.6955 -1.1731 -2.0854
  189SLPC   O2121798   3.521  -0.034   6.494  0.0635 -0.4392  0.2241
  189SLPC   C2121799   3.539  -0.159   6.453 -0.1565 -0.1413 -0.0167
  189SLPC   O2221800   3.637  -0.207   6.399 -0.2492  0.6905 -0.0279
  189SLPC   C2221801   3.419  -0.233   6.499 -0.7522  0.3994  0.4058
  189SLPC   H2R21802   3.328  -0.188   6.454  1.0848  2.0129 -1.9757
  189SLPC   H2S21803   3.430  -0.337   6.462 -0.7206  1.6559 -3.5659
  189SLPC    C321804   3.708   0.092   6.576 -0.3304 -0.3424 -0.2121
  189SLPC    HX21805   3.791   0.159   6.545  1.3831 -1.5843  1.5457
  189SLPC    HY21806   3.759  -0.003   6.599 -0.2443  0.0100  1.1390
  189SLPC   O3121807   3.647   0.126   6.703  0.3292 -0.5094  0.1222
  189SLPC   C3121808   3.686   0.237   6.762  0.7065 -0.4597  1.1195
  189SLPC   O3221809   3.786   0.301   6.726  0.4056 -0.6116 -0.5329
  189SLPC   C3221810   3.595   0.279   6.872 -0.0493  0.3759 -0.3962
  189SLPC   H2X21811   3.504   0.214   6.877 -0.3075  0.8085  1.4534
  189SLPC   H2Y21812   3.561   0.384   6.861 -1.2342  0.0423 -0.0947
  189SLPC   C2321813   3.398  -0.233   6.662  0.4404 -0.2953  0.5065
  189SLPC   H3R21814   3.297  -0.279   6.664  0.7880 -1.2289 -1.1457
  189SLPC   H3S21815   3.399  -0.130   6.704  1.4564  0.7996 -2.0240
  189SLPC   C2421816   3.505  -0.317   6.737  0.1063  0.1773 -0.2214
  189SLPC   H4R21817   3.593  -0.252   6.753 -0.6592  1.4758 -1.1273
  189SLPC   H4S21818   3.530  -0.408   6.678  0.3926  0.8716 -1.1954
  189SLPC   C2521819   3.457  -0.347   6.881 -0.5217  0.0982 -0.1247
  189SLPC   H5R21820   3.374  -0.421   6.875 -0.0851 -0.6286  1.8811
  189SLPC   H5S21821   3.435  -0.254   6.938 -1.4606 -1.2990  1.9312
  189SLPC   C2621822   3.560  -0.433   6.957  0.6134  0.0186  0.3397
  189SLPC   H6R21823   3.650  -0.367   6.957 -0.2330  1.2198 -0.0794
  189SLPC   H6S21824   3.576  -0.528   6.901  1.2855 -0.4082  1.2327
  189SLPC   C2721825   3.527  -0.461   7.100 -0.2014  0.0904 -0.9470
  189SLPC   H7R21826   3.483  -0.563   7.101  0.6561 -0.2880 -0.9492
  189SLPC   H7S21827   3.445  -0.390   7.123 -0.1648  0.2539 -1.3146
  189SLPC   C2821828   3.642  -0.447   7.205 -0.4834 -0.4183 -0.3994
  189SLPC   H8R21829   3.602  -0.437   7.307  3.3458  0.3574  1.2088
  189SLPC   H8S21830   3.685  -0.346   7.185 -2.5937  0.4576 -0.7740
  189SLPC   C2921831   3.756  -0.543   7.179 -0.3112 -0.2413 -0.4823
  189SLPC   H9R21832   3.781  -0.566   7.075  0.2093 -1.4872 -0.0921
  189SLPC  C21021833   3.833  -0.597   7.276  1.1414  0.5085  0.3641
  189SLPC  H10R21834   3.913  -0.669   7.250 -0.8489 -1.6141 -0.1558
  189SLPC  C21121835   3.830  -0.584   7.427 -0.0062  0.3020 -0.3127
  189SLPC  H11R21836   3.765  -0.499   7.459  0.4831  0.6028 -0.0980
  189SLPC  H11S21837   3.936  -0.572   7.458 -0.8039  0.6339  2.6050
  189SLPC  C21221838   3.770  -0.702   7.489  0.2893  0.0795 -0.8168
  189SLPC  H12R21839   3.681  -0.739   7.436  0.6768 -1.4962 -0.4396
  189SLPC  C21321840   3.795  -0.743   7.612  0.0343  0.2241 -0.7174
  189SLPC  H13R21841   3.740  -0.824   7.662 -2.0363  1.5209 -0.7717
  189SLPC  C21421842   3.906  -0.691   7.705  0.0302  0.0669 -0.0710
  189SLPC  H14R21843   3.869  -0.609   7.770 -0.7169 -1.3008  1.2738
  189SLPC  H14S21844   3.997  -0.655   7.652  0.2279 -1.1597 -0.6075
  189SLPC  C21521845   3.974  -0.798   7.803  0.1055 -0.3776  0.5942
  189SLPC  H15R21846   4.006  -0.892   7.753  3.2188  0.0155  1.5851
  189SLPC  H15S21847   3.902  -0.822   7.883 -1.2488 -1.7541 -0.9620
  189SLPC  C21621848   4.097  -0.741   7.873 -0.9871 -0.2467 -0.4247
  189SLPC  H16R21849   4.080  -0.634   7.900 -0.8521 -0.7471  1.8076
  189SLPC  H16S21850   4.185  -0.730   7.806 -1.0056  2.1932 -0.1705
  189SLPC  C21721851   4.144  -0.815   8.003  0.4755 -0.4745 -0.4700
  189SLPC  H17R21852   4.134  -0.923   7.977  1.6657 -0.5068 -0.8172
  189SLPC  H17S21853   4.070  -0.784   8.080 -1.5484 -2.0648 -1.6677
  189SLPC  C21821854   4.283  -0.778   8.045  0.1708 -0.2321 -0.1233
  189SLPC  H18R21855   4.343  -0.862   8.087  2.7870  1.6659  0.1360
  189SLPC  H18S21856   4.275  -0.698   8.122 -0.1250 -1.2366  0.9208
  189SLPC  H18T21857   4.334  -0.745   7.952 -0.6401  0.4840 -0.3232
  189SLPC   C3321858   3.662   0.263   7.012 -0.0096  0.2974  0.2527
  189SLPC   H3X21859   3.604   0.324   7.085 -0.2243  2.4894 -1.6532
  189SLPC   H3Y21860   3.761   0.309   6.993  0.2363 -0.5962 -0.7686
  189SLPC   C3421861   3.657   0.123   7.062  0.0796  0.3314  0.3319
  189SLPC   H4X21862   3.711   0.053   6.994  1.1109  0.2868  1.1670
  189SLPC   H4Y21863   3.548   0.105   7.062 -0.1001  1.3286  0.8405
  189SLPC   C3521864   3.722   0.098   7.201  0.3405  0.1121  0.0892
  189SLPC   H5X21865   3.759   0.188   7.253  0.3528 -0.0161  0.3049
  189SLPC   H5Y21866   3.805   0.030   7.171 -0.7686 -0.3676 -2.0851
  189SLPC   C3621867   3.641   0.013   7.301  0.1187 -0.0664 -0.2195
  189SLPC   H6X21868   3.634  -0.092   7.265 -2.5618  0.3448 -1.1174
  189SLPC   H6Y21869   3.536   0.047   7.306 -0.6602 -2.3550  0.2092
  189SLPC   C3721870   3.716   0.013   7.436  0.3174 -0.2198  0.5178
  189SLPC   H7X21871   3.718   0.121   7.464  0.3000  0.2604 -1.2655
  189SLPC   H7Y21872   3.824  -0.012   7.423  0.1723 -1.8090  1.9592
  189SLPC   C3821873   3.655  -0.079   7.548 -0.8767  0.4264 -0.2117
  189SLPC   H8X21874   3.626  -0.173   7.498 -0.1097  1.3577 -2.5349
  189SLPC   H8Y21875   3.560  -0.026   7.570 -0.7542  0.8574 -0.6999
  189SLPC   C3921876   3.745  -0.104   7.666  0.3470 -0.3774  0.1699
  189SLPC   H9X21877   3.734  -0.019   7.738  0.1927 -2.1842  2.3958
  189SLPC   H9Y21878   3.856  -0.108   7.654  0.3914  0.6586  0.0635
  189SLPC  C31021879   3.700  -0.218   7.751 -0.0378  0.1015  0.6948
  189SLPC  H10X21880   3.705  -0.315   7.695 -0.2893  0.6198 -0.2526
  189SLPC  H10Y21881   3.593  -0.198   7.770 -0.8313 -0.2521 -2.6801
  189SLPC  C31121882   3.783  -0.222   7.883 -0.5849  0.7762 -0.2839
  189SLPC  H11X21883   3.765  -0.132   7.944  0.4743  2.7610 -2.7325
  189SLPC  H11Y21884   3.891  -0.241   7.862 -0.2969 -0.0937  1.7602
  189SLPC  C31221885   3.755  -0.353   7.966 -0.3379  0.0249  0.7516
  189SLPC  H12X21886   3.774  -0.444   7.906  1.2263  0.8556 -0.0707
  189SLPC  H12Y21887   3.646  -0.360   7.988 -0.6955  0.9953 -0.5833
  189SLPC  C31321888   3.836  -0.371   8.091 -0.7482  0.4069 -0.7798
  189SLPC  H13X21889   3.940  -0.356   8.055 -0.9346  0.9884 -1.1049
  189SLPC  H13Y21890   3.853  -0.473   8.129  0.6508  0.1747 -1.9330
  189SLPC  C31421891   3.799  -0.264   8.199  0.0669  0.5811  0.5817
  189SLPC  H14X21892   3.832  -0.165   8.158 -1.3266  0.3076 -1.3525
  189SLPC  H14Y21893   3.861  -0.268   8.291  1.5241  2.4601 -0.2538
  189SLPC  C31521894   3.656  -0.250   8.240  0.2042 -0.0443  0.4683
  189SLPC  H15X21895   3.584  -0.223   8.160  1.7458  0.7801 -0.6844
  189SLPC  H15Y21896   3.640  -0.175   8.320  0.3051  0.3554  0.1151
  189SLPC  C31621897   3.589  -0.379   8.306 -0.3650 -0.5541  0.1503
  189SLPC  H16X21898   3.670  -0.433   8.360 -2.5472 -2.0554  2.1221
  189SLPC  H16Y21899   3.560  -0.451   8.227  1.6790 -0.0523 -1.1598
  189SLPC  C31721900   3.482  -0.339   8.410  0.1673  0.1159  0.0239
  189SLPC  H17X21901   3.396  -0.312   8.345  1.1746  1.4693 -0.8104
  189SLPC  H17Y21902   3.515  -0.266   8.486  1.5219  0.2071 -0.6039
  189SLPC  C31821903   3.460  -0.456   8.503  0.3384  0.1930  0.1977
  189SLPC  H18X21904   3.392  -0.537   8.468  0.5939 -0.0318  0.2165
  189SLPC  H18Y21905   3.401  -0.429   8.594 -2.2566 -1.5425 -0.8300
  189SLPC  H18Z21906   3.553  -0.505   8.539 -0.2243 -3.0128 -2.2603
  190SLPC     N21907   3.457   3.606   5.986 -1.3236  0.1415 -0.6123
  190SLPC   C1321908   3.339   3.513   5.973 -0.5688  0.5072  0.4750
  190SLPC  H13A21909   3.343   3.490   5.867  1.8027  0.8182  0.4389
  190SLPC  H13B21910   3.358   3.425   6.032  0.4179  1.2835  1.3649
  190SLPC  H13C21911   3.247   3.558   6.008 -0.8144  0.6974 -0.3920
  190SLPC   C1421912   3.438   3.726   5.899 -0.5519  0.2507  0.4270
  190SLPC  H14A21913   3.454   3.697   5.796  0.5268 -2.0813  1.1714
  190SLPC  H14B21914   3.335   3.753   5.912 -0.3892  0.7653  0.6787
  190SLPC  H14C21915   3.499   3.810   5.930  0.9554 -0.4689 -0.4575
  190SLPC   C1521916   3.582   3.533   5.937  0.3034  0.2012  0.8843
  190SLPC  H15A21917   3.603   3.452   6.006  1.5207  0.5099  0.9092
  190SLPC  H15B21918   3.573   3.493   5.837 -0.2953  2.2869  0.0469
  190SLPC  H15C21919   3.673   3.592   5.928  0.1055  0.8481  2.7014
  190SLPC   C1221920   3.481   3.645   6.130 -0.4010  0.1939 -0.3194
  190SLPC  H12A21921   3.402   3.710   6.164  0.1268  1.0063 -0.6214
  190SLPC  H12B21922   3.565   3.713   6.126 -0.3288  0.1695  0.5804
  190SLPC   C1121923   3.493   3.534   6.239  0.1323  0.7276 -0.1447
  190SLPC  H11A21924   3.562   3.579   6.315 -1.2340  1.2493  0.8195
  190SLPC  H11B21925   3.540   3.441   6.201  3.0238  0.9673  2.3791
  190SLPC     P21926   3.309   3.559   6.422 -0.2157 -0.3091  0.1854
  190SLPC   O1321927   3.165   3.573   6.413 -0.0507  0.0138 -0.1046
  190SLPC   O1421928   3.357   3.480   6.539  0.5531 -0.1539 -0.0896
  190SLPC   O1221929   3.367   3.493   6.293  0.2052 -0.2321  0.0776
  190SLPC   O1121930   3.382   3.704   6.410 -0.6901 -0.6731 -0.7724
  190SLPC    C121931   3.451   3.767   6.523 -0.1063  0.5348 -0.1643
  190SLPC    HA21932   3.536   3.699   6.546  0.4557  0.5698 -1.9727
  190SLPC    HB21933   3.493   3.866   6.494  1.9577 -0.7271 -1.7370
  190SLPC    C221934   3.369   3.798   6.650 -0.1593 -0.3287 -0.3710
  190SLPC    HS21935   3.333   3.700   6.687  1.9680 -0.9525  0.2341
  190SLPC   O2121936   3.258   3.894   6.621 -0.2281 -0.2187 -0.1514
  190SLPC   C2121937   3.152   3.860   6.685  0.8077  1.0754  0.0761
  190SLPC   O2221938   3.142   3.761   6.758  0.0301 -0.0220 -0.2997
  190SLPC   C2221939   3.037   3.964   6.673  0.3432  0.0232 -0.3834
  190SLPC   H2R21940   3.041   4.017   6.575 -0.4528  4.0121  1.5164
  190SLPC   H2S21941   2.943   3.907   6.663  0.6383 -0.7940  1.2898
  190SLPC    C321942   3.471   3.864   6.753 -0.5343  0.1999 -0.0165
  190SLPC    HX21943   3.510   3.959   6.710 -0.6130 -0.7249 -2.2728
  190SLPC    HY21944   3.557   3.798   6.776 -1.2799 -1.0108 -0.5906
  190SLPC   O3121945   3.409   3.904   6.874 -0.0757 -0.0603  0.3536
  190SLPC   C3121946   3.388   3.804   6.955  0.4512 -0.8932  0.1300
  190SLPC   O3221947   3.439   3.696   6.949 -0.5652  0.5426 -0.4574
  190SLPC   C3221948   3.278   3.842   7.054 -0.6726  0.3687 -0.0933
  190SLPC   H2X21949   3.176   3.823   7.012  0.2546 -0.4308 -2.1295
  190SLPC   H2Y21950   3.292   3.949   7.078 -1.7183  0.3458  0.7134
  190SLPC   C2321951   3.044   4.069   6.786  0.0681 -0.4724  0.0751
  190SLPC   H3R21952   2.992   4.163   6.757 -1.0923 -1.1728 -0.1855
  190SLPC   H3S21953   3.146   4.096   6.820 -0.0667  2.7254 -1.5947
  190SLPC   C2421954   2.960   4.032   6.907  0.0950  0.3462  0.0789
  190SLPC   H4R21955   2.992   3.939   6.958 -1.2052 -0.6839 -0.9068
  190SLPC   H4S21956   2.860   4.022   6.859  0.0946  3.0786 -0.6452
  190SLPC   C2521957   2.947   4.149   7.002  0.1504  1.0355 -0.4493
  190SLPC   H5R21958   2.878   4.113   7.082 -1.5327  3.5166 -0.6707
  190SLPC   H5S21959   2.903   4.238   6.953  0.5406  0.8444 -1.1636
  190SLPC   C2621960   3.082   4.197   7.065  0.4939  0.7521  0.1136
  190SLPC   H6R21961   3.131   4.266   6.993  0.1891  2.9552  1.9139
  190SLPC   H6S21962   3.161   4.122   7.089  2.5548  2.6695 -0.3079
  190SLPC   C2721963   3.058   4.275   7.191 -0.1408 -0.2445 -0.5493
  190SLPC   H7R21964   3.012   4.203   7.262  0.4943 -1.8684 -1.7281
  190SLPC   H7S21965   2.980   4.351   7.172  1.2361  1.4107  0.1208
  190SLPC   C2821966   3.189   4.339   7.250  0.2774  0.0956 -0.3289
  190SLPC   H8R21967   3.254   4.374   7.168  1.8431 -0.8144  0.4867
  190SLPC   H8S21968   3.244   4.255   7.298  0.0906  0.2679  0.1978
  190SLPC   C2921969   3.168   4.437   7.360  0.4764  0.3142 -0.2646
  190SLPC   H9R21970   3.151   4.541   7.330 -0.5573 -0.2166 -1.6141
  190SLPC  C21021971   3.161   4.410   7.495 -0.1019  0.2185  0.2152
  190SLPC  H10R21972   3.128   4.490   7.563  1.0670 -0.8058  2.0739
  190SLPC  C21121973   3.171   4.275   7.557 -0.4569  0.2420  0.8541
  190SLPC  H11R21974   3.274   4.237   7.543  0.0448  1.6486  0.5092
  190SLPC  H11S21975   3.103   4.213   7.496 -1.0242  2.7147 -1.2332
  190SLPC  C21221976   3.119   4.257   7.700  0.0180  0.0785  0.2679
  190SLPC  H12R21977   3.048   4.173   7.706 -0.1332  0.1649 -0.2707
  190SLPC  C21321978   3.158   4.329   7.807 -0.0031  0.0608  0.6259
  190SLPC  H13R21979   3.120   4.316   7.909 -1.8659  1.7531  0.2085
  190SLPC  C21421980   3.260   4.437   7.814 -0.5166  0.7282 -0.1497
  190SLPC  H14R21981   3.220   4.538   7.792  0.0603  1.0394  0.2013
  190SLPC  H14S21982   3.338   4.423   7.736 -0.7848  0.9778 -0.4632
  190SLPC  C21521983   3.329   4.453   7.956  0.2388  0.8158  0.0303
  190SLPC  H15R21984   3.423   4.510   7.943  0.8157 -0.5746 -2.6364
  190SLPC  H15S21985   3.353   4.352   7.995 -0.4985  0.0040 -1.5240
  190SLPC  C21621986   3.242   4.527   8.067  0.2200  1.3380  0.3225
  190SLPC  H16R21987   3.150   4.466   8.073 -0.6781  2.3700 -2.0890
  190SLPC  H16S21988   3.216   4.630   8.035  0.3091  1.1410 -0.3923
  190SLPC  C21721989   3.310   4.523   8.206 -0.7398  0.0634  0.3493
  190SLPC  H17R21990   3.419   4.538   8.211 -0.7527 -0.0710  1.2224
  190SLPC  H17S21991   3.309   4.415   8.234 -0.5885 -0.0492 -0.0687
  190SLPC  C21821992   3.239   4.602   8.319  0.0211  1.3073 -0.1259
  190SLPC  H18R21993   3.257   4.709   8.294  1.4542  1.1450  0.1246
  190SLPC  H18S21994   3.285   4.575   8.416 -0.9292  0.6801  0.1716
  190SLPC  H18T21995   3.131   4.578   8.303  0.6634 -1.2476 -1.1440
  190SLPC   C3321996   3.309   3.757   7.182 -0.6961 -0.0469  0.0501
  190SLPC   H3X21997   3.315   3.649   7.157  0.8538 -0.3173  1.4274
  190SLPC   H3Y21998   3.212   3.774   7.233 -1.2769 -0.1311 -0.9914
  190SLPC   C3421999   3.404   3.800   7.292 -0.1712  0.0862  0.3561
  190SLPC   H4X22000   3.407   3.911   7.287 -0.0578  0.0335 -1.7158
  190SLPC   H4Y22001   3.505   3.756   7.282  1.7831  4.0304  0.7232
  190SLPC   C3522002   3.341   3.759   7.435 -0.0757 -0.1475 -0.4702
  190SLPC   H5X22003   3.344   3.648   7.440 -0.7365 -0.1365  0.5953
  190SLPC   H5Y22004   3.236   3.795   7.434  0.7006  2.3998 -2.6035
  190SLPC   C3622005   3.412   3.826   7.548 -0.3711  0.6338  0.0849
  190SLPC   H6X22006   3.441   3.924   7.505 -0.5453  0.0462 -1.4488
  190SLPC   H6Y22007   3.500   3.766   7.578  1.3635  2.5846 -0.9244
  190SLPC   C3722008   3.310   3.837   7.664  0.2763  0.0257  0.6490
  190SLPC   H7X22009   3.258   3.742   7.685  2.9440 -1.5697  0.5125
  190SLPC   H7Y22010   3.240   3.920   7.641  0.6363  0.2554  0.3624
  190SLPC   C3822011   3.372   3.883   7.798 -0.2932  0.8946  0.0628
  190SLPC   H8X22012   3.425   3.800   7.849  0.4525  0.7109 -0.9814
  190SLPC   H8Y22013   3.295   3.923   7.867 -0.1966  0.2240  0.5656
  190SLPC   C3922014   3.472   3.997   7.792  0.4597 -0.2310 -0.4740
  190SLPC   H9X22015   3.410   4.088   7.782  2.8048  1.4530 -0.3662
  190SLPC   H9Y22016   3.550   3.997   7.713 -0.1527 -0.8255 -1.0973
  190SLPC  C31022017   3.550   4.024   7.927 -0.0885  0.0404 -0.1780
  190SLPC  H10X22018   3.577   4.132   7.935 -1.6542  0.3329  2.1280
  190SLPC  H10Y22019   3.644   3.965   7.934 -0.2765 -1.0981 -4.3663
  190SLPC  C31122020   3.466   4.000   8.054  0.0726  0.0443  0.2770
  190SLPC  H11X22021   3.449   3.890   8.064  2.0601 -0.1987  1.3541
  190SLPC  H11Y22022   3.371   4.049   8.024  0.8259 -0.1825 -2.8999
  190SLPC  C31222023   3.511   4.066   8.184  0.3248 -0.0609  0.1513
  190SLPC  H12X22024   3.477   4.172   8.177 -1.5675 -0.6088  0.5630
  190SLPC  H12Y22025   3.622   4.061   8.193  0.3773 -0.3264 -0.6095
  190SLPC  C31322026   3.449   3.994   8.310  0.6359  0.4091 -0.2655
  190SLPC  H13X22027   3.510   4.012   8.401  1.4769 -0.3794 -0.6639
  190SLPC  H13Y22028   3.459   3.884   8.292  2.0279  0.1613  1.7130
  190SLPC  C31422029   3.298   4.019   8.326  0.2660 -0.8620 -0.4334
  190SLPC  H14X22030   3.234   3.980   8.244 -0.2983  0.1334 -0.4837
  190SLPC  H14Y22031   3.279   4.125   8.352 -1.2640 -1.0736 -0.5960
  190SLPC  C31522032   3.240   3.941   8.438  0.1957 -0.3172 -0.7535
  190SLPC  H15X22033   3.263   3.833   8.423  2.1083 -0.1070  0.2856
  190SLPC  H15Y22034   3.129   3.953   8.437  0.2042 -0.1540 -2.8765
  190SLPC  C31622035   3.295   3.972   8.582 -0.5178  0.3508 -0.0573
  190SLPC  H16X22036   3.316   4.081   8.585  0.8724  0.1391 -1.0256
  190SLPC  H16Y22037   3.389   3.912   8.585 -1.2897 -0.8761  0.2504
  190SLPC  C31722038   3.208   3.913   8.696 -0.1499 -0.1065  0.3141
  190SLPC  H17X22039   3.254   3.900   8.796  1.7138 -1.6115 -0.6709
  190SLPC  H17Y22040   3.192   3.806   8.672 -1.2385 -0.2805  1.7193
  190SLPC  C31822041   3.073   3.988   8.710  0.3589 -0.0154  0.4446
  190SLPC  H18X22042   3.087   4.088   8.757  0.9406  0.1737 -0.1183
  190SLPC  H18Y22043   3.002   3.923   8.764  0.8737 -0.9466  0.0227
  190SLPC  H18Z22044   3.026   4.011   8.612  2.6410 -2.5624 -1.4005
  191SLPC     N22045   3.185   0.044   5.790 -0.3111 -0.1700 -0.1331
  191SLPC   C1322046   3.279   0.125   5.706 -0.3359 -0.0884 -0.4050
  191SLPC  H13A22047   3.381   0.111   5.738 -0.7921 -2.3601  0.2592
  191SLPC  H13B22048   3.277   0.110   5.599  0.2941  0.0906 -0.4481
  191SLPC  H13C22049   3.257   0.230   5.714  0.2230 -0.0788  1.5445
  191SLPC   C1422050   3.217  -0.093   5.786  0.8589 -0.1626 -0.3781
  191SLPC  H14A22051   3.318  -0.126   5.808  0.0908 -2.0399  0.5300
  191SLPC  H14B22052   3.150  -0.146   5.852  0.8284  0.9595  0.5171
  191SLPC  H14C22053   3.191  -0.120   5.684 -0.8693  0.1049 -0.0310
  191SLPC   C1522054   3.049   0.054   5.728 -0.3884  0.3187  0.1078
  191SLPC  H15A22055   3.057   0.019   5.627 -2.0904  0.1296  0.0085
  191SLPC  H15B22056   2.977  -0.014   5.772 -0.7928 -0.7418 -2.0455
  191SLPC  H15C22057   3.019   0.158   5.720  0.0348  0.5989  1.6969
  191SLPC   C1222058   3.181   0.098   5.942  0.2589  0.5892  0.2064
  191SLPC  H12A22059   3.280   0.072   5.978  0.7431  1.3056 -0.5804
  191SLPC  H12B22060   3.109   0.035   5.992 -1.1108  1.6962 -0.3157
  191SLPC   C1122061   3.149   0.246   5.972 -0.0718 -0.0441 -0.2000
  191SLPC  H11A22062   3.237   0.300   5.932  1.4093 -1.9927  0.2776
  191SLPC  H11B22063   3.140   0.253   6.082 -3.2886  1.9244 -0.4529
  191SLPC     P22064   2.988   0.426   5.911  0.1882 -0.1967  0.1324
  191SLPC   O1322065   3.101   0.519   5.872  0.1325  0.2406  0.2670
  191SLPC   O1422066   2.853   0.438   5.845 -0.0511 -0.5946  0.0495
  191SLPC   O1222067   3.025   0.276   5.925 -0.0292  0.2927  0.4122
  191SLPC   O1122068   2.959   0.458   6.060  0.0033 -0.2173  0.3622
  191SLPC    C122069   3.053   0.535   6.135  0.2464  0.5800 -0.2376
  191SLPC    HA22070   3.154   0.489   6.137  0.8358  1.8354  0.8161
  191SLPC    HB22071   3.069   0.636   6.090  0.0877  1.4931  1.6374
  191SLPC    C222072   3.005   0.567   6.279  0.5031 -0.6164 -0.8715
  191SLPC    HS22073   3.073   0.642   6.326 -2.0446 -0.0931  2.3544
  191SLPC   O2122074   2.996   0.440   6.350  0.2007  0.4068  0.1421
  191SLPC   C2122075   3.116   0.403   6.411  0.0064 -0.0479  0.1606
  191SLPC   O2222076   3.217   0.464   6.416 -0.0314 -0.3326  0.2327
  191SLPC   C2222077   3.096   0.277   6.494  0.6768  0.1644 -1.0477
  191SLPC   H2R22078   2.988   0.250   6.492  1.2720 -2.4789 -0.9116
  191SLPC   H2S22079   3.158   0.208   6.433  2.0338 -0.9546  1.4702
  191SLPC    C322080   2.872   0.641   6.282  0.1563  0.0696  0.0760
  191SLPC    HX22081   2.795   0.563   6.297 -1.9213  2.1471  0.8795
  191SLPC    HY22082   2.851   0.695   6.187 -0.9609  3.1032  1.8912
  191SLPC   O3122083   2.867   0.735   6.387  0.5006  0.0924  0.6616
  191SLPC   C3122084   2.746   0.778   6.403 -0.1188 -0.5750 -0.4604
  191SLPC   O3222085   2.647   0.762   6.332 -0.2093 -0.1110 -0.2314
  191SLPC   C3222086   2.750   0.878   6.517  0.3243  0.4646  0.0970
  191SLPC   H2X22087   2.728   0.975   6.469  0.1272 -0.0505 -0.8657
  191SLPC   H2Y22088   2.849   0.882   6.568  1.2214 -0.7807 -1.4409
  191SLPC   C2322089   3.149   0.280   6.642 -0.5528 -0.1705 -0.3009
  191SLPC   H3R22090   3.114   0.361   6.709 -0.8727 -0.6163  0.0766
  191SLPC   H3S22091   3.258   0.290   6.623 -0.2776 -1.5359  0.4192
  191SLPC   C2422092   3.100   0.154   6.714  0.0513  0.0449  0.4052
  191SLPC   H4R22093   3.101   0.069   6.642 -0.0585 -1.4525  2.1192
  191SLPC   H4S22094   2.991   0.159   6.735  0.2394  0.8102  1.2100
  191SLPC   C2522095   3.180   0.119   6.840  0.4081  0.5630  0.6640
  191SLPC   H5R22096   3.150   0.189   6.921  1.1174 -0.2302  1.6346
  191SLPC   H5S22097   3.287   0.137   6.820  0.6944 -2.1011 -0.6424
  191SLPC   C2622098   3.148  -0.027   6.868 -0.6016 -0.2120 -0.4355
  191SLPC   H6R22099   3.168  -0.077   6.771  1.5433  1.2942 -0.8273
  191SLPC   H6S22100   3.039  -0.036   6.890 -0.2689  0.9906  2.0889
  191SLPC   C2722101   3.239  -0.078   6.981  0.4601 -0.1517 -0.1909
  191SLPC   H7R22102   3.344  -0.064   6.949  0.1333  1.4397 -0.6694
  191SLPC   H7S22103   3.221  -0.185   7.002  0.8071  0.0241  1.1171
  191SLPC   C2822104   3.227  -0.005   7.120  0.3755 -0.1565 -0.7233
  191SLPC   H8R22105   3.248   0.102   7.100 -1.4166  0.4788  0.5783
  191SLPC   H8S22106   3.314  -0.050   7.173 -2.4429 -1.8765  2.9466
  191SLPC   C2922107   3.109  -0.036   7.207 -0.0962 -0.3382 -0.1966
  191SLPC   H9R22108   3.010  -0.013   7.164  0.5909 -0.1900 -1.7756
  191SLPC  C21022109   3.108  -0.102   7.324 -0.0796 -0.4857 -0.2725
  191SLPC  H10R22110   3.015  -0.121   7.380 -0.6144 -0.5376 -1.1669
  191SLPC  C21122111   3.222  -0.143   7.403 -0.1194  0.8390 -0.1924
  191SLPC  H11R22112   3.212  -0.150   7.513  1.5197  0.4730 -0.0433
  191SLPC  H11S22113   3.306  -0.074   7.384 -0.1142  0.4867 -1.5381
  191SLPC  C21222114   3.272  -0.280   7.355  0.3465  0.8630  0.4090
  191SLPC  H12R22115   3.242  -0.315   7.255  1.5975 -0.3754  0.4298
  191SLPC  C21322116   3.352  -0.365   7.418  0.4564  0.4098 -0.4350
  191SLPC  H13R22117   3.376  -0.459   7.367 -0.1439  0.3489 -0.6127
  191SLPC  C21422118   3.402  -0.354   7.557 -0.5713 -0.0656 -0.3903
  191SLPC  H14R22119   3.395  -0.248   7.590 -1.3480 -0.5748  1.1843
  191SLPC  H14S22120   3.511  -0.377   7.555 -0.5656 -0.0417 -0.3526
  191SLPC  C21522121   3.311  -0.415   7.667  0.5577  0.1754 -0.3231
  191SLPC  H15R22122   3.321  -0.525   7.668  1.7944  0.2725  1.0211
  191SLPC  H15S22123   3.205  -0.385   7.648  0.6748 -0.3366 -1.9560
  191SLPC  C21622124   3.352  -0.365   7.805 -0.5686 -0.0288  0.0619
  191SLPC  H16R22125   3.358  -0.254   7.810  1.0991  0.0625 -2.3094
  191SLPC  H16S22126   3.456  -0.402   7.812 -0.3371  0.8465  1.6351
  191SLPC  C21722127   3.261  -0.426   7.913 -0.5394  1.2435  0.0545
  191SLPC  H17R22128   3.264  -0.535   7.895  2.4908  1.5858 -2.2538
  191SLPC  H17S22129   3.155  -0.394   7.902 -1.3747 -1.4737 -0.5504
  191SLPC  C21822130   3.316  -0.405   8.053 -0.1993 -0.1194 -0.6921
  191SLPC  H18R22131   3.238  -0.440   8.125 -0.5847  2.2396  0.1236
  191SLPC  H18S22132   3.333  -0.296   8.068 -1.2453 -0.0734  0.3485
  191SLPC  H18T22133   3.409  -0.466   8.061 -0.8138 -1.3185 -2.2356
  191SLPC   C3322134   2.626   0.856   6.613  0.2107  0.1143 -0.4527
  191SLPC   H3X22135   2.540   0.810   6.560  0.6457 -2.1893  0.7141
  191SLPC   H3Y22136   2.589   0.954   6.651 -2.0521  0.3978 -3.0732
  191SLPC   C3422137   2.652   0.756   6.725 -0.3891  0.3939 -0.2748
  191SLPC   H4X22138   2.703   0.663   6.693  0.9295 -0.0535  2.7640
  191SLPC   H4Y22139   2.552   0.726   6.764 -0.9881  1.5298 -0.8960
  191SLPC   C3522140   2.731   0.822   6.838  0.5568 -0.3101 -0.3440
  191SLPC   H5X22141   2.687   0.917   6.874  1.3989 -0.0854  0.1234
  191SLPC   H5Y22142   2.836   0.844   6.807  0.7352  3.7383  2.3303
  191SLPC   C3622143   2.741   0.723   6.953 -0.0028  0.2596  0.2272
  191SLPC   H6X22144   2.806   0.636   6.931 -1.5558 -0.5290 -1.5461
  191SLPC   H6Y22145   2.638   0.684   6.971  0.4720 -1.8253 -1.2533
  191SLPC   C3722146   2.792   0.788   7.075 -0.7880 -0.0676 -0.1157
  191SLPC   H7X22147   2.738   0.884   7.090  1.4572  1.2669 -0.1836
  191SLPC   H7Y22148   2.896   0.826   7.067  0.2908 -2.6034  0.5659
  191SLPC   C3822149   2.759   0.703   7.206  0.2823  0.1583 -0.0762
  191SLPC   H8X22150   2.828   0.617   7.215  1.1495  1.0330  2.4474
  191SLPC   H8Y22151   2.655   0.669   7.224  0.6609  0.4546  3.2867
  191SLPC   C3922152   2.794   0.786   7.326 -0.7368  0.0795  0.1349
  191SLPC   H9X22153   2.710   0.850   7.358  0.6066  1.2544  1.4602
  191SLPC   H9Y22154   2.881   0.852   7.305  0.0031 -1.1224 -0.7496
  191SLPC  C31022155   2.818   0.699   7.449 -0.2854  0.2717  0.3127
  191SLPC  H10X22156   2.925   0.670   7.458 -0.6311 -1.4974 -0.8544
  191SLPC  H10Y22157   2.762   0.606   7.426 -1.2554  1.0236 -0.4457
  191SLPC  C31122158   2.757   0.751   7.584  0.7832  0.3111  0.3696
  191SLPC  H11X22159   2.654   0.772   7.550  0.6840 -1.7082 -0.7194
  191SLPC  H11Y22160   2.811   0.842   7.618  0.2109 -0.1499  2.6456
  191SLPC  C31222161   2.750   0.651   7.693  0.2128  0.0223 -0.2180
  191SLPC  H12X22162   2.851   0.619   7.727  0.3397  1.4390  0.8634
  191SLPC  H12Y22163   2.689   0.564   7.661 -1.9405  1.0459  0.9092
  191SLPC  C31322164   2.673   0.702   7.818 -0.5247  0.6651 -0.7316
  191SLPC  H13X22165   2.575   0.746   7.789 -1.1625 -1.1084 -1.3388
  191SLPC  H13Y22166   2.738   0.782   7.859  0.7928 -2.0500  3.0194
  191SLPC  C31422167   2.667   0.595   7.935 -1.0391 -0.2526 -0.0770
  191SLPC  H14X22168   2.611   0.505   7.899  1.2989 -1.4502 -0.9673
  191SLPC  H14Y22169   2.607   0.641   8.015 -0.2595 -0.4721  0.6474
  191SLPC  C31522170   2.811   0.563   7.980 -0.2376  0.4520  0.3568
  191SLPC  H15X22171   2.877   0.652   7.972  3.6975 -2.0649  1.7500
  191SLPC  H15Y22172   2.847   0.489   7.905 -0.0478  1.1663 -0.2621
  191SLPC  C31622173   2.818   0.506   8.118 -0.3383 -0.8164  0.2473
  191SLPC  H16X22174   2.741   0.427   8.128  1.3917 -2.4933  0.8256
  191SLPC  H16Y22175   2.787   0.591   8.183 -2.2555 -0.4773 -1.0266
  191SLPC  C31722176   2.949   0.454   8.170 -0.0269 -0.4717  0.2065
  191SLPC  H17X22177   3.008   0.547   8.155 -0.9135  0.5482  2.5635
  191SLPC  H17Y22178   2.996   0.369   8.116  0.6349 -0.6201  0.9933
  191SLPC  C31822179   2.960   0.429   8.321  0.0814  0.1852 -0.2360
  191SLPC  H18X22180   2.888   0.356   8.363 -1.3759  1.2895 -0.7278
  191SLPC  H18Y22181   2.947   0.522   8.381 -0.9619 -0.4602  0.5569
  191SLPC  H18Z22182   3.064   0.398   8.344  0.1098 -0.4391 -1.1758
  192SLPC     N22183   3.133   1.123   5.996 -0.8808  0.7610 -0.2888
  192SLPC   C1322184   3.219   1.215   6.070  0.3276  0.2830 -0.4546
  192SLPC  H13A22185   3.162   1.290   6.123 -1.0199 -2.3010  1.9801
  192SLPC  H13B22186   3.276   1.161   6.144 -0.7899 -0.3707 -0.0446
  192SLPC  H13C22187   3.285   1.259   5.996 -0.9609  1.6142 -0.8708
  192SLPC   C1422188   3.213   1.012   5.933  1.3283  0.1823 -0.5093
  192SLPC  H14A22189   3.261   0.955   6.011 -1.0418 -0.8133  0.3110
  192SLPC  H14B22190   3.148   0.939   5.886 -1.5248  1.4521  1.2023
  192SLPC  H14C22191   3.295   1.055   5.876  0.8384 -0.4971 -1.7700
  192SLPC   C1522192   3.065   1.196   5.884 -0.6846  0.2299 -0.6323
  192SLPC  H15A22193   3.004   1.129   5.825 -1.9520 -0.0354  0.9102
  192SLPC  H15B22194   3.008   1.278   5.925  2.3277  1.4929  1.3914
  192SLPC  H15C22195   3.134   1.246   5.817  1.0206 -2.1334 -0.7594
  192SLPC   C1222196   3.031   1.056   6.096 -0.1717  0.1887  0.2249
  192SLPC  H12A22197   2.963   0.999   6.035  1.8764 -0.1758 -1.8850
  192SLPC  H12B22198   2.975   1.132   6.148 -2.1072 -1.0159  0.0097
  192SLPC   C1122199   3.080   0.951   6.203 -0.6114 -0.0845  0.2459
  192SLPC  H11A22200   3.106   0.851   6.163  1.2631  0.7237 -0.6988
  192SLPC  H11B22201   2.996   0.928   6.272  0.1305  1.1335  1.6132
  192SLPC     P22202   3.174   1.093   6.407 -0.4830 -0.2602  0.0260
  192SLPC   O1322203   3.308   1.152   6.431 -0.0636  0.1867  0.2432
  192SLPC   O1422204   3.062   1.183   6.387 -0.0364  0.1792 -0.2975
  192SLPC   O1222205   3.185   0.999   6.282  0.0874 -0.2590 -0.1736
  192SLPC   O1122206   3.135   0.999   6.531 -0.0328 -0.2713 -0.6988
  192SLPC    C122207   3.182   0.866   6.549  0.3518 -0.2768 -0.1991
  192SLPC    HA22208   3.122   0.802   6.481  0.9332 -0.8439 -0.1916
  192SLPC    HB22209   3.288   0.853   6.519 -0.3557  0.3758 -3.3446
  192SLPC    C222210   3.158   0.811   6.698 -0.0403 -0.3308 -0.3617
  192SLPC    HS22211   3.059   0.840   6.738  0.4851  0.9292  0.0481
  192SLPC   O2122212   3.265   0.852   6.785  0.1530 -0.4733  0.0385
  192SLPC   C2122213   3.224   0.917   6.895  0.1045  0.5060 -0.2839
  192SLPC   O2222214   3.116   0.970   6.919 -0.3664  0.5062  0.1044
  192SLPC   C2222215   3.341   0.925   6.994 -0.4483  0.3505 -0.4383
  192SLPC   H2R22216   3.428   0.885   6.937 -1.3375  0.9935 -2.3588
  192SLPC   H2S22217   3.359   1.028   7.030 -0.2600 -0.0900  0.7607
  192SLPC    C322218   3.156   0.655   6.694  0.6278 -0.5155  0.0819
  192SLPC    HX22219   3.248   0.610   6.651  0.2551 -1.0251 -0.1876
  192SLPC    HY22220   3.072   0.626   6.627  1.1533 -3.3213  0.5405
  192SLPC   O3122221   3.126   0.593   6.823  0.0497  0.9577 -0.0897
  192SLPC   C3122222   3.229   0.536   6.880 -0.0549 -0.2501  0.6185
  192SLPC   O3222223   3.342   0.527   6.825  0.4305  0.0772 -0.3623
  192SLPC   C3222224   3.182   0.487   7.016  0.8161 -0.0316 -0.4243
  192SLPC   H2X22225   3.105   0.408   7.004 -0.1264  0.4224  2.0416
  192SLPC   H2Y22226   3.130   0.573   7.063  0.3840 -0.6419  0.2364
  192SLPC   C2322227   3.320   0.836   7.123 -0.6916 -0.1071  0.1589
  192SLPC   H3R22228   3.414   0.840   7.183  0.6463 -0.1364 -1.8321
  192SLPC   H3S22229   3.288   0.732   7.102 -0.6985 -0.4991  1.9482
  192SLPC   C2422230   3.216   0.913   7.218 -0.5370  0.1003 -0.0052
  192SLPC   H4R22231   3.113   0.909   7.177 -0.9169 -2.4370  1.0277
  192SLPC   H4S22232   3.247   1.019   7.232  2.7097 -0.8457  0.7934
  192SLPC   C2522233   3.217   0.827   7.347  0.6789  0.4395  0.3912
  192SLPC   H5R22234   3.324   0.825   7.379  0.7754  1.5755  0.1791
  192SLPC   H5S22235   3.182   0.723   7.333 -0.8894  0.9382  0.3683
  192SLPC   C2622236   3.139   0.892   7.465 -0.4815 -0.8066 -0.3152
  192SLPC   H6R22237   3.029   0.879   7.454 -0.8657  1.6165  0.0857
  192SLPC   H6S22238   3.145   1.003   7.469  0.9526 -0.8657 -0.5506
  192SLPC   C2722239   3.193   0.848   7.611 -0.2063  0.7614  1.0374
  192SLPC   H7R22240   3.126   0.886   7.691 -1.7275 -0.1483  0.2660
  192SLPC   H7S22241   3.293   0.891   7.627  0.8350 -0.3764 -1.7803
  192SLPC   C2822242   3.212   0.696   7.623  0.1987  0.3232  0.3938
  192SLPC   H8R22243   3.283   0.668   7.542  2.1590  0.1223  2.0920
  192SLPC   H8S22244   3.111   0.658   7.596 -0.1594 -0.3306  2.4980
  192SLPC   C2922245   3.270   0.652   7.758 -0.0964 -0.1485  0.2848
  192SLPC   H9R22246   3.199   0.648   7.842 -0.7085  2.6337  0.0075
  192SLPC  C21022247   3.398   0.621   7.780  0.3911 -0.7743  0.6104
  192SLPC  H10R22248   3.428   0.581   7.878  1.9855 -0.3191  0.3260
  192SLPC  C21122249   3.497   0.634   7.669 -0.0699  0.2214 -0.0022
  192SLPC  H11R22250   3.489   0.731   7.615  2.5740  0.3335 -0.3668
  192SLPC  H11S22251   3.470   0.567   7.584 -2.2817  0.7282  0.2509
  192SLPC  C21222252   3.642   0.623   7.715  0.6972  0.2941  0.0996
  192SLPC  H12R22253   3.648   0.662   7.818  0.9397  2.0213 -0.5308
  192SLPC  C21322254   3.750   0.572   7.654 -0.0320 -0.0187  0.0061
  192SLPC  H13R22255   3.851   0.569   7.698 -0.5410 -1.5407  1.1384
  192SLPC  C21422256   3.739   0.510   7.514  0.0844 -0.3220 -0.8734
  192SLPC  H14R22257   3.662   0.429   7.513 -0.2677 -0.0095 -0.1704
  192SLPC  H14S22258   3.836   0.464   7.487  0.2579  0.8664 -2.3741
  192SLPC  C21522259   3.706   0.612   7.411  0.3446  0.1595  0.4992
  192SLPC  H15R22260   3.768   0.702   7.427  1.7997 -1.0257  1.8261
  192SLPC  H15S22261   3.597   0.636   7.407 -0.0793 -1.6503  0.0360
  192SLPC  C21622262   3.750   0.557   7.275 -0.2483 -0.8218 -0.3151
  192SLPC  H16R22263   3.676   0.479   7.247 -1.4056 -0.5344  1.7133
  192SLPC  H16S22264   3.855   0.523   7.286 -0.2308 -0.1534  2.1445
  192SLPC  C21722265   3.746   0.658   7.159  0.1925 -0.7456  0.2518
  192SLPC  H17R22266   3.646   0.706   7.152  0.4724 -0.1178  0.4674
  192SLPC  H17S22267   3.811   0.747   7.171 -0.9984  0.1596  0.2985
  192SLPC  C21822268   3.770   0.596   7.025 -0.4356 -0.8542 -0.2346
  192SLPC  H18R22269   3.757   0.671   6.944  1.0900  0.0654  0.3273
  192SLPC  H18S22270   3.691   0.521   7.007  0.5914 -1.6926 -1.3487
  192SLPC  H18T22271   3.873   0.554   7.027 -0.6711 -1.4386 -0.1394
  192SLPC   C3322272   3.293   0.437   7.107 -0.3298  0.4022  0.7930
  192SLPC   H3X22273   3.367   0.520   7.113 -1.4552  1.6906 -1.6545
  192SLPC   H3Y22274   3.340   0.343   7.069  0.0413  0.2761  1.5354
  192SLPC   C3422275   3.240   0.394   7.242  0.0229  0.1904 -0.4450
  192SLPC   H4X22276   3.173   0.308   7.224 -0.0619  0.4753 -1.5959
  192SLPC   H4Y22277   3.183   0.481   7.280  1.7909  1.3145 -0.2307
  192SLPC   C3522278   3.357   0.355   7.326  0.5410 -0.2798 -0.2250
  192SLPC   H5X22279   3.424   0.441   7.347  3.7882 -2.9739  1.4471
  192SLPC   H5Y22280   3.419   0.281   7.272  2.0795  2.0676 -1.8990
  192SLPC   C3622281   3.311   0.299   7.468 -0.1309 -0.1242 -0.2477
  192SLPC   H6X22282   3.233   0.220   7.459  1.6792 -1.9769 -0.4507
  192SLPC   H6Y22283   3.272   0.387   7.523  0.5082  0.4477 -0.6836
  192SLPC   C3722284   3.421   0.243   7.554  0.5488  1.2239 -0.4617
  192SLPC   H7X22285   3.498   0.323   7.555  1.1697  0.6566 -1.3975
  192SLPC   H7Y22286   3.469   0.156   7.504 -1.9540 -0.3009 -0.3624
  192SLPC   C3822287   3.371   0.207   7.698  0.3970  0.3969 -0.2773
  192SLPC   H8X22288   3.307   0.116   7.688  0.4640  0.4983 -1.8056
  192SLPC   H8Y22289   3.304   0.286   7.738 -1.6735 -1.3367 -0.1039
  192SLPC   C3922290   3.475   0.188   7.800 -0.5570  0.5437 -0.5649
  192SLPC   H9X22291   3.516   0.285   7.836  1.3179 -0.9455  1.6010
  192SLPC   H9Y22292   3.565   0.130   7.770  1.6278  2.9256  0.9861
  192SLPC  C31022293   3.409   0.121   7.931 -0.1323  0.2100 -0.1436
  192SLPC  H10X22294   3.370   0.019   7.911 -0.6150  0.2782  0.4013
  192SLPC  H10Y22295   3.324   0.184   7.966 -1.4204 -1.2403 -0.5922
  192SLPC  C31122296   3.512   0.106   8.047  0.1855 -0.1061 -0.1064
  192SLPC  H11X22297   3.560   0.206   8.056  0.3067  0.1551 -2.7529
  192SLPC  H11Y22298   3.589   0.030   8.023  1.0514 -0.2895  2.8701
  192SLPC  C31222299   3.456   0.060   8.184  0.2600  0.6763  0.1547
  192SLPC  H12X22300   3.440  -0.050   8.180 -1.4729  0.9292 -0.5227
  192SLPC  H12Y22301   3.357   0.105   8.206  0.3285 -0.2031  2.5838
  192SLPC  C31322302   3.553   0.089   8.298  0.0367 -0.0802 -0.6712
  192SLPC  H13X22303   3.579   0.196   8.285 -2.6501  0.7679  0.0898
  192SLPC  H13Y22304   3.645   0.031   8.277 -1.6778 -2.0168 -3.6289
  192SLPC  C31422305   3.489   0.059   8.432  0.2836  0.3170 -0.9122
  192SLPC  H14X22306   3.450  -0.045   8.431 -0.3676  0.5261  0.5932
  192SLPC  H14Y22307   3.402   0.123   8.457 -1.7037 -1.4856 -2.8364
  192SLPC  C31522308   3.583   0.088   8.558  0.3061  0.0871  0.3472
  192SLPC  H15X22309   3.685   0.047   8.543  0.2398 -0.7531  1.9578
  192SLPC  H15Y22310   3.551   0.036   8.651  2.0587 -1.8373 -0.0737
  192SLPC  C31622311   3.597   0.238   8.583  0.4595  0.4510  0.9145
  192SLPC  H16X22312   3.492   0.277   8.580  1.0388  2.0362 -0.0535
  192SLPC  H16Y22313   3.655   0.292   8.505 -0.3267  0.3789  0.2681
  192SLPC  C31722314   3.662   0.269   8.716  0.2931 -0.2684  0.1364
  192SLPC  H17X22315   3.644   0.377   8.730  1.1229 -0.2299  1.0227
  192SLPC  H17Y22316   3.772   0.255   8.706  0.3130  0.9609 -1.8755
  192SLPC  C31822317   3.618   0.204   8.848 -0.4975 -0.1132  0.4571
  192SLPC  H18X22318   3.671   0.243   8.937 -1.8541 -0.2498  1.3491
  192SLPC  H18Y22319   3.630   0.094   8.843 -1.3402 -0.1719 -0.7802
  192SLPC  H18Z22320   3.512   0.231   8.871 -0.5529 -1.3344  1.7806
  193SOD    SOD22321   5.874   6.750   6.245 -0.1582 -0.1842 -0.3411
  194SOD    SOD22322   2.606   5.481  13.913  0.3000 -0.3298  0.3075
  195SOD    SOD22323   5.293   6.613  16.587 -0.0924  0.3433  0.2812
  196SOD    SOD22324   6.314   0.766  14.514 -0.3579 -0.0463  0.1687
  197SOD    SOD22325   4.929   2.510  14.130  0.4362  0.3762 -0.1391
  198SOD    SOD22326   1.559   4.714  12.738  0.1299 -0.3083 -0.7579
  199SOD    SOD22327   2.894   2.383   3.150 -0.1056 -0.2277  0.0564
  200SOD    SOD22328   3.074   4.143  15.948  0.0634 -0.0776 -0.3315
  201SOD    SOD22329   6.510   5.674  13.147  0.3845  0.0248 -0.6808
  202SOD    SOD22330   6.270   6.220  11.246  0.1325 -0.0009 -0.1246
  203SOD    SOD22331   2.939   1.857   0.489 -0.2813 -0.0851 -0.0526
  204SOD    SOD22332   5.941   1.852   1.497  0.1207  0.2340  0.1777
  205SOD    SOD22333   3.996   4.627  11.230 -0.1147 -0.1258 -0.0885
  206SOD    SOD22334   6.190   2.057   4.364 -0.3137  0.1971 -0.0950
  207SOD    SOD22335   5.165   5.662  16.974 -0.6273 -0.1828 -0.0078
  208SOD    SOD22336   5.827   4.448  14.362  0.6364  0.1905 -0.2156
  209SOD    SOD22337   0.947   5.216   3.477  0.2394 -0.3776  0.0430
  210SOD    SOD22338   2.993   2.868  12.699  0.2805 -0.5282 -0.3125
  211SOD    SOD22339   5.287   0.912  13.587  0.2786 -0.3794 -0.6730
  212SOD    SOD22340   4.865   1.099  10.950 -0.1946 -0.1048 -0.7669
  213SOD    SOD22341   1.996   3.870   0.832  0.2875 -0.0435  0.2349
  214SOD    SOD22342   0.994   1.212   5.013  0.5975 -0.0839  0.1024
  215SOD    SOD22343   4.932   4.489   5.521  0.2206  0.0791 -0.2626
  216SOD    SOD22344   4.744   1.487   5.423  0.0180 -0.1147 -0.5001
  217SOD    SOD22345   0.735   6.678  15.115 -0.0085 -0.4587 -0.1202
  218SOD    SOD22346   0.781   3.023  11.202  0.0086  0.4532  0.0118
  219SOD    SOD22347   1.869   3.132  15.629  0.1831 -0.5467  0.4722
  220SOD    SOD22348   3.425   6.175  10.865 -0.1462 -0.3016 -0.0147
  221SOD    SOD22349   4.040   1.500   4.012  0.3867  0.5884  0.5094
  222SOD    SOD22350   1.315   5.618   5.407  0.2241 -0.0433 -0.0412
  223SOD    SOD22351   6.534   5.739  14.605 -0.0868  0.3727 -0.0338
  224SOD    SOD22352   5.600   4.963   1.503  0.2853 -0.3578  0.5315
  225SOD    SOD22353   4.235   3.178  15.607  0.4146  0.2618 -0.1085
  226SOD    SOD22354   0.862   4.376  11.720  0.2150 -0.0273 -0.0490
  227SOD    SOD22355   4.850   2.417  17.018  0.4223 -0.2952  0.4539
  228SOD    SOD22356   0.194   2.543   6.778  0.0224 -0.0245 -0.2789
  229SOD    SOD22357   4.836   5.986   5.775  0.2231  0.1022  0.0783
  230SOD    SOD22358   4.340   5.212   5.079 -0.0520  0.0690 -0.7475
  231SOD    SOD22359   6.526   4.327   6.730  0.1956  0.0385  0.3698
  232SOD    SOD22360   2.920   0.608  10.804  0.0652  0.0375 -0.2747
  233SOD    SOD22361   4.679   4.505   3.881 -0.5050 -0.5513 -0.1198
  234SOD    SOD22362   2.895   0.180   3.171  0.0689  0.2312  0.1340
  235SOD    SOD22363   0.689   3.650  11.129 -0.1445  0.1592 -0.1826
  236SOD    SOD22364   3.642   3.876   2.749 -0.2057  0.2104  0.3872
  237SOD    SOD22365   1.855   5.411   0.842 -0.3427 -0.6366 -0.1495
  238SOD    SOD22366   0.197   1.327   6.495  0.3101  0.3039 -0.1971
  239SOD    SOD22367   1.468   2.614   3.539 -0.5608  0.0299 -0.1319
  240SOD    SOD22368   0.455   5.676  14.538 -0.2844  0.1976  0.1590
  241SOD    SOD22369   4.717   4.616  15.326 -0.6587 -0.1432 -0.2442
  242SOD    SOD22370   6.004   5.079  12.427 -0.5327  0.4034  0.1665
  243SOD    SOD22371   5.212   3.620  12.183  0.1279  0.5429 -0.3924
  244SOD    SOD22372   5.902   3.708  13.168 -0.0232 -0.1312 -0.0932
  245SOD    SOD22373   4.478   5.320  11.692  0.1588  0.7197  0.2002
  246SOD    SOD22374   4.442   1.695   3.367  0.0752  0.1314  0.3233
  247SOD    SOD22375   2.797   4.019  12.428 -0.7918 -0.0834 -0.5179
  248SOD    SOD22376   6.056   2.128  15.772 -0.2686 -0.3339  0.3890
  249SOD    SOD22377   6.366   6.517  10.547 -0.1136 -0.4542  0.5066
  250SOD    SOD22378   0.644   1.855   4.985  0.0204  0.4494  0.4275
  251SOD    SOD22379   0.479   3.679  17.343 -0.3340 -0.5417 -0.2151
  252SOD    SOD22380   3.823   1.212   1.290 -0.5721 -0.2342 -0.2397
  253SOD    SOD22381   3.258   4.862   4.644 -0.0104  0.4833 -0.4774
  254SOD    SOD22382   6.530   6.729  12.943  0.4042  0.3884  0.1609
  255SOD    SOD22383   4.079   5.030  14.862 -0.1433  0.3375  0.6056
  256SOD    SOD22384   1.501   4.357  11.158 -0.3415  0.4091  0.1889
  257SOD    SOD22385   3.205   5.328  16.968  0.1968 -0.0494  0.2211
  258SOD    SOD22386   1.279   5.435  10.857 -0.3920  0.4681  0.0430
  259SOD    SOD22387   3.611   0.688   0.847 -0.1528 -0.6423 -0.2900
  260SOD    SOD22388   0.712   6.345   0.185  0.5517  0.5007  0.1473
  261SOD    SOD22389   3.297   0.229  16.291 -0.4177  0.3924 -0.0423
  262SOD    SOD22390   4.889   0.391  14.244 -0.6927 -0.0453  0.1561
  263SOD    SOD22391   0.256   2.143  14.253  0.2219 -0.4268  0.0972
  264SOD    SOD22392   5.400   1.965   6.197  0.2935  0.2688  0.1031
  265SOD    SOD22393   1.961   3.526   4.287 -0.3273 -0.0308  0.3391
  266CLA    CLA22394   0.446   2.015   5.558  0.1287 -0.2792  0.1713
  267CLA    CLA22395   0.188   4.498  16.255 -0.1569  0.3110  0.2856
  268CLA    CLA22396   3.196   4.975  11.255  0.0072 -0.0198 -0.3402
  269CLA    CLA22397   3.628   6.538  11.534  0.2559 -0.5793  0.0883
  270CLA    CLA22398   6.791   6.375  13.772 -0.3525 -0.1053  0.0202
  271CLA    CLA22399   3.784   6.642  12.182  0.0022 -0.4688  0.4292
  272CLA    CLA22400   4.363   5.666  15.544 -0.1185 -0.5632  0.2752
  273CLA    CLA22401   6.294   1.912   2.795 -0.2736 -0.0538  0.6624
  274CLA    CLA22402   1.789   5.406  13.822  0.0015 -0.3345  0.0349
  275CLA    CLA22403   6.262   4.719  14.834 -0.2251 -0.1205  0.3063
  276CLA    CLA22404   2.891   4.110   4.658  0.0762  0.2153  0.1724
  277CLA    CLA22405   2.982   5.662   0.128  0.1515  0.3244  0.0240
  278CLA    CLA22406   1.219   1.236  15.201  0.3526  0.0209 -0.0824
  279CLA    CLA22407   4.305   2.911   4.130  0.0943 -0.0454  0.2431
  280CLA    CLA22408   4.305   4.387   3.459  0.3814 -0.2085 -0.1733
  281CLA    CLA22409   2.058   5.847   0.273  0.3736  0.6195  0.4918
  282CLA    CLA22410   4.935   6.429  16.738 -0.1246  0.1408 -0.2491
  283CLA    CLA22411   3.992   1.539  13.800 -0.0074  0.0554 -0.2134
  284CLA    CLA22412   6.668   2.997   0.919 -0.1846 -0.0148  0.1316
  285CLA    CLA22413   0.711   0.172   0.365  0.1269 -0.2204 -0.2644
  286CLA    CLA22414   6.275   4.736   3.517 -0.2771 -0.4488  0.0029
  287CLA    CLA22415   3.684   3.036  13.228  0.3347 -0.0380  0.0046
  288CLA    CLA22416   2.864   3.916   0.211 -0.3706 -0.2017  0.0909
  289CLA    CLA22417   5.347   6.111  15.955  0.4317  0.2753  0.0811
  290CLA    CLA22418   4.474   6.458  11.923  0.2584  0.4616 -0.7480
  291CLA    CLA22419   2.351   0.384   2.901  0.2120  0.1181  0.0018
  292CLA    CLA22420   1.601   3.116  11.564 -0.1835 -0.2598  0.2209
  293CLA    CLA22421   4.164   5.300   3.681  0.1253 -0.0638  0.1620
  294CLA    CLA22422   6.268   3.932  12.185  0.1838  0.0710 -0.3163
  295CLA    CLA22423   0.773   4.205  13.818 -0.1690 -0.1155  0.5021
  296CLA    CLA22424   3.076   1.196  14.410  0.0777 -0.2408 -0.3705
  297CLA    CLA22425   4.933   1.347   4.590 -0.0565 -0.1439 -0.0743
  298CLA    CLA22426   0.591   5.995  11.509 -0.2472  0.0013  0.1074
  299CLA    CLA22427   0.928   0.845   1.794 -0.2389  0.1319 -0.1637
  300CLA    CLA22428   2.860   5.001   3.864  0.3144 -0.1135  0.6141
  301CLA    CLA22429   3.559   1.613   5.115  0.2305 -0.1103 -0.3299
  302CLA    CLA22430   0.401   6.178  13.588 -0.1314 -0.3570  0.1713
  303CLA    CLA22431   4.289   1.714   0.584 -0.0562 -0.0007 -0.0999
  304CLA    CLA22432   3.166   3.271  16.497 -0.2288  0.1709 -0.3121
  305CLA    CLA22433   2.796   3.627  16.528  0.0826 -0.0567  0.0477
  306CLA    CLA22434   3.026   6.106   2.724  0.1057  0.1441 -0.0145
  307CLA    CLA22435   2.303   5.779  16.366 -0.4663 -0.1041 -0.0095
  308CLA    CLA22436   1.333   4.552  11.615 -0.2875 -0.0948  0.2014
  309CLA    CLA22437   3.209   6.474   1.021  0.0799  0.0127 -0.0600
  310CLA    CLA22438   6.040   6.185  11.728  0.1356  0.1934 -0.5611
  311CLA    CLA22439   2.849   4.102  13.261 -0.1177  0.4189 -0.0971
  312CLA    CLA22440   4.347   2.570   0.744 -0.5397  0.0717 -0.0866
  313CLA    CLA22441   6.588   5.469   0.814 -0.3070 -0.3027  0.2599
  314CLA    CLA22442   5.519   5.065   1.059  0.4349  0.2199 -0.0486
  315CLA    CLA22443   3.219   4.497  14.894  0.1082 -0.5130  0.0986
  316CLA    CLA22444   5.958   4.365  12.905 -0.5654 -0.4206 -0.0245
  317CLA    CLA22445   4.850   4.886  13.815  0.4123  0.1046 -0.5281
  318CLA    CLA22446   4.567   3.508   4.253 -0.3525  0.4647  0.3807
  319TIP3   OH222447   2.849   5.377   0.654 -0.1914 -0.0072  0.7898
  319TIP3    H122448   2.901   5.414   0.583 -0.2066 -0.1152  0.7207
  319TIP3    H222449   2.790   5.447   0.681 -0.7531 -0.2138  0.1442
  320TIP3   OH222450   0.422   0.904  15.957 -0.2941  0.1606  0.0639
  320TIP3    H122451   0.516   0.900  15.977 -0.9240 -1.3636  3.3901
  320TIP3    H222452   0.409   0.835  15.893  0.8605  0.5252 -0.5973
  321TIP3   OH222453   2.218   5.759  11.493  0.4599 -0.2513 -0.4090
  321TIP3    H122454   2.124   5.741  11.498  0.5443 -1.0608 -1.5993
  321TIP3    H222455   2.223   5.852  11.469 -0.0293 -0.1812 -0.2592
  322TIP3   OH222456   4.013   5.181   4.109  0.1158  0.0375 -0.2725
  322TIP3    H122457   3.977   5.220   4.029  2.1437  1.9737 -0.3668
  322TIP3    H222458   4.101   5.219   4.116  1.0775 -2.2597  1.3906
  323TIP3   OH222459   3.436   0.494   3.481 -0.0423  0.5231  0.1879
  323TIP3    H122460   3.513   0.520   3.431 -0.7591  0.5378 -0.9563
  323TIP3    H222461   3.362   0.531   3.433 -0.7503  0.8793  1.4961
  324TIP3   OH222462   6.175   4.505   1.914  0.8395  0.1208  0.4826
  324TIP3    H122463   6.153   4.564   1.987 -1.8824 -1.7357  1.3439
  324TIP3    H222464   6.100   4.511   1.855  2.7886  1.2431 -2.1040
  325TIP3   OH222465   3.335   0.342  16.894  0.4571 -0.2343  0.0890
  325TIP3    H122466   3.409   0.283  16.880  1.0584  0.6297 -0.4908
  325TIP3    H222467   3.264   0.285  16.925  1.1597 -1.1733  0.0225
  326TIP3   OH222468   5.505   5.823   5.142  0.1701  0.5305 -1.1981
  326TIP3    H122469   5.452   5.896   5.110 -0.3866  0.8910  0.4470
  326TIP3    H222470   5.557   5.861   5.213 -0.8815 -0.8622  0.3895
  327TIP3   OH222471   5.678   2.939  12.046 -0.5038  0.2839  0.5319
  327TIP3    H122472   5.676   2.891  11.963 -0.2943  0.7371  0.2609
  327TIP3    H222473   5.761   2.914  12.086  0.0196  1.0822 -0.0170
  328TIP3   OH222474   1.515   4.429   5.091 -0.1067  0.3236  0.0369
  328TIP3    H122475   1.474   4.366   5.151  0.4001 -1.1955 -1.1325
  328TIP3    H222476   1.454   4.502   5.088 -1.1461 -0.4746  0.8315
  329TIP3   OH222477   1.523   3.246   4.853 -0.1484  0.2255  0.0264
  329TIP3    H122478   1.436   3.212   4.832 -0.5063  1.7044 -1.0288
  329TIP3    H222479   1.506   3.330   4.896  0.7458  0.4769 -0.0984
  330TIP3   OH222480   1.226   2.374   1.404  0.3279 -0.1077  0.4367
  330TIP3    H122481   1.281   2.431   1.351  0.2265 -0.2175  0.2109
  330TIP3    H222482   1.221   2.418   1.489 -1.1752  1.1453 -0.2425
  331TIP3   OH222483   5.461   5.554  16.648 -0.1147 -0.5385 -0.0290
  331TIP3    H122484   5.556   5.558  16.664  0.1089 -0.4580 -1.2908
  331TIP3    H222485   5.432   5.644  16.656 -0.0952 -0.5678  0.4009
  332TIP3   OH222486   1.846   5.621  16.235 -0.1175  0.3102  0.0737
  332TIP3    H122487   1.856   5.716  16.236  0.0667  0.3091 -0.9677
  332TIP3    H222488   1.885   5.592  16.318 -0.6527  1.1744  0.6474
  333TIP3   OH222489   4.899   2.275   5.911 -0.1609  0.0907 -0.1364
  333TIP3    H122490   4.858   2.345   5.860 -0.7891 -0.2848 -0.1487
  333TIP3    H222491   4.952   2.227   5.848 -2.7879 -1.8460 -1.0156
  334TIP3   OH222492   1.270   2.879  13.586  0.5355  0.0404 -0.2851
  334TIP3    H122493   1.300   2.803  13.634 -0.7705  0.7641  1.7987
  334TIP3    H222494   1.181   2.894  13.617  0.3587  1.7719 -1.4507
  335TIP3   OH222495   1.834   4.807   0.275  1.1478  0.5466 -0.0334
  335TIP3    H122496   1.756   4.755   0.293  1.7870 -0.4594 -0.0739
  335TIP3    H222497   1.831   4.878   0.339 -0.7533  1.6407 -1.2231
  336TIP3   OH222498   4.548   3.193  17.124 -0.1638  0.2010  0.0433
  336TIP3    H122499   4.495   3.233  17.193  0.0095 -1.1695  1.0153
  336TIP3    H222500   4.547   3.100  17.144  2.1411  0.0553 -0.2188
  337TIP3   OH222501   4.445   1.685  17.057  0.1454  0.2101 -0.1722
  337TIP3    H122502   4.487   1.616  17.109 -1.0870 -0.3887  0.0546
  337TIP3    H222503   4.510   1.756  17.056 -0.0716  0.6043  2.9185
  338TIP3   OH222504   1.211   6.577   4.829 -0.0074 -0.1102 -0.5467
  338TIP3    H122505   1.217   6.501   4.772 -3.1141 -1.1702  0.3293
  338TIP3    H222506   1.191   6.650   4.770 -0.1422 -0.5916 -1.1091
  339TIP3   OH222507   6.324   2.715  13.542  0.2915 -0.2244  0.4632
  339TIP3    H122508   6.247   2.676  13.583  0.4294 -1.6989 -0.6056
  339TIP3    H222509   6.367   2.643  13.496  1.7811  0.7610  0.2098
  340TIP3   OH222510   0.360   3.959  15.847  0.1423  0.7556  0.2007
  340TIP3    H122511   0.454   3.970  15.832  0.4051 -1.2147  0.2188
  340TIP3    H222512   0.340   3.871  15.816 -1.4749  0.6864  1.2846
  341TIP3   OH222513   6.222   1.851   6.236 -0.1499  1.2136  0.3766
  341TIP3    H122514   6.255   1.931   6.277  0.9602  0.8109  0.3011
  341TIP3    H222515   6.300   1.808   6.201 -0.7344  0.1072  0.3911
  342TIP3   OH222516   6.727   0.368  11.323 -0.1460 -0.2174  0.0590
  342TIP3    H122517   6.657   0.422  11.361 -0.1443 -1.0145  1.2653
  342TIP3    H222518   6.806   0.420  11.335 -0.3806  0.2346 -0.3416
  343TIP3   OH222519   0.243   3.225  13.206 -0.2628 -0.1863  0.0103
  343TIP3    H122520   0.247   3.279  13.285 -1.0897  0.9011 -0.6692
  343TIP3    H222521   0.310   3.262  13.148 -0.4982 -0.1916 -0.2677
  344TIP3   OH222522   2.006   4.468   0.775  0.2466  0.4556  0.0421
  344TIP3    H122523   1.918   4.437   0.799  0.0650  1.2490  0.4487
  344TIP3    H222524   1.999   4.490   0.682  0.4638 -0.9717 -0.3326
  345TIP3   OH222525   1.405   5.503   2.846  0.1162  0.1445 -0.3881
  345TIP3    H122526   1.425   5.492   2.753  0.1570  1.4190 -0.5572
  345TIP3    H222527   1.391   5.414   2.879  1.7150 -0.4543 -1.2366
  346TIP3   OH222528   3.807   6.375   5.926 -0.2747  0.3611  0.1326
  346TIP3    H122529   3.722   6.379   5.969 -0.2861  1.9663  0.0284
  346TIP3    H222530   3.846   6.461   5.942 -0.1369  0.9503 -2.7860
  347TIP3   OH222531   6.397   5.467  13.130 -0.6747 -0.4583 -0.1007
  347TIP3    H122532   6.364   5.404  13.065  0.9755 -1.1446 -0.3038
  347TIP3    H222533   6.336   5.459  13.204  0.0616 -3.1170  0.3271
  348TIP3   OH222534   0.591   3.134  15.637 -0.1263  0.5851  0.3090
  348TIP3    H122535   0.527   3.183  15.687 -1.7774 -0.1726 -0.9718
  348TIP3    H222536   0.588   3.045  15.674 -0.8813  0.1874 -0.6612
  349TIP3   OH222537   4.775   4.540  14.877  0.7502  0.5108 -0.8147
  349TIP3    H122538   4.727   4.616  14.910 -0.0348  0.3101 -1.4869
  349TIP3    H222539   4.860   4.544  14.922  0.0067  0.6936  0.6126
  350TIP3   OH222540   0.804   3.042   0.139 -0.4709 -0.0073 -0.2557
  350TIP3    H122541   0.809   3.025   0.233  0.6586  1.7911  0.0539
  350TIP3    H222542   0.713   3.069   0.124 -0.7330 -0.5949  0.2578
  351TIP3   OH222543   2.996   1.123   2.394  0.0797  0.1627  0.0846
  351TIP3    H122544   3.083   1.161   2.381  0.0866  0.2723  0.4509
  351TIP3    H222545   2.993   1.100   2.487  0.1877 -1.0068 -0.1829
  352TIP3   OH222546   6.317   2.172   2.108 -0.0042  0.4161  0.8446
  352TIP3    H122547   6.321   2.174   2.013  0.3788  0.7195  0.8623
  352TIP3    H222548   6.231   2.207   2.130  0.0548  0.7063  0.6169
  353TIP3   OH222549   2.126   4.425   2.762 -0.2226  0.3556  0.2909
  353TIP3    H122550   2.201   4.375   2.729 -0.1875  0.6750 -0.1245
  353TIP3    H222551   2.123   4.503   2.706 -1.3287 -0.0197 -0.1835
  354TIP3   OH222552   5.239   6.158   4.412 -0.3758 -0.1258  0.1278
  354TIP3    H122553   5.195   6.242   4.400  1.7267  1.0927  0.5647
  354TIP3    H222554   5.294   6.169   4.490  1.7341 -1.0715 -1.1254
  355TIP3   OH222555   6.071   3.362   3.313  0.2290  0.2074  0.1764
  355TIP3    H122556   6.016   3.301   3.263 -0.1980  0.8576 -0.1678
  355TIP3    H222557   6.085   3.319   3.397  1.4129 -1.1594 -0.6745
  356TIP3   OH222558   3.104   3.281   5.782  0.4473  0.0844  0.2823
  356TIP3    H122559   3.056   3.318   5.856 -0.5423 -2.9423  1.3134
  356TIP3    H222560   3.043   3.286   5.709  0.2168  0.2264  0.4833
  357TIP3   OH222561   6.197   5.158  13.714 -0.6093 -0.0766  0.2194
  357TIP3    H122562   6.283   5.125  13.686 -0.1767  0.0112  1.3965
  357TIP3    H222563   6.143   5.152  13.635 -0.0379 -1.8840 -0.0866
  358TIP3   OH222564   4.262   1.101   5.870 -0.2683 -0.3998 -0.2441
  358TIP3    H122565   4.198   1.048   5.918 -0.7574 -0.0979 -0.5562
  358TIP3    H222566   4.210   1.172   5.832  0.2079 -0.3140 -0.7355
  359TIP3   OH222567   6.500   1.291  12.358  0.1304  0.1166  0.1943
  359TIP3    H122568   6.521   1.354  12.426  1.7828 -0.3936  0.2085
  359TIP3    H222569   6.562   1.219  12.372 -2.6813 -2.3281  1.1710
  360TIP3   OH222570   3.854   2.914   0.022  0.0572  0.5102 -0.0952
  360TIP3    H122571   3.863   2.826   0.057  1.1253  0.4470 -0.5008
  360TIP3    H222572   3.857   2.903  -0.073  0.3083  0.9940 -0.1477
  361TIP3   OH222573   1.262   3.926   0.478 -0.0142 -0.6368  0.2772
  361TIP3    H122574   1.247   3.983   0.403 -0.5022 -0.9971  0.0973
  361TIP3    H222575   1.285   3.986   0.549  0.6866 -0.3124 -0.2064
  362TIP3   OH222576   1.527   0.816   0.330  0.4017 -0.0269  0.3366
  362TIP3    H122577   1.442   0.820   0.374  1.1689  0.8517  1.8061
  362TIP3    H222578   1.509   0.848   0.242 -0.9615 -0.7738  0.3046
  363TIP3   OH222579   5.884   4.255   4.305 -0.0117  0.0715 -0.1931
  363TIP3    H122580   5.834   4.329   4.268  0.4905  0.7589  0.4794
  363TIP3    H222581   5.834   4.230   4.383  0.8305  0.9639  0.6579
  364TIP3   OH222582   2.757   4.594  13.734 -0.2789 -0.0330  0.4043
  364TIP3    H122583   2.679   4.551  13.768  0.6078 -0.1989  2.3867
  364TIP3    H222584   2.829   4.534  13.756  0.5823  0.8358  0.0439
  365TIP3   OH222585   3.149   1.463  15.596 -0.7415 -0.2782 -0.4419
  365TIP3    H122586   3.198   1.384  15.572 -0.2960 -0.8466  1.9928
  365TIP3    H222587   3.101   1.438  15.675 -1.5279  1.5617 -0.2843
  366TIP3   OH222588   3.132   6.316  16.881 -0.1113  0.2922 -0.6666
  366TIP3    H122589   3.221   6.311  16.916 -0.2342 -0.4922 -0.4631
  366TIP3    H222590   3.077   6.335  16.958  0.1257  3.4740 -1.1246
  367TIP3   OH222591   5.247   5.407   0.068 -0.1736  0.1744 -0.2531
  367TIP3    H122592   5.159   5.379   0.043 -0.4014  1.9668 -1.6783
  367TIP3    H222593   5.233   5.461   0.146 -0.5757  1.6031 -1.2624
  368TIP3   OH222594   3.593   4.438  10.768 -0.0422  0.6447  0.1364
  368TIP3    H122595   3.553   4.428  10.682 -0.9150 -0.4613  0.6525
  368TIP3    H222596   3.665   4.376  10.768  0.1720  0.8907  0.0893
  369TIP3   OH222597   0.137   4.704   3.591 -0.3234  1.3067  0.7136
  369TIP3    H122598   0.080   4.630   3.569  0.9249  0.5935 -0.2130
  369TIP3    H222599   0.084   4.781   3.568 -0.9213  0.6625 -0.1778
  370TIP3   OH222600   4.916   4.208  14.527  0.1609 -0.1209  0.1476
  370TIP3    H122601   4.917   4.207  14.431  1.8821 -1.8150  0.1202
  370TIP3    H222602   4.824   4.197  14.550 -0.2831  0.3439 -1.3090
  371TIP3   OH222603   0.390   4.211  16.346  0.3041 -0.6145 -0.1240
  371TIP3    H122604   0.339   4.291  16.357 -0.3065 -0.8037 -1.4672
  371TIP3    H222605   0.348   4.147  16.404 -1.5199 -0.9897 -1.7577
  372TIP3   OH222606   3.310   5.261   3.764  0.0363  0.3418  0.0370
  372TIP3    H122607   3.220   5.231   3.747  0.0238  1.4029 -2.0744
  372TIP3    H222608   3.356   5.248   3.681  1.5529  0.8245  0.7662
  373TIP3   OH222609   3.877   6.768   3.123 -0.2655 -0.3149  0.6042
  373TIP3    H122610   3.886   6.685   3.171  0.9548  0.6728  2.1752
  373TIP3    H222611   3.808   6.751   3.059  0.3893 -2.7434  0.4347
  374TIP3   OH222612   2.479   0.316   5.646  0.3178 -0.1385 -0.2082
  374TIP3    H122613   2.448   0.309   5.556  1.1269  2.3893 -0.7529
  374TIP3    H222614   2.416   0.373   5.689  0.0386 -1.1828  0.8020
  375TIP3   OH222615   5.585   2.869   4.398  0.1753  0.6909 -0.2088
  375TIP3    H122616   5.558   2.804   4.333  2.1608  0.3091 -0.7201
  375TIP3    H222617   5.521   2.940   4.389 -0.7562 -0.2321 -1.1710
  376TIP3   OH222618   3.789   6.458   4.463  0.1272  0.0811  0.2547
  376TIP3    H122619   3.868   6.427   4.506  0.4939 -0.2222 -0.6147
  376TIP3    H222620   3.815   6.539   4.420 -0.0115 -0.0471 -0.0781
  377TIP3   OH222621   2.035   5.945  16.317 -0.3009 -0.1244  0.3148
  377TIP3    H122622   2.117   5.895  16.322  0.0778  0.5105  0.5888
  377TIP3    H222623   2.061   6.035  16.339 -1.0265  0.1314  0.1325
  378TIP3   OH222624   1.465   5.495   3.137  0.1152  0.3055  0.0582
  378TIP3    H122625   1.437   5.420   3.084 -0.6432  0.2597  0.5033
  378TIP3    H222626   1.385   5.523   3.183  0.7441  0.3679  1.1464
  379TIP3   OH222627   2.992   3.030   2.395  0.3096 -0.0141  0.2998
  379TIP3    H122628   2.993   3.025   2.491  1.5630 -0.0781  0.2988
  379TIP3    H222629   2.915   2.980   2.369  0.7717 -1.2309  1.2098
  380TIP3   OH222630   5.352   5.060   0.780 -0.1862 -0.0029 -0.2034
  380TIP3    H122631   5.359   5.154   0.768 -0.5009  0.2269  1.1950
  380TIP3    H222632   5.402   5.042   0.860 -2.0679 -0.6452  0.9042
  381TIP3   OH222633   3.502   4.571  14.993  0.1657  0.3214  0.1960
  381TIP3    H122634   3.410   4.545  14.980  0.0642  0.9992 -0.4754
  381TIP3    H222635   3.515   4.564  15.088 -0.4044 -0.3469  0.2396
  382TIP3   OH222636   4.547   3.594   0.349  0.7434  0.2456 -0.1047
  382TIP3    H122637   4.458   3.559   0.348  1.2894 -1.2209  0.5436
  382TIP3    H222638   4.583   3.570   0.263  0.4826  0.9558 -0.4188
  383TIP3   OH222639   5.895   6.397   3.355 -0.4252  0.8505 -0.1461
  383TIP3    H122640   5.880   6.305   3.377 -1.0200  1.0985  0.5113
  383TIP3    H222641   5.979   6.396   3.309 -0.3939 -0.0119 -0.1033
  384TIP3   OH222642   0.891   4.686   3.689  0.0104 -0.6813 -0.2758
  384TIP3    H122643   0.909   4.592   3.682  1.2845 -0.4133 -0.7981
  384TIP3    H222644   0.837   4.706   3.613  1.1960 -0.6700 -1.1318
  385TIP3   OH222645   0.721   1.813  12.731  0.0070 -0.4138  0.5981
  385TIP3    H122646   0.785   1.879  12.758 -0.4484  0.3540 -0.1293
  385TIP3    H222647   0.636   1.857  12.739 -0.1912 -0.2862 -1.5216
  386TIP3   OH222648   1.531   4.677  15.147 -0.4815  0.4328 -0.6187
  386TIP3    H122649   1.575   4.745  15.198 -0.3945  0.5980 -0.9082
  386TIP3    H222650   1.588   4.601  15.155 -1.1455  0.0377  0.6429
  387TIP3   OH222651   4.773   2.235  13.801  0.1651 -0.4625 -0.8163
  387TIP3    H122652   4.728   2.220  13.718 -2.8584  1.8040  0.2334
  387TIP3    H222653   4.840   2.301  13.780  0.2508 -0.7974 -1.6414
  388TIP3   OH222654   6.550   2.682  12.984  0.1947  0.1990  0.3209
  388TIP3    H122655   6.637   2.722  12.976  0.1267  0.5022  0.9594
  388TIP3    H222656   6.504   2.740  13.045 -0.7197  0.4708 -0.6113
  389TIP3   OH222657   2.844   1.135  14.977 -0.4068 -0.4109 -0.5127
  389TIP3    H122658   2.933   1.106  14.957 -0.0041 -0.1882  0.8535
  389TIP3    H222659   2.807   1.063  15.030 -0.5214  0.1316  0.1606
  390TIP3   OH222660   3.462   2.964  12.259  0.5000  0.1303  0.7962
  390TIP3    H122661   3.390   2.965  12.321  0.4426 -1.4313  0.7911
  390TIP3    H222662   3.530   3.020  12.299 -0.0152  0.1599  1.6412
  391TIP3   OH222663   5.051   0.841   4.105 -0.5359  0.7664 -0.1642
  391TIP3    H122664   5.102   0.874   4.031  0.6594  0.9091  0.6951
  391TIP3    H222665   4.975   0.798   4.065 -0.7032  2.1410 -1.4043
  392TIP3   OH222666   1.389   5.291  14.321 -0.5776  0.1697 -0.1723
  392TIP3    H122667   1.463   5.350  14.317 -1.8438  2.0126  1.5660
  392TIP3    H222668   1.401   5.242  14.402 -0.2399 -1.0199 -0.9168
  393TIP3   OH222669   4.890   0.809  11.407 -0.3934  0.1445 -0.2781
  393TIP3    H122670   4.970   0.776  11.366 -0.3844 -0.7811  0.4619
  393TIP3    H222671   4.824   0.802  11.338  0.1419  0.8684 -0.8775
  394TIP3   OH222672   4.055   1.403   3.783 -0.1885  0.1522 -0.0251
  394TIP3    H122673   4.138   1.405   3.736  0.2125 -1.0926  0.5797
  394TIP3    H222674   3.989   1.389   3.716  0.1220  0.7568 -0.4672
  395TIP3   OH222675   3.248   6.445  15.501  0.7821  0.1716 -0.1825
  395TIP3    H122676   3.175   6.401  15.457  0.7579  0.0389 -0.0126
  395TIP3    H222677   3.287   6.501  15.434 -0.2326  1.1877  0.0499
  396TIP3   OH222678   1.442   0.756  14.278  0.3983 -0.0945  0.5166
  396TIP3    H122679   1.366   0.734  14.333 -1.0295 -0.1972 -1.3899
  396TIP3    H222680   1.404   0.799  14.202  2.4321  1.2489  0.1952
  397TIP3   OH222681   6.430   3.546   4.888  0.1476 -0.0474  0.7725
  397TIP3    H122682   6.485   3.620   4.861 -0.1136 -0.1382 -0.0401
  397TIP3    H222683   6.354   3.587   4.929  0.2751  0.1212  0.8396
  398TIP3   OH222684   3.629   5.959   0.102  0.0623  0.6930  0.3589
  398TIP3    H122685   3.671   5.926   0.023  0.3804  0.9335  0.4249
  398TIP3    H222686   3.688   5.933   0.173 -0.7811 -0.5195  0.6443
  399TIP3   OH222687   1.866   2.006   4.540 -0.4477 -0.0909 -0.2251
  399TIP3    H122688   1.836   2.084   4.587  1.4033  0.9398 -0.6966
  399TIP3    H222689   1.961   2.014   4.536 -0.3537 -1.3672 -2.0320
  400TIP3   OH222690   5.455   5.058   0.477 -0.3645 -0.5423 -0.1850
  400TIP3    H122691   5.486   5.149   0.470 -3.7873  0.6756 -1.3987
  400TIP3    H222692   5.419   5.053   0.565  2.9763 -2.0175  1.2946
  401TIP3   OH222693   1.844   5.604   0.956 -0.6009  0.0556  0.1505
  401TIP3    H122694   1.918   5.660   0.980  0.6443 -1.4795  0.0644
  401TIP3    H222695   1.782   5.663   0.915  0.5885  1.3997  0.1948
  402TIP3   OH222696   2.060   6.132   3.976 -0.7591 -0.1858  0.2195
  402TIP3    H122697   2.060   6.227   3.965 -1.0817 -0.1174  0.7379
  402TIP3    H222698   1.998   6.100   3.911 -0.3279 -0.0855 -0.2484
  403TIP3   OH222699   2.442   3.569   4.256 -0.1307 -0.1115  0.0502
  403TIP3    H122700   2.394   3.535   4.331  0.2778 -1.0789 -0.1067
  403TIP3    H222701   2.473   3.655   4.284 -0.3888 -0.2591  0.8074
  404TIP3   OH222702   0.076   1.881  15.167 -0.5685  0.6613  0.1601
  404TIP3    H122703  -0.017   1.865  15.153 -0.4050  0.4630 -0.7480
  404TIP3    H222704   0.096   1.954  15.109  0.5134 -1.2975 -2.1047
  405TIP3   OH222705   4.499   6.736   2.272 -0.0469  0.0697  0.4520
  405TIP3    H122706   4.475   6.657   2.224 -0.7798  1.0494 -0.8578
  405TIP3    H222707   4.526   6.704   2.359  0.0919 -1.6320 -0.1758
  406TIP3   OH222708   5.927   3.792   5.385 -0.2943 -0.9286  0.0176
  406TIP3    H122709   5.968   3.740   5.315  1.1975  0.1934  0.0180
  406TIP3    H222710   5.959   3.752   5.466 -2.2941 -2.4460  0.1325
  407TIP3   OH222711   3.126   3.973  13.341  0.9319 -0.0583  0.0012
  407TIP3    H122712   3.058   4.025  13.299  0.7911  0.0852  0.4008
  407TIP3    H222713   3.192   3.960  13.273  0.1565 -0.8511 -0.6228
  408TIP3   OH222714   0.068   6.261  16.481 -0.2695 -0.0758  0.8250
  408TIP3    H122715   0.065   6.343  16.432 -1.5178  0.4028  1.6706
  408TIP3    H222716   0.021   6.199  16.426 -3.5648  0.9737  2.2551
  409TIP3   OH222717   6.258   6.444   0.324  0.2278 -0.1978  0.4498
  409TIP3    H122718   6.178   6.496   0.314 -1.1868 -2.4992 -1.1492
  409TIP3    H222719   6.303   6.452   0.240  2.0632  1.4916  1.4986
  410TIP3   OH222720   4.111   3.755   0.495 -0.0233  0.1551 -0.5148
  410TIP3    H122721   4.034   3.702   0.477  0.7312 -0.2004 -3.2255
  410TIP3    H222722   4.082   3.845   0.484 -0.3396  0.0949 -0.1889
  411TIP3   OH222723   5.812   4.296  13.756  0.2969 -0.6966 -0.4087
  411TIP3    H122724   5.779   4.281  13.667 -1.0886 -0.3696  0.0264
  411TIP3    H222725   5.757   4.240  13.812 -0.2504  0.6588  0.4533
  412TIP3   OH222726   1.023   1.322   2.372  0.0332 -0.2658  0.3325
  412TIP3    H122727   0.950   1.316   2.310 -0.9875 -0.2141  1.4901
  412TIP3    H222728   1.049   1.232   2.387  0.6661 -0.2514 -0.5805
  413TIP3   OH222729   0.285   1.249   1.161  0.2729 -0.5131  0.6360
  413TIP3    H122730   0.318   1.325   1.113 -1.0111  0.6437  1.5031
  413TIP3    H222731   0.221   1.285   1.222  0.0419 -2.2390  1.4808
  414TIP3   OH222732   5.426   1.126  15.401  0.0660 -0.1715 -0.4360
  414TIP3    H122733   5.467   1.058  15.348  1.9598 -1.6436  2.6575
  414TIP3    H222734   5.333   1.102  15.403  0.5646 -2.2706 -0.0673
  415TIP3   OH222735   4.218   6.419   6.045 -0.2510  0.0998  0.4541
  415TIP3    H122736   4.202   6.423   6.139  2.1078 -1.1515  0.9817
  415TIP3    H222737   4.310   6.443   6.035 -0.5891  0.7362 -1.6103
  416TIP3   OH222738   5.703   5.195  13.886  0.5962  0.5471 -0.3648
  416TIP3    H122739   5.681   5.178  13.794 -0.4136 -0.1691 -0.0144
  416TIP3    H222740   5.770   5.263  13.883  1.1834 -0.0525 -1.6628
  417TIP3   OH222741   0.333   6.600  17.163  0.3429 -0.3299  0.1460
  417TIP3    H122742   0.389   6.546  17.107 -0.8140  0.2576 -1.6786
  417TIP3    H222743   0.367   6.689  17.153 -0.8466  0.0318 -0.9739
  418TIP3   OH222744   6.255   0.521   5.457  0.6618 -0.1545  0.4904
  418TIP3    H122745   6.232   0.438   5.498 -0.0297 -1.0308 -1.5373
  418TIP3    H222746   6.342   0.505   5.419  0.0871 -0.3298 -0.7956
  419TIP3   OH222747   5.525   6.173  11.808  0.2695 -0.1950 -0.1368
  419TIP3    H122748   5.544   6.079  11.800 -0.2933 -0.1759 -2.0500
  419TIP3    H222749   5.611   6.213  11.820  0.4787 -0.9645  1.2066
  420TIP3   OH222750   1.690   0.929   4.879  0.4881  0.5583  0.4499
  420TIP3    H122751   1.774   0.930   4.832  0.7437 -2.4616  0.6483
  420TIP3    H222752   1.712   0.951   4.969  0.5034  2.9984 -0.0827
  421TIP3   OH222753   2.002   3.485  14.760 -0.6992  0.1123  0.0158
  421TIP3    H122754   2.085   3.469  14.714 -0.9028  0.3077 -0.4227
  421TIP3    H222755   2.028   3.498  14.851 -0.4352 -1.9208  0.2744
  422TIP3   OH222756   5.369   1.423  16.815 -0.4684  0.3382 -0.1713
  422TIP3    H122757   5.358   1.342  16.764 -0.5069  0.1512  0.1329
  422TIP3    H222758   5.305   1.483  16.778  0.4296  0.6669 -1.2682
  423TIP3   OH222759   1.436   0.495   2.549  0.3525 -0.2521  0.3070
  423TIP3    H122760   1.481   0.419   2.512 -2.3494 -1.0770 -1.6220
  423TIP3    H222761   1.408   0.467   2.636 -0.7855 -1.6025 -0.4619
  424TIP3   OH222762   2.555   6.240  15.286 -0.0335 -0.0807 -0.3969
  424TIP3    H122763   2.507   6.259  15.205 -1.8762 -0.1069  0.6234
  424TIP3    H222764   2.600   6.157  15.268 -2.6565 -1.6090 -0.5580
  425TIP3   OH222765   4.125   5.037  12.079 -0.0603  0.4312 -0.0797
  425TIP3    H122766   4.171   4.953  12.091  1.5814  1.1642 -0.9548
  425TIP3    H222767   4.194   5.103  12.084 -1.1515  1.6546 -0.6545
  426TIP3   OH222768   5.300   1.065  16.169  0.1500 -0.1656  0.0949
  426TIP3    H122769   5.344   1.029  16.093 -0.4922  0.5863 -0.6512
  426TIP3    H222770   5.312   1.160  16.162 -0.6985 -0.0170  0.4182
  427TIP3   OH222771   1.365   1.723   3.831 -0.2966  0.5156 -0.2195
  427TIP3    H122772   1.403   1.683   3.753  0.5219 -0.3473  0.5959
  427TIP3    H222773   1.312   1.653   3.870  0.3852  0.4913  0.7048
  428TIP3   OH222774   5.998   5.792  11.368 -0.1549  0.5022 -0.2506
  428TIP3    H122775   6.074   5.847  11.385  0.2687  0.0561 -0.6648
  428TIP3    H222776   5.975   5.810  11.277  0.4980 -0.6117 -0.6536
  429TIP3   OH222777   2.115   4.689   0.548  0.5071  0.2938 -0.2334
  429TIP3    H122778   2.140   4.749   0.477  2.2158 -0.3365 -0.2169
  429TIP3    H222779   2.053   4.629   0.507  1.4831 -0.0724 -1.2331
  430TIP3   OH222780   1.611   0.114  13.180 -0.9150  0.2339 -0.0173
  430TIP3    H122781   1.668   0.052  13.134  0.6244  1.7763 -0.2738
  430TIP3    H222782   1.670   0.181  13.213 -2.6078  2.0970 -0.5974
  431TIP3   OH222783   2.173   0.377  14.718 -0.1400  0.0338  0.3948
  431TIP3    H122784   2.181   0.282  14.708 -0.7565 -0.0555  0.7044
  431TIP3    H222785   2.263   0.409  14.712  0.1754 -0.6551  1.2031
  432TIP3   OH222786   2.086   3.390   5.934  0.5429 -0.3366 -0.5728
  432TIP3    H122787   2.149   3.373   5.864 -0.2686 -0.7700 -1.2288
  432TIP3    H222788   2.022   3.319   5.925  1.4146 -1.5426  1.8288
  433TIP3   OH222789   1.448   6.215   3.376 -0.2232  0.3103  0.7506
  433TIP3    H122790   1.437   6.218   3.470 -1.7438 -0.7617  0.6332
  433TIP3    H222791   1.508   6.287   3.356 -1.5772  1.9316  2.2911
  434TIP3   OH222792   3.645   4.031  14.609  0.1414  0.1657 -0.3180
  434TIP3    H122793   3.730   4.043  14.568 -0.0706 -1.0264 -1.1634
  434TIP3    H222794   3.663   4.036  14.703  1.6724 -2.7952 -0.3403
  435TIP3   OH222795   1.402   4.739   5.348  0.6123 -0.4249 -0.3948
  435TIP3    H122796   1.358   4.679   5.408  0.3675 -0.0676 -0.2154
  435TIP3    H222797   1.352   4.820   5.354 -0.3769 -0.8486 -2.2503
  436TIP3   OH222798   1.434   0.335  13.882  0.1386  0.1689 -0.1828
  436TIP3    H122799   1.500   0.347  13.951  0.6003  0.7664 -0.7112
  436TIP3    H222800   1.444   0.413  13.827 -1.4484  0.5918  0.0779
  437TIP3   OH222801   1.024   4.119  12.097  0.3868  0.5044  1.0061
  437TIP3    H122802   1.044   4.079  12.182 -2.3331  0.0686  1.5428
  437TIP3    H222803   0.981   4.050  12.047  1.4998  0.9072 -0.5927
  438TIP3   OH222804   0.014   4.076  12.766  0.3103  0.2035 -0.7229
  438TIP3    H122805  -0.011   4.117  12.849 -0.6973 -3.5055  1.0256
  438TIP3    H222806  -0.069   4.061  12.721  0.4361 -1.5175 -0.4276
  439TIP3   OH222807   1.818   5.206  13.585 -0.0037  1.0497 -0.0618
  439TIP3    H122808   1.820   5.262  13.663  4.3458 -0.6407  1.3476
  439TIP3    H222809   1.891   5.238  13.532  2.1060 -2.4870  0.3967
  440TIP3   OH222810   1.671   2.919   5.447 -0.2743 -0.5495 -0.8937
  440TIP3    H122811   1.664   2.978   5.522 -2.0849 -0.9613 -0.6768
  440TIP3    H222812   1.581   2.888   5.433  0.2895 -1.6748 -2.2704
  441TIP3   OH222813   1.205   6.667   1.045 -0.1477  0.4891 -0.0478
  441TIP3    H122814   1.202   6.640   0.953 -0.3136  2.6357 -0.7125
  441TIP3    H222815   1.206   6.762   1.043  0.8494  0.5924  2.1686
  442TIP3   OH222816   1.011   2.153   5.037  0.8513  0.4535 -0.2580
  442TIP3    H122817   1.026   2.219   5.105  2.0611  0.9659 -0.9948
  442TIP3    H222818   1.029   2.198   4.955  0.3909 -0.4360 -0.8645
  443TIP3   OH222819   4.333   3.397  13.750 -0.1309  0.5153 -0.0573
  443TIP3    H122820   4.309   3.319  13.800  0.8975 -0.4217 -0.9857
  443TIP3    H222821   4.329   3.468  13.814 -2.9529  0.0746  0.4088
  444TIP3   OH222822   3.408   5.444  12.630 -0.1790  0.1117 -0.3442
  444TIP3    H122823   3.410   5.481  12.719 -0.1364  1.5748 -0.9210
  444TIP3    H222824   3.318   5.411  12.620  0.6936 -3.2615  1.4108
  445TIP3   OH222825   6.191   1.313   1.643 -0.6606 -0.5019  0.2461
  445TIP3    H122826   6.253   1.301   1.715 -0.5193  0.1824  0.2468
  445TIP3    H222827   6.106   1.326   1.686 -0.5807 -0.1198  0.2947
  446TIP3   OH222828   5.983   1.027   5.075 -0.3293 -0.0265  0.5220
  446TIP3    H122829   5.970   1.008   4.982  0.0935  0.0288  0.4481
  446TIP3    H222830   6.048   1.096   5.077  0.1175 -0.4437  0.8753
  447TIP3   OH222831   2.317   0.158   2.109 -0.0144  0.3812  0.0112
  447TIP3    H122832   2.232   0.148   2.067 -0.3676  0.2345  0.7384
  447TIP3    H222833   2.313   0.244   2.151  0.0088  0.1651  0.4584
  448TIP3   OH222834   0.478   2.553  12.698  0.4668 -0.1291 -0.3196
  448TIP3    H122835   0.527   2.617  12.750 -0.1053 -1.7265  2.3916
  448TIP3    H222836   0.408   2.604  12.656  0.6287  1.1812  0.9158
  449TIP3   OH222837   0.605   3.260  12.841 -0.0084 -0.0547 -0.4787
  449TIP3    H122838   0.690   3.246  12.882 -0.0029  1.1777 -0.0215
  449TIP3    H222839   0.619   3.335  12.783 -0.2143 -1.2791 -2.1678
  450TIP3   OH222840   3.059   4.409  16.774 -0.5397 -0.2633 -0.5575
  450TIP3    H122841   3.093   4.431  16.861  0.5138  2.4784 -1.5487
  450TIP3    H222842   2.982   4.355  16.792  0.3182 -0.8006  2.0101
  451TIP3   OH222843   0.957   1.472  15.569  0.0734 -0.4014  0.6014
  451TIP3    H122844   0.900   1.487  15.644 -1.1644  3.1266 -0.8557
  451TIP3    H222845   0.905   1.419  15.509 -0.4043 -0.0031  0.6620
  452TIP3   OH222846   2.729   6.621   4.360 -0.3807 -0.1640  0.3316
  452TIP3    H122847   2.742   6.537   4.317  0.0286  0.3067 -0.4732
  452TIP3    H222848   2.645   6.611   4.406 -1.1638 -0.4617 -1.1105
  453TIP3   OH222849   3.204   2.315   0.787  0.0191 -0.4705  0.1565
  453TIP3    H122850   3.144   2.306   0.712  0.9830  0.4856 -0.7673
  453TIP3    H222851   3.151   2.292   0.863 -0.7574 -2.3744 -0.8820
  454TIP3   OH222852   1.505   3.768   1.956  0.7483  0.3857 -0.4940
  454TIP3    H122853   1.490   3.841   2.015 -0.7788  1.0831 -1.6757
  454TIP3    H222854   1.539   3.808   1.876  0.0230 -0.1853 -1.1072
  455TIP3   OH222855   4.958   5.337  13.868 -0.2319  0.4144 -0.1715
  455TIP3    H122856   5.032   5.387  13.833  0.7409  0.7068  2.0995
  455TIP3    H222857   4.884   5.359  13.811  1.0843  1.2675 -1.6214
  456TIP3   OH222858   0.250   1.776  14.238 -0.2624  0.0497 -0.1240
  456TIP3    H122859   0.318   1.805  14.299 -0.4554 -1.7530  1.0046
  456TIP3    H222860   0.229   1.855  14.187  1.6199  1.0054  0.4770
  457TIP3   OH222861   1.670   5.728  16.552  0.0559 -0.3701 -0.2389
  457TIP3    H122862   1.688   5.810  16.506  0.0316  0.4675  1.1902
  457TIP3    H222863   1.666   5.753  16.644  0.1925 -2.0123  0.2384
  458TIP3   OH222864   3.682   5.338  14.349  0.2802  0.5907 -0.3817
  458TIP3    H122865   3.596   5.310  14.318  1.0860 -1.6679 -0.7660
  458TIP3    H222866   3.687   5.305  14.438  0.8641  0.4651 -0.4604
  459TIP3   OH222867   3.563   0.183   2.344 -0.4925  0.6667  0.2471
  459TIP3    H122868   3.634   0.192   2.408  0.0047 -0.8424 -0.0808
  459TIP3    H222869   3.489   0.229   2.385  0.0380  0.3757  1.5795
  460TIP3   OH222870   3.655   5.244  15.066 -0.2458  0.3599 -0.1368
  460TIP3    H122871   3.668   5.338  15.054  2.3109 -0.0167 -0.7595
  460TIP3    H222872   3.573   5.238  15.116  0.0837  2.9327  0.8762
  461TIP3   OH222873   5.315   1.275   0.240  0.3883  0.0961 -0.3634
  461TIP3    H122874   5.286   1.235   0.322 -1.1046  1.6264 -0.0735
  461TIP3    H222875   5.404   1.243   0.227  1.3118  1.0799  2.7129
  462TIP3   OH222876   2.291   3.451   1.902  0.1506  0.6087  0.6121
  462TIP3    H122877   2.252   3.538   1.908 -3.7530 -1.0411  3.0607
  462TIP3    H222878   2.233   3.403   1.843  2.2268 -0.4181 -0.6956
  463TIP3   OH222879   0.568   3.138   1.612  0.7491 -0.0529 -0.4062
  463TIP3    H122880   0.624   3.191   1.556  0.8699  0.2930  0.0321
  463TIP3    H222881   0.627   3.078   1.656  1.1953  1.9650  1.9632
  464TIP3   OH222882   3.958   3.885   2.986  0.5068 -0.0536  0.0491
  464TIP3    H122883   3.870   3.893   3.022  0.1438  0.5422 -0.9376
  464TIP3    H222884   3.990   3.801   3.020 -1.0028 -0.9943 -0.7334
  465TIP3   OH222885   3.590   5.513  13.518  0.2507  0.2412  0.2496
  465TIP3    H122886   3.662   5.535  13.459 -0.2764 -0.1505 -0.5586
  465TIP3    H222887   3.564   5.424  13.493  2.1001 -1.3130  3.1895
  466TIP3   OH222888   2.818   4.527   3.563 -0.1591 -0.3439  0.2119
  466TIP3    H122889   2.823   4.620   3.586  1.6748 -0.5653  0.9198
  466TIP3    H222890   2.870   4.483   3.631  2.2512 -1.4423 -2.1326
  467TIP3   OH222891   5.483   4.323  12.346  0.4326  0.1466 -0.1014
  467TIP3    H122892   5.508   4.408  12.382  0.3102 -1.3967  4.2399
  467TIP3    H222893   5.552   4.302  12.283  2.0879  2.1753  0.9139
  468TIP3   OH222894   2.192   2.217   1.129  0.3358  0.1799 -0.0078
  468TIP3    H122895   2.264   2.216   1.191 -1.0481  2.8347  1.8172
  468TIP3    H222896   2.211   2.291   1.071 -0.2232  0.0590 -0.3581
  469TIP3   OH222897   2.662   4.300  15.980  0.2473  0.2182 -0.7204
  469TIP3    H122898   2.576   4.265  16.002  0.4877  0.2149  0.2360
  469TIP3    H222899   2.646   4.392  15.959  0.3366  0.9556  2.0515
  470TIP3   OH222900   0.274   3.704  13.604 -0.4395  0.2237 -0.0489
  470TIP3    H122901   0.186   3.741  13.617 -0.4693  0.9283 -1.9807
  470TIP3    H222902   0.280   3.634  13.669 -1.8725  1.0918  1.0937
  471TIP3   OH222903   2.118   5.698  15.278  0.3715 -0.7102 -0.1566
  471TIP3    H122904   2.036   5.654  15.254 -0.9708  0.3512  2.1119
  471TIP3    H222905   2.150   5.648  15.353  2.1666 -1.4324 -1.3406
  472TIP3   OH222906   1.703   2.300   5.079 -0.2347  0.1881 -0.0435
  472TIP3    H122907   1.755   2.326   5.156  0.5868 -0.8605 -0.2120
  472TIP3    H222908   1.650   2.377   5.059 -1.2544  0.1577  2.1926
  473TIP3   OH222909   2.182   4.895   0.919  0.1115  0.2285 -0.2500
  473TIP3    H122910   2.147   4.930   1.001  0.0830  0.1085 -0.2093
  473TIP3    H222911   2.277   4.902   0.928  0.0815  1.5735 -0.8162
  474TIP3   OH222912   5.643   4.155   5.073 -0.1270  0.1492 -0.0979
  474TIP3    H122913   5.658   4.095   4.999  1.0537  1.0682 -0.6246
  474TIP3    H222914   5.666   4.104   5.150  0.7251 -0.1410 -0.5314
  475TIP3   OH222915   5.246   5.343  10.804  0.0851  0.1358 -0.1090
  475TIP3    H122916   5.245   5.438  10.796 -0.0448  0.1431 -0.0086
  475TIP3    H222917   5.314   5.314  10.742 -0.4002  0.2443 -0.7077
  476TIP3   OH222918   3.283   5.862  16.907  0.0937 -0.0189 -0.0346
  476TIP3    H122919   3.328   5.863  16.823  1.0671  0.0150  0.4724
  476TIP3    H222920   3.196   5.826  16.887  0.6320 -0.9071 -0.8920
  477TIP3   OH222921   5.910   0.958   5.764  0.1222  0.0265 -0.3783
  477TIP3    H122922   5.860   1.017   5.820 -1.3346 -0.2757 -1.2877
  477TIP3    H222923   5.929   0.882   5.819  0.3923  0.5523  0.2573
  478TIP3   OH222924   3.937   3.113  11.533 -0.0505 -0.1429 -0.4786
  478TIP3    H122925   3.947   3.100  11.439  1.0789 -0.5909 -0.3164
  478TIP3    H222926   4.023   3.144  11.562  0.2351 -1.9012  0.7015
  479TIP3   OH222927   0.672   2.575  16.034 -0.4343 -0.5333  0.3086
  479TIP3    H122928   0.691   2.514  16.105  0.5615  0.0844  0.5971
  479TIP3    H222929   0.724   2.543  15.960  0.3528  0.1236  0.5585
  480TIP3   OH222930   2.563   4.622   1.845  0.0218 -0.1206 -0.1016
  480TIP3    H122931   2.558   4.580   1.930  1.7845 -0.0378  0.0632
  480TIP3    H222932   2.655   4.619   1.821  0.2185  3.1802 -0.3055
  481TIP3   OH222933   6.509   1.131   1.793 -0.0639  0.6063 -0.4754
  481TIP3    H122934   6.559   1.197   1.840  2.5508 -1.3604 -0.2299
  481TIP3    H222935   6.450   1.094   1.859  0.1701  1.0775  0.0046
  482TIP3   OH222936   2.879   2.788   2.283 -0.0925 -0.1276  0.4384
  482TIP3    H122937   2.788   2.797   2.255 -0.4932 -1.2145  1.3076
  482TIP3    H222938   2.926   2.762   2.204 -0.2567  1.7457 -0.3324
  483TIP3   OH222939   4.278   5.822   0.018 -0.4128  0.0821  0.2564
  483TIP3    H122940   4.217   5.877   0.066  0.7413  1.6594 -0.0256
  483TIP3    H222941   4.237   5.810  -0.068 -1.1263 -0.3695  0.6426
  484TIP3   OH222942   1.832   3.260  15.162 -0.8258 -0.3593  0.2184
  484TIP3    H122943   1.917   3.281  15.200 -0.9513  1.3967 -0.3814
  484TIP3    H222944   1.799   3.188  15.215 -0.7142  1.5103  3.0092
  485TIP3   OH222945   4.133   1.383   2.440 -0.1226  0.0260  0.3082
  485TIP3    H122946   4.171   1.471   2.447  0.8222 -0.4374  1.2176
  485TIP3    H222947   4.085   1.385   2.357 -0.4042  1.5037  0.4688
  486TIP3   OH222948   1.685   3.477  17.086  0.2865  0.0153 -0.1163
  486TIP3    H122949   1.625   3.437  17.023 -0.2246  1.8132 -0.8364
  486TIP3    H222950   1.772   3.461  17.049  0.1712 -1.1472  0.0693
  487TIP3   OH222951   5.956   5.133   4.827 -0.9172  0.1980  0.5209
  487TIP3    H122952   6.035   5.175   4.792 -0.0106 -3.2431 -2.1469
  487TIP3    H222953   5.989   5.061   4.880 -2.1257 -1.7079 -1.1556
  488TIP3   OH222954   0.599   4.573  14.279 -0.4605 -0.8682 -0.0536
  488TIP3    H122955   0.683   4.618  14.291 -1.4920  1.0424  0.3683
  488TIP3    H222956   0.538   4.643  14.255 -2.2687 -1.9633  1.1712
  489TIP3   OH222957   3.270   0.373   1.918  0.5191  0.0280 -0.2478
  489TIP3    H122958   3.339   0.348   1.979  1.5615  2.2404 -0.4314
  489TIP3    H222959   3.189   0.341   1.959  1.4627 -1.0947  0.8167
  490TIP3   OH222960   2.995   2.658  16.010  0.1814  0.3490  0.5020
  490TIP3    H122961   3.009   2.672  15.916 -0.6142 -0.7546  0.1944
  490TIP3    H222962   2.903   2.631  16.016  0.1547  0.6514  1.6387
  491TIP3   OH222963   0.069   0.018   5.140  0.4587 -1.0245  0.1258
  491TIP3    H122964   0.096   0.043   5.229 -0.0449 -0.2095  0.0642
  491TIP3    H222965  -0.023  -0.005   5.149  0.2412 -0.3353 -0.2882
  492TIP3   OH222966   2.060   6.664   5.396 -0.0486 -0.2207  0.1960
  492TIP3    H122967   1.975   6.685   5.432 -1.1072 -1.3613 -1.4695
  492TIP3    H222968   2.095   6.747   5.364 -1.7792 -0.1045 -1.5504
  493TIP3   OH222969   0.286   4.752  15.346  0.6391  0.5638 -0.6822
  493TIP3    H122970   0.358   4.788  15.294  0.1283 -1.7463 -3.1992
  493TIP3    H222971   0.211   4.808  15.323  1.1104  1.6441  0.2902
  494TIP3   OH222972   6.588   3.130  14.654  0.0231  0.9883 -0.4983
  494TIP3    H122973   6.598   3.191  14.728 -0.5407  0.6746 -0.1586
  494TIP3    H222974   6.520   3.069  14.682 -0.6401  1.2300 -1.5273
  495TIP3   OH222975   6.201   5.459  16.766  0.2481 -0.0361  0.0078
  495TIP3    H122976   6.140   5.399  16.723 -0.1304  0.3043  0.0641
  495TIP3    H222977   6.256   5.402  16.820  0.2681 -0.3889 -0.3841
  496TIP3   OH222978   3.805   4.916  14.235 -0.1530 -1.2941 -1.4613
  496TIP3    H122979   3.896   4.886  14.228  1.3773  2.3421  0.0917
  496TIP3    H222980   3.788   4.961  14.153  0.3757  0.0747 -0.8461
  497TIP3   OH222981   5.122   2.433  12.228 -0.0517 -0.0740  0.0846
  497TIP3    H122982   5.178   2.363  12.263 -0.7720 -2.0320 -2.3756
  497TIP3    H222983   5.042   2.427  12.281  1.1426  1.2731  2.1567
  498TIP3   OH222984   3.749   4.889  14.739 -0.4373 -0.5259 -0.3184
  498TIP3    H122985   3.770   4.863  14.650 -0.8085  0.8525 -0.8345
  498TIP3    H222986   3.692   4.965  14.729 -1.7899 -1.2944  1.0791
  499TIP3   OH222987   3.338   4.372  14.619 -0.3075  0.0497 -0.1616
  499TIP3    H122988   3.290   4.407  14.694  0.0771 -0.1022  0.1626
  499TIP3    H222989   3.426   4.409  14.628  0.4008 -1.7041  0.7203
  500TIP3   OH222990   3.929   5.108  13.195  0.0496  0.3221 -0.3092
  500TIP3    H122991   3.950   5.079  13.283 -2.7352 -2.6454 -0.4663
  500TIP3    H222992   3.872   5.184  13.207  1.9592  1.7574  0.2564
  501TIP3   OH222993   3.887   3.814  11.908  0.1012 -0.1753 -0.2300
  501TIP3    H122994   3.926   3.886  11.959  1.2629 -0.4501 -0.6833
  501TIP3    H222995   3.953   3.745  11.912 -0.6588 -0.9212 -0.4784
  502TIP3   OH222996   4.421   3.481   3.186 -0.7614  0.2980  0.4941
  502TIP3    H122997   4.409   3.408   3.247 -1.2952 -0.9435 -1.0380
  502TIP3    H222998   4.349   3.541   3.206 -2.7493 -1.5001 -0.7918
  503TIP3   OH222999   6.740   1.269  15.634 -0.0418  0.2053 -0.4886
  503TIP3    H123000   6.707   1.271  15.545 -1.4897  1.2522  0.0278
  503TIP3    H223001   6.825   1.226  15.628 -1.2709 -2.1694 -1.9666
  504TIP3   OH223002   1.116   2.716  11.337  0.1424 -0.4436  0.8064
  504TIP3    H123003   1.207   2.704  11.312 -0.8050 -1.5523 -2.6986
  504TIP3    H223004   1.086   2.628  11.360 -0.8514 -0.8664 -1.7163
  505TIP3   OH223005   2.168   0.030  11.902  0.0980 -0.5053  0.0199
  505TIP3    H123006   2.167   0.024  11.806 -0.5201  0.9095 -0.0879
  505TIP3    H223007   2.076   0.022  11.927  0.3568 -1.9347  0.6035
  506TIP3   OH223008   1.144   4.554  14.324 -0.0245 -0.3170  0.2820
  506TIP3    H123009   1.058   4.567  14.364 -1.2208 -2.1906 -1.4514
  506TIP3    H223010   1.151   4.624  14.259 -0.5390 -0.5475 -0.0234
  507TIP3   OH223011   4.858   6.474  15.402  0.1046  0.4066 -0.4198
  507TIP3    H123012   4.914   6.515  15.337  0.8743  0.3785  0.2119
  507TIP3    H223013   4.915   6.411  15.446 -0.3053  0.6673  0.5060
  508TIP3   OH223014   1.164   5.285  17.224  0.1790  0.2181 -0.7516
  508TIP3    H123015   1.196   5.326  17.144  1.6228 -0.0054 -0.3178
  508TIP3    H223016   1.087   5.337  17.248 -1.3994 -0.8314 -3.2245
  509TIP3   OH223017   3.001   1.882  13.084  0.4143  0.3654 -0.1101
  509TIP3    H123018   3.088   1.911  13.056 -0.0839  0.5428 -1.5253
  509TIP3    H223019   2.942   1.952  13.058 -0.2392 -0.0060  0.3391
  510TIP3   OH223020   6.768   3.869   3.938 -0.0706 -0.6092  0.1923
  510TIP3    H123021   6.840   3.904   3.886 -1.4842  1.2963 -0.5718
  510TIP3    H223022   6.734   3.796   3.886  0.1119 -0.3149 -0.3406
  511TIP3   OH223023   3.379   3.823  14.557 -0.2536  0.1224 -0.0654
  511TIP3    H123024   3.389   3.826  14.652 -1.0443  2.9522  0.0271
  511TIP3    H223025   3.469   3.822  14.524  0.0297 -0.0928  0.6918
  512TIP3   OH223026   6.378   4.252  11.255  0.3180 -0.2098  0.8488
  512TIP3    H123027   6.306   4.193  11.277 -0.0177 -0.4769 -0.8278
  512TIP3    H223028   6.346   4.300  11.179  1.4579  0.5588  0.8389
  513TIP3   OH223029   2.222   4.826  15.643  0.5991  0.2172  0.1381
  513TIP3    H123030   2.209   4.897  15.707  0.6232  1.6251 -1.3512
  513TIP3    H223031   2.303   4.784  15.671 -0.3604 -0.4565  2.1241
  514TIP3   OH223032   2.980   0.406  12.690 -0.1109 -0.3481  0.0881
  514TIP3    H123033   2.949   0.485  12.733  0.4401  0.0933 -0.3092
  514TIP3    H223034   3.065   0.388  12.731  0.2517 -0.1276 -0.5444
  515TIP3   OH223035   5.686   1.083  16.706  0.0253 -0.5258  0.2508
  515TIP3    H123036   5.777   1.053  16.713 -0.2069 -0.9300  2.4169
  515TIP3    H223037   5.677   1.113  16.616  1.9545 -1.6057 -0.3623
  516TIP3   OH223038   4.241   1.495   4.702 -0.2869  0.2044  0.2491
  516TIP3    H123039   4.332   1.523   4.691  0.1453 -1.8289 -2.4693
  516TIP3    H223040   4.189   1.566   4.666  0.1380  1.4707  1.9983
  517TIP3   OH223041   0.565   2.048  13.775  0.1983 -0.4563 -0.0832
  517TIP3    H123042   0.530   1.968  13.814  1.7160  0.8119  4.5597
  517TIP3    H223043   0.508   2.118  13.807  2.2696  0.8098  1.0800
  518TIP3   OH223044   3.005   3.952   1.408 -0.7475 -0.1784 -0.1817
  518TIP3    H123045   3.085   3.909   1.438 -0.4843  1.1169  1.1050
  518TIP3    H223046   2.935   3.908   1.457 -0.6485 -0.2087 -0.0656
  519TIP3   OH223047   4.569   6.056  13.588  0.4603 -0.4115  0.1063
  519TIP3    H123048   4.616   6.127  13.545  0.2210 -0.4093 -0.1601
  519TIP3    H223049   4.616   6.040  13.670 -0.5640  1.3473  1.1043
  520TIP3   OH223050   1.390   6.017  11.456 -0.2947  0.1274  0.5649
  520TIP3    H123051   1.456   5.994  11.522 -0.0412 -0.9102 -0.0344
  520TIP3    H223052   1.306   5.998  11.498 -0.2002  0.8076  1.0830
  521TIP3   OH223053   5.886   4.997   2.707 -0.0023 -0.0612 -0.3928
  521TIP3    H123054   5.852   5.080   2.741 -1.4787 -0.6651 -0.2948
  521TIP3    H223055   5.943   4.964   2.776 -1.4097 -0.3199  0.6846
  522TIP3   OH223056   4.810   0.689   4.891  0.1966 -0.9258 -0.0297
  522TIP3    H123057   4.721   0.702   4.923  0.1189  0.1106 -0.6092
  522TIP3    H223058   4.866   0.725   4.959  0.1602 -1.2677  0.1821
  523TIP3   OH223059   3.956   4.652   3.013 -0.5374  0.2923 -0.4061
  523TIP3    H123060   3.906   4.710   2.956  0.7703 -1.2656 -3.3528
  523TIP3    H223061   4.008   4.599   2.953  0.1247 -2.2777  2.2363
  524TIP3   OH223062   6.351   3.824  16.867 -0.1306  0.1497 -0.2018
  524TIP3    H123063   6.301   3.745  16.884 -0.1649 -0.0196 -1.0702
  524TIP3    H223064   6.379   3.816  16.776  0.1869  0.9576 -0.1823
  525TIP3   OH223065   4.737   6.648  11.874  0.6647  0.3444 -0.2630
  525TIP3    H123066   4.680   6.575  11.900 -1.8173  1.4574 -2.0818
  525TIP3    H223067   4.742   6.703  11.951  0.0401 -0.2797  0.2424
  526TIP3   OH223068   5.271   2.645   0.945 -0.1885 -0.3373 -0.6652
  526TIP3    H123069   5.343   2.647   1.009 -0.6795 -1.7403 -0.0224
  526TIP3    H223070   5.313   2.616   0.864  0.1082 -0.4631 -0.4719
  527TIP3   OH223071   2.968   4.586  14.073 -0.1337  0.3989  0.4338
  527TIP3    H123072   2.935   4.656  14.017  0.0156 -0.1787 -0.4049
  527TIP3    H223073   2.996   4.518  14.012  0.0791 -0.2360  1.2173
  528TIP3   OH223074   2.909   3.244   4.013 -0.0873  0.2188  0.6592
  528TIP3    H123075   2.951   3.168   4.054  1.5096  0.2757 -0.7903
  528TIP3    H223076   2.914   3.313   4.079 -1.6196 -0.8842  2.0229
  529TIP3   OH223077   5.562   2.248   6.560 -0.1858 -0.0131  0.0476
  529TIP3    H123078   5.586   2.192   6.634 -1.7912  0.2162  0.7879
  529TIP3    H223079   5.620   2.323   6.567  0.7303 -0.7127  0.1378
  530TIP3   OH223080   2.747   5.787  12.336  0.0189  0.2435 -0.5985
  530TIP3    H123081   2.792   5.808  12.255  0.8342 -0.4556 -0.3464
  530TIP3    H223082   2.743   5.691  12.337  5.0651 -0.3110  2.7068
  531TIP3   OH223083   3.359   6.132  15.468 -0.6040  0.4840 -0.2754
  531TIP3    H123084   3.311   6.070  15.522 -1.6115  0.5332 -1.0731
  531TIP3    H223085   3.307   6.212  15.471 -0.5547  0.5585 -1.1104
  532TIP3   OH223086   2.425   5.012  14.658  0.0914 -0.1159  0.1248
  532TIP3    H123087   2.465   5.084  14.707  1.8017  1.4776 -3.3000
  532TIP3    H223088   2.345   5.050  14.620  0.4948 -0.2769 -0.9159
  533TIP3   OH223089   6.210   1.365   1.941  0.6854 -0.3226  0.0545
  533TIP3    H123090   6.190   1.352   2.034 -0.1858  1.8062  0.2149
  533TIP3    H223091   6.305   1.379   1.939  0.5386  0.9897  0.8449
  534TIP3   OH223092   0.133   3.035   5.579 -0.5500 -0.4683  0.1271
  534TIP3    H123093   0.064   3.100   5.594  0.5768  0.7093  0.3345
  534TIP3    H223094   0.161   3.050   5.488  0.4741  0.1073  0.5232
  535TIP3   OH223095   2.355   6.008  15.721 -0.2560 -0.0109 -0.1229
  535TIP3    H123096   2.267   6.045  15.719 -0.2606  0.5908  3.5536
  535TIP3    H223097   2.353   5.945  15.793  2.0580 -0.6782 -0.5492
  536TIP3   OH223098   1.170   2.933  16.595  0.5665 -0.0225  0.0529
  536TIP3    H123099   1.224   2.968  16.525  0.1274 -0.6306 -0.6133
  536TIP3    H223100   1.106   3.001  16.614  0.9592  0.3154  0.1741
  537TIP3   OH223101   4.765   5.360   4.986 -0.4954 -0.2426  0.5350
  537TIP3    H123102   4.850   5.316   4.991  0.1619  1.0440  1.2651
  537TIP3    H223103   4.787   5.453   4.980 -1.8422  0.3345  3.0435
  538TIP3   OH223104   1.242   3.374  16.850  0.4109  0.0491 -0.4003
  538TIP3    H123105   1.275   3.306  16.907 -0.4693  0.2620  0.3987
  538TIP3    H223106   1.205   3.327  16.775  0.7049 -0.2891 -0.3355
  539TIP3   OH223107   4.449   1.523   0.377 -0.0189 -0.0173  0.4731
  539TIP3    H123108   4.413   1.589   0.438  0.4607  1.0077 -0.3171
  539TIP3    H223109   4.372   1.484   0.336 -0.5237 -2.3908  3.2997
  540TIP3   OH223110   1.473   4.577  12.902  0.0745  0.0811  0.6461
  540TIP3    H123111   1.523   4.546  12.978  0.9437 -1.4967 -0.5129
  540TIP3    H223112   1.382   4.556  12.924  0.4988 -2.2551  0.4659
  541TIP3   OH223113   2.416   5.818   2.425  0.1092 -0.5361  0.5415
  541TIP3    H123114   2.451   5.853   2.342  0.3062 -1.5275  0.1984
  541TIP3    H223115   2.492   5.815   2.483 -0.0171  0.1034  0.7492
  542TIP3   OH223116   6.757   2.640   0.954 -0.2201 -0.0715  0.1773
  542TIP3    H123117   6.774   2.728   0.986 -0.9733 -0.1532  0.8110
  542TIP3    H223118   6.830   2.588   0.988 -1.1405 -0.2184  2.0565
  543TIP3   OH223119   4.443   3.398   6.164  0.2346  0.3444  0.4278
  543TIP3    H123120   4.532   3.392   6.130 -0.2311  0.0935 -0.8009
  543TIP3    H223121   4.394   3.444   6.096 -0.2484  1.8974  1.7783
  544TIP3   OH223122   5.557   3.821   0.496  0.3752  0.0033 -0.4110
  544TIP3    H123123   5.485   3.870   0.457  0.1792  0.6589  0.7316
  544TIP3    H223124   5.629   3.885   0.501  0.6284 -0.2825 -0.3821
  545TIP3   OH223125   3.798   6.726   5.979  0.3211  0.1846 -0.0444
  545TIP3    H123126   3.873   6.775   5.945  0.0932  0.3719 -0.2750
  545TIP3    H223127   3.814   6.721   6.074  1.3203 -0.9464 -0.2332
  546TIP3   OH223128   2.715   5.444  13.700  0.2405 -0.6939  0.0950
  546TIP3    H123129   2.644   5.490  13.656  0.9789  1.4855  1.0427
  546TIP3    H223130   2.715   5.357  13.661 -2.6504 -0.6369 -0.2379
  547TIP3   OH223131   0.763   4.265  14.944  0.0949  0.2289  0.1130
  547TIP3    H123132   0.669   4.272  14.962 -0.2201 -0.9133 -0.9192
  547TIP3    H223133   0.773   4.299  14.855  0.6235  0.2008  0.1583
  548TIP3   OH223134   3.962   6.405  10.966 -0.7025 -0.0245  0.7624
  548TIP3    H123135   3.904   6.402  10.890 -0.9260  0.2064  0.9224
  548TIP3    H223136   4.005   6.320  10.966  0.6588  0.6154 -0.6797
  549TIP3   OH223137   0.498   0.120  10.688 -0.5805 -0.3857  0.8629
  549TIP3    H123138   0.446   0.161  10.619  0.7500 -0.7541 -0.4406
  549TIP3    H223139   0.555   0.190  10.720  0.7398 -0.8134 -0.4130
  550TIP3   OH223140   6.220   5.218  11.389 -0.0538 -0.4083 -0.3501
  550TIP3    H123141   6.251   5.306  11.413 -1.3634 -0.2735  1.0147
  550TIP3    H223142   6.223   5.217  11.294  1.5034  0.5406 -0.3374
  551TIP3   OH223143   5.687   0.991  11.512 -0.2608  0.4150 -0.3099
  551TIP3    H123144   5.679   1.074  11.466 -0.9038  0.6178  0.1580
  551TIP3    H223145   5.733   0.934  11.450  0.5812  1.2364 -0.4759
  552TIP3   OH223146   0.133   3.591  13.109 -0.2380 -0.4283  0.5859
  552TIP3    H123147   0.219   3.628  13.087 -0.7646  1.2422  1.1451
  552TIP3    H223148   0.131   3.506  13.064  2.3223 -1.2572  1.8445
  553TIP3   OH223149   4.246   0.110   2.480 -0.4262  0.0497  0.5404
  553TIP3    H123150   4.242   0.016   2.464  1.6292  0.1679 -1.1441
  553TIP3    H223151   4.155   0.138   2.483 -1.0693 -1.7494 -0.6019
  554TIP3   OH223152   4.705   0.719   0.932 -0.0204 -0.1931 -0.5230
  554TIP3    H123153   4.763   0.791   0.955 -1.4093  1.4636 -1.9197
  554TIP3    H223154   4.666   0.745   0.849 -2.0129 -1.6704 -0.1284
  555TIP3   OH223155   0.387   3.696  14.893 -0.4361 -0.4855 -0.3396
  555TIP3    H123156   0.349   3.728  14.975  0.3303 -0.0137 -0.1626
  555TIP3    H223157   0.462   3.753  14.877 -1.0499 -0.0523 -1.8043
  556TIP3   OH223158   2.827   5.018  13.214  0.0751 -0.2769 -0.0278
  556TIP3    H123159   2.806   4.925  13.215 -0.6417 -0.1757  2.7969
  556TIP3    H223160   2.902   5.027  13.273  0.2469  0.9325 -0.3861
  557TIP3   OH223161   3.422   0.410   4.918 -0.0778  0.5732  0.4736
  557TIP3    H123162   3.432   0.364   4.835  0.9808  0.9005  0.3999
  557TIP3    H223163   3.395   0.499   4.893  0.2723  0.6811  0.4642
  558TIP3   OH223164   6.108   5.208   4.611  0.2118  0.8921 -0.1849
  558TIP3    H123165   6.037   5.151   4.580 -0.4229  0.8142  1.3240
  558TIP3    H223166   6.084   5.295   4.581 -0.6368  0.8926  0.4334
  559TIP3   OH223167   0.757   4.020  14.252 -0.1336 -0.3469 -0.3765
  559TIP3    H123168   0.820   3.963  14.208 -1.3512 -0.8809 -1.4974
  559TIP3    H223169   0.708   4.061  14.181  0.4179  1.8117  0.4057
  560TIP3   OH223170   0.820   6.221   3.167  0.4454  0.3331  0.3591
  560TIP3    H123171   0.801   6.248   3.077  2.6606  0.3348 -0.1649
  560TIP3    H223172   0.751   6.263   3.219  0.0920  1.7297 -1.1432
  561TIP3   OH223173   6.306   2.846   4.849  0.2234  0.4431 -0.2641
  561TIP3    H123174   6.362   2.817   4.921  0.7107 -0.1398 -0.8651
  561TIP3    H223175   6.351   2.923   4.813 -0.4785  1.2852  0.6009
  562TIP3   OH223176   4.384   0.485   2.171  0.6468 -0.2639 -0.2974
  562TIP3    H123177   4.318   0.527   2.227  0.8475  0.3049 -0.4825
  562TIP3    H223178   4.403   0.402   2.215  0.9882  0.2841  0.6192
  563TIP3   OH223179   4.892   4.071  12.215  0.5887 -0.1826 -0.6118
  563TIP3    H123180   4.917   4.033  12.299  0.2834 -0.5770 -0.6963
  563TIP3    H223181   4.877   4.163  12.234  0.2275 -0.3278 -0.1678
  564TIP3   OH223182   1.567   4.182   5.923 -0.2546 -0.5143  0.2301
  564TIP3    H123183   1.577   4.251   5.988  1.1606 -0.5790  0.1143
  564TIP3    H223184   1.554   4.102   5.974  1.1943 -0.6204  0.4780
  565TIP3   OH223185   1.871   0.333  12.442 -0.0803  0.2008  0.1805
  565TIP3    H123186   1.797   0.393  12.437 -0.6708 -0.5817 -1.1251
  565TIP3    H223187   1.884   0.303  12.352  0.6817 -1.0364  0.6713
  566TIP3   OH223188   0.526   2.748  12.286  0.1436 -0.4139  0.0303
  566TIP3    H123189   0.475   2.709  12.214 -0.9033 -0.7579  0.9338
  566TIP3    H223190   0.479   2.829  12.307  0.5020 -0.2695  0.2683
  567TIP3   OH223191   5.520   6.374  13.124 -0.3736  0.3095 -0.2616
  567TIP3    H123192   5.447   6.431  13.149 -0.2775  0.4694 -0.3452
  567TIP3    H223193   5.519   6.375  13.028  0.6418  1.4757 -0.2755
  568TIP3   OH223194   0.952   5.388  14.143 -0.1574  0.0766 -0.1860
  568TIP3    H123195   0.938   5.313  14.085 -0.6396 -0.4712  0.6225
  568TIP3    H223196   0.981   5.458  14.085 -1.8466 -0.0910 -1.2825
  569TIP3   OH223197   0.709   3.806   1.238 -0.2599  0.0815  0.4415
  569TIP3    H123198   0.694   3.836   1.328 -0.8622  4.1297 -0.7981
  569TIP3    H223199   0.624   3.773   1.210 -0.3450 -0.2186  1.0366
  570TIP3   OH223200   0.042   3.917  12.039 -0.0014 -0.2827  0.6391
  570TIP3    H123201   0.084   3.945  12.120  0.7712 -0.7565  0.4132
  570TIP3    H223202  -0.044   3.883  12.066 -0.0169  0.1705  1.1710
  571TIP3   OH223203   6.562   0.588  17.246 -0.1674 -0.0705 -0.0034
  571TIP3    H123204   6.467   0.587  17.249 -0.2114  1.4310 -0.1827
  571TIP3    H223205   6.586   0.679  17.265  1.2573 -0.5635  0.7736
  572TIP3   OH223206   6.300   5.294  11.123 -0.3254 -0.3154 -0.7403
  572TIP3    H123207   6.383   5.269  11.162 -0.8540  0.9043  1.3180
  572TIP3    H223208   6.317   5.293  11.029  2.2704  0.6393 -0.3825
  573TIP3   OH223209   0.891   0.337   2.723 -0.0269  0.1108  0.3310
  573TIP3    H123210   0.961   0.287   2.682  0.7058 -1.0287  2.8071
  573TIP3    H223211   0.813   0.282   2.713 -0.5625  1.1401 -1.9433
  574TIP3   OH223212   4.479   4.135  14.225 -0.1026 -0.1454 -1.0019
  574TIP3    H123213   4.388   4.151  14.252  0.4938 -0.5570  1.4835
  574TIP3    H223214   4.502   4.052  14.267  2.0814  1.0491  0.3585
  575TIP3   OH223215   4.356   2.079  15.250  0.2852  0.0152  0.4544
  575TIP3    H123216   4.442   2.098  15.212  0.1570  3.8124  1.6612
  575TIP3    H223217   4.376   2.041  15.336  0.6548 -1.5448 -0.2859
  576TIP3   OH223218   5.726   0.056   6.066  0.0684 -0.8817  0.1765
  576TIP3    H123219   5.798   0.105   6.026  1.2956 -2.5558  0.1872
  576TIP3    H223220   5.647   0.090   6.024  1.1818 -1.6005 -2.7443
  577TIP3   OH223221   2.451   0.353   1.932 -0.1200 -0.7246  0.0838
  577TIP3    H123222   2.382   0.360   1.866  1.1013 -1.4792 -1.3255
  577TIP3    H223223   2.413   0.394   2.010 -1.3784  0.7941 -1.2516
  578TIP3   OH223224   6.327   0.863  14.730 -0.2509 -0.3676 -0.0690
  578TIP3    H123225   6.300   0.953  14.749  0.5854  0.0267 -0.7063
  578TIP3    H223226   6.416   0.857  14.764 -0.8861 -1.4854  1.4972
  579TIP3   OH223227   0.094   4.699  16.502  0.1881  0.5941  0.1166
  579TIP3    H123228   0.013   4.741  16.473  0.5078  3.2056  2.5537
  579TIP3    H223229   0.111   4.632  16.437 -1.7889  2.6063 -2.7171
  580TIP3   OH223230   2.455   6.039   2.684  0.2455 -0.0248  0.4741
  580TIP3    H123231   2.482   6.116   2.634 -0.1804 -1.0349 -1.3774
  580TIP3    H223232   2.536   5.987   2.694  0.1612 -0.2268  0.1004
  581TIP3   OH223233   5.049   5.317   3.871 -0.0663  0.2176 -0.5187
  581TIP3    H123234   5.023   5.408   3.887 -1.5055 -0.3488  0.5755
  581TIP3    H223235   5.070   5.283   3.958  0.6755 -0.4503 -0.9451
  582TIP3   OH223236   6.626   4.026   1.987 -0.1988 -0.4935 -0.1619
  582TIP3    H123237   6.585   4.061   2.066 -1.8296  1.4006 -1.7392
  582TIP3    H223238   6.712   3.995   2.016 -0.5165  0.6473  2.2265
  583TIP3   OH223239   2.342   3.220  15.942 -0.4556  0.0504  1.2128
  583TIP3    H123240   2.423   3.171  15.957 -0.1011 -0.0259 -0.6700
  583TIP3    H223241   2.369   3.294  15.887 -1.5591  0.4366  1.1675
  584TIP3   OH223242   1.352   0.845  15.774 -0.1352 -0.1669  0.0993
  584TIP3    H123243   1.286   0.829  15.707 -0.2730 -2.4795  0.6977
  584TIP3    H223244   1.395   0.761  15.787  3.6642  1.3890 -0.8854
  585TIP3   OH223245   1.321   2.687  16.499 -0.1177  0.2972  0.2003
  585TIP3    H123246   1.267   2.674  16.421 -0.6031  2.5116  0.0873
  585TIP3    H223247   1.293   2.772  16.533  1.1675  0.0872  1.9212
  586TIP3   OH223248   2.755   3.523   2.651  0.3174  0.9449  0.1218
  586TIP3    H123249   2.768   3.544   2.743  0.3276  0.4892  0.2304
  586TIP3    H223250   2.661   3.534   2.636  0.4003  1.5596  0.0423
  587TIP3   OH223251   5.973   2.805  14.516  0.4216 -0.2266  0.6952
  587TIP3    H123252   5.881   2.798  14.541  0.8152 -0.5658  2.1293
  587TIP3    H223253   6.018   2.738  14.568  1.5916  0.4547  0.6118
  588TIP3   OH223254   3.487   6.389   1.653 -0.9549 -1.0618  0.1796
  588TIP3    H123255   3.539   6.401   1.733 -0.7131  1.0133 -0.2358
  588TIP3    H223256   3.543   6.337   1.595 -0.1808 -0.5965  0.5021
  589TIP3   OH223257   5.979   3.062  12.705 -0.1929 -0.5311  0.1674
  589TIP3    H123258   6.034   3.115  12.647 -0.5738  0.0048  0.2876
  589TIP3    H223259   6.041   3.016  12.762  0.1109  1.0441  1.1547
  590TIP3   OH223260   6.456   4.156   2.131 -0.1740  0.1749 -0.2747
  590TIP3    H123261   6.424   4.179   2.218 -0.6460 -0.1448 -0.3607
  590TIP3    H223262   6.379   4.164   2.074 -0.9322 -3.5223 -0.0073
  591TIP3   OH223263   3.977   6.768   0.223 -0.4010  0.0290 -0.3917
  591TIP3    H123264   3.904   6.730   0.174 -0.6155  1.2316 -1.0644
  591TIP3    H223265   4.041   6.792   0.155  0.5077 -0.7715  0.1683
  592TIP3   OH223266   1.390   2.715  11.684  0.3091  0.5611  0.0385
  592TIP3    H123267   1.372   2.622  11.689 -0.6182  0.6063 -1.6403
  592TIP3    H223268   1.369   2.749  11.771  0.6073 -0.7660  0.6468
  593TIP3   OH223269   3.438   4.704   4.547 -0.4099  0.0814  0.6504
  593TIP3    H123270   3.420   4.615   4.519  0.1652 -0.7865  2.8437
  593TIP3    H223271   3.495   4.740   4.479  1.4499 -2.1146  0.9606
  594TIP3   OH223272   2.374   3.298  12.727 -0.0234 -0.1842  0.1394
  594TIP3    H123273   2.446   3.266  12.783  0.8541 -2.3337 -2.0193
  594TIP3    H223274   2.412   3.371  12.678  0.9314 -1.5674 -1.2883
  595TIP3   OH223275   0.027   1.952   5.554  0.3692 -0.7624  0.3152
  595TIP3    H123276  -0.066   1.968   5.535  1.1439  1.4859 -2.3720
  595TIP3    H223277   0.042   1.995   5.638 -0.9521 -0.9101  0.6542
  596TIP3   OH223278   5.519   2.929  13.866 -0.4234 -0.3870 -0.4372
  596TIP3    H123279   5.544   2.836  13.862 -2.0211 -0.8787  0.3418
  596TIP3    H223280   5.602   2.975  13.875  0.5116 -1.6412 -2.0267
  597TIP3   OH223281   0.835   3.275  15.087  0.4856  0.4238  0.4182
  597TIP3    H123282   0.887   3.290  15.008 -0.1133 -1.0264 -0.2926
  597TIP3    H223283   0.871   3.336  15.151  1.7610  0.8208 -0.6217
  598TIP3   OH223284   1.569   5.743   0.110 -0.0236 -0.6182 -0.5301
  598TIP3    H123285   1.597   5.807   0.045 -0.5680 -0.8193 -0.9671
  598TIP3    H223286   1.478   5.766   0.130 -0.4926 -1.7063 -1.2752
  599TIP3   OH223287   3.191   4.946   2.960 -0.2808  0.3228 -0.3418
  599TIP3    H123288   3.155   5.018   2.909  1.4446  1.2587 -0.2993
  599TIP3    H223289   3.205   4.983   3.047 -0.0681 -0.2876 -0.1140
  600TIP3   OH223290   4.425   4.227   5.713  0.3428  0.3096  0.4589
  600TIP3    H123291   4.459   4.146   5.675 -1.6024 -0.1590 -0.3770
  600TIP3    H223292   4.378   4.199   5.792 -1.0831  0.4962 -0.3070
  601TIP3   OH223293   4.970   0.318   0.410  0.0978  0.5006 -0.7445
  601TIP3    H123294   4.893   0.301   0.464 -0.4658 -1.6433 -2.0911
  601TIP3    H223295   5.044   0.295   0.467 -0.1182  3.0785  0.7419
  602TIP3   OH223296   2.835   2.160  13.002 -1.2564  0.1539  0.2104
  602TIP3    H123297   2.845   2.224  12.932 -0.9977 -0.3350 -0.2040
  602TIP3    H223298   2.747   2.176  13.037 -1.6530 -0.0450 -0.6769
  603TIP3   OH223299   6.693   1.893  17.083 -0.4788  0.3079 -0.1422
  603TIP3    H123300   6.679   1.977  17.126  2.7293 -0.0246  1.8659
  603TIP3    H223301   6.747   1.914  17.006 -1.6107  0.2743 -0.9766
  604TIP3   OH223302   2.673   2.813  15.804 -0.4721 -0.2787  0.2612
  604TIP3    H123303   2.592   2.813  15.854  0.0451  0.5669  1.1339
  604TIP3    H223304   2.692   2.720  15.791 -0.3432 -0.5662  2.1521
  605TIP3   OH223305   4.002   6.402   4.976  0.4965  0.3668  0.2164
  605TIP3    H123306   3.944   6.477   4.987 -0.7494 -0.5962  0.4947
  605TIP3    H223307   3.950   6.327   5.005  1.8263 -0.5653  0.2875
  606TIP3   OH223308   3.465   0.702  15.113  0.3797  0.0217  0.5754
  606TIP3    H123309   3.373   0.679  15.109 -0.1404  2.0592 -1.5094
  606TIP3    H223310   3.467   0.785  15.160  1.1592 -0.0972  0.7639
  607TIP3   OH223311   5.434   1.641  11.879  0.0103  0.3015 -0.6360
  607TIP3    H123312   5.355   1.660  11.929  0.7117 -0.6287  0.9225
  607TIP3    H223313   5.410   1.565  11.826  0.6645 -2.1028  2.2246
  608TIP3   OH223314   3.157   2.648  11.115  0.6851 -0.1384 -0.1602
  608TIP3    H123315   3.068   2.616  11.102  0.5136  0.5671 -0.8237
  608TIP3    H223316   3.166   2.721  11.054  1.5847  0.0669  0.1857
  609TIP3   OH223317   5.545   4.553  16.069  0.1176 -0.0824 -0.1568
  609TIP3    H123318   5.606   4.514  16.132 -0.0953  0.7163  0.5603
  609TIP3    H223319   5.458   4.530  16.102 -0.0126 -1.4387 -1.3149
  610TIP3   OH223320   6.395   4.135   4.431 -0.1063  0.1480  0.2815
  610TIP3    H123321   6.366   4.225   4.418  0.4359  0.3496  0.4353
  610TIP3    H223322   6.318   4.081   4.411 -0.3446  0.6301 -0.0921
  611TIP3   OH223323   5.332   2.341  14.986 -0.0236 -0.7809  0.1032
  611TIP3    H123324   5.243   2.374  14.985  0.1859 -0.2136 -0.0846
  611TIP3    H223325   5.332   2.275  15.056  0.0107  0.9402  1.7959
  612TIP3   OH223326   0.806   2.551   3.562  0.2402 -0.3634 -0.7467
  612TIP3    H123327   0.739   2.600   3.515 -1.6609 -1.9352  0.1630
  612TIP3    H223328   0.794   2.577   3.654  0.2237 -1.3570 -0.4548
  613TIP3   OH223329   1.660   4.385  14.233  0.1319 -0.3705  0.3025
  613TIP3    H123330   1.697   4.370  14.320 -1.4306 -1.2315  0.8542
  613TIP3    H223331   1.568   4.406  14.249 -0.0775 -0.0944 -1.1236
  614TIP3   OH223332   1.767   1.756   4.506  0.1343  0.4328 -0.5792
  614TIP3    H123333   1.804   1.843   4.487 -0.5571  0.9797  0.4909
  614TIP3    H223334   1.811   1.728   4.586 -0.7020  0.4677 -0.0895
  615TIP3   OH223335   0.549   4.963  16.395  0.3929  0.1713  0.3023
  615TIP3    H123336   0.591   4.890  16.350  0.8047  0.1224  0.7575
  615TIP3    H223337   0.533   4.930  16.483  0.3182  0.5331  0.4266
  616TIP3   OH223338   3.860   5.667  16.944  0.4594 -0.3082  0.1371
  616TIP3    H123339   3.854   5.663  16.848  1.7928 -2.8012  0.0924
  616TIP3    H223340   3.925   5.601  16.967 -1.1781 -1.1091  2.8881
  617TIP3   OH223341   6.229   4.718   0.901  0.1387  0.1204 -0.0321
  617TIP3    H123342   6.287   4.794   0.891  1.2004 -0.4964  1.1437
  617TIP3    H223343   6.284   4.643   0.877 -0.7455 -0.3287 -0.6847
  618TIP3   OH223344   2.188   6.057  13.124  0.4365  0.2131  0.0180
  618TIP3    H123345   2.147   6.034  13.208 -0.7617 -2.1299 -1.1108
  618TIP3    H223346   2.261   5.996  13.116  2.0863  2.0620  0.4129
  619TIP3   OH223347   4.798   6.641   4.900 -0.0241  0.1654  0.0680
  619TIP3    H123348   4.706   6.662   4.915  0.0229 -0.5293  1.5273
  619TIP3    H223349   4.837   6.637   4.988  1.1307 -0.6817 -0.4457
  620TIP3   OH223350   5.219   3.010  11.133 -0.0421 -0.2113  0.0642
  620TIP3    H123351   5.176   2.925  11.124  1.7071 -0.9512 -2.3220
  620TIP3    H223352   5.262   3.006  11.219 -1.6815 -0.8586  0.9001
  621TIP3   OH223353   0.596   1.230   3.993  0.2276 -0.0276  0.7260
  621TIP3    H123354   0.659   1.185   4.048  0.7887 -2.5457 -1.7102
  621TIP3    H223355   0.520   1.172   3.991  0.5589 -0.5077 -1.7005
  622TIP3   OH223356   3.609   3.079  12.884  0.4056 -0.4444 -0.7485
  622TIP3    H123357   3.640   3.140  12.817 -1.4980  1.2755 -0.1816
  622TIP3    H223358   3.656   3.104  12.964 -0.6404  0.6091 -0.4291
  623TIP3   OH223359   3.226   4.325  15.162 -0.2876 -0.0343 -0.2689
  623TIP3    H123360   3.134   4.314  15.187 -0.2004 -0.2013 -0.0118
  623TIP3    H223361   3.223   4.359  15.073 -0.5817 -2.1991 -1.1486
  624TIP3   OH223362   6.694   2.320  15.365  0.1509 -0.7570 -0.6517
  624TIP3    H123363   6.686   2.230  15.334  0.8970 -0.6125 -1.2824
  624TIP3    H223364   6.604   2.352  15.367 -0.1259 -1.5158 -0.4089
  625TIP3   OH223365   1.065   2.854   4.332 -0.2080 -0.9585 -0.0677
  625TIP3    H123366   1.078   2.867   4.426 -0.2070  1.2738 -0.3378
  625TIP3    H223367   1.152   2.837   4.297 -0.1688 -1.4938  0.2854
  626TIP3   OH223368   3.989   1.842   2.058 -0.2574 -0.0983  0.2027
  626TIP3    H123369   4.001   1.756   2.017 -2.5104  0.8299 -2.7108
  626TIP3    H223370   3.895   1.858   2.052 -0.1811  1.8084  2.4900
  627TIP3   OH223371   3.768   2.125   2.009  0.1531  0.5625  0.4451
  627TIP3    H123372   3.721   2.061   2.063 -0.5048  0.7791  0.1438
  627TIP3    H223373   3.814   2.072   1.944  1.4530  0.2526  1.5639
  628TIP3   OH223374   0.503   1.810   0.186  0.2564  0.2560 -0.1952
  628TIP3    H123375   0.460   1.750   0.125 -1.2962  0.8154  0.2749
  628TIP3    H223376   0.431   1.863   0.220  1.0641 -0.0287  2.1038
  629TIP3   OH223377   1.628   0.708   5.251  0.0758  0.6351  0.1361
  629TIP3    H123378   1.591   0.663   5.327  0.4614 -1.0389 -0.6073
  629TIP3    H223379   1.694   0.766   5.287  1.2006 -1.1131  1.0260
  630TIP3   OH223380   6.001   5.017   4.350 -0.3502 -0.4790 -0.2103
  630TIP3    H123381   5.923   5.063   4.319  0.3463  0.1039 -1.1787
  630TIP3    H223382   5.970   4.930   4.376 -2.0150  0.9948  3.3211
  631TIP3   OH223383   6.414   6.292   1.405 -0.5768 -0.0222  0.4162
  631TIP3    H123384   6.332   6.245   1.420  0.7544 -2.2818  1.1181
  631TIP3    H223385   6.444   6.316   1.492  0.1616 -0.4452  0.2900
  632TIP3   OH223386   1.366   2.052  12.851  0.0923  0.0799 -0.0258
  632TIP3    H123387   1.303   2.066  12.781  0.5604  0.3488 -0.4008
  632TIP3    H223388   1.407   1.968  12.830 -0.9017 -0.6463  0.8200
  633TIP3   OH223389   6.776   1.137  14.855 -0.7045 -0.2525 -0.2723
  633TIP3    H123390   6.859   1.185  14.851 -0.2655 -0.8032  1.4453
  633TIP3    H223391   6.800   1.046  14.838 -1.2432 -0.1800 -1.5417
  634TIP3   OH223392   0.612   0.807   0.925 -0.3073 -0.1862 -0.4476
  634TIP3    H123393   0.676   0.817   0.995 -1.1302 -2.0039  0.6303
  634TIP3    H223394   0.552   0.881   0.936  0.0498  0.0028  0.2516
  635TIP3   OH223395   3.583   4.193   3.431  0.7554  0.1863 -0.4751
  635TIP3    H123396   3.523   4.236   3.493  1.2292  0.7372 -0.3862
  635TIP3    H223397   3.649   4.153   3.487  0.2480 -0.7876 -0.5521
  636TIP3   OH223398   5.342   2.230  13.809 -0.6095  0.0374  0.7811
  636TIP3    H123399   5.282   2.174  13.760  0.0791  0.5126 -0.6553
  636TIP3    H223400   5.307   2.319  13.798  1.1392  0.5440 -1.4207
  637TIP3   OH223401   4.294   5.002  17.286 -0.0527 -0.3722 -0.1169
  637TIP3    H123402   4.374   5.034  17.328 -0.5466 -1.0749  1.4661
  637TIP3    H223403   4.274   4.920  17.332 -1.7575 -0.1399 -0.3615
  638TIP3   OH223404   6.600   4.279  16.512 -0.3128  0.0577 -0.1963
  638TIP3    H123405   6.581   4.209  16.450 -0.9530  2.3416 -2.7912
  638TIP3    H223406   6.693   4.298  16.499 -0.6551  1.1587 -1.2372
  639TIP3   OH223407   3.361   6.778  17.191  0.0669  0.2378  0.2561
  639TIP3    H123408   3.304   6.852  17.210  2.1953  2.4052 -1.3101
  639TIP3    H223409   3.300   6.706  17.170 -2.0715  2.0841 -0.2492
  640TIP3   OH223410   1.284   6.794   5.131 -0.2384  0.3343  0.4562
  640TIP3    H123411   1.265   6.703   5.153 -0.5498  0.6339  1.4822
  640TIP3    H223412   1.204   6.826   5.089 -0.0913  0.1152 -0.0020
  641TIP3   OH223413   2.773   1.901   4.524 -0.0974 -0.6581 -0.6543
  641TIP3    H123414   2.844   1.919   4.586 -1.4557  0.6267  0.6275
  641TIP3    H223415   2.721   1.833   4.566 -1.5086  0.8099  0.1261
  642TIP3   OH223416   6.780   1.199   2.505 -0.6304  0.3135  0.5147
  642TIP3    H123417   6.801   1.258   2.433 -1.8352  0.5483  0.3349
  642TIP3    H223418   6.803   1.112   2.472 -0.8794  0.4517 -0.0308
  643TIP3   OH223419   5.710   5.007  17.293  0.1560 -0.2473  0.2194
  643TIP3    H123420   5.644   5.075  17.277  0.8047  0.0601 -1.3064
  643TIP3    H223421   5.738   5.022  17.383 -0.0888  1.1978  0.0861
  644TIP3   OH223422   5.738   3.357   0.993 -0.1572 -1.1785 -0.1686
  644TIP3    H123423   5.816   3.412   0.982 -0.0232 -1.5194 -1.0101
  644TIP3    H223424   5.718   3.363   1.087  1.0184 -1.2710  0.1087
  645TIP3   OH223425   6.410   1.284   4.196 -0.6863 -0.2346 -0.2958
  645TIP3    H123426   6.320   1.311   4.180 -1.3051 -1.6512  0.6181
  645TIP3    H223427   6.415   1.195   4.160  0.4850 -0.0008 -0.7449
  646TIP3   OH223428   0.338   3.049   2.097  0.0047 -0.2994  0.0031
  646TIP3    H123429   0.327   2.973   2.040  0.2841 -0.9593  0.8168
  646TIP3    H223430   0.374   3.013   2.178 -0.5645  0.6061  0.6650
  647TIP3   OH223431   5.588   1.566   6.029  0.6446  0.7227 -0.3634
  647TIP3    H123432   5.633   1.626   5.969  0.6449 -0.2255 -1.3336
  647TIP3    H223433   5.495   1.585   6.017  0.6625  0.8598 -0.2970
  648TIP3   OH223434   0.643   2.730  11.436 -0.2287  0.2381  0.0131
  648TIP3    H123435   0.674   2.696  11.520  0.9829 -0.5614 -0.7262
  648TIP3    H223436   0.723   2.747  11.387 -0.9185 -1.9857 -2.0199
  649TIP3   OH223437   0.555   4.782   4.027 -0.4353  0.3720  0.2536
  649TIP3    H123438   0.530   4.853   3.968  0.0539  0.5259  0.2198
  649TIP3    H223439   0.523   4.809   4.113 -1.1483  0.1479  0.0593
  650TIP3   OH223440   3.995   6.668  17.039  0.0525 -0.1710 -0.2152
  650TIP3    H123441   4.019   6.642  16.950  1.1402  0.3283 -0.0894
  650TIP3    H223442   4.077   6.696  17.079 -0.4882  0.0068  0.8180
  651TIP3   OH223443   1.874   2.787  13.338  0.1048 -0.2101  0.4350
  651TIP3    H123444   1.860   2.805  13.431  1.2188  1.8849  0.2588
  651TIP3    H223445   1.969   2.776  13.330 -0.0648 -1.2480 -0.3422
  652TIP3   OH223446   2.763   4.867   1.678  0.6943  0.6140  0.2635
  652TIP3    H123447   2.724   4.820   1.605 -0.0173  0.8016  0.5137
  652TIP3    H223448   2.804   4.944   1.639 -0.0561  0.9406  0.1042
  653TIP3   OH223449   5.965   1.764  10.799  0.2376 -0.0700  0.1117
  653TIP3    H123450   5.927   1.680  10.826 -0.0166  0.3063  0.9979
  653TIP3    H223451   6.030   1.783  10.867  0.0836  0.5844  0.0791
  654TIP3   OH223452   3.548   2.829   5.419  0.2813  0.4257  0.6175
  654TIP3    H123453   3.593   2.809   5.501 -0.0424  0.0299  0.7043
  654TIP3    H223454   3.615   2.819   5.351  0.5159  0.6197  0.8185
  655TIP3   OH223455   2.294   3.344   1.462  0.3226 -0.4794 -0.6571
  655TIP3    H123456   2.309   3.267   1.517  0.6251 -0.2124 -0.3535
  655TIP3    H223457   2.374   3.396   1.472  0.2087 -0.2263 -1.0243
  656TIP3   OH223458   6.198   6.359  11.935  0.5772  0.3214 -0.4366
  656TIP3    H123459   6.132   6.313  11.884 -1.5440  1.4835  1.0961
  656TIP3    H223460   6.210   6.442  11.888 -0.3434  0.8102  0.1630
  657TIP3   OH223461   4.784   5.141  15.096 -0.5055 -0.3084 -0.1954
  657TIP3    H123462   4.812   5.233  15.101  1.5375 -0.9179  0.6102
  657TIP3    H223463   4.741   5.125  15.180 -1.0496 -0.0404 -0.4201
  658TIP3   OH223464   1.967   6.136  12.760 -0.2853  0.3789  0.1137
  658TIP3    H123465   1.944   6.096  12.844 -0.4843 -0.5044 -0.3487
  658TIP3    H223466   1.929   6.223  12.764 -1.5370 -0.1582  0.3877
  659TIP3   OH223467   6.095   5.433  14.564  0.0599 -0.1491  0.1733
  659TIP3    H123468   6.189   5.422  14.547 -0.0268 -0.7641  0.0734
  659TIP3    H223469   6.067   5.497  14.499  0.4362  0.1415  0.2903
  660TIP3   OH223470   1.588   1.010  14.304  0.0927  0.2741  0.0483
  660TIP3    H123471   1.603   0.933  14.249  1.0283  1.3614 -1.3048
  660TIP3    H223472   1.499   1.000  14.338  0.8408 -2.3195  1.4693
  661TIP3   OH223473   5.543   3.089   5.902 -0.0605  0.5060 -0.1154
  661TIP3    H123474   5.622   3.036   5.900 -0.5033 -0.2254  1.1683
  661TIP3    H223475   5.553   3.144   5.979 -0.4770  0.9420 -0.3669
  662TIP3   OH223476   2.300   0.810  12.940  0.6561  0.2151  0.6651
  662TIP3    H123477   2.390   0.796  12.969  1.6104 -0.0629 -2.1647
  662TIP3    H223478   2.304   0.885  12.882 -0.4130 -1.2958 -1.4871
  663TIP3   OH223479   0.065   6.353  11.327  0.2706  0.2248  0.2500
  663TIP3    H123480  -0.014   6.317  11.285  1.5675 -0.9062 -1.3750
  663TIP3    H223481   0.072   6.305  11.410  0.6978 -1.7385 -0.8435
  664TIP3   OH223482   2.045   3.711   5.883 -0.0748  0.4450  0.3411
  664TIP3    H123483   2.140   3.702   5.882 -0.2055 -1.3995 -0.5294
  664TIP3    H223484   2.018   3.679   5.797 -1.6039 -0.8651  1.2598
  665TIP3   OH223485   0.353   2.670   4.639 -0.4093 -0.1792  0.2337
  665TIP3    H123486   0.369   2.750   4.589  2.2101 -0.6449  0.1986
  665TIP3    H223487   0.374   2.599   4.578  3.7041 -0.7598  1.9908
  666TIP3   OH223488   5.758   4.375  15.546  0.5246  0.0294  0.3248
  666TIP3    H123489   5.785   4.327  15.625  0.9218  0.3002  0.3597
  666TIP3    H223490   5.792   4.463  15.560 -1.0526  0.6039  0.7069
  667TIP3   OH223491   5.889   6.419   4.665 -0.0797  0.2450 -0.1786
  667TIP3    H123492   5.830   6.362   4.617 -0.5061  1.1897 -0.8149
  667TIP3    H223493   5.977   6.394   4.636 -0.1356 -1.1289  0.7340
  668TIP3   OH223494   6.703   0.062  12.855  0.1691  0.6020 -0.4747
  668TIP3    H123495   6.725   0.140  12.804  0.3554  0.1890 -1.0416
  668TIP3    H223496   6.779   0.048  12.911  0.8607 -0.0971 -1.5356
  669TIP3   OH223497   0.652   6.184   3.986  0.6959 -0.1141  0.0813
  669TIP3    H123498   0.706   6.230   3.922 -0.9195  2.6754  0.5299
  669TIP3    H223499   0.572   6.161   3.938  0.4420 -0.1252  0.5065
  670TIP3   OH223500   5.355   1.516   4.802 -0.6402 -0.5074 -0.3346
  670TIP3    H123501   5.366   1.520   4.897 -0.9964  0.5773 -0.3197
  670TIP3    H223502   5.310   1.598   4.780  3.4536  1.5470 -1.9962
  671TIP3   OH223503   5.789   4.007   5.241  0.2858  0.4009  0.0242
  671TIP3    H123504   5.833   3.938   5.291  1.9254  0.6398 -1.0078
  671TIP3    H223505   5.861   4.058   5.202 -0.9041  0.6833 -1.9316
  672TIP3   OH223506   2.722   0.872   4.956  0.0297 -0.4329 -0.9800
  672TIP3    H123507   2.662   0.928   5.005  2.9643  0.6157  1.7336
  672TIP3    H223508   2.756   0.929   4.886 -0.4969 -0.3725 -1.1956
  673TIP3   OH223509   5.274   5.082   2.066 -0.0005 -0.1058 -0.2086
  673TIP3    H123510   5.305   5.026   2.137 -1.6120 -1.3614 -0.4323
  673TIP3    H223511   5.348   5.139   2.046  1.6768 -2.0388  0.1572
  674TIP3   OH223512   0.665   6.795  16.777 -0.6531  0.0021  0.1872
  674TIP3    H123513   0.733   6.843  16.824 -0.0243  0.0338 -0.7219
  674TIP3    H223514   0.713   6.734  16.721 -1.3764 -0.1563 -0.2782
  675TIP3   OH223515   3.711   5.502   0.538  0.5573 -0.6148  0.2059
  675TIP3    H123516   3.804   5.524   0.550  0.7492 -2.0880  1.7591
  675TIP3    H223517   3.704   5.411   0.567 -1.8790  0.3181  3.0117
  676TIP3   OH223518   3.876   2.840  13.114 -0.0835  0.0843 -0.0080
  676TIP3    H123519   3.857   2.839  13.020 -1.1945 -2.5534  0.1582
  676TIP3    H223520   3.823   2.912  13.149  1.2692  1.9025 -1.5029
  677TIP3   OH223521   6.497   4.582   0.254 -0.0941 -0.0124 -0.0285
  677TIP3    H123522   6.542   4.562   0.173 -1.1580 -0.1071 -0.6102
  677TIP3    H223523   6.488   4.498   0.299  2.1606  0.2779  1.1148
  678TIP3   OH223524   3.862   4.066  11.556  0.0427  0.2692 -0.2694
  678TIP3    H123525   3.799   4.079  11.627  2.7562 -0.2231  2.4302
  678TIP3    H223526   3.894   4.155  11.537 -1.5314  0.5570 -1.8437
  679TIP3   OH223527   4.719   3.029   0.413 -0.1193 -0.8339 -0.6229
  679TIP3    H123528   4.802   3.031   0.365  1.1048  1.6042  1.3346
  679TIP3    H223529   4.745   3.022   0.505 -2.2261 -2.1916 -0.0685
  680TIP3   OH223530   2.782   5.545  14.945 -0.0923 -0.0208  0.7466
  680TIP3    H123531   2.735   5.517  14.866 -2.3363  0.0484  1.9861
  680TIP3    H223532   2.759   5.637  14.955  3.2742  1.1054 -0.5535
  681TIP3   OH223533   3.361   5.209   1.946  0.0410 -0.4198  0.6064
  681TIP3    H123534   3.427   5.139   1.948  1.8304  1.2036  0.4592
  681TIP3    H223535   3.384   5.267   2.018 -0.8953  0.4989  0.2027
  682TIP3   OH223536   3.672   3.405   0.892 -0.2707 -0.0880 -0.0098
  682TIP3    H123537   3.599   3.463   0.872 -1.5093 -1.2917  0.8281
  682TIP3    H223538   3.670   3.340   0.822 -1.0333 -1.0279  0.8526
  683TIP3   OH223539   4.807   4.817  15.443 -0.3119  0.0273  0.3051
  683TIP3    H123540   4.891   4.773  15.457 -0.8016 -0.7220  0.9324
  683TIP3    H223541   4.776   4.838  15.531 -1.1747 -0.4335  0.1196
  684TIP3   OH223542   1.493   3.834   5.733  0.0662  0.1325 -0.0541
  684TIP3    H123543   1.455   3.779   5.665 -0.5674 -0.6481  0.8981
  684TIP3    H223544   1.579   3.795   5.750  0.1553  0.2262 -0.2866
  685TIP3   OH223545   2.421   4.392  13.259  0.4320 -0.0417  0.0412
  685TIP3    H123546   2.401   4.459  13.193 -0.1899 -1.0463 -0.8145
  685TIP3    H223547   2.488   4.338  13.219 -2.0318 -2.4779 -1.1043
  686TIP3   OH223548   0.954   4.443  17.031  0.4419 -0.3249  0.2107
  686TIP3    H123549   0.894   4.517  17.020 -0.0773 -0.8572 -0.5857
  686TIP3    H223550   1.041   4.481  17.016  0.1468  0.0447 -0.6118
  687TIP3   OH223551   4.804   2.593   5.258  0.4023  0.3800 -0.4985
  687TIP3    H123552   4.832   2.684   5.246  0.0335  1.3376  3.9319
  687TIP3    H223553   4.728   2.584   5.201  1.4271  2.2663 -2.2909
  688TIP3   OH223554   5.464   6.365  12.729  0.1376  0.3792  0.1709
  688TIP3    H123555   5.423   6.336  12.810 -1.8820  0.9722 -0.5791
  688TIP3    H223556   5.477   6.285  12.678  1.2072  0.0318  0.9680
  689TIP3   OH223557   6.765   0.026   4.762  0.8408  0.1538 -0.2244
  689TIP3    H123558   6.730   0.102   4.809  0.6013  0.7856 -1.3673
  689TIP3    H223559   6.857   0.021   4.788  1.2949  1.8558 -1.3462
  690TIP3   OH223560   3.070   5.299  15.350 -0.2107 -0.3496  0.0571
  690TIP3    H123561   3.108   5.241  15.417 -1.7595 -0.8375  0.5617
  690TIP3    H223562   3.054   5.381  15.396  1.0622  0.1714 -0.4011
  691TIP3   OH223563   0.456   4.784   0.211 -0.3895 -0.1338  0.1955
  691TIP3    H123564   0.450   4.706   0.266  1.1519  0.1427  0.8121
  691TIP3    H223565   0.437   4.857   0.269  0.7912  0.1278  0.2732
  692TIP3   OH223566   4.692   4.541  17.174 -0.0733  0.4870  0.0559
  692TIP3    H123567   4.730   4.471  17.227 -0.4266 -1.0611 -1.6456
  692TIP3    H223568   4.623   4.579  17.229  0.5711 -0.0206  1.2565
  693TIP3   OH223569   4.632   0.412  17.038 -0.1412  0.9559 -0.5308
  693TIP3    H123570   4.704   0.371  17.084 -2.3501 -0.6871  1.7417
  693TIP3    H223571   4.635   0.373  16.950 -0.5280 -2.2073  0.7211
  694TIP3   OH223572   2.412   5.122   1.831 -0.0997  0.2846  0.2703
  694TIP3    H123573   2.401   5.030   1.855 -1.2015  0.4551  0.4977
  694TIP3    H223574   2.457   5.161   1.906  0.6668 -0.1283  0.0316
  695TIP3   OH223575   6.186   2.302  15.734  0.0816 -0.6529 -0.6621
  695TIP3    H123576   6.181   2.379  15.678 -0.0497  0.0698  0.3231
  695TIP3    H223577   6.236   2.330  15.811 -0.9363 -1.1981  0.2409
  696TIP3   OH223578   4.804   2.992   5.426  0.0644  0.2523 -0.1547
  696TIP3    H123579   4.716   3.019   5.401 -0.3787 -0.1723  0.8700
  696TIP3    H223580   4.809   3.011   5.520  2.1661  3.2043 -0.7134
  697TIP3   OH223581   1.096   3.651  15.012  0.0043 -0.1486 -0.3502
  697TIP3    H123582   1.042   3.706  14.955  0.1902 -0.1378 -0.5179
  697TIP3    H223583   1.158   3.713  15.052 -0.7655  0.0068  0.6375
  698TIP3   OH223584   0.229   3.871   1.010 -0.2400 -0.0017 -0.4990
  698TIP3    H123585   0.172   3.946   1.024  1.6699  1.2304  1.1984
  698TIP3    H223586   0.182   3.797   1.050 -1.4384  0.5851 -0.7943
  699TIP3   OH223587   1.445   3.272   1.822  0.7207 -0.2930  0.2636
  699TIP3    H123588   1.441   3.364   1.797  1.0810 -0.3970 -0.1886
  699TIP3    H223589   1.534   3.245   1.800  0.7165 -0.6678  0.6884
  700TIP3   OH223590   6.763   0.728   1.204 -0.0609 -0.1250  0.7340
  700TIP3    H123591   6.673   0.759   1.187 -0.3556 -0.7978  1.0422
  700TIP3    H223592   6.771   0.649   1.151  1.5440  1.7339 -2.0645
  701TIP3   OH223593   5.696   3.739  13.539  0.1883 -0.2006 -0.2980
  701TIP3    H123594   5.623   3.701  13.490 -0.6162  0.5441  0.2756
  701TIP3    H223595   5.663   3.747  13.628  2.2338 -3.2623  0.9182
  702TIP3   OH223596   5.138   1.681  17.229 -0.0910 -0.1327  0.1985
  702TIP3    H123597   5.134   1.629  17.309 -0.7357 -0.9548 -0.3452
  702TIP3    H223598   5.157   1.618  17.160 -3.1936 -0.1234 -0.8239
  703TIP3   OH223599   5.146   5.103   2.680  0.6320 -0.2626  0.1705
  703TIP3    H123600   5.183   5.141   2.760  0.7436 -0.0910  0.0371
  703TIP3    H223601   5.098   5.175   2.640 -0.6974 -0.7303  0.8564
  704TIP3   OH223602   0.426   3.786   1.841  0.9935 -0.4152 -0.4478
  704TIP3    H123603   0.348   3.798   1.787 -0.1338 -0.9238  1.0071
  704TIP3    H223604   0.398   3.728   1.912  1.9223  1.5140  1.6384
  705TIP3   OH223605   5.549   1.982  15.511 -0.3781 -0.3803 -0.3694
  705TIP3    H123606   5.527   1.921  15.440  0.2584 -0.2336 -0.6957
  705TIP3    H223607   5.580   2.061  15.466 -0.8617  0.0605  0.0598
  706TIP3   OH223608   1.780   4.075  14.643  0.1360  0.0565  0.2076
  706TIP3    H123609   1.826   3.993  14.627  0.8750  0.5963 -0.4994
  706TIP3    H223610   1.787   4.123  14.561 -1.0723  0.4568  0.3271
  707TIP3   OH223611   0.545   0.159   5.935  0.3296  0.0950  0.0543
  707TIP3    H123612   0.586   0.086   5.887 -0.2315  0.3841 -0.8857
  707TIP3    H223613   0.602   0.172   6.011  0.6981 -1.0173 -0.0142
  708TIP3   OH223614   0.995   5.103  13.450  0.5568 -0.1687 -0.4548
  708TIP3    H123615   1.085   5.129  13.428  0.7006  0.1751  0.5093
  708TIP3    H223616   0.957   5.077  13.366  0.8807  1.7662 -1.2609
  709TIP3   OH223617   0.230   1.789   5.452 -0.1792 -0.6136  0.3079
  709TIP3    H123618   0.157   1.830   5.499 -1.4625  0.0866 -2.1092
  709TIP3    H223619   0.299   1.856   5.453 -0.7283 -0.0287 -0.0169
  710TIP3   OH223620   4.233   3.666   3.309 -0.2750  0.2094  0.9838
  710TIP3    H123621   4.163   3.657   3.243  0.6944 -2.0370  0.1579
  710TIP3    H223622   4.186   3.678   3.392 -1.7360 -1.7549  0.5325
  711TIP3   OH223623   4.505   4.934   1.372 -0.6023  0.2219  0.5911
  711TIP3    H123624   4.590   4.917   1.331 -1.3838 -0.2862 -0.8923
  711TIP3    H223625   4.521   5.009   1.429  0.7057  0.4988 -0.0894
  712TIP3   OH223626   0.225   5.257  12.301  0.5086  0.4215 -0.0302
  712TIP3    H123627   0.174   5.337  12.291 -1.6986 -0.8180  0.7132
  712TIP3    H223628   0.164   5.187  12.280  1.8095 -1.1747  1.2703
  713TIP3   OH223629   4.376   2.519   3.146 -0.1180  0.2217  0.8504
  713TIP3    H123630   4.412   2.472   3.071 -0.0567 -0.2394  1.1662
  713TIP3    H223631   4.451   2.564   3.185 -0.3880  1.7389 -0.2539
  714TIP3   OH223632   4.215   1.386   2.713  0.6915 -0.4750 -0.0034
  714TIP3    H123633   4.168   1.391   2.629 -0.6390  1.0958  0.7719
  714TIP3    H223634   4.185   1.304   2.752 -1.9057  0.6807  0.6688
  715TIP3   OH223635   4.040   5.094  12.940  0.1270  0.3060  0.2404
  715TIP3    H123636   3.998   5.080  13.025  1.2760 -1.4142  0.5726
  715TIP3    H223637   3.983   5.157  12.896 -1.2633  0.1722  1.7297
  716TIP3   OH223638   1.429   6.235   5.165 -0.0041  0.2051  0.4730
  716TIP3    H123639   1.355   6.225   5.225 -1.5680  0.9549 -1.2163
  716TIP3    H223640   1.425   6.156   5.110  0.0442  0.5346 -0.0130
  717TIP3   OH223641   4.769   1.227  13.834  0.3990  0.5803 -0.1765
  717TIP3    H123642   4.678   1.255  13.840  0.3824  0.8265 -1.3230
  717TIP3    H223643   4.776   1.153  13.895 -0.4045  0.9339  0.3624
  718TIP3   OH223644   5.497   5.674   2.507 -0.0572  0.1475  0.2231
  718TIP3    H123645   5.563   5.655   2.573 -1.2520 -1.8786  0.9054
  718TIP3    H223646   5.422   5.620   2.531 -0.7104 -0.3212 -2.5327
  719TIP3   OH223647   5.470   2.389   2.493 -0.1671  0.5586  0.2669
  719TIP3    H123648   5.494   2.314   2.440 -0.3178  1.3472 -0.9685
  719TIP3    H223649   5.378   2.374   2.517  0.6807 -1.2260  2.8736
  720TIP3   OH223650   5.604   2.162  13.752 -0.7408 -0.6568  0.4689
  720TIP3    H123651   5.523   2.156  13.802 -0.9730  0.3377  0.2373
  720TIP3    H223652   5.582   2.127  13.665 -1.3900  1.0651 -0.1024
  721TIP3   OH223653   3.067   0.199  16.967 -0.1948 -0.0639 -0.0935
  721TIP3    H123654   3.045   0.265  16.901 -1.3560  0.0292  0.3536
  721TIP3    H223655   2.982   0.163  16.993  0.2330  0.0035  1.4511
  722TIP3   OH223656   5.196   2.908   0.992 -0.1691 -0.6394  0.1740
  722TIP3    H123657   5.204   2.813   0.978  0.1412 -0.6847  0.6293
  722TIP3    H223658   5.134   2.917   1.064  1.2288 -0.5940  1.4225
  723TIP3   OH223659   4.361   1.790  11.841  0.0415  0.5887  0.0503
  723TIP3    H123660   4.382   1.830  11.756 -2.1001  1.9020  0.0878
  723TIP3    H223661   4.305   1.715  11.819 -1.3327  1.5129  0.3285
  724TIP3   OH223662   0.274   5.993   4.965 -0.7855  0.2362 -0.7121
  724TIP3    H123663   0.241   5.918   4.916 -1.3586  0.6434 -0.9696
  724TIP3    H223664   0.196   6.042   4.990 -0.4432  0.5275 -0.1894
  725TIP3   OH223665   3.470   5.545  15.714 -0.2389 -0.5733 -0.0742
  725TIP3    H123666   3.477   5.534  15.809 -0.6842 -0.2150  0.0009
  725TIP3    H223667   3.382   5.578  15.700  0.2599  0.6196 -0.5064
  726TIP3   OH223668   0.806   5.599   3.153 -0.2273  0.4794  0.1653
  726TIP3    H123669   0.820   5.682   3.108 -2.2319  1.2234  0.8184
  726TIP3    H223670   0.747   5.550   3.096 -0.8338  0.4388  0.8096
  727TIP3   OH223671   1.279   4.989   2.821 -0.0823 -0.4883 -0.5856
  727TIP3    H123672   1.254   5.038   2.742 -0.3526 -0.2432 -0.3506
  727TIP3    H223673   1.374   4.984   2.818 -0.1151 -0.8470 -1.1499
  728TIP3   OH223674   6.556   3.774  16.643  0.0530 -0.1984  0.3951
  728TIP3    H123675   6.492   3.734  16.584  0.1753  1.7172 -1.1252
  728TIP3    H223676   6.581   3.703  16.702  0.6382 -2.5443 -2.4325
  729TIP3   OH223677   6.540   1.236  12.936  0.1488 -0.1938  0.0499
  729TIP3    H123678   6.458   1.205  12.898  0.4667 -0.9061 -0.0625
  729TIP3    H223679   6.525   1.330  12.952 -0.4414 -0.1740 -0.5975
  730TIP3   OH223680   0.285   1.787   1.823  0.4852  0.2563  0.2457
  730TIP3    H123681   0.295   1.881   1.808  0.1970  0.0352 -1.5353
  730TIP3    H223682   0.369   1.750   1.798  1.1857  0.1494  2.5154
  731TIP3   OH223683   1.468   3.595  12.203  0.2021  0.1890 -0.0627
  731TIP3    H123684   1.512   3.553  12.277  0.5196  1.1722  0.3285
  731TIP3    H223685   1.496   3.545  12.126  2.1665  0.8657  0.1414
  732TIP3   OH223686   2.692   3.313   3.569  0.1612 -0.0111 -0.5966
  732TIP3    H123687   2.678   3.346   3.658 -1.3249 -1.9331 -0.0467
  732TIP3    H223688   2.720   3.389   3.519  1.1470  1.1152  1.5244
  733TIP3   OH223689   5.036   2.975  13.510  0.2148 -0.0511  0.0288
  733TIP3    H123690   5.028   2.913  13.438  2.2799 -0.5008  0.1142
  733TIP3    H223691   5.095   3.044  13.477 -1.2250  1.3624  0.2836
  734TIP3   OH223692   1.175   2.572   5.730  0.2539 -0.2631  0.5047
  734TIP3    H123693   1.191   2.655   5.776  0.8951 -0.7298  1.1660
  734TIP3    H223694   1.261   2.532   5.724  0.3455  0.1665 -1.9526
  735TIP3   OH223695   1.686   5.504  15.290 -0.1512 -0.3004  0.2969
  735TIP3    H123696   1.706   5.558  15.366 -2.3193 -0.1134  0.7953
  735TIP3    H223697   1.655   5.421  15.327 -0.7710 -0.3768 -0.3640
  736TIP3   OH223698   1.114   4.767   5.594 -0.8982 -0.0814  0.0021
  736TIP3    H123699   1.123   4.693   5.654  0.5936 -0.7438 -0.9885
  736TIP3    H223700   1.082   4.838   5.650  1.6590 -0.2854  1.9316
  737TIP3   OH223701   0.896   6.343  11.642  0.8671  0.1861 -0.3882
  737TIP3    H123702   0.883   6.268  11.700 -0.1828 -0.2154 -1.1207
  737TIP3    H223703   0.898   6.419  11.701 -0.7419 -0.1522  0.1427
  738TIP3   OH223704   0.203   3.835  16.801  0.7113 -0.4565 -0.2604
  738TIP3    H123705   0.237   3.920  16.772  1.3180 -0.0066  1.6203
  738TIP3    H223706   0.132   3.816  16.740  0.6344  1.3485 -0.8030
  739TIP3   OH223707   6.800   3.443   0.131  0.2271  0.1465  0.0929
  739TIP3    H123708   6.859   3.379   0.091 -0.3466 -1.6734  2.0082
  739TIP3    H223709   6.727   3.449   0.069  0.1584 -1.2967 -0.0052
  740TIP3   OH223710   0.868   0.130   4.895 -0.6563  0.1117  0.0524
  740TIP3    H123711   0.870   0.139   4.800 -2.0810 -0.0557 -0.0217
  740TIP3    H223712   0.789   0.177   4.922 -1.0082 -0.9778  1.0031
  741TIP3   OH223713   4.160   6.440  15.523  0.3929  0.0866  0.2886
  741TIP3    H123714   4.083   6.383  15.525  1.1136 -0.9251  2.3887
  741TIP3    H223715   4.187   6.447  15.615  2.1449  1.3282 -0.2651
  742TIP3   OH223716   4.663   6.317  12.104  0.4379 -0.0915 -0.4845
  742TIP3    H123717   4.616   6.351  12.028 -0.8498  1.1717  0.8131
  742TIP3    H223718   4.643   6.379  12.175  1.7104 -1.1336  0.8651
  743TIP3   OH223719   6.686   6.266  15.698  0.3471 -0.5516  0.0301
  743TIP3    H123720   6.670   6.229  15.611 -0.4302  0.7545 -0.4263
  743TIP3    H223721   6.779   6.290  15.697  0.7235 -1.9740  0.1458
  744TIP3   OH223722   2.544   3.499   1.403  0.0946 -0.5024 -0.4682
  744TIP3    H123723   2.594   3.510   1.484 -1.8739  0.2580  0.7516
  744TIP3    H223724   2.605   3.521   1.333  1.5298  0.0518  0.8957
  745TIP3   OH223725   0.690   5.452  12.881  0.4268 -0.1862 -0.4345
  745TIP3    H123726   0.782   5.429  12.889  0.7597  0.0072 -3.0031
  745TIP3    H223727   0.646   5.370  12.860  0.3391  0.0672 -1.2661
  746TIP3   OH223728   1.800   0.060   4.344  0.3011 -0.5550  0.0727
  746TIP3    H123729   1.798   0.039   4.437 -1.7289 -0.3883  0.1168
  746TIP3    H223730   1.750  -0.010   4.301 -0.7211  0.5260 -0.5839
  747TIP3   OH223731   1.742   4.921   3.390 -0.0878 -0.0134 -0.4442
  747TIP3    H123732   1.734   4.837   3.437  0.3229  0.1285 -0.1186
  747TIP3    H223733   1.678   4.914   3.319  1.1074 -1.2882 -1.4469
  748TIP3   OH223734   0.984   1.533   3.627  0.2622  0.2176  0.7645
  748TIP3    H123735   0.951   1.540   3.537  0.6000 -0.1067  0.6123
  748TIP3    H223736   0.981   1.622   3.661  1.2067  0.5289  0.0467
  749TIP3   OH223737   3.122   4.378   3.624  0.1484 -0.1309  0.1173
  749TIP3    H123738   3.085   4.460   3.590 -0.4082 -1.3312 -2.4001
  749TIP3    H223739   3.189   4.354   3.560  0.0777 -1.8028  0.6265
  750TIP3   OH223740   0.233   4.499  14.457 -0.5694 -0.2480  0.2665
  750TIP3    H123741   0.139   4.491  14.474 -0.0209 -2.2004  3.0071
  750TIP3    H223742   0.252   4.432  14.391 -0.7011 -1.8624  1.8133
  751TIP3   OH223743   1.740   5.176   5.636  0.0566  0.0193  0.1117
  751TIP3    H123744   1.800   5.213   5.700  0.5956  0.1618 -0.4587
  751TIP3    H223745   1.761   5.221   5.554  1.3613 -2.1135 -0.8370
  752TIP3   OH223746   5.002   5.002   2.386 -0.6294  0.2092 -0.5444
  752TIP3    H123747   4.978   5.010   2.479  0.0691 -0.2998 -0.3113
  752TIP3    H223748   4.935   5.051   2.340 -0.4866  1.2214  0.2980
  753TIP3   OH223749   0.756   1.903  15.628 -0.0912  0.4795 -0.3050
  753TIP3    H123750   0.810   1.975  15.662 -1.4387  2.5322 -2.2475
  753TIP3    H223751   0.784   1.894  15.537 -0.9419 -0.4825 -0.4812
  754TIP3   OH223752   0.346   5.116  13.027 -0.0854 -0.4595 -0.4754
  754TIP3    H123753   0.255   5.138  13.006 -0.9849 -0.4103  2.8931
  754TIP3    H223754   0.339   5.034  13.077  1.6349 -0.0907  0.4394
  755TIP3   OH223755   0.459   4.168   5.240 -0.1008  0.1546  0.4376
  755TIP3    H123756   0.412   4.136   5.316  1.7450 -0.6370  1.3159
  755TIP3    H223757   0.399   4.230   5.198 -1.4451  0.0257  2.0835
  756TIP3   OH223758   5.923   0.737   0.810  0.2091 -0.1633 -0.1251
  756TIP3    H123759   5.899   0.728   0.718  1.5503 -2.7331 -0.3285
  756TIP3    H223760   5.852   0.693   0.858 -0.8218  1.7402  0.1863
  757TIP3   OH223761   5.884   4.678   3.323  0.2211 -0.4407 -0.0972
  757TIP3    H123762   5.913   4.725   3.245 -0.5265 -3.3832 -2.3443
  757TIP3    H223763   5.796   4.711   3.340  0.0660 -0.3414 -1.0471
  758TIP3   OH223764   5.087   4.107   5.089  0.3001 -0.4115  0.1853
  758TIP3    H123765   5.144   4.048   5.040  1.1781  0.8766 -0.4158
  758TIP3    H223766   5.137   4.127   5.169  0.5920  0.4881 -0.2059
  759TIP3   OH223767   6.262   2.624   1.754 -0.1448  0.0532 -0.3975
  759TIP3    H123768   6.308   2.543   1.773  0.8609  0.9288  1.0839
  759TIP3    H223769   6.203   2.637   1.828 -1.2244  0.0499 -1.2314
  760TIP3   OH223770   0.777   2.887  13.303 -0.2920 -0.0087  0.3621
  760TIP3    H123771   0.846   2.834  13.342 -0.2344  0.0414  0.3298
  760TIP3    H223772   0.696   2.855  13.343 -0.1793  0.4496  0.9712
  761TIP3   OH223773   2.241   0.787  15.677 -0.2654 -0.2849  0.0134
  761TIP3    H123774   2.175   0.772  15.745 -1.2477  0.0429 -0.8517
  761TIP3    H223775   2.194   0.832  15.607  0.7319 -0.6128 -0.8885
  762TIP3   OH223776   2.759   4.069   3.915  0.2316  0.2896  0.0210
  762TIP3    H123777   2.746   4.157   3.951 -1.2417 -0.7460  2.2673
  762TIP3    H223778   2.686   4.018   3.951  1.4739 -2.0315 -0.5969
  763TIP3   OH223779   4.344   0.023   4.232 -0.5963 -0.0008 -0.0907
  763TIP3    H123780   4.340   0.116   4.214 -0.4138  0.1343  0.5284
  763TIP3    H223781   4.437   0.004   4.245 -0.4695 -0.5520 -1.5797
  764TIP3   OH223782   0.664   1.663  11.282 -0.1960 -0.6367 -0.2317
  764TIP3    H123783   0.588   1.706  11.243 -0.1494 -0.1163  0.2374
  764TIP3    H223784   0.705   1.617  11.209  0.4956  1.2011 -1.0738
  765TIP3   OH223785   5.539   1.152  16.475 -0.4280 -0.2726 -0.2848
  765TIP3    H123786   5.472   1.166  16.541 -0.9707  1.2380 -1.1118
  765TIP3    H223787   5.507   1.077  16.423 -0.1250 -1.2899  0.9571
  766TIP3   OH223788   3.688   1.888   2.143  0.3947 -0.5909 -0.2899
  766TIP3    H123789   3.644   1.816   2.189 -0.8667  0.6439  0.5130
  766TIP3    H223790   3.730   1.939   2.212  1.0620 -0.3881 -0.8268
  767TIP3   OH223791   2.253   4.685  11.530  0.4076 -0.4202  0.1017
  767TIP3    H123792   2.315   4.629  11.483 -0.5334 -0.3814 -1.2641
  767TIP3    H223793   2.168   4.661  11.493 -0.0798  1.5006 -0.1107
  768TIP3   OH223794   4.372   1.613   3.585 -0.1621 -0.3053 -0.8041
  768TIP3    H123795   4.343   1.537   3.635  2.9601 -0.9777  0.1907
  768TIP3    H223796   4.344   1.688   3.637 -0.5419 -0.8759 -0.1665
  769TIP3   OH223797   4.177   5.113  15.684  0.1715 -0.0431  0.1153
  769TIP3    H123798   4.228   5.159  15.750 -0.2750  0.6518 -0.0121
  769TIP3    H223799   4.228   5.123  15.603 -0.4008  1.0826 -0.1177
  770TIP3   OH223800   5.591   3.864  17.143  0.7183  0.0698  0.4345
  770TIP3    H123801   5.545   3.863  17.227 -0.2320  1.9191 -0.0114
  770TIP3    H223802   5.683   3.869  17.167  0.4072  1.9962  1.4154
  771TIP3   OH223803   6.456   4.549   5.980 -0.7572  0.3672 -0.5646
  771TIP3    H123804   6.468   4.521   6.071 -1.5392  0.7462 -0.3363
  771TIP3    H223805   6.369   4.516   5.956 -0.6441  0.4541 -1.1058
  772TIP3   OH223806   6.000   4.947  11.996 -0.0583 -0.3592 -0.0126
  772TIP3    H123807   5.910   4.914  12.003 -0.4499  0.1359 -2.0210
  772TIP3    H223808   6.055   4.869  11.993 -0.5576 -0.7127 -0.1003
  773TIP3   OH223809   1.496   3.986   1.679  0.2955  0.1325  0.2982
  773TIP3    H123810   1.438   4.030   1.616  1.0435 -1.7819 -1.8817
  773TIP3    H223811   1.492   4.040   1.758 -3.6381  0.6201 -0.0618
  774TIP3   OH223812   0.833   5.554   3.751  0.1622 -0.2948  0.0522
  774TIP3    H123813   0.833   5.591   3.663 -1.4892 -0.3962 -0.0196
  774TIP3    H223814   0.891   5.611   3.801 -0.3458  0.9059 -0.6626
  775TIP3   OH223815   3.564   2.626  10.811  0.0760 -0.4658 -0.2022
  775TIP3    H123816   3.589   2.572  10.736 -0.5111 -0.2341 -0.5674
  775TIP3    H223817   3.471   2.609  10.823  0.3849 -1.3535  1.1793
  776TIP3   OH223818   6.621   5.287  14.001  0.0444  0.0889  0.3097
  776TIP3    H123819   6.674   5.237  13.940 -0.1139 -0.2872  0.4775
  776TIP3    H223820   6.630   5.242  14.085 -2.6833 -1.6620 -0.1932
  777TIP3   OH223821   5.187   0.212   0.574 -0.0806  0.4738 -0.2808
  777TIP3    H123822   5.189   0.127   0.617 -0.0629  0.8629  0.4925
  777TIP3    H223823   5.158   0.273   0.641  1.9776  1.4392 -0.1938
  778TIP3   OH223824   6.136   1.240  13.943 -0.5781  0.3403 -0.1044
  778TIP3    H123825   6.111   1.148  13.936  0.6329  0.1175 -1.9639
  778TIP3    H223826   6.207   1.241  14.007 -0.3999 -0.0478 -0.2951
  779TIP3   OH223827   2.301   5.266   3.916  0.0038  0.0144 -0.1045
  779TIP3    H123828   2.231   5.208   3.945  0.8420 -0.8102  0.3348
  779TIP3    H223829   2.301   5.337   3.979  1.2985 -1.3658  1.5669
  780TIP3   OH223830   0.143   3.513  16.062  0.0645  0.2935  0.2302
  780TIP3    H123831   0.097   3.458  16.125  1.1889  2.4938  3.1458
  780TIP3    H223832   0.218   3.460  16.034 -1.1059 -1.1597 -0.2745
  781TIP3   OH223833   0.263   1.442  11.078  0.2238  1.2641 -0.2374
  781TIP3    H123834   0.297   1.452  10.989  0.0894  1.7920 -0.2324
  781TIP3    H223835   0.170   1.461  11.071  0.1923  1.2011 -0.0010
  782TIP3   OH223836   3.725   3.389  15.544 -0.1130 -0.1923  0.0676
  782TIP3    H123837   3.710   3.377  15.450 -1.7298  0.7317  0.1629
  782TIP3    H223838   3.671   3.465  15.567 -2.2202 -2.1929  2.3199
  783TIP3   OH223839   3.972   1.892   3.940  0.5566 -0.2531  0.1436
  783TIP3    H123840   3.971   1.928   4.028 -1.3930 -0.7130  0.3599
  783TIP3    H223841   3.954   1.967   3.883 -1.9689 -0.5228  0.4766
  784TIP3   OH223842   3.923   5.375  13.586  0.7280  0.4819 -0.6205
  784TIP3    H123843   4.015   5.351  13.602  0.0112 -0.7309  2.3856
  784TIP3    H223844   3.926   5.469  13.570  2.5712  0.3177 -1.4684
  785TIP3   OH223845   4.391   5.671  13.872  0.1120 -0.3154  0.3475
  785TIP3    H123846   4.400   5.578  13.893 -0.6572 -0.5140 -0.1759
  785TIP3    H223847   4.312   5.699  13.918 -1.2031 -0.5883 -1.6206
  786TIP3   OH223848   1.078   3.922  13.724 -0.4133  0.2067  0.2768
  786TIP3    H123849   0.989   3.942  13.694 -0.0956 -1.3128 -1.8976
  786TIP3    H223850   1.105   3.847  13.671  2.2798  0.8061  0.6647
  787TIP3   OH223851   4.398   5.026  13.844 -0.3432  0.4316 -0.1811
  787TIP3    H123852   4.395   5.021  13.749 -1.4812  1.1773 -0.2055
  787TIP3    H223853   4.472   5.085  13.863  0.2826 -0.2134 -0.5580
  788TIP3   OH223854   2.629   1.965   0.880  0.4873 -0.1571 -0.5399
  788TIP3    H123855   2.667   2.041   0.836  0.1535  0.4524  0.1840
  788TIP3    H223856   2.609   1.904   0.810  1.9556 -0.1205 -1.0207
  789TIP3   OH223857   2.048   0.683  11.143 -0.4000 -0.4827  0.3875
  789TIP3    H123858   1.966   0.724  11.115  0.4222  1.3344  0.4831
  789TIP3    H223859   2.094   0.663  11.061  0.2289  1.0448  0.3452
  790TIP3   OH223860   4.610   2.675  14.813 -0.1871 -0.1571 -0.6489
  790TIP3    H123861   4.601   2.581  14.798 -1.3654 -0.1589 -0.0289
  790TIP3    H223862   4.577   2.715  14.732  0.5778 -0.2684 -1.0252
  791TIP3   OH223863   1.813   6.670   0.027  0.0844  0.5450  0.3178
  791TIP3    H123864   1.876   6.740   0.045  0.2402  0.5908 -0.3833
  791TIP3    H223865   1.787   6.639   0.114 -0.7954  2.1682  0.6700
  792TIP3   OH223866   4.659   0.501  11.414 -0.0674 -0.4690 -0.2572
  792TIP3    H123867   4.635   0.454  11.494 -1.5034 -1.0904 -1.0143
  792TIP3    H223868   4.719   0.442  11.368  0.1485 -0.4482 -0.0007
  793TIP3   OH223869   6.775   0.526   4.511  0.3666  0.1399 -0.0166
  793TIP3    H123870   6.771   0.580   4.432  0.1423  0.3198  0.1169
  793TIP3    H223871   6.687   0.533   4.549  1.0470  1.7741  1.3867
  794TIP3   OH223872   0.795   1.414   5.330 -0.7322 -0.7403 -0.3661
  794TIP3    H123873   0.800   1.386   5.422  1.0027  0.1893 -0.1474
  794TIP3    H223874   0.791   1.509   5.334  0.4569 -0.6343 -1.2682
  795TIP3   OH223875   4.775   5.172  10.871  0.2887 -0.2195 -0.3930
  795TIP3    H123876   4.752   5.081  10.851 -2.5322  0.6439 -1.6224
  795TIP3    H223877   4.849   5.192  10.814  0.0021 -1.3128 -1.1786
  796TIP3   OH223878   0.036   0.412   5.903  0.3609  0.6331  0.0765
  796TIP3    H123879   0.001   0.396   5.991 -0.9372 -0.0886 -0.5411
  796TIP3    H223880  -0.030   0.467   5.861  0.6993  0.5019 -0.6276
  797TIP3   OH223881   4.124   5.563   1.829  0.2025 -0.2142  0.4097
  797TIP3    H123882   4.065   5.542   1.902 -0.6812  1.3018  0.1753
  797TIP3    H223883   4.067   5.601   1.762  1.4564  1.6925  0.3338
  798TIP3   OH223884   2.149   3.908   1.034 -0.0851 -1.1212 -0.5709
  798TIP3    H123885   2.183   3.977   1.091  3.2482 -2.3079 -0.9419
  798TIP3    H223886   2.121   3.839   1.094 -2.8657  0.1481 -0.2303
  799TIP3   OH223887   0.178   0.815  11.390  0.0525 -0.1302  0.9066
  799TIP3    H123888   0.209   0.772  11.470 -1.9319  1.5318  2.7235
  799TIP3    H223889   0.082   0.814  11.399 -0.3038 -0.8308 -2.0402
  800TIP3   OH223890   2.788   2.092   5.806  0.2171 -0.0029 -0.7547
  800TIP3    H123891   2.848   2.131   5.870 -0.1886 -1.0487  0.2987
  800TIP3    H223892   2.740   2.026   5.855 -0.9179 -0.0592 -1.8831
  801TIP3   OH223893   3.647   2.490   1.155 -0.5057 -0.0685 -0.3407
  801TIP3    H123894   3.626   2.413   1.103  0.7454 -1.0380  0.5211
  801TIP3    H223895   3.644   2.563   1.093 -1.3873 -0.8412 -1.2408
  802TIP3   OH223896   3.743   4.081  17.239 -0.0245  0.3280 -0.4195
  802TIP3    H123897   3.821   4.128  17.209  0.6528 -0.5788 -0.1344
  802TIP3    H223898   3.689   4.148  17.281  0.0119  1.2093 -1.6994
  803TIP3   OH223899   4.030   6.672  11.833 -0.0018 -0.0853 -0.0764
  803TIP3    H123900   3.941   6.636  11.834 -0.6179  1.3574 -1.0879
  803TIP3    H223901   4.081   6.606  11.880 -1.8856 -0.1682  2.0559
  804TIP3   OH223902   2.450   3.003  11.448  0.1932  0.0315  0.0776
  804TIP3    H123903   2.404   2.920  11.461 -1.7961  0.8815 -1.0581
  804TIP3    H223904   2.413   3.039  11.368  1.3130  1.8406  0.3039
  805TIP3   OH223905   1.477   4.402  17.125  0.0803 -0.0241 -0.1219
  805TIP3    H123906   1.452   4.345  17.198  0.3663 -0.7138 -0.5420
  805TIP3    H223907   1.502   4.341  17.055 -0.2461  0.6220 -0.8179
  806TIP3   OH223908   2.871   2.996  11.101 -0.0828  0.3230 -0.3999
  806TIP3    H123909   2.965   3.001  11.117 -0.2098  2.3093  0.0138
  806TIP3    H223910   2.849   2.904  11.112  1.6191  0.0003  0.5890
  807TIP3   OH223911   1.178   5.810   1.737 -0.2036 -0.3503  0.0112
  807TIP3    H123912   1.209   5.728   1.776  1.7580  0.1312 -0.4006
  807TIP3    H223913   1.215   5.809   1.649 -1.7296  0.1481 -0.6636
  808TIP3   OH223914   5.818   2.622  15.760 -0.3408  0.4023  0.5009
  808TIP3    H123915   5.906   2.635  15.725 -1.1019  0.2092 -1.6799
  808TIP3    H223916   5.830   2.611  15.854  2.2020 -1.8025  0.0394
  809TIP3   OH223917   0.677   3.378  13.600  0.0550 -0.3342  0.4261
  809TIP3    H123918   0.621   3.376  13.523  0.9230 -0.3393 -0.2238
  809TIP3    H223919   0.653   3.459  13.645  1.1106  0.8887 -1.0819
  810TIP3   OH223920   6.697   6.500   5.798  0.0418  0.0244 -0.2003
  810TIP3    H123921   6.729   6.541   5.878 -0.4541  0.0312 -0.0035
  810TIP3    H223922   6.664   6.573   5.745 -0.2997 -0.0539 -0.0994
  811TIP3   OH223923   6.497   6.300   2.871  0.1559  0.0326  0.2628
  811TIP3    H123924   6.591   6.296   2.856 -0.1143  0.4731 -2.0104
  811TIP3    H223925   6.487   6.298   2.966  2.4712  0.5351  0.5729
  812TIP3   OH223926   3.354   5.248  16.103 -0.2275  0.1567 -0.1384
  812TIP3    H123927   3.330   5.267  16.194  0.3917 -1.6555  0.4505
  812TIP3    H223928   3.441   5.207  16.109  0.2532  0.8760 -1.6443
  813TIP3   OH223929   0.077   5.412  13.462  0.2030 -0.8850  0.3654
  813TIP3    H123930   0.089   5.502  13.493 -0.0276 -0.7005 -0.0564
  813TIP3    H223931   0.160   5.369  13.479  0.6733 -0.3009 -0.3553
  814TIP3   OH223932   3.402   3.945   2.317 -0.2778 -0.1902 -0.1471
  814TIP3    H123933   3.364   4.032   2.328  1.2256  0.2734  2.1926
  814TIP3    H223934   3.354   3.890   2.380 -0.8822 -0.9927 -1.2594
  815TIP3   OH223935   4.215   3.604   1.660  1.0052  0.2292  0.1357
  815TIP3    H123936   4.243   3.525   1.705  1.2820 -0.4744 -1.2062
  815TIP3    H223937   4.148   3.575   1.599  0.4812  1.1860  0.2316
  816TIP3   OH223938   4.035   4.715   5.517  0.2018  0.1946  0.7514
  816TIP3    H123939   4.054   4.632   5.473  1.6252  1.0179 -0.2562
  816TIP3    H223940   4.095   4.716   5.592  1.1588  0.8620  0.0130
  817TIP3   OH223941   5.098   2.502  16.102 -0.8291 -0.1532 -0.2396
  817TIP3    H123942   5.037   2.429  16.091  0.8624 -1.9151  1.3520
  817TIP3    H223943   5.174   2.477  16.048 -0.1974  0.3896  0.3869
  818TIP3   OH223944   4.858   1.796   4.121 -0.7662  0.3534 -0.0037
  818TIP3    H123945   4.911   1.817   4.198 -1.0219 -1.0404  0.5857
  818TIP3    H223946   4.918   1.808   4.047  0.5308 -1.5235  0.6619
  819TIP3   OH223947   3.450   4.288  12.494 -0.0885  0.2687  0.0705
  819TIP3    H123948   3.531   4.272  12.446  0.6411 -0.2675  1.4468
  819TIP3    H223949   3.468   4.367  12.545 -0.0612 -0.4132  1.1421
  820TIP3   OH223950   0.584   6.613  11.463  0.3476  0.1434  0.0117
  820TIP3    H123951   0.667   6.641  11.424  0.5285 -0.1331  0.1986
  820TIP3    H223952   0.583   6.518  11.451  1.2000 -0.1959  2.2020
  821TIP3   OH223953   2.790   1.977  15.614 -0.0704 -0.2097 -0.0511
  821TIP3    H123954   2.777   1.919  15.538 -1.8954 -0.6192  0.5140
  821TIP3    H223955   2.801   1.917  15.688 -0.6461  0.1683  0.3451
  822TIP3   OH223956   3.465   4.330  11.767 -0.1226 -0.5243  0.1335
  822TIP3    H123957   3.406   4.384  11.819  0.0378 -0.6862  0.4899
  822TIP3    H223958   3.408   4.282  11.707 -0.2647  0.0418 -0.1927
  823TIP3   OH223959   1.815   4.387   0.082  0.2347  0.7741  0.3411
  823TIP3    H123960   1.766   4.310   0.110 -0.5033  0.5901 -1.3451
  823TIP3    H223961   1.748   4.452   0.061  0.6793  0.7466 -1.3537
  824TIP3   OH223962   5.665   6.075   1.816  0.1602 -0.3669 -0.2852
  824TIP3    H123963   5.601   6.067   1.887  0.8487  1.7359  0.6388
  824TIP3    H223964   5.677   6.169   1.805  2.0585 -0.6864 -1.3806
  825TIP3   OH223965   4.089   0.507   5.803 -0.5798 -0.5813 -0.0811
  825TIP3    H123966   4.181   0.531   5.798 -0.7375 -0.0338 -0.4514
  825TIP3    H223967   4.087   0.430   5.859  0.2123 -1.1453 -0.8037
  826TIP3   OH223968   6.194   1.403  16.686  0.3176 -0.1276 -0.3048
  826TIP3    H123969   6.220   1.491  16.657  2.7661 -1.1628 -1.6490
  826TIP3    H223970   6.262   1.379  16.749  0.4648 -1.5225 -0.9662
  827TIP3   OH223971   1.124   5.090  16.502 -0.0694 -0.3906 -0.2137
  827TIP3    H123972   1.056   5.130  16.449 -0.6918 -2.1009 -0.7674
  827TIP3    H223973   1.118   5.134  16.587 -0.7280  0.6344 -0.7755
  828TIP3   OH223974   0.704   3.097  14.554 -0.1777  0.4322 -0.3147
  828TIP3    H123975   0.711   3.152  14.476  0.3957  1.9041  0.7300
  828TIP3    H223976   0.786   3.111  14.600 -0.2778 -0.8619  0.2973
  829TIP3   OH223977   6.396   0.935  12.446 -0.2706 -0.2279  0.0433
  829TIP3    H123978   6.402   0.945  12.541 -1.0353  1.2271 -0.0393
  829TIP3    H223979   6.402   0.840  12.432 -1.4621 -0.5984  1.6514
  830TIP3   OH223980   3.983   2.629  12.785  0.3769 -0.1725  0.3151
  830TIP3    H123981   4.031   2.583  12.717  1.8557  1.2091  0.3605
  830TIP3    H223982   4.035   2.616  12.865 -1.0294 -1.2983  1.0997
  831TIP3   OH223983   3.553   4.129  16.183  0.6398 -0.1376  0.1994
  831TIP3    H123984   3.563   4.041  16.220 -0.5051 -0.2082  0.3693
  831TIP3    H223985   3.562   4.117  16.089 -1.0248 -0.7100  0.0746
  832TIP3   OH223986   6.633   4.571  11.331 -1.2565  0.0165  0.5112
  832TIP3    H123987   6.609   4.645  11.386  0.4203  0.1351  1.1272
  832TIP3    H223988   6.562   4.565  11.266 -2.6141  0.6501  1.8889
  833TIP3   OH223989   2.131   2.440  17.287  0.3566  0.6942  0.6330
  833TIP3    H123990   2.194   2.410  17.221  1.2006  0.8362  1.3643
  833TIP3    H223991   2.120   2.533  17.269  0.2711  0.6484  0.4423
  834TIP3   OH223992   1.260   4.958   0.655  0.0983  0.1345  0.1804
  834TIP3    H123993   1.203   4.881   0.655  0.1921  0.0616 -0.2259
  834TIP3    H223994   1.348   4.921   0.662  0.0415  0.3079  2.4373
  835TIP3   OH223995   2.116   0.555   0.472  0.1099 -0.4889  0.1750
  835TIP3    H123996   2.193   0.568   0.528 -1.1822 -0.4493  2.0379
  835TIP3    H223997   2.109   0.637   0.422  0.9094 -0.2446  0.4508
  836TIP3   OH223998   3.084   4.217  16.256  0.0483  0.3253 -0.0261
  836TIP3    H123999   3.045   4.150  16.200  1.2872  0.6375 -1.3321
  836TIP3    H224000   3.010   4.266  16.291 -0.7711 -0.1593 -1.0477
  837TIP3   OH224001   2.464   3.785   3.820 -0.5907  0.1413  0.0960
  837TIP3    H124002   2.434   3.768   3.730  0.0272  1.9156 -0.4895
  837TIP3    H224003   2.396   3.747   3.875 -0.7345 -1.4338 -1.0954
  838TIP3   OH224004   2.655   5.951  16.082 -0.3477 -0.1748 -0.0679
  838TIP3    H124005   2.644   5.872  16.135 -1.4092 -1.0627 -1.5421
  838TIP3    H224006   2.708   5.923  16.007  0.7185  0.9358  0.2332
  839TIP3   OH224007   2.267   4.312  11.298  0.1888 -0.3459 -0.6013
  839TIP3    H124008   2.215   4.284  11.222 -2.8281  0.9025  0.8717
  839TIP3    H224009   2.295   4.401  11.276 -1.1024  0.2014 -0.0934
  840TIP3   OH224010   4.580   2.771   4.207  0.3512  0.1577 -0.1130
  840TIP3    H124011   4.630   2.784   4.127  1.7909  1.4850  0.9431
  840TIP3    H224012   4.494   2.809   4.189  0.2444 -0.6207 -1.3877
  841TIP3   OH224013   4.608   4.096   0.377 -0.0027 -0.0782  0.1371
  841TIP3    H124014   4.695   4.071   0.409 -1.5375 -2.0818  3.3002
  841TIP3    H224015   4.577   4.019   0.328  0.3236  1.0412 -1.9532
  842TIP3   OH224016   5.549   2.962   1.485  0.2973  0.1901 -0.6945
  842TIP3    H124017   5.479   2.938   1.425 -1.0277  1.0200  0.4496
  842TIP3    H224018   5.530   3.052   1.510  2.4184  0.8233 -1.1804
  843TIP3   OH224019   1.213   5.157  12.172  0.0203 -0.3569  0.2896
  843TIP3    H124020   1.151   5.101  12.126 -0.5220  0.5057 -0.0420
  843TIP3    H224021   1.266   5.196  12.103  0.2882 -0.3286  0.5079
  844TIP3   OH224022   1.568   0.168  16.120  0.4739 -0.0714  0.5148
  844TIP3    H124023   1.652   0.137  16.152  0.3504  0.1892  1.1043
  844TIP3    H224024   1.527   0.210  16.195 -0.4674 -0.7758  0.4190
  845TIP3   OH224025   3.875   1.177   2.442 -0.1213 -0.0261  0.4591
  845TIP3    H124026   3.877   1.217   2.529  1.0446  1.7320 -0.3208
  845TIP3    H224027   3.963   1.140   2.431 -0.1548  0.0508 -0.0847
  846TIP3   OH224028   1.299   0.802   3.503 -0.2894  0.3955  0.2146
  846TIP3    H124029   1.270   0.736   3.567 -0.4393  0.6994  0.4619
  846TIP3    H224030   1.389   0.821   3.528  0.0780 -0.4241 -0.4497
  847TIP3   OH224031   6.462   3.261  12.388 -0.2154 -0.2713 -0.9263
  847TIP3    H124032   6.459   3.326  12.318  2.0790  0.6884 -0.2292
  847TIP3    H224033   6.498   3.183  12.346 -1.7640 -0.7281 -1.4703
  848TIP3   OH224034   4.706   2.426  12.708 -0.7531  0.0811  0.0781
  848TIP3    H124035   4.706   2.494  12.776 -1.3905 -1.2199  1.4318
  848TIP3    H224036   4.663   2.468  12.633  0.3744  1.7036  0.2817
  849TIP3   OH224037   5.296   4.793  12.530 -0.2437 -0.1358  0.3807
  849TIP3    H124038   5.248   4.862  12.484  0.3955  1.4114  1.9199
  849TIP3    H224039   5.239   4.716  12.525 -1.8505  1.0191  0.2116
  850TIP3   OH224040   1.756   6.131  13.567  0.5170 -0.1828  0.0476
  850TIP3    H124041   1.705   6.073  13.623  0.8699 -0.6123 -0.0656
  850TIP3    H224042   1.710   6.215  13.570 -1.0466 -0.9409 -1.2068
  851TIP3   OH224043   4.496   0.369   4.400  0.0462 -0.1832 -0.4820
  851TIP3    H124044   4.552   0.394   4.473 -1.2247 -0.7989  0.7566
  851TIP3    H224045   4.552   0.375   4.323  1.6615 -0.3399  0.6414
  852TIP3   OH224046   5.338   0.154   1.705 -0.0104 -0.1841  0.1853
  852TIP3    H124047   5.421   0.114   1.732 -0.9579 -1.0869  1.9107
  852TIP3    H224048   5.358   0.195   1.621  2.4746  0.5974  1.0684
  853TIP3   OH224049   5.518   3.280  14.378  0.1379  0.0859  0.0576
  853TIP3    H124050   5.524   3.188  14.350  1.8290 -0.2175  1.2083
  853TIP3    H224051   5.577   3.326  14.319 -0.0208  0.2661  0.0414
  854TIP3   OH224052   4.509   4.705   2.197 -0.2055 -0.4019 -0.1254
  854TIP3    H124053   4.533   4.733   2.286  1.1922 -0.2581 -0.5228
  854TIP3    H224054   4.417   4.680   2.204 -0.3184  0.2708  1.2080
  855TIP3   OH224055   5.714   0.073  10.940  0.0297  0.0372  0.1307
  855TIP3    H124056   5.705   0.002  11.003 -0.2214  1.2149  1.4803
  855TIP3    H224057   5.802   0.108  10.956  0.6553 -0.7178 -1.3901
  856TIP3   OH224058   4.341   4.947  11.714 -0.7184 -0.0175  0.5193
  856TIP3    H124059   4.370   4.865  11.673  2.3603  1.0657  0.2453
  856TIP3    H224060   4.249   4.933  11.735 -0.6692 -2.9988 -0.8301
  857TIP3   OH224061   1.958   5.492   1.293  0.2709 -0.5370  0.0170
  857TIP3    H124062   1.958   5.396   1.299  1.2158 -0.6088 -0.8235
  857TIP3    H224063   1.901   5.512   1.219  0.7875 -0.5134 -0.3835
  858TIP3   OH224064   5.529   1.809  13.884  0.6579  0.0890 -0.4167
  858TIP3    H124065   5.582   1.837  13.809  0.4265  0.8528 -0.2953
  858TIP3    H224066   5.589   1.756  13.936  1.1739  0.5562 -0.5231
  859TIP3   OH224067   0.096   0.019   3.987  0.6288  0.6273 -0.2850
  859TIP3    H124068   0.189   0.023   3.968  1.0305 -2.2835  0.5527
  859TIP3    H224069   0.053   0.037   3.904  2.0990 -2.0264 -1.7611
  860TIP3   OH224070   0.629   4.156  11.731  0.5868  0.6689 -0.1485
  860TIP3    H124071   0.566   4.212  11.687 -1.5197 -0.8104  0.8342
  860TIP3    H224072   0.684   4.120  11.661 -1.5698 -0.3055 -1.4239
  861TIP3   OH224073   5.020   0.669  13.762  0.1207  0.3264 -0.1486
  861TIP3    H124074   4.934   0.672  13.804  0.2155  0.0882  0.0679
  861TIP3    H224075   5.002   0.682  13.669 -0.3201 -1.3175 -0.3203
  862TIP3   OH224076   4.133   4.513   5.962 -0.7102  0.4617  0.2570
  862TIP3    H124077   4.046   4.501   5.925 -1.0295  2.3628  0.2985
  862TIP3    H224078   4.182   4.563   5.896  0.5783 -1.0726 -0.0273
  863TIP3   OH224079   3.677   1.529  12.042  0.1694 -0.5831 -0.4960
  863TIP3    H124080   3.610   1.539  11.974  1.3200 -0.0828 -1.5829
  863TIP3    H224081   3.753   1.575  12.008  0.5394  0.3749  1.4920
  864TIP3   OH224082   2.021   5.885   4.391  0.0273 -0.0826  0.1641
  864TIP3    H124083   2.032   5.973   4.429 -0.7801  0.1257 -0.0654
  864TIP3    H224084   1.928   5.865   4.403  0.4187 -1.4055  1.2690
  865TIP3   OH224085   4.115   6.095   1.664 -0.7068  0.1124 -0.6153
  865TIP3    H124086   4.208   6.092   1.642 -0.9496  0.0901 -1.6797
  865TIP3    H224087   4.102   6.184   1.698 -0.6076  0.6818 -1.9928
  866TIP3   OH224088   5.628   1.957   5.752 -0.2649 -0.4047 -0.6257
  866TIP3    H124089   5.622   1.862   5.744 -0.2845 -0.3600 -1.1286
  866TIP3    H224090   5.717   1.973   5.786 -0.4310 -0.6266 -0.0749
  867TIP3   OH224091   1.322   4.120   2.547 -0.2127  0.0285 -0.4902
  867TIP3    H124092   1.252   4.066   2.511  1.4250 -1.9469 -0.8849
  867TIP3    H224093   1.312   4.204   2.502 -2.0337 -0.3233 -0.8501
  868TIP3   OH224094   4.894   3.031  14.806 -0.2179  0.5002 -0.0351
  868TIP3    H124095   4.901   3.015  14.712 -0.9636  0.9065 -0.1727
  868TIP3    H224096   4.917   3.123  14.816  0.2638  0.3495  0.2347
  869TIP3   OH224097   6.676   0.529  11.613  0.1261  0.0894  0.3357
  869TIP3    H124098   6.760   0.574  11.601 -0.1719  0.6616  0.3392
  869TIP3    H224099   6.681   0.489  11.700 -0.3053  1.7005  1.1431
  870TIP3   OH224100   3.426   3.530  12.985  0.3696  0.0367 -0.2084
  870TIP3    H124101   3.484   3.518  13.060 -0.7528 -1.1871  0.4994
  870TIP3    H224102   3.484   3.522  12.909  1.0174 -2.1031  0.4553
  871TIP3   OH224103   5.106   1.778   2.406 -0.8535  0.0332 -0.1317
  871TIP3    H124104   5.024   1.787   2.455 -0.3670 -0.9827  0.9253
  871TIP3    H224105   5.168   1.741   2.469  0.0515 -0.4888 -1.2807
  872TIP3   OH224106   1.635   3.171  14.945 -0.2426 -0.5752  0.9646
  872TIP3    H124107   1.585   3.253  14.947 -0.7438 -0.8712  0.6988
  872TIP3    H224108   1.724   3.197  14.972  0.1658  0.4516 -1.0691
  873TIP3   OH224109   5.917   1.358  12.455 -0.7180 -0.2170  0.3790
  873TIP3    H124110   5.840   1.331  12.506 -0.4417 -0.6080  0.5957
  873TIP3    H224111   5.924   1.293  12.385 -0.1037 -0.6776  0.8490
  874TIP3   OH224112   1.240   2.704   6.622  0.7751 -0.1102 -0.0515
  874TIP3    H124113   1.163   2.732   6.672  0.6429  1.0428 -0.8678
  874TIP3    H224114   1.250   2.612   6.644 -1.0551 -0.3854 -0.2056
  875TIP3   OH224115   2.033   3.539   1.347 -0.7044  0.1254 -0.6778
  875TIP3    H124116   2.085   3.556   1.426 -0.8446 -0.3847 -0.4756
  875TIP3    H224117   2.012   3.446   1.352 -2.0340  0.4251 -0.5233
  876TIP3   OH224118   4.154   2.520  15.631  0.6398 -0.1123 -0.2875
  876TIP3    H124119   4.102   2.443  15.608  0.1630  0.1875 -0.2424
  876TIP3    H224120   4.108   2.593  15.589 -0.6490  0.5657  2.0929
  877TIP3   OH224121   0.163   5.758  10.571 -0.1511  0.5964  0.0725
  877TIP3    H124122   0.205   5.806  10.500 -2.8739  1.4533 -1.0945
  877TIP3    H224123   0.196   5.669  10.563  1.6429  1.2594 -0.5084
  878TIP3   OH224124   4.768   0.432   2.177  0.5022 -0.2461  0.1006
  878TIP3    H124125   4.811   0.487   2.243  1.5968 -1.3664  0.3515
  878TIP3    H224126   4.748   0.350   2.223 -0.3367 -0.3984 -0.5003
  879TIP3   OH224127   5.033   3.138   3.072 -0.3984  0.1186 -0.2852
  879TIP3    H124128   5.102   3.199   3.097 -0.2798 -0.5324  1.0274
  879TIP3    H224129   5.073   3.052   3.081 -0.5955 -0.1895 -2.0203
  880TIP3   OH224130   4.089   3.576  11.024 -0.6091  0.0989  0.0188
  880TIP3    H124131   4.121   3.664  11.046  1.6115 -1.0473  1.8399
  880TIP3    H224132   4.166   3.520  11.034 -2.0512 -2.1320 -0.7103
  881TIP3   OH224133   5.683   2.010  12.348  0.1826 -0.8726 -0.2559
  881TIP3    H124134   5.599   1.966  12.363 -0.4266  0.5939  0.9592
  881TIP3    H224135   5.666   2.072  12.277  0.1971 -0.5343  0.0299
  882TIP3   OH224136   1.645   2.922   6.445  0.2545 -0.1056  0.4629
  882TIP3    H124137   1.608   2.839   6.475 -1.4804  0.7181  0.7237
  882TIP3    H224138   1.613   2.987   6.509  0.3553  0.9713 -0.5466
  883TIP3   OH224139   4.047   0.141   5.024 -0.1443  0.1796  0.0685
  883TIP3    H124140   4.011   0.227   5.001  0.2718  0.7813  1.5890
  883TIP3    H224141   4.092   0.154   5.107  0.8768 -1.2752 -0.2069
  884TIP3   OH224142   1.798   1.116  14.477 -0.3020 -0.0607  0.8506
  884TIP3    H124143   1.773   1.063  14.402  0.0369  0.9385  0.0093
  884TIP3    H224144   1.736   1.092  14.545 -0.8985 -0.6527  0.1175
  885TIP3   OH224145   5.425   6.147   0.166  0.1797 -0.0434  0.7254
  885TIP3    H124146   5.428   6.187   0.079  3.1448 -3.1879 -0.8416
  885TIP3    H224147   5.494   6.191   0.215 -0.9256  1.1352  1.2874
  886TIP3   OH224148   6.082   1.953  16.173 -0.0032  0.0533 -0.7031
  886TIP3    H124149   6.073   1.869  16.219  0.9298 -0.3633 -1.2496
  886TIP3    H224150   6.097   2.017  16.242  0.5864 -0.4410 -0.3626
  887TIP3   OH224151   5.890   2.055   0.766 -0.3464  0.1523 -0.3015
  887TIP3    H124152   5.797   2.041   0.779 -0.0298 -0.9805  0.8820
  887TIP3    H224153   5.902   2.149   0.781 -0.8527 -0.1726  2.6839
  888TIP3   OH224154   3.208   3.912  17.114  0.6596  0.9004  0.6361
  888TIP3    H124155   3.238   3.891  17.203  0.8318 -1.4307  0.0890
  888TIP3    H224156   3.127   3.962  17.127  0.8832  0.9423  2.0868
  889TIP3   OH224157   5.035   3.476  15.436  0.0741 -0.0069  0.1916
  889TIP3    H124158   5.088   3.515  15.366  0.2993 -0.4675  0.1045
  889TIP3    H224159   5.075   3.391  15.452 -0.0407  0.0542  0.8145
  890TIP3   OH224160   2.819   3.412   1.834 -0.0639 -0.3214 -0.8099
  890TIP3    H124161   2.860   3.487   1.877  0.0992 -0.4581 -0.7273
  890TIP3    H224162   2.729   3.412   1.867  0.6768 -1.8801  1.4912
  891TIP3   OH224163   2.506   5.503  15.462 -0.2593 -0.0319  0.1058
  891TIP3    H124164   2.491   5.588  15.421  1.7440 -0.2505 -1.2011
  891TIP3    H224165   2.587   5.471  15.422 -0.1965 -1.9203  1.6153
  892TIP3   OH224166   4.204   2.498  15.252 -0.3174 -0.0425 -0.3507
  892TIP3    H124167   4.192   2.417  15.301  0.0338 -0.0792 -0.3260
  892TIP3    H224168   4.173   2.566  15.312 -0.8868 -0.1800 -0.4817
  893TIP3   OH224169   1.322   1.648  15.387  0.1078  0.0266 -0.3435
  893TIP3    H124170   1.372   1.608  15.316 -1.6981  0.5761 -2.0415
  893TIP3    H224171   1.232   1.618  15.373 -0.4443  0.7709  1.2746
  894TIP3   OH224172   3.958   5.588   0.352 -0.2506  0.4101  0.2812
  894TIP3    H124173   3.916   5.598   0.267  0.4495 -0.4867 -0.1942
  894TIP3    H224174   3.950   5.494   0.371 -0.4281  0.6094  1.2198
  895TIP3   OH224175   5.438   4.143   2.517  0.2772  0.7076  0.2673
  895TIP3    H124176   5.528   4.151   2.487  0.0078  1.5150 -0.3469
  895TIP3    H224177   5.434   4.056   2.558  0.7009 -0.4094 -1.9231
  896TIP3   OH224178   0.046   0.224   3.125 -0.5399 -0.6478  0.1411
  896TIP3    H124179  -0.015   0.293   3.097  0.0781  0.6164  1.7664
  896TIP3    H224180   0.037   0.222   3.220  1.9228 -0.4470  0.4247
  897TIP3   OH224181   6.791   5.328   2.806 -0.3499  0.1039 -1.1167
  897TIP3    H124182   6.836   5.244   2.816  0.9630  0.8520 -0.5920
  897TIP3    H224183   6.700   5.308   2.829  0.5431 -0.5048  2.4249
  898TIP3   OH224184   2.182   3.361  17.123  0.2584  0.4022 -0.2189
  898TIP3    H124185   2.194   3.435  17.064  0.6426  0.2649 -0.3198
  898TIP3    H224186   2.249   3.298  17.096 -1.0611 -0.6634 -1.1963
  899TIP3   OH224187   3.767   6.675   2.027 -0.0621 -0.4291 -0.1485
  899TIP3    H124188   3.856   6.691   1.995  0.8712 -1.5741  1.7013
  899TIP3    H224189   3.743   6.757   2.070 -0.2189  0.1412 -1.2854
  900TIP3   OH224190   0.661   2.235  13.350 -0.2606  0.2916  0.6505
  900TIP3    H124191   0.733   2.187  13.309 -0.7517  0.7664 -0.8211
  900TIP3    H224192   0.667   2.324  13.313 -0.5612  0.8232  1.8246
  901TIP3   OH224193   2.349   1.338  12.526  0.6303 -0.1219 -0.4311
  901TIP3    H124194   2.391   1.341  12.612 -0.5776  0.8351  0.1587
  901TIP3    H224195   2.404   1.394  12.470 -0.1683  1.6788  0.5036
  902TIP3   OH224196   5.393   6.280   4.916  0.1746 -0.0424  0.1563
  902TIP3    H124197   5.439   6.315   4.992 -0.0752  1.0491 -0.1856
  902TIP3    H224198   5.302   6.306   4.929 -0.5894 -2.7704  1.1896
  903TIP3   OH224199   3.145   5.464  14.211 -0.3203  0.1444  0.3458
  903TIP3    H124200   3.104   5.417  14.139 -2.8743 -0.3344  2.0023
  903TIP3    H224201   3.086   5.453  14.285  1.3280  2.0393  2.0992
  904TIP3   OH224202   1.125   3.380   4.276 -0.2470 -1.0431 -0.6490
  904TIP3    H124203   1.074   3.321   4.331  0.3746 -1.2300 -0.2680
  904TIP3    H224204   1.060   3.429   4.226 -0.7674 -2.3697 -1.3056
  905TIP3   OH224205   0.864   0.997  14.119  0.3732 -0.6047  0.0825
  905TIP3    H124206   0.890   1.080  14.159 -0.0138 -0.1074 -0.6543
  905TIP3    H224207   0.945   0.948  14.109  0.3762 -1.1764  2.3533
  906TIP3   OH224208   4.414   3.440  14.170 -0.4239  0.1690 -0.0855
  906TIP3    H124209   4.460   3.518  14.202  0.8298 -1.5151  2.5162
  906TIP3    H224210   4.338   3.433  14.227  0.9371 -1.9460  1.6140
  907TIP3   OH224211   2.027   2.623  11.338 -0.7094 -0.0126 -0.3745
  907TIP3    H124212   1.994   2.667  11.416 -2.0868  0.9505 -1.4459
  907TIP3    H224213   2.083   2.689  11.296  2.4184 -1.4435  1.1510
  908TIP3   OH224214   2.996   0.273   1.642 -0.1984 -0.7463  0.4592
  908TIP3    H124215   2.905   0.289   1.667 -0.0843 -0.3583  0.6427
  908TIP3    H224216   3.019   0.191   1.685 -0.7821 -1.4134 -0.4506
  909TIP3   OH224217   5.959   1.223   5.452  0.2215 -0.2828 -0.4950
  909TIP3    H124218   5.926   1.272   5.377 -0.2682  1.0011  0.5201
  909TIP3    H224219   5.922   1.135   5.441  0.3036 -0.1666 -1.8299
  910TIP3   OH224220   1.255   2.281   0.560  0.4380 -0.2639 -0.1551
  910TIP3    H124221   1.169   2.258   0.597 -0.6639  2.0097 -1.1095
  910TIP3    H224222   1.314   2.213   0.593 -1.6281 -1.6625  0.8947
  911TIP3   OH224223   5.328   5.334   0.757 -0.6201  0.3271  0.1235
  911TIP3    H124224   5.415   5.375   0.763 -0.4575 -0.0188  0.1284
  911TIP3    H224225   5.292   5.367   0.675 -0.0976 -0.2770 -0.3507
  912TIP3   OH224226   5.853   6.229   6.043 -0.3121 -0.2054  0.1527
  912TIP3    H124227   5.793   6.212   6.116  0.6542  0.4877  1.1599
  912TIP3    H224228   5.938   6.200   6.076  0.0984 -0.1505 -0.8274
  913TIP3   OH224229   3.785   3.125  16.061  0.4547  0.1699 -0.1667
  913TIP3    H124230   3.828   3.163  15.985 -0.2092  0.8687 -0.2075
  913TIP3    H224231   3.742   3.199  16.104 -1.2918 -0.5899 -0.5256
  914TIP3   OH224232   5.065   4.741  14.773  0.4826 -0.2816 -0.3963
  914TIP3    H124233   5.044   4.662  14.723  2.2474 -0.1649 -1.3807
  914TIP3    H224234   5.144   4.718  14.822 -0.7111 -0.1043  1.7467
  915TIP3   OH224235   5.773   1.111   0.431  0.0414  0.2184  0.1741
  915TIP3    H124236   5.766   1.200   0.466  0.7518  1.6999 -3.0201
  915TIP3    H224237   5.866   1.101   0.410 -0.2447 -0.7363 -0.7251
  916TIP3   OH224238   3.349   4.723  14.230  0.3346 -0.4991  0.1378
  916TIP3    H124239   3.291   4.743  14.304  1.2217  1.3280  0.3958
  916TIP3    H224240   3.395   4.643  14.257 -0.3210 -0.6135  0.9709
  917TIP3   OH224241   3.381   2.615   4.655  0.5740 -0.0305 -0.0246
  917TIP3    H124242   3.443   2.687   4.646  0.5310 -0.2023 -2.4409
  917TIP3    H224243   3.297   2.657   4.670  0.8296  0.3385  0.3822
  918TIP3   OH224244   3.661   5.234   0.580 -0.6222 -0.0454 -0.0880
  918TIP3    H124245   3.582   5.210   0.530 -0.3165  0.4307 -0.8129
  918TIP3    H224246   3.732   5.188   0.536  0.0146  2.2918 -1.6675
  919TIP3   OH224247   4.013   2.734   1.863  0.0310  0.1671  0.0423
  919TIP3    H124248   3.941   2.713   1.804 -0.8136  1.5352  0.5575
  919TIP3    H224249   4.058   2.808   1.822  0.8266 -0.3069  0.0151
  920TIP3   OH224250   3.109   5.767  13.616  0.0114  0.2320  0.1885
  920TIP3    H124251   3.105   5.813  13.700 -1.5462 -1.7904  1.2898
  920TIP3    H224252   3.163   5.690  13.633 -0.1841 -0.1216 -0.7306
  921TIP3   OH224253   3.023   1.233   4.419 -0.0636  0.6195 -0.0226
  921TIP3    H124254   3.034   1.165   4.486  1.0855  0.0440 -0.7577
  921TIP3    H224255   3.064   1.196   4.341 -2.0578  0.9353 -1.2970
  922TIP3   OH224256   2.744   4.058  15.078 -0.0212 -0.0674 -0.4456
  922TIP3    H124257   2.752   4.025  14.989 -0.3151  1.5533 -1.1073
  922TIP3    H224258   2.694   3.991  15.124  0.5002 -1.1293 -1.3727
  923TIP3   OH224259   2.718   1.554  10.718 -0.0728 -0.4651 -0.0035
  923TIP3    H124260   2.665   1.571  10.640 -0.3402 -0.8111  0.0987
  923TIP3    H224261   2.680   1.475  10.756 -1.0254  0.6225  1.4214
  924TIP3   OH224262   0.687   0.926   0.570 -0.1435 -0.7764 -0.4964
  924TIP3    H124263   0.613   0.965   0.617  1.2331  1.2969  0.0783
  924TIP3    H224264   0.698   0.839   0.610 -0.7920 -0.1800  1.0691
  925TIP3   OH224265   1.555   1.906  17.287 -0.1081  0.6822 -0.3335
  925TIP3    H124266   1.586   1.994  17.266  0.6543  0.8409  1.2640
  925TIP3    H224267   1.526   1.912  17.378 -0.0899 -0.7044 -0.2108
  926TIP3   OH224268   2.640   4.146   2.745  0.4135  0.8228  0.0424
  926TIP3    H124269   2.655   4.107   2.659  2.2336 -1.5456  1.3201
  926TIP3    H224270   2.630   4.239   2.727 -0.5193  0.2891 -2.8318
  927TIP3   OH224271   1.470   2.351  15.489 -0.0196 -0.3263  0.0238
  927TIP3    H124272   1.420   2.304  15.556  0.5763  1.7755  2.0331
  927TIP3    H224273   1.418   2.429  15.470  0.6020 -0.0964 -0.7751
  928TIP3   OH224274   3.170   5.717  16.328  0.0547  0.1120  0.5938
  928TIP3    H124275   3.115   5.726  16.250  1.5893 -0.3421 -0.6040
  928TIP3    H224276   3.128   5.649  16.380 -0.6743 -0.0105 -0.1426
  929TIP3   OH224277   4.563   1.571  17.272  0.1125  0.2663  0.3590
  929TIP3    H124278   4.636   1.508  17.275 -0.9626 -1.0446 -0.0301
  929TIP3    H224279   4.551   1.597  17.364 -0.3900 -1.2936  0.7727
  930TIP3   OH224280   1.050   0.796  15.256  0.4270 -0.2872  0.4852
  930TIP3    H124281   1.103   0.716  15.253  0.5436 -0.1964 -0.0768
  930TIP3    H224282   1.112   0.865  15.278  0.7807 -0.0139 -1.1974
  931TIP3   OH224283   2.983   5.525   0.482 -0.0971 -0.5230 -0.1788
  931TIP3    H124284   2.946   5.605   0.444 -1.9250 -1.1327  0.1948
  931TIP3    H224285   3.077   5.542   0.485 -0.3138  1.1867 -1.0810
  932TIP3   OH224286   2.520   4.010  11.521 -0.3648  0.2545  0.3266
  932TIP3    H124287   2.579   4.019  11.446 -1.5812 -1.7953 -0.9915
  932TIP3    H224288   2.460   3.940  11.495 -1.2947 -0.0190  2.9615
  933TIP3   OH224289   3.796   1.661  16.679  0.3930  0.1999  0.2098
  933TIP3    H124290   3.878   1.688  16.722  0.3912  0.2338  0.1929
  933TIP3    H224291   3.795   1.710  16.597  0.4287  0.0833  0.1417
  934TIP3   OH224292   4.046   4.391   3.292  0.2238 -0.3695  1.1710
  934TIP3    H124293   4.051   4.440   3.210  1.5497 -1.2738  0.6812
  934TIP3    H224294   4.136   4.388   3.324  0.1901 -2.5185  1.1556
  935TIP3   OH224295   1.816   2.048  16.366 -0.0929 -0.4973 -0.0246
  935TIP3    H124296   1.903   2.014  16.383  0.8803  1.5522 -0.5348
  935TIP3    H224297   1.792   2.093  16.447 -0.4244 -0.5636 -0.0845
  936TIP3   OH224298   6.373   6.322   4.025 -0.2170 -0.3709 -0.8727
  936TIP3    H124299   6.378   6.294   3.934  1.4053 -4.0363  0.1664
  936TIP3    H224300   6.305   6.266   4.063 -1.4105  1.6239  0.0954
  937TIP3   OH224301   1.567   2.551   5.039  0.3243  0.0367 -0.1511
  937TIP3    H124302   1.591   2.562   4.947  1.1184 -2.1042 -0.2599
  937TIP3    H224303   1.472   2.559   5.040  0.4537  2.6266 -0.6893
  938TIP3   OH224304   3.369   6.278  17.012  0.2961  0.2757 -0.6219
  938TIP3    H124305   3.374   6.354  17.071  0.5982 -1.2168  1.4043
  938TIP3    H224306   3.455   6.236  17.021 -0.3849 -1.1321 -0.4983
  939TIP3   OH224307   0.252   3.440   3.332  0.1612 -0.4088  0.2877
  939TIP3    H124308   0.298   3.517   3.300  0.5171 -0.9521 -0.5384
  939TIP3    H224309   0.322   3.380   3.359 -0.0869 -0.8070  0.0595
  940TIP3   OH224310   5.812   4.546  17.043 -0.0754  0.1384  0.4153
  940TIP3    H124311   5.767   4.630  17.052  0.4289  0.3823  0.7091
  940TIP3    H224312   5.828   4.518  17.133 -0.2329 -0.2707  0.3164
  941TIP3   OH224313   3.823   3.350  13.244  0.2162 -0.1163 -0.2172
  941TIP3    H124314   3.798   3.339  13.336  0.0690 -1.5333 -0.4094
  941TIP3    H224315   3.834   3.261  13.211  1.7583  0.3840 -1.1812
  942TIP3   OH224316   1.942   3.509  12.328  0.1537  0.1544 -0.3376
  942TIP3    H124317   2.016   3.528  12.271  0.9140  0.8884  0.8503
  942TIP3    H224318   1.975   3.522  12.417 -1.1146 -0.5217  0.2714
  943TIP3   OH224319   0.277   0.255   2.183  0.0748 -0.0861  0.3703
  943TIP3    H124320   0.200   0.228   2.132  0.4253 -0.7085  0.1622
  943TIP3    H224321   0.349   0.204   2.146  0.3440 -0.5200  1.4606
  944TIP3   OH224322   3.829   1.140   3.644 -0.1712  0.2594  0.3500
  944TIP3    H124323   3.916   1.179   3.641 -0.3934  0.7597  0.3237
  944TIP3    H224324   3.789   1.163   3.560 -0.8448  1.2602  0.9290
  945TIP3   OH224325   0.369   0.149  16.558 -0.8286 -0.2985 -0.6367
  945TIP3    H124326   0.315   0.072  16.571 -1.3619  0.0057 -0.9761
  945TIP3    H224327   0.343   0.210  16.627 -0.7877 -0.2237 -0.6853
  946TIP3   OH224328   0.817   1.329   3.315  0.2565  0.2364  0.0781
  946TIP3    H124329   0.721   1.332   3.316 -0.0923 -1.5647 -4.6296
  946TIP3    H224330   0.844   1.420   3.309 -0.9479  0.8755  2.6523
  947TIP3   OH224331   1.458   4.394   0.199  0.5168 -0.1039 -0.3619
  947TIP3    H124332   1.441   4.404   0.105  2.5704 -0.4764 -0.8258
  947TIP3    H224333   1.455   4.300   0.214 -1.5269  0.0274  0.3592
  948TIP3   OH224334   5.186   2.897  13.743 -0.4724 -0.1788  0.7024
  948TIP3    H124335   5.224   2.830  13.687  1.6327  1.6492 -0.1767
  948TIP3    H224336   5.145   2.960  13.683 -0.1622  0.6518  1.3347
  949TIP3   OH224337   5.005   3.211   5.946 -0.1588  0.8310  0.3620
  949TIP3    H124338   5.071   3.206   5.878 -2.7762 -0.4721 -2.3124
  949TIP3    H224339   4.991   3.120   5.973 -0.0110  1.2122  1.7985
  950TIP3   OH224340   3.671   3.951   1.819  0.1469  0.4540 -0.1438
  950TIP3    H124341   3.762   3.953   1.790  0.5746  0.6651  1.1723
  950TIP3    H224342   3.642   4.042   1.816 -0.7560  0.1784 -2.6650
  951TIP3   OH224343   1.335   3.061   4.633 -0.2663 -0.6139 -0.1119
  951TIP3    H124344   1.406   3.061   4.569 -1.2959 -1.0025 -1.2911
  951TIP3    H224345   1.306   3.152   4.636  0.2163 -0.4699  0.3113
  952TIP3   OH224346   4.798   4.223  13.916  0.3447 -0.1947  0.0312
  952TIP3    H124347   4.792   4.141  13.967  0.8856  0.6328  1.4951
  952TIP3    H224348   4.761   4.289  13.974  1.1427  0.8178 -0.5961
  953TIP3   OH224349   1.185   2.312  15.112  0.0424 -0.1147 -0.2816
  953TIP3    H124350   1.203   2.225  15.076 -0.2634 -0.8218  1.1802
  953TIP3    H224351   1.266   2.361  15.099  1.0031 -1.3385  0.8311
  954TIP3   OH224352   0.797   1.733  13.783  0.5683 -0.2461 -0.0971
  954TIP3    H124353   0.882   1.776  13.789  0.3195  0.4720 -1.3952
  954TIP3    H224354   0.803   1.680  13.704  0.2241 -1.1608  0.4821
  955TIP3   OH224355   2.181   5.078   1.438 -0.3952  0.3171  0.0061
  955TIP3    H124356   2.096   5.064   1.480 -0.5824  2.9144  0.6530
  955TIP3    H224357   2.221   5.150   1.487  1.7233 -0.0869 -0.9895
  956TIP3   OH224358   6.685   4.173   6.761 -0.2201  0.1047  0.4372
  956TIP3    H124359   6.721   4.086   6.744  0.4889  0.6521 -1.0305
  956TIP3    H224360   6.755   4.220   6.805  0.2032  0.5907 -0.7312
  957TIP3   OH224361   3.823   6.119   6.034 -0.1242 -0.2490 -0.0072
  957TIP3    H124362   3.822   6.210   6.004  1.3539 -0.3403 -0.4311
  957TIP3    H224363   3.791   6.123   6.124  1.0581  0.8693  0.4009
  958TIP3   OH224364   6.472   5.405   1.096 -0.8084  0.3893  0.1112
  958TIP3    H124365   6.477   5.309   1.091 -0.5779  0.4343 -0.6124
  958TIP3    H224366   6.526   5.435   1.023  0.0197  1.0887  0.9892
  959TIP3   OH224367   3.845   4.917  16.138 -0.3192 -0.3201  0.0302
  959TIP3    H124368   3.893   4.837  16.157  1.2186  0.7306  0.7160
  959TIP3    H224369   3.912   4.981  16.114 -1.5838  0.5048 -1.5588
  960TIP3   OH224370   6.373   4.218  13.865 -0.2395 -0.7820 -0.2465
  960TIP3    H124371   6.432   4.293  13.863  0.9654 -1.7061 -0.6057
  960TIP3    H224372   6.314   4.236  13.939  2.0138 -0.9257  1.7155
  961TIP3   OH224373   2.396   1.375   2.946 -0.2943 -0.7652 -0.1826
  961TIP3    H124374   2.429   1.318   3.015  0.5995  0.8558  0.7957
  961TIP3    H224375   2.457   1.363   2.874  1.2395  0.5721  0.8292
  962TIP3   OH224376   0.520   5.571  12.658  0.4477 -0.2190  0.3216
  962TIP3    H124377   0.582   5.520  12.710  0.6004  0.2239  0.5755
  962TIP3    H224378   0.434   5.545  12.691  0.5769  1.9771  2.6663
  963TIP3   OH224379   5.717   2.393  16.666 -0.1443  0.1147  0.1605
  963TIP3    H124380   5.770   2.321  16.631  0.2447 -0.5564  2.0414
  963TIP3    H224381   5.669   2.354  16.739  1.6238  2.1627  2.6017
  964TIP3   OH224382   0.946   1.667  11.920 -0.1360 -0.7211 -0.4010
  964TIP3    H124383   1.000   1.680  11.842 -0.5594 -1.7316 -0.8809
  964TIP3    H224384   0.921   1.755  11.947  0.8870 -0.2955 -0.7772
  965TIP3   OH224385   6.202   1.088  10.525 -0.4441  0.1340 -0.6248
  965TIP3    H124386   6.219   1.058  10.614 -1.2700 -0.4313 -0.6489
  965TIP3    H224387   6.246   1.173  10.520  2.1343 -1.0792 -0.6182
  966TIP3   OH224388   1.213   3.804  11.426  0.3240  0.0840 -0.0843
  966TIP3    H124389   1.253   3.758  11.499  0.3795 -1.1402 -0.8573
  966TIP3    H224390   1.119   3.796  11.440  0.2942  1.7276  0.9699
  967TIP3   OH224391   1.389   6.622  16.886 -0.2590  0.5077  0.3524
  967TIP3    H124392   1.338   6.542  16.899  1.5264 -0.4829  1.7141
  967TIP3    H224393   1.443   6.604  16.809 -0.0298  0.4872  0.5174
  968TIP3   OH224394   5.696   5.409   2.304  0.0281  0.2956  0.2034
  968TIP3    H124395   5.709   5.382   2.213 -0.6020  0.2595  0.1137
  968TIP3    H224396   5.745   5.346   2.356 -0.1049 -0.0473 -0.0844
  969TIP3   OH224397   4.496   5.253  12.283 -0.0611  0.1906  0.0998
  969TIP3    H124398   4.574   5.295  12.246 -0.3460  1.9815  1.4022
  969TIP3    H224399   4.435   5.326  12.299 -1.3224 -0.9630  0.7166
  970TIP3   OH224400   5.156   2.810   5.161 -0.1116  0.2295  0.3331
  970TIP3    H124401   5.188   2.731   5.203  0.5500  1.1881  1.6950
  970TIP3    H224402   5.064   2.816   5.186 -0.2065 -0.1766  0.0919
  971TIP3   OH224403   4.796   2.407  14.304  0.1194 -0.4309  0.5511
  971TIP3    H124404   4.714   2.360  14.288  0.3123 -0.2942 -0.9275
  971TIP3    H224405   4.858   2.338  14.329 -0.7491 -0.3831  3.1862
  972TIP3   OH224406   6.100   3.246  12.052  0.3224 -0.6142  0.1797
  972TIP3    H124407   6.094   3.281  12.141 -0.6995  0.3952 -0.2594
  972TIP3    H224408   6.015   3.203  12.037 -0.3282  0.9561 -0.9715
  973TIP3   OH224409   0.553   3.803  13.707 -0.0252 -0.1455 -0.0527
  973TIP3    H124410   0.507   3.838  13.783  0.7240  0.4976  0.1205
  973TIP3    H224411   0.572   3.881  13.654  1.7017 -0.2679  0.3513
  974TIP3   OH224412   0.141   6.449   3.489 -0.0610 -0.3250  0.0933
  974TIP3    H124413   0.158   6.459   3.395  3.1727  0.9099  0.6592
  974TIP3    H224414   0.078   6.519   3.509  0.7388  0.7091 -0.8565
  975TIP3   OH224415   2.940   0.529  12.198 -0.0740  0.6284 -0.0544
  975TIP3    H124416   2.951   0.519  12.293  0.3389  0.6173 -0.0992
  975TIP3    H224417   3.016   0.581  12.171  1.0005 -1.2051 -0.7093
  976TIP3   OH224418   6.026   5.381   3.755 -0.0569 -0.2571 -0.1886
  976TIP3    H124419   6.004   5.471   3.779  1.6048 -0.0812  0.9028
  976TIP3    H224420   5.993   5.329   3.828 -3.0444 -0.8901 -1.8488
  977TIP3   OH224421   0.511   0.294  12.849 -0.0295  0.2508 -0.1811
  977TIP3    H124422   0.560   0.376  12.851 -0.3292  0.5462 -2.2904
  977TIP3    H224423   0.553   0.243  12.780 -2.1322  0.1826 -1.5110
  978TIP3   OH224424   1.604   2.419  15.225  0.2072  0.3921  0.1551
  978TIP3    H124425   1.586   2.382  15.311  0.4807 -0.5415 -0.1738
  978TIP3    H224426   1.585   2.513  15.234  0.0706  0.2745  1.1742
  979TIP3   OH224427   1.556   2.929  13.657  0.2351  0.8892 -0.7313
  979TIP3    H124428   1.461   2.918  13.653  0.1649  1.3026 -0.2702
  979TIP3    H224429   1.589   2.869  13.590 -0.2498 -0.4937  0.2128
  980TIP3   OH224430   0.575   1.350  16.237  0.1668 -0.0361  0.0721
  980TIP3    H124431   0.650   1.324  16.290  0.1739  1.3721  0.8070
  980TIP3    H224432   0.590   1.308  16.152  0.9641 -1.0535  0.6941
  981TIP3   OH224433   0.251   2.533  14.584  0.1376 -0.1087 -0.2338
  981TIP3    H124434   0.198   2.557  14.508  1.0950  1.4479 -0.4704
  981TIP3    H224435   0.282   2.445  14.566 -1.6821 -0.7345 -0.4557
  982TIP3   OH224436   0.336   3.861  12.360 -0.1572  0.5378  0.1306
  982TIP3    H124437   0.337   3.922  12.287  0.0851  0.7846  0.3379
  982TIP3    H224438   0.287   3.906  12.429  1.7639  1.3896  1.0284
  983TIP3   OH224439   3.395   2.579   5.693 -0.1579  0.3249  0.4178
  983TIP3    H124440   3.394   2.674   5.685 -2.0887  0.3644  0.6750
  983TIP3    H224441   3.376   2.562   5.785  1.0657 -0.3088  0.5625
  984TIP3   OH224442   0.662   3.732  14.577 -0.3933  0.6027 -0.2484
  984TIP3    H124443   0.718   3.656  14.594  1.8563  1.5755 -2.5632
  984TIP3    H224444   0.682   3.793  14.648 -1.8261 -0.6654  1.3342
  985TIP3   OH224445   5.566   0.131   0.609 -0.6219  0.5754  0.3087
  985TIP3    H124446   5.559   0.122   0.704 -0.6401 -0.2203  0.2386
  985TIP3    H224447   5.599   0.220   0.595  0.7824  0.2054  1.1134
  986TIP3   OH224448   3.835   6.003  14.196  0.3245  0.4043  0.5545
  986TIP3    H124449   3.843   6.098  14.196  2.4150  0.2887  1.6242
  986TIP3    H224450   3.820   5.980  14.288 -0.9219 -0.2723  0.2009
  987TIP3   OH224451   4.507   5.722  12.891  0.2155  0.2483 -0.6058
  987TIP3    H124452   4.462   5.638  12.902  0.7078 -0.1641 -1.6317
  987TIP3    H224453   4.597   5.705  12.919  0.0013  0.8039  0.4716
  988TIP3   OH224454   3.344   2.499   5.201 -0.0274  0.0747  0.6172
  988TIP3    H124455   3.354   2.529   5.291  0.2995  1.6639  0.0790
  988TIP3    H224456   3.251   2.512   5.182  0.0303  0.3410  0.5187
  989TIP3   OH224457   6.532   3.185   2.300  0.3895  0.6083 -1.1480
  989TIP3    H124458   6.582   3.236   2.237  1.4250 -1.2948 -1.9810
  989TIP3    H224459   6.569   3.209   2.385  0.2320  1.8488 -1.4093
  990TIP3   OH224460   6.796   1.817  16.331 -1.0943 -0.1029 -0.0502
  990TIP3    H124461   6.724   1.771  16.287 -0.6240  0.3208 -1.3057
  990TIP3    H224462   6.845   1.747  16.375 -1.8030 -0.4928  0.1388
  991TIP3   OH224463   5.041   0.024   2.711  0.2429 -0.5107 -0.2784
  991TIP3    H124464   5.100   0.053   2.642  1.3430 -0.7182  0.5494
  991TIP3    H224465   4.985   0.100   2.728  1.7620  0.4912  0.4648
  992TIP3   OH224466   6.287   5.729  13.230  0.3767  0.4686 -0.1045
  992TIP3    H124467   6.299   5.729  13.326  0.7034  0.8203 -0.1429
  992TIP3    H224468   6.195   5.709  13.217  1.0131 -3.5889  0.2107
  993TIP3   OH224469   2.614   4.067   5.011  0.2498 -0.1929  0.3875
  993TIP3    H124470   2.567   4.004   4.957  1.2293 -0.2532 -0.4236
  993TIP3    H224471   2.631   4.141   4.953  1.1289 -0.1661  0.6642
  994TIP3   OH224472   1.846   3.232  12.573  0.1298  0.2325 -0.4668
  994TIP3    H124473   1.929   3.280  12.574  0.9280 -1.0954  0.6154
  994TIP3    H224474   1.781   3.296  12.599  0.8854  1.2021 -0.9205
  995TIP3   OH224475   5.753   4.151   4.524 -0.1537  0.0078 -0.3124
  995TIP3    H124476   5.711   4.157   4.610 -1.6042  0.1457 -0.9925
  995TIP3    H224477   5.680   4.133   4.464  0.7440  0.5716 -1.6006
  996TIP3   OH224478   6.022   2.224  11.781  0.2743 -0.4617 -0.6318
  996TIP3    H124479   5.958   2.275  11.829  2.2212  1.1092  0.4023
  996TIP3    H224480   6.097   2.282  11.771  1.5574 -2.2248 -1.8088
  997TIP3   OH224481   2.736   6.377   4.219  0.0376  0.0566 -0.2399
  997TIP3    H124482   2.645   6.368   4.190  0.0739 -0.3847 -0.2237
  997TIP3    H224483   2.757   6.293   4.259 -0.0630  0.7178  1.2410
  998TIP3   OH224484   3.050   2.463   4.672  0.4852  0.0469 -0.3680
  998TIP3    H124485   3.140   2.432   4.668  0.0395 -1.3253 -0.5216
  998TIP3    H224486   3.004   2.397   4.724 -0.4812  0.5712 -0.5242
  999TIP3   OH224487   0.601   2.902  11.144 -0.6118 -0.4761  0.3638
  999TIP3    H124488   0.603   2.856  11.060 -0.4810 -0.2560  0.2460
  999TIP3    H224489   0.537   2.854  11.196 -0.9832 -0.3824  0.0021
 1000TIP3   OH224490   1.290   1.436  12.474  0.3693  0.4648 -0.0989
 1000TIP3    H124491   1.381   1.435  12.443  0.6752 -0.5363  0.8029
 1000TIP3    H224492   1.242   1.388  12.407  0.5560  0.6911 -0.4020
 1001TIP3   OH224493   0.440   3.085   4.965 -0.0532 -0.0862  0.2670
 1001TIP3    H124494   0.411   3.035   5.041  1.0490 -1.3781 -0.1130
 1001TIP3    H224495   0.472   3.167   5.001 -0.7435 -0.1493  1.0521
 1002TIP3   OH224496   4.830   0.674   2.599  0.3226  0.2059  0.0091
 1002TIP3    H124497   4.919   0.683   2.632  0.0421 -1.0304  1.2163
 1002TIP3    H224498   4.789   0.610   2.658 -0.7861 -0.6962 -1.6465
 1003TIP3   OH224499   5.432   5.225  13.245 -0.2431  0.1621  0.9894
 1003TIP3    H124500   5.496   5.165  13.282  0.3020  0.5010  0.6146
 1003TIP3    H224501   5.457   5.232  13.153 -1.7873 -0.9647  0.4227
 1004TIP3   OH224502   0.015   3.744  11.791  0.3809 -0.5202 -0.4166
 1004TIP3    H124503  -0.047   3.815  11.777  1.5988  0.4372 -1.2183
 1004TIP3    H224504   0.062   3.768  11.871 -1.1435 -1.9393  0.9903
 1005TIP3   OH224505   0.632   3.960  13.165 -0.5541 -0.4221  0.4665
 1005TIP3    H124506   0.714   3.919  13.138 -0.0818  0.6717  0.1606
 1005TIP3    H224507   0.626   3.943  13.259  0.7910  0.7249  0.7957
 1006TIP3   OH224508   0.316   1.213  14.516 -0.4929 -0.0052 -0.5957
 1006TIP3    H124509   0.281   1.295  14.483  0.1312  0.8750  0.8206
 1006TIP3    H224510   0.242   1.153  14.515 -1.0860  0.7150 -1.1863
 1007TIP3   OH224511   5.220   3.175  12.451 -0.2444 -0.2411  0.3708
 1007TIP3    H124512   5.188   3.103  12.396  0.7808 -1.4714  1.2983
 1007TIP3    H224513   5.284   3.133  12.509 -0.3776  1.2403  1.6448
 1008TIP3   OH224514   6.053   2.046   1.959 -0.3953 -0.1128 -0.0857
 1008TIP3    H124515   5.981   2.018   2.016  0.3583 -0.3912  0.7563
 1008TIP3    H224516   6.032   2.137   1.938 -0.5197  0.1147  0.9372
 1009TIP3   OH224517   2.890   1.180   1.153  0.4456  0.0688 -0.9045
 1009TIP3    H124518   2.897   1.180   1.057  1.0486 -1.9803 -0.9089
 1009TIP3    H224519   2.798   1.161   1.171  0.8981 -2.7805 -1.1689
 1010TIP3   OH224520   1.781   6.424   1.010  0.1641 -0.1949  0.4977
 1010TIP3    H124521   1.726   6.355   1.046  0.3055 -0.4652  0.2076
 1010TIP3    H224522   1.721   6.495   0.989 -0.2624 -0.9408 -0.9409
 1011TIP3   OH224523   0.318   2.794   0.381  0.4066  0.0781 -0.0013
 1011TIP3    H124524   0.313   2.719   0.440  0.5486  0.6004  0.6837
 1011TIP3    H224525   0.404   2.786   0.339  1.2461  0.8843  1.4860
 1012TIP3   OH224526   0.279   3.438  12.825 -0.0167  0.2090 -0.0865
 1012TIP3    H124527   0.229   3.404  12.899  0.2245  0.4254  0.1801
 1012TIP3    H224528   0.265   3.374  12.755 -0.2985  0.0364  0.1244
 1013TIP3   OH224529   3.719   5.271  13.259 -0.5399  0.2405 -0.1808
 1013TIP3    H124530   3.654   5.311  13.201 -0.7229 -1.1330 -0.9665
 1013TIP3    H224531   3.759   5.345  13.304 -0.9962  1.2862 -1.4180
 1014TIP3   OH224532   6.765   1.008   3.957 -0.8437 -0.0395  0.0017
 1014TIP3    H124533   6.713   1.080   3.992 -0.9307 -0.7311  1.3624
 1014TIP3    H224534   6.832   0.992   4.024 -1.0933 -1.5080 -0.0615
 1015TIP3   OH224535   2.336   1.280   6.052 -0.2359  0.1435  0.2780
 1015TIP3    H124536   2.383   1.286   6.135  1.6187 -0.3494 -0.6680
 1015TIP3    H224537   2.359   1.193   6.018 -0.9759  0.3220 -0.7196
 1016TIP3   OH224538   3.967   4.112   4.231 -0.2543 -0.6295 -0.0806
 1016TIP3    H124539   3.973   4.018   4.215  0.6506 -0.3463 -1.5943
 1016TIP3    H224540   3.873   4.129   4.241 -0.6548 -1.3733 -2.1136
 1017TIP3   OH224541   4.118   3.674   5.635  0.1358  0.0468 -0.1867
 1017TIP3    H124542   4.189   3.731   5.665 -0.0818 -0.1904  0.8252
 1017TIP3    H224543   4.142   3.650   5.545  0.7227  0.9337 -0.2741
 1018TIP3   OH224544   2.678   2.916  16.122  0.6471  0.3317 -0.7002
 1018TIP3    H124545   2.759   2.889  16.077  0.5847  0.4597 -0.8913
 1018TIP3    H224546   2.611   2.859  16.084  0.6457  0.2291 -0.5444
 1019TIP3   OH224547   6.278   6.117   5.199 -0.1766 -0.2157  0.6935
 1019TIP3    H124548   6.327   6.197   5.178  0.4305 -0.9234 -0.6908
 1019TIP3    H224549   6.192   6.131   5.158 -0.3711  0.0912  1.2043
 1020TIP3   OH224550   3.242   6.285   0.315 -0.2459  0.2745  0.1146
 1020TIP3    H124551   3.288   6.358   0.273 -0.2938  0.5459  0.5294
 1020TIP3    H224552   3.230   6.313   0.406 -0.2706 -0.2489  0.2760
 1021TIP3   OH224553   2.232   2.956  16.003 -0.3508 -0.7689  0.1042
 1021TIP3    H124554   2.250   3.018  16.074  0.2879  0.0610 -0.7507
 1021TIP3    H224555   2.282   2.989  15.928  0.2678 -2.4944 -0.3077
 1022TIP3   OH224556   3.487   5.320   5.595 -0.0058  0.8763  0.2029
 1022TIP3    H124557   3.447   5.235   5.612  0.4503  0.6652  0.2438
 1022TIP3    H224558   3.515   5.351   5.681  0.6920  0.6233  0.0776
 1023TIP3   OH224559   6.066   4.189   2.846 -0.0488  0.3096  0.1444
 1023TIP3    H124560   6.067   4.281   2.873 -2.2349  0.3784  0.1884
 1023TIP3    H224561   6.030   4.190   2.758 -1.5027 -0.5664  0.6830
 1024TIP3   OH224562   3.571   6.505  16.770 -0.1808  0.7128 -0.0389
 1024TIP3    H124563   3.632   6.547  16.830 -0.3837 -0.0913  0.7514
 1024TIP3    H224564   3.621   6.432  16.731 -0.3021  0.7220 -0.2133
 1025TIP3   OH224565   5.217   2.140  11.400 -0.1881  0.3152  0.2014
 1025TIP3    H124566   5.193   2.101  11.484  1.0021  0.3984  0.5967
 1025TIP3    H224567   5.163   2.093  11.336  0.8960 -1.7498  0.7034
 1026TIP3   OH224568   4.888   3.090  11.866  0.0868 -0.0835 -0.7447
 1026TIP3    H124569   4.895   3.154  11.796  1.9063  0.2045 -0.3533
 1026TIP3    H224570   4.827   3.129  11.929  2.0786  1.9204  0.0835
 1027TIP3   OH224571   6.296   6.464  12.640  0.4332  0.6681  0.1753
 1027TIP3    H124572   6.236   6.411  12.588  1.0958 -0.7046  0.7771
 1027TIP3    H224573   6.269   6.554  12.622 -0.8497  0.1404 -0.7077
 1028TIP3   OH224574   4.109   1.760   4.628 -0.1077  0.6257  0.1528
 1028TIP3    H124575   4.066   1.797   4.705 -0.0832  1.1712 -0.0901
 1028TIP3    H224576   4.121   1.835   4.569  0.2355  0.2882 -0.2123
 1029TIP3   OH224577   6.203   6.802   1.619 -0.2792 -0.1692  0.3402
 1029TIP3    H124578   6.285   6.847   1.640 -0.9031  0.8468  0.6386
 1029TIP3    H224579   6.156   6.797   1.703 -0.7266 -0.3357  0.0829
 1030TIP3   OH224580   1.148   6.773  15.598  0.0876  0.5125 -0.3583
 1030TIP3    H124581   1.153   6.710  15.527  0.1363 -1.6883  1.5021
 1030TIP3    H224582   1.060   6.761  15.635  0.8902 -0.1179  1.4381
 1031TIP3   OH224583   2.646   3.113  11.883 -0.3494  0.0297 -0.3930
 1031TIP3    H124584   2.715   3.166  11.923  1.0624 -1.4164 -0.8141
 1031TIP3    H224585   2.571   3.124  11.941  0.6615  0.5343  0.8789
 1032TIP3   OH224586   0.687   2.434   1.637 -0.4195 -0.8673 -0.4299
 1032TIP3    H124587   0.625   2.416   1.566 -0.4299  1.4159 -1.0668
 1032TIP3    H224588   0.773   2.419   1.599 -0.4609 -0.5651 -0.6442
 1033TIP3   OH224589   6.111   3.138   6.702  0.0717 -0.0181 -0.7465
 1033TIP3    H124590   6.197   3.179   6.713 -0.1186  0.0656  0.5545
 1033TIP3    H224591   6.114   3.061   6.758 -1.0222  0.4992  0.0581
 1034TIP3   OH224592   3.401   4.109   3.675 -0.0881 -0.4358  0.2248
 1034TIP3    H124593   3.467   4.058   3.720 -0.0973 -0.1079  0.6178
 1034TIP3    H224594   3.417   4.199   3.703  0.1505 -0.1726 -0.7237
 1035TIP3   OH224595   6.050   2.387   6.222 -0.0842  0.3098 -0.0627
 1035TIP3    H124596   6.079   2.354   6.307  0.4969  1.6077  0.2562
 1035TIP3    H224597   6.117   2.357   6.160 -0.1321 -0.0271  0.0464
 1036TIP3   OH224598   1.274   2.822   2.722  0.4624  0.1112 -0.6509
 1036TIP3    H124599   1.187   2.859   2.735  0.2889  0.5230 -2.5844
 1036TIP3    H224600   1.307   2.805   2.810 -1.4672  0.1704  0.1251
 1037TIP3   OH224601   1.716   0.266   4.756 -0.5351  0.3028  0.1351
 1037TIP3    H124602   1.670   0.301   4.832  0.3065  0.3033  0.6526
 1037TIP3    H224603   1.809   0.276   4.777 -0.2896 -0.3967 -0.5660
 1038TIP3   OH224604   6.146   5.050  15.968  0.5201 -0.3110 -0.4632
 1038TIP3    H124605   6.129   4.995  15.892 -0.8080  0.3062 -0.6493
 1038TIP3    H224606   6.135   5.139  15.936  2.2801  0.0805 -0.0768
 1039TIP3   OH224607   4.576   6.197  14.784  0.3174  0.4668 -0.3383
 1039TIP3    H124608   4.499   6.249  14.761 -1.8785 -2.4044  0.0639
 1039TIP3    H224609   4.612   6.170  14.699  0.6840  1.4893 -0.5221
 1040TIP3   OH224610   6.079   3.582  13.132  0.2864  0.1584 -0.1882
 1040TIP3    H124611   6.082   3.496  13.090  0.1682  0.9731 -1.9395
 1040TIP3    H224612   6.124   3.569  13.216 -1.0196 -1.9295  0.2475
 1041TIP3   OH224613   0.280   1.620  13.933 -0.2345 -0.2774  0.0156
 1041TIP3    H124614   0.276   1.586  14.022  1.6625 -1.8555 -0.4418
 1041TIP3    H224615   0.194   1.601  13.896 -0.4100 -1.3476  0.9179
 1042TIP3   OH224616   5.587   3.246  13.632  0.2441  0.4086  0.1627
 1042TIP3    H124617   5.642   3.211  13.703 -1.9829 -3.2502  0.3205
 1042TIP3    H224618   5.544   3.322  13.670 -1.5101 -1.8921  3.2614
 1043TIP3   OH224619   5.980   4.320  14.249 -0.5859 -0.1043  0.3676
 1043TIP3    H124620   6.030   4.271  14.315  0.0172  0.7262  0.5373
 1043TIP3    H224621   5.955   4.253  14.185  1.9315 -0.3656 -0.4553
 1044TIP3   OH224622   0.763   4.188   4.988 -0.2490  0.8219 -0.3867
 1044TIP3    H124623   0.811   4.107   4.977  0.4768  1.2364 -0.3487
 1044TIP3    H224624   0.751   4.198   5.082  0.5247  1.2392 -0.3241
 1045TIP3   OH224625   5.795   2.661   4.195  0.3686  0.1356 -0.0107
 1045TIP3    H124626   5.820   2.691   4.108 -0.2026  0.6384 -0.0046
 1045TIP3    H224627   5.700   2.666   4.197  0.3778  0.2349  0.6740
 1046TIP3   OH224628   4.810   0.093  12.465 -0.2560  0.1669 -0.3383
 1046TIP3    H124629   4.836   0.031  12.533  0.0337  1.6817  1.0060
 1046TIP3    H224630   4.714   0.094  12.469 -0.2752  2.7587  2.6034
 1047TIP3   OH224631   2.849   0.072   2.495 -0.5360 -0.6109 -0.1286
 1047TIP3    H124632   2.920   0.043   2.438 -0.2708  1.0457 -0.7192
 1047TIP3    H224633   2.849   0.168   2.485 -0.2343 -0.1855  2.9350
 1048TIP3   OH224634   2.155   1.680  16.470  0.2025 -0.1363 -0.2967
 1048TIP3    H124635   2.216   1.607  16.463 -1.0425 -1.3853  1.0247
 1048TIP3    H224636   2.115   1.686  16.383  1.2406 -0.1443 -0.7909
 1049TIP3   OH224637   0.910   5.067   0.648  0.5461  0.4389 -0.3049
 1049TIP3    H124638   0.823   5.026   0.643 -0.1317  1.8138 -0.1724
 1049TIP3    H224639   0.947   5.052   0.561  0.2552 -0.3048 -0.3137
 1050TIP3   OH224640   5.926   6.623  15.626 -0.2684  0.3559 -0.0748
 1050TIP3    H124641   5.989   6.581  15.568  0.4382  0.7972  0.3606
 1050TIP3    H224642   5.940   6.717  15.613  0.7115  0.4786  1.6549
 1051TIP3   OH224643   0.088   4.982   0.427  0.1183  0.5867 -0.5217
 1051TIP3    H124644   0.163   4.962   0.371 -1.0906  0.4686 -2.1515
 1051TIP3    H224645   0.106   4.936   0.509  1.2680 -0.3942 -1.2987
 1052TIP3   OH224646   2.556   5.272  17.041  0.1824  0.0889 -0.2976
 1052TIP3    H124647   2.603   5.299  17.120 -0.1820  2.7352 -0.8847
 1052TIP3    H224648   2.525   5.354  17.002 -0.7000 -1.2110 -2.5497
 1053TIP3   OH224649   4.207   6.483   0.074 -0.0202  0.1960 -0.4699
 1053TIP3    H124650   4.273   6.463   0.140  0.2650 -0.0357 -0.8205
 1053TIP3    H224651   4.210   6.408   0.014  0.0074  0.5914 -0.9726
 1054TIP3   OH224652   2.288   0.960   0.874  0.1350  0.5855  0.2883
 1054TIP3    H124653   2.317   1.051   0.886 -0.3169  0.7075  0.4845
 1054TIP3    H224654   2.278   0.951   0.779  1.7722  0.2292  0.1213
 1055TIP3   OH224655   5.173   2.324   2.697  0.7659 -0.0700  0.2626
 1055TIP3    H124656   5.144   2.301   2.609  0.5040 -1.2287  0.6240
 1055TIP3    H224657   5.142   2.413   2.711  1.1878  0.2786 -0.9692
 1056TIP3   OH224658   5.635   0.344   0.178  0.6116 -0.4419 -0.7069
 1056TIP3    H124659   5.562   0.351   0.117  0.7410 -0.1936 -0.8401
 1056TIP3    H224660   5.631   0.425   0.229  0.6105 -0.5669 -0.5121
 1057TIP3   OH224661   0.623   5.723  11.973  0.4172  0.2308  0.0637
 1057TIP3    H124662   0.576   5.747  11.893  2.6267  0.9039 -1.1033
 1057TIP3    H224663   0.554   5.702  12.036 -1.4159  1.1380 -1.5524
 1058TIP3   OH224664   3.871   4.888   1.097 -0.1331 -0.5517 -0.4677
 1058TIP3    H124665   3.807   4.959   1.104 -0.5689 -1.0857  1.7662
 1058TIP3    H224666   3.926   4.898   1.175  0.6440 -1.8718 -0.8165
 1059TIP3   OH224667   0.599   1.765   3.623 -0.0390 -0.0068 -0.8656
 1059TIP3    H124668   0.593   1.732   3.533 -1.8380 -1.7193 -0.1905
 1059TIP3    H224669   0.512   1.751   3.659  0.8112  0.0681  1.3451
 1060TIP3   OH224670   2.075   5.345  10.517  0.0063  0.0877  0.2761
 1060TIP3    H124671   1.980   5.346  10.503  0.0620 -1.1240 -0.4153
 1060TIP3    H224672   2.108   5.285  10.449  1.2181  0.1631  0.7693
 1061TIP3   OH224673   1.298   2.340  12.754  0.1640 -0.3121  0.6574
 1061TIP3    H124674   1.260   2.268  12.704  3.1042 -1.4779 -0.1690
 1061TIP3    H224675   1.241   2.415  12.737 -1.7670 -1.9139 -0.2556
 1062TIP3   OH224676   0.294   4.216   3.888 -0.1651 -0.3594  0.0156
 1062TIP3    H124677   0.304   4.306   3.917 -1.7332 -0.3321  0.5847
 1062TIP3    H224678   0.309   4.219   3.794  0.4376  0.3666  0.1275
 1063TIP3   OH224679   2.890   1.908   4.174  1.0416 -0.2148  0.6538
 1063TIP3    H124680   2.925   1.959   4.247  2.2537  0.5196 -0.3950
 1063TIP3    H224681   2.812   1.956   4.146  1.7212  0.6543  0.1888
 1064TIP3   OH224682   0.802   6.498   0.367  0.0134 -0.0634 -0.2123
 1064TIP3    H124683   0.729   6.525   0.423  0.7365  0.9916  0.2401
 1064TIP3    H224684   0.855   6.440   0.422  0.0932  0.0333 -0.1868
 1065TIP3   OH224685   1.479   4.654  12.135 -0.4490 -0.0447 -0.0138
 1065TIP3    H124686   1.488   4.566  12.098 -0.3309  0.1464 -0.4467
 1065TIP3    H224687   1.518   4.711  12.069 -0.5883  0.3392  0.2366
 1066TIP3   OH224688   6.242   0.851   3.315 -0.0316 -0.2550 -0.5681
 1066TIP3    H124689   6.289   0.850   3.398 -2.8421 -1.3167  1.1426
 1066TIP3    H224690   6.238   0.943   3.291 -0.7669  0.2950  1.4873
 1067TIP3   OH224691   0.418   5.276  10.963 -0.3823 -0.3308 -0.6982
 1067TIP3    H124692   0.488   5.265  11.027 -0.3073 -2.0687 -1.0261
 1067TIP3    H224693   0.435   5.361  10.922 -0.2990  0.7250  1.3867
 1068TIP3   OH224694   5.088   2.280  12.893  0.0333  0.7077  0.4377
 1068TIP3    H124695   5.092   2.354  12.833  1.8229  0.4478  0.1960
 1068TIP3    H224696   5.163   2.292  12.952 -0.4622 -0.1734  1.2776
 1069TIP3   OH224697   0.005   4.825  10.638  0.1998  0.1879 -0.1282
 1069TIP3    H124698  -0.067   4.866  10.686  0.6720  0.2701  0.5248
 1069TIP3    H224699   0.064   4.898  10.616  0.8930 -0.0905  0.7721
 1070TIP3   OH224700   2.179   6.088   2.615  0.6200 -0.4051 -0.5018
 1070TIP3    H124701   2.087   6.090   2.643 -0.0064  0.0778 -2.4695
 1070TIP3    H224702   2.219   6.019   2.668 -1.1870 -1.4939 -0.4928
 1071TIP3   OH224703   3.364   0.303   0.162  0.5728  0.1107 -0.1379
 1071TIP3    H124704   3.305   0.265   0.226 -0.6178 -0.4323 -1.5111
 1071TIP3    H224705   3.321   0.290   0.077  1.6618  1.5925 -0.9851
 1072TIP3   OH224706   3.992   0.307   6.405  0.3740  0.3410 -0.0322
 1072TIP3    H124707   3.993   0.339   6.495  0.4362  0.4909 -0.0871
 1072TIP3    H224708   4.011   0.384   6.351  1.2986  0.0761 -0.1182
 1073TIP3   OH224709   3.019   0.810  16.730  0.5932  0.4171 -0.7901
 1073TIP3    H124710   3.055   0.741  16.673  0.3331  0.5978 -1.1811
 1073TIP3    H224711   3.020   0.772  16.817  0.2824 -0.1607 -1.0296
 1074TIP3   OH224712   1.049   6.695   5.893 -0.3930  0.2412  0.3345
 1074TIP3    H124713   1.099   6.633   5.947  0.6867 -2.2427 -3.1943
 1074TIP3    H224714   1.115   6.738   5.839 -1.6025  0.5442 -0.9514
 1075TIP3   OH224715   4.050   3.582  13.774 -0.0661  0.5902 -0.3979
 1075TIP3    H124716   3.995   3.568  13.696 -0.0060 -1.9236 -0.0888
 1075TIP3    H224717   4.140   3.573  13.741 -0.0491 -0.8752 -0.0447
 1076TIP3   OH224718   2.142   4.228   1.525 -0.2056 -0.7757 -0.1447
 1076TIP3    H124719   2.093   4.279   1.460  1.2795 -0.8180 -1.3565
 1076TIP3    H224720   2.094   4.146   1.532 -1.1310 -0.2604 -0.1689
 1077TIP3   OH224721   1.149   0.666  16.653 -0.1610 -0.1259 -0.3666
 1077TIP3    H124722   1.130   0.693  16.743  0.5778  1.3262 -0.6148
 1077TIP3    H224723   1.211   0.732  16.620 -0.5444 -0.5172 -1.9938
 1078TIP3   OH224724   2.125   3.957   0.636  0.0438 -0.4834 -0.3801
 1078TIP3    H124725   2.221   3.957   0.637  0.0481  0.3670 -0.0339
 1078TIP3    H224726   2.102   3.997   0.552  0.0320  2.0595  0.7418
 1079TIP3   OH224727   1.474   3.891   0.751  0.4106  0.0853 -0.1448
 1079TIP3    H124728   1.529   3.922   0.680 -0.4904 -2.4296 -2.0794
 1079TIP3    H224729   1.422   3.821   0.713  0.4657 -2.0094  3.1943
 1080TIP3   OH224730   5.716   2.730  14.584 -0.1430  0.4865 -0.2646
 1080TIP3    H124731   5.633   2.777  14.582 -0.3803  0.0440 -1.6210
 1080TIP3    H224732   5.691   2.638  14.596  0.2160  0.4551  0.3047
 1081TIP3   OH224733   3.755   1.842   2.631  0.1986  0.3972  0.1074
 1081TIP3    H124734   3.832   1.889   2.599  1.3052 -1.9219 -0.8876
 1081TIP3    H224735   3.789   1.758   2.663 -1.7247  0.0011  1.3184
 1082TIP3   OH224736   1.643   4.833   4.154 -0.3102 -0.4911  0.7476
 1082TIP3    H124737   1.567   4.797   4.199 -1.7355  0.6933 -0.5929
 1082TIP3    H224738   1.617   4.922   4.132  0.3334 -0.9421 -2.2282
 1083TIP3   OH224739   4.158   5.983  13.423 -0.1068 -0.0895  0.0325
 1083TIP3    H124740   4.153   6.076  13.400 -1.3669  0.0122  0.6535
 1083TIP3    H224741   4.152   5.981  13.518  0.6175 -0.7796  0.0751
 1084TIP3   OH224742   2.755   4.659  14.688  0.1598 -0.1544 -0.0312
 1084TIP3    H124743   2.800   4.710  14.755  0.3400 -2.4750  1.7679
 1084TIP3    H224744   2.823   4.602  14.651 -0.6976 -1.9092  0.9269
 1085TIP3   OH224745   4.701   5.639  11.597 -0.0406  0.0489  0.1108
 1085TIP3    H124746   4.741   5.722  11.625  0.0630  0.0084  0.0834
 1085TIP3    H224747   4.774   5.588  11.562 -0.5734  1.1774 -2.9182
 1086TIP3   OH224748   0.877   6.282  14.120  0.2172 -0.3577 -0.3942
 1086TIP3    H124749   0.905   6.339  14.049  1.0820 -0.1851  0.0706
 1086TIP3    H224750   0.820   6.337  14.175  1.2494  0.1530  0.1902
 1087TIP3   OH224751   1.399   1.693   5.269  1.0004  0.2400  0.0373
 1087TIP3    H124752   1.423   1.641   5.345  0.9152  1.6964  1.1190
 1087TIP3    H224753   1.313   1.660   5.244  0.4083  0.6043  1.4511
 1088TIP3   OH224754   0.263   2.650  12.525 -0.1337  0.1480 -0.1126
 1088TIP3    H124755   0.227   2.577  12.475 -0.9699  0.1279  0.4947
 1088TIP3    H224756   0.323   2.694  12.464 -1.3660  0.3263 -1.2328
 1089TIP3   OH224757   5.566   1.324  17.234 -0.2497 -0.1229 -0.2790
 1089TIP3    H124758   5.656   1.305  17.260 -0.4310 -0.9372 -0.1921
 1089TIP3    H224759   5.574   1.385  17.161  0.3115  1.0915  0.7649
 1090TIP3   OH224760   0.043   5.389   0.630 -0.3493 -0.3332  0.2323
 1090TIP3    H124761  -0.045   5.408   0.663 -0.5275 -2.3684  1.0525
 1090TIP3    H224762   0.028   5.340   0.550  0.0676 -0.0689 -0.0126
 1091TIP3   OH224763   5.068   6.470  15.241  1.1854 -0.3949 -0.1809
 1091TIP3    H124764   5.155   6.433  15.251  0.3501 -2.0945  1.7644
 1091TIP3    H224765   5.023   6.409  15.182  1.4831  0.8639 -1.7495
 1092TIP3   OH224766   5.265   6.155  14.091  0.1316 -0.0167 -0.5165
 1092TIP3    H124767   5.178   6.118  14.110  1.0897 -1.2117  1.9012
 1092TIP3    H224768   5.254   6.249  14.106 -0.8499 -0.0755 -0.7565
 1093TIP3   OH224769   5.479   6.804   2.105  0.0038  0.4153  0.3768
 1093TIP3    H124770   5.427   6.882   2.086  2.2630  1.3794 -2.6561
 1093TIP3    H224771   5.437   6.734   2.056  0.4582  0.8043 -0.6110
 1094TIP3   OH224772   0.683   0.070  16.084  0.3718 -0.2509 -0.0884
 1094TIP3    H124773   0.760   0.121  16.109  2.0372 -2.4950 -0.3260
 1094TIP3    H224774   0.610   0.131  16.093  2.0681  1.7759  0.8375
 1095TIP3   OH224775   2.621   1.987  16.046 -0.2960 -0.4393  0.1541
 1095TIP3    H124776   2.578   2.024  15.968  2.0552  0.9845 -0.5613
 1095TIP3    H224777   2.618   2.058  16.110 -1.1492 -1.1937  0.9747
 1096TIP3   OH224778   0.844   0.004  14.935  0.1442  0.1030 -0.1744
 1096TIP3    H124779   0.939  -0.003  14.922  0.0956  0.3023 -0.6747
 1096TIP3    H224780   0.806  -0.023  14.851 -0.1651  1.8589 -0.6547
 1097TIP3   OH224781   1.997   0.639   5.332 -0.2692 -0.1909  0.4515
 1097TIP3    H124782   1.982   0.631   5.427  0.7512 -0.1234  0.6296
 1097TIP3    H224783   1.979   0.730   5.312 -0.6326 -0.2397  0.5571
 1098TIP3   OH224784   6.249   6.498   6.080 -0.5033 -0.5185 -0.0396
 1098TIP3    H124785   6.233   6.408   6.050 -2.2063 -0.4754  0.6457
 1098TIP3    H224786   6.342   6.499   6.102 -0.7408 -2.5535  1.3454
 1099TIP3   OH224787   3.535   5.601  14.635 -0.7568  0.4794  0.7576
 1099TIP3    H124788   3.628   5.602  14.610 -0.6927 -0.4288  0.9449
 1099TIP3    H224789   3.494   5.542  14.573 -0.8015 -0.8782  2.0172
 1100TIP3   OH224790   0.783   2.111   1.227  0.6339  0.4658  0.3407
 1100TIP3    H124791   0.770   2.075   1.139  1.6403  0.2760  0.2530
 1100TIP3    H224792   0.877   2.104   1.242  0.3952 -0.1951  1.7261
 1101TIP3   OH224793   5.666   6.431  16.082 -0.3799 -0.3707 -0.0134
 1101TIP3    H124794   5.682   6.381  16.161 -0.2912  0.5561  0.5676
 1101TIP3    H224795   5.753   6.442  16.042 -0.5611 -1.9569 -0.9727
 1102TIP3   OH224796   2.255   6.370  11.691 -0.2000  0.6146 -0.4007
 1102TIP3    H124797   2.267   6.428  11.615 -0.0188 -1.3102 -1.9316
 1102TIP3    H224798   2.191   6.305  11.661 -0.1085 -0.1972  1.1052
 1103TIP3   OH224799   3.486   3.240   3.584 -0.3544 -0.0532  0.3798
 1103TIP3    H124800   3.475   3.335   3.594 -0.2291 -0.1154  1.1476
 1103TIP3    H224801   3.418   3.202   3.640 -2.6013 -0.4514 -2.3786
 1104TIP3   OH224802   2.919   5.635  13.070  0.1308  0.0865 -0.6019
 1104TIP3    H124803   2.942   5.579  12.995 -0.7948  0.3226 -1.0857
 1104TIP3    H224804   2.879   5.575  13.133 -2.6957  0.4203 -1.9315
 1105TIP3   OH224805   4.294   0.116  14.125 -0.9514  0.6058  0.2078
 1105TIP3    H124806   4.345   0.165  14.060 -0.9478 -0.1096 -0.3401
 1105TIP3    H224807   4.239   0.057  14.073 -0.6320 -0.2976  0.8691
 1106TIP3   OH224808   3.880   3.589   0.904  0.3446  0.2989 -0.0392
 1106TIP3    H124809   3.807   3.529   0.919  0.0154  0.6999 -0.0016
 1106TIP3    H224810   3.932   3.548   0.835 -0.3746  0.4057 -0.6557
 1107TIP3   OH224811   6.783   5.538   2.580  0.1458 -0.5815  0.2696
 1107TIP3    H124812   6.711   5.556   2.519  0.9292  0.7551 -0.2998
 1107TIP3    H224813   6.769   5.448   2.608 -0.5211 -1.0594 -1.4969
 1108TIP3   OH224814   3.341   0.988  16.259 -0.4671  0.0649 -0.7570
 1108TIP3    H124815   3.380   1.023  16.179 -0.5678  1.6995 -0.1244
 1108TIP3    H224816   3.395   1.023  16.329  0.3232 -2.2783 -0.1046
 1109TIP3   OH224817   4.792   5.059   3.183  0.1956 -0.2212 -0.5238
 1109TIP3    H124818   4.869   5.069   3.238 -0.3453  0.6435  0.0921
 1109TIP3    H224819   4.817   4.994   3.117  0.6702 -1.7134  1.0699
 1110TIP3   OH224820   2.917   6.515   4.596  0.3418 -0.3966  0.0321
 1110TIP3    H124821   2.855   6.480   4.660  0.0839 -0.9295 -0.4985
 1110TIP3    H224822   2.864   6.528   4.517  0.1074  2.4448  0.5609
 1111TIP3   OH224823   1.433   1.867  13.922  0.0795 -0.2155  0.2488
 1111TIP3    H124824   1.384   1.787  13.901 -0.5264  0.1005  0.4240
 1111TIP3    H224825   1.519   1.836  13.950 -0.4656 -0.8724  1.2584
 1112TIP3   OH224826   1.216   2.901   5.225  0.0721 -0.6440  0.0767
 1112TIP3    H124827   1.235   2.856   5.143  1.4169 -2.6758  1.3871
 1112TIP3    H224828   1.126   2.877   5.246 -0.6143  0.6754 -1.2239
 1113TIP3   OH224829   2.117   1.354   4.689 -0.2531 -0.4980 -0.5076
 1113TIP3    H124830   2.154   1.402   4.615  0.7691  0.4380  0.5596
 1113TIP3    H224831   2.192   1.341   4.748 -1.3782  0.3556  1.1690
 1114TIP3   OH224832   0.447   0.505   1.265  0.4375 -0.0667 -0.3735
 1114TIP3    H124833   0.407   0.491   1.351 -0.6496  0.2801 -0.8126
 1114TIP3    H224834   0.480   0.595   1.269  1.5676 -0.4890  0.1332
 1115TIP3   OH224835   0.567   2.502   3.140 -0.4359 -0.2641  0.2610
 1115TIP3    H124836   0.496   2.540   3.088  0.3452  0.1964 -0.4874
 1115TIP3    H224837   0.523   2.466   3.217 -1.3438  1.1622  0.4535
 1116TIP3   OH224838   3.151   2.406  15.610 -0.1446  0.5098  0.2954
 1116TIP3    H124839   3.147   2.499  15.588 -0.1180  0.6125  0.7239
 1116TIP3    H224840   3.244   2.385  15.611 -0.0733  0.8387  1.6879
 1117TIP3   OH224841   5.211   0.125  13.005 -0.5930  0.1473  0.1096
 1117TIP3    H124842   5.272   0.082  12.945  0.3508 -0.4030  1.4321
 1117TIP3    H224843   5.127   0.082  12.988 -0.1481 -0.6275 -0.1961
 1118TIP3   OH224844   0.806   2.290   3.602 -0.0245  0.1339 -0.0789
 1118TIP3    H124845   0.806   2.381   3.571  0.2728  0.7660  1.6809
 1118TIP3    H224846   0.744   2.245   3.545 -0.9097  1.6648 -0.3650
 1119TIP3   OH224847   1.483   1.974   0.197  0.0967 -0.4787  0.0301
 1119TIP3    H124848   1.543   2.030   0.245  0.4958 -0.6628 -0.2485
 1119TIP3    H224849   1.488   1.889   0.241  0.0638 -0.5028 -0.0123
 1120TIP3   OH224850   1.708   5.617   1.932 -0.2954 -0.0137  0.3222
 1120TIP3    H124851   1.800   5.626   1.958 -0.0102 -0.4984 -0.4650
 1120TIP3    H224852   1.661   5.600   2.014  0.6219 -1.8895  0.5137
 1121TIP3   OH224853   5.151   6.257   5.832 -0.3246  0.7227  0.8556
 1121TIP3    H124854   5.084   6.258   5.900  0.2528 -1.3575  1.5251
 1121TIP3    H224855   5.175   6.165   5.823  1.9799  1.3258  0.1659
 1122TIP3   OH224856   1.300   2.054  15.071  0.5666  0.0379  0.0626
 1122TIP3    H124857   1.335   2.046  15.160 -0.3472  2.4146  0.7301
 1122TIP3    H224858   1.373   2.030  15.014  1.4320 -0.7242  1.4357
 1123TIP3   OH224859   2.139   1.846   4.532 -0.4068  0.0443  0.1718
 1123TIP3    H124860   2.169   1.925   4.577 -0.9520  0.6661 -0.5403
 1123TIP3    H224861   2.080   1.804   4.595  1.3207 -0.8262  1.3114
 1124TIP3   OH224862   1.560   2.183   1.887 -0.1356 -0.2456 -0.0911
 1124TIP3    H124863   1.615   2.204   1.962 -0.3920 -1.2649  0.3945
 1124TIP3    H224864   1.596   2.236   1.816  0.9826 -0.3062  0.4039
 1125TIP3   OH224865   3.007   0.583   4.095 -0.5117  0.1813 -0.3484
 1125TIP3    H124866   3.088   0.633   4.096 -0.8706  0.8386 -1.6960
 1125TIP3    H224867   2.999   0.547   4.184  2.4885 -1.9267 -0.7858
 1126TIP3   OH224868   0.128   6.061  16.905  0.0927 -0.5243 -0.0298
 1126TIP3    H124869   0.110   6.117  16.830 -0.3175 -0.1935  0.3078
 1126TIP3    H224870   0.084   6.105  16.978  2.1850  0.2622  0.8196
 1127TIP3   OH224871   6.021   2.870   1.123  0.5766  0.0666  0.4590
 1127TIP3    H124872   5.963   2.936   1.159  0.8271  0.6101 -0.1182
 1127TIP3    H224873   6.090   2.920   1.080  0.2289 -0.5517 -0.8663
 1128TIP3   OH224874   3.996   0.215  15.851 -0.0100 -0.1220 -0.0752
 1128TIP3    H124875   3.946   0.136  15.829 -1.9275  0.9285  0.2824
 1128TIP3    H224876   3.965   0.281  15.789 -0.4597  1.0560  1.3495
 1129TIP3   OH224877   4.645   5.037   0.906 -0.7654 -0.0039  0.6724
 1129TIP3    H124878   4.715   5.102   0.914  0.9387 -1.5041 -0.9374
 1129TIP3    H224879   4.673   4.965   0.963 -0.2021 -1.1843 -1.0001
 1130TIP3   OH224880   6.469   3.266   4.880  0.1198  0.0761  0.1412
 1130TIP3    H124881   6.458   3.359   4.898 -0.5160 -0.0356  0.3608
 1130TIP3    H224882   6.454   3.258   4.786  0.6400  0.2556  0.0367
 1131TIP3   OH224883   1.944   2.229  12.344  1.8302  0.6498 -0.0717
 1131TIP3    H124884   1.922   2.283  12.268  0.3042 -1.9968 -1.6564
 1131TIP3    H224885   2.038   2.214  12.336  1.3404 -1.6531 -3.0377
 1132TIP3   OH224886   5.187   5.606  10.446  0.0585  0.3902  0.8502
 1132TIP3    H124887   5.113   5.578  10.499 -1.2983 -0.0259 -1.1607
 1132TIP3    H224888   5.160   5.691  10.410  0.1874 -0.1413 -0.5424
 1133TIP3   OH224889   2.698   3.161  12.285 -0.0270 -0.5783 -0.3838
 1133TIP3    H124890   2.607   3.189  12.292  0.5142  0.9509  2.8593
 1133TIP3    H224891   2.729   3.159  12.376  3.1858 -0.9671 -1.3557
 1134TIP3   OH224892   0.431   0.894  13.889  0.1063  0.4283  0.0837
 1134TIP3    H124893   0.426   0.963  13.955  2.1300  1.6659 -0.9625
 1134TIP3    H224894   0.397   0.934  13.810 -0.8236 -0.5358 -0.0237
 1135TIP3   OH224895   1.140   1.480  13.655  0.2393  0.0241 -0.1602
 1135TIP3    H124896   1.158   1.410  13.718  0.0296  0.3865  0.3114
 1135TIP3    H224897   1.196   1.460  13.580  0.9869 -0.0465  0.4067
 1136TIP3   OH224898   5.897   3.835  17.098  0.0921 -0.0148 -0.1130
 1136TIP3    H124899   5.868   3.788  17.020  0.0067 -0.1701  0.0127
 1136TIP3    H224900   5.875   3.926  17.080  0.3275 -0.0087 -0.3886
 1137TIP3   OH224901   1.002   2.098   3.246 -0.6541 -0.9448 -0.3718
 1137TIP3    H124902   0.972   2.048   3.170 -2.1225 -0.2921 -0.2557
 1137TIP3    H224903   1.033   2.181   3.210  0.3640 -1.3262 -0.4134
 1138TIP3   OH224904   4.409   1.554   4.237 -0.2279 -0.0913  0.0610
 1138TIP3    H124905   4.483   1.611   4.216 -0.4376 -0.2142 -1.1081
 1138TIP3    H224906   4.447   1.468   4.251 -0.1955 -0.3543 -1.4248
 1139TIP3   OH224907   6.243   0.702   0.231 -0.4185 -0.3846 -0.4328
 1139TIP3    H124908   6.245   0.606   0.222 -1.3652 -0.2797 -2.0219
 1139TIP3    H224909   6.189   0.717   0.309  0.3272 -1.1359  0.2558
 1140TIP3   OH224910   2.434   6.772   0.648 -0.4701  0.2761 -0.9090
 1140TIP3    H124911   2.390   6.856   0.641  0.2634  0.6965 -0.5481
 1140TIP3    H224912   2.520   6.792   0.684 -0.3356 -0.6427 -0.6796
 1141TIP3   OH224913   5.316   2.290   4.961  0.3822 -0.3818 -0.1127
 1141TIP3    H124914   5.317   2.230   5.035  0.0358 -0.5145 -0.2167
 1141TIP3    H224915   5.408   2.296   4.935  0.1234 -4.1117 -2.7144
 1142TIP3   OH224916   2.476   2.930   0.495 -0.3123  0.1016 -0.3231
 1142TIP3    H124917   2.523   3.007   0.526 -1.0186  0.6583 -0.6269
 1142TIP3    H224918   2.543   2.861   0.492  0.0626  0.3705  1.1532
 1143TIP3   OH224919   3.032   2.304  15.851 -0.0930 -0.0521 -0.3019
 1143TIP3    H124920   3.065   2.347  15.773 -1.9007  1.7746 -0.1460
 1143TIP3    H224921   3.078   2.346  15.924  0.1262 -0.3311 -0.2772
 1144TIP3   OH224922   3.459   4.470   6.219 -0.3066  0.1744  0.1506
 1144TIP3    H124923   3.375   4.500   6.183 -0.3535 -0.8362 -0.6054
 1144TIP3    H224924   3.479   4.535   6.287 -0.4271  1.8899 -1.3592
 1145TIP3   OH224925   6.541   1.251   5.589 -0.0228  0.4693  0.5593
 1145TIP3    H124926   6.632   1.231   5.610  0.9000 -0.0464 -3.2528
 1145TIP3    H224927   6.537   1.346   5.584  0.0268  0.5379  1.6491
 1146TIP3   OH224928   2.478   6.550   4.487  0.1909 -0.4251 -0.2126
 1146TIP3    H124929   2.489   6.621   4.551  0.5176 -0.3715 -0.3287
 1146TIP3    H224930   2.396   6.571   4.442 -0.9159 -1.3334  1.2967
 1147TIP3   OH224931   1.253   1.996   0.755 -0.3307  0.5340  0.1746
 1147TIP3    H124932   1.283   1.995   0.664 -1.5526 -2.3444 -0.2865
 1147TIP3    H224933   1.296   1.920   0.795 -0.9870  0.8855  1.5893
 1148TIP3   OH224934   3.185   1.085   4.167 -0.1261  0.1493 -0.4889
 1148TIP3    H124935   3.205   1.019   4.100 -0.5799 -0.3488 -0.1387
 1148TIP3    H224936   3.105   1.054   4.209 -0.3759  0.9488 -0.3455
 1149TIP3   OH224937   5.458   5.111   2.610 -0.0948 -0.0248 -0.2224
 1149TIP3    H124938   5.364   5.115   2.596  0.2549  0.7209 -2.8557
 1149TIP3    H224939   5.490   5.199   2.590  1.0101  0.3671  2.6869
 1150TIP3   OH224940   0.031   3.415   2.964  0.2267  0.0190 -0.2165
 1150TIP3    H124941  -0.036   3.441   3.028 -0.0343  1.4714 -1.0411
 1150TIP3    H224942   0.099   3.374   3.017 -0.5073  0.1387  0.8581
 1151TIP3   OH224943   0.139   4.152   6.582  0.1314 -0.6380 -0.0740
 1151TIP3    H124944   0.060   4.113   6.618  0.2215 -1.5557 -0.8331
 1151TIP3    H224945   0.206   4.138   6.649 -0.3221  0.1210  0.5603
 1152TIP3   OH224946   3.563   0.327  11.867 -0.3598  0.5778  0.2113
 1152TIP3    H124947   3.559   0.409  11.916  0.8816  1.2747 -0.8135
 1152TIP3    H224948   3.590   0.262  11.931 -1.2245  0.9737  1.0047
 1153TIP3   OH224949   6.520   1.644  14.712  0.4112 -0.9154 -0.0730
 1153TIP3    H124950   6.558   1.579  14.653  0.8733 -1.5750  0.9341
 1153TIP3    H224951   6.591   1.668  14.771  0.3623  0.8077 -0.6495
 1154TIP3   OH224952   1.030   5.420   3.532 -0.1104 -0.0105  0.2311
 1154TIP3    H124953   1.115   5.461   3.518 -0.8785  2.1994  1.4822
 1154TIP3    H224954   0.968   5.479   3.491 -1.0946 -1.4354 -0.4001
 1155TIP3   OH224955   1.981   5.634  12.900  0.1555 -0.1874  0.1133
 1155TIP3    H124956   2.001   5.724  12.873  0.5757  0.2026  1.6416
 1155TIP3    H224957   1.905   5.643  12.957 -0.3965 -0.9353 -0.4780
 1156TIP3   OH224958   2.584   6.650  17.328 -0.3725  0.4142 -0.2009
 1156TIP3    H124959   2.546   6.734  17.353 -0.0218  0.5251 -0.0281
 1156TIP3    H224960   2.615   6.613  17.410  2.4959  1.6148 -0.6022
 1157TIP3   OH224961   3.997   6.126   5.787 -0.1886  0.0645  0.0021
 1157TIP3    H124962   4.058   6.095   5.854  1.4750  0.4413 -1.2677
 1157TIP3    H224963   3.942   6.189   5.833  0.0314 -0.6468  1.3076
 1158TIP3   OH224964   1.059   5.458  12.531  0.1121 -0.3099  0.9092
 1158TIP3    H124965   1.054   5.458  12.627 -3.6684  1.0491  0.9010
 1158TIP3    H224966   1.034   5.547  12.506 -2.6407 -1.5391 -1.2798
 1159TIP3   OH224967   4.334   5.024   1.946  0.2807 -0.2394 -0.6878
 1159TIP3    H124968   4.243   4.992   1.949  0.9457 -2.1477  0.5485
 1159TIP3    H224969   4.377   4.966   1.883  1.3154 -1.3638  0.9770
 1160TIP3   OH224970   6.088   0.076  15.624 -0.1907  0.8754  0.5272
 1160TIP3    H124971   6.093   0.156  15.676  1.7523 -1.5203  4.5423
 1160TIP3    H224972   6.164   0.080  15.565 -0.3190  2.0870  0.4300
 1161TIP3   OH224973   5.688   1.691  15.769 -0.3926 -0.4107  0.6679
 1161TIP3    H124974   5.687   1.754  15.697 -0.2316 -2.0916 -0.8672
 1161TIP3    H224975   5.628   1.728  15.834 -2.7433 -0.1526 -1.5085
 1162TIP3   OH224976   1.447   0.076  12.784  0.4635  0.2475  0.1175
 1162TIP3    H124977   1.509   0.105  12.850  0.3713 -1.7281  1.1451
 1162TIP3    H224978   1.441   0.149  12.722  1.5590  1.6210  1.5674
 1163TIP3   OH224979   5.906   5.861  15.112 -0.6382  0.3002  0.1610
 1163TIP3    H124980   5.810   5.856  15.119 -0.5387 -0.7569  0.9156
 1163TIP3    H224981   5.921   5.916  15.035 -1.8528 -1.4951 -1.4409
 1164TIP3   OH224982   3.824   3.928   3.395  0.7560 -0.3451 -0.2108
 1164TIP3    H124983   3.788   3.958   3.479 -0.4193 -0.7517 -0.5585
 1164TIP3    H224984   3.854   3.839   3.412 -0.8619 -0.9844 -0.5834
 1165TIP3   OH224985   4.280   1.954  13.343  0.0577  0.0783  0.2707
 1165TIP3    H124986   4.242   2.037  13.315  0.1521 -0.7142 -2.4051
 1165TIP3    H224987   4.373   1.962  13.323  0.0831 -0.6375  0.0914
 1166TIP3   OH224988   3.987   0.570  16.111 -0.4855  0.0134  0.6240
 1166TIP3    H124989   3.914   0.585  16.052 -2.2654 -2.4577  2.0195
 1166TIP3    H224990   3.965   0.619  16.190  0.3994  0.8630  0.3674
 1167TIP3   OH224991   3.267   3.134   0.301 -0.0148 -0.3507 -0.4227
 1167TIP3    H124992   3.273   3.099   0.212  0.4249 -2.3407  0.3250
 1167TIP3    H224993   3.176   3.118   0.327 -0.0898  0.0400 -0.4430
 1168TIP3   OH224994   5.816   2.887  10.759  0.1021  0.8043  0.3844
 1168TIP3    H124995   5.824   2.806  10.709  0.2133  1.4666 -0.7168
 1168TIP3    H224996   5.884   2.882  10.825 -0.6085 -0.4866  1.0509
 1169TIP3   OH224997   2.350   0.424   2.494  0.1996 -0.3251 -0.4817
 1169TIP3    H124998   2.307   0.343   2.520  0.4101 -0.5215 -0.7477
 1169TIP3    H224999   2.283   0.491   2.506  0.7515 -0.1065  2.2476
 1170TIP3   OH225000   2.198   4.204   3.280 -0.2986 -0.0633 -0.2796
 1170TIP3    H125001   2.174   4.250   3.200  1.6509 -0.2025 -0.9924
 1170TIP3    H225002   2.150   4.121   3.276  0.0871 -0.2508 -1.5266
 1171TIP3   OH225003   4.434   1.702  15.278 -0.1170 -0.8037 -0.1120
 1171TIP3    H125004   4.471   1.658  15.202 -1.0261 -1.1209 -0.3838
 1171TIP3    H225005   4.510   1.734  15.327  0.4660  1.1953 -2.1680
 1172TIP3   OH225006   2.998   6.226  13.595  0.3546  0.0327 -0.1403
 1172TIP3    H125007   2.935   6.199  13.528 -1.2459  0.8386  0.9672
 1172TIP3    H225008   3.020   6.316  13.573 -0.0384  0.2406  0.2905
 1173TIP3   OH225009   0.049   6.411   5.608  0.0629  0.3614  0.8544
 1173TIP3    H125010  -0.001   6.425   5.688  1.6859  0.5073  1.8852
 1173TIP3    H225011   0.133   6.377   5.638  0.2108 -0.9763 -0.8888
 1174TIP3   OH225012   2.030   5.315  15.118 -0.0313  0.0169  0.0024
 1174TIP3    H125013   1.951   5.336  15.068 -0.2528  0.0881  0.3830
 1174TIP3    H225014   2.006   5.328  15.209  0.8415  1.4740  0.0698
 1175TIP3   OH225015   5.991   1.308   0.219  0.2669  0.0215  0.2291
 1175TIP3    H125016   6.065   1.347   0.173  1.0378 -0.0918  1.3309
 1175TIP3    H225017   5.931   1.381   0.233  1.1435  0.5776  1.2011
 1176TIP3   OH225018   5.685   3.887   0.081  0.3328  0.0442  1.0247
 1176TIP3    H125019   5.749   3.822   0.051  0.7771  2.1354 -3.3258
 1176TIP3    H225020   5.738   3.957   0.120  0.5652  0.7575 -0.5114
 1177TIP3   OH225021   1.447   4.670   4.327  0.4661  0.1112 -0.6100
 1177TIP3    H125022   1.407   4.592   4.366 -0.3119 -0.5132 -2.5106
 1177TIP3    H225023   1.380   4.705   4.268  1.2127  1.5769 -0.6418
 1178TIP3   OH225024   2.337   3.343   6.498  0.6007 -0.0319 -0.2946
 1178TIP3    H125025   2.265   3.309   6.444  1.4009  0.2227 -1.5563
 1178TIP3    H225026   2.401   3.272   6.500 -0.1168 -0.6871  1.7528
 1179TIP3   OH225027   6.148   3.416   1.272 -0.1382  0.2991 -0.3379
 1179TIP3    H125028   6.169   3.509   1.265  1.2334 -0.0235 -0.6847
 1179TIP3    H225029   6.131   3.388   1.183 -1.5567  0.4116 -0.1326
 1180TIP3   OH225030   0.304   6.751   0.952 -0.5733  0.7026 -0.1992
 1180TIP3    H125031   0.255   6.776   0.874 -1.1554  0.3865  0.0582
 1180TIP3    H225032   0.377   6.698   0.920 -1.8912 -1.0597 -0.3990
 1181TIP3   OH225033   3.620   0.094   5.535 -0.0993 -0.6688 -0.3717
 1181TIP3    H125034   3.582   0.097   5.623  0.9098  1.5660  0.0549
 1181TIP3    H225035   3.658   0.181   5.522 -0.4419 -0.8374 -3.1398
 1182TIP3   OH225036   1.532   6.401  11.168  0.1165  0.0087  0.1294
 1182TIP3    H125037   1.511   6.489  11.200  0.2909 -0.1299  0.6390
 1182TIP3    H225038   1.523   6.345  11.245  0.5779 -0.3317 -0.0583
 1183TIP3   OH225039   6.488   5.292   2.679 -0.5917 -0.2345  1.0447
 1183TIP3    H125040   6.560   5.267   2.622 -2.3339 -1.7278 -0.6409
 1183TIP3    H225041   6.470   5.384   2.656 -2.1723 -1.1753 -2.0444
 1184TIP3   OH225042   3.866   1.510   3.183  0.4582  0.5709 -0.1828
 1184TIP3    H125043   3.804   1.498   3.255  0.2602 -0.5835 -0.5192
 1184TIP3    H225044   3.870   1.605   3.171 -0.3743  0.7270  0.5958
 1185TIP3   OH225045   1.383   3.769  13.831 -0.1392 -0.4475  0.3177
 1185TIP3    H125046   1.348   3.836  13.773 -1.4975 -0.8275  0.6620
 1185TIP3    H225047   1.467   3.744  13.791  1.2388  2.5826  1.0734
 1186TIP3   OH225048   2.541   2.417  15.884  0.4234  0.2899 -0.1431
 1186TIP3    H125049   2.508   2.453  15.801 -2.6711  1.6527  1.5053
 1186TIP3    H225050   2.517   2.483  15.949 -2.9031 -3.2339  2.6773
 1187TIP3   OH225051   2.896   0.356   2.368  0.2778 -0.3305 -0.2289
 1187TIP3    H125052   2.834   0.334   2.299 -0.7959  2.1090 -0.1416
 1187TIP3    H225053   2.981   0.361   2.324 -0.4588  1.6794 -1.5536
 1188TIP3   OH225054   0.135   5.647   1.588 -0.3403 -0.2055  0.0924
 1188TIP3    H125055   0.075   5.574   1.571  1.3638 -2.2568  2.3326
 1188TIP3    H225056   0.206   5.635   1.524 -0.3977 -0.0812  0.0044
 1189TIP3   OH225057   2.498   4.025  12.766 -0.3108 -0.3694  0.1626
 1189TIP3    H125058   2.560   3.967  12.809  1.2455  1.2849  0.2610
 1189TIP3    H225059   2.412   3.996  12.797  0.4103 -2.4832  0.3139
 1190TIP3   OH225060   4.400   2.839  17.121 -0.0509  0.4103 -0.6804
 1190TIP3    H125061   4.450   2.799  17.192 -1.3652 -1.2132 -0.5977
 1190TIP3    H225062   4.388   2.767  17.058 -1.6359  0.9513 -1.0300
 1191TIP3   OH225063   1.127   0.335  16.892 -0.3033 -0.4045  0.1754
 1191TIP3    H125064   1.053   0.389  16.866  1.2386  1.1044 -1.3285
 1191TIP3    H225065   1.150   0.368  16.980 -0.6388 -0.0276  0.1256
 1192TIP3   OH225066   1.153   1.391   3.102  0.3078  0.3777 -0.4079
 1192TIP3    H125067   1.165   1.318   3.042 -1.6254  0.6728 -1.2426
 1192TIP3    H225068   1.237   1.436   3.103  1.4545 -1.6626 -0.0790
 1193TIP3   OH225069   4.673   5.563  14.704 -0.9413 -0.0291 -0.4679
 1193TIP3    H125070   4.737   5.569  14.775 -1.0533 -2.5136 -0.0932
 1193TIP3    H225071   4.592   5.597  14.742 -0.8750 -0.8592  0.4537
 1194TIP3   OH225072   3.948   1.951  14.761 -0.1307 -0.1800 -0.3871
 1194TIP3    H125073   3.991   1.884  14.814  0.5779  1.1725  0.8354
 1194TIP3    H225074   3.979   1.935  14.672  0.2048 -1.3269 -0.0775
 1195TIP3   OH225075   1.381   0.372   1.438 -0.1964 -0.0911  0.2422
 1195TIP3    H125076   1.381   0.374   1.534 -2.5189  0.3495  0.2809
 1195TIP3    H225077   1.386   0.279   1.416  0.5608 -0.1852  0.7581
 1196TIP3   OH225078   3.674   5.286  15.395 -0.0450  0.3336 -0.1137
 1196TIP3    H125079   3.744   5.261  15.335  0.9158  1.3962  0.5290
 1196TIP3    H225080   3.718   5.334  15.465 -1.3751  0.7023  0.5052
 1197TIP3   OH225081   6.698   1.283  13.272  0.4591  0.1533  0.0137
 1197TIP3    H125082   6.734   1.196  13.253 -1.1608 -0.3943 -0.7498
 1197TIP3    H225083   6.724   1.337  13.197 -3.4833 -1.2725 -2.7308
 1198TIP3   OH225084   2.494   1.001  17.258  0.2635 -0.3111 -0.2566
 1198TIP3    H125085   2.493   1.010  17.162  0.3600  0.7276 -0.1730
 1198TIP3    H225086   2.517   1.088  17.290 -0.2537 -0.5243  0.7337
 1199TIP3   OH225087   3.194   5.570  11.929  0.0508 -0.3580  0.0868
 1199TIP3    H125088   3.259   5.640  11.935 -0.7706  0.7008 -2.2429
 1199TIP3    H225089   3.111   5.613  11.950 -0.3984 -0.7622 -0.8341
 1200TIP3   OH225090   0.204   1.917   3.599  0.0767 -0.3527 -0.3436
 1200TIP3    H125091   0.262   1.891   3.671 -1.2958  1.8532  1.6781
 1200TIP3    H225092   0.218   1.849   3.533  1.4713 -2.4740  1.9325
 1201TIP3   OH225093   3.732   6.136   4.118 -0.3077  0.2061  0.0373
 1201TIP3    H125094   3.799   6.204   4.121 -0.1037  0.0210 -0.2685
 1201TIP3    H225095   3.654   6.180   4.084 -0.0595  0.1914 -0.5491
 1202TIP3   OH225096   4.407   2.523  15.702  0.4697  0.9810  0.0823
 1202TIP3    H125097   4.316   2.536  15.675 -0.3594 -2.0793  0.9563
 1202TIP3    H225098   4.400   2.483  15.788  2.5741 -0.5516 -0.3898
 1203TIP3   OH225099   6.110   1.108   3.960  0.0608  0.5229 -0.4095
 1203TIP3    H125100   6.086   1.045   3.893  1.0235  0.4392 -0.6878
 1203TIP3    H225101   6.179   1.161   3.920  0.9309  0.2196  0.6244
 1204TIP3   OH225102   1.380   2.546   2.840  0.4599  0.2049 -0.1809
 1204TIP3    H125103   1.426   2.589   2.769 -0.7525  0.1005 -1.0623
 1204TIP3    H225104   1.291   2.532   2.806 -0.0308 -0.2067  1.2005
 1205TIP3   OH225105   1.866   4.285   3.755  0.1006  0.2026 -0.1452
 1205TIP3    H125106   1.811   4.345   3.705  0.5652 -0.1089 -1.0701
 1205TIP3    H225107   1.927   4.249   3.689 -1.6630 -3.1036 -0.1686
 1206TIP3   OH225108   1.732   5.602  11.608  0.4346  0.0189  0.0195
 1206TIP3    H125109   1.645   5.574  11.636  0.5173 -1.1156 -0.7544
 1206TIP3    H225110   1.738   5.573  11.517  1.9952 -0.8700  0.3664
 1207TIP3   OH225111   3.504   5.860  11.243 -0.4284 -0.8668  0.0463
 1207TIP3    H125112   3.523   5.934  11.301 -1.7789 -0.0962 -0.4483
 1207TIP3    H225113   3.425   5.821  11.280 -0.2167 -1.5211 -0.1947
 1208TIP3   OH225114   3.871   0.110  10.521  0.2046  0.5971  0.4178
 1208TIP3    H125115   3.909   0.040  10.574  0.2627  1.7846  2.0244
 1208TIP3    H225116   3.928   0.185  10.537 -1.3506  1.7265  0.8614
 1209TIP3   OH225117   3.749   6.655   0.632 -0.8339  0.0447 -0.0494
 1209TIP3    H125118   3.670   6.698   0.599 -0.3697 -0.5485 -2.0640
 1209TIP3    H225119   3.804   6.644   0.555  1.3604  0.6764  1.3256
 1210TIP3   OH225120   3.572   2.799  15.916  0.2590 -0.4983 -0.1414
 1210TIP3    H125121   3.496   2.749  15.887 -0.0043  0.0707 -0.4504
 1210TIP3    H225122   3.542   2.845  15.994  0.1251  0.1103 -0.5413
 1211TIP3   OH225123   2.336   3.646  13.188  0.2513 -0.1114  0.5534
 1211TIP3    H125124   2.344   3.651  13.283  2.5179 -1.5289  0.4958
 1211TIP3    H225125   2.311   3.735  13.162 -0.0360  0.4108  2.4192
 1212TIP3   OH225126   3.869   1.402  17.057 -0.2312  0.3985 -0.4847
 1212TIP3    H125127   3.960   1.379  17.072 -0.2767 -0.0227 -0.8519
 1212TIP3    H225128   3.871   1.495  17.034 -0.0051  0.6683  0.5406
 1213TIP3   OH225129   5.015   4.378  11.251 -0.3721 -0.2694  0.1130
 1213TIP3    H125130   5.012   4.380  11.156 -0.4821  1.5098  0.1160
 1213TIP3    H225131   4.924   4.363  11.278 -0.2721 -1.1994 -0.0554
 1214TIP3   OH225132   4.204   4.606   3.763 -0.5706 -0.3265  0.6154
 1214TIP3    H125133   4.227   4.516   3.783  0.8742  0.1163  1.0330
 1214TIP3    H225134   4.255   4.627   3.685 -1.8199 -0.2285 -0.2066
 1215TIP3   OH225135   3.193   0.536   3.365 -0.1803 -0.4520  0.0294
 1215TIP3    H125136   3.164   0.506   3.451 -0.7107  1.4453  0.5613
 1215TIP3    H225137   3.116   0.525   3.309 -0.7383  0.8770  0.4925
 1216TIP3   OH225138   2.643   5.802  15.817  0.1283  0.9115 -0.6362
 1216TIP3    H125139   2.640   5.707  15.824  1.2354  0.9426  0.9190
 1216TIP3    H225140   2.574   5.833  15.876 -0.8594  1.0895 -1.8497
 1217TIP3   OH225141   4.099   2.353   0.209  0.4445 -0.2179  0.1491
 1217TIP3    H125142   4.170   2.331   0.149 -0.0860  0.5187 -0.7810
 1217TIP3    H225143   4.140   2.408   0.275  0.3029  2.4187 -1.8224
 1218TIP3   OH225144   1.882   0.528  13.856  0.2290  0.1283 -0.3138
 1218TIP3    H125145   1.835   0.609  13.833 -0.5697 -0.3495 -0.4063
 1218TIP3    H225146   1.958   0.558  13.906  0.1253  0.9580 -0.6310
 1219TIP3   OH225147   3.974   3.016  14.229 -0.6125  0.0263  0.0454
 1219TIP3    H125148   3.966   3.022  14.324 -1.0946 -0.7119  0.0595
 1219TIP3    H225149   3.910   3.079  14.196 -1.6850 -0.9297  0.2164
 1220TIP3   OH225150   3.465   4.014   5.001  0.0024 -0.3042 -0.7684
 1220TIP3    H125151   3.461   4.109   5.010  0.2968 -0.4444  1.1120
 1220TIP3    H225152   3.374   3.985   5.004  0.0099 -0.2464  1.1618
 1221TIP3   OH225153   3.492   1.242  11.916  0.4602 -0.2729 -0.6745
 1221TIP3    H125154   3.579   1.267  11.946 -0.3464  1.2372  0.5798
 1221TIP3    H225155   3.491   1.147  11.919  2.2978 -0.3566 -1.4866
 1222TIP3   OH225156   1.803   6.007   5.056 -0.1947 -0.3833 -0.2030
 1222TIP3    H125157   1.793   6.083   5.114 -1.2133 -0.0344 -0.8076
 1222TIP3    H225158   1.874   6.032   4.997  0.0600 -0.2597  0.1506
 1223TIP3   OH225159   2.408   1.898  15.033 -0.0422 -0.4709 -0.6259
 1223TIP3    H125160   2.397   1.821  15.089  2.3524 -0.4476 -0.0224
 1223TIP3    H225161   2.331   1.898  14.977  0.5834 -4.2523 -1.7679
 1224TIP3   OH225162   6.730   1.831   0.518 -0.4660  0.1132  0.2062
 1224TIP3    H125163   6.812   1.879   0.508 -0.5040  0.1577  0.1152
 1224TIP3    H225164   6.675   1.860   0.446 -0.2790 -0.5018 -0.1951
 1225TIP3   OH225165   5.355   4.445  14.282 -0.5756  0.6615 -0.1672
 1225TIP3    H125166   5.407   4.509  14.233  4.0077 -3.3793 -1.3025
 1225TIP3    H225167   5.386   4.454  14.372  0.8809 -0.5554 -0.5204
 1226TIP3   OH225168   1.445   6.096  11.818  0.4176 -0.4477 -0.2507
 1226TIP3    H125169   1.463   6.012  11.860 -1.5048  0.3314  2.3731
 1226TIP3    H225170   1.360   6.085  11.776  0.7978 -0.1972 -1.1201
 1227TIP3   OH225171   1.201   3.299   3.699 -0.0021 -0.0234 -0.1640
 1227TIP3    H125172   1.164   3.345   3.775  1.7080  0.1599  0.5974
 1227TIP3    H225173   1.269   3.358   3.667  2.7108 -2.1623  1.2122
 1228TIP3   OH225174   0.886   2.947   4.587 -0.1520  0.0307  0.1437
 1228TIP3    H125175   0.942   2.896   4.646 -0.0857 -1.2118 -0.9387
 1228TIP3    H225176   0.808   2.966   4.639 -0.0943 -1.0241  0.6563
 1229TIP3   OH225177   6.162   6.117  15.845  0.1968 -0.0512 -0.3425
 1229TIP3    H125178   6.099   6.106  15.774  0.5221 -1.2228 -0.4601
 1229TIP3    H225179   6.167   6.212  15.858 -0.3940  0.1338 -1.3912
 1230TIP3   OH225180   5.435   5.411   5.864  0.3772  0.6800 -0.4800
 1230TIP3    H125181   5.380   5.476   5.821  0.2926  1.4501  0.7383
 1230TIP3    H225182   5.406   5.412   5.955  1.0782 -0.3287 -0.2270
 1231TIP3   OH225183   5.899   3.103   2.895 -0.1208  0.1243 -0.1503
 1231TIP3    H125184   5.888   3.193   2.865 -0.0486  0.3317  0.4324
 1231TIP3    H225185   5.929   3.111   2.986 -0.8721 -0.4924  0.1676
 1232TIP3   OH225186   5.776   3.738   6.005  0.0429  0.2208  0.1407
 1232TIP3    H125187   5.692   3.700   5.980  0.1103  1.1916 -1.7029
 1232TIP3    H225188   5.839   3.700   5.944  0.3130  2.2530 -0.9188
 1233TIP3   OH225189   0.383   0.821   4.366 -0.2119 -0.0539  0.4064
 1233TIP3    H125190   0.467   0.842   4.408  0.1319 -1.8542  0.7151
 1233TIP3    H225191   0.329   0.787   4.437 -0.1594 -1.6616 -0.2738
 1234TIP3   OH225192   5.082   0.754   2.668 -0.2601 -0.0763  0.2818
 1234TIP3    H125193   5.098   0.740   2.761 -1.3457 -0.2708  0.4595
 1234TIP3    H225194   5.137   0.828   2.644  1.3914 -1.1305  0.6522
 1235TIP3   OH225195   4.623   2.948   3.857  0.0804  0.3826  0.5955
 1235TIP3    H125196   4.551   2.899   3.818  0.2552 -0.0627  0.8289
 1235TIP3    H225197   4.682   2.881   3.891  0.2826  0.7552  0.9861
 1236TIP3   OH225198   4.913   3.146  16.313  0.0671 -0.4722 -0.1200
 1236TIP3    H125199   4.828   3.141  16.270  0.5854  0.6583 -1.3494
 1236TIP3    H225200   4.976   3.137  16.242  0.9650  0.3410  0.5433
 1237TIP3   OH225201   3.615   2.260   4.117 -0.0304  0.0546  0.1545
 1237TIP3    H125202   3.549   2.194   4.095 -2.8549  3.0569 -1.3502
 1237TIP3    H225203   3.594   2.286   4.207 -0.0970  0.1565  0.1096
 1238TIP3   OH225204   6.527   2.392  14.391  0.1692  0.6937  0.2629
 1238TIP3    H125205   6.539   2.300  14.413  1.6091  0.8003  0.0387
 1238TIP3    H225206   6.499   2.433  14.473 -1.8062 -0.1299  0.0567
 1239TIP3   OH225207   3.992   1.760  12.535 -0.3489 -0.1231 -0.0126
 1239TIP3    H125208   3.962   1.777  12.445 -0.6512 -1.0395 -0.0981
 1239TIP3    H225209   3.911   1.747  12.585 -0.2710  1.9431  0.7634
 1240TIP3   OH225210   2.022   4.838   2.939 -0.1153  0.3562  0.6664
 1240TIP3    H125211   2.003   4.767   3.001  1.7875 -0.1534  0.7263
 1240TIP3    H225212   2.097   4.883   2.976  1.4981 -0.3426 -1.5252
 1241TIP3   OH225213   5.932   1.476  11.433 -0.1539  0.1699 -0.1257
 1241TIP3    H125214   5.851   1.477  11.383 -0.7926 -0.0627  0.8806
 1241TIP3    H225215   5.918   1.410  11.500  1.2906 -0.6796 -0.5998
 1242TIP3   OH225216   6.612   2.900   5.537 -0.5131  0.1336  0.3488
 1242TIP3    H125217   6.642   2.981   5.576  1.6972  0.1668 -1.2474
 1242TIP3    H225218   6.600   2.921   5.444 -0.4835 -1.2114  0.0174
 1243TIP3   OH225219   0.659   4.940   5.849  0.0479  0.1879 -0.1484
 1243TIP3    H125220   0.655   4.850   5.880  1.1742  0.2705  0.2942
 1243TIP3    H225221   0.733   4.978   5.896 -0.0466  1.1753 -0.7681
 1244TIP3   OH225222   4.166   1.046   2.838  0.8009  0.1585  0.0641
 1244TIP3    H125223   4.214   1.084   2.911 -0.6680  0.9020  0.6855
 1244TIP3    H225224   4.074   1.058   2.861  0.3051 -0.0921 -1.6641
 1245TIP3   OH225225   2.911   4.649  12.106  0.0350 -0.1527  0.4525
 1245TIP3    H125226   2.861   4.643  12.188  1.5451 -1.7754  1.3367
 1245TIP3    H225227   2.971   4.575  12.110  0.3960 -0.0688 -2.0001
 1246TIP3   OH225228   3.518   5.505  16.698 -0.5033 -0.4439 -0.0976
 1246TIP3    H125229   3.576   5.459  16.758  0.7128 -0.8647 -1.5492
 1246TIP3    H225230   3.548   5.596  16.700  0.7902 -0.8082 -1.4531
 1247TIP3   OH225231   0.151   4.545  16.742  0.2009 -0.2787  0.1621
 1247TIP3    H125232   0.113   4.602  16.675  0.0066 -1.0072 -0.3576
 1247TIP3    H225233   0.161   4.602  16.819 -1.2088  0.1389  0.0656
 1248TIP3   OH225234   3.235   1.438   5.729 -0.1894 -0.0492  0.5903
 1248TIP3    H125235   3.228   1.499   5.803  1.3102  1.4453 -0.4568
 1248TIP3    H225236   3.325   1.445   5.699 -0.5250 -1.2998 -0.8569
 1249TIP3   OH225237   6.119   6.688   1.893  0.7618 -0.0652 -0.0148
 1249TIP3    H125238   6.055   6.624   1.927 -0.4021  1.2925  0.4577
 1249TIP3    H225239   6.177   6.636   1.837  0.4080 -1.6943  1.0470
 1250TIP3   OH225240   4.190   5.656   1.276 -0.9660  0.1070 -0.0295
 1250TIP3    H125241   4.282   5.650   1.299 -0.5443  3.9569 -0.0614
 1250TIP3    H225242   4.186   5.633   1.183 -0.3660 -1.6541  0.3501
 1251TIP3   OH225243   3.117   1.998   2.860 -0.4480  0.2941 -0.1200
 1251TIP3    H125244   3.074   1.944   2.794 -0.2375 -0.7637  0.5987
 1251TIP3    H225245   3.093   2.088   2.835 -0.3473 -0.0667 -1.6411
 1252TIP3   OH225246   5.565   6.601  17.192  0.5351 -0.0783 -0.2027
 1252TIP3    H125247   5.475   6.598  17.161  0.1394 -1.5890  0.9446
 1252TIP3    H225248   5.611   6.534  17.141  0.6875 -0.1963  0.0836
 1253TIP3   OH225249   5.195   6.421  14.593  0.4399 -0.3176 -0.4066
 1253TIP3    H125250   5.139   6.344  14.583 -0.9799  0.8328 -1.9827
 1253TIP3    H225251   5.154   6.472  14.662  0.1634  0.0015 -0.8017
 1254TIP3   OH225252   0.905   2.365   3.118 -0.0840  0.4051  0.1780
 1254TIP3    H125253   0.988   2.412   3.111  0.7635 -0.6987  2.1531
 1254TIP3    H225254   0.860   2.385   3.036  1.3585  2.4638 -0.2004
 1255TIP3   OH225255   2.332   1.048  13.469 -0.0218 -0.1853  0.1760
 1255TIP3    H125256   2.288   1.133  13.483  0.2637 -0.0807  0.4479
 1255TIP3    H225257   2.317   1.029  13.376  1.8993  1.2957 -0.4983
 1256TIP3   OH225258   5.708   1.538  11.265  0.4252  0.1934 -0.0401
 1256TIP3    H125259   5.625   1.530  11.220  0.9439 -1.2955 -0.8259
 1256TIP3    H225260   5.763   1.590  11.206  0.1813  0.8394  0.2969
 1257TIP3   OH225261   1.379   2.342   5.415  0.2697  0.1616 -0.2244
 1257TIP3    H125262   1.378   2.253   5.451 -0.4424  0.0476 -0.5020
 1257TIP3    H225263   1.468   2.374   5.430  0.8324 -0.9706 -1.0442
 1258TIP3   OH225264   4.031   3.453  14.368 -0.3173  0.1982  0.4700
 1258TIP3    H125265   4.050   3.416  14.454 -0.6781  0.2737  0.5815
 1258TIP3    H225266   3.984   3.534  14.386 -0.1777  0.3407  0.2061
 1259TIP3   OH225267   2.379   1.372  12.024 -0.3810 -0.5762 -0.0153
 1259TIP3    H125268   2.285   1.364  12.036 -0.7154  0.1608 -1.8600
 1259TIP3    H225269   2.393   1.365  11.930  0.8520  3.6473 -0.3676
 1260TIP3   OH225270   1.272   4.106   1.820 -0.1360 -0.2145 -0.1093
 1260TIP3    H125271   1.342   4.170   1.810 -0.2204 -0.2748 -1.1215
 1260TIP3    H225272   1.288   4.067   1.906 -0.6081  1.7646  0.9227
 1261TIP3   OH225273   4.107   3.566  16.197  0.1721  0.9258 -0.0388
 1261TIP3    H125274   4.155   3.531  16.122 -0.4953 -1.4969  0.5683
 1261TIP3    H225275   4.153   3.532  16.273 -0.2957  1.7093  0.6082
 1262TIP3   OH225276   5.295   6.613   4.698  0.2766 -0.0600  0.0264
 1262TIP3    H125277   5.337   6.688   4.740  1.3290 -0.7895  0.3241
 1262TIP3    H225278   5.234   6.579   4.765  1.3028 -0.6873  0.6661
 1263TIP3   OH225279   5.388   1.514   2.970 -0.5014  0.0782 -0.0747
 1263TIP3    H125280   5.397   1.553   2.883  0.2529 -0.9846 -0.5012
 1263TIP3    H225281   5.294   1.495   2.978 -0.5016 -0.3101 -0.8947
 1264TIP3   OH225282   1.027   0.570   2.969  0.2210  0.2959 -0.1352
 1264TIP3    H125283   1.025   0.571   2.874 -0.7612 -0.8334 -0.1503
 1264TIP3    H225284   1.119   0.587   2.991  0.6212 -0.2300 -1.3065
 1265TIP3   OH225285   2.310   0.487   3.743  0.4786  0.0673 -0.5428
 1265TIP3    H125286   2.389   0.452   3.701  0.6786  0.7262 -0.7213
 1265TIP3    H225287   2.334   0.576   3.768 -0.4896  0.5878 -1.3967
 1266TIP3   OH225288   0.646   4.932   3.542 -0.2539  0.3325 -1.0252
 1266TIP3    H125289   0.573   4.972   3.495 -0.2804 -1.2011 -2.3872
 1266TIP3    H225290   0.672   4.858   3.487  1.0172 -0.3672  0.4413
 1267TIP3   OH225291   3.341   4.574   6.503 -0.3048 -0.4609 -0.0943
 1267TIP3    H125292   3.263   4.625   6.479  0.1828  0.3780  0.0785
 1267TIP3    H225293   3.408   4.601   6.440 -0.3450 -1.7454 -0.7317
 1268TIP3   OH225294   0.701   2.237  16.054 -0.0765 -0.3094 -0.5143
 1268TIP3    H125295   0.610   2.225  16.082  0.6314 -0.5916  1.8608
 1268TIP3    H225296   0.719   2.160  15.999 -1.0970 -0.5111 -0.5983
 1269TIP3   OH225297   1.384   1.236  14.619 -0.4239 -0.2655 -0.6417
 1269TIP3    H125298   1.464   1.284  14.598 -0.2196 -0.1384  0.3910
 1269TIP3    H225299   1.328   1.300  14.661 -0.1283 -0.9078  0.8076
 1270TIP3   OH225300   0.844   6.779  14.375  0.1600 -0.0486 -0.3541
 1270TIP3    H125301   0.854   6.687  14.349 -0.0533  0.4170 -2.2558
 1270TIP3    H225302   0.756   6.783  14.412  0.9480 -1.0029  1.7554
 1271TIP3   OH225303   3.054   5.038   3.210  0.2855  0.1807  0.8290
 1271TIP3    H125304   3.073   5.041   3.304 -0.1081 -1.5381  0.9959
 1271TIP3    H225305   3.007   4.956   3.197  0.0316  0.5431 -0.8335
 1272TIP3   OH225306   6.198   5.443  13.342  0.3726 -0.1295  0.2128
 1272TIP3    H125307   6.147   5.524  13.345  0.6567  0.0416  0.5371
 1272TIP3    H225308   6.158   5.387  13.408  0.3642 -0.1367  0.2013
 1273TIP3   OH225309   4.889   4.162   2.305 -0.7757  0.3772  0.6477
 1273TIP3    H125310   4.900   4.253   2.280  0.0349 -0.2690 -1.5100
 1273TIP3    H225311   4.977   4.125   2.305 -1.1336 -0.5370  1.0522
 1274TIP3   OH225312   0.502   3.741  14.025 -0.1818 -0.0058 -0.6076
 1274TIP3    H125313   0.540   3.653  14.019 -0.4452 -0.1086 -0.8133
 1274TIP3    H225314   0.439   3.735  14.097 -0.3683 -0.0526 -0.7726
 1275TIP3   OH225315   2.368   0.939   3.153  0.4543  0.2995  0.5319
 1275TIP3    H125316   2.354   0.904   3.065 -0.5220  1.5962  0.1386
 1275TIP3    H225317   2.436   1.006   3.142  1.6303 -0.7383  1.1143
 1276TIP3   OH225318   0.243   4.646   1.720 -0.9773 -0.6047  0.0525
 1276TIP3    H125319   0.299   4.703   1.667 -0.8910 -0.3319  0.4373
 1276TIP3    H225320   0.180   4.611   1.657  0.2199 -1.6979 -0.5882
 1277TIP3   OH225321   1.392   1.757  11.875 -0.2986 -0.1227  0.3525
 1277TIP3    H125322   1.375   1.811  11.952  0.7959 -1.8180  1.8464
 1277TIP3    H225323   1.321   1.693  11.874 -0.7600  0.3786 -0.5544
 1278TIP3   OH225324   3.494   5.141  17.151 -1.0920  0.3888 -0.8444
 1278TIP3    H125325   3.482   5.235  17.139 -2.8801  0.0043 -2.3558
 1278TIP3    H225326   3.476   5.126  17.244  0.8304  1.7082 -0.1890
 1279TIP3   OH225327   2.356   2.953  11.757  0.6562  0.1529  0.4261
 1279TIP3    H125328   2.396   2.920  11.837  1.8807 -0.0222 -0.2259
 1279TIP3    H225329   2.382   2.891  11.690  0.5455  0.8680 -0.3015
 1280TIP3   OH225330   0.748   1.845  10.973  0.2335 -0.0726 -0.3128
 1280TIP3    H125331   0.674   1.799  11.012  0.5094  0.3519  0.7445
 1280TIP3    H225332   0.718   1.936  10.964  0.4293 -0.0164 -0.3978
 1281TIP3   OH225333   5.435   4.648  16.902  0.4309  0.1288 -0.4630
 1281TIP3    H125334   5.346   4.671  16.877  0.4026  1.0021  0.4385
 1281TIP3    H225335   5.468   4.723  16.950  1.0185 -0.9001  0.8194
 1282TIP3   OH225336   2.380   0.266   0.564 -0.4794 -0.3441 -0.4126
 1282TIP3    H125337   2.366   0.279   0.470  2.1008  1.7335 -0.6304
 1282TIP3    H225338   2.435   0.339   0.590 -0.9346 -0.9926  2.7191
 1283TIP3   OH225339   4.871   1.759  16.780 -0.6155 -0.1824  0.2102
 1283TIP3    H125340   4.864   1.854  16.775  1.7021  0.4016  4.0359
 1283TIP3    H225341   4.783   1.729  16.804 -1.0102  1.1478  0.4921
 1284TIP3   OH225342   1.033   0.214  11.170  0.1988 -0.0971 -0.1409
 1284TIP3    H125343   1.073   0.134  11.202 -0.0940 -0.9326 -1.7720
 1284TIP3    H225344   0.944   0.211  11.205  0.0704 -0.6857 -0.5016
 1285TIP3   OH225345   0.829   1.664   1.059 -0.2458  0.3859 -0.3601
 1285TIP3    H125346   0.922   1.683   1.046 -0.5721  1.0408 -1.9588
 1285TIP3    H225347   0.826   1.569   1.071  0.5218  0.1571 -1.7244
 1286TIP3   OH225348   3.332   5.529  14.453  0.1716 -0.1775  0.0072
 1286TIP3    H125349   3.370   5.475  14.383  3.6330  0.3735  1.2728
 1286TIP3    H225350   3.250   5.484  14.476  1.8650 -3.8419 -0.3146
 1287TIP3   OH225351   6.800   4.273  16.155  0.1825  0.0369 -0.4010
 1287TIP3    H125352   6.886   4.231  16.151  1.1908  2.0638 -2.0143
 1287TIP3    H225353   6.819   4.366  16.171 -1.4489  1.0310 -3.3501
 1288TIP3   OH225354   1.593   2.622   5.555 -0.3343  0.3826  0.5959
 1288TIP3    H125355   1.639   2.540   5.571 -1.5929 -0.4779 -0.0645
 1288TIP3    H225356   1.613   2.644   5.464 -0.9862  0.1660  0.4015
 1289TIP3   OH225357   2.032   4.008   1.643 -0.0168 -0.5212 -0.7949
 1289TIP3    H125358   1.968   3.983   1.710 -0.6137  1.3650 -0.6106
 1289TIP3    H225359   2.007   3.956   1.566 -0.5822 -1.2092 -0.1694
 1290TIP3   OH225360   3.237   0.359   2.670  0.1925  0.6038  0.1548
 1290TIP3    H125361   3.304   0.423   2.691  1.1659 -0.6198  0.8792
 1290TIP3    H225362   3.230   0.304   2.748 -0.5990 -0.1833 -0.4502
 1291TIP3   OH225363   5.125   3.471   0.702 -0.2425  0.6967  0.0922
 1291TIP3    H125364   5.030   3.465   0.692 -0.2201  0.6730 -0.1202
 1291TIP3    H225365   5.142   3.564   0.721 -0.3258  0.6599  0.3476
 1292TIP3   OH225366   2.259   5.065   2.187 -0.1826  0.3237 -0.3275
 1292TIP3    H125367   2.212   5.052   2.105 -0.6833  1.1226 -0.1771
 1292TIP3    H225368   2.348   5.088   2.160 -0.3975  0.7831 -0.6488
 1293TIP3   OH225369   0.054   3.508   6.260 -0.3283  0.8699 -0.1989
 1293TIP3    H125370   0.046   3.547   6.173 -2.1071  1.6289  0.2558
 1293TIP3    H225371  -0.021   3.542   6.308 -1.9328 -2.8900  0.3285
 1294TIP3   OH225372   2.330   1.002   0.181  0.0287 -0.6866  0.1586
 1294TIP3    H125373   2.300   1.047   0.260  0.2690  0.0763 -0.1708
 1294TIP3    H225374   2.276   0.924   0.176 -1.4346  0.2942 -0.0253
 1295TIP3   OH225375   5.325   5.689  11.730  0.3187 -0.1430  0.1651
 1295TIP3    H125376   5.268   5.618  11.760 -1.4411  1.5020  0.9148
 1295TIP3    H225377   5.269   5.766  11.727  2.0928  1.2071 -0.8815
 1296TIP3   OH225378   5.384   2.327  12.740 -0.3478 -0.5751  0.3222
 1296TIP3    H125379   5.348   2.414  12.728  0.4966 -0.2594 -0.0403
 1296TIP3    H225380   5.469   2.342  12.783  0.3129 -1.1210 -0.7477
 1297TIP3   OH225381   3.707   4.909   1.482 -0.0461 -0.0672 -0.3042
 1297TIP3    H125382   3.643   4.912   1.412  1.0327  0.5203 -1.2914
 1297TIP3    H225383   3.772   4.845   1.454 -1.0252 -1.9812  1.4740
 1298TIP3   OH225384   1.991   1.840  14.809  0.0348 -0.2330 -0.0040
 1298TIP3    H125385   2.016   1.777  14.742  1.1515  1.6732 -1.4745
 1298TIP3    H225386   2.074   1.872  14.844 -0.4797  0.9845  0.1564
 1299TIP3   OH225387   4.997   2.095  15.097  0.1818 -0.3491  0.3939
 1299TIP3    H125388   4.954   2.039  15.162  0.0255  0.2310  0.8081
 1299TIP3    H225389   4.948   2.177  15.100  1.1376  0.2387  0.6839
 1300TIP3   OH225390   5.069   4.296   4.292  0.3249  0.2209 -0.5319
 1300TIP3    H125391   5.106   4.286   4.379  1.8747  0.5874 -1.1203
 1300TIP3    H225392   5.008   4.222   4.283  0.7312 -0.2625  0.5474
 1301TIP3   OH225393   2.902   6.746   0.240 -0.0392  0.1519  0.3110
 1301TIP3    H125394   2.925   6.814   0.304  0.8147  1.0128 -0.8664
 1301TIP3    H225395   2.964   6.675   0.259  1.8242  1.3350 -1.0059
 1302TIP3   OH225396   0.896   1.286   3.673  0.4705  0.2521 -0.3343
 1302TIP3    H125397   0.974   1.242   3.640  0.3043 -0.6125  0.3871
 1302TIP3    H225398   0.915   1.379   3.665  1.6716  0.0487  0.0487
 1303TIP3   OH225399   2.992   3.291   1.656  0.1566 -0.1931 -0.3484
 1303TIP3    H125400   2.939   3.329   1.727 -0.4063 -0.5891 -0.5503
 1303TIP3    H225401   3.081   3.292   1.690 -0.1226 -0.4906  0.4200
 1304TIP3   OH225402   1.057   5.669  12.772 -0.2563 -0.0532 -0.2412
 1304TIP3    H125403   1.035   5.698  12.861 -1.1139  1.6292 -0.9656
 1304TIP3    H225404   1.011   5.730  12.715 -3.1564 -3.4334 -1.9492
 1305TIP3   OH225405   4.854   3.434  16.964 -0.3295 -0.2927 -0.2234
 1305TIP3    H125406   4.943   3.438  16.928 -0.5353  0.7370 -0.6437
 1305TIP3    H225407   4.858   3.486  17.043 -0.2980 -1.1696  0.3656
 1306TIP3   OH225408   5.280   4.879   3.021  0.1651  0.0871  0.2555
 1306TIP3    H125409   5.330   4.808   2.983 -0.4527  0.3496 -1.1080
 1306TIP3    H225410   5.339   4.954   3.018  0.3352 -0.0404  0.4031
 1307TIP3   OH225411   4.092   4.881   3.893  0.1704 -0.6027 -0.2702
 1307TIP3    H125412   3.999   4.904   3.894  0.0213 -1.1608 -0.3843
 1307TIP3    H225413   4.094   4.794   3.851  0.7450 -0.5787 -0.3005
 1308TIP3   OH225414   6.339   1.596  16.145 -0.2524 -0.2373 -0.0112
 1308TIP3    H125415   6.282   1.618  16.072 -0.0187  1.2737  0.2157
 1308TIP3    H225416   6.374   1.510  16.124 -1.6126 -0.6336 -0.7655
 1309TIP3   OH225417   3.753   6.702   2.889 -0.3325  1.1996  0.0288
 1309TIP3    H125418   3.785   6.714   2.800  1.6178 -2.4594  0.0413
 1309TIP3    H225419   3.657   6.703   2.881 -0.1908  2.1074 -1.8782
 1310TIP3   OH225420   5.081   6.088  16.131  0.6527  0.1197  0.1080
 1310TIP3    H125421   5.130   6.038  16.065 -0.9090  0.5020 -1.4237
 1310TIP3    H225422   5.114   6.177  16.123  0.1123  0.2715 -0.5589
 1311TIP3   OH225423   0.703   2.920   1.722  0.4211 -0.7270 -0.0981
 1311TIP3    H125424   0.731   2.956   1.805 -1.7296  0.6974  0.0959
 1311TIP3    H225425   0.698   2.826   1.737  1.0758 -0.5925  1.0488
 1312TIP3   OH225426   3.909   1.036  16.758 -0.6195 -0.4914  0.1914
 1312TIP3    H125427   3.967   1.038  16.682 -0.4548  1.5032  0.3233
 1312TIP3    H225428   3.961   0.996  16.828 -0.8824 -2.6732 -0.7635
 1313TIP3   OH225429   0.168   6.511   2.618  0.6646  0.3179  0.2422
 1313TIP3    H125430   0.218   6.592   2.606 -2.7437  2.5932 -0.0896
 1313TIP3    H225431   0.118   6.501   2.537 -0.5172 -0.9765  1.0706
 1314TIP3   OH225432   6.632   0.839  16.573  0.0316 -0.6055 -0.5834
 1314TIP3    H125433   6.573   0.855  16.647 -2.1670 -2.9045 -1.6763
 1314TIP3    H225434   6.619   0.915  16.516 -1.0276 -0.5298 -0.2718
 1315TIP3   OH225435   6.202   4.035  11.299  0.5067 -0.3297 -0.1437
 1315TIP3    H125436   6.107   4.028  11.308  0.3737  1.1097 -0.1906
 1315TIP3    H225437   6.222   3.985  11.219 -0.5228  1.2220 -1.4370
 1316TIP3   OH225438   1.550   5.929   4.708  0.2116  0.5195 -0.7173
 1316TIP3    H125439   1.616   5.978   4.660  1.1467 -1.5105 -1.6485
 1316TIP3    H225440   1.527   5.985   4.781  1.2216  2.2920 -1.6816
 1317TIP3   OH225441   1.191   4.707  12.991  0.2525  0.1550 -0.3467
 1317TIP3    H125442   1.191   4.694  13.086  1.9289  0.3995 -0.2731
 1317TIP3    H225443   1.099   4.715  12.967 -0.1308  1.6204  1.4677
 1318TIP3   OH225444   4.355   3.226  13.513  0.2236  0.3053 -0.3777
 1318TIP3    H125445   4.362   3.266  13.600  0.2535  0.1381 -0.3035
 1318TIP3    H225446   4.266   3.246  13.485  0.2923  0.5670 -0.4109
 1319TIP3   OH225447   6.489   3.753  12.384 -0.1286  0.1615 -0.1061
 1319TIP3    H125448   6.414   3.795  12.343 -1.0614  0.0272  1.3627
 1319TIP3    H225449   6.458   3.665  12.406  0.7790 -0.2275 -0.3346
 1320TIP3   OH225450   4.258   0.377  15.730  0.3745  0.3598  0.2695
 1320TIP3    H125451   4.212   0.368  15.814  0.9443  0.5305  0.6060
 1320TIP3    H225452   4.235   0.298  15.682 -0.2113  0.4068  0.4597
 1321TIP3   OH225453   0.339   5.502  14.395 -0.1167 -0.3697 -0.3789
 1321TIP3    H125454   0.416   5.452  14.370  0.8363  0.8598 -0.0485
 1321TIP3    H225455   0.271   5.437  14.411  0.7419 -1.4571 -1.0599
 1322TIP3   OH225456   6.220   3.288   4.695  0.4613  0.0345 -0.7215
 1322TIP3    H125457   6.259   3.375   4.687  0.3531  0.3723  1.7855
 1322TIP3    H225458   6.130   3.299   4.663  0.7897  0.5203 -1.5153
 1323TIP3   OH225459   2.626   2.595  15.077 -0.3135 -0.4707 -0.1767
 1323TIP3    H125460   2.663   2.683  15.072  2.2047 -1.5159 -2.2286
 1323TIP3    H225461   2.549   2.598  15.019  0.3379  0.1701 -1.0438
 1324TIP3   OH225462   5.339   2.025   0.103 -0.2881 -0.0774 -0.0000
 1324TIP3    H125463   5.354   1.988   0.190 -2.1785  1.5546  1.0969
 1324TIP3    H225464   5.407   2.093   0.094 -0.7542  0.5049  0.7124
 1325TIP3   OH225465   3.038   1.740   0.248 -0.5489  0.0744  0.1757
 1325TIP3    H125466   3.130   1.717   0.229 -0.0427  1.0635  1.3057
 1325TIP3    H225467   3.010   1.791   0.172  0.1930  0.6714  0.2851
 1326TIP3   OH225468   3.454   3.303  17.199 -0.4920  0.1803 -0.5392
 1326TIP3    H125469   3.454   3.285  17.105  0.3688 -0.4526 -0.4332
 1326TIP3    H225470   3.515   3.376  17.209 -1.7172  1.2549 -0.6253
 1327TIP3   OH225471   3.133   0.610  14.749  0.0184 -0.1393 -0.2651
 1327TIP3    H125472   3.122   0.678  14.815 -1.2064  0.8615 -1.4495
 1327TIP3    H225473   3.079   0.538  14.781 -1.1338  0.5979 -0.5015
 1328TIP3   OH225474   3.203   3.768  16.230  0.5020 -0.0972  0.3123
 1328TIP3    H125475   3.188   3.688  16.280  1.4216  1.2937  3.0337
 1328TIP3    H225476   3.138   3.830  16.262  2.6175  1.5709  1.7020
 1329TIP3   OH225477   6.604   5.457   3.654  0.3135 -0.3329 -0.3073
 1329TIP3    H125478   6.529   5.492   3.701 -0.1675  0.3187 -1.5137
 1329TIP3    H225479   6.679   5.508   3.685  0.0087  0.0828 -0.2483
 1330TIP3   OH225480   0.448   1.460   1.457 -0.6099  0.5008 -0.0506
 1330TIP3    H125481   0.437   1.536   1.399  3.0177  2.2187  1.2130
 1330TIP3    H225482   0.414   1.489   1.541  0.6436  0.7381  0.3954
 1331TIP3   OH225483   5.628   6.453   1.215  0.4800 -0.2369 -0.4956
 1331TIP3    H125484   5.721   6.467   1.200  0.2996  0.0474 -1.4309
 1331TIP3    H225485   5.589   6.540   1.209 -0.1105 -0.5907 -2.2231
 1332TIP3   OH225486   4.723   2.099  14.060 -0.5039  0.5166 -0.0537
 1332TIP3    H125487   4.756   2.146  13.983  0.6628  0.5617  0.4400
 1332TIP3    H225488   4.803   2.074  14.107 -1.1679 -0.4604  0.5768
 1333TIP3   OH225489   0.622   0.988   4.511 -0.0183  0.1715 -0.5735
 1333TIP3    H125490   0.558   1.027   4.571  0.7112  0.2898  0.1441
 1333TIP3    H225491   0.639   1.057   4.446 -0.0046  0.4400 -0.2895
 1334TIP3   OH225492   4.690   4.553   3.136 -0.2071 -0.1440 -0.1861
 1334TIP3    H125493   4.759   4.503   3.092  0.1091 -0.8715  1.0991
 1334TIP3    H225494   4.736   4.624   3.181 -0.3057 -0.5342  0.5376
 1335TIP3   OH225495   5.855   0.307   0.395  0.1812  0.0318 -1.1091
 1335TIP3    H125496   5.849   0.212   0.389  0.0875  0.0539 -1.3893
 1335TIP3    H225497   5.811   0.339   0.316 -1.9882  0.3757  0.1554
 1336TIP3   OH225498   2.548   4.115  12.207  0.2576  0.6860  0.0816
 1336TIP3    H125499   2.537   4.208  12.185  1.3756  0.6338 -0.7394
 1336TIP3    H225500   2.581   4.116  12.297 -0.5990  1.0342  0.4084
 1337TIP3   OH225501   4.622   2.826   7.036 -0.1736 -0.0174  0.4439
 1337TIP3    H125502   4.681   2.852   7.106 -1.1936 -0.2219  1.4117
 1337TIP3    H225503   4.560   2.899   7.028 -1.8828 -1.2012  1.8620
 1338TIP3   OH225504   1.244   4.598   3.119  0.3862  0.2958 -0.0431
 1338TIP3    H125505   1.261   4.535   3.048  1.7598 -0.3435  0.8207
 1338TIP3    H225506   1.183   4.552   3.177  2.5302 -0.9238  1.3751
 1339TIP3   OH225507   6.583   2.613   1.284  0.0873  0.2285  0.0037
 1339TIP3    H125508   6.632   2.530   1.277  1.0727  0.8441 -0.6957
 1339TIP3    H225509   6.601   2.643   1.373  0.7567  0.3021 -0.1505
 1340TIP3   OH225510   2.334   2.416   6.081  0.7893  0.3252 -0.1756
 1340TIP3    H125511   2.264   2.420   6.016 -0.5306  0.5669  1.1959
 1340TIP3    H225512   2.364   2.507   6.089  0.9085  0.3054 -0.4036
 1341TIP3   OH225513   6.557   3.951   2.801 -0.0400  0.4211  0.1064
 1341TIP3    H125514   6.466   3.968   2.826 -0.3582 -0.8166 -0.1218
 1341TIP3    H225515   6.561   3.970   2.708 -0.2068  0.0045  0.0090
 1342TIP3   OH225516   6.420   3.552   0.909 -0.1436 -0.0435 -0.3928
 1342TIP3    H125517   6.448   3.512   0.826  0.0367 -0.1672 -0.2726
 1342TIP3    H225518   6.419   3.646   0.891 -1.4675 -0.1357 -0.9620
 1343TIP3   OH225519   6.279   6.677  15.771 -0.4385  0.0102  0.5425
 1343TIP3    H125520   6.309   6.623  15.698  2.1661  0.0835  1.4535
 1343TIP3    H225521   6.206   6.728  15.735  0.3790 -0.3604 -1.8239
 1344TIP3   OH225522   4.623   5.518   2.520 -0.2284  0.6231  0.1064
 1344TIP3    H125523   4.697   5.507   2.460 -0.0756 -1.7020  0.6424
 1344TIP3    H225524   4.555   5.461   2.485 -0.4192 -0.1455  1.6551
 1345TIP3   OH225525   1.260   0.473  12.651  0.1894  0.5598  0.3648
 1345TIP3    H125526   1.235   0.415  12.579  0.8381 -1.0222  1.3669
 1345TIP3    H225527   1.208   0.553  12.637 -2.8907 -1.2729  0.4998
 1346TIP3   OH225528   2.721   1.495   0.484  0.2368  0.0562 -0.1813
 1346TIP3    H125529   2.671   1.566   0.444  2.0976  1.9969  0.7919
 1346TIP3    H225530   2.703   1.419   0.428  0.6021  1.9969 -3.1139
 1347TIP3   OH225531   5.772   2.476  13.119 -0.2929 -0.2990 -0.0866
 1347TIP3    H125532   5.693   2.495  13.170 -1.6839 -0.4620 -2.0703
 1347TIP3    H225533   5.788   2.556  13.069  0.6939 -0.3459  0.1368
 1348TIP3   OH225534   2.405   1.016   3.435  0.1262  0.3413 -0.2258
 1348TIP3    H125535   2.429   0.966   3.357 -0.6022 -1.0856  0.4300
 1348TIP3    H225536   2.335   1.075   3.405  1.4659  1.5463 -1.1619
 1349TIP3   OH225537   4.778   1.995  12.788 -0.3377  0.0788  0.3149
 1349TIP3    H125538   4.845   1.979  12.853 -0.5122  1.3248  0.8136
 1349TIP3    H225539   4.818   2.055  12.725 -0.8233  0.4605  0.3628
 1350TIP3   OH225540   5.250   0.494  16.443  0.4580  0.1850  0.3459
 1350TIP3    H125541   5.192   0.479  16.518  0.0212  1.4650  0.2920
 1350TIP3    H225542   5.326   0.538  16.480  0.3964  0.5054  0.0949
 1351TIP3   OH225543   0.887   4.143   3.994  0.1718 -0.3507 -0.5418
 1351TIP3    H125544   0.899   4.161   3.901  0.5412  0.7721 -0.2925
 1351TIP3    H225545   0.816   4.201   4.021 -0.2262 -0.9789 -0.2072
 1352TIP3   OH225546   3.445   3.517  12.355  0.3429 -0.4575 -0.4269
 1352TIP3    H125547   3.367   3.561  12.390  1.1288  0.1480  0.5812
 1352TIP3    H225548   3.485   3.582  12.297  0.1560 -0.7472 -0.8933
 1353TIP3   OH225549   1.160   2.680  14.972 -0.3469 -0.3016  0.5752
 1353TIP3    H125550   1.234   2.638  15.017 -0.5834 -0.8058  0.4933
 1353TIP3    H225551   1.192   2.768  14.952  0.4934 -0.7398 -0.0975
 1354TIP3   OH225552   5.918   2.249   2.587  0.6487 -0.0289 -0.2716
 1354TIP3    H125553   5.925   2.331   2.637 -0.3270 -0.4187  0.5469
 1354TIP3    H225554   5.949   2.182   2.648 -0.0222 -0.4487 -0.3877
 1355TIP3   OH225555   4.380   5.730   4.618  0.3874 -0.1701  0.0478
 1355TIP3    H125556   4.442   5.685   4.675 -0.3182 -0.5633  0.5196
 1355TIP3    H225557   4.378   5.678   4.538  2.4571  1.1565 -0.9679
 1356TIP3   OH225558   3.709   2.003   5.889  0.4500  0.1377 -0.3368
 1356TIP3    H125559   3.716   2.095   5.914 -0.8494  0.4448 -0.9921
 1356TIP3    H225560   3.715   1.955   5.971 -2.3171  1.0213  0.4822
 1357TIP3   OH225561   0.767   5.060  11.620 -0.2307 -0.1985  0.4019
 1357TIP3    H125562   0.701   5.130  11.626 -0.3693 -0.1578 -1.2138
 1357TIP3    H225563   0.733   5.000  11.554  2.9553  1.7059 -3.3922
 1358TIP3   OH225564   0.061   3.657   4.726  0.3815 -0.3438 -0.2146
 1358TIP3    H125565   0.140   3.697   4.761  0.1365  0.5771 -0.6773
 1358TIP3    H225566  -0.005   3.727   4.730  0.0119 -0.6108 -1.2672
 1359TIP3   OH225567   2.952   4.347  11.176 -0.5329 -0.1142 -0.3577
 1359TIP3    H125568   2.999   4.271  11.210 -0.2056  0.3771  0.3255
 1359TIP3    H225569   2.966   4.344  11.082  0.5281 -0.2298 -0.2164
 1360TIP3   OH225570   6.496   3.692   1.306 -0.0629  0.2204 -0.2052
 1360TIP3    H125571   6.539   3.606   1.300  0.4428  0.4993 -0.7423
 1360TIP3    H225572   6.502   3.728   1.217 -0.6053  0.6532 -0.0711
 1361TIP3   OH225573   6.733   0.678   3.995 -0.1355 -0.1578  0.2813
 1361TIP3    H125574   6.684   0.748   3.952 -1.5094 -1.5418 -0.5355
 1361TIP3    H225575   6.735   0.607   3.931  1.2887 -0.8458  1.0451
 1362TIP3   OH225576   5.424   3.005  12.170 -0.3358 -0.0480  0.0211
 1362TIP3    H125577   5.404   3.091  12.134  1.4443  1.2980  2.0718
 1362TIP3    H225578   5.507   2.980  12.129 -0.8284 -0.8170 -0.5441
 1363TIP3   OH225579   4.097   2.155   2.010 -0.0302 -0.2878 -0.2705
 1363TIP3    H125580   4.029   2.195   2.065  0.1253 -0.0045 -0.2819
 1363TIP3    H225581   4.054   2.080   1.970 -1.1212  1.3141 -2.2677
 1364TIP3   OH225582   3.591   5.684   4.024  0.2125 -0.3034  0.2461
 1364TIP3    H125583   3.640   5.612   3.985 -0.9273 -0.1394 -1.6523
 1364TIP3    H225584   3.636   5.702   4.106  3.1625 -0.3634 -1.1967
 1365TIP3   OH225585   4.802   5.108  11.342 -0.1007 -0.3273 -0.0004
 1365TIP3    H125586   4.860   5.127  11.268  0.3260 -0.7477  0.2220
 1365TIP3    H225587   4.716   5.100  11.303 -0.4517  2.5696 -0.0731
 1366TIP3   OH225588   3.556   6.061  11.427 -0.4367 -0.1479  0.3932
 1366TIP3    H125589   3.639   6.107  11.441  0.3559 -1.0829 -0.9644
 1366TIP3    H225590   3.490   6.130  11.425  0.1971  0.5550  2.1978
 1367TIP3   OH225591   1.001   6.571  14.124 -0.0536 -0.2943  0.4494
 1367TIP3    H125592   1.052   6.540  14.049  0.1206 -0.6731  0.7214
 1367TIP3    H225593   1.021   6.664  14.129 -0.6530 -0.1062 -0.4362
 1368TIP3   OH225594   0.813   2.119   3.828  0.0877  0.2470  0.0964
 1368TIP3    H125595   0.836   2.181   3.759 -0.1889  0.9815  0.6479
 1368TIP3    H225596   0.887   2.123   3.889  0.6212 -0.8603 -0.4466
 1369TIP3   OH225597   1.135   2.036   2.191  0.5009  0.0912 -0.4351
 1369TIP3    H125598   1.184   2.094   2.133  0.8608 -0.4266 -0.6563
 1369TIP3    H225599   1.051   2.023   2.146  0.7719 -0.2918 -0.8313
 1370TIP3   OH225600   1.675   2.122  17.178 -0.5048  0.2688  0.3838
 1370TIP3    H125601   1.624   2.149  17.100 -0.2012 -2.5233 -0.9107
 1370TIP3    H225602   1.763   2.106  17.144 -0.9471 -3.5229  0.5559
 1371TIP3   OH225603   0.628   1.681   3.904  0.2253 -0.3931  0.0728
 1371TIP3    H125604   0.672   1.638   3.831  3.4067  1.9185  0.4103
 1371TIP3    H225605   0.553   1.724   3.863  0.6103 -1.0343 -1.3979
 1372TIP3   OH225606   4.432   3.458  14.774 -0.2258  0.2417  0.0445
 1372TIP3    H125607   4.453   3.547  14.746  0.6006 -0.2334 -0.8864
 1372TIP3    H225608   4.338   3.460  14.792 -0.2623  1.2326 -0.2282
 1373TIP3   OH225609   2.718   1.070  13.089  0.1568  0.0879 -0.0387
 1373TIP3    H125610   2.722   1.141  13.025  0.1773 -1.6910 -2.1441
 1373TIP3    H225611   2.809   1.049  13.107  0.1641 -0.1756 -0.3646
 1374TIP3   OH225612   3.992   0.624  11.792 -0.6739  1.0604  0.1783
 1374TIP3    H125613   3.910   0.583  11.764  0.2144  0.8854 -2.4721
 1374TIP3    H225614   4.034   0.559  11.848 -1.3846  0.2494 -0.2044
 1375TIP3   OH225615   6.790   4.093  16.907 -0.4069 -0.5675 -0.2042
 1375TIP3    H125616   6.827   4.166  16.856  0.2652 -0.1472  0.8436
 1375TIP3    H225617   6.696   4.100  16.893 -0.4795  1.2756  0.8098
 1376TIP3   OH225618   6.770   1.843   1.453  0.7517 -0.4385  0.6142
 1376TIP3    H125619   6.783   1.830   1.547  1.8738  0.4525  0.6080
 1376TIP3    H225620   6.773   1.938   1.441 -1.1931 -0.4247 -0.1038
 1377TIP3   OH225621   4.643   1.211   3.821 -0.1884  0.2315 -0.4340
 1377TIP3    H125622   4.722   1.183   3.867 -0.0306  0.6429 -0.4469
 1377TIP3    H225623   4.676   1.261   3.746 -0.4439 -0.3740 -0.9638
 1378TIP3   OH225624   1.206   6.393   2.036 -0.8572  0.3333  0.0799
 1378TIP3    H125625   1.197   6.411   2.130  1.0618 -0.1961  0.3996
 1378TIP3    H225626   1.123   6.351   2.012 -0.3267 -2.2159  2.2241
 1379TIP3   OH225627   1.809   1.629   3.313  0.0037 -0.5149  0.0215
 1379TIP3    H125628   1.862   1.698   3.273  1.4346 -1.1987  0.6823
 1379TIP3    H225629   1.739   1.676   3.358  1.0396  0.5270  0.5921
 1380TIP3   OH225630   0.491   4.465  14.585  0.4178 -0.3790 -0.2212
 1380TIP3    H125631   0.418   4.480  14.526  0.3780  1.3326  0.2023
 1380TIP3    H225632   0.464   4.505  14.668  1.2230 -1.0632  0.3982
 1381TIP3   OH225633   3.110   6.447  12.270  0.0184 -0.0098  0.0541
 1381TIP3    H125634   3.071   6.501  12.201  0.0767 -0.8248 -0.6280
 1381TIP3    H225635   3.198   6.427  12.238 -0.5649 -1.8619 -0.4809
 1382TIP3   OH225636   5.134   5.016  14.874 -0.3616 -0.6184  0.2989
 1382TIP3    H125637   5.215   4.979  14.839  0.8963  1.7986  0.5176
 1382TIP3    H225638   5.161   5.072  14.946 -2.4342 -1.1594  1.6047
 1383TIP3   OH225639   2.529   4.711   5.300 -0.0391  0.2178  0.3048
 1383TIP3    H125640   2.625   4.702   5.301  0.0636  0.3536  3.8255
 1383TIP3    H225641   2.514   4.805   5.299 -0.1043  0.2109  0.6079
 1384TIP3   OH225642   6.591   5.713   1.836 -0.0114  0.1222  0.6047
 1384TIP3    H125643   6.551   5.695   1.751  1.2732  0.2094 -0.0522
 1384TIP3    H225644   6.524   5.762   1.884 -1.5313 -1.6619  0.4272
 1385TIP3   OH225645   1.114   3.477   3.279  0.0020  0.0257 -0.9189
 1385TIP3    H125646   1.047   3.533   3.317  0.8368 -0.0396  0.7140
 1385TIP3    H225647   1.065   3.407   3.234 -1.1047 -1.3243  2.1319
 1386TIP3   OH225648   3.786   3.830   4.160  0.5373 -0.1892 -0.1006
 1386TIP3    H125649   3.741   3.859   4.240  0.4715 -2.4513  0.7602
 1386TIP3    H225650   3.746   3.745   4.141  0.2139  0.5036 -2.8638
 1387TIP3   OH225651   3.030   1.840   5.991 -0.3162 -0.2148 -0.3010
 1387TIP3    H125652   3.086   1.889   5.930 -1.8676  2.0101 -0.0454
 1387TIP3    H225653   3.050   1.878   6.077 -0.2873 -1.2963  0.1865
 1388TIP3   OH225654   4.467   6.197   1.382  0.0025 -0.7766  0.1152
 1388TIP3    H125655   4.461   6.107   1.348  1.7001 -0.6508 -0.6413
 1388TIP3    H225656   4.554   6.202   1.421  0.4223  0.8678 -0.9190
 1389TIP3   OH225657   3.406   4.272  15.457  0.2823  0.0106  0.5562
 1389TIP3    H125658   3.450   4.248  15.375 -0.0139 -3.2704  1.2175
 1389TIP3    H225659   3.477   4.281  15.520  0.3624  0.4180  0.4127
 1390TIP3   OH225660   0.825   0.944  12.700  0.3738  0.2579 -0.3341
 1390TIP3    H125661   0.895   0.967  12.760  0.2551  2.6706 -0.9976
 1390TIP3    H225662   0.867   0.888  12.634  1.2688  0.3129  0.1807
 1391TIP3   OH225663   2.618   1.305   0.291  0.4026  0.0071 -0.0733
 1391TIP3    H125664   2.548   1.353   0.246 -1.3411 -2.1220  0.1664
 1391TIP3    H225665   2.676   1.277   0.221 -1.8624 -2.6121 -1.0921
 1392TIP3   OH225666   1.634   2.826  16.585  0.3485 -0.3142 -0.4667
 1392TIP3    H125667   1.573   2.849  16.655 -0.1182 -0.1355 -0.9260
 1392TIP3    H225668   1.718   2.861  16.615 -0.2565  1.6670 -0.9466
 1393TIP3   OH225669   3.995   1.106   5.100  0.1100  0.2273 -0.0753
 1393TIP3    H125670   4.050   1.029   5.113 -1.1157 -0.5274  0.8115
 1393TIP3    H225671   4.049   1.179   5.131 -0.0138 -0.7038  2.5745
 1394TIP3   OH225672   4.476   3.769   3.343  0.2690 -0.3515 -0.1415
 1394TIP3    H125673   4.436   3.856   3.351  0.8249 -0.1334  0.3824
 1394TIP3    H225674   4.403   3.710   3.327 -0.4140 -0.1403  1.9724
 1395TIP3   OH225675   2.307   2.651   1.556  0.5411 -0.2855  0.5531
 1395TIP3    H125676   2.350   2.736   1.550 -0.5129  0.2827  0.8356
 1395TIP3    H225677   2.214   2.671   1.568  0.2975 -1.4743  0.8408
 1396TIP3   OH225678   2.359   5.220  10.831 -0.3315  0.4295  0.0299
 1396TIP3    H125679   2.350   5.291  10.895 -1.5615  0.5613 -0.2612
 1396TIP3    H225680   2.345   5.262  10.747  0.9668  0.1940 -0.3194
 1397TIP3   OH225681   2.091   0.458  12.501  0.2186 -0.3216  0.4525
 1397TIP3    H125682   2.161   0.408  12.459 -0.1349 -1.2934  0.9882
 1397TIP3    H225683   2.013   0.404  12.491  0.1005 -0.5405  2.2596
 1398TIP3   OH225684   6.638   6.052  12.798  0.0811 -0.4391  0.5323
 1398TIP3    H125685   6.600   6.119  12.741  2.4410  0.9747  0.5109
 1398TIP3    H225686   6.635   5.972  12.746  1.4352  0.6427 -1.3252
 1399TIP3   OH225687   0.005   3.219  12.101 -0.0686 -0.1214  0.3412
 1399TIP3    H125688   0.087   3.172  12.116  0.3588  0.4785 -0.0856
 1399TIP3    H225689   0.023   3.275  12.026 -1.5535 -1.6104 -1.1997
 1400TIP3   OH225690   2.072   0.685  13.933 -0.4149 -0.5418 -0.4297
 1400TIP3    H125691   2.109   0.729  13.856  1.8901 -2.8028 -0.7325
 1400TIP3    H225692   2.106   0.735  14.007  1.0396 -0.9364 -0.7976
 1401TIP3   OH225693   6.040   1.737   4.654 -0.2245  0.2972 -0.3332
 1401TIP3    H125694   5.988   1.701   4.582  0.1017  1.6534 -1.2892
 1401TIP3    H225695   6.017   1.683   4.730 -0.9275 -0.8768 -1.3411
 1402TIP3   OH225696   0.895   3.201  12.900 -0.1552 -0.1208  0.6014
 1402TIP3    H125697   0.873   3.143  12.972 -0.8047 -0.9047 -0.2097
 1402TIP3    H225698   0.917   3.143  12.827 -2.2174  0.5817 -0.6659
 1403TIP3   OH225699   2.328   5.658   1.019  0.1276  0.3644  0.1319
 1403TIP3    H125700   2.374   5.582   1.055 -0.9948 -0.3687  0.0790
 1403TIP3    H225701   2.396   5.723   1.006  0.9357 -0.1816  1.3783
 1404TIP3   OH225702   4.550   0.957  16.137 -0.3373  0.1850  0.1224
 1404TIP3    H125703   4.483   0.930  16.199 -0.8197 -1.0010 -0.8747
 1404TIP3    H225704   4.617   0.888  16.143  0.1736  0.6804  0.1768
 1405TIP3   OH225705   1.536   4.328   5.475  0.2992  0.1450 -0.4231
 1405TIP3    H125706   1.546   4.416   5.511 -0.8356  0.1686 -0.1202
 1405TIP3    H225707   1.578   4.271   5.539 -1.0562  0.2571  0.6045
 1406TIP3   OH225708   3.387   5.789  12.902 -0.1483  0.4091  0.3556
 1406TIP3    H125709   3.355   5.699  12.892  1.1291 -0.1026  0.6917
 1406TIP3    H225710   3.447   5.784  12.977  3.1967  0.6086 -2.1234
 1407TIP3   OH225711   1.300   6.637   1.968  0.2707 -0.0866 -0.1487
 1407TIP3    H125712   1.245   6.565   2.001  0.0599  0.6186  1.0941
 1407TIP3    H225713   1.375   6.639   2.027  0.4175  0.5276 -0.3526
 1408TIP3   OH225714   6.545   2.297  17.056 -0.2620  0.7993 -0.2839
 1408TIP3    H125715   6.590   2.379  17.077 -0.6983  0.7223  1.0890
 1408TIP3    H225716   6.554   2.288  16.961  1.4472  1.4511 -0.2196
 1409TIP3   OH225717   5.495   1.239  11.755  0.2618  0.3211 -0.1899
 1409TIP3    H125718   5.407   1.248  11.792  0.3012 -0.1355  0.0184
 1409TIP3    H225719   5.516   1.327  11.722 -0.2800  0.4267 -0.2630
 1410TIP3   OH225720   1.727   3.431   3.567  0.3759 -0.3594 -0.4825
 1410TIP3    H125721   1.800   3.487   3.594  0.0518  0.1639 -0.6707
 1410TIP3    H225722   1.750   3.403   3.478 -0.6377  1.5704 -1.4135
 1411TIP3   OH225723   4.211   0.781  12.826 -0.1210  0.2942  0.9079
 1411TIP3    H125724   4.225   0.873  12.847  1.4047  0.1176  0.8071
 1411TIP3    H225725   4.277   0.761  12.760 -1.8872 -0.3320 -0.7504
 1412TIP3   OH225726   2.348   3.367  11.174 -0.3026 -0.5342 -0.1475
 1412TIP3    H125727   2.300   3.407  11.102  1.1569  0.3324 -0.6920
 1412TIP3    H225728   2.440   3.379  11.151  0.2651  0.8122  2.4007
 1413TIP3   OH225729   3.370   6.257  16.450 -0.2031  0.0819 -0.0630
 1413TIP3    H125730   3.397   6.168  16.470  0.1301  0.1148 -0.3588
 1413TIP3    H225731   3.449   6.300  16.416  0.1849  1.0948  1.9793
 1414TIP3   OH225732   4.312   0.087  12.152  0.4175 -0.1477 -0.0274
 1414TIP3    H125733   4.218   0.069  12.149  0.0366  1.7877 -1.0668
 1414TIP3    H225734   4.348   0.041  12.077  0.2346 -0.4350  0.0557
 1415TIP3   OH225735   3.964   5.755   1.667 -0.0810  0.0540 -0.1078
 1415TIP3    H125736   3.944   5.820   1.600  0.2275  1.0202  0.7089
 1415TIP3    H225737   3.985   5.807   1.745 -1.2634 -1.0326  0.9838
 1416TIP3   OH225738   4.635   5.001   2.855  0.1684 -0.0313  0.1144
 1416TIP3    H125739   4.670   5.084   2.823 -1.3230  1.2507  1.6672
 1416TIP3    H225740   4.709   4.961   2.901  0.6227  0.9294  0.2458
 1417TIP3   OH225741   3.519   2.219  12.037  0.1974  0.2975 -0.2666
 1417TIP3    H125742   3.500   2.131  12.003  2.8384 -0.5261  0.1357
 1417TIP3    H225743   3.545   2.270  11.960 -0.6480  0.5489 -0.3986
 1418TIP3   OH225744   1.602   2.373  15.823  0.1677 -0.5245  0.0967
 1418TIP3    H125745   1.632   2.298  15.874  3.3035  1.3188  1.2402
 1418TIP3    H225746   1.668   2.384  15.754  0.0590  1.3945  0.2307
 1419TIP3   OH225747   4.802   2.906   0.173 -0.5446 -0.2905  0.1496
 1419TIP3    H125748   4.719   2.945   0.147  0.6301  1.0115 -1.9698
 1419TIP3    H225749   4.799   2.817   0.139 -0.9003 -0.0935 -0.3476
 1420TIP3   OH225750   0.832   4.823   2.113  0.1746  0.1977  0.6201
 1420TIP3    H125751   0.827   4.846   2.206  0.8421 -0.4879  0.8338
 1420TIP3    H225752   0.909   4.869   2.080  2.3359 -2.5772  1.3582
 1421TIP3   OH225753   2.165   4.110   6.385 -0.3001 -0.2856  0.1865
 1421TIP3    H125754   2.127   4.146   6.304 -1.0962  2.6080  1.6881
 1421TIP3    H225755   2.096   4.054   6.420 -1.1450  0.7463  0.2495
 1422TIP3   OH225756   5.638   3.351   3.139  0.0369 -0.4335  0.3571
 1422TIP3    H125757   5.677   3.438   3.131 -0.1511 -0.4481 -0.7853
 1422TIP3    H225758   5.559   3.366   3.191  0.4228 -0.0637  0.8553
 1423TIP3   OH225759   5.986   3.897  16.824 -0.3692  0.7843 -0.0290
 1423TIP3    H125760   6.044   3.943  16.885  0.1157  1.1205 -0.7213
 1423TIP3    H225761   5.972   3.960  16.753  0.5314 -0.2124 -1.1384
 1424TIP3   OH225762   0.113   2.821   5.260  0.2789  0.5621 -0.4366
 1424TIP3    H125763   0.093   2.912   5.282 -1.4525  0.1345 -0.0298
 1424TIP3    H225764   0.187   2.826   5.199 -0.8183  2.3523 -1.7397
 1425TIP3   OH225765   5.794   1.586   5.071 -0.2427  0.1006  0.2974
 1425TIP3    H125766   5.795   1.536   4.989 -0.8315  0.9614 -0.2520
 1425TIP3    H225767   5.823   1.673   5.047  0.7318  0.0614  1.2460
 1426TIP3   OH225768   3.526   2.633  14.155 -0.2705  0.1237  0.6462
 1426TIP3    H125769   3.616   2.609  14.132 -0.3819  0.1084  0.2186
 1426TIP3    H225770   3.491   2.675  14.077 -0.8644 -0.5058  0.5581
 1427TIP3   OH225771   0.714   5.956   5.702  0.0846  0.8138  0.1559
 1427TIP3    H125772   0.704   5.886   5.637 -1.7243  1.1577  0.0224
 1427TIP3    H225773   0.793   5.931   5.752 -1.2263 -2.0839  0.9867
 1428TIP3   OH225774   1.450   3.494  15.685 -0.1845  0.1287  0.0169
 1428TIP3    H125775   1.394   3.472  15.610  1.9390 -0.3593 -1.5173
 1428TIP3    H225776   1.405   3.566  15.728 -1.3160  0.6860 -1.9632
 1429TIP3   OH225777   4.387   5.173   0.502  0.3799  0.4352  0.2436
 1429TIP3    H125778   4.467   5.224   0.496 -0.2377  1.6282  1.5204
 1429TIP3    H225779   4.380   5.150   0.595  1.1590 -2.9032 -0.3969
 1430TIP3   OH225780   6.779   4.115   2.874 -0.0252  0.2083  0.1615
 1430TIP3    H125781   6.708   4.057   2.847  1.4033 -0.4887 -2.5282
 1430TIP3    H225782   6.762   4.198   2.829  0.6470  0.1504 -0.2176
 1431TIP3   OH225783   5.791   2.200  12.128  0.2468 -0.5102 -0.6173
 1431TIP3    H125784   5.865   2.156  12.087  0.0088  0.1362 -1.7623
 1431TIP3    H225785   5.752   2.253  12.059  0.4194  1.4047  0.6783
 1432TIP3   OH225786   3.932   4.632   3.878 -0.2772  0.9239  0.2800
 1432TIP3    H125787   3.989   4.556   3.867 -0.7557  0.5369  0.4334
 1432TIP3    H225788   3.877   4.633   3.799 -1.3179  0.1964  0.9655
 1433TIP3   OH225789   1.910   1.051  14.179  0.5761  0.3953  0.2264
 1433TIP3    H125790   1.842   0.985  14.163  1.1463  0.3965 -2.7934
 1433TIP3    H225791   1.861   1.130  14.200 -0.4058  0.2371 -1.2651
 1434TIP3   OH225792   2.493   2.308   4.156 -0.1064 -0.5845  0.4292
 1434TIP3    H125793   2.570   2.252   4.167 -1.2785 -2.3564  0.1372
 1434TIP3    H225794   2.475   2.306   4.062  1.1350  2.2317  0.0397
 1435TIP3   OH225795   3.365   4.347  13.682 -1.1891  0.0420 -0.1965
 1435TIP3    H125796   3.385   4.318  13.593  0.1314 -0.6198  0.2960
 1435TIP3    H225797   3.270   4.360  13.682 -1.0963  1.0888 -1.9900
 1436TIP3   OH225798   1.502   4.221  15.563 -0.4529  0.4041 -0.2425
 1436TIP3    H125799   1.490   4.301  15.616 -0.8519  0.8270 -0.9606
 1436TIP3    H225800   1.414   4.200  15.532 -0.3031 -0.1721 -0.2710
 1437TIP3   OH225801   5.360   1.130  13.414 -0.3262  0.1780 -0.4448
 1437TIP3    H125802   5.329   1.206  13.365  1.2564 -0.1323 -2.0156
 1437TIP3    H225803   5.442   1.159  13.455 -1.2653  0.2205  1.5533
 1438TIP3   OH225804   2.703   3.081  12.989 -0.0506  0.2059 -0.1561
 1438TIP3    H125805   2.677   3.158  12.938  0.8877 -0.3504 -1.5135
 1438TIP3    H225806   2.626   3.024  12.986  0.5477 -0.5991 -2.5284
 1439TIP3   OH225807   2.919   6.750   3.155  0.5873 -0.0497 -0.2244
 1439TIP3    H125808   2.897   6.684   3.220  0.6336  0.3936  0.2464
 1439TIP3    H225809   2.969   6.703   3.088 -0.8515 -0.8586 -0.7835
 1440TIP3   OH225810   0.294   4.532  11.716 -0.2425 -0.2804 -0.9102
 1440TIP3    H125811   0.205   4.560  11.694 -0.2865 -0.9154 -1.5951
 1440TIP3    H225812   0.314   4.576  11.798 -2.1466 -2.0271  0.5881
 1441TIP3   OH225813   4.232   4.806  13.387 -0.1270 -0.1862 -0.4189
 1441TIP3    H125814   4.315   4.768  13.357 -0.4390 -0.7004 -0.6301
 1441TIP3    H225815   4.189   4.836  13.306 -1.4313 -2.4805 -0.6419
 1442TIP3   OH225816   5.231   3.996   6.679 -0.2353 -0.0252  0.0634
 1442TIP3    H125817   5.217   3.913   6.726 -2.1634 -0.1896 -0.7055
 1442TIP3    H225818   5.324   4.014   6.690 -0.1759 -1.1899  2.0553
 1443TIP3   OH225819   2.255   2.193  11.608  0.2794  0.2261 -0.1452
 1443TIP3    H125820   2.283   2.262  11.668  0.9866  0.4786 -0.7536
 1443TIP3    H225821   2.251   2.235  11.522  2.5082 -0.8763 -0.8520
 1444TIP3   OH225822   2.928   1.765  14.173 -0.8184 -0.2578  0.8874
 1444TIP3    H125823   2.950   1.857  14.189 -0.3792 -0.5004  1.7663
 1444TIP3    H225824   2.973   1.717  14.243 -0.0539 -1.2693 -0.2482
 1445TIP3   OH225825   6.001   5.396   0.807  0.0432  0.5328  0.2454
 1445TIP3    H125826   5.917   5.365   0.842 -0.7712  1.8801 -0.4193
 1445TIP3    H225827   6.064   5.379   0.877 -0.4435 -1.8861  0.1940
 1446TIP3   OH225828   1.294   2.448  11.739 -0.3435 -0.4198 -0.3452
 1446TIP3    H125829   1.241   2.487  11.808 -0.7443 -0.4455 -0.6352
 1446TIP3    H225830   1.237   2.448  11.661  0.1590 -0.2391 -0.7192
 1447TIP3   OH225831   3.454   3.100   0.504  0.4695 -0.4367  0.2426
 1447TIP3    H125832   3.526   3.065   0.452  2.0472  0.1821  1.9043
 1447TIP3    H225833   3.389   3.128   0.440  1.4585 -1.4813 -1.2905
 1448TIP3   OH225834   0.569   0.022  14.115  0.3362 -0.5576 -0.2229
 1448TIP3    H125835   0.584   0.114  14.090  0.4351 -0.8797 -1.4284
 1448TIP3    H225836   0.620  -0.028  14.051  2.3275 -1.4265  1.8930
 1449TIP3   OH225837   1.591   5.349   0.045 -0.2947  0.1102 -0.1836
 1449TIP3    H125838   1.524   5.340   0.112  1.1642 -1.1748  1.1735
 1449TIP3    H225839   1.633   5.433   0.063 -2.5220  1.7721 -2.0816
 1450TIP3   OH225840   4.781   4.172   6.281  0.6343  0.1933 -0.3767
 1450TIP3    H125841   4.715   4.206   6.341 -1.4694  0.6734 -2.7902
 1450TIP3    H225842   4.764   4.078   6.276  0.4175  0.2481 -0.6749
 1451TIP3   OH225843   5.069   3.460   7.168  0.2205 -0.2293  0.7356
 1451TIP3    H125844   5.079   3.547   7.129  1.3320  0.6365  2.7623
 1451TIP3    H225845   5.158   3.425   7.171 -0.0569 -0.9201  1.0198
 1452TIP3   OH225846   5.214   5.007   5.703  0.2716  0.4432 -0.1485
 1452TIP3    H125847   5.142   4.955   5.738 -0.9868  2.0454 -0.2260
 1452TIP3    H225848   5.192   5.097   5.726  2.9155  0.9019  0.9615
 1453TIP3   OH225849   4.302   0.562  12.391  0.0439  0.1026  0.3812
 1453TIP3    H125850   4.334   0.551  12.481  1.5082  0.9258 -0.0022
 1453TIP3    H225851   4.378   0.595  12.343 -1.5196  2.6408 -0.4915
 1454TIP3   OH225852   4.488   5.754   1.880 -0.3880 -0.0830  0.1663
 1454TIP3    H125853   4.484   5.660   1.895 -1.6226 -0.0976 -0.1785
 1454TIP3    H225854   4.582   5.774   1.881 -0.1279 -1.2259  0.7143
 1455TIP3   OH225855   0.397   1.181   5.188 -0.7700  0.0547  0.0971
 1455TIP3    H125856   0.402   1.242   5.261 -0.7246  0.2778 -0.0944
 1455TIP3    H225857   0.427   1.098   5.225  0.1976  0.3858  0.0839
 1456TIP3   OH225858   1.003   1.065  15.051  0.0406 -0.2322  0.5579
 1456TIP3    H125859   0.995   0.971  15.065 -0.9296 -0.0552  1.3383
 1456TIP3    H225860   1.048   1.097  15.130 -0.8349  0.1218  0.9226
 1457TIP3   OH225861   6.213   6.126   1.304  0.2297  0.1658 -0.0396
 1457TIP3    H125862   6.171   6.186   1.242 -0.7069 -1.8959 -1.5322
 1457TIP3    H225863   6.305   6.126   1.279  0.1850  0.7748 -0.2095
 1458TIP3   OH225864   0.013   2.686   5.499 -0.0463 -0.2596  0.3044
 1458TIP3    H125865   0.073   2.735   5.443  0.3800  1.0186  1.7840
 1458TIP3    H225866  -0.073   2.727   5.483  0.1073  0.2277  0.6704
 1459TIP3   OH225867   0.465   1.097  17.252 -0.0777 -0.0869  0.6632
 1459TIP3    H125868   0.400   1.166  17.252 -0.7031 -0.6628  0.9877
 1459TIP3    H225869   0.548   1.142  17.267 -0.4226  0.6261  0.4727
 1460TIP3   OH225870   2.830   3.136   1.880  0.2080  0.7775  0.0529
 1460TIP3    H125871   2.848   3.227   1.856 -1.2138  0.2370 -3.5709
 1460TIP3    H225872   2.736   3.125   1.866  0.8821 -2.1398 -3.5516
 1461TIP3   OH225873   5.199   6.416  17.294 -0.1187 -0.2838  0.1639
 1461TIP3    H125874   5.146   6.418  17.374 -0.8400  0.0737 -0.3102
 1461TIP3    H225875   5.140   6.380  17.227  0.5333 -0.7505 -0.1721
 1462TIP3   OH225876   3.555   5.099  14.722 -0.8172 -0.0150  0.4389
 1462TIP3    H125877   3.606   5.177  14.698 -0.9739  0.1859  0.7538
 1462TIP3    H225878   3.470   5.133  14.748 -1.0980 -0.3484 -0.0309
 1463TIP3   OH225879   6.378   1.516   2.787 -0.4402 -0.0861 -0.1124
 1463TIP3    H125880   6.334   1.478   2.711  0.3077  0.1018 -0.6509
 1463TIP3    H225881   6.469   1.526   2.759 -0.5205  1.6752  0.1619
 1464TIP3   OH225882   0.057   6.309  14.539 -0.0992 -0.0469  0.3276
 1464TIP3    H125883   0.045   6.399  14.568 -1.5455  0.2426 -1.0055
 1464TIP3    H225884   0.080   6.317  14.446 -0.7748 -1.0441  0.0577
 1465TIP3   OH225885   6.097   6.521  12.308  0.5147  0.0945 -0.3976
 1465TIP3    H125886   6.028   6.481  12.256  1.1631  0.6725 -1.7350
 1465TIP3    H225887   6.122   6.453  12.371  0.8349 -1.2377 -1.9144
 1466TIP3   OH225888   0.738   3.502   5.990  0.0728  0.3475 -0.4943
 1466TIP3    H125889   0.659   3.537   6.031  1.9352  2.6804  1.4455
 1466TIP3    H225890   0.750   3.555   5.911 -0.7749 -0.6991 -1.3601
 1467TIP3   OH225891   2.555   1.604  13.559 -0.3320 -0.0448 -0.5476
 1467TIP3    H125892   2.481   1.601  13.619 -0.1307  0.7097 -0.2585
 1467TIP3    H225893   2.633   1.608  13.615 -0.0281 -1.2898 -0.8399
 1468TIP3   OH225894   4.286   4.787  16.540 -0.0059  0.1242  0.1468
 1468TIP3    H125895   4.369   4.791  16.588 -0.2421  1.7733  0.5027
 1468TIP3    H225896   4.220   4.805  16.607 -0.4640  0.8712 -0.4920
 1469TIP3   OH225897   6.404   3.706  11.914 -0.3481  0.3970 -0.4536
 1469TIP3    H125898   6.445   3.765  11.850 -1.3935 -0.5914 -2.1086
 1469TIP3    H225899   6.313   3.736  11.919 -0.3939  0.1580  0.2344
 1470TIP3   OH225900   1.520   6.375  10.427  0.0353 -0.0284 -0.0639
 1470TIP3    H125901   1.499   6.295  10.379 -0.0956  0.1983 -0.3857
 1470TIP3    H225902   1.541   6.345  10.515  2.7650 -0.7259 -0.8719
 1471TIP3   OH225903   6.246   5.235  11.738  0.4633 -0.0050 -0.6856
 1471TIP3    H125904   6.326   5.198  11.701  0.8961  0.0517  0.1693
 1471TIP3    H225905   6.274   5.316  11.781 -0.1610  0.3520 -0.9310
 1472TIP3   OH225906   4.197   1.349  11.366 -0.1885  0.1569 -0.0066
 1472TIP3    H125907   4.211   1.444  11.374  0.5085  0.1849 -1.2343
 1472TIP3    H225908   4.118   1.341  11.312  1.2064  0.1059 -2.1670
 1473TIP3   OH225909   4.555   2.518   4.259 -0.4927 -0.5015  0.7413
 1473TIP3    H125910   4.518   2.533   4.346  2.6372 -0.2935  2.1477
 1473TIP3    H225911   4.592   2.602   4.233  0.4074 -1.0568  0.1499
 1474TIP3   OH225912   3.184   5.261  11.903 -0.0301 -0.0686 -0.5638
 1474TIP3    H125913   3.190   5.353  11.880  1.2739 -0.2817 -1.1405
 1474TIP3    H225914   3.250   5.218  11.850 -0.1120 -1.2377  0.2354
 1475TIP3   OH225915   2.406   4.867  12.134  0.4199  0.5038  0.0457
 1475TIP3    H125916   2.420   4.961  12.124  0.2308  0.5035 -0.2356
 1475TIP3    H225917   2.315   4.858  12.161  0.5621  0.4243  0.5088
 1476TIP3   OH225918   1.436   2.488   5.749  0.2934  0.4083 -0.1501
 1476TIP3    H125919   1.453   2.529   5.664  0.2757  1.2005  0.2203
 1476TIP3    H225920   1.522   2.486   5.792  0.0074  1.6038  0.5002
 1477TIP3   OH225921   6.440   2.937  12.438 -0.3531  0.4420  0.9700
 1477TIP3    H125922   6.399   2.853  12.417  0.4472 -0.0152  1.1432
 1477TIP3    H225923   6.453   2.979  12.354 -0.8275  0.4211  0.8871
 1478TIP3   OH225924   3.365   5.924  12.048 -0.3019  0.1006 -0.0842
 1478TIP3    H125925   3.302   5.995  12.051 -0.8878 -0.3509 -1.0327
 1478TIP3    H225926   3.376   5.906  11.954 -0.4294 -1.2685  0.1378
 1479TIP3   OH225927   5.066   6.490   1.338 -0.0322  0.2986  0.6806
 1479TIP3    H125928   4.973   6.509   1.324  0.0528 -0.4297 -1.1751
 1479TIP3    H225929   5.071   6.454   1.426 -1.1873  2.2474  1.6024
 1480TIP3   OH225930   6.643   3.693  15.397 -0.0887  0.0853  0.4871
 1480TIP3    H125931   6.642   3.749  15.319 -0.0378  0.5508  0.8172
 1480TIP3    H225932   6.602   3.746  15.465 -0.7266 -0.5617  0.6189
 1481TIP3   OH225933   4.940   4.129   6.076  0.0418 -0.4732  0.4323
 1481TIP3    H125934   4.870   4.158   6.134 -0.6130 -1.6777  0.2733
 1481TIP3    H225935   4.989   4.066   6.128 -0.7909 -1.8648 -0.4154
 1482TIP3   OH225936   3.174   6.619  14.388 -0.0130  0.3343 -0.2134
 1482TIP3    H125937   3.249   6.571  14.424 -2.4899 -2.6036  1.5833
 1482TIP3    H225938   3.177   6.600  14.294  1.5567  0.4685 -0.2257
 1483TIP3   OH225939   2.722   0.766  13.743 -0.1293 -1.0578  0.5388
 1483TIP3    H125940   2.755   0.719  13.667  0.5418 -1.5621  1.1344
 1483TIP3    H225941   2.693   0.850  13.708  0.5851 -1.1046 -0.1983
 1484TIP3   OH225942   1.829   6.389  13.378 -0.0231 -0.2250 -0.0703
 1484TIP3    H125943   1.914   6.432  13.382 -0.2829  0.2073  1.6679
 1484TIP3    H225944   1.766   6.459  13.398 -0.5029 -1.2247  2.2475
 1485TIP3   OH225945   4.776   4.125   3.711  0.6871 -0.4821  0.1238
 1485TIP3    H125946   4.721   4.195   3.676  0.6560 -1.1656 -1.2423
 1485TIP3    H225947   4.782   4.061   3.641  2.0670 -1.0976  0.7598
 1486TIP3   OH225948   5.822   1.378  15.355  0.1432  0.4440 -0.0553
 1486TIP3    H125949   5.787   1.386  15.444  1.0118 -2.1730  0.6159
 1486TIP3    H225950   5.917   1.385  15.366  0.3141 -0.7901 -0.6368
 1487TIP3   OH225951   0.548   0.301  13.596 -0.3777 -0.3067 -0.1059
 1487TIP3    H125952   0.560   0.380  13.648  1.2925 -1.8666  2.0665
 1487TIP3    H225953   0.456   0.303  13.570 -0.2566  2.5780 -0.6661
 1488TIP3   OH225954   5.052   3.338   6.262  0.0909  0.4296 -0.2782
 1488TIP3    H125955   4.960   3.364   6.257 -0.0457  0.4335  1.5861
 1488TIP3    H225956   5.053   3.263   6.322  1.5054  1.5834  1.2302
 1489TIP3   OH225957   1.706   5.647  15.527  0.0848  0.1298  0.0478
 1489TIP3    H125958   1.730   5.734  15.496 -1.0762  0.5210  0.2113
 1489TIP3    H225959   1.719   5.651  15.622  0.2435  0.0485  0.0306
 1490TIP3   OH225960   3.410   0.880  12.878 -0.5129 -0.2015 -0.1763
 1490TIP3    H125961   3.405   0.788  12.905 -0.6479 -0.1259  0.0569
 1490TIP3    H225962   3.456   0.878  12.794  0.4820 -0.3932  0.3584
 1491TIP3   OH225963   6.113   6.295  13.207  0.4990  0.2749 -0.1259
 1491TIP3    H125964   6.044   6.317  13.145  0.3977  0.1763 -0.0492
 1491TIP3    H225965   6.096   6.203  13.230  0.4893  0.3341  0.1066
 1492TIP3   OH225966   1.486   3.243  15.332 -0.6819 -0.6185 -0.2019
 1492TIP3    H125967   1.412   3.254  15.391  0.4110 -0.0288  1.1087
 1492TIP3    H225968   1.481   3.320  15.274 -0.6755 -0.1760  0.3727
 1493TIP3   OH225969   0.772   0.722   4.504  0.0257 -0.0354 -0.2378
 1493TIP3    H125970   0.760   0.709   4.598 -1.1991 -0.4179 -0.4273
 1493TIP3    H225971   0.725   0.802   4.484  0.2881  0.0489 -0.5291
 1494TIP3   OH225972   0.189   3.872   5.024  0.4882 -0.6516 -0.3194
 1494TIP3    H125973   0.137   3.800   5.060  0.1529 -0.5477 -0.5910
 1494TIP3    H225974   0.280   3.845   5.037  0.3808 -0.4276  0.9971
 1495TIP3   OH225975   5.561   5.401   2.839  0.6872  0.1042  0.5344
 1495TIP3    H125976   5.471   5.385   2.811  0.6032 -1.7413  1.6835
 1495TIP3    H225977   5.555   5.409   2.935  1.9546 -2.3693  0.9210
 1496TIP3   OH225978   4.693   3.151   2.214  0.1882  0.1143  0.0140
 1496TIP3    H125979   4.746   3.220   2.255 -0.9528  0.4043  1.0367
 1496TIP3    H225980   4.666   3.189   2.131  1.7322 -0.1184 -0.6320
 1497TIP3   OH225981   4.727   3.862  11.823  0.6317 -0.5911  0.2320
 1497TIP3    H125982   4.654   3.898  11.772  0.5114 -0.0886  0.7552
 1497TIP3    H225983   4.684   3.805  11.888  0.6335  0.3419  1.0732
 1498TIP3   OH225984   5.372   6.478   5.535 -0.2038 -0.0798 -0.1661
 1498TIP3    H125985   5.440   6.492   5.601  0.6527  1.3322 -1.2720
 1498TIP3    H225986   5.289   6.491   5.583  0.4083  1.8203  0.4969
 1499TIP3   OH225987   2.765   4.929  15.085  0.7973 -0.0848 -0.9686
 1499TIP3    H125988   2.857   4.911  15.064  0.2493 -1.9421 -1.9994
 1499TIP3    H225989   2.746   4.869  15.157  0.8633  1.6544  0.5784
 1500TIP3   OH225990   6.085   5.810   2.370  0.1225 -0.4535 -0.1623
 1500TIP3    H125991   6.045   5.884   2.415  1.0776 -0.5274  0.8415
 1500TIP3    H225992   6.094   5.840   2.279 -1.2679 -0.0812 -0.1975
 1501TIP3   OH225993   4.953   0.500   4.521 -0.2053 -0.3814 -0.8429
 1501TIP3    H125994   4.970   0.502   4.615 -2.8344  1.1382 -0.3039
 1501TIP3    H225995   5.034   0.534   4.482 -0.2454  2.4240  1.1644
 1502TIP3   OH225996   0.568   5.863   4.897  0.4734  0.2427 -0.0306
 1502TIP3    H125997   0.577   5.807   4.820  1.2744 -0.1606  0.3484
 1502TIP3    H225998   0.483   5.906   4.885  0.8516  0.6568 -1.4397
 1503TIP3   OH225999   4.781   4.462   3.426 -0.0259 -0.5716  0.0039
 1503TIP3    H126000   4.856   4.478   3.370 -1.4684 -0.9944 -2.1834
 1503TIP3    H226001   4.705   4.484   3.371 -1.5174  2.6374  2.9941
 1504TIP3   OH226002   6.419   6.387  10.362  0.3020 -0.2321  0.1488
 1504TIP3    H126003   6.515   6.389  10.363  0.3995 -2.3705  1.0055
 1504TIP3    H226004   6.397   6.313  10.305 -0.7706 -0.7797  1.2152
 1505TIP3   OH226005   4.039   0.681   5.583 -0.3765 -0.0728  0.3676
 1505TIP3    H126006   3.949   0.654   5.600 -0.5963 -0.1863 -0.9345
 1505TIP3    H226007   4.071   0.710   5.669 -1.1310 -1.5243  1.1815
 1506TIP3   OH226008   5.694   3.711  15.799 -0.0459 -0.0702  0.3504
 1506TIP3    H126009   5.761   3.763  15.844 -0.0086  0.7985 -0.6994
 1506TIP3    H226010   5.618   3.768  15.793 -0.0678 -0.1898 -0.6461
 1507TIP3   OH226011   3.004   6.308  13.036 -0.1931  0.3623  0.3510
 1507TIP3    H126012   2.949   6.230  13.041 -0.9978  1.0084  2.6530
 1507TIP3    H226013   2.981   6.347  12.952 -1.1948 -0.8509  0.0225
 1508TIP3   OH226014   1.296   6.111   5.558 -0.2499  0.2132  0.2024
 1508TIP3    H126015   1.278   6.164   5.480  1.9100 -0.9221 -1.1640
 1508TIP3    H226016   1.367   6.156   5.603 -0.9841  0.4573  1.1605
 1509TIP3   OH226017   1.036   6.552   0.175  0.2212  0.6899  0.0283
 1509TIP3    H126018   0.970   6.529   0.240  0.5627  2.7742  1.2188
 1509TIP3    H226019   0.988   6.562   0.093 -0.5473 -0.0098  0.3878
 1510TIP3   OH226020   4.006   5.292  11.807 -0.2801  0.2893  0.2613
 1510TIP3    H126021   4.099   5.273  11.795 -0.4302 -0.2478 -0.1297
 1510TIP3    H226022   3.977   5.228  11.871 -1.0983 -1.8731 -2.0897
 1511TIP3   OH226023   3.549   0.842  12.645 -0.6401 -0.7774  0.3970
 1511TIP3    H126024   3.615   0.772  12.644  2.2798  1.7612 -0.7966
 1511TIP3    H226025   3.575   0.900  12.573 -0.5531  3.4835  3.4776
 1512TIP3   OH226026   4.972   5.136   1.014  0.3221  0.5789  0.1256
 1512TIP3    H126027   4.967   5.057   0.960  0.3721  1.8267 -1.8091
 1512TIP3    H226028   5.061   5.169   1.001  0.4800  0.6707  1.3529
 1513TIP3   OH226029   4.756   6.455   6.230 -0.1745 -0.1218 -0.0651
 1513TIP3    H126030   4.703   6.534   6.221 -1.2795 -0.9506 -1.3366
 1513TIP3    H226031   4.722   6.396   6.162  0.1731 -1.9220  1.2467
 1514TIP3   OH226032   6.800   3.464   0.749  0.0053 -0.2214 -0.6966
 1514TIP3    H126033   6.715   3.421   0.744 -0.8267  1.1738  0.3808
 1514TIP3    H226034   6.859   3.396   0.780 -0.7958 -1.1238 -1.0833
 1515TIP3   OH226035   0.546   4.587   3.277 -0.5849  0.1352 -0.1332
 1515TIP3    H126036   0.460   4.548   3.264 -1.0054  0.4097  1.5347
 1515TIP3    H226037   0.534   4.680   3.257 -0.4648  0.0337 -0.6884
 1516TIP3   OH226038   4.202   3.898   4.250  0.4442 -0.1953  0.4326
 1516TIP3    H126039   4.258   3.970   4.279 -1.4983  1.9230 -0.6895
 1516TIP3    H226040   4.224   3.886   4.158  1.2375 -1.5570  0.7850
 1517TIP3   OH226041   1.372   3.133   6.432 -0.0616  0.1903  0.8618
 1517TIP3    H126042   1.372   3.081   6.512  2.0925  1.0532  1.5192
 1517TIP3    H226043   1.418   3.214   6.457 -2.3231  1.9765 -0.3894
 1518TIP3   OH226044   5.527   6.343   2.201  0.5946 -0.1233 -0.1447
 1518TIP3    H126045   5.463   6.280   2.167 -0.9193  1.2508  0.0585
 1518TIP3    H226046   5.570   6.377   2.122 -2.1142  2.2128 -0.7705
 1519TIP3   OH226047   1.075   6.042  17.197 -0.3308  0.5463 -0.0795
 1519TIP3    H126048   1.018   6.011  17.268  0.5319  3.9909  2.4085
 1519TIP3    H226049   1.163   6.041  17.236  0.5517  0.2938 -1.9895
 1520TIP3   OH226050   3.806   5.305   5.581  0.4733  0.4053  0.0261
 1520TIP3    H126051   3.752   5.384   5.579  1.0986  0.9932  2.6732
 1520TIP3    H226052   3.872   5.319   5.513 -1.2242  0.7336 -1.6403
 1521TIP3   OH226053   2.602   2.258  16.101 -0.0551 -0.1785  0.0795
 1521TIP3    H126054   2.596   2.311  16.022 -0.2873  1.9908  1.4947
 1521TIP3    H226055   2.691   2.274  16.134 -0.2161 -0.4589  0.6625
 1522TIP3   OH226056   1.151   2.778  15.251  0.0813 -0.3955 -0.0748
 1522TIP3    H126057   1.196   2.828  15.318 -2.3151 -1.1587  2.2869
 1522TIP3    H226058   1.213   2.710  15.225  0.7849 -0.6289  2.0617
 1523TIP3   OH226059   2.497   2.705   4.821 -0.1342 -0.8970  0.9861
 1523TIP3    H126060   2.480   2.765   4.894 -2.8889 -0.5403  0.1659
 1523TIP3    H226061   2.542   2.759   4.756  0.4330 -0.6607  1.5559
 1524TIP3   OH226062   4.805   3.933  10.750  0.1450  0.5406 -0.1174
 1524TIP3    H126063   4.827   3.873  10.822 -0.8670  1.5456  1.0894
 1524TIP3    H226064   4.840   4.018  10.777  0.5304  0.7608 -1.2466
 1525TIP3   OH226065   3.979   6.148  15.835 -0.3590  0.3621 -0.1268
 1525TIP3    H126066   4.018   6.146  15.747 -0.4870  0.9434 -0.1984
 1525TIP3    H226067   3.896   6.101  15.826 -0.8736  1.3460 -0.5631
 1526TIP3   OH226068   0.203   5.567  11.844  0.4420  0.5763 -0.1674
 1526TIP3    H126069   0.279   5.546  11.898 -0.4488 -2.2667  0.1543
 1526TIP3    H226070   0.182   5.658  11.867  0.9830 -0.0092  3.2436
 1527TIP3   OH226071   2.871   4.978  11.190 -0.0082 -0.7535  0.5168
 1527TIP3    H126072   2.846   4.889  11.166  1.8610 -1.2190  0.1812
 1527TIP3    H226073   2.963   4.972  11.214  0.6325  1.3301 -1.0571
 1528TIP3   OH226074   5.299   1.820   1.126 -0.0289  0.3357  0.1160
 1528TIP3    H126075   5.324   1.766   1.051 -3.2987 -0.6558 -0.3953
 1528TIP3    H226076   5.380   1.866   1.150  0.9946  1.4354 -4.5321
 1529TIP3   OH226077   1.628   5.897  17.273  0.4125 -0.2639  0.6503
 1529TIP3    H126078   1.593   5.984  17.252 -1.3097 -0.8975  0.7136
 1529TIP3    H226079   1.714   5.895  17.232  0.9707  1.8707  1.5754
 1530TIP3   OH226080   6.109   3.545  14.497  0.5485  0.4257  0.6162
 1530TIP3    H126081   6.166   3.576  14.427 -2.3301  0.1662 -2.0643
 1530TIP3    H226082   6.099   3.451  14.480  0.7616  0.0782  2.1951
 1531TIP3   OH226083   4.428   2.291   3.800 -0.4872  0.5662  0.1391
 1531TIP3    H126084   4.440   2.242   3.882 -0.8144 -1.3422 -0.9042
 1531TIP3    H226085   4.353   2.250   3.758  1.0359 -0.0453 -2.1785
 1532TIP3   OH226086   6.430   0.302   6.066 -0.2604 -0.1651 -0.4972
 1532TIP3    H126087   6.390   0.373   6.116  1.1212  1.1047 -1.1248
 1532TIP3    H226088   6.434   0.229   6.128  0.3862  1.0134  0.9009
 1533TIP3   OH226089   4.885   4.934   1.572 -0.5317 -0.5117  0.1142
 1533TIP3    H126090   4.885   4.999   1.642  0.6211  0.0953 -0.4218
 1533TIP3    H226091   4.978   4.919   1.554 -0.7729  0.5013 -2.3257
 1534TIP3   OH226092   4.997   5.747   2.099 -0.5812 -0.0721  0.0298
 1534TIP3    H126093   5.063   5.726   2.032  1.0832  0.6402  1.3798
 1534TIP3    H226094   4.978   5.662   2.140 -1.2944 -0.4454 -1.0217
 1535TIP3   OH226095   0.565   3.662   4.237  0.2534  0.3435 -0.6920
 1535TIP3    H126096   0.515   3.622   4.166 -0.3707 -0.7258  0.3199
 1535TIP3    H226097   0.640   3.703   4.194  0.2665 -0.8874 -1.8818
 1536TIP3   OH226098   4.103   0.737   1.389  0.1756  0.3192  0.2133
 1536TIP3    H126099   4.062   0.666   1.340 -1.9684  0.8105  1.1816
 1536TIP3    H226100   4.174   0.768   1.332  1.9296 -3.2227  0.2108
 1537TIP3   OH226101   1.263   3.491  12.458  0.2523  0.0383 -0.2736
 1537TIP3    H126102   1.356   3.466  12.459  0.0813 -0.7961 -1.6841
 1537TIP3    H226103   1.216   3.408  12.452 -0.5345  0.4999 -0.7007
 1538TIP3   OH226104   4.380   4.715  15.874  0.2532 -0.6405  0.8206
 1538TIP3    H126105   4.345   4.770  15.943  2.0175 -0.0543  1.3151
 1538TIP3    H226106   4.311   4.711  15.808 -1.3807 -1.0376  2.4990
 1539TIP3   OH226107   0.162   6.750   1.973 -0.0104  0.1539 -0.0729
 1539TIP3    H126108   0.091   6.697   1.937 -0.6135  0.3796  0.7615
 1539TIP3    H226109   0.190   6.806   1.900  0.7212 -1.3673 -1.0091
 1540TIP3   OH226110   3.852   6.332  14.844 -0.1261  0.1487 -0.0372
 1540TIP3    H126111   3.801   6.393  14.791 -1.0436  0.0769  0.7527
 1540TIP3    H226112   3.788   6.289  14.900  0.1883 -2.8061 -1.7182
 1541TIP3   OH226113   1.844   0.293  13.190 -0.2735  0.0398 -0.9960
 1541TIP3    H126114   1.933   0.257  13.193 -0.1495  0.3794 -0.1711
 1541TIP3    H226115   1.854   0.377  13.146 -0.1243  0.2290 -0.6065
 1542TIP3   OH226116   2.640   2.481   5.604  0.4266  0.1907 -0.2448
 1542TIP3    H126117   2.621   2.478   5.698  0.3008  0.0457 -0.2742
 1542TIP3    H226118   2.668   2.392   5.582  1.3609  0.4547 -0.1610
 1543TIP3   OH226119   4.760   3.270  13.582 -0.1423 -0.0304 -0.1312
 1543TIP3    H126120   4.724   3.269  13.671 -1.2714  1.0773 -0.5350
 1543TIP3    H226121   4.835   3.329  13.587 -0.8428  0.8868 -0.1140
 1544TIP3   OH226122   0.683   4.677  15.866 -0.3177  0.2043 -0.0143
 1544TIP3    H126123   0.713   4.662  15.776  1.2139  2.6789 -0.0044
 1544TIP3    H226124   0.624   4.752  15.859 -0.3738  0.2692  1.0364
 1545TIP3   OH226125   0.514   2.504  14.282 -0.0880  0.9473 -0.0583
 1545TIP3    H126126   0.580   2.474  14.344  1.5473 -1.5934 -2.7533
 1545TIP3    H226127   0.559   2.571  14.229 -0.1246  0.2751 -0.9627
 1546TIP3   OH226128   6.355   6.445  15.574 -0.3574  0.4333  0.4103
 1546TIP3    H126129   6.344   6.490  15.491 -1.5858  0.3835  0.5266
 1546TIP3    H226130   6.351   6.352  15.551  1.0789  0.3642  0.3159
 1547TIP3   OH226131   2.800   3.174   6.082  0.7037 -0.3625  0.2993
 1547TIP3    H126132   2.852   3.137   6.154  0.8195  1.5855  1.2740
 1547TIP3    H226133   2.847   3.253   6.057 -1.3718  1.0872  0.7477
 1548TIP3   OH226134   6.249   5.789  11.114  0.2752 -0.0682  0.0911
 1548TIP3    H126135   6.219   5.705  11.149 -0.2998  0.4421  0.8592
 1548TIP3    H226136   6.172   5.827  11.073  0.6793 -0.1625 -0.7873
 1549TIP3   OH226137   5.410   0.328  15.841 -0.0315 -0.4273 -0.0385
 1549TIP3    H126138   5.340   0.324  15.906  0.0389  0.7139  0.1289
 1549TIP3    H226139   5.471   0.260  15.868  0.9571  1.2194  2.2715
 1550TIP3   OH226140   5.240   5.253  15.015 -0.2252  0.3119 -0.8744
 1550TIP3    H126141   5.237   5.315  15.088 -0.8307  0.2807 -0.8702
 1550TIP3    H226142   5.309   5.287  14.958 -0.7770  1.1779 -1.0395
 1551TIP3   OH226143   4.220   4.295  14.405  0.0184 -0.6105  0.2426
 1551TIP3    H126144   4.222   4.205  14.435  1.6327 -1.0749 -1.1259
 1551TIP3    H226145   4.306   4.330  14.426  0.0471  0.0445 -0.8679
 1552TIP3   OH226146   2.635   2.527  16.948 -0.3668 -0.1759  0.0573
 1552TIP3    H126147   2.624   2.515  17.042 -0.2267 -0.7093  0.0122
 1552TIP3    H226148   2.571   2.468  16.909 -0.4328  0.0530 -0.1792
 1553TIP3   OH226149   4.530   1.410   2.733  0.3881 -0.0227  0.0586
 1553TIP3    H126150   4.436   1.427   2.738  0.5600  0.6984  1.3398
 1553TIP3    H226151   4.569   1.497   2.720  0.8846 -0.3002 -0.3287
 1554TIP3   OH226152   0.168   0.730   1.871 -0.3750  0.3206  0.1116
 1554TIP3    H126153   0.234   0.666   1.898  0.4410  0.8932 -0.4664
 1554TIP3    H226154   0.168   0.795   1.942 -2.0762 -0.9083  1.2975
 1555TIP3   OH226155   2.333   0.532  16.365 -0.5494  0.3477  0.4622
 1555TIP3    H126156   2.335   0.590  16.289 -1.2727 -0.7395 -0.4294
 1555TIP3    H226157   2.368   0.584  16.437  1.1723  1.0816 -0.8395
 1556TIP3   OH226158   2.742   3.622   3.762 -0.3902  0.2755  0.1958
 1556TIP3    H126159   2.828   3.645   3.797 -0.2554  0.0259  0.0345
 1556TIP3    H226160   2.739   3.663   3.676 -0.0493 -0.4978 -0.1969
 1557TIP3   OH226161   5.638   3.099  11.777 -0.1841  0.5501  0.6598
 1557TIP3    H126162   5.646   3.144  11.693  0.3745 -0.2600  0.2641
 1557TIP3    H226163   5.710   3.036  11.778 -1.1747 -0.6172  1.0195
 1558TIP3   OH226164   6.397   4.855   1.321 -0.0635  0.1938 -0.5307
 1558TIP3    H126165   6.345   4.883   1.245  0.2859  1.4942 -0.3127
 1558TIP3    H226166   6.406   4.934   1.374 -1.6280 -1.0336  1.6976
 1559TIP3   OH226167   6.455   0.353  16.057 -0.2913 -0.2474  0.1644
 1559TIP3    H126168   6.483   0.416  15.989 -2.3880  0.0246 -0.5200
 1559TIP3    H226169   6.389   0.299  16.014 -2.8071  0.8755  2.3192
 1560TIP3   OH226170   3.115   4.026   5.660  0.3409 -0.2380  0.1959
 1560TIP3    H126171   3.084   3.956   5.601 -0.0767  0.1154 -0.0083
 1560TIP3    H226172   3.035   4.064   5.695  0.5835 -0.2273  0.7450
 1561TIP3   OH226173   0.206   6.621   0.087  0.3356  0.2548 -0.4618
 1561TIP3    H126174   0.233   6.681   0.157  0.7266 -1.1964  0.6893
 1561TIP3    H226175   0.276   6.627   0.022  0.5151  0.8314 -0.2207
 1562TIP3   OH226176   3.952   4.260  14.417  0.2007  0.0877  0.5945
 1562TIP3    H126177   3.913   4.276  14.331 -0.7845 -2.2730  0.5217
 1562TIP3    H226178   4.041   4.294  14.410  0.2105 -0.2230 -1.4246
 1563TIP3   OH226179   5.319   3.713  12.965  0.2257 -0.2766 -0.6112
 1563TIP3    H126180   5.272   3.633  12.987  0.9799 -0.0181  2.3367
 1563TIP3    H226181   5.253   3.782  12.972 -0.2811 -0.4974 -2.5603
 1564TIP3   OH226182   3.131   1.441   3.699  0.3954  0.4441  0.2209
 1564TIP3    H126183   3.196   1.383   3.659 -1.5415 -0.7019 -1.4834
 1564TIP3    H226184   3.097   1.391   3.773  0.4062  0.3987  0.1957
 1565TIP3   OH226185   6.100   2.715  17.245  0.4009 -0.5613  0.8683
 1565TIP3    H126186   6.048   2.775  17.192 -2.5275 -1.8184  2.0767
 1565TIP3    H226187   6.136   2.770  17.315 -0.8955  0.0733  1.0602
 1566TIP3   OH226188   4.244   0.602   4.778 -0.1221  0.7574 -0.0729
 1566TIP3    H126189   4.210   0.623   4.865  0.3511  2.5167 -0.2800
 1566TIP3    H226190   4.258   0.508   4.780 -0.7379  0.6694  1.5286
 1567TIP3   OH226191   3.851   4.359  12.126  0.2330  0.3325 -0.4567
 1567TIP3    H126192   3.798   4.358  12.046  0.3655 -0.8912 -0.5512
 1567TIP3    H226193   3.916   4.427  12.112  0.3404  0.0311 -1.4557
 1568TIP3   OH226194   5.781   1.858  15.575  0.0796 -0.0110 -0.3391
 1568TIP3    H126195   5.711   1.922  15.565  0.0682 -0.0896 -0.7837
 1568TIP3    H226196   5.815   1.844  15.486 -1.1208 -1.9564 -0.5607
 1569TIP3   OH226197   2.235   0.632   2.797  0.0932  0.3884  0.6684
 1569TIP3    H126198   2.263   0.563   2.856 -1.5288 -1.2804 -0.3937
 1569TIP3    H226199   2.140   0.638   2.811 -0.1617  0.6935 -0.9878
 1570TIP3   OH226200   5.247   4.842   5.486  0.1690  0.2587  0.2904
 1570TIP3    H126201   5.235   4.888   5.403  3.2373  2.8015  1.0636
 1570TIP3    H226202   5.223   4.906   5.553 -0.7441 -1.2119  1.4528
 1571TIP3   OH226203   3.029   3.435  16.715  0.5631  0.1079  0.1007
 1571TIP3    H126204   2.972   3.485  16.656 -1.0109  1.1758  2.3874
 1571TIP3    H226205   3.078   3.376  16.657 -1.1650  0.8047 -2.2057
 1572TIP3   OH226206   2.522   6.504  11.243  0.0454  0.2874  0.3111
 1572TIP3    H126207   2.561   6.514  11.156 -0.5962  2.7133  0.2275
 1572TIP3    H226208   2.536   6.589  11.286 -1.2959 -0.2329  1.8859
 1573TIP3   OH226209   4.481   1.901  15.900 -0.1961 -0.3381  0.3726
 1573TIP3    H126210   4.543   1.828  15.906  1.3321  0.8388 -0.3912
 1573TIP3    H226211   4.411   1.878  15.961  0.9928 -1.7292  1.2860
 1574TIP3   OH226212   5.974   4.674   4.674  0.0613  0.4642 -0.4306
 1574TIP3    H126213   6.056   4.661   4.627  0.3211 -1.0568  0.3984
 1574TIP3    H226214   5.998   4.668   4.766 -1.2964 -2.5800 -0.1482
 1575TIP3   OH226215   6.205   2.451  16.767  0.1757 -0.1823  0.2914
 1575TIP3    H126216   6.240   2.378  16.716  0.0788  0.5357 -0.8511
 1575TIP3    H226217   6.275   2.517  16.765 -0.7368  0.7802 -0.9628
 1576TIP3   OH226218   0.899   2.896  15.909 -0.2960  0.4038 -0.1447
 1576TIP3    H126219   0.914   2.933  15.822  0.0107 -0.0404 -0.2868
 1576TIP3    H226220   0.865   2.808  15.892  4.5687 -1.8497  0.0194
 1577TIP3   OH226221   5.476   6.393   0.948  0.0647 -0.2133 -0.1029
 1577TIP3    H126222   5.539   6.464   0.932 -0.7723  0.5376 -0.1510
 1577TIP3    H226223   5.490   6.370   1.040  1.0650 -0.7242 -0.3673
 1578TIP3   OH226224   4.627   6.551   1.030  0.0554 -0.2292  0.0101
 1578TIP3    H126225   4.560   6.513   0.974 -0.2281 -0.9824  0.8243
 1578TIP3    H226226   4.709   6.537   0.983  0.0247 -2.3212  0.4491
 1579TIP3   OH226227   5.942   0.561  15.415  0.8255 -0.2967 -0.2030
 1579TIP3    H126228   5.913   0.473  15.394  1.0701  0.0737 -2.3416
 1579TIP3    H226229   5.906   0.579  15.502  2.2831 -3.1204  1.1085
 1580TIP3   OH226230   5.478   2.236  15.728  0.0192 -0.3558 -0.1814
 1580TIP3    H126231   5.513   2.270  15.646 -0.6937 -1.2510 -0.8839
 1580TIP3    H226232   5.554   2.201  15.774  0.8246  2.3413  0.7015
 1581TIP3   OH226233   2.030   4.994  12.987  0.7345  0.2506 -0.2946
 1581TIP3    H126234   1.992   5.021  13.071 -0.1025 -0.7116 -0.3546
 1581TIP3    H226235   1.977   5.040  12.922  1.4273  1.0506 -0.3133
 1582TIP3   OH226236   1.698   5.299   0.990 -0.6595 -0.4948 -0.1200
 1582TIP3    H126237   1.680   5.228   1.052 -0.1371 -1.7439 -1.3438
 1582TIP3    H226238   1.612   5.337   0.971 -0.8178 -0.0346  1.3967
 1583TIP3   OH226239   2.065   3.409  14.332 -0.4467  0.1238  0.6329
 1583TIP3    H126240   2.104   3.495  14.320  0.8859 -0.2487  1.9434
 1583TIP3    H226241   1.970   3.425  14.333 -0.2235  1.5421  0.7771
 1584TIP3   OH226242   6.351   3.618  15.663 -0.2495  0.6133 -0.0513
 1584TIP3    H126243   6.330   3.568  15.584  2.1185 -0.3922 -0.1254
 1584TIP3    H226244   6.361   3.552  15.732  1.5893  1.0583  0.1570
 1585TIP3   OH226245   1.032   6.034   4.580 -0.2513  0.0109  0.2835
 1585TIP3    H126246   1.073   5.955   4.546 -2.6639 -1.3351  0.2390
 1585TIP3    H226247   0.952   6.002   4.623 -2.3052  2.5582 -1.3656
 1586TIP3   OH226248   5.340   5.442  16.424  0.1116 -0.2537 -0.6626
 1586TIP3    H126249   5.364   5.493  16.501  0.9656 -1.2087 -0.2661
 1586TIP3    H226250   5.293   5.367  16.460  0.6851 -0.8046 -1.0436
 1587TIP3   OH226251   0.433   3.049   1.078 -0.8411  0.1021 -0.5190
 1587TIP3    H126252   0.348   3.056   1.122 -1.2410  1.9305 -1.4883
 1587TIP3    H226253   0.497   3.067   1.147 -1.1169 -2.2235  0.4408
 1588TIP3   OH226254   3.201   5.646  13.118 -0.1589 -0.0529 -0.1539
 1588TIP3    H126255   3.106   5.652  13.124 -0.2499  0.6432 -1.8566
 1588TIP3    H226256   3.226   5.588  13.190 -1.6097  1.8878  2.0792
 1589TIP3   OH226257   1.223   4.207   4.896  0.2352  0.4308  0.6128
 1589TIP3    H126258   1.298   4.266   4.887 -0.7636  1.5260 -1.0546
 1589TIP3    H226259   1.150   4.256   4.860 -1.3360 -0.5783  2.2746
 1590TIP3   OH226260   4.557   1.497   3.340 -0.3919 -0.1363  0.0853
 1590TIP3    H126261   4.564   1.464   3.250  0.5176  0.2521 -0.0031
 1590TIP3    H226262   4.646   1.489   3.375 -0.2510  1.6323  0.2528
 1591TIP3   OH226263   3.720   3.627   1.791 -0.1775 -0.3457 -0.4949
 1591TIP3    H126264   3.814   3.646   1.793 -0.1307 -0.4705 -1.2793
 1591TIP3    H226265   3.678   3.713   1.792 -0.0215 -0.2525 -1.4806
 1592TIP3   OH226266   5.898   3.825  12.494  0.7343  0.2717 -0.6163
 1592TIP3    H126267   5.862   3.909  12.525  0.7980 -0.3113  1.1474
 1592TIP3    H226268   5.986   3.822  12.532  0.8886 -0.4001 -1.0248
 1593TIP3   OH226269   3.779   1.197  12.821  0.0784  0.5429  0.1425
 1593TIP3    H126270   3.703   1.166  12.771 -0.4734 -0.7260  1.6779
 1593TIP3    H226271   3.837   1.236  12.755 -1.1890  0.1157 -1.2858
 1594TIP3   OH226272   1.895   5.082  15.683 -0.0087 -0.2427 -0.0539
 1594TIP3    H126273   1.802   5.097  15.665  0.8240  1.6706 -3.8243
 1594TIP3    H226274   1.936   5.166  15.664  2.5243 -0.8955  2.0062
 1595TIP3   OH226275   2.993   3.613  13.345 -0.4375 -0.4059  0.3496
 1595TIP3    H126276   2.991   3.521  13.372 -0.8033 -0.8429 -1.0916
 1595TIP3    H226277   3.054   3.615  13.272  3.0553  1.3204  2.9906
 1596TIP3   OH226278   6.596   4.107   4.256  0.5100 -0.1440  0.6677
 1596TIP3    H126279   6.539   4.123   4.331 -0.5552  0.2416 -0.1872
 1596TIP3    H226280   6.577   4.017   4.230  0.5691 -0.1380  0.6037
 1597TIP3   OH226281   6.608   3.385  13.175 -0.6307  0.2853 -0.5524
 1597TIP3    H126282   6.642   3.442  13.106  2.2311  0.0521  0.5292
 1597TIP3    H226283   6.584   3.445  13.246  1.2960  0.3113  0.1425
 1598TIP3   OH226284   1.926   4.929   4.434 -0.4304  0.5663 -0.0479
 1598TIP3    H126285   1.835   4.922   4.463 -0.4189 -0.8401 -0.2486
 1598TIP3    H226286   1.978   4.905   4.512 -0.2483  0.9224 -0.0586
 1599TIP3   OH226287   0.615   5.967  13.076  0.1847 -0.0362  0.0055
 1599TIP3    H126288   0.545   5.940  13.135 -0.3808  0.4369 -0.4376
 1599TIP3    H226289   0.598   6.060  13.059  1.2730  0.2442  0.3747
 1600TIP3   OH226290   1.573   5.655  12.027  0.0844  0.1886  0.0209
 1600TIP3    H126291   1.559   5.561  12.042  1.4200  0.1742  1.4615
 1600TIP3    H226292   1.662   5.659  11.990  0.6051  0.9571  1.2972
 1601TIP3   OH226293   5.412   4.721  11.355  0.4368  0.5720 -0.1622
 1601TIP3    H126294   5.388   4.628  11.350 -3.5356  1.3168  0.9778
 1601TIP3    H226295   5.397   4.754  11.266 -2.6811  0.8327  0.3296
 1602TIP3   OH226296   1.394   1.322   6.447  0.6061  0.6950  0.1751
 1602TIP3    H126297   1.313   1.276   6.469  0.2298  0.8114 -0.9048
 1602TIP3    H226298   1.462   1.255   6.451  0.2864  0.3627  0.0676
 1603TIP3   OH226299   3.532   2.728   3.121 -0.6116 -0.0381  0.0222
 1603TIP3    H126300   3.511   2.640   3.155  0.7485 -1.5357 -2.7240
 1603TIP3    H226301   3.624   2.723   3.096  0.0222  2.8054  1.4028
 1604TIP3   OH226302   6.133   4.000   5.776  0.3358  0.4861  0.1053
 1604TIP3    H126303   6.162   3.913   5.749 -0.3774 -0.3251  1.8006
 1604TIP3    H226304   6.175   4.060   5.714  1.0531 -1.0276 -0.9366
 1605TIP3   OH226305   5.861   4.023  15.693 -0.1073 -0.0175 -0.3679
 1605TIP3    H126306   5.848   4.108  15.736  0.4228  0.6291 -1.4255
 1605TIP3    H226307   5.778   4.007  15.648  0.2650  0.6616 -1.3381
 1606TIP3   OH226308   5.193   1.998   6.293  0.0560  0.0260  0.2659
 1606TIP3    H126309   5.165   1.907   6.304  2.4507 -0.9296 -0.8999
 1606TIP3    H226310   5.132   2.048   6.348 -1.4682 -2.2184  0.7807
 1607TIP3   OH226311   2.173   5.784   3.889 -0.6876  0.1880 -0.4163
 1607TIP3    H126312   2.143   5.759   3.802 -0.5096 -0.7992 -0.2014
 1607TIP3    H226313   2.092   5.794   3.940 -0.7500 -0.3767 -0.3967
 1608TIP3   OH226314   1.662   1.065   5.785  0.2445  0.2454  0.6353
 1608TIP3    H126315   1.698   1.036   5.868 -0.1990  0.0047  0.7460
 1608TIP3    H226316   1.622   0.987   5.747  1.9985 -0.0947 -0.6575
 1609TIP3   OH226317   1.374   0.524   5.369  0.3154 -0.4048  0.0754
 1609TIP3    H126318   1.409   0.437   5.389 -0.6333 -1.1877 -1.5455
 1609TIP3    H226319   1.373   0.569   5.454 -0.1509 -2.3256  1.1438
 1610TIP3   OH226320   3.536   1.801  11.273 -0.1741 -0.1358  0.2817
 1610TIP3    H126321   3.545   1.846  11.190 -2.1901  1.0524  0.6419
 1610TIP3    H226322   3.567   1.712  11.256 -0.0474  0.2264 -1.5649
 1611TIP3   OH226323   4.730   1.076   5.294 -0.4067  0.0512 -0.4208
 1611TIP3    H126324   4.753   1.049   5.205 -3.2931 -1.7852 -0.7645
 1611TIP3    H226325   4.698   0.995   5.335 -3.3353  1.6835  0.7748
 1612TIP3   OH226326   6.638   1.538   5.442  0.5322  0.1094 -0.6120
 1612TIP3    H126327   6.595   1.623   5.449  1.4257  0.6175 -1.0404
 1612TIP3    H226328   6.598   1.498   5.364  0.9689  0.6709 -1.1402
 1613TIP3   OH226329   5.379   1.401  15.303 -0.0953  0.0557 -0.4186
 1613TIP3    H126330   5.300   1.378  15.254  1.4438 -1.0834 -2.5905
 1613TIP3    H226331   5.411   1.317  15.337 -1.2088  0.8456  2.8743
 1614TIP3   OH226332   4.466   4.808   5.034 -0.0583  0.2918  0.1707
 1614TIP3    H126333   4.371   4.800   5.043 -0.1929 -1.9150 -2.0645
 1614TIP3    H226334   4.493   4.860   5.109 -2.6422 -1.8245  2.7940
 1615TIP3   OH226335   1.814   0.609  17.086  0.0702  0.1316  0.1086
 1615TIP3    H126336   1.728   0.574  17.111  1.0744 -1.0764  2.1034
 1615TIP3    H226337   1.843   0.552  17.015 -1.3089  1.4146 -1.5837
 1616TIP3   OH226338   4.758   4.228  15.092  0.1616  0.0003 -0.0611
 1616TIP3    H126339   4.733   4.179  15.171  1.1592  2.2796  1.8041
 1616TIP3    H226340   4.806   4.164  15.039 -1.3811 -1.8705  0.6706
 1617TIP3   OH226341   6.685   4.643  14.923  0.4246 -0.4517 -0.1195
 1617TIP3    H126342   6.590   4.656  14.924  0.5448  0.4592 -0.1166
 1617TIP3    H226343   6.697   4.553  14.953 -0.4703 -0.7615 -0.6596
 1618TIP3   OH226344   6.369   5.411   4.059  0.4329  0.0239 -0.5178
 1618TIP3    H126345   6.364   5.429   4.153 -0.5513  1.8579 -0.8655
 1618TIP3    H226346   6.337   5.321   4.050  1.7519 -0.6448  1.0023
 1619TIP3   OH226347   4.638   3.984   4.968 -0.0961  0.1627 -0.1321
 1619TIP3    H126348   4.563   3.988   5.028 -0.4736  1.3655 -0.6506
 1619TIP3    H226349   4.601   3.949   4.886 -0.1858  1.0804 -0.4959
 1620TIP3   OH226350   5.065   2.771   4.008 -0.2973  0.2915  0.1558
 1620TIP3    H126351   5.084   2.854   4.052  0.2816  0.2871 -0.0836
 1620TIP3    H226352   5.132   2.711   4.042  0.0827  0.2577 -0.6357
 1621TIP3   OH226353   3.725   6.545  14.460  0.0929  0.5245 -0.1588
 1621TIP3    H126354   3.712   6.640  14.460 -1.0392  0.3939  0.9252
 1621TIP3    H226355   3.688   6.517  14.376  1.0301  1.0955 -0.7834
 1622TIP3   OH226356   6.287   3.763  15.396  0.1906 -0.0817 -0.2303
 1622TIP3    H126357   6.264   3.848  15.435  0.9001 -0.3445  0.8241
 1622TIP3    H226358   6.328   3.784  15.313  0.0733  0.6003 -0.1183
 1623TIP3   OH226359   2.909   5.933  16.331 -0.1015  0.4269 -0.0255
 1623TIP3    H126360   3.000   5.954  16.351  0.6169 -3.2610  1.3206
 1623TIP3    H226361   2.858   6.002  16.374  1.9546  2.8382 -1.2131
 1624TIP3   OH226362   1.645   0.065  13.969 -0.1335  0.4512  0.0379
 1624TIP3    H126363   1.550   0.079  13.968 -0.3396 -0.7327 -2.2891
 1624TIP3    H226364   1.681   0.143  13.926 -0.1330  0.3999 -0.0543
 1625TIP3   OH226365   0.119   3.820   3.613  0.5310 -0.0048  0.0032
 1625TIP3    H126366   0.171   3.740   3.623 -0.5467 -0.7589 -0.2949
 1625TIP3    H226367   0.142   3.873   3.689 -0.5439 -1.6449  1.5485
 1626TIP3   OH226368   1.646   5.599   1.665  0.1958  0.1979  0.0696
 1626TIP3    H126369   1.674   5.687   1.639  2.1987 -0.2100  0.6580
 1626TIP3    H226370   1.667   5.594   1.758  0.7544 -1.1316 -0.1086
 1627TIP3   OH226371   4.351   6.520  16.642  0.2647  0.4705 -0.3021
 1627TIP3    H126372   4.335   6.471  16.723  1.6520  3.1822  1.7805
 1627TIP3    H226373   4.424   6.473  16.600  0.5135 -0.1646  0.7906
 1628TIP3   OH226374   3.830   5.298  15.867  0.2531  0.4297 -0.5023
 1628TIP3    H126375   3.780   5.216  15.878  0.4414  0.2813 -0.7545
 1628TIP3    H226376   3.920   5.269  15.851  0.1628  0.6626 -1.4902
 1629TIP3   OH226377   1.624   4.106  11.475  0.1730 -0.4956  0.4401
 1629TIP3    H126378   1.531   4.085  11.480  0.2384 -0.9225 -0.1044
 1629TIP3    H226379   1.632   4.189  11.522 -0.2816 -1.0721  1.5788
 1630TIP3   OH226380   3.010   3.417  15.265 -0.5817  0.0063 -0.0029
 1630TIP3    H126381   2.972   3.493  15.221  1.7200  0.4838 -1.3886
 1630TIP3    H226382   2.970   3.342  15.221 -0.9937  0.4546 -0.4158
 1631TIP3   OH226383   1.095   5.714  11.649  0.2499  0.2541 -0.3484
 1631TIP3    H126384   1.180   5.748  11.675 -0.6836  3.2159 -0.7940
 1631TIP3    H226385   1.035   5.743  11.717 -0.4841 -1.5971 -0.1526
 1632TIP3   OH226386   4.179   1.157  12.361 -0.1103  0.6881 -0.8842
 1632TIP3    H126387   4.218   1.245  12.365  2.1918 -0.3104  0.7513
 1632TIP3    H226388   4.241   1.106  12.309 -0.3176 -0.4437 -0.0484
 1633TIP3   OH226389   6.334   0.087  11.076 -0.6378 -0.1948 -0.4877
 1633TIP3    H126390   6.388   0.164  11.060  0.5359 -0.8434  0.2050
 1633TIP3    H226391   6.274   0.114  11.146 -0.4409  0.1964 -0.4675
 1634TIP3   OH226392   1.132   1.658  13.921  0.1907 -0.6595 -0.2303
 1634TIP3    H126393   1.225   1.639  13.926  0.0836 -1.5193 -1.1243
 1634TIP3    H226394   1.089   1.587  13.968 -0.0808 -1.1798 -1.2333
 1635TIP3   OH226395   2.027   4.319  12.823 -0.4946  0.2566 -0.3788
 1635TIP3    H126396   1.979   4.244  12.788 -0.9171  0.8764 -1.1782
 1635TIP3    H226397   1.976   4.346  12.899  0.0758 -0.7103  0.3727
 1636TIP3   OH226398   2.262   2.020  11.961 -0.2971  1.3734 -0.1014
 1636TIP3    H126399   2.322   2.011  12.035 -2.2272 -0.1784  1.3997
 1636TIP3    H226400   2.308   1.978  11.888  0.3985  0.0643  1.0484
 1637TIP3   OH226401   2.015   1.508  17.265 -0.5527  0.2308 -0.0976
 1637TIP3    H126402   2.090   1.489  17.322 -0.8864 -1.6834 -0.2303
 1637TIP3    H226403   2.009   1.604  17.265  2.1744  0.4886 -0.4864
 1638TIP3   OH226404   5.007   4.694   0.205  0.2004 -0.4706 -0.2571
 1638TIP3    H126405   5.092   4.661   0.176  0.3812  0.8063 -1.2862
 1638TIP3    H226406   4.968   4.734   0.127 -0.9348 -0.1974  0.4152
 1639TIP3   OH226407   5.038   2.483  16.436 -0.1998 -0.4917 -0.2286
 1639TIP3    H126408   5.120   2.462  16.392  0.6554  0.2269  0.9900
 1639TIP3    H226409   5.037   2.579  16.441 -0.9453 -0.5080  0.0885
 1640TIP3   OH226410   5.035   5.573   4.235  0.1794 -0.9521 -0.0093
 1640TIP3    H126411   5.109   5.592   4.293 -0.8233 -0.5085  1.1672
 1640TIP3    H226412   4.964   5.629   4.267 -0.3294 -0.4454 -1.8813
 1641TIP3   OH226413   4.490   2.215  12.267 -0.2020 -0.2137  0.3667
 1641TIP3    H126414   4.431   2.208  12.193 -0.0007  0.6534  0.1041
 1641TIP3    H226415   4.577   2.220  12.228  0.1670 -2.5050  0.7869
 1642TIP3   OH226416   4.025   5.326   4.854 -0.0112  0.1658  0.0887
 1642TIP3    H126417   3.987   5.414   4.850  1.3017  0.7436 -0.3776
 1642TIP3    H226418   3.983   5.278   4.782  0.9777  1.1513 -1.1929
 1643TIP3   OH226419   2.223   6.279   3.702 -0.3923  0.5903 -0.2237
 1643TIP3    H126420   2.236   6.324   3.786 -2.9900  0.0220  0.5787
 1643TIP3    H226421   2.260   6.192   3.716 -0.8304  0.4891  0.3664
 1644TIP3   OH226422   3.682   0.533   5.625 -0.3316  0.0580  0.1757
 1644TIP3    H126423   3.700   0.460   5.566  0.0724 -0.1099  0.5026
 1644TIP3    H226424   3.607   0.505   5.677 -0.8883  0.3308 -0.4605
 1645TIP3   OH226425   2.166   0.042  11.628  0.0658  0.3971  0.0483
 1645TIP3    H126426   2.152   0.018  11.536 -1.1302 -2.6410  0.8965
 1645TIP3    H226427   2.253   0.006  11.649 -1.2563 -2.5520  1.0173
 1646TIP3   OH226428   1.885   0.749  12.466 -0.5589 -0.1432 -0.3112
 1646TIP3    H126429   1.877   0.841  12.489 -0.2116  0.3297 -2.0196
 1646TIP3    H226430   1.955   0.716  12.523 -0.4506  0.7137  0.0595
 1647TIP3   OH226431   3.489   4.188   5.508 -0.1261  0.5651  0.4999
 1647TIP3    H126432   3.477   4.140   5.426  0.9061  1.3034 -0.1038
 1647TIP3    H226433   3.400   4.208   5.537 -0.5494 -0.8750  0.2842
 1648TIP3   OH226434   0.814   5.890  13.420 -0.4760  0.0129  0.2964
 1648TIP3    H126435   0.858   5.829  13.361  1.7380  0.9756  0.8359
 1648TIP3    H226436   0.774   5.955  13.363 -2.4580 -1.6246 -0.2613
 1649TIP3   OH226437   2.157   0.318  16.330  0.0422  0.6334 -0.5007
 1649TIP3    H126438   2.092   0.372  16.286 -1.6938 -1.1913 -0.3072
 1649TIP3    H226439   2.226   0.379  16.355 -0.6395  2.3165 -2.4651
 1650TIP3   OH226440   3.853   0.921  15.040 -0.0800 -0.4924 -0.0284
 1650TIP3    H126441   3.855   0.997  14.982  3.2817  0.2421  0.8473
 1650TIP3    H226442   3.918   0.861  15.003  0.9618 -0.6980  2.0272
 1651TIP3   OH226443   1.816   0.638   2.209  0.1917  0.2681  0.1391
 1651TIP3    H126444   1.811   0.595   2.294 -1.6225 -0.6157 -0.3787
 1651TIP3    H226445   1.815   0.731   2.229  3.8634  0.2546  1.2620
 1652TIP3   OH226446   4.033   6.071   2.591  0.3060  1.0346 -0.2451
 1652TIP3    H126447   3.971   6.129   2.548  0.9139  1.7571 -0.1613
 1652TIP3    H226448   3.979   6.016   2.648 -0.2775  1.4952 -0.3455
 1653TIP3   OH226449   1.079   5.522  10.755  0.3748 -0.1184 -0.2552
 1653TIP3    H126450   1.021   5.597  10.743 -0.0018 -0.6088 -1.7745
 1653TIP3    H226451   1.020   5.449  10.777  0.7632  0.0451  1.5274
 1654TIP3   OH226452   3.666   2.858   2.114  0.3417 -0.4248 -0.1920
 1654TIP3    H126453   3.724   2.913   2.062 -0.5859 -1.1745 -2.1009
 1654TIP3    H226454   3.706   2.858   2.201  0.8293  2.5288 -0.3113
 1655TIP3   OH226455   3.390   3.163  13.214 -0.4247  0.3091  0.8676
 1655TIP3    H126456   3.354   3.079  13.243 -0.3886  0.4872  1.4340
 1655TIP3    H226457   3.483   3.158  13.238 -0.3786  0.4295  0.7149
 1656TIP3   OH226458   3.524   2.805  11.878 -0.4277 -0.2282 -0.3217
 1656TIP3    H126459   3.515   2.889  11.923 -0.8688 -0.6637  0.4089
 1656TIP3    H226460   3.616   2.783  11.887 -0.1654  0.4936 -1.0972
 1657TIP3   OH226461   0.952   5.695  11.227  0.0122  0.2777 -0.0637
 1657TIP3    H126462   0.968   5.607  11.193  2.3086 -0.3758  2.3804
 1657TIP3    H226463   1.011   5.751  11.177 -0.7305  0.3258 -0.9289
 1658TIP3   OH226464   0.722   2.171   3.371  0.2562 -0.2861  0.3318
 1658TIP3    H126465   0.729   2.264   3.348 -1.6802 -0.1841 -0.0352
 1658TIP3    H226466   0.805   2.133   3.343  0.2406  0.9252 -1.5592
 1659TIP3   OH226467   2.495   1.340  12.760 -0.3509 -0.1443 -0.0427
 1659TIP3    H126468   2.570   1.284  12.779 -0.7254 -0.8052 -0.4499
 1659TIP3    H226469   2.496   1.407  12.828  0.3483 -0.4127  0.2134
 1660TIP3   OH226470   0.307   2.530  16.297 -0.1251 -0.3406  0.1298
 1660TIP3    H126471   0.240   2.598  16.302  0.2061 -0.0160  0.1941
 1660TIP3    H226472   0.388   2.577  16.278 -0.4699 -0.9614 -3.9167
 1661TIP3   OH226473   0.633   6.178   6.337  0.2490  0.5696  0.0860
 1661TIP3    H126474   0.638   6.182   6.433  0.3604 -0.2355  0.1192
 1661TIP3    H226475   0.688   6.104   6.313 -0.5614  0.1387 -0.5277
 1662TIP3   OH226476   1.193   4.936   4.997  0.0930  0.7167  0.0894
 1662TIP3    H126477   1.272   4.895   5.030 -0.4767 -2.4740 -2.1267
 1662TIP3    H226478   1.121   4.883   5.032 -1.0257  2.4219  0.5481
 1663TIP3   OH226479   3.981   5.278  16.448  0.2161 -0.9671  0.6777
 1663TIP3    H126480   4.049   5.247  16.389 -0.0210  1.1734 -0.8183
 1663TIP3    H226481   3.904   5.227  16.425  0.5315 -1.2359  0.2100
 1664TIP3   OH226482   4.581   0.757  10.744  0.0119  0.2950 -0.3088
 1664TIP3    H126483   4.545   0.792  10.825  0.4752 -0.5856  0.2936
 1664TIP3    H226484   4.676   0.771  10.752 -0.0180  1.0463 -1.1187
 1665TIP3   OH226485   1.018   2.782   4.744 -0.2303  0.0020 -0.5856
 1665TIP3    H126486   0.952   2.778   4.813 -0.6315  0.2029 -0.9531
 1665TIP3    H226487   1.101   2.794   4.791 -0.7255  2.6970 -0.2033
 1666TIP3   OH226488   2.607   0.669  16.982 -0.1759  0.7164 -0.1894
 1666TIP3    H126489   2.617   0.577  16.958  2.1663  1.3715 -2.2143
 1666TIP3    H226490   2.514   0.688  16.968 -0.4274 -1.0207 -1.1142
 1667TIP3   OH226491   0.996   5.324   4.923  0.0961 -0.1945  0.7009
 1667TIP3    H126492   1.080   5.298   4.886  0.8358  1.1011  1.3773
 1667TIP3    H226493   0.931   5.282   4.868  1.1695  0.7149 -1.3740
 1668TIP3   OH226494   2.206   4.491  12.942  0.0309 -0.2365 -0.5451
 1668TIP3    H126495   2.170   4.418  12.892  1.5215 -1.2024 -0.2781
 1668TIP3    H226496   2.227   4.558  12.877 -2.0976  0.3273 -0.7115
 1669TIP3   OH226497   4.707   0.780   4.335 -0.4287 -0.3357  0.0198
 1669TIP3    H126498   4.734   0.842   4.268  0.7652 -0.1172  0.6807
 1669TIP3    H226499   4.634   0.822   4.380  0.9106  0.9920  1.0220
 1670TIP3   OH226500   0.426   2.961  12.477 -0.2115  0.4605  0.4658
 1670TIP3    H126501   0.513   2.997  12.462 -0.9172  1.8097 -0.5743
 1670TIP3    H226502   0.416   2.963  12.572  0.6904  0.7845  0.5687
 1671TIP3   OH226503   3.489   1.685   5.669  0.3868 -0.2846  0.5324
 1671TIP3    H126504   3.521   1.702   5.580 -0.5078 -2.0261 -0.1799
 1671TIP3    H226505   3.563   1.644   5.713  0.8383  0.5928  0.6037
 1672TIP3   OH226506   4.047   1.815  16.772 -0.5528 -0.3654  0.0874
 1672TIP3    H126507   4.080   1.903  16.754 -1.5972  0.4994  2.0648
 1672TIP3    H226508   4.053   1.807  16.868 -2.7880 -1.4808  0.1842
 1673TIP3   OH226509   1.476   5.789  11.706 -0.0962  0.1464  0.3579
 1673TIP3    H126510   1.482   5.794  11.801  1.2306 -2.2247  0.4778
 1673TIP3    H226511   1.537   5.855  11.674  0.4362  0.0722  1.1904
 1674TIP3   OH226512   5.058   3.542   1.050 -0.2500 -0.4625 -0.5071
 1674TIP3    H126513   5.047   3.540   1.145 -0.8339 -0.0989 -0.5620
 1674TIP3    H226514   5.126   3.607   1.036  0.0713 -0.7523 -0.3236
 1675TIP3   OH226515   2.273   4.899   1.233  0.0188 -0.0482 -0.1273
 1675TIP3    H126516   2.229   4.937   1.308 -0.3267 -0.2645 -0.2189
 1675TIP3    H226517   2.362   4.936   1.236  0.6419 -1.5681  1.5206
 1676TIP3   OH226518   5.161   6.771  11.864 -0.1053  0.3101  0.4083
 1676TIP3    H126519   5.206   6.821  11.796 -1.9881  1.1596 -0.2864
 1676TIP3    H226520   5.170   6.680  11.836  0.2842  0.5498 -0.2750
 1677TIP3   OH226521   5.548   5.305   0.445  0.7122 -0.1715 -0.4689
 1677TIP3    H126522   5.621   5.269   0.495  1.1453  1.7079  0.3202
 1677TIP3    H226523   5.570   5.397   0.432 -1.1580  0.2631 -0.8988
 1678TIP3   OH226524   3.286   1.382   1.724 -0.1471  0.0156 -0.0496
 1678TIP3    H126525   3.358   1.418   1.673 -0.0371  1.2215  0.8930
 1678TIP3    H226526   3.221   1.356   1.659  1.2349 -1.3920 -0.9301
 1679TIP3   OH226527   0.606   6.186   4.327  0.1595 -0.5562  0.2203
 1679TIP3    H126528   0.652   6.254   4.376 -1.0009  0.3765  0.0692
 1679TIP3    H226529   0.550   6.234   4.266 -0.1084 -1.6677 -0.4405
 1680TIP3   OH226530   3.028   5.946  13.411  0.1254  0.0716  0.7720
 1680TIP3    H126531   2.936   5.970  13.420 -0.6296 -2.0796 -0.4195
 1680TIP3    H226532   3.053   5.914  13.497  0.2164  1.9328  1.4861
 1681TIP3   OH226533   3.085   4.460   0.662 -0.4175 -0.6038  0.3530
 1681TIP3    H126534   3.010   4.457   0.602 -0.5003 -2.4872  0.5095
 1681TIP3    H226535   3.048   4.490   0.745 -0.9529 -1.2364  0.3491
 1682TIP3   OH226536   1.727   6.524  16.982  0.4511 -0.2231 -0.1709
 1682TIP3    H126537   1.706   6.612  17.014 -1.2204 -0.1362 -1.3764
 1682TIP3    H226538   1.647   6.473  16.996  1.3234 -1.5107  0.2960
 1683TIP3   OH226539   6.666   3.799  11.443 -0.0800 -0.5189 -0.3472
 1683TIP3    H126540   6.642   3.866  11.508  0.1729 -0.2236 -0.5557
 1683TIP3    H226541   6.723   3.739  11.491 -1.2649 -1.2581  0.1692
 1684TIP3   OH226542   1.766   5.704  12.520 -0.0859  0.0916  0.0544
 1684TIP3    H126543   1.713   5.663  12.451  0.4176 -1.3902  0.5089
 1684TIP3    H226544   1.705   5.719  12.592  0.0529 -1.5531  0.5536
 1685TIP3   OH226545   1.566   5.547  16.233 -0.2012  0.0585 -1.3570
 1685TIP3    H126546   1.526   5.602  16.300 -0.0215  0.0071 -1.2075
 1685TIP3    H226547   1.660   5.560  16.243 -0.0294 -1.8200  0.0296
 1686TIP3   OH226548   1.194   0.745   4.109  0.0269  0.1802  0.1256
 1686TIP3    H126549   1.196   0.709   4.021  0.7577  1.3593 -0.3610
 1686TIP3    H226550   1.149   0.679   4.161 -2.7260  0.5503 -1.6132
 1687TIP3   OH226551   1.323   4.202   6.211 -0.0323  0.3058 -0.0777
 1687TIP3    H126552   1.351   4.138   6.277  0.9469  0.7416 -0.0524
 1687TIP3    H226553   1.390   4.271   6.215 -1.0332  1.3077 -0.1428
 1688TIP3   OH226554   5.360   6.102   1.492 -0.3257  0.0649 -0.1267
 1688TIP3    H126555   5.266   6.116   1.478  0.0904  2.3541 -0.9577
 1688TIP3    H226556   5.403   6.154   1.424  1.5647 -1.4038 -0.1325
 1689TIP3   OH226557   4.859   0.283   4.394  0.4682  0.0410  0.1059
 1689TIP3    H126558   4.914   0.348   4.437  1.9417  0.2985 -2.0040
 1689TIP3    H226559   4.832   0.325   4.312  1.1078 -1.7827 -1.1134
 1690TIP3   OH226560   4.697   5.570   0.478  0.4463  0.6728 -0.2208
 1690TIP3    H126561   4.652   5.598   0.399  1.7702  2.4628 -0.4065
 1690TIP3    H226562   4.639   5.597   0.549 -0.9535 -1.3323 -0.5291
 1691TIP3   OH226563   1.035   4.678  14.565 -0.2257  0.0215 -0.6575
 1691TIP3    H126564   1.027   4.588  14.598  2.5594  0.0985  0.5544
 1691TIP3    H226565   0.995   4.732  14.633  0.0618 -0.1830 -0.3233
 1692TIP3   OH226566   0.191   5.414   4.425 -0.1190 -0.0576 -0.1405
 1692TIP3    H126567   0.147   5.489   4.384 -0.0605 -0.2703 -0.5924
 1692TIP3    H226568   0.163   5.418   4.516 -0.7010  0.0857 -0.3194
 1693TIP3   OH226569   6.188   3.131  17.076  0.1687  0.1931  0.1649
 1693TIP3    H126570   6.168   3.164  17.163  1.5198  3.0645 -0.5140
 1693TIP3    H226571   6.177   3.036  17.083  0.4948  0.3108  3.4855
 1694TIP3   OH226572   6.545   1.692   3.797 -0.0765 -0.5721  0.6335
 1694TIP3    H126573   6.521   1.685   3.890 -0.0927 -1.3592  0.5800
 1694TIP3    H226574   6.640   1.703   3.798 -0.1937  0.5405  0.7743
 1695TIP3   OH226575   3.340   0.539  13.998  0.2470  0.1321  0.6440
 1695TIP3    H126576   3.305   0.628  14.003  1.0958  0.4752  0.5684
 1695TIP3    H226577   3.264   0.485  13.977 -0.2339  0.8658  0.4555
 1696TIP3   OH226578   6.093   5.746   5.050  0.1001 -0.1823  0.1149
 1696TIP3    H126579   6.094   5.665   4.998  0.8114 -0.4287  0.4832
 1696TIP3    H226580   6.160   5.731   5.117 -0.2150  0.4619  0.5823
 1697TIP3   OH226581   2.953   0.455   4.333  1.1281  0.1833 -0.1836
 1697TIP3    H126582   2.957   0.368   4.293 -0.2219  0.7267 -1.6390
 1697TIP3    H226583   3.036   0.465   4.379  1.6820 -1.5202 -0.7546
 1698TIP3   OH226584   5.994   3.013   1.688 -0.2141  0.1863 -0.3148
 1698TIP3    H126585   6.012   2.924   1.657  1.4431 -0.7238  2.8040
 1698TIP3    H226586   6.049   3.069   1.634  2.0449 -1.2168  0.3986
 1699TIP3   OH226587   4.111   0.783  14.939 -0.3036  0.3516 -0.6636
 1699TIP3    H126588   4.076   0.740  15.017  0.0707  0.0543 -0.6544
 1699TIP3    H226589   4.082   0.729  14.866 -1.5788  1.2341 -0.8316
 1700TIP3   OH226590   0.375   4.600  14.819  0.9287 -0.1260  0.2050
 1700TIP3    H126591   0.428   4.680  14.816  0.3057  0.2565 -1.7277
 1700TIP3    H226592   0.302   4.623  14.876 -0.5636  1.6198 -2.2133
 1701TIP3   OH226593   3.389   6.546   4.301  0.1389  0.1462 -0.3165
 1701TIP3    H126594   3.425   6.477   4.356 -0.9981  1.2577  1.9783
 1701TIP3    H226595   3.308   6.510   4.265 -0.8597  0.4554  1.4988
 1702TIP3   OH226596   5.587   2.134   0.149 -0.3640 -0.2354  0.0435
 1702TIP3    H126597   5.595   2.221   0.188 -0.3015 -0.0185 -0.4387
 1702TIP3    H226598   5.676   2.099   0.151  0.4115  1.1959 -3.0856
 1703TIP3   OH226599   6.269   4.222   1.020  0.6782 -0.1575  0.0670
 1703TIP3    H126600   6.264   4.228   1.115  0.3684  0.0117  0.0426
 1703TIP3    H226601   6.196   4.165   0.995 -0.3881  1.2771 -0.2016
 1704TIP3   OH226602   6.345   2.037  11.817 -0.0009  0.7520  0.2400
 1704TIP3    H126603   6.427   2.084  11.835  1.3880 -1.2640 -0.4085
 1704TIP3    H226604   6.295   2.045  11.898  1.9930 -0.1102  1.6597
 1705TIP3   OH226605   3.757   4.867  15.483  0.1918  0.1892  0.1012
 1705TIP3    H126606   3.680   4.924  15.479  0.2243  0.1459 -2.1790
 1705TIP3    H226607   3.831   4.926  15.467  0.2666 -0.3482 -1.7395
 1706TIP3   OH226608   1.930   1.427  16.134  0.1786 -0.1241 -0.2988
 1706TIP3    H126609   1.979   1.371  16.194 -0.0416  0.4015  0.3834
 1706TIP3    H226610   1.866   1.368  16.093 -0.4224 -0.2761  0.8223
 1707TIP3   OH226611   2.786   1.396  13.685 -0.3719 -0.0952 -0.2206
 1707TIP3    H126612   2.751   1.428  13.768  1.5242  0.6973  0.3524
 1707TIP3    H226613   2.798   1.302  13.699  2.4907  0.3814  1.5445
 1708TIP3   OH226614   3.743   4.675   2.263  0.2442 -0.1607 -0.5442
 1708TIP3    H126615   3.682   4.602   2.270  0.1525 -0.1260 -0.9682
 1708TIP3    H226616   3.796   4.655   2.185  0.9653 -0.3338 -0.0265
 1709TIP3   OH226617   3.634   4.234   1.225 -0.2747  0.1932  0.2568
 1709TIP3    H126618   3.572   4.165   1.251  0.1454 -0.6615 -0.9217
 1709TIP3    H226619   3.585   4.316   1.237 -0.6514 -0.2645  2.0544
 1710TIP3   OH226620   3.238   2.774  16.511 -0.0949 -0.1223  0.0996
 1710TIP3    H126621   3.151   2.736  16.519 -0.5844  0.9068 -0.1902
 1710TIP3    H226622   3.227   2.866  16.534  1.1928 -0.2670  1.4526
 1711TIP3   OH226623   3.434   1.907   3.264 -0.2168  0.4158 -0.1654
 1711TIP3    H126624   3.439   1.911   3.169 -0.9918 -0.9397 -0.2965
 1711TIP3    H226625   3.347   1.873   3.282 -0.8288  2.4925  1.1254
 1712TIP3   OH226626   6.515   2.816   3.371  0.1874 -0.3159 -0.2352
 1712TIP3    H126627   6.428   2.791   3.340  0.5089  0.1815 -1.5980
 1712TIP3    H226628   6.517   2.785   3.462 -1.2164 -0.7878 -0.3292
 1713TIP3   OH226629   6.043   1.922   4.240  0.0101  0.4331 -0.0102
 1713TIP3    H126630   5.997   1.863   4.299  0.3548  0.5066  0.3372
 1713TIP3    H226631   6.058   1.871   4.161 -0.7128  0.4278 -0.1459
 1714TIP3   OH226632   1.481   6.294  10.678  0.2034  0.2885 -0.1716
 1714TIP3    H126633   1.389   6.300  10.652  0.3084 -1.4873 -1.0654
 1714TIP3    H226634   1.478   6.294  10.774 -0.6739  0.7628 -0.1826
 1715TIP3   OH226635   2.129   4.716   5.937 -0.9651  0.1010 -0.6871
 1715TIP3    H126636   2.174   4.651   5.991 -1.5122  1.0920  1.0608
 1715TIP3    H226637   2.036   4.694   5.947 -1.1854  1.3543  0.2756
 1716TIP3   OH226638   5.959   3.328  16.731  0.2410 -0.7651  0.0078
 1716TIP3    H126639   5.988   3.414  16.702 -0.8559 -0.8888 -1.6422
 1716TIP3    H226640   5.928   3.285  16.651 -0.2524 -2.2780  0.9587
 1717TIP3   OH226641   1.398   2.775  15.624 -0.6904  0.1873  0.0494
 1717TIP3    H126642   1.455   2.713  15.669 -1.2039 -0.5080 -0.2285
 1717TIP3    H226643   1.342   2.811  15.693 -1.4263 -0.8205  0.0104
 1718TIP3   OH226644   4.976   5.482   5.236  0.2379 -0.2108 -0.3969
 1718TIP3    H126645   5.046   5.514   5.179  1.4978 -0.7840  0.7612
 1718TIP3    H226646   4.938   5.561   5.274 -0.8282  0.1965 -2.2105
 1719TIP3   OH226647   6.304   3.322  16.598  0.6902  0.3994  0.4227
 1719TIP3    H126648   6.331   3.236  16.566 -1.5301 -0.3137  0.3488
 1719TIP3    H226649   6.253   3.360  16.526 -0.8319  0.5268  1.5212
 1720TIP3   OH226650   6.515   0.011   5.823 -0.1567 -0.6011  0.3768
 1720TIP3    H126651   6.506   0.102   5.794 -1.2447 -1.0248 -0.7072
 1720TIP3    H226652   6.457   0.004   5.898 -2.7551 -1.2030 -1.5675
 1721TIP3   OH226653   0.302   0.956  12.522 -0.2583  0.0063  0.1591
 1721TIP3    H126654   0.249   0.954  12.601 -0.0348 -2.3044  0.2993
 1721TIP3    H226655   0.392   0.953  12.554 -0.1022  1.0098 -0.1573
 1722TIP3   OH226656   4.471   5.927  12.014 -0.6360 -0.1281  0.7398
 1722TIP3    H126657   4.448   6.015  12.045 -0.5342 -0.2434  1.1440
 1722TIP3    H226658   4.451   5.929  11.921  1.2077  0.9451  0.3172
 1723TIP3   OH226659   2.473   5.124   1.405 -0.1904 -0.0995  0.5435
 1723TIP3    H126660   2.518   5.142   1.487 -0.4073  0.5786  0.5138
 1723TIP3    H226661   2.388   5.087   1.431  0.4060 -1.5074  0.5987
 1724TIP3   OH226662   1.504   0.052  16.996  0.1405  0.3740 -0.6730
 1724TIP3    H126663   1.542   0.010  17.073 -1.3991  1.1374  0.5465
 1724TIP3    H226664   1.472  -0.021  16.943 -1.0259 -0.0994  0.6277
 1725TIP3   OH226665   1.219   3.840  10.329  0.7022 -0.7620  0.3814
 1725TIP3    H126666   1.253   3.775  10.268 -0.3812 -0.7422 -0.2620
 1725TIP3    H226667   1.147   3.796  10.375  0.8277 -0.4428  0.9023
 1726TIP3   OH226668   4.093   1.187   3.491  0.0637  0.2560 -0.4667
 1726TIP3    H126669   4.188   1.175   3.487 -0.1135 -1.4125 -0.4273
 1726TIP3    H226670   4.069   1.225   3.406  0.7967  1.1040 -0.3106
 1727TIP3   OH226671   3.361   5.942   0.586 -0.3429 -0.3570  0.3431
 1727TIP3    H126672   3.315   5.930   0.669 -2.0135  2.3642 -0.0650
 1727TIP3    H226673   3.408   6.025   0.597 -0.6580  0.0966 -1.4563
 1728TIP3   OH226674   3.032   5.309   3.130  0.0323  0.0705 -0.2197
 1728TIP3    H126675   3.038   5.214   3.130  3.3338  0.1834 -0.7699
 1728TIP3    H226676   3.011   5.332   3.221 -2.2470 -1.1338 -0.3637
 1729TIP3   OH226677   1.935   5.919   2.963  0.1818  0.2125 -0.3295
 1729TIP3    H126678   1.915   5.937   3.055 -1.4626  1.3306 -0.8529
 1729TIP3    H226679   2.010   5.860   2.965 -0.8809 -1.1730  1.7697
 1730TIP3   OH226680   6.761   0.110   6.330 -0.1966 -0.5469 -0.3499
 1730TIP3    H126681   6.717   0.055   6.395 -0.7682  0.0478 -0.2176
 1730TIP3    H226682   6.702   0.185   6.318 -0.0483 -0.6022 -1.4939
 1731TIP3   OH226683   1.501   1.290   5.146  0.2836 -0.0106  0.4200
 1731TIP3    H126684   1.470   1.381   5.144 -1.9464 -0.7328  0.3518
 1731TIP3    H226685   1.504   1.263   5.054 -2.1925 -0.9619  0.5573
 1732TIP3   OH226686   0.049   4.791   5.727  0.0707  0.0431 -0.3954
 1732TIP3    H126687   0.101   4.735   5.783  1.5032 -0.4366 -2.1268
 1732TIP3    H226688   0.097   4.874   5.724 -0.9459  0.6828  0.5019
 1733TIP3   OH226689   1.225   6.349   0.100  0.4713 -0.6604 -0.4134
 1733TIP3    H126690   1.294   6.338   0.165 -0.7782 -1.7807  0.7938
 1733TIP3    H226691   1.160   6.404   0.143 -0.1583 -1.0270 -0.8778
 1734TIP3   OH226692   0.683   3.591  10.888  0.3243 -0.5446 -0.3641
 1734TIP3    H126693   0.682   3.514  10.831  1.0542 -1.1182  0.3650
 1734TIP3    H226694   0.771   3.627  10.878  0.3784 -0.5127  0.2127
 1735TIP3   OH226695   5.439   3.988  13.085 -0.3643 -0.0921  0.1128
 1735TIP3    H126696   5.465   4.073  13.050 -0.7066 -0.0633 -0.0694
 1735TIP3    H226697   5.346   3.997  13.105 -0.4699 -0.5127 -0.1743
 1736TIP3   OH226698   0.151   3.802   3.058 -0.5683  0.7059  0.3069
 1736TIP3    H126699   0.057   3.788   3.050 -0.5063 -0.6179  1.5265
 1736TIP3    H226700   0.179   3.829   2.970 -1.8635 -0.1732 -0.4035
 1737TIP3   OH226701   5.010   0.735  16.361 -0.2858  0.8082  0.3915
 1737TIP3    H126702   5.041   0.663  16.416 -1.7406 -1.6405 -1.7416
 1737TIP3    H226703   4.919   0.747  16.386 -1.3524 -1.1961 -2.1053
 1738TIP3   OH226704   2.103   6.195   0.654  0.4806 -0.2975 -0.8149
 1738TIP3    H126705   2.103   6.281   0.610  2.2217  0.0725 -0.1309
 1738TIP3    H226706   2.075   6.214   0.743  1.9482 -0.2357 -0.3432
 1739TIP3   OH226707   0.089   6.729  13.924  0.0353  0.2779  0.3613
 1739TIP3    H126708   0.124   6.729  13.835 -1.2826 -0.6968 -0.2096
 1739TIP3    H226709   0.165   6.715  13.980  0.8556  0.6550 -0.6306
 1740TIP3   OH226710   4.607   4.851  17.109  0.1458 -0.0070 -0.5149
 1740TIP3    H126711   4.609   4.790  17.183  0.2388 -2.2442 -2.2557
 1740TIP3    H226712   4.692   4.840  17.066 -0.0499  0.9706 -1.1896
 1741TIP3   OH226713   1.315   4.207  13.897 -0.4109  0.3310  0.1330
 1741TIP3    H126714   1.341   4.299  13.909  0.1648  0.0941  0.7609
 1741TIP3    H226715   1.224   4.204  13.925 -0.1504  0.5225  1.0207
 1742TIP3   OH226716   2.884   1.735   3.473 -0.0660  0.0799 -0.0797
 1742TIP3    H126717   2.913   1.644   3.477  0.0402  0.0587 -1.0488
 1742TIP3    H226718   2.840   1.742   3.389 -1.4166  0.5488  0.6508
 1743TIP3   OH226719   6.661   4.035  16.219 -1.0723 -0.1487 -0.1974
 1743TIP3    H126720   6.688   4.126  16.206  0.7567 -0.4592  0.9860
 1743TIP3    H226721   6.570   4.042  16.251 -0.6055  1.3532  0.9581
 1744TIP3   OH226722   2.291   3.221  14.375 -0.6720 -0.4058 -0.2124
 1744TIP3    H126723   2.220   3.269  14.332 -1.5983 -1.8173 -0.3016
 1744TIP3    H226724   2.287   3.133  14.338  0.5563 -0.7701  0.4525
 1745TIP3   OH226725   6.399   1.021  13.561  0.0035 -0.0180  0.6614
 1745TIP3    H126726   6.346   0.948  13.531  1.1613 -0.7422  0.2904
 1745TIP3    H226727   6.468   0.981  13.615  0.3560  0.8456  0.8806
 1746TIP3   OH226728   4.125   3.068   4.793  0.6563  0.2270  0.0163
 1746TIP3    H126729   4.205   3.102   4.832  0.1063  1.2877  0.2410
 1746TIP3    H226730   4.155   3.010   4.723  1.6252  1.9210 -1.0291
 1747TIP3   OH226731   0.318   3.938   4.406  0.4135  0.3312 -0.2457
 1747TIP3    H126732   0.283   3.915   4.320 -1.7635  0.3571  0.5611
 1747TIP3    H226733   0.340   4.031   4.399 -0.1548  0.4369 -0.6595
 1748TIP3   OH226734   3.636   2.500   2.498  0.3097 -0.1895 -0.4032
 1748TIP3    H126735   3.683   2.462   2.424 -1.2078 -1.8573 -0.5953
 1748TIP3    H226736   3.543   2.486   2.477 -0.1808  0.0441  1.4289
 1749TIP3   OH226737   6.450   5.953  14.617  0.5031  0.1612 -0.3889
 1749TIP3    H126738   6.519   5.997  14.568  1.2921  0.5977  1.0459
 1749TIP3    H226739   6.380   6.018  14.625 -0.5823 -0.6127 -2.7272
 1750TIP3   OH226740   4.281   4.620  11.893  0.1543 -0.2156 -0.4633
 1750TIP3    H126741   4.366   4.581  11.915  0.3729  0.5518  0.0967
 1750TIP3    H226742   4.295   4.660  11.807  1.1560  2.1184  0.7037
 1751TIP3   OH226743   0.262   0.206  16.930 -0.2548  0.2119  0.2017
 1751TIP3    H126744   0.209   0.137  16.889 -0.6204  0.9615 -0.6244
 1751TIP3    H226745   0.351   0.170  16.932 -0.2497  0.0903 -1.1422
 1752TIP3   OH226746   3.779   4.543   4.577  0.6919  0.5039  0.5054
 1752TIP3    H126747   3.707   4.583   4.627 -0.0500 -0.7123  0.4479
 1752TIP3    H226748   3.740   4.466   4.536  1.6507  0.6815 -0.8072
 1753TIP3   OH226749   5.745   0.652  11.461 -0.1754  0.2752 -0.2330
 1753TIP3    H126750   5.838   0.645  11.439 -0.1359  0.5702 -0.1564
 1753TIP3    H226751   5.710   0.717  11.401 -0.2691  0.3838 -0.0639
 1754TIP3   OH226752   6.749   4.365   1.743  0.6176  0.2571 -0.3932
 1754TIP3    H126753   6.680   4.349   1.808  1.6524  1.6069  1.1028
 1754TIP3    H226754   6.783   4.278   1.723 -0.1107 -0.2414  0.4329
 1755TIP3   OH226755   0.163   6.018  14.229  0.2677 -0.1444 -0.1353
 1755TIP3    H126756   0.153   6.073  14.152  0.0254 -0.2576 -0.1857
 1755TIP3    H226757   0.236   6.057  14.277 -1.1102  1.4103  0.8206
 1756TIP3   OH226758   2.983   0.455   0.648 -0.0646 -0.4638 -0.1741
 1756TIP3    H126759   3.039   0.481   0.722  2.5926 -1.2947 -1.7338
 1756TIP3    H226760   3.018   0.369   0.621 -1.6924 -0.7010 -1.6791
 1757TIP3   OH226761   3.265   3.274  12.230  0.2019 -0.0091  0.4167
 1757TIP3    H126762   3.297   3.337  12.294  0.3174  2.9220 -2.2429
 1757TIP3    H226763   3.170   3.283  12.232  0.2559  1.0045 -0.5758
 1758TIP3   OH226764   2.872   6.065  12.994 -0.3089  0.0740 -0.1950
 1758TIP3    H126765   2.905   6.026  12.913  0.0023  0.9924 -0.5211
 1758TIP3    H226766   2.828   5.993  13.039  1.5399 -1.0449 -0.0705
 1759TIP3   OH226767   5.112   2.375  15.219 -0.3054 -0.0246  0.7526
 1759TIP3    H126768   5.022   2.369  15.185 -1.3875 -0.8062  3.4986
 1759TIP3    H226769   5.103   2.428  15.298  1.2301 -1.9520  2.3093
 1760TIP3   OH226770   0.479   3.611  11.213 -0.1146  0.1409 -0.1720
 1760TIP3    H126771   0.419   3.538  11.205 -0.1208  0.1631 -0.3349
 1760TIP3    H226772   0.443   3.665  11.284 -0.0757 -0.0444 -0.0116
 1761TIP3   OH226773   5.569   3.971   5.725 -0.3647 -0.2074 -0.4121
 1761TIP3    H126774   5.661   3.944   5.729  0.0493  1.1276 -0.5036
 1761TIP3    H226775   5.572   4.066   5.732 -1.6259  0.0132 -2.3331
 1762TIP3   OH226776   2.273   0.513   1.046 -0.0642 -0.7300 -0.7836
 1762TIP3    H126777   2.190   0.505   1.093  1.4770 -0.5370  2.2431
 1762TIP3    H226778   2.315   0.428   1.057  1.7387  0.3190  1.2505
 1763TIP3   OH226779   6.356   5.248  14.185 -0.1932  0.2819  0.0119
 1763TIP3    H126780   6.356   5.194  14.106 -1.5060 -0.7178  0.6419
 1763TIP3    H226781   6.409   5.199  14.247 -0.7712  0.0760  0.3498
 1764TIP3   OH226782   0.830   3.915  12.149  0.1596 -0.2424  0.5604
 1764TIP3    H126783   0.774   3.906  12.226  0.7872 -0.4500  1.0079
 1764TIP3    H226784   0.770   3.932  12.076 -0.3944  0.6525  1.2064
 1765TIP3   OH226785   4.438   5.109   5.948  0.5670  0.1459 -0.1310
 1765TIP3    H126786   4.375   5.059   5.896 -0.6796  0.3030  1.1697
 1765TIP3    H226787   4.501   5.044   5.979 -1.3166 -0.7945  1.9678
 1766TIP3   OH226788   1.611   5.478  14.405 -0.1095  0.4802  0.4834
 1766TIP3    H126789   1.602   5.572  14.387 -1.6258 -0.0552 -2.0643
 1766TIP3    H226790   1.701   5.468  14.437  0.3833  2.6742 -0.0489
 1767TIP3   OH226791   3.290   1.660  15.473 -0.4495 -0.6293 -0.6476
 1767TIP3    H126792   3.263   1.577  15.512 -0.2458  0.0174  0.9841
 1767TIP3    H226793   3.267   1.725  15.539  0.7822  0.4406 -1.2285
 1768TIP3   OH226794   3.054   2.745  14.910 -0.8486  0.0414  0.0755
 1768TIP3    H126795   3.124   2.808  14.926 -1.2596  0.5278 -0.0457
 1768TIP3    H226796   2.986   2.795  14.865 -1.5718 -0.2661  0.8082
 1769TIP3   OH226797   0.342   5.978  11.015 -0.2403  0.2579 -0.3362
 1769TIP3    H126798   0.354   5.900  11.070  1.0307  1.4445  1.1750
 1769TIP3    H226799   0.423   6.027  11.026 -0.8363  1.5959 -1.6134
 1770TIP3   OH226800   2.130   5.449  10.866 -0.3722  0.2366  0.6372
 1770TIP3    H126801   2.143   5.534  10.823 -1.3968  0.1589  0.1264
 1770TIP3    H226802   2.203   5.441  10.926 -0.5071  1.7071  1.0416
 1771TIP3   OH226803   5.905   6.576  17.022 -0.1070 -0.2067 -0.3043
 1771TIP3    H126804   5.949   6.495  16.995  0.6988  0.2629 -0.4386
 1771TIP3    H226805   5.867   6.556  17.107  0.0735 -0.7413 -0.3490
 1772TIP3   OH226806   0.300   0.920  16.487 -0.5172  0.2909 -0.0346
 1772TIP3    H126807   0.303   0.901  16.393  1.2344 -0.0091  0.0548
 1772TIP3    H226808   0.235   0.859  16.522 -0.0543 -0.6862 -0.8295
 1773TIP3   OH226809   4.501   0.258  13.609  0.5599  0.4727  0.1221
 1773TIP3    H126810   4.518   0.348  13.637 -1.6086  0.2610  2.5400
 1773TIP3    H226811   4.406   0.255  13.599  0.5940 -1.5673  0.1514
 1774TIP3   OH226812   6.156   1.549  11.286  0.1586  0.1169 -0.2858
 1774TIP3    H126813   6.156   1.467  11.237  1.5463 -1.2423  1.7964
 1774TIP3    H226814   6.078   1.544  11.341 -1.4625  1.6901 -2.2905
 1775TIP3   OH226815   0.966   0.699  12.208  0.0376 -0.1669  0.4654
 1775TIP3    H126816   1.005   0.769  12.260 -0.4612 -1.4557  2.6862
 1775TIP3    H226817   0.879   0.686  12.246 -1.8691  1.1393 -2.9499
 1776TIP3   OH226818   3.401   0.497  11.190  0.0943  0.0167 -0.4679
 1776TIP3    H126819   3.316   0.486  11.148 -0.3351  0.8134  0.1693
 1776TIP3    H226820   3.388   0.469  11.281  0.2141  1.1706 -0.0777
 1777TIP3   OH226821   1.481   5.900  11.989  0.4743  0.0014  0.5626
 1777TIP3    H126822   1.507   5.809  11.998  0.5533 -0.0289  0.0815
 1777TIP3    H226823   1.445   5.924  12.074 -2.1640 -1.3046 -0.0852
 1778TIP3   OH226824   0.401   4.172   2.775 -0.3366 -0.0132  0.0042
 1778TIP3    H126825   0.463   4.104   2.800 -1.3955 -0.9685  0.1303
 1778TIP3    H226826   0.327   4.124   2.738 -0.8570  1.1136 -0.4580
 1779TIP3   OH226827   5.240   5.786  14.693 -0.2146 -0.4266 -0.1376
 1779TIP3    H126828   5.330   5.808  14.719  0.3119 -0.6485 -1.6520
 1779TIP3    H226829   5.208   5.730  14.763  0.6922 -0.0532  0.6108
 1780TIP3   OH226830   2.909   3.148   0.874  0.1091  0.6429 -0.3223
 1780TIP3    H126831   2.996   3.130   0.911 -0.0297  0.8205  0.0983
 1780TIP3    H226832   2.926   3.166   0.782  0.5596  0.9424 -0.1870
 1781TIP3   OH226833   3.446   0.717  15.491 -0.1815  0.1601  0.3456
 1781TIP3    H126834   3.375   0.738  15.431  0.0069 -0.2211 -0.0106
 1781TIP3    H226835   3.506   0.791  15.484  0.1721 -0.1877 -0.4414
 1782TIP3   OH226836   1.226   5.029  12.623 -0.9311  0.0683  0.7487
 1782TIP3    H126837   1.258   5.119  12.617 -0.5498 -0.0014  1.6280
 1782TIP3    H226838   1.136   5.033  12.590 -1.0020  0.8193  1.0267
 1783TIP3   OH226839   6.478   1.949  12.673  1.0109 -0.2777 -0.1326
 1783TIP3    H126840   6.541   1.907  12.732  0.3784  1.2994  1.7836
 1783TIP3    H226841   6.520   2.031  12.648  0.6899 -0.3076 -0.8021
 1784TIP3   OH226842   3.252   0.712   0.002  0.6844  0.2028 -0.0183
 1784TIP3    H126843   3.305   0.683   0.076  0.1605 -0.1587  0.2281
 1784TIP3    H226844   3.308   0.700  -0.074  1.0558  0.1011  0.2693
 1785TIP3   OH226845   2.306   6.720  14.798 -0.2376  0.2249  0.2383
 1785TIP3    H126846   2.213   6.740  14.789 -0.5867  0.6602  3.5690
 1785TIP3    H226847   2.351   6.791  14.752 -1.4838  0.0188 -1.3946
 1786TIP3   OH226848   4.991   6.092   4.164 -0.2453  0.6721  0.4287
 1786TIP3    H126849   4.896   6.082   4.157 -0.1564  0.8111 -1.1776
 1786TIP3    H226850   5.014   6.041   4.242 -1.6801  1.0454  1.1411
 1787TIP3   OH226851   3.731   5.950   5.237 -0.0959 -0.0154  0.2530
 1787TIP3    H126852   3.701   6.040   5.245 -0.0044  0.0338  0.0509
 1787TIP3    H226853   3.705   5.908   5.319 -0.7921  0.0072  0.0507
 1788TIP3   OH226854   4.057   6.113   3.916  0.8415 -0.7909  0.0420
 1788TIP3    H126855   4.037   6.173   3.844 -4.4829 -2.3961 -0.2305
 1788TIP3    H226856   4.051   6.167   3.995 -0.7891 -0.2828 -0.3841
 1789TIP3   OH226857   2.128   4.937   5.191 -0.2924  0.0382  0.0902
 1789TIP3    H126858   2.111   4.932   5.097 -0.7827  1.0268  0.1144
 1789TIP3    H226859   2.204   4.995   5.199  0.0397 -0.4195  0.2790
 1790TIP3   OH226860   4.198   2.265  15.371  0.4292  0.2283 -0.4693
 1790TIP3    H126861   4.125   2.204  15.383 -0.9343  1.9328  0.4141
 1790TIP3    H226862   4.265   2.214  15.326 -0.5203 -1.9896  0.4886
 1791TIP3   OH226863   6.642   5.849  15.500  0.2756 -0.4097 -0.1966
 1791TIP3    H126864   6.733   5.843  15.532 -0.4445  0.9194  2.3516
 1791TIP3    H226865   6.598   5.774  15.541 -0.3921  0.6143  1.0191
 1792TIP3   OH226866   2.394   0.159  12.773  0.2530  0.7960  0.1801
 1792TIP3    H126867   2.418   0.179  12.682  0.4514 -1.4048 -0.3090
 1792TIP3    H226868   2.299   0.161  12.773  0.2293  3.4152  0.6267
 1793TIP3   OH226869   3.610   4.712   0.132 -0.7811 -0.7191 -0.9222
 1793TIP3    H126870   3.599   4.805   0.151  0.2261 -0.4141 -1.7489
 1793TIP3    H226871   3.539   4.669   0.179 -2.2598  0.6195 -1.8486
 1794TIP3   OH226872   4.883   2.514  16.804  0.3140  0.1971 -0.3278
 1794TIP3    H126873   4.913   2.439  16.753 -0.7668  0.5450 -1.5280
 1794TIP3    H226874   4.926   2.589  16.762  0.8614  0.3169  0.4401
 1795TIP3   OH226875   3.930   2.359  15.541  0.3859  0.0414 -0.0959
 1795TIP3    H126876   3.916   2.322  15.454 -2.1636  0.9840 -0.1728
 1795TIP3    H226877   3.856   2.328  15.593  0.6845  1.2375  1.1070
 1796TIP3   OH226878   1.939   1.357   3.129 -0.2182 -0.3733  0.7347
 1796TIP3    H126879   2.005   1.308   3.081  0.3769  1.2635 -0.2007
 1796TIP3    H226880   1.988   1.411   3.190 -0.6374  0.9590 -0.0555
 1797TIP3   OH226881   2.845   6.702  14.799  0.0892  0.1148 -0.4230
 1797TIP3    H126882   2.865   6.761  14.872  0.4901 -0.6101  0.0665
 1797TIP3    H226883   2.930   6.688  14.756 -0.0849  0.2544 -0.8108
 1798TIP3   OH226884   3.532   6.486   5.682 -0.1568  0.0291  0.0969
 1798TIP3    H126885   3.490   6.402   5.701  1.4276 -1.4943 -2.4829
 1798TIP3    H226886   3.494   6.514   5.599 -0.0097  1.4147  0.4721
 1799TIP3   OH226887   1.048   5.907   2.566  0.2933  0.1710  0.5398
 1799TIP3    H126888   1.063   5.899   2.660  1.2116 -0.0761  0.3833
 1799TIP3    H226889   1.032   5.817   2.536  0.5738  0.1784  0.3676
 1800TIP3   OH226890   5.994   1.797   2.629 -0.5916  0.2960 -0.4357
 1800TIP3    H126891   6.071   1.799   2.686 -0.3293 -2.5568 -0.5427
 1800TIP3    H226892   6.029   1.812   2.542 -0.3925  0.5959 -0.3064
 1801TIP3   OH226893   0.773   2.441  14.393 -0.1031 -0.5042  0.5379
 1801TIP3    H126894   0.811   2.501  14.457 -1.7128  0.7285  0.3960
 1801TIP3    H226895   0.834   2.444  14.319 -1.8097  3.9539 -1.0581
 1802TIP3   OH226896   2.927   4.845  13.980 -0.4373  0.0523  0.2969
 1802TIP3    H126897   2.877   4.926  13.968 -0.3822 -0.0673 -0.8512
 1802TIP3    H226898   3.017   4.875  13.990 -0.3916  0.1272 -0.3194
 1803TIP3   OH226899   3.875   2.727  15.943 -0.6216  0.4495  0.2382
 1803TIP3    H126900   3.824   2.647  15.932  0.3742  0.0537 -2.4088
 1803TIP3    H226901   3.845   2.765  16.025 -1.9363 -2.0422  0.9891
 1804TIP3   OH226902   5.159   4.097   2.318 -0.3368 -0.0258  0.4785
 1804TIP3    H126903   5.212   4.128   2.391 -0.7573  1.4320  0.1996
 1804TIP3    H226904   5.206   4.020   2.285  1.8173  1.3725  0.0498
 1805TIP3   OH226905   1.081   6.400   1.392 -0.6473 -0.2417  0.2886
 1805TIP3    H126906   0.998   6.383   1.436 -0.8040 -0.4753 -0.0918
 1805TIP3    H226907   1.065   6.378   1.300 -0.9033  2.1095 -0.2816
 1806TIP3   OH226908   1.349   4.384   2.943  0.6557 -0.0925  0.7617
 1806TIP3    H126909   1.373   4.300   2.903  1.6174  0.2990  0.4820
 1806TIP3    H226910   1.405   4.448   2.898  0.3544  0.6159  1.3834
 1807TIP3   OH226911   3.819   3.626   0.139 -0.1707 -0.1167  0.0017
 1807TIP3    H126912   3.865   3.564   0.082  1.3533  0.6739  0.2930
 1807TIP3    H226913   3.833   3.711   0.097 -1.9009  0.0978 -0.1877
 1808TIP3   OH226914   0.014   3.162   1.312  0.1094 -0.2980 -0.3884
 1808TIP3    H126915   0.005   3.236   1.371 -1.7513 -0.9206  0.1745
 1808TIP3    H226916   0.046   3.200   1.230  2.4796  0.6148  0.8829
 1809TIP3   OH226917   0.635   6.358  12.047 -0.4036 -0.4066 -0.4050
 1809TIP3    H126918   0.625   6.332  12.139 -1.8374  0.4027 -0.3106
 1809TIP3    H226919   0.673   6.445  12.050  0.9322 -0.9488 -0.6454
 1810TIP3   OH226920   1.832   3.363  13.401 -0.2466  0.1772  0.3073
 1810TIP3    H126921   1.840   3.304  13.476  0.3617  0.9217  0.8495
 1810TIP3    H226922   1.786   3.312  13.335  1.5169 -1.4377  0.2213
 1811TIP3   OH226923   2.366   4.416   2.195  0.0272 -0.1355  0.2104
 1811TIP3    H126924   2.368   4.350   2.125 -0.5219  0.1424 -0.0681
 1811TIP3    H226925   2.437   4.476   2.172  1.0351 -1.0241  0.8706
 1812TIP3   OH226926   0.027   6.243   5.873 -0.0842 -0.0667 -0.0866
 1812TIP3    H126927  -0.069   6.250   5.873 -0.2438 -1.5509  0.9880
 1812TIP3    H226928   0.057   6.330   5.899 -1.3087 -0.2987  2.5218
 1813TIP3   OH226929   0.879   6.058   0.691 -0.3001 -1.1519 -0.2171
 1813TIP3    H126930   0.856   6.116   0.764  1.4748  1.1247 -1.3378
 1813TIP3    H226931   0.941   5.995   0.729  0.1602 -0.3536  0.3826
 1814TIP3   OH226932   1.111   6.495  13.627 -0.3235 -0.0821  0.1668
 1814TIP3    H126933   1.048   6.426  13.649 -1.3931  1.3641  1.8836
 1814TIP3    H226934   1.180   6.449  13.578 -1.7502 -2.0578 -0.1240
 1815TIP3   OH226935   5.918   1.320  15.716 -0.4344 -0.3694 -0.2669
 1815TIP3    H126936   5.927   1.403  15.668 -1.2985 -0.1539 -0.0822
 1815TIP3    H226937   5.908   1.346  15.807  0.4649 -0.7447 -0.0541
 1816TIP3   OH226938   3.896   2.257   3.175 -0.2924  0.4428 -0.5315
 1816TIP3    H126939   3.880   2.285   3.085 -1.1717  1.5779 -0.0393
 1816TIP3    H226940   3.958   2.321   3.210 -1.5742  1.2567  0.3034
 1817TIP3   OH226941   3.460   1.085  14.087 -0.2985  0.2503 -0.3673
 1817TIP3    H126942   3.482   1.169  14.128 -0.8658  0.6596 -0.8628
 1817TIP3    H226943   3.482   1.097  13.995 -1.4198  0.2659 -0.6546
 1818TIP3   OH226944   5.353   0.655   5.378 -0.3803 -0.2062  0.4596
 1818TIP3    H126945   5.330   0.575   5.426 -1.4321  0.5832  1.3019
 1818TIP3    H226946   5.440   0.636   5.342  0.4945 -0.8256  2.7216
 1819TIP3   OH226947   3.139   2.498  14.837  0.2387  0.1998 -0.2881
 1819TIP3    H126948   3.221   2.529  14.797  0.0650 -0.0437 -0.8408
 1819TIP3    H226949   3.099   2.576  14.874  0.0547  0.5619 -1.2243
 1820TIP3   OH226950   5.370   3.045  10.889 -0.3264 -0.2326  0.3308
 1820TIP3    H126951   5.298   3.055  10.951 -1.8513 -0.2029 -1.3641
 1820TIP3    H226952   5.368   3.124  10.836  0.1708 -0.7693 -0.5273
 1821TIP3   OH226953   0.514   5.624   0.894  0.1254  0.4299 -0.0463
 1821TIP3    H126954   0.459   5.556   0.932  1.0051 -0.1573  0.2291
 1821TIP3    H226955   0.600   5.582   0.885  0.2708  0.9743 -1.4594
 1822TIP3   OH226956   0.020   4.073  10.528  0.3074  0.0866 -0.2275
 1822TIP3    H126957  -0.037   4.147  10.547  0.7160  0.3727 -0.1020
 1822TIP3    H226958  -0.016   4.035  10.448  0.3445  0.6743 -0.5295
 1823TIP3   OH226959   1.652   1.023   0.966  1.0666  0.4851 -0.5213
 1823TIP3    H126960   1.735   1.018   1.013  0.6628 -1.5787  0.0706
 1823TIP3    H226961   1.634   0.933   0.937 -1.7351  0.4880  0.8208
 1824TIP3   OH226962   6.137   2.470  13.287 -0.2807  0.0107  0.1472
 1824TIP3    H126963   6.136   2.509  13.200  3.2140  2.2749  0.9224
 1824TIP3    H226964   6.049   2.488  13.322 -1.1195  0.7945 -2.1546
 1825TIP3   OH226965   5.293   5.584   2.892  0.6048  0.3336 -0.0301
 1825TIP3    H126966   5.282   5.642   2.817 -0.8859  1.1112  0.7277
 1825TIP3    H226967   5.279   5.641   2.968  2.0539 -0.4317  0.8636
 1826TIP3   OH226968   6.090   6.311   5.799  0.4606 -0.6468 -0.1520
 1826TIP3    H126969   6.024   6.381   5.799 -0.0809 -1.1465 -0.7654
 1826TIP3    H226970   6.089   6.278   5.889 -0.3140 -0.8216 -0.2195
 1827TIP3   OH226971   4.667   4.930  12.447 -0.3178 -0.2488 -0.1127
 1827TIP3    H126972   4.751   4.910  12.491 -0.2062 -0.4570 -0.4204
 1827TIP3    H226973   4.672   5.024  12.430  0.1801 -0.3962 -0.8122
 1828TIP3   OH226974   4.675   4.473  15.153 -0.1109 -0.5934  0.1501
 1828TIP3    H126975   4.720   4.390  15.135 -0.7643 -1.3056  1.6190
 1828TIP3    H226976   4.642   4.501  15.068  0.6944 -1.4951 -0.4830
 1829TIP3   OH226977   2.769   6.796  11.790 -0.0692 -0.1666  0.5039
 1829TIP3    H126978   2.725   6.878  11.813 -2.5509 -0.7847 -1.5450
 1829TIP3    H226979   2.752   6.738  11.864 -0.1402  0.5215  1.0367
 1830TIP3   OH226980   2.597   6.319  11.569  0.1458  0.3323  0.3979
 1830TIP3    H126981   2.625   6.408  11.592  1.8973  0.0151 -0.3247
 1830TIP3    H226982   2.662   6.289  11.505 -1.6697 -0.6800 -1.0702
 1831TIP3   OH226983   1.903   0.297  10.602  0.7001 -0.1355 -0.0113
 1831TIP3    H126984   1.901   0.202  10.613 -1.3888 -0.1302  0.0873
 1831TIP3    H226985   1.888   0.310  10.508  2.7343  0.1011 -0.3408
 1832TIP3   OH226986   3.800   3.194   2.265  0.3906  0.2189 -0.4410
 1832TIP3    H126987   3.722   3.159   2.308  0.0011  0.5304 -0.8849
 1832TIP3    H226988   3.803   3.149   2.181 -0.3008  1.4489 -1.1597
 1833TIP3   OH226989   0.482   4.108   3.222 -0.0041 -0.7847 -0.4689
 1833TIP3    H126990   0.540   4.092   3.147  1.2457 -0.0978  0.3112
 1833TIP3    H226991   0.394   4.114   3.184  0.6662  0.1112 -1.9585
 1834TIP3   OH226992   2.911   4.281   5.506 -0.3974 -0.2108  0.6040
 1834TIP3    H126993   2.851   4.232   5.451  0.3498  0.5175 -0.9351
 1834TIP3    H226994   2.910   4.236   5.590 -0.9453 -1.8765 -0.2601
 1835TIP3   OH226995   1.782   0.152   1.764  0.3028 -0.4187 -0.1231
 1835TIP3    H126996   1.707   0.190   1.719  0.1593  0.1856  0.6138
 1835TIP3    H226997   1.759   0.154   1.856  0.4232 -2.0142 -0.0279
 1836TIP3   OH226998   3.662   4.099  15.306 -0.6970 -0.2171  0.5131
 1836TIP3    H126999   3.584   4.147  15.276 -1.6687 -0.5425  2.3430
 1836TIP3    H227000   3.725   4.168  15.327 -0.2599  0.0353 -1.4456
 1837TIP3   OH227001   6.735   4.886  13.879  0.0309  0.7421 -0.0104
 1837TIP3    H127002   6.826   4.882  13.850 -0.1652  1.1340 -0.7026
 1837TIP3    H227003   6.697   4.958  13.829 -0.7580  0.3475  0.0082
 1838TIP3   OH227004   5.789   3.055   4.479  0.1387 -0.4733  0.1458
 1838TIP3    H127005   5.731   2.988   4.442  0.7126 -0.6771 -0.3947
 1838TIP3    H227006   5.751   3.075   4.565 -2.5500  1.6321 -1.3787
 1839TIP3   OH227007   6.620   4.892  11.708 -0.0218  0.0085 -0.5410
 1839TIP3    H127008   6.584   4.892  11.620 -0.2070  0.9130 -0.4733
 1839TIP3    H227009   6.577   4.818  11.751  0.5455 -0.8300 -1.3835
 1840TIP3   OH227010   6.482   5.937   3.890 -0.3795  0.0228  0.1412
 1840TIP3    H127011   6.541   5.865   3.870 -0.6060 -0.2295  0.3675
 1840TIP3    H227012   6.419   5.900   3.952 -2.0993 -0.3362 -1.7291
 1841TIP3   OH227013   0.263   5.376  13.846  0.4323 -0.3012 -0.4627
 1841TIP3    H127014   0.305   5.323  13.914 -0.2467 -0.7474 -0.3821
 1841TIP3    H227015   0.195   5.425  13.892  0.6666  0.1914 -0.6417
 1842TIP3   OH227016   0.002   4.481   3.996 -0.5696  0.0052 -0.0846
 1842TIP3    H127017  -0.072   4.459   4.053  0.3583  0.3307  1.2878
 1842TIP3    H227018  -0.027   4.560   3.950 -1.1295  0.0553  0.3326
 1843TIP3   OH227019   4.514   4.959   0.082  0.7477  0.2406 -0.0048
 1843TIP3    H127020   4.559   4.876   0.067 -0.4593 -0.3117 -0.7172
 1843TIP3    H227021   4.583   5.018   0.114  2.0790 -0.4182 -1.5199
 1844TIP3   OH227022   4.232   0.981   4.462  0.2786  0.8271 -0.1818
 1844TIP3    H127023   4.227   1.067   4.504  0.1071  0.1272  1.2793
 1844TIP3    H227024   4.320   0.949   4.481 -0.5762 -0.5362  1.8462
 1845TIP3   OH227025   6.686   6.559   4.789 -0.1646 -0.2445 -0.0882
 1845TIP3    H127026   6.597   6.541   4.758 -0.7847 -0.8610  1.8783
 1845TIP3    H227027   6.691   6.655   4.791 -0.9365 -0.2006  0.1624
 1846TIP3   OH227028   4.240   1.947   0.115  0.4558  0.2938  0.1857
 1846TIP3    H127029   4.271   2.013   0.177 -2.0247  2.7406 -0.9706
 1846TIP3    H227030   4.243   1.865   0.164  0.7095  1.7590  2.8001
 1847TIP3   OH227031   0.855   0.375   0.044 -0.0117  0.6555  0.1344
 1847TIP3    H127032   0.905   0.300   0.077  0.4017  1.7926  2.2545
 1847TIP3    H227033   0.915   0.420  -0.015  0.9196  1.0662  1.3557
 1848TIP3   OH227034   2.949   1.909  16.483 -0.2784  0.2193  0.0787
 1848TIP3    H127035   2.867   1.865  16.463  0.3772 -2.0038  1.8432
 1848TIP3    H227036   2.966   1.887  16.575  1.4633  2.0252  0.2628
 1849TIP3   OH227037   2.854   0.451  15.361 -0.8394  0.7753  0.4516
 1849TIP3    H127038   2.835   0.388  15.291 -0.8804 -0.4261  1.5115
 1849TIP3    H227039   2.825   0.407  15.441  0.1446  1.7085  1.3387
 1850TIP3   OH227040   6.075   3.624  11.626 -0.2587 -0.2686  0.1312
 1850TIP3    H127041   5.993   3.634  11.676  0.7740  0.6426  1.7118
 1850TIP3    H227042   6.093   3.712  11.591  0.1163 -0.4395 -0.1112
 1851TIP3   OH227043   3.019   1.856   1.318  0.2187 -0.1648  1.0118
 1851TIP3    H127044   2.936   1.896   1.290  1.4748  1.2295 -0.9399
 1851TIP3    H227045   3.060   1.924   1.372  0.4993 -0.5167  1.2426
 1852TIP3   OH227046   0.952   5.828  15.631  0.2360 -0.1375 -0.1283
 1852TIP3    H127047   1.033   5.860  15.590 -0.0362  0.0449 -0.5342
 1852TIP3    H227048   0.978   5.748  15.676  1.1403  1.1307  1.7265
 1853TIP3   OH227049   5.469   5.927  13.173 -0.4079 -0.5950 -0.1560
 1853TIP3    H127050   5.526   5.946  13.099  0.2525 -0.4961  0.3705
 1853TIP3    H227051   5.429   6.012  13.194  1.8834  0.1606  1.6400
 1854TIP3   OH227052   1.703   0.725  14.390 -0.4640  0.1084  0.3406
 1854TIP3    H127053   1.627   0.703  14.337 -0.3600 -0.2768  0.3433
 1854TIP3    H227054   1.668   0.747  14.476 -0.4841 -1.5266  0.7828
 1855TIP3   OH227055   5.229   5.357   4.353 -0.4546  0.7266  0.0597
 1855TIP3    H127056   5.144   5.385   4.388 -0.0780  0.7794  0.9676
 1855TIP3    H227057   5.262   5.294   4.418  0.9174  1.9056  0.5544
 1856TIP3   OH227058   6.128   5.573   3.264 -0.3329 -0.3425 -0.6949
 1856TIP3    H127059   6.189   5.533   3.202 -1.9053 -1.0416 -1.8755
 1856TIP3    H227060   6.112   5.504   3.329 -0.2914 -0.3715 -0.7157
 1857TIP3   OH227061   0.753   6.002   3.441  0.4389  0.9745  0.9057
 1857TIP3    H127062   0.715   5.923   3.404  1.2639  0.9525  0.0561
 1857TIP3    H227063   0.839   5.975   3.473  0.9845  1.6272  0.0585
 1858TIP3   OH227064   3.318   2.785   0.776 -0.9911 -0.1409 -0.1786
 1858TIP3    H127065   3.391   2.729   0.799  0.5101  2.1167  0.9596
 1858TIP3    H227066   3.241   2.729   0.782  0.4343 -2.1043  0.5636
 1859TIP3   OH227067   5.673   0.862   0.419 -0.3597  0.1105 -0.3916
 1859TIP3    H127068   5.589   0.894   0.453 -0.3837  0.9579 -1.2281
 1859TIP3    H227069   5.730   0.938   0.420 -0.3090  0.1228 -2.0528
 1860TIP3   OH227070   6.300   6.698  15.361 -0.1111 -0.0301  0.1470
 1860TIP3    H127071   6.352   6.757  15.415  0.0529 -1.0422  1.1368
 1860TIP3    H227072   6.269   6.752  15.289 -0.1331  1.3003  1.1207
 1861TIP3   OH227073   6.666   6.631   2.273  0.0836 -0.1789 -0.3932
 1861TIP3    H127074   6.620   6.548   2.283 -1.4102  0.6763  0.1827
 1861TIP3    H227075   6.717   6.641   2.354 -0.7089  0.0262  0.0902
 1862TIP3   OH227076   1.734   6.783  15.923 -0.2617  0.0360 -0.0141
 1862TIP3    H127077   1.717   6.800  16.015 -1.1245  0.0081 -0.1649
 1862TIP3    H227078   1.830   6.787  15.915  0.1518 -3.3645  1.5297
 1863TIP3   OH227079   3.961   0.020  14.908  0.5384  0.3443 -0.1844
 1863TIP3    H127080   3.908  -0.034  14.967  0.2750  0.7954 -0.0033
 1863TIP3    H227081   3.931  -0.006  14.820 -0.3574  0.9602 -0.0724
 1864TIP3   OH227082   4.066   6.091  15.574 -0.2802 -0.3662 -0.3115
 1864TIP3    H127083   4.085   5.997  15.568  0.2315 -0.4082  1.3798
 1864TIP3    H227084   4.150   6.134  15.556 -0.2795 -0.2720 -0.0846
 1865TIP3   OH227085   2.341   5.661  11.730 -0.2256 -0.5173  0.0679
 1865TIP3    H127086   2.396   5.739  11.737  0.2060 -0.8692  0.8340
 1865TIP3    H227087   2.303   5.665  11.643 -0.2768  0.5896  0.1276
 1866TIP3   OH227088   2.147   0.650   2.236 -0.1940  0.0459 -0.0080
 1866TIP3    H127089   2.111   0.709   2.169  0.4234  1.6196  0.9824
 1866TIP3    H227090   2.086   0.657   2.309  0.4276  0.2712  0.4971
 1867TIP3   OH227091   5.121   5.694   5.079  0.7026 -0.0341  0.6418
 1867TIP3    H127092   5.182   5.659   5.144  1.0469 -0.5369  0.0602
 1867TIP3    H227093   5.135   5.788   5.080  0.7310 -0.0421  1.2653
 1868TIP3   OH227094   2.268   4.500   6.072  0.2969  0.3396  0.0533
 1868TIP3    H127095   2.260   4.537   6.160  0.9535  2.3351 -0.6672
 1868TIP3    H227096   2.358   4.520   6.046  0.2804 -0.7324 -0.8743
 1869TIP3   OH227097   6.549   0.330  16.886  0.2162  0.1189  0.5869
 1869TIP3    H127098   6.575   0.340  16.977  2.4459 -2.0092  0.2738
 1869TIP3    H227099   6.549   0.419  16.851  1.3191  0.7755  2.1728
 1870TIP3   OH227100   5.143   4.859   4.516 -0.2900 -0.1664 -0.0593
 1870TIP3    H127101   5.076   4.792   4.528 -0.1776 -0.0295  1.5006
 1870TIP3    H227102   5.192   4.830   4.439 -1.6604 -0.6570 -0.7776
 1871TIP3   OH227103   0.534   4.139  12.520  0.3021 -0.1269 -0.0974
 1871TIP3    H127104   0.473   4.108  12.587  0.1462  0.3684 -0.0028
 1871TIP3    H227105   0.493   4.218  12.485  0.3635 -0.4117 -0.8133
 1872TIP3   OH227106   5.267   3.448   0.232  0.0739 -0.0120 -0.2442
 1872TIP3    H127107   5.196   3.505   0.261  0.1865 -0.1201  0.2614
 1872TIP3    H227108   5.225   3.364   0.213  0.1270 -0.2372  0.5635
 1873TIP3   OH227109   3.490   0.503   4.170 -0.4227 -0.1058  0.2593
 1873TIP3    H127110   3.439   0.510   4.089 -1.1641 -1.0742  0.6207
 1873TIP3    H227111   3.536   0.586   4.177 -1.7541  0.7044 -0.2309
 1874TIP3   OH227112   5.708   5.265   0.902  0.0230  0.2336  0.2030
 1874TIP3    H127113   5.665   5.183   0.926 -0.7765  1.2315  2.5172
 1874TIP3    H227114   5.635   5.324   0.880  0.0440  1.7809  3.6312
 1875TIP3   OH227115   4.638   1.196   3.251  0.2972 -0.3772  0.0724
 1875TIP3    H127116   4.726   1.168   3.277 -0.1435 -1.2201  0.7175
 1875TIP3    H227117   4.587   1.115   3.248 -0.3001  0.0185 -0.9595
 1876TIP3   OH227118   1.232   1.988   0.337  0.3345  0.2517  0.3133
 1876TIP3    H127119   1.317   2.015   0.371  0.8078 -0.8527  0.0374
 1876TIP3    H227120   1.252   1.925   0.268 -0.7034  0.1492  0.0848
 1877TIP3   OH227121   6.702   1.614   1.893 -0.2734 -0.1314  0.0272
 1877TIP3    H127122   6.667   1.665   1.966 -2.2711 -2.4632  0.8006
 1877TIP3    H227123   6.678   1.664   1.815 -2.2080  0.1146  0.7465
 1878TIP3   OH227124   4.123   2.738  15.366  0.1229 -0.2923 -0.6461
 1878TIP3    H127125   4.120   2.807  15.300 -0.5727  1.6199  1.2450
 1878TIP3    H227126   4.084   2.778  15.444  1.5469 -2.1758  1.1559
 1879TIP3   OH227127   0.085   3.597   2.772  0.5098  0.0248  0.4678
 1879TIP3    H127128   0.180   3.602   2.772  0.5603 -0.3475  2.0067
 1879TIP3    H227129   0.063   3.558   2.857 -1.0041 -0.0819  0.0614
 1880TIP3   OH227130   6.577   5.080  12.181 -0.3405  0.6428 -0.2530
 1880TIP3    H127131   6.530   5.013  12.230  0.2078  0.1004 -0.4545
 1880TIP3    H227132   6.514   5.110  12.115 -0.9567  1.1266  0.5496
 1881TIP3   OH227133   5.333   4.942   3.626  0.1202  0.2148  0.2406
 1881TIP3    H127134   5.417   4.946   3.672  0.3597 -1.0039 -0.0469
 1881TIP3    H227135   5.284   5.017   3.659  0.7377  0.0693  1.5808
 1882TIP3   OH227136   0.883   5.883   6.295  0.3088 -0.4257  0.1062
 1882TIP3    H127137   0.842   5.833   6.366 -1.9605 -1.8853 -2.0154
 1882TIP3    H227138   0.962   5.834   6.274 -0.2225 -1.3268  0.1444
 1883TIP3   OH227139   6.351   0.117  12.058  0.1640  0.0674  0.2865
 1883TIP3    H127140   6.385   0.170  12.130  0.6319  0.2621 -0.0690
 1883TIP3    H227141   6.308   0.043  12.100 -0.7425  0.8618  0.8112
 1884TIP3   OH227142   5.682   5.311   3.650  0.7869  0.2506  0.3931
 1884TIP3    H127143   5.632   5.386   3.618 -1.6759 -1.3969  0.1252
 1884TIP3    H227144   5.698   5.331   3.742  1.7444  1.8683 -0.0913
 1885TIP3   OH227145   5.435   3.953  13.409  0.2748 -0.8484  0.2158
 1885TIP3    H127146   5.531   3.959  13.412  0.2645 -0.5308 -0.0861
 1885TIP3    H227147   5.405   4.034  13.449  0.1286 -0.9334  0.2785
 1886TIP3   OH227148   4.524   1.073  15.600  0.2610  0.0428  0.0681
 1886TIP3    H127149   4.611   1.036  15.610  0.9635  1.3709 -0.8499
 1886TIP3    H227150   4.509   1.122  15.681 -0.0962 -1.0431  0.6808
 1887TIP3   OH227151   6.046   4.318  11.952 -0.4619  0.2247 -0.4748
 1887TIP3    H127152   6.016   4.379  12.020 -1.6882  0.0613 -0.8450
 1887TIP3    H227153   5.993   4.341  11.875 -1.8598 -2.0886 -0.2876
 1888TIP3   OH227154   0.877   6.620  10.581 -0.3199  0.5638 -0.0726
 1888TIP3    H127155   0.929   6.693  10.616  0.5658  0.6142 -1.4289
 1888TIP3    H227156   0.835   6.655  10.503  2.1111 -0.9730 -2.2248
 1889TIP3   OH227157   1.701   6.163  12.582 -0.0505 -0.6647  0.0932
 1889TIP3    H127158   1.751   6.224  12.637 -0.8063 -0.1476  0.2155
 1889TIP3    H227159   1.765   6.096  12.558  1.3735  1.1960 -1.6836
 1890TIP3   OH227160   3.093   6.090  16.729  0.3392  0.0642 -0.2527
 1890TIP3    H127161   3.043   6.022  16.774  0.2392  0.7951  0.7742
 1890TIP3    H227162   3.081   6.169  16.782  2.0701  0.4098 -0.3076
 1891TIP3   OH227163   4.955   1.982   1.466  0.0546 -0.5463 -0.4702
 1891TIP3    H127164   4.965   1.993   1.561  1.5783  0.9382 -0.7671
 1891TIP3    H227165   4.889   1.913   1.457 -1.8368  0.8384  1.6612
 1892TIP3   OH227166   6.406   4.788  14.098 -0.6496  0.1071  0.3253
 1892TIP3    H127167   6.349   4.732  14.045 -0.3958 -0.7066  0.8906
 1892TIP3    H227168   6.347   4.854  14.135 -1.2772 -0.8178  1.0285
 1893TIP3   OH227169   3.125   1.980  16.075  0.1060  0.2854 -0.3974
 1893TIP3    H127170   3.036   1.971  16.108 -0.1431  0.2143 -1.0609
 1893TIP3    H227171   3.128   1.923  15.998  0.9179 -0.1950 -0.0265
 1894TIP3   OH227172   5.698   2.362   2.826 -0.0246 -0.4760 -0.0554
 1894TIP3    H127173   5.604   2.348   2.812 -0.3407 -0.6096  1.9562
 1894TIP3    H227174   5.721   2.430   2.763 -1.8172  0.6350  0.3900
 1895TIP3   OH227175   0.077   4.507  11.179  0.5831 -0.0887 -0.3518
 1895TIP3    H127176   0.002   4.506  11.239  0.3184 -0.0761 -0.6777
 1895TIP3    H227177   0.086   4.598  11.153  1.7381  0.1968  0.9413
 1896TIP3   OH227178   5.240   4.745  14.345  0.1726  0.4468 -0.5070
 1896TIP3    H127179   5.235   4.828  14.393  0.6095 -0.0317  0.3976
 1896TIP3    H227180   5.254   4.770  14.254 -0.1209  1.3686 -0.3068
 1897TIP3   OH227181   5.524   1.088   5.722  0.1672  0.3633 -0.4127
 1897TIP3    H127182   5.565   1.002   5.719  0.2063  0.3970 -0.8460
 1897TIP3    H227183   5.446   1.080   5.667 -0.2692  0.3793  0.1870
 1898TIP3   OH227184   3.424   4.026  15.699  0.2248  0.3524  0.0712
 1898TIP3    H127185   3.495   3.998  15.641 -1.2272  0.9892 -2.0894
 1898TIP3    H227186   3.363   3.953  15.699  0.0744  0.4746  0.5806
 1899TIP3   OH227187   5.318   4.708   1.433  0.4703  0.0352 -0.6179
 1899TIP3    H127188   5.414   4.716   1.441  0.4158  1.1290 -0.9182
 1899TIP3    H227189   5.304   4.620   1.398  1.2849 -0.7070  0.7939
 1900TIP3   OH227190   4.481   5.271   0.148  0.3698  0.4578 -0.0774
 1900TIP3    H127191   4.434   5.327   0.210 -0.2731 -0.4496  0.2841
 1900TIP3    H227192   4.545   5.225   0.201  0.8461  0.7901 -0.3592
 1901TIP3   OH227193   2.946   1.765  14.677  0.4336  0.8818 -0.0328
 1901TIP3    H127194   2.986   1.755  14.590 -0.7937 -1.2881 -0.4175
 1901TIP3    H227195   2.892   1.843  14.669 -0.5358  0.1036 -1.6398
 1902TIP3   OH227196   0.062   6.709  11.841  0.1423  0.7203 -0.5580
 1902TIP3    H127197   0.158   6.703  11.846  0.0037 -0.6538  2.0326
 1902TIP3    H227198   0.034   6.724  11.931 -2.1372  0.3871 -1.1504
 1903TIP3   OH227199   4.194   6.786   0.722  0.4665  0.4270 -0.2824
 1903TIP3    H127200   4.149   6.740   0.651 -1.7951  0.6434  0.9166
 1903TIP3    H227201   4.262   6.725   0.750 -0.7842 -1.1077 -0.4395
 1904TIP3   OH227202   1.008   2.915   1.786  0.2748  0.5762 -0.4795
 1904TIP3    H127203   1.047   2.830   1.764 -2.0119 -0.8988  0.8516
 1904TIP3    H227204   0.939   2.895   1.849 -1.3228  3.2658 -1.2068
 1905TIP3   OH227205   4.532   3.766   1.050 -0.0804 -0.4611 -0.0678
 1905TIP3    H127206   4.489   3.711   0.984 -1.4010 -0.5224  0.8176
 1905TIP3    H227207   4.620   3.780   1.015  0.0279 -2.4527 -0.7150
 1906TIP3   OH227208   3.068   1.597   3.091 -0.2819 -0.0892  0.2348
 1906TIP3    H127209   3.151   1.593   3.043  0.3399  0.9840  1.1481
 1906TIP3    H227210   3.002   1.608   3.023  0.3516 -0.7102 -0.5002
 1907TIP3   OH227211   3.367   5.836   2.968 -0.5665 -0.2037  0.0730
 1907TIP3    H127212   3.382   5.883   3.050 -1.5490 -1.8363  1.2460
 1907TIP3    H227213   3.291   5.781   2.986 -1.3566  0.0258 -2.2281
 1908TIP3   OH227214   4.513   1.875   0.431  0.1308  0.3297 -0.3523
 1908TIP3    H127215   4.445   1.826   0.478 -0.2022  0.2850 -0.8739
 1908TIP3    H227216   4.509   1.963   0.468 -1.9461  1.0439 -2.0745
 1909TIP3   OH227217   5.462   6.447  12.408  0.6322  0.1126  0.1301
 1909TIP3    H127218   5.499   6.475  12.324  0.6304  1.1685  0.4688
 1909TIP3    H227219   5.507   6.365  12.427  0.0367 -0.5765 -1.2998
 1910TIP3   OH227220   4.522   4.946  16.260 -0.4673 -0.7035  0.5070
 1910TIP3    H127221   4.523   5.027  16.209  2.0113 -1.4432 -0.7374
 1910TIP3    H227222   4.461   4.889  16.212 -2.3299  0.3667  1.4610
 1911TIP3   OH227223   2.957   0.005  17.353  0.7817 -0.2363  0.4293
 1911TIP3    H127224   2.999  -0.080  17.344 -0.7462 -1.1466  1.4474
 1911TIP3    H227225   2.916   0.003  17.440  0.3899  1.3922  0.3218
 1912TIP3   OH227226   2.020   3.483   0.563  0.1132 -0.1410  0.3813
 1912TIP3    H127227   2.061   3.567   0.585  0.3957 -0.4677  1.1399
 1912TIP3    H227228   1.969   3.501   0.484 -0.0652  0.8133  0.7007
 1913TIP3   OH227229   0.076   4.327  16.482 -0.1634  0.3390 -0.6407
 1913TIP3    H127230   0.112   4.383  16.413 -0.7695  0.6451 -0.7160
 1913TIP3    H227231   0.122   4.243  16.471  0.3352  0.6429 -0.8906
 1914TIP3   OH227232   6.743   5.090  14.883 -0.2635 -0.1746 -0.5125
 1914TIP3    H127233   6.691   5.016  14.915 -1.6591 -0.0628 -2.3810
 1914TIP3    H227234   6.698   5.167  14.917  1.3900 -0.0991  1.7315
 1915TIP3   OH227235   0.897   2.990   5.592  0.0089  0.1972 -0.5091
 1915TIP3    H127236   0.979   3.022   5.629 -0.1350  0.6901 -0.6184
 1915TIP3    H227237   0.854   2.944   5.665 -0.4152  1.4283  0.0413
 1916TIP3   OH227238   1.517   3.252   5.819  0.5413 -0.2272 -0.1925
 1916TIP3    H127239   1.555   3.168   5.794  0.0963 -0.5917  0.3297
 1916TIP3    H227240   1.522   3.305   5.739 -2.7236 -2.0100 -1.8018
 1917TIP3   OH227241   5.463   4.419  13.471 -0.2166 -0.1783 -0.9383
 1917TIP3    H127242   5.452   4.506  13.433 -0.0782 -0.0329 -0.6512
 1917TIP3    H227243   5.501   4.435  13.558  0.3094 -0.5532 -1.0951
 1918TIP3   OH227244   5.737   3.398   1.659 -0.4710 -0.0497 -0.5282
 1918TIP3    H127245   5.795   3.417   1.586  1.2147 -2.2399  0.1199
 1918TIP3    H227246   5.763   3.459   1.728  0.4267 -0.3575 -0.5849
 1919TIP3   OH227247   1.255   1.681   0.585 -0.1384  0.2897 -0.2531
 1919TIP3    H127248   1.210   1.605   0.547 -0.8493  1.7094 -2.4940
 1919TIP3    H227249   1.184   1.741   0.608  0.4240  0.4314  1.2022
 1920TIP3   OH227250   5.717   0.750   3.477 -0.4227 -0.4812 -0.2292
 1920TIP3    H127251   5.688   0.837   3.501  1.1576  0.1584 -0.5312
 1920TIP3    H227252   5.788   0.764   3.414 -0.2122 -1.9785 -0.3737
 1921TIP3   OH227253   6.681   0.420  16.526  0.3186  0.5125  0.1479
 1921TIP3    H127254   6.746   0.359  16.561 -1.1128 -1.6595 -0.7947
 1921TIP3    H227255   6.728   0.467  16.457  1.8756  1.6908  1.8926
 1922TIP3   OH227256   6.329   1.567  15.588  0.0180  0.0197 -0.2780
 1922TIP3    H127257   6.418   1.591  15.613  0.6613 -1.8850 -0.5677
 1922TIP3    H227258   6.338   1.482  15.546 -2.0189 -0.4757  0.1889
 1923TIP3   OH227259   5.363   4.286   5.006 -0.0248  0.2694  0.0583
 1923TIP3    H127260   5.454   4.262   4.991  0.4175  0.3870  2.3208
 1923TIP3    H227261   5.349   4.361   4.949  1.5814  0.8338  0.3578
 1924TIP3   OH227262   1.994   2.923   3.324 -0.5290 -0.3236 -0.0831
 1924TIP3    H127263   2.008   2.837   3.362 -1.7058 -2.2475 -3.5349
 1924TIP3    H227264   2.072   2.939   3.270 -0.7787  0.2795 -0.2794
 1925TIP3   OH227265   5.650   5.714  12.914 -0.3171  0.4537  0.2262
 1925TIP3    H127266   5.682   5.773  12.846  3.4376 -1.1066  0.4324
 1925TIP3    H227267   5.560   5.743  12.929  0.3866  4.2893 -1.5912
 1926TIP3   OH227268   5.318   4.623   2.912 -0.8406  0.0051  0.2943
 1926TIP3    H127269   5.283   4.535   2.902  0.3431 -0.2302 -2.5129
 1926TIP3    H227270   5.392   4.613   2.972 -0.8488 -0.8641  0.1637
 1927TIP3   OH227271   2.188   0.119   1.718  0.3050 -0.2567 -0.2035
 1927TIP3    H127272   2.236   0.141   1.638 -1.0395  0.7848 -0.7639
 1927TIP3    H227273   2.174   0.203   1.762 -0.9862 -0.5115 -0.0719
 1928TIP3   OH227274   6.488   6.733   0.104 -0.1829  0.5924 -0.5775
 1928TIP3    H127275   6.492   6.779   0.020  0.0594  1.7947  0.0638
 1928TIP3    H227276   6.564   6.674   0.103 -0.1423  0.6495 -1.1657
 1929TIP3   OH227277   2.923   1.808   5.374  0.4439 -0.0070  0.6722
 1929TIP3    H127278   2.951   1.720   5.401 -0.0476 -0.4496 -0.2138
 1929TIP3    H227279   2.975   1.826   5.296 -1.1779 -0.5576 -0.5991
 1930TIP3   OH227280   0.416   3.953  13.895  0.1511  0.1377  0.2281
 1930TIP3    H127281   0.429   3.872  13.944 -1.4538 -0.1483  0.2286
 1930TIP3    H227282   0.478   4.015  13.935 -0.3520 -0.3797  1.9177
 1931TIP3   OH227283   1.159   4.651  13.260 -0.3310 -0.7076 -0.3077
 1931TIP3    H127284   1.247   4.615  13.272 -0.7064 -1.4501  0.3082
 1931TIP3    H227285   1.146   4.708  13.336 -0.2701 -0.3694 -0.5506
 1932TIP3   OH227286   2.245   5.550   5.609 -0.0155  0.3211  0.4610
 1932TIP3    H127287   2.260   5.468   5.562 -0.1227 -0.1913  1.2991
 1932TIP3    H227288   2.328   5.567   5.655 -0.6194 -0.3930  1.8860
 1933TIP3   OH227289   2.669   1.466   6.502 -0.5732  0.1857 -0.1497
 1933TIP3    H127290   2.718   1.543   6.530 -0.2433  0.4635 -1.4392
 1933TIP3    H227291   2.734   1.396   6.498 -0.0112  0.7776 -2.8102
 1934TIP3   OH227292   0.588   2.871  13.470 -0.7263  0.2815  0.5342
 1934TIP3    H127293   0.559   2.845  13.558 -1.4364  0.2931  0.3071
 1934TIP3    H227294   0.536   2.948  13.449 -0.3114  0.4815  0.2411
 1935TIP3   OH227295   2.116   3.507  12.959 -0.3675  0.3574  0.7183
 1935TIP3    H127296   2.206   3.480  12.972 -0.4157 -0.8368 -1.0812
 1935TIP3    H227297   2.081   3.519  13.047  2.2116  3.3812  1.5126
 1936TIP3   OH227298   4.440   1.825   4.966 -0.0227 -0.0574 -0.3972
 1936TIP3    H127299   4.534   1.816   4.980 -0.3144 -1.2007  1.1345
 1936TIP3    H227300   4.417   1.749   4.911  0.0097  0.5032 -1.2029
 1937TIP3   OH227301   4.775   1.663   3.001  0.4551 -0.2535 -0.1209
 1937TIP3    H127302   4.844   1.728   3.010  0.9623 -0.6570 -1.0438
 1937TIP3    H227303   4.798   1.595   3.065  0.2971  0.1376  0.3578
 1938TIP3   OH227304   4.119   0.374  16.625  0.3518 -0.2834  0.3221
 1938TIP3    H127305   4.191   0.312  16.613  0.5779 -0.2770  1.5215
 1938TIP3    H227306   4.157   0.458  16.599  0.7552 -0.2955  0.8465
 1939TIP3   OH227307   4.442   2.008   2.813 -0.2766  0.0247 -0.5609
 1939TIP3    H127308   4.360   1.978   2.851  1.1402 -0.5751  2.2820
 1939TIP3    H227309   4.485   2.057   2.884  1.6374  0.7089 -2.0919
 1940TIP3   OH227310   5.652   2.440  13.720 -0.7268 -0.1316  0.6281
 1940TIP3    H127311   5.630   2.352  13.751  1.1086 -1.2586 -1.0177
 1940TIP3    H227312   5.747   2.444  13.726 -0.7892  1.8787  0.9215
 1941TIP3   OH227313   0.841   5.916   3.096  0.3282  0.2343 -0.2104
 1941TIP3    H127314   0.822   5.967   3.175 -1.5639 -1.1821  0.3269
 1941TIP3    H227315   0.806   5.970   3.024  1.4324  1.2126 -0.0340
 1942TIP3   OH227316   3.946   4.538  12.904  0.8877 -0.0546 -0.1984
 1942TIP3    H127317   4.001   4.591  12.962 -0.5006 -1.1600  2.2998
 1942TIP3    H227318   3.867   4.591  12.891  0.4404 -0.5392  0.4574
 1943TIP3   OH227319   1.077   6.621   4.411  0.2369 -0.0083 -0.5383
 1943TIP3    H127320   1.096   6.576   4.328  3.2468 -0.4723  0.2657
 1943TIP3    H227321   1.109   6.710   4.398  0.6735 -0.0698  0.0864
 1944TIP3   OH227322   2.371   6.772  15.910 -0.0102 -0.8918 -0.3792
 1944TIP3    H127323   2.405   6.818  15.833 -0.8669  1.2024  0.4160
 1944TIP3    H227324   2.382   6.679  15.889 -1.7275 -0.4819 -3.7604
 1945TIP3   OH227325   2.730   3.343   3.154  0.1957  0.5795  0.1862
 1945TIP3    H127326   2.717   3.411   3.221 -0.1479 -1.1564  1.9848
 1945TIP3    H227327   2.819   3.313   3.167  0.0508  0.0689  0.0124
 1946TIP3   OH227328   0.942   4.437  15.143  0.1894 -0.3060  0.1749
 1946TIP3    H127329   0.903   4.371  15.086 -1.6743  1.1777 -0.4064
 1946TIP3    H227330   0.870   4.465  15.200  0.1369  2.8893 -1.2267
 1947TIP3   OH227331   1.915   1.902   0.918  0.2175 -0.0628 -0.1419
 1947TIP3    H127332   1.898   1.875   0.828 -0.0830 -1.3655  0.2863
 1947TIP3    H227333   1.876   1.833   0.972  2.7357 -0.7683  0.9372
 1948TIP3   OH227334   4.226   4.939  13.127  0.0328 -0.3898  0.3961
 1948TIP3    H127335   4.301   4.992  13.101 -0.5458 -0.5513 -1.7631
 1948TIP3    H227336   4.151   4.979  13.083 -0.8185 -1.5075  0.7656
 1949TIP3   OH227337   6.147   2.935   6.891  0.2156  1.0490  0.1357
 1949TIP3    H127338   6.227   2.890   6.917  1.4705  2.3054 -1.3611
 1949TIP3    H227339   6.092   2.935   6.970  1.0461 -1.1313  0.7640
 1950TIP3   OH227340   1.020   1.750   1.851 -0.5077 -0.5182 -0.3306
 1950TIP3    H127341   1.111   1.739   1.825 -0.5259 -0.8016 -0.2720
 1950TIP3    H227342   0.978   1.788   1.774  0.2641  2.4486  0.5803
 1951TIP3   OH227343   0.055   6.754   5.792  0.2738 -0.4292 -0.5724
 1951TIP3    H127344   0.150   6.760   5.804  0.3123 -2.8428  0.9422
 1951TIP3    H227345   0.024   6.704   5.867 -2.3371  0.8386 -0.6707
 1952TIP3   OH227346   3.913   3.011   2.839  0.9458  0.5114  0.1367
 1952TIP3    H127347   3.862   3.070   2.895  0.7625 -0.2726  0.8205
 1952TIP3    H227348   3.863   3.007   2.757  0.4073  0.4942  0.4605
 1953TIP3   OH227349   4.472   3.929   4.178  0.3477  0.3933  0.6442
 1953TIP3    H127350   4.557   3.886   4.168 -0.7363 -1.3714 -2.1121
 1953TIP3    H227351   4.476   4.005   4.121 -0.4313 -0.6893 -0.9416
 1954TIP3   OH227352   4.010   5.811   3.068 -0.4386  0.4475  0.1800
 1954TIP3    H127353   4.016   5.726   3.111 -0.3937  0.4147  0.1076
 1954TIP3    H227354   4.031   5.794   2.976 -0.5762  0.5108  0.1361
 1955TIP3   OH227355   6.559   2.903  11.745 -0.2882  0.3830 -0.4063
 1955TIP3    H127356   6.601   2.947  11.818  0.7948  1.3174 -1.5530
 1955TIP3    H227357   6.466   2.923  11.755 -0.0208  1.4321  0.0879
 1956TIP3   OH227358   2.955   3.996  16.181  0.3195 -0.3183 -0.4187
 1956TIP3    H127359   2.886   3.964  16.124  0.1169  0.2287 -0.4883
 1956TIP3    H227360   2.949   3.940  16.259 -0.9535  0.4230  0.0582
 1957TIP3   OH227361   3.658   2.728   3.526 -0.0376  0.3117  0.1854
 1957TIP3    H127362   3.636   2.821   3.527 -0.4142  0.2468 -0.6773
 1957TIP3    H227363   3.603   2.692   3.457  0.9404 -0.3443 -0.2748
 1958TIP3   OH227364   4.861   5.953   3.795 -0.0522  0.0052 -0.0457
 1958TIP3    H127365   4.824   6.032   3.836 -0.9723  0.6137 -1.9200
 1958TIP3    H227366   4.862   5.888   3.865 -1.9797  0.8461  0.8462
 1959TIP3   OH227367   6.210   3.589   6.031  0.3769 -1.0112 -0.4959
 1959TIP3    H127368   6.213   3.626   6.120  1.9320 -0.7431 -0.6392
 1959TIP3    H227369   6.267   3.513   6.035  1.5228 -0.2380 -1.5964
 1960TIP3   OH227370   5.480   6.479   4.553 -0.3288 -0.5131 -0.3422
 1960TIP3    H127371   5.529   6.503   4.631 -0.2021  1.0506 -0.8652
 1960TIP3    H227372   5.388   6.489   4.578 -0.3754 -1.8154  0.1264
 1961TIP3   OH227373   2.212   5.535   4.070  0.0687 -0.1255  0.0916
 1961TIP3    H127374   2.263   5.567   3.995  1.2122 -0.0102  0.8883
 1961TIP3    H227375   2.147   5.603   4.086 -0.0674 -0.0643 -0.6684
 1962TIP3   OH227376   2.022   5.302   2.007  0.9818  0.5578 -0.4266
 1962TIP3    H127377   2.053   5.342   2.088 -0.4612  0.7309  0.0716
 1962TIP3    H227378   2.058   5.356   1.938  0.2969  1.8400  0.1895
 1963TIP3   OH227379   0.245   5.660  11.275 -0.1638  0.6214 -0.1639
 1963TIP3    H127380   0.336   5.666  11.304  0.2549  0.4088 -1.3657
 1963TIP3    H227381   0.248   5.602  11.199 -1.3881  0.2055  0.0844
 1964TIP3   OH227382   5.022   4.925  16.772 -0.4480  0.1568 -0.1952
 1964TIP3    H127383   5.037   5.020  16.773  0.7580  0.0594 -2.2674
 1964TIP3    H227384   4.961   4.912  16.700 -1.0574 -0.6137  0.4445
 1965TIP3   OH227385   0.631   3.465  15.875 -0.3571  0.2828 -0.1169
 1965TIP3    H127386   0.623   3.498  15.786  0.0491 -0.0641 -0.2836
 1965TIP3    H227387   0.542   3.471  15.911 -0.8859 -1.2122 -1.1163
 1966TIP3   OH227388   1.380   6.114  16.764  0.7306  0.2186 -0.4716
 1966TIP3    H127389   1.311   6.171  16.796  1.9157  1.8866 -0.7194
 1966TIP3    H227390   1.409   6.155  16.682  3.6331  1.0430  0.8223
 1967TIP3   OH227391   4.478   4.457  14.107 -1.0223 -0.0737 -0.0551
 1967TIP3    H127392   4.480   4.512  14.185  0.7030 -2.3753  1.6602
 1967TIP3    H227393   4.386   4.435  14.095 -1.3413  0.4834  1.2061
 1968TIP3   OH227394   2.609   6.307   0.554 -0.4137  0.0248 -0.0831
 1968TIP3    H127395   2.571   6.304   0.642 -1.5455  1.8505 -0.4557
 1968TIP3    H227396   2.554   6.248   0.503 -1.9731  1.5626 -0.2900
 1969TIP3   OH227397   0.141   2.499   3.223 -0.0544 -0.0089  0.1664
 1969TIP3    H127398   0.142   2.494   3.319 -0.0402  1.9574  0.3239
 1969TIP3    H227399   0.070   2.561   3.204 -1.5086 -1.9658 -1.2459
 1970TIP3   OH227400   5.107   6.228   4.954  0.2327 -0.0949  0.4522
 1970TIP3    H127401   5.079   6.180   4.876 -1.2906 -0.0944  0.9590
 1970TIP3    H227402   5.095   6.320   4.930 -0.2934 -0.0964  0.6821
 1971TIP3   OH227403   6.363   0.174   6.505  0.3525  0.5186 -0.0702
 1971TIP3    H127404   6.303   0.133   6.567  1.4826 -3.2707 -1.2371
 1971TIP3    H227405   6.441   0.194   6.557  0.2444 -0.0231  0.3078
 1972TIP3   OH227406   0.942   5.215   4.341  0.0675  0.0462  0.1464
 1972TIP3    H127407   0.893   5.297   4.338 -1.6458 -0.9372  0.0005
 1972TIP3    H227408   0.945   5.186   4.250 -1.4148 -1.1846  0.4470
 1973TIP3   OH227409   5.515   2.676   2.807  0.0422 -0.2718 -0.4674
 1973TIP3    H127410   5.590   2.620   2.784  0.9317  0.9987 -0.7903
 1973TIP3    H227411   5.480   2.638   2.887  0.4532 -1.4354 -0.8149
 1974TIP3   OH227412   3.133   4.251  12.943 -0.1373  0.7240  0.0046
 1974TIP3    H127413   3.099   4.332  12.904 -0.9321  0.8912  1.0201
 1974TIP3    H227414   3.227   4.267  12.952 -0.4365  1.9729  1.1993
 1975TIP3   OH227415   3.197   1.401   5.242  0.4668 -0.2356 -0.6348
 1975TIP3    H127416   3.264   1.333   5.252  0.2758 -0.1013  2.5290
 1975TIP3    H227417   3.246   1.483   5.240  0.5017 -0.0613  2.6809
 1976TIP3   OH227418   1.117   4.047  14.228  0.1557  0.0776 -0.2852
 1976TIP3    H127419   1.134   3.994  14.150 -2.1308 -0.4635 -0.5102
 1976TIP3    H227420   1.138   4.137  14.202 -1.7929  0.1009 -2.0370
 1977TIP3   OH227421   5.644   3.045   0.559  0.2865  0.0688  0.2439
 1977TIP3    H127422   5.599   3.109   0.614 -1.7172 -0.4660 -0.6774
 1977TIP3    H227423   5.704   3.097   0.505  0.2225  0.8999  0.9574
 1978TIP3   OH227424   1.982   2.879  12.215 -0.1488 -0.3604  0.0135
 1978TIP3    H127425   1.967   2.836  12.130  1.5946 -1.0108 -0.0131
 1978TIP3    H227426   1.927   2.831  12.276 -2.6728  1.1169 -0.9504
 1979TIP3   OH227427   3.773   0.400  16.320  0.6790  0.1294  0.1260
 1979TIP3    H127428   3.754   0.494  16.317  2.0607  0.4172 -1.1724
 1979TIP3    H227429   3.816   0.387  16.404  2.2827  1.0915 -0.4846
 1980TIP3   OH227430   5.757   6.109  14.000  0.0479  0.5503  0.4644
 1980TIP3    H127431   5.674   6.116  14.046 -0.2632  1.3157 -0.2082
 1980TIP3    H227432   5.748   6.165  13.924  0.9879  0.2188  0.0912
 1981TIP3   OH227433   1.330   2.172   4.834  0.2072  0.2284  0.0010
 1981TIP3    H127434   1.319   2.198   4.925 -2.2598 -1.4905  0.2843
 1981TIP3    H227435   1.310   2.079   4.832 -2.3697  0.6734 -2.6098
 1982TIP3   OH227436   4.231   4.686   6.327  0.2843 -0.6976  0.2423
 1982TIP3    H127437   4.244   4.628   6.402 -1.8974 -0.5255  0.8159
 1982TIP3    H227438   4.151   4.733   6.346  0.0107 -0.1612 -1.9189
 1983TIP3   OH227439   4.972   1.952  14.513 -0.2340 -0.6916  0.3884
 1983TIP3    H127440   4.910   1.979  14.446  0.9439 -0.5492 -0.6707
 1983TIP3    H227441   4.921   1.952  14.594 -1.6817 -0.8656 -0.4891
 1984TIP3   OH227442   4.314   3.029  16.931  0.2304 -0.0090  0.0341
 1984TIP3    H127443   4.364   3.109  16.940 -1.4573  0.9063  1.9897
 1984TIP3    H227444   4.330   2.981  17.012  1.2536 -1.7395 -1.1234
 1985TIP3   OH227445   2.860   4.194  12.279  0.5130 -0.3948 -0.7369
 1985TIP3    H127446   2.915   4.263  12.318 -0.4286 -0.0076 -0.0634
 1985TIP3    H227447   2.825   4.235  12.199 -1.1751  0.4657  0.3789
 1986TIP3   OH227448   3.713   2.263  15.688  0.2088 -0.4996 -0.2408
 1986TIP3    H127449   3.683   2.213  15.611  0.5757  0.2580 -0.8909
 1986TIP3    H227450   3.746   2.196  15.748  1.3245 -1.0249 -1.3793
 1987TIP3   OH227451   1.313   5.192   5.205  0.0183  0.3311  0.0897
 1987TIP3    H127452   1.340   5.207   5.115  1.4613  0.9957  0.6116
 1987TIP3    H227453   1.252   5.118   5.200  2.0899 -1.3864 -1.1258
 1988TIP3   OH227454   0.562   6.474   0.011  0.5622 -0.9191  0.7410
 1988TIP3    H127455   0.591   6.457  -0.078  0.6723 -2.5824  1.0439
 1988TIP3    H227456   0.544   6.568   0.014  3.6934 -0.1830 -0.1191
 1989TIP3   OH227457   4.805   6.333  12.599  0.7471 -0.2226  0.6501
 1989TIP3    H127458   4.733   6.368  12.651  1.6538 -0.3666  2.0608
 1989TIP3    H227459   4.829   6.404  12.539  0.0911  0.1881  0.8670
 1990TIP3   OH227460   0.323   6.723   4.551  0.2412  0.2835  0.1262
 1990TIP3    H127461   0.251   6.665   4.527  0.8802  0.3835 -2.2677
 1990TIP3    H227462   0.402   6.671   4.535  0.8180  1.6298 -1.8330
 1991TIP3   OH227463   1.141   5.143   3.593  0.3689  0.4010 -0.9443
 1991TIP3    H127464   1.204   5.177   3.657 -0.7103 -1.8371  1.4701
 1991TIP3    H227465   1.180   5.062   3.561 -1.1359 -0.9665  0.5131
 1992TIP3   OH227466   0.858   1.016  12.005 -0.1466 -0.7197 -0.0191
 1992TIP3    H127467   0.887   1.095  11.959  2.4255 -1.1107  0.7275
 1992TIP3    H227468   0.908   0.945  11.966  1.6834 -1.1549  2.7775
 1993TIP3   OH227469   2.429   0.854   4.184  0.4996 -0.1657  0.3147
 1993TIP3    H127470   2.459   0.893   4.266  0.1365  0.6015  0.0972
 1993TIP3    H227471   2.488   0.780   4.169  0.0723 -0.7982  1.6665
 1994TIP3   OH227472   5.923   0.955  16.714  0.4680  0.6680 -0.0683
 1994TIP3    H127473   5.983   0.977  16.643  1.2073 -0.1871  0.2749
 1994TIP3    H227474   5.963   0.878  16.756 -1.2704 -0.4405 -0.3402
 1995TIP3   OH227475   6.328   6.233  16.888 -0.1668  0.3776 -0.0449
 1995TIP3    H127476   6.323   6.309  16.946  1.2683 -0.3481  1.1116
 1995TIP3    H227477   6.385   6.260  16.816  1.2117  0.1101  0.9101
 1996TIP3   OH227478   4.561   4.649   0.973 -0.1782 -0.0976  0.0256
 1996TIP3    H127479   4.567   4.603   0.889 -0.8902  0.8300 -0.5509
 1996TIP3    H227480   4.548   4.579   1.037 -4.0000 -0.6591 -1.1161
 1997TIP3   OH227481   2.368   5.202  13.075 -1.1963 -0.8141  0.0210
 1997TIP3    H127482   2.301   5.147  13.115 -2.0759 -1.7896 -2.5636
 1997TIP3    H227483   2.334   5.221  12.988  0.6704  0.9882 -0.3843
 1998TIP3   OH227484   4.062   5.424  14.338  0.4941  0.2797  0.3780
 1998TIP3    H127485   4.015   5.341  14.349 -0.7027  0.9301  0.3965
 1998TIP3    H227486   4.054   5.443  14.244 -0.5396  1.0801  0.6038
 1999TIP3   OH227487   2.367   2.261   5.813  0.0373  0.4947 -0.1051
 1999TIP3    H127488   2.326   2.193   5.761 -0.4821 -0.1367  1.0850
 1999TIP3    H227489   2.297   2.294   5.870  0.3148  1.9302 -0.5547
 2000TIP3   OH227490   4.671   2.911  14.179  0.1330 -0.6139  0.7075
 2000TIP3    H127491   4.628   2.829  14.156  0.4828 -1.0233  1.4750
 2000TIP3    H227492   4.705   2.944  14.096  0.1493 -1.3425  0.4163
 2001TIP3   OH227493   2.567   1.902  13.870  0.2945 -0.5216 -0.6701
 2001TIP3    H127494   2.503   1.840  13.905 -1.9532  1.4945 -0.9536
 2001TIP3    H227495   2.563   1.890  13.775  0.9957 -0.9676 -0.6506
 2002TIP3   OH227496   3.631   1.902   3.982 -0.2497  0.0060 -0.2819
 2002TIP3    H127497   3.637   1.845   4.059 -0.3532 -1.5027 -1.3404
 2002TIP3    H227498   3.720   1.935   3.969 -0.3356  0.6880  0.7652
 2003TIP3   OH227499   3.911   2.333   2.103  0.2463 -0.0522  0.5971
 2003TIP3    H127500   3.869   2.419   2.108 -0.4583 -0.2497 -1.1402
 2003TIP3    H227501   3.842   2.274   2.074  1.2626 -0.7240 -0.5804
 2004TIP3   OH227502   3.690   1.173   0.252  0.0081 -0.0421 -0.4425
 2004TIP3    H127503   3.666   1.085   0.222 -0.0829  0.6841 -2.6901
 2004TIP3    H227504   3.653   1.232   0.186  1.2381  1.5948  0.2570
 2005TIP3   OH227505   3.946   1.393  15.412  0.4112  0.2456  0.3500
 2005TIP3    H127506   3.975   1.316  15.362  1.2420  1.0471 -0.4524
 2005TIP3    H227507   3.908   1.451  15.346  1.3790  1.2584  0.6438
 2006TIP3   OH227508   0.203   0.590  11.989  0.5052  0.4932  0.1123
 2006TIP3    H127509   0.260   0.549  11.923  0.7966  0.7633  0.1950
 2006TIP3    H227510   0.188   0.679  11.955 -1.3277 -0.1123 -0.8279
 2007TIP3   OH227511   3.097   4.682   3.516 -0.0962  0.2652 -0.4776
 2007TIP3    H127512   3.125   4.677   3.608 -1.3380  0.0665 -0.0846
 2007TIP3    H227513   3.014   4.730   3.520 -0.6255 -0.5387 -1.3899
 2008TIP3   OH227514   4.517   0.378   5.232 -0.1446 -0.1532 -0.4447
 2008TIP3    H127515   4.573   0.301   5.238  0.9211  0.6852  1.0612
 2008TIP3    H227516   4.504   0.391   5.138  0.3663 -1.6341 -0.7493
 2009TIP3   OH227517   0.098   2.342   5.879  0.1412  0.5614 -0.4343
 2009TIP3    H127518   0.104   2.428   5.837  0.1983  0.1341 -1.3262
 2009TIP3    H227519   0.085   2.362   5.972 -0.2248  1.5324 -0.6777
 2010TIP3   OH227520   6.146   3.839   0.999 -0.0077  0.3000 -0.2922
 2010TIP3    H127521   6.103   3.866   1.080 -0.8428  1.6526 -1.1509
 2010TIP3    H227522   6.124   3.908   0.936  2.9114  0.7206 -0.9581
 2011TIP3   OH227523   3.910   2.646   1.183  0.3233 -0.2969 -0.0065
 2011TIP3    H127524   3.910   2.726   1.235 -0.6898 -0.2610 -0.0527
 2011TIP3    H227525   3.849   2.663   1.112 -0.0713 -1.1885  0.1000
 2012TIP3   OH227526   4.035   0.745   0.010 -0.0269 -0.3932  0.4110
 2012TIP3    H127527   4.043   0.811  -0.059  0.9442 -1.5015 -0.5924
 2012TIP3    H227528   4.016   0.795   0.089 -1.0143  0.9403 -0.6046
 2013TIP3   OH227529   6.799   0.365   0.233  0.1193  0.1265 -0.1045
 2013TIP3    H127530   6.715   0.392   0.194  0.9512  0.9550 -1.4014
 2013TIP3    H227531   6.787   0.377   0.327 -1.4676 -0.4997 -0.1891
 2014TIP3   OH227532   0.371   4.970  17.278 -0.2050  0.5713 -0.2574
 2014TIP3    H127533   0.449   4.951  17.329 -0.2547 -0.1196 -0.4349
 2014TIP3    H227534   0.309   4.901  17.302 -0.1549  0.0933 -1.4116
 2015TIP3   OH227535   2.213   5.990   3.363 -0.1221 -0.8299 -0.4802
 2015TIP3    H127536   2.306   5.973   3.374 -0.3513 -0.2628  4.1715
 2015TIP3    H227537   2.171   5.907   3.387 -0.9483 -1.4663 -3.6768
 2016TIP3   OH227538   4.153   5.631   3.725  0.2778  0.2847  0.1462
 2016TIP3    H127539   4.143   5.538   3.702 -0.1222  0.5097 -0.6365
 2016TIP3    H227540   4.246   5.649   3.711  0.2259  0.1684 -0.3985
 2017TIP3   OH227541   3.982   5.714  15.094  0.7322 -0.2910  0.4504
 2017TIP3    H127542   4.057   5.764  15.062  0.5407 -0.4697 -0.2754
 2017TIP3    H227543   3.928   5.779  15.140  0.7895  0.0471  0.0421
 2018TIP3   OH227544   3.461   5.535   1.492  0.1239 -0.3390 -0.1913
 2018TIP3    H127545   3.550   5.501   1.502  0.9668  1.2382 -1.7815
 2018TIP3    H227546   3.440   5.520   1.400 -0.3186  1.4061 -0.4045
 2019TIP3   OH227547   4.586   0.399  12.368 -0.6181 -0.2338 -0.5580
 2019TIP3    H127548   4.536   0.376  12.290 -0.8219 -0.1688 -0.4474
 2019TIP3    H227549   4.639   0.475  12.342 -0.8818 -0.0490 -0.5541
 2020TIP3   OH227550   0.610   6.286   5.644  0.3594 -0.5767 -1.1695
 2020TIP3    H127551   0.644   6.212   5.693 -1.9957 -0.4962  0.7784
 2020TIP3    H227552   0.626   6.362   5.700  1.3538  0.1986 -2.4476
 2021TIP3   OH227553   1.601   4.902   4.472  0.6828  0.1128 -0.2154
 2021TIP3    H127554   1.551   4.971   4.429  2.3364  1.2007 -0.4753
 2021TIP3    H227555   1.562   4.821   4.441 -0.1203  0.9177 -1.3612
 2022TIP3   OH227556   1.526   5.851  16.226 -0.1671 -0.2125  0.1776
 2022TIP3    H127557   1.616   5.845  16.259 -0.2142  0.1743  0.3804
 2022TIP3    H227558   1.536   5.888  16.138 -0.1159 -0.3092  0.1438
 2023TIP3   OH227559   2.687   5.508   0.365  0.0481  0.2820  0.0344
 2023TIP3    H127560   2.696   5.557   0.446 -0.2538  1.5907 -0.7026
 2023TIP3    H227561   2.649   5.570   0.303  0.4132 -0.6433 -1.1535
 2024TIP3   OH227562   3.944   2.210   6.156 -0.4565 -0.2913 -0.2478
 2024TIP3    H127563   3.943   2.125   6.199  2.3859 -0.3273 -0.0391
 2024TIP3    H227564   3.988   2.195   6.073 -1.6113  0.6614 -1.0680
 2025TIP3   OH227565   6.178   3.370  10.533 -0.2299  0.5994 -0.6319
 2025TIP3    H127566   6.213   3.292  10.490  0.8980  0.3042  0.7490
 2025TIP3    H227567   6.083   3.355  10.534  0.0398 -1.6264  1.0889
 2026TIP3   OH227568   5.590   5.628   3.312 -0.0056  0.4975 -0.1766
 2026TIP3    H127569   5.541   5.705   3.282  0.7452  1.7802  1.6828
 2026TIP3    H227570   5.624   5.588   3.232  0.5486  2.7965 -1.1632
 2027TIP3   OH227571   5.230   6.605  15.743  0.0178 -0.7254 -0.4947
 2027TIP3    H127572   5.254   6.694  15.767  0.1562 -1.3119  1.7853
 2027TIP3    H227573   5.146   6.614  15.697  0.5090  0.6359 -1.1657
 2028TIP3   OH227574   2.006   4.615   3.663  0.2009 -0.7709 -1.4189
 2028TIP3    H127575   2.097   4.628   3.636  0.4811 -0.6927 -0.5060
 2028TIP3    H227576   2.006   4.641   3.756 -0.8017 -0.5538 -1.4756
 2029TIP3   OH227577   2.189   3.769   3.507 -0.6385 -0.5009  0.0658
 2029TIP3    H127578   2.190   3.849   3.559 -3.1551  0.1375 -0.7430
 2029TIP3    H227579   2.280   3.759   3.477  0.0330  1.2294  1.3677
 2030TIP3   OH227580   0.297   1.397   5.033 -0.2101  0.0792 -0.2150
 2030TIP3    H127581   0.315   1.310   5.066  0.0712  0.2994  0.2254
 2030TIP3    H227582   0.224   1.429   5.086 -0.2128  0.1678 -0.2707
 2031TIP3   OH227583   3.993   2.772  16.673 -0.2229 -1.1303  0.1791
 2031TIP3    H127584   4.061   2.838  16.680 -0.5247 -0.9453  1.8886
 2031TIP3    H227585   3.945   2.795  16.593  0.9477 -0.5543 -0.3883
 2032TIP3   OH227586   6.032   6.148   0.735 -0.1802  0.2767 -0.3710
 2032TIP3    H127587   6.111   6.199   0.752 -1.0109  0.9108  1.9268
 2032TIP3    H227588   6.006   6.173   0.646  1.1520  1.4875 -0.4571
 2033TIP3   OH227589   6.348   3.347   2.123  0.4857 -0.1734 -0.3025
 2033TIP3    H127590   6.423   3.317   2.175  0.4814 -1.6868 -1.0940
 2033TIP3    H227591   6.336   3.278   2.057 -2.4382 -0.7068  0.6256
 2034TIP3   OH227592   4.092   3.020   0.912 -0.5228 -0.1809  0.6080
 2034TIP3    H127593   4.013   2.971   0.889 -0.5935  0.2165  0.0095
 2034TIP3    H227594   4.161   2.954   0.912 -0.9718 -0.6908  1.9184
 2035TIP3   OH227595   0.095   2.525  10.690  0.0123 -0.2783  1.0288
 2035TIP3    H127596   0.105   2.611  10.650  0.7149 -0.4941  0.7205
 2035TIP3    H227597   0.184   2.500  10.714 -0.0864 -1.2433  0.4394
 2036TIP3   OH227598   4.260   5.137   2.775 -0.2212 -0.4780  0.4222
 2036TIP3    H127599   4.297   5.109   2.859 -1.8224  1.9331  2.0846
 2036TIP3    H227600   4.182   5.084   2.765 -1.5405  1.0482  1.9631
 2037TIP3   OH227601   4.448   0.615  12.645  0.0537  0.0628  0.6269
 2037TIP3    H127602   4.445   0.709  12.625  0.8795  0.1278  0.7594
 2037TIP3    H227603   4.513   0.608  12.714  1.2217 -0.7815 -0.5047
 2038TIP3   OH227604   3.611   1.277   6.148 -0.3629  0.3380  1.0533
 2038TIP3    H127605   3.543   1.318   6.202  1.6009  3.6106  1.3359
 2038TIP3    H227606   3.617   1.333   6.071  1.7339 -0.0383  0.8825
 2039TIP3   OH227607   3.122   6.544   4.771 -0.3960  0.5464  0.8679
 2039TIP3    H127608   3.151   6.460   4.807 -0.0779  0.2435 -0.0794
 2039TIP3    H227609   3.057   6.521   4.705  1.6033  0.8233 -1.3447
 2040TIP3   OH227610   6.621   5.352   5.499  0.3805 -0.5872 -0.2193
 2040TIP3    H127611   6.580   5.266   5.482  2.0912 -1.6450  0.7495
 2040TIP3    H227612   6.613   5.364   5.593 -0.2353  0.5776 -0.3980
 2041TIP3   OH227613   3.644   4.035   0.676 -0.0931 -0.2795  0.1326
 2041TIP3    H127614   3.718   3.974   0.679 -0.9108 -1.5507 -2.4205
 2041TIP3    H227615   3.570   3.984   0.708 -0.4235 -0.0097 -0.1960
 2042TIP3   OH227616   3.908   1.410   5.289 -0.0760 -0.5984  0.1866
 2042TIP3    H127617   3.863   1.376   5.367 -0.3684  1.3468  0.9190
 2042TIP3    H227618   3.839   1.454   5.239  0.4105 -0.4537 -0.3628
 2043TIP3   OH227619   4.769   2.359  17.239 -0.5213  0.1635  0.5893
 2043TIP3    H127620   4.830   2.287  17.254 -0.0060  0.3928 -0.2715
 2043TIP3    H227621   4.700   2.347  17.303  0.5446  0.0183  1.7386
 2044TIP3   OH227622   5.236   2.175  15.630 -0.3140  0.0265 -0.1727
 2044TIP3    H127623   5.318   2.215  15.659 -0.3801  1.2461 -1.5234
 2044TIP3    H227624   5.248   2.161  15.537 -0.5504 -2.6480  0.1273
 2045TIP3   OH227625   5.635   2.103   4.243  0.1072  0.1578 -0.6487
 2045TIP3    H127626   5.640   2.078   4.336 -0.7208 -0.7903 -0.8392
 2045TIP3    H227627   5.726   2.102   4.213  0.3005 -0.4367 -0.0655
 2046TIP3   OH227628   1.097   3.630  14.000  0.2181  0.4498  0.2018
 2046TIP3    H127629   1.115   3.723  13.987 -0.6699  0.5078 -0.7472
 2046TIP3    H227630   1.085   3.621  14.095  0.5442  1.2542  0.3267
 2047TIP3   OH227631   4.497   1.199   5.920  0.7952 -0.8533 -0.3976
 2047TIP3    H127632   4.412   1.156   5.911  0.2419 -0.0504  0.7546
 2047TIP3    H227633   4.476   1.291   5.932  1.8643 -0.5594 -0.6798
 2048TIP3   OH227634   4.531   6.171   3.089 -0.6543 -0.5293  0.0544
 2048TIP3    H127635   4.579   6.092   3.112 -1.4314 -1.4132 -1.1907
 2048TIP3    H227636   4.595   6.241   3.095  0.5676 -1.5365 -0.6550
 2049TIP3   OH227637   0.620   4.867  11.384 -0.1063  0.1453 -0.4256
 2049TIP3    H127638   0.526   4.878  11.394 -0.1656  1.2341 -1.7672
 2049TIP3    H227639   0.641   4.787  11.431 -1.7083 -0.1285 -0.1421
 2050TIP3   OH227640   4.861   3.512   3.775 -0.1143 -0.0965  0.4852
 2050TIP3    H127641   4.796   3.550   3.834 -0.4637  1.6146 -0.8920
 2050TIP3    H227642   4.819   3.432   3.742 -1.7462  1.1315 -0.6110
 2051TIP3   OH227643   3.548   3.076  17.301  0.0168 -0.2431  0.3539
 2051TIP3    H127644   3.525   3.155  17.253 -0.5592 -0.4034  0.3585
 2051TIP3    H227645   3.527   3.004  17.241  0.9874 -0.3837  0.1625
 2052TIP3   OH227646   6.081   5.699  16.478 -0.2199  0.0247 -0.1803
 2052TIP3    H127647   6.120   5.690  16.391  0.6539 -0.3334  0.2331
 2052TIP3    H227648   5.987   5.692  16.463 -0.0995  0.3041 -1.1342
 2053TIP3   OH227649   2.795   4.262  16.907 -0.0803 -0.2285 -0.1756
 2053TIP3    H127650   2.761   4.182  16.945  0.7040 -0.3947  0.1813
 2053TIP3    H227651   2.718   4.304  16.867 -1.0481  0.1881  1.9536
 2054TIP3   OH227652   4.029   2.947  11.089  0.9398 -0.2924  0.0009
 2054TIP3    H127653   3.984   2.864  11.074 -0.6703  0.7152 -1.0419
 2054TIP3    H227654   4.002   3.002  11.016  2.2027  1.0789  0.5136
 2055TIP3   OH227655   4.254   4.168  12.739  0.3720 -0.7274  0.1540
 2055TIP3    H127656   4.234   4.262  12.736 -1.0577 -0.9542  1.5539
 2055TIP3    H227657   4.348   4.165  12.759  0.6895  0.3716 -1.0035
 2056TIP3   OH227658   2.888   1.190  16.809  0.9251 -0.7358 -0.7176
 2056TIP3    H127659   2.889   1.124  16.879 -1.4546 -0.4484 -0.3399
 2056TIP3    H227660   2.923   1.144  16.733  0.4025 -2.1027 -0.1642
 2057TIP3   OH227661   3.061   0.463  17.114 -0.2278 -0.0711  0.8957
 2057TIP3    H127662   3.069   0.392  17.051  0.4799  1.6357 -1.0881
 2057TIP3    H227663   3.018   0.534  17.065 -0.2455  1.1264  2.5414
 2058TIP3   OH227664   1.074   2.361   5.222 -0.1135  0.3847  0.2021
 2058TIP3    H127665   1.042   2.326   5.305 -2.0540 -0.2082 -0.7375
 2058TIP3    H227666   1.169   2.361   5.231 -0.2744  0.5205  2.4743
 2059TIP3   OH227667   4.280   3.823   4.587  0.0898 -0.5856 -0.4186
 2059TIP3    H127668   4.217   3.884   4.550  0.4687  0.3923  0.5105
 2059TIP3    H227669   4.339   3.802   4.515 -0.9661 -1.0968 -1.1531
 2060TIP3   OH227670   1.159   5.650  16.749  0.2999  0.0762  0.0423
 2060TIP3    H127671   1.241   5.634  16.795  0.2443 -0.1788  0.0549
 2060TIP3    H227672   1.130   5.563  16.721  0.3142  0.2284 -0.4478
 2061TIP3   OH227673   0.717   0.426  15.030  0.4188 -0.1425 -0.5499
 2061TIP3    H127674   0.686   0.509  14.995  2.2675  1.5818  1.6165
 2061TIP3    H227675   0.780   0.395  14.966  1.4254  1.3569 -0.3393
 2062TIP3   OH227676   2.326   6.137  13.600  0.5280 -0.2747 -0.4673
 2062TIP3    H127677   2.373   6.199  13.544 -0.4264  0.1482 -0.8127
 2062TIP3    H227678   2.234   6.159  13.588  0.3062  0.1279  1.6088
 2063TIP3   OH227679   0.813   6.774  11.356  0.1968  0.3149 -0.7968
 2063TIP3    H127680   0.893   6.757  11.407 -0.6030 -1.1767  0.0392
 2063TIP3    H227681   0.803   6.695  11.302 -0.4333  0.7202 -1.2810
 2064TIP3   OH227682   0.641   5.322  13.939 -0.2660  0.7764 -0.3426
 2064TIP3    H127683   0.713   5.325  13.876 -0.4950 -0.8474 -0.7346
 2064TIP3    H227684   0.679   5.281  14.017 -0.8725 -0.5993 -0.7466
 2065TIP3   OH227685   3.142   1.065  16.889 -0.4102  0.4110  0.5222
 2065TIP3    H127686   3.210   1.006  16.857 -2.0116 -0.6134 -1.1859
 2065TIP3    H227687   3.128   1.127  16.817 -0.0944  1.7290  1.5517
 2066TIP3   OH227688   6.143   0.267   6.119  0.1648 -0.0963 -0.3121
 2066TIP3    H127689   6.089   0.313   6.184  0.1363 -0.0138 -0.3944
 2066TIP3    H227690   6.123   0.310   6.036  0.0687 -0.3175 -0.4058
 2067TIP3   OH227691   6.782   1.088  13.064  0.1146 -0.3023 -0.2061
 2067TIP3    H127692   6.731   1.166  13.044 -0.0213  0.2938  2.2358
 2067TIP3    H227693   6.868   1.121  13.089  0.2801 -0.9942  0.1543
 2068TIP3   OH227694   2.633   3.559   0.532  0.2720 -0.1952  0.6831
 2068TIP3    H127695   2.635   3.529   0.623 -0.6451  1.2770  1.2198
 2068TIP3    H227696   2.541   3.579   0.515  0.7235  1.5611  0.1430
 2069TIP3   OH227697   3.616   4.125   5.231 -0.1464  0.4576  0.0942
 2069TIP3    H127698   3.532   4.084   5.215 -0.4434  1.5447 -1.3156
 2069TIP3    H227699   3.660   4.067   5.293 -1.0274 -1.2930 -0.8775
 2070TIP3   OH227700   3.828   5.982  17.007 -0.2323  0.3095 -0.1286
 2070TIP3    H127701   3.814   5.923  16.933 -2.6972  1.3614 -0.6160
 2070TIP3    H227702   3.916   6.017  16.995 -0.1094 -0.5176 -1.8299
 2071TIP3   OH227703   1.970   4.338  16.708  0.6533 -0.0639  0.6932
 2071TIP3    H127704   2.042   4.397  16.731  0.6627  0.4489 -0.5495
 2071TIP3    H227705   1.923   4.384  16.638 -0.8129 -0.4570  1.3901
 2072TIP3   OH227706   5.348   0.266  11.020  0.1483  0.2589 -0.0689
 2072TIP3    H127707   5.261   0.304  11.031  0.2448  0.4532  0.0362
 2072TIP3    H227708   5.408   0.335  11.050  0.3829  0.5316 -1.1040
 2073TIP3   OH227709   5.366   0.758   2.495 -0.1267 -0.1491  0.5138
 2073TIP3    H127710   5.337   0.675   2.535 -1.0972 -0.3322 -0.5069
 2073TIP3    H227711   5.346   0.824   2.561  0.6461 -0.7222  1.3360
 2074TIP3   OH227712   1.840   2.771   4.649 -0.0507 -0.5051  0.0964
 2074TIP3    H127713   1.887   2.852   4.666 -1.1237  0.4866 -1.4301
 2074TIP3    H227714   1.863   2.749   4.558  0.3336 -2.0003  0.5242
 2075TIP3   OH227715   3.178   1.856  13.487 -0.0152 -0.2966 -0.4058
 2075TIP3    H127716   3.152   1.764  13.480 -0.7703 -0.2675  1.5012
 2075TIP3    H227717   3.272   1.854  13.504 -0.1307 -0.7419  0.1749
 2076TIP3   OH227718   5.738   4.218  14.822 -0.3405 -0.4244 -0.1959
 2076TIP3    H127719   5.716   4.125  14.819  0.0081 -0.4877 -1.2785
 2076TIP3    H227720   5.833   4.220  14.834 -0.5855 -0.1625  2.3724
 2077TIP3   OH227721   5.877   1.412   3.381 -0.4074  0.0462 -0.1217
 2077TIP3    H127722   5.964   1.407   3.421  0.3703 -0.1330 -1.7688
 2077TIP3    H227723   5.820   1.438   3.453  0.6677 -1.7275  1.4734
 2078TIP3   OH227724   1.175   5.818  12.315 -0.0211 -0.1226  0.0585
 2078TIP3    H127725   1.171   5.904  12.274  2.2132  0.9536  1.8330
 2078TIP3    H227726   1.145   5.757  12.247  1.5289  1.7105 -2.4688
 2079TIP3   OH227727   1.379   4.906  16.592  0.1566  0.4511  0.2997
 2079TIP3    H127728   1.385   4.841  16.662 -0.6622  0.4789  0.4056
 2079TIP3    H227729   1.407   4.859  16.514  1.2362  0.4659  0.6575
 2080TIP3   OH227730   5.614   2.594   3.740  0.5232 -0.3069 -0.6039
 2080TIP3    H127731   5.543   2.602   3.677 -0.3345 -0.2551  0.3440
 2080TIP3    H227732   5.619   2.501   3.759  1.2894 -0.4215 -1.2920
 2081TIP3   OH227733   4.608   0.833   0.691 -0.1460  0.0479 -0.1932
 2081TIP3    H127734   4.521   0.844   0.729 -0.8084  0.5582 -1.7739
 2081TIP3    H227735   4.592   0.823   0.597  1.4629 -0.4734 -0.4375
 2082TIP3   OH227736   1.946   5.383   5.612 -0.1962  0.1908  0.2420
 2082TIP3    H127737   1.907   5.368   5.526  1.3018 -0.7080 -0.3240
 2082TIP3    H227738   1.942   5.478   5.625 -0.9285  0.2792 -0.5554
 2083TIP3   OH227739   3.632   0.027  13.208 -0.1144 -0.1173  0.7319
 2083TIP3    H127740   3.628   0.093  13.138 -0.2054 -0.5521  0.3239
 2083TIP3    H227741   3.586   0.068  13.282 -1.9693 -0.4900 -0.1582
 2084TIP3   OH227742   2.313   2.778   0.724  0.3920 -0.4122  0.3722
 2084TIP3    H127743   2.341   2.820   0.805  1.5628 -2.7782  1.2685
 2084TIP3    H227744   2.304   2.851   0.662  0.9486  1.2920  2.1892
 2085TIP3   OH227745   3.543   1.944  16.270 -0.1147  0.2225 -0.2196
 2085TIP3    H127746   3.469   1.998  16.296 -0.1542 -0.3486  0.9204
 2085TIP3    H227747   3.506   1.856  16.261  0.3402  0.0133 -0.0621
 2086TIP3   OH227748   3.667   6.086   4.972 -0.1614  0.3970 -0.0353
 2086TIP3    H127749   3.613   6.018   4.931  0.1643 -0.2843  0.6374
 2086TIP3    H227750   3.615   6.166   4.964 -0.1338  0.2832 -1.6982
 2087TIP3   OH227751   0.444   1.530  12.855  0.8708 -0.5941  0.2453
 2087TIP3    H127752   0.410   1.459  12.801 -0.9090 -3.4341  4.4981
 2087TIP3    H227753   0.534   1.503  12.875  0.6406 -1.0001  0.7703
 2088TIP3   OH227754   4.272   0.620   5.065 -0.5004  0.0369 -0.0699
 2088TIP3    H127755   4.286   0.526   5.052 -1.7264  0.0113 -1.4304
 2088TIP3    H227756   4.217   0.625   5.143 -0.8942 -0.4130 -0.3126
 2089TIP3   OH227757   2.146   1.560   4.467  0.1258 -0.1986  1.2744
 2089TIP3    H127758   2.153   1.649   4.501  1.0799  0.3773 -0.3179
 2089TIP3    H227759   2.096   1.570   4.385 -1.7175 -1.4604  2.1774
 2090TIP3   OH227760   5.845   0.037  14.740 -0.1647  0.4272 -0.0642
 2090TIP3    H127761   5.883   0.048  14.827 -0.2600 -0.0339  0.0406
 2090TIP3    H227762   5.820   0.125  14.713 -1.1019  0.4513  0.8252
 2091TIP3   OH227763   0.403   3.223  11.550  0.3988  0.3545 -0.5792
 2091TIP3    H127764   0.439   3.140  11.519 -0.8713  0.4652 -2.4756
 2091TIP3    H227765   0.446   3.237  11.635  0.6922 -2.1766 -0.2298
 2092TIP3   OH227766   2.777   6.115  16.502  0.2237 -0.0368 -0.2804
 2092TIP3    H127767   2.813   6.203  16.488 -1.8191  0.6573 -1.8199
 2092TIP3    H227768   2.707   6.128  16.566  1.4365 -1.0231  1.3068
 2093TIP3   OH227769   4.584   6.660  13.961  0.5830 -0.0358 -0.4080
 2093TIP3    H127770   4.583   6.701  14.047  0.3608  0.2949 -0.5685
 2093TIP3    H227771   4.495   6.670  13.928 -0.0507 -2.3900  0.3532
 2094TIP3   OH227772   0.475   3.277  10.543  0.5220  0.3790  0.0911
 2094TIP3    H127773   0.446   3.347  10.485 -2.8359 -0.9840 -0.1123
 2094TIP3    H227774   0.428   3.200  10.512  2.1081 -1.4062  1.8809
 2095TIP3   OH227775   0.512   4.937  13.980  0.0688  0.0329  0.1975
 2095TIP3    H127776   0.522   4.961  13.888 -1.1042  0.1227  0.0765
 2095TIP3    H227777   0.594   4.892  14.002  0.8960  1.1406 -0.5118
 2096TIP3   OH227778   6.547   2.043   3.201  0.4901 -0.0415  0.1606
 2096TIP3    H127779   6.602   2.110   3.159  0.3820  0.3797  0.6829
 2096TIP3    H227780   6.473   2.092   3.238 -0.9737 -0.7182 -1.6741
 2097TIP3   OH227781   1.960   2.071  15.577  0.6858  0.0741  0.1214
 2097TIP3    H127782   1.983   1.983  15.546 -0.2402  0.5564 -2.1241
 2097TIP3    H227783   2.043   2.118  15.578  1.1821 -0.7860  1.2824
 2098TIP3   OH227784   4.057   1.853  17.317  0.0321  0.2774  0.6577
 2098TIP3    H127785   4.131   1.885  17.368  0.2854  0.0589  0.4302
 2098TIP3    H227786   4.033   1.770  17.359 -0.1669  0.4096  0.8089
 2099TIP3   OH227787   4.354   5.810   0.370  0.1709 -0.2418  0.1829
 2099TIP3    H127788   4.299   5.864   0.314  0.6093  0.8366  0.7742
 2099TIP3    H227789   4.368   5.862   0.449  0.5605 -1.2383  0.8018
 2100TIP3   OH227790   2.116   5.747  15.731  0.4302  0.7153 -0.0277
 2100TIP3    H127791   2.146   5.665  15.692  0.3714 -0.2315  1.7963
 2100TIP3    H227792   2.192   5.779  15.781  0.4545  1.7948 -0.7273
 2101TIP3   OH227793   5.355   6.141   3.499 -0.1202 -0.3438  0.2377
 2101TIP3    H127794   5.273   6.168   3.456  0.3346  0.7691  0.0260
 2101TIP3    H227795   5.326   6.088   3.573 -1.0348 -0.1410  0.0447
 2102TIP3   OH227796   4.924   3.963   2.036  0.1791 -0.3269 -0.3705
 2102TIP3    H127797   4.903   3.997   1.949 -1.9426  0.8455  0.5148
 2102TIP3    H227798   4.945   4.040   2.088 -2.4603 -0.4402  1.0846
 2103TIP3   OH227799   0.933   5.238   2.979 -0.2736  0.2354 -0.3179
 2103TIP3    H127800   0.858   5.268   2.928 -0.0840  1.8247  0.2851
 2103TIP3    H227801   0.998   5.307   2.969 -0.3097  0.7186  2.2074
 2104TIP3   OH227802   5.894   4.957  13.529 -0.3450 -0.8105 -0.0617
 2104TIP3    H127803   5.860   4.871  13.503 -0.3160 -1.5013  1.9379
 2104TIP3    H227804   5.959   4.936  13.596  0.9383  0.7116 -0.7713
 2105TIP3   OH227805   0.976   2.274   5.457  0.1455 -0.3554 -0.6071
 2105TIP3    H127806   0.885   2.243   5.464 -0.1921  0.8995  1.1635
 2105TIP3    H227807   1.022   2.225   5.525  0.1623  1.0490  0.4282
 2106TIP3   OH227808   0.681   3.438  16.216 -0.0761  0.3094 -0.1606
 2106TIP3    H127809   0.754   3.454  16.156  0.6911  1.0211  0.9205
 2106TIP3    H227810   0.680   3.343  16.228 -0.0123  0.1933 -1.0012
 2107TIP3   OH227811   1.817   2.357  15.657 -0.1802  0.4915  0.7404
 2107TIP3    H127812   1.869   2.320  15.729 -0.7518  2.3090  2.1688
 2107TIP3    H227813   1.863   2.331  15.578  0.9527 -0.8696  1.8068
 2108TIP3   OH227814   6.017   3.061   5.808 -0.0890 -0.0377  0.2514
 2108TIP3    H127815   5.947   3.063   5.874  0.6064  0.6637  0.9925
 2108TIP3    H227816   5.971   3.051   5.725 -0.8787 -4.1424  0.9686
 2109TIP3   OH227817   1.351   5.617  13.646  0.0537 -0.2757  0.5569
 2109TIP3    H127818   1.323   5.527  13.634  0.6860 -0.4605  0.4161
 2109TIP3    H227819   1.285   5.669  13.601  0.0372 -0.7089  0.0741
 2110TIP3   OH227820   5.535   4.707   1.022  0.1990 -0.2800  0.4453
 2110TIP3    H127821   5.489   4.785   1.054 -0.5988  0.0925 -1.4487
 2110TIP3    H227822   5.600   4.742   0.961 -1.7353 -1.1141 -2.2872
 2111TIP3   OH227823   0.784   3.473   2.082  1.0111  0.0986 -0.1209
 2111TIP3    H127824   0.761   3.423   2.161  0.0909 -0.2347 -0.5901
 2111TIP3    H227825   0.715   3.452   2.019  2.2760 -0.4572 -1.3774
 2112TIP3   OH227826   6.561   0.379   2.086 -0.1959 -0.3688  0.1097
 2112TIP3    H127827   6.588   0.324   2.011  1.2942 -1.2549  1.2311
 2112TIP3    H227828   6.553   0.317   2.159 -0.7088  0.6104  0.8958
 2113TIP3   OH227829   5.891   3.233  16.489 -0.0509  0.6125  0.2077
 2113TIP3    H127830   5.797   3.229  16.474  0.2468 -3.6989 -2.1479
 2113TIP3    H227831   5.928   3.268  16.408  0.4847  0.1885  0.2625
 2114TIP3   OH227832   6.411   6.019   2.873  0.5224 -0.0053  0.2676
 2114TIP3    H127833   6.318   6.013   2.854  0.4906 -1.3654  0.7532
 2114TIP3    H227834   6.437   6.105   2.839  0.1527 -1.4843 -4.4790
 2115TIP3   OH227835   2.612   2.225  11.607 -0.0304 -0.2596 -0.3243
 2115TIP3    H127836   2.596   2.143  11.560  3.0839 -0.2538 -1.6277
 2115TIP3    H227837   2.562   2.291  11.559 -0.8232 -1.0337 -0.5862
 2116TIP3   OH227838   4.200   3.043  13.399 -0.4772  0.3988  1.2126
 2116TIP3    H127839   4.197   3.076  13.309  2.8261 -0.4639  0.6533
 2116TIP3    H227840   4.278   3.084  13.436 -1.3161  0.0716  3.4595
 2117TIP3   OH227841   5.032   3.280   4.744  0.3321 -0.5035  0.2764
 2117TIP3    H127842   5.096   3.350   4.757  0.2094 -0.4596  0.6770
 2117TIP3    H227843   5.085   3.201   4.728  0.4582 -0.0563 -1.6891
 2118TIP3   OH227844   3.882   6.428   3.560 -0.6583 -0.6951 -0.2408
 2118TIP3    H127845   3.862   6.503   3.505  0.3865 -1.2744 -1.4511
 2118TIP3    H227846   3.823   6.359   3.531 -1.3627 -0.4727  0.6203
 2119TIP3   OH227847   1.562   6.651   3.218 -0.2304 -0.0489  0.4524
 2119TIP3    H127848   1.506   6.604   3.280 -0.1215 -0.4025  0.2793
 2119TIP3    H227849   1.635   6.683   3.271 -0.6932  0.5952  0.7234
 2120TIP3   OH227850   0.971   6.030  14.023 -0.1731  0.2710 -0.4775
 2120TIP3    H127851   0.946   6.054  13.934 -3.2365 -0.2074  0.1551
 2120TIP3    H227852   0.931   6.097  14.078 -1.9242 -1.6658  0.7519
 2121TIP3   OH227853   6.411   5.924   0.301  0.9008  0.1618 -0.2960
 2121TIP3    H127854   6.470   5.908   0.375 -1.0601  1.2862  1.6318
 2121TIP3    H227855   6.336   5.867   0.318  0.7909 -0.2350 -1.9594
 2122TIP3   OH227856   3.470   5.735   4.910  0.1509 -0.1720  0.1911
 2122TIP3    H127857   3.476   5.640   4.913  1.0438 -0.1443 -0.4028
 2122TIP3    H227858   3.482   5.758   4.818 -3.2598  0.3513 -0.2638
 2123TIP3   OH227859   4.123   4.333  16.321 -0.3810  0.0042 -0.0445
 2123TIP3    H127860   4.172   4.315  16.241 -0.3088 -0.2010  0.0459
 2123TIP3    H227861   4.099   4.247  16.354 -1.6661  0.1331 -0.6175
 2124TIP3   OH227862   4.233   1.728   6.465  0.7808 -0.3258 -0.6832
 2124TIP3    H127863   4.257   1.820   6.451  0.9519  0.1266  2.0654
 2124TIP3    H227864   4.163   1.730   6.529  1.2827 -2.1466 -0.0058
 2125TIP3   OH227865   3.640   0.198   3.918 -0.4027  0.0291  0.1806
 2125TIP3    H127866   3.685   0.160   3.994 -2.8732  0.3564  1.9254
 2125TIP3    H227867   3.548   0.200   3.943 -1.1665  1.3146 -2.3792
 2126TIP3   OH227868   3.359   4.018   0.714 -0.1894 -0.2940 -0.2747
 2126TIP3    H127869   3.266   4.038   0.730  0.0821 -0.0950  1.2058
 2126TIP3    H227870   3.358   3.932   0.671 -1.0052 -1.4998  1.9710
 2127TIP3   OH227871   3.825   1.138   3.142 -0.7629  0.4468 -0.1812
 2127TIP3    H127872   3.900   1.164   3.195  1.8448  0.3207 -3.4453
 2127TIP3    H227873   3.799   1.052   3.176  0.6879  0.4375  0.9473
 2128TIP3   OH227874   1.801   5.701  14.604 -0.1179  0.4796 -0.3416
 2128TIP3    H127875   1.892   5.688  14.631  0.4504  2.0475 -1.3842
 2128TIP3    H227876   1.798   5.670  14.514 -0.4250  1.1607 -0.5687
 2129TIP3   OH227877   4.845   5.936   2.023  0.1370  0.4159  0.0233
 2129TIP3    H127878   4.922   5.885   2.049  1.3071  1.2220 -1.6856
 2129TIP3    H227879   4.793   5.876   1.971 -0.2093 -0.0138  0.8477
 2130TIP3   OH227880   6.008   1.270  13.636  0.2728 -0.2122 -0.1164
 2130TIP3    H127881   6.082   1.312  13.593 -0.0838 -0.3807 -0.9202
 2130TIP3    H227882   6.027   1.277  13.729  1.4698 -0.5875 -0.3214
 2131TIP3   OH227883   6.013   1.057  14.191 -0.4331  0.1642 -0.6377
 2131TIP3    H127884   5.983   1.019  14.274  0.4492 -0.1950 -0.4707
 2131TIP3    H227885   6.056   0.984  14.146 -2.1641 -0.0284 -2.0791
 2132TIP3   OH227886   5.478   4.183   0.414 -0.4988 -0.4986 -0.4691
 2132TIP3    H127887   5.486   4.259   0.472 -1.3583 -1.7058  1.3332
 2132TIP3    H227888   5.414   4.126   0.457  0.2804 -2.3613 -1.6280
 2133TIP3   OH227889   4.891   4.141  15.419 -0.1153 -0.3519  0.9363
 2133TIP3    H127890   4.923   4.207  15.482 -1.6354  0.1742  1.2084
 2133TIP3    H227891   4.950   4.067  15.431  2.2513  1.2358 -0.0194
 2134TIP3   OH227892   2.250   0.694   5.283  0.3329 -0.0408 -0.1287
 2134TIP3    H127893   2.158   0.666   5.277 -1.2823  4.3616  0.0915
 2134TIP3    H227894   2.251   0.756   5.356  3.2178  0.8544 -0.8140
 2135TIP3   OH227895   4.559   1.907   1.314  0.1026  0.6296 -0.3198
 2135TIP3    H127896   4.485   1.849   1.334  0.8067 -0.2771 -0.2914
 2135TIP3    H227897   4.530   1.993   1.343 -0.7064  0.1745  0.2630
 2136TIP3   OH227898   1.387   6.012   5.023 -0.1929  0.3219  0.3673
 2136TIP3    H127899   1.319   5.963   4.976 -0.8408 -0.5508  2.1200
 2136TIP3    H227900   1.454   5.947   5.043  1.3715  1.2343 -1.5872
 2137TIP3   OH227901   5.644   1.256   3.600 -0.3105  0.2650  0.2027
 2137TIP3    H127902   5.663   1.195   3.529 -0.6770 -0.6271  0.8496
 2137TIP3    H227903   5.678   1.213   3.678 -1.2146  0.5587  0.7674
 2138TIP3   OH227904   4.472   3.136  13.987  0.6416  0.8333 -0.7026
 2138TIP3    H127905   4.482   3.199  14.058  0.6538  0.3595 -0.2831
 2138TIP3    H227906   4.557   3.135  13.943  0.9356  0.4088 -0.1298
 2139TIP3   OH227907   6.197   0.371  14.668 -0.0435 -0.4537  0.2766
 2139TIP3    H127908   6.265   0.437  14.652  0.5404 -0.9122  0.7747
 2139TIP3    H227909   6.116   0.421  14.676  0.4585  0.2662  1.1130
 2140TIP3   OH227910   1.157   1.998   1.830 -0.3925  0.3700  0.0613
 2140TIP3    H127911   1.241   1.994   1.877 -0.2268  0.7283 -0.2052
 2140TIP3    H227912   1.092   1.976   1.897 -0.1817  1.0903  0.5136
 2141TIP3   OH227913   5.156   1.741  16.782  0.3477  0.0581 -0.4390
 2141TIP3    H127914   5.158   1.667  16.720 -0.4743 -1.5303  1.3247
 2141TIP3    H227915   5.068   1.776  16.775  0.1743 -0.2848 -0.0027
 2142TIP3   OH227916   0.736   5.538  13.232  0.5368 -0.0908 -0.2309
 2142TIP3    H127917   0.789   5.463  13.204 -1.0887 -0.1283 -3.6640
 2142TIP3    H227918   0.795   5.589  13.287  2.8640 -2.0463 -0.7143
 2143TIP3   OH227919   0.113   5.684   0.499  0.1069 -0.0144 -0.8509
 2143TIP3    H127920   0.097   5.708   0.590  0.2093 -1.6038 -0.3795
 2143TIP3    H227921   0.028   5.657   0.465  0.3934 -1.3128 -0.6011
 2144TIP3   OH227922   1.220   2.058   3.794  0.3914 -0.2041 -0.0551
 2144TIP3    H127923   1.171   2.088   3.717 -0.1482  3.0163  1.3823
 2144TIP3    H227924   1.154   2.054   3.864  1.1455 -1.6467  0.6253
 2145TIP3   OH227925   2.335   6.409  15.782  0.2690 -0.1410 -0.5275
 2145TIP3    H127926   2.338   6.319  15.815 -0.4182  0.8013  2.4233
 2145TIP3    H227927   2.425   6.428  15.756  1.0750 -0.7695  1.6141
 2146TIP3   OH227928   0.797   0.866   5.218  0.1014 -0.0075 -0.4375
 2146TIP3    H127929   0.769   0.881   5.127  0.8482 -1.2605 -0.8965
 2146TIP3    H227930   0.748   0.789   5.246 -2.1164  1.8415  1.1757
 2147TIP3   OH227931   3.461   2.814   1.916 -0.0053  0.1234  0.1297
 2147TIP3    H127932   3.475   2.832   1.823 -0.9294  1.1018  0.1633
 2147TIP3    H227933   3.529   2.864   1.961 -0.6490  1.0858  0.0585
 2148TIP3   OH227934   0.043   0.977   5.858  0.4573  0.9125 -0.0834
 2148TIP3    H127935   0.101   0.945   5.789  0.4843 -0.6249  0.6127
 2148TIP3    H227936   0.102   1.016   5.923  0.4492  2.1495 -0.8008
 2149TIP3   OH227937   1.812   5.537   2.471 -0.0701 -0.0384 -0.5771
 2149TIP3    H127938   1.835   5.611   2.414 -0.6933 -0.0282 -0.8230
 2149TIP3    H227939   1.822   5.572   2.560 -0.4930  0.3916 -0.6896
 2150TIP3   OH227940   5.492   3.264  16.680  0.4896 -0.2418  0.3045
 2150TIP3    H127941   5.448   3.340  16.718  1.3503  0.7282 -0.5719
 2150TIP3    H227942   5.569   3.252  16.736  1.9728  1.4305 -1.2203
 2151TIP3   OH227943   6.375   3.163  15.875 -0.6117  0.0344 -1.1408
 2151TIP3    H127944   6.436   3.234  15.854 -0.8318  1.5741  2.6455
 2151TIP3    H227945   6.407   3.127  15.958 -2.8026 -1.5684 -0.8922
 2152TIP3   OH227946   5.545   5.944   0.802 -0.5890  0.5566  0.0740
 2152TIP3    H127947   5.595   5.884   0.746 -0.6306  0.1397  0.4733
 2152TIP3    H227948   5.455   5.911   0.797 -0.6239  0.6220  0.2489
 2153TIP3   OH227949   2.761   1.749   3.227  0.2643 -0.3150  0.5753
 2153TIP3    H127950   2.665   1.747   3.222  0.1669  0.6134  1.6774
 2153TIP3    H227951   2.790   1.702   3.150 -1.0943 -1.4825  0.7394
 2154TIP3   OH227952   6.653   0.529   3.406  0.1394  0.6548 -0.9720
 2154TIP3    H127953   6.567   0.550   3.369  0.1919  1.2231 -0.7808
 2154TIP3    H227954   6.691   0.467   3.344 -2.3812 -3.6616  1.3185
 2155TIP3   OH227955   5.665   0.218  16.640 -0.5276 -0.3053  0.1795
 2155TIP3    H127956   5.735   0.153  16.630 -1.0005 -0.5871 -1.7797
 2155TIP3    H227957   5.712   0.299  16.659  0.3644 -0.5223 -0.9300
 2156TIP3   OH227958   4.653   3.178  15.868 -0.0494 -0.2393  0.3216
 2156TIP3    H127959   4.703   3.107  15.911  0.2321 -1.2943 -1.6363
 2156TIP3    H227960   4.720   3.233  15.827 -0.3759 -0.4407 -0.5025
 2157TIP3   OH227961   3.467   4.964  16.767  0.2220 -0.1580  0.1761
 2157TIP3    H127962   3.453   4.962  16.673  0.5620 -0.9948  0.1343
 2157TIP3    H227963   3.467   4.872  16.794 -0.3129  0.0865  1.0582
 2158TIP3   OH227964   5.862   2.981  16.104  0.6463 -0.8191 -0.1942
 2158TIP3    H127965   5.812   3.041  16.159  0.4182  0.1758 -1.4355
 2158TIP3    H227966   5.927   3.037  16.061  1.6687 -1.7967  0.0462
 2159TIP3   OH227967   1.755   1.915  16.661 -0.1283  0.3159  0.4399
 2159TIP3    H127968   1.844   1.935  16.690  0.7369 -1.9763 -0.3891
 2159TIP3    H227969   1.767   1.862  16.583 -2.2263 -0.3977  0.5528
 2160TIP3   OH227970   6.450   4.521  16.768 -0.1612 -0.2158  0.2680
 2160TIP3    H127971   6.433   4.559  16.854  0.6631 -0.3468  0.4984
 2160TIP3    H227972   6.544   4.499  16.769  0.3272  1.5205 -1.3279
 2161TIP3   OH227973   3.162   3.178   5.425 -0.1160 -0.1506 -0.4459
 2161TIP3    H127974   3.207   3.175   5.341 -0.1227  3.5625 -0.7360
 2161TIP3    H227975   3.074   3.143   5.407  0.5672 -1.4530 -1.3997
 2162TIP3   OH227976   3.879   1.629  14.902 -0.5257  0.4146 -0.2985
 2162TIP3    H127977   3.790   1.599  14.881 -0.7067  0.5036  0.3061
 2162TIP3    H227978   3.929   1.615  14.822 -0.4893 -1.8944  0.0677
 2163TIP3   OH227979   4.836   6.370   0.471  0.7850  0.0652  0.0251
 2163TIP3    H127980   4.906   6.311   0.501  0.8079  0.3773  0.5965
 2163TIP3    H227981   4.765   6.312   0.446  0.4704 -0.1895  1.4283
 2164TIP3   OH227982   6.254   2.048  11.573  0.2225  0.0927  0.4906
 2164TIP3    H127983   6.259   2.056  11.668  1.2367 -1.1963  0.5731
 2164TIP3    H227984   6.231   1.957  11.557  0.4235  0.2022 -0.5075
 2165TIP3   OH227985   1.896   6.246   5.211 -0.4739  0.4787 -0.6352
 2165TIP3    H127986   1.906   6.341   5.217 -2.0940  0.6612 -0.0651
 2165TIP3    H227987   1.953   6.211   5.279  1.9411  0.8435 -2.3642
 2166TIP3   OH227988   0.693   1.215   0.168 -0.0991  0.2574 -0.0209
 2166TIP3    H127989   0.726   1.129   0.142  2.2949  1.1374 -0.1768
 2166TIP3    H227990   0.658   1.202   0.255  0.7166 -0.7996  0.1784
 2167TIP3   OH227991   1.490   5.854  13.439  0.7384  0.2563 -0.0284
 2167TIP3    H127992   1.493   5.848  13.535  2.0284  0.0183 -0.0721
 2167TIP3    H227993   1.452   5.771  13.412  0.8224  0.1211  0.2576
 2168TIP3   OH227994   1.010   4.979  11.334  0.7287 -0.0004  0.3636
 2168TIP3    H127995   0.943   5.042  11.308 -0.3180 -1.3735 -0.4154
 2168TIP3    H227996   1.058   5.023  11.404 -0.6885  1.2137  0.6324
 2169TIP3   OH227997   1.575   1.769  15.212  0.0450  0.0663 -0.2812
 2169TIP3    H127998   1.603   1.701  15.273 -1.9788 -0.3475  0.2620
 2169TIP3    H227999   1.630   1.756  15.134  1.0860 -0.8663  0.5734
 2170TIP3   OH228000   0.652   5.822   1.134  0.0634 -0.3243  0.5567
 2170TIP3    H128001   0.622   5.751   1.078 -2.1614  0.4266  0.7350
 2170TIP3    H228002   0.617   5.902   1.094  0.8564  0.5099  1.4597
 2171TIP3   OH228003   1.907   3.062   4.621 -0.0159  0.0906 -0.2663
 2171TIP3    H128004   1.850   3.080   4.546 -1.9080 -0.4002  0.9953
 2171TIP3    H228005   1.904   3.142   4.673 -1.2008 -0.6300  0.8125
 2172TIP3   OH228006   3.754   4.308   5.455  0.4000  0.2592  0.8831
 2172TIP3    H128007   3.722   4.352   5.533 -0.2887  0.3190  0.5773
 2172TIP3    H228008   3.676   4.268   5.416  0.4296  1.6129 -0.6658
 2173TIP3   OH228009   4.281   4.514  13.202 -0.1957 -0.3635  0.1785
 2173TIP3    H128010   4.313   4.584  13.259 -1.1031 -0.6337  1.0501
 2173TIP3    H228011   4.211   4.554  13.151 -0.0764 -0.3900 -0.0070
 2174TIP3   OH228012   1.611   6.670  14.774 -0.1036  0.4511  0.8246
 2174TIP3    H128013   1.524   6.639  14.750 -0.1495  0.0866  1.4253
 2174TIP3    H228014   1.632   6.621  14.854  0.2608  1.2224  1.2101
 2175TIP3   OH228015   6.236   5.453   3.033  0.0953 -0.0009  0.3266
 2175TIP3    H128016   6.234   5.372   2.981 -3.3303  1.3803 -2.0142
 2175TIP3    H228017   6.298   5.509   2.988 -0.2554 -0.0518 -0.2265
 2176TIP3   OH228018   1.667   1.610   1.703 -0.2387 -0.5042  0.0953
 2176TIP3    H128019   1.711   1.555   1.639  1.0138  0.4634  0.0671
 2176TIP3    H228020   1.690   1.700   1.677 -0.3224 -0.0682  1.4334
 2177TIP3   OH228021   5.592   6.222  12.485  0.5979  0.2315  0.1001
 2177TIP3    H128022   5.683   6.253  12.483  0.7207 -0.1368 -0.5624
 2177TIP3    H228023   5.592   6.145  12.429 -0.0208 -0.0802  0.5215
 2178TIP3   OH228024   1.228   1.150  14.919 -0.1920 -0.7498  0.6948
 2178TIP3    H128025   1.264   1.213  14.980  0.7052 -0.8583  0.2930
 2178TIP3    H228026   1.149   1.117  14.962 -0.1764 -0.0226  1.2986
 2179TIP3   OH228027   3.716   2.850   4.117  0.9305 -0.0190 -0.0065
 2179TIP3    H128028   3.776   2.877   4.048  0.2233 -2.4509 -1.7200
 2179TIP3    H228029   3.629   2.857   4.077  0.4484 -0.9112  0.8481
 2180TIP3   OH228030   0.477   3.610   3.057 -0.1477 -0.1310  0.0068
 2180TIP3    H128031   0.494   3.520   3.085  0.5859  0.2713  0.9214
 2180TIP3    H228032   0.563   3.646   3.037 -0.3664  0.5575  0.2595
 2181TIP3   OH228033   2.355   6.358  16.140 -0.6700 -0.1852  0.3506
 2181TIP3    H128034   2.387   6.268  16.148  1.3647  0.4041 -0.4189
 2181TIP3    H228035   2.291   6.367  16.210 -0.7061 -2.1383  0.6232
 2182TIP3   OH228036   0.624   3.991  15.743 -0.0566 -0.5025 -0.1672
 2182TIP3    H128037   0.638   4.082  15.765 -0.6568 -1.0563  2.9394
 2182TIP3    H228038   0.712   3.952  15.743 -0.0148 -0.4625  1.4300
 2183TIP3   OH228039   2.065   4.444   5.683  0.0171 -0.0333  0.1316
 2183TIP3    H128040   2.061   4.350   5.667  2.5364  0.1947 -2.9080
 2183TIP3    H228041   2.155   4.460   5.710  0.4031  1.6931 -1.8745
 2184TIP3   OH228042   2.900   6.459  16.774 -0.2443  0.5024  0.7187
 2184TIP3    H128043   2.971   6.396  16.769 -0.5622  0.1384  0.7331
 2184TIP3    H228044   2.935   6.531  16.827  0.6056  1.0033 -0.4816
 2185TIP3   OH228045   3.911   6.189  17.213  0.5874 -0.3023  0.5560
 2185TIP3    H128046   3.856   6.250  17.162 -0.0141 -0.0760  1.4416
 2185TIP3    H228047   3.862   6.107  17.211  1.2694 -0.7039 -0.4152
 2186TIP3   OH228048   4.143   2.028   2.800 -0.2975  0.0107  0.5218
 2186TIP3    H128049   4.116   2.117   2.778  0.0006  0.2053  0.9173
 2186TIP3    H228050   4.075   1.996   2.860  0.3386  0.5167  1.5526
 2187TIP3   OH228051   1.370   0.812  16.212 -0.1007  0.7385 -0.0121
 2187TIP3    H128052   1.317   0.890  16.196 -1.2386 -0.0660 -0.2901
 2187TIP3    H228053   1.316   0.740  16.181  0.7245 -0.2150  0.7104
 2188TIP3   OH228054   2.842   5.485  15.808  0.1654 -0.1837  0.3327
 2188TIP3    H128055   2.749   5.493  15.790  0.0231  0.6224  1.3336
 2188TIP3    H228056   2.869   5.406  15.761 -0.1494  1.6763 -3.3194
 2189TIP3   OH228057   3.896   5.916   2.787  0.1154  0.2743  0.3115
 2189TIP3    H128058   3.953   5.839   2.781 -0.8272 -0.4400  0.4260
 2189TIP3    H228059   3.822   5.888   2.839 -2.3337 -0.0970 -3.0238
 2190TIP3   OH228060   6.759   3.679  12.767  0.1736 -0.1147 -0.1225
 2190TIP3    H128061   6.741   3.693  12.860  0.0101 -0.8149 -0.0378
 2190TIP3    H228062   6.687   3.722  12.721 -0.7842 -1.3512  0.1526
 2191TIP3   OH228063   4.051   0.402  13.116 -0.3972 -0.0900 -0.1223
 2191TIP3    H128064   4.111   0.413  13.042  1.1053  0.7492  1.1463
 2191TIP3    H228065   4.025   0.491  13.139  1.6012  0.0052  2.2036
 2192TIP3   OH228066   4.594   4.290  13.171  0.0737 -0.5992  0.5272
 2192TIP3    H128067   4.525   4.288  13.238 -0.4910  1.3351  0.0477
 2192TIP3    H228068   4.574   4.216  13.114 -0.3793 -1.2975  1.5561
 2193TIP3   OH228069   1.630   3.466   5.073 -0.1304 -0.3694  0.0500
 2193TIP3    H128070   1.682   3.388   5.055 -0.3760 -0.3858 -0.5992
 2193TIP3    H228071   1.664   3.532   5.012  0.0527  0.0289  0.5674
 2194TIP3   OH228072   3.622   5.899   4.214  0.0535  0.4798  0.3636
 2194TIP3    H128073   3.560   5.879   4.144 -1.0234  1.0523  1.1206
 2194TIP3    H228074   3.674   5.972   4.179  0.8326 -0.4858 -0.5615
 2195TIP3   OH228075   6.590   6.463  10.596 -0.2292 -0.7467 -0.0094
 2195TIP3    H128076   6.639   6.501  10.524 -0.3589 -1.9731 -0.7750
 2195TIP3    H228077   6.655   6.412  10.645 -0.4227 -1.0634 -0.0813
 2196TIP3   OH228078   0.222   0.147  12.078  0.3724 -0.5683 -0.4104
 2196TIP3    H128079   0.302   0.191  12.049  1.0172 -2.6218 -2.0119
 2196TIP3    H228080   0.160   0.158  12.006 -0.7532  0.7417  0.6905
 2197TIP3   OH228081   1.895   1.486  16.857 -0.5132  0.0566  0.0366
 2197TIP3    H128082   1.906   1.579  16.836  1.5286  0.0029  0.6162
 2197TIP3    H228083   1.905   1.441  16.773  1.4573  0.2205  0.1352
 2198TIP3   OH228084   1.785   3.701   6.012  0.5277 -0.0765 -0.4538
 2198TIP3    H128085   1.867   3.735   5.977 -0.1829  0.4851 -1.6189
 2198TIP3    H228086   1.796   3.704   6.107  1.4163  1.0645 -0.5793
 2199TIP3   OH228087   4.496   0.053   1.714 -0.1995 -0.8925 -0.4714
 2199TIP3    H128088   4.518   0.113   1.786  1.0402  1.4266 -2.5978
 2199TIP3    H228089   4.580   0.015   1.688 -0.3270 -0.3110 -1.7975
 2200TIP3   OH228090   6.565   6.579  14.224  0.4320 -0.4775 -0.0972
 2200TIP3    H128091   6.633   6.524  14.184  0.3174 -0.5892 -0.1381
 2200TIP3    H228092   6.604   6.667  14.226  0.1114 -0.2978 -1.2344
 2201TIP3   OH228093   1.831   1.143   3.698 -0.3408 -0.3288  0.2855
 2201TIP3    H128094   1.794   1.231   3.697 -0.7030 -0.4620  1.0337
 2201TIP3    H228095   1.922   1.156   3.724  0.2012  0.0106 -1.6719
 2202TIP3   OH228096   1.025   4.696  11.951  0.6190 -0.5071  0.0300
 2202TIP3    H128097   0.940   4.669  11.986 -0.0664  1.0897 -0.3116
 2202TIP3    H228098   1.020   4.674  11.858 -0.4191  1.6535 -0.5190
 2203TIP3   OH228099   0.979   5.862   5.532 -0.4777 -0.4592 -0.8142
 2203TIP3    H128100   1.018   5.828   5.613  1.2787  1.6957 -0.6947
 2203TIP3    H228101   0.887   5.834   5.537  0.0530 -2.1118  0.9089
 2204TIP3   OH228102   1.959   6.143   1.177 -0.4788  0.0567  0.2474
 2204TIP3    H128103   2.028   6.209   1.175  0.6142 -1.0625 -0.8175
 2204TIP3    H228104   1.991   6.077   1.238  0.2984 -1.3386 -1.5584
 2205TIP3   OH228105   1.924   5.152   5.895 -0.4140  0.4973 -0.1821
 2205TIP3    H128106   2.004   5.176   5.942 -1.3207 -0.7475  2.2087
 2205TIP3    H228107   1.856   5.206   5.934 -0.7537  1.8697 -2.5033
 2206TIP3   OH228108   1.606   3.971  12.781  0.1783 -0.1031  0.0486
 2206TIP3    H128109   1.518   3.986  12.746 -0.7003  0.0619  2.1572
 2206TIP3    H228110   1.635   3.890  12.741 -1.7593 -1.1980  0.7342
 2207TIP3   OH228111   4.194   4.974   3.200 -0.3212  0.2451  0.0251
 2207TIP3    H128112   4.193   5.067   3.224 -3.6860 -0.0233  1.3556
 2207TIP3    H228113   4.138   4.931   3.264  1.6817 -2.9030 -0.1081
 2208TIP3   OH228114   1.314   4.523   3.470 -0.1919  0.3042  0.2259
 2208TIP3    H128115   1.349   4.434   3.474 -1.5941 -0.4282 -2.2991
 2208TIP3    H228116   1.384   4.574   3.429  0.2613  0.1894  0.8426
 2209TIP3   OH228117   3.361   3.057  16.628  0.2062 -0.1365 -0.0982
 2209TIP3    H128118   3.279   3.104  16.618  0.0056 -0.1976  1.1252
 2209TIP3    H228119   3.372   3.047  16.723  1.7436  0.0928 -0.2215
 2210TIP3   OH228120   1.023   3.624   5.274  0.6533 -0.2205 -0.1135
 2210TIP3    H128121   0.948   3.684   5.272  0.6581 -0.1524  1.0534
 2210TIP3    H228122   1.006   3.563   5.202 -0.5912 -0.2634  0.1870
 2211TIP3   OH228123   6.092   5.872  13.535 -0.3808 -0.0261 -0.2333
 2211TIP3    H128124   6.103   5.792  13.587 -1.5698  0.7948  1.3573
 2211TIP3    H228125   6.129   5.941  13.589 -2.1682  0.9378 -0.1926
 2212TIP3   OH228126   2.592   5.674   3.351 -0.7434 -0.1063  0.1309
 2212TIP3    H128127   2.666   5.701   3.297 -0.5977  1.1830  0.9382
 2212TIP3    H228128   2.616   5.588   3.384  0.4393  0.3251  0.4355
 2213TIP3   OH228129   5.107   0.747  14.020  0.2487  0.0116 -0.4228
 2213TIP3    H128130   5.080   0.748  13.928  2.0996  0.4586 -1.0177
 2213TIP3    H228131   5.201   0.768  14.017  0.4082 -0.2487  1.5530
 2214TIP3   OH228132   3.252   0.543   4.404 -0.2503  0.3470  0.0418
 2214TIP3    H128133   3.335   0.577   4.372  1.1698 -1.2559  1.7842
 2214TIP3    H228134   3.270   0.451   4.423 -2.7468 -0.3255 -0.5251
 2215TIP3   OH228135   0.541   3.818   3.695 -0.1825  0.2222  0.3129
 2215TIP3    H128136   0.567   3.884   3.631  0.7048 -0.3607  0.0481
 2215TIP3    H228137   0.502   3.748   3.643  1.2300 -0.5940  0.2882
 2216TIP3   OH228138   6.227   4.236   2.011  0.1567  0.0951 -0.0427
 2216TIP3    H128139   6.163   4.222   2.081 -0.2892 -0.3398 -0.5236
 2216TIP3    H228140   6.204   4.321   1.974  0.1701  0.1642  0.1054
 2217TIP3   OH228141   1.885   0.030  10.622 -0.0539  0.6982 -0.3651
 2217TIP3    H128142   1.870   0.030  10.527  1.5707 -0.0679 -0.6551
 2217TIP3    H228143   1.944  -0.044  10.637  1.8776  2.3814  0.8791
 2218TIP3   OH228144   4.359   4.041   4.958 -0.0547 -0.1519 -0.1949
 2218TIP3    H128145   4.286   4.073   5.011  0.9122  0.7983  0.6203
 2218TIP3    H228146   4.326   4.039   4.869 -1.3495 -0.5996  0.2833
 2219TIP3   OH228147   6.035   6.675   0.886 -0.3481  0.2552  0.5967
 2219TIP3    H128148   6.052   6.598   0.832 -0.2407  0.8564 -0.2536
 2219TIP3    H228149   6.090   6.662   0.964  2.1582  0.9462 -0.9513
 2220TIP3   OH228150   3.013   0.862   2.689  0.4185 -0.6713 -0.3341
 2220TIP3    H128151   2.968   0.825   2.613 -2.5703 -1.5631  1.6710
 2220TIP3    H228152   3.032   0.787   2.745 -0.6148  0.1804  1.2763
 2221TIP3   OH228153   4.071   2.332  14.549  0.1964  0.2527 -0.2039
 2221TIP3    H128154   4.080   2.416  14.505  0.4806  2.6836  3.9473
 2221TIP3    H228155   3.976   2.315  14.550 -0.0593  1.6108  0.5861
 2222TIP3   OH228156   5.384   3.716  13.717  0.5290  0.3106 -0.4289
 2222TIP3    H128157   5.298   3.758  13.717  0.4958  0.2942 -1.5636
 2222TIP3    H228158   5.420   3.733  13.804 -1.0736 -0.6335  0.4630
 2223TIP3   OH228159   4.710   0.764   6.656 -0.4449 -0.0795  0.1855
 2223TIP3    H128160   4.675   0.679   6.682  0.3621 -0.3864  0.3103
 2223TIP3    H228161   4.801   0.763   6.686  0.1522  0.0499 -1.5224
 2224TIP3   OH228162   0.585   3.685   2.375  0.0288 -0.2951 -0.7797
 2224TIP3    H128163   0.499   3.694   2.334  0.1779  0.7877 -0.9043
 2224TIP3    H228164   0.645   3.727   2.313  0.2514  1.4149  0.5031
 2225TIP3   OH228165   6.116   4.099  16.985 -0.4425  0.2506  0.5047
 2225TIP3    H128166   6.147   4.188  16.970 -0.5239  0.2367  0.2448
 2225TIP3    H228167   6.175   4.063  17.051  0.7837 -0.1469 -0.7521
 2226TIP3   OH228168   4.002   6.588   2.913 -0.5517 -0.4146 -0.7520
 2226TIP3    H128169   3.965   6.676   2.912 -1.9307 -0.9709 -0.9865
 2226TIP3    H228170   3.960   6.543   2.839  2.2877 -0.4546 -2.4863
 2227TIP3   OH228171   4.073   4.947   1.974 -0.1333  1.0108 -0.0206
 2227TIP3    H128172   3.999   5.007   1.974 -1.1307 -0.1775  0.3591
 2227TIP3    H228173   4.037   4.864   2.006  0.3677 -0.7750 -3.5382
 2228TIP3   OH228174   1.535   5.232  15.229 -0.2268 -0.3018 -0.5263
 2228TIP3    H128175   1.528   5.227  15.324  2.5142 -0.5713 -0.2605
 2228TIP3    H228176   1.514   5.143  15.199 -0.5566 -0.3591 -0.1321
 2229TIP3   OH228177   2.555   5.216   4.888 -0.2183  0.2817 -0.0758
 2229TIP3    H128178   2.461   5.228   4.876 -0.3796 -1.7168 -1.3306
 2229TIP3    H228179   2.572   5.248   4.976 -2.4189 -1.0094  0.8934
 2230TIP3   OH228180   0.297   2.904  15.535  0.3003  0.6574  0.6937
 2230TIP3    H128181   0.321   2.812  15.540 -1.3731  0.0125 -1.7883
 2230TIP3    H228182   0.353   2.940  15.466  1.0790  1.5940  1.7735
 2231TIP3   OH228183   2.793   1.980   2.540  0.7640  0.0285  0.2106
 2231TIP3    H128184   2.833   1.963   2.455 -0.7490  0.3223 -0.5869
 2231TIP3    H228185   2.762   2.071   2.534 -0.7741 -0.4531  0.4624
 2232TIP3   OH228186   4.065   5.411  16.127 -0.5747 -0.6404 -0.4809
 2232TIP3    H128187   4.080   5.368  16.211 -1.2271 -0.3158 -0.1904
 2232TIP3    H228188   4.041   5.501  16.150 -0.1087 -0.3675 -1.0432
 2233TIP3   OH228189   6.055   1.654  15.132  0.0200 -0.0224 -0.4656
 2233TIP3    H128190   6.132   1.673  15.187 -0.4304 -0.7480  0.4425
 2233TIP3    H228191   6.065   1.562  15.109 -0.0522  0.1526 -1.2167
 2234TIP3   OH228192   4.798   6.286  14.498  0.0629  0.7137 -0.3199
 2234TIP3    H128193   4.825   6.287  14.406 -0.4760 -1.8283 -0.5667
 2234TIP3    H228194   4.874   6.250  14.544  0.2111  1.6823  0.2241
 2235TIP3   OH228195   5.303   5.010   4.192  0.1209 -0.2781 -0.2571
 2235TIP3    H128196   5.287   4.918   4.171  0.2814 -0.7571  1.5456
 2235TIP3    H228197   5.399   5.017   4.197  0.1884  0.3628 -1.8069
 2236TIP3   OH228198   3.957   4.028   1.848  1.1795 -0.0916  0.2055
 2236TIP3    H128199   3.919   4.056   1.932  1.1045 -0.4176  0.2784
 2236TIP3    H228200   3.958   3.933   1.852  2.5854 -0.0830  0.4656
 2237TIP3   OH228201   5.637   1.964  12.751  0.0419  0.5278  0.5046
 2237TIP3    H128202   5.576   2.005  12.690  0.1483 -2.0756 -1.5586
 2237TIP3    H228203   5.714   2.021  12.751 -0.3304  1.0776 -1.1433
 2238TIP3   OH228204   4.492   0.859  16.922  0.5951  0.7672  0.2293
 2238TIP3    H128205   4.459   0.917  16.991 -0.0916  0.6669 -0.0132
 2238TIP3    H228206   4.416   0.807  16.896  1.3578 -0.8350  1.0128
 2239TIP3   OH228207   4.876   3.486   5.294 -0.1172 -0.5621  0.2503
 2239TIP3    H128208   4.834   3.476   5.209  2.1052 -0.9540 -0.8842
 2239TIP3    H228209   4.928   3.406   5.305 -0.8528 -0.8100  2.2954
 2240TIP3   OH228210   0.984   5.504   4.466 -0.3997  0.5787  0.1123
 2240TIP3    H128211   0.977   5.534   4.557 -2.5463 -0.1997  0.2512
 2240TIP3    H228212   0.955   5.579   4.414 -0.3655  0.6122  0.1406
 2241TIP3   OH228213   0.936   0.021   2.200  0.3341 -0.2170 -0.3664
 2241TIP3    H128214   1.028   0.025   2.225  0.1292 -0.6738  0.4761
 2241TIP3    H228215   0.927  -0.060   2.150  0.3654 -0.2068 -0.3883
 2242TIP3   OH228216   0.708   1.105   5.289  0.0129 -0.4398 -0.0611
 2242TIP3    H128217   0.745   1.018   5.271  2.2018 -0.0040  1.7612
 2242TIP3    H228218   0.627   1.087   5.336  0.7296 -1.5574  0.8294
 2243TIP3   OH228219   2.354   3.606  16.431 -0.0105  0.4288  0.1862
 2243TIP3    H128220   2.430   3.628  16.379 -1.4761  1.7741 -1.5326
 2243TIP3    H228221   2.367   3.515  16.457  0.9414 -0.2218 -2.3273
 2244TIP3   OH228222   5.332   5.536   3.955  0.3390 -0.8748 -0.3260
 2244TIP3    H128223   5.317   5.575   3.869  1.9596  0.7346  0.0681
 2244TIP3    H228224   5.321   5.442   3.941 -0.8277 -0.5378 -1.9577
 2245TIP3   OH228225   5.145   4.367   5.146 -0.6373  0.1608  0.5621
 2245TIP3    H128226   5.081   4.302   5.118 -0.4107 -0.2216  0.9184
 2245TIP3    H228227   5.225   4.343   5.099 -0.7658  0.6733  0.0707
 2246TIP3   OH228228   4.152   5.958  12.102  0.1465  0.4058 -1.1703
 2246TIP3    H128229   4.207   6.031  12.071 -0.6680 -0.7607 -6.2647
 2246TIP3    H228230   4.068   5.971  12.057  0.2284 -3.9849 -3.0273
 2247TIP3   OH228231   0.121   2.283   2.562  0.4989 -0.1014 -0.0646
 2247TIP3    H128232   0.088   2.196   2.538  0.7360 -0.2869  0.2640
 2247TIP3    H228233   0.125   2.331   2.480 -0.7832 -0.0076 -0.0853
 2248TIP3   OH228234   5.274   5.095   4.456  0.0595  0.0136 -0.4118
 2248TIP3    H128235   5.339   5.076   4.389  0.7091  1.4860 -0.2508
 2248TIP3    H228236   5.235   5.010   4.477  1.9912 -0.9281 -0.4421
 2249TIP3   OH228237   1.900   1.465  13.030 -0.4275 -0.2254  0.0667
 2249TIP3    H128238   1.928   1.525  12.961 -0.0354 -0.4702  0.0090
 2249TIP3    H228239   1.842   1.517  13.085  1.2447  0.7267  1.0026
 2250TIP3   OH228240   2.752   6.140   5.397 -0.4952  0.0252  0.1924
 2250TIP3    H128241   2.785   6.216   5.445 -3.3252  1.6813 -0.2875
 2250TIP3    H228242   2.793   6.146   5.310  1.8719 -0.9960  1.1414
 2251TIP3   OH228243   0.693   5.966   1.975  0.1917 -0.6813 -0.1158
 2251TIP3    H128244   0.694   5.890   2.033  3.9774  0.6092  1.8889
 2251TIP3    H228245   0.748   5.941   1.901  0.6084 -0.2543  0.0436
 2252TIP3   OH228246   2.693   0.427  16.158  0.6407  0.1751 -0.2417
 2252TIP3    H128247   2.621   0.456  16.102  0.7886 -0.5211 -0.8161
 2252TIP3    H228248   2.692   0.331  16.149 -1.7710 -0.4438  3.8835
 2253TIP3   OH228249   3.371   2.855   5.711 -0.0835  0.1719  0.6298
 2253TIP3    H128250   3.414   2.932   5.748 -0.3421  1.8169 -2.2302
 2253TIP3    H228251   3.285   2.887   5.682 -0.0894 -1.1038 -0.8702
 2254TIP3   OH228252   2.211   0.749   0.172  0.0710 -0.2633 -0.1140
 2254TIP3    H128253   2.250   0.672   0.213 -0.2848 -1.5924 -2.1282
 2254TIP3    H228254   2.228   0.737   0.078 -0.3730  1.9080 -0.5149
 2255TIP3   OH228255   1.790   4.390   5.788 -0.4789  0.2791  0.2046
 2255TIP3    H128256   1.878   4.423   5.806  0.5213 -2.0056 -0.1897
 2255TIP3    H228257   1.758   4.357   5.872 -0.6920  0.4664  0.2001
 2256TIP3   OH228258   3.679   1.683   1.078 -0.0373 -0.4247  0.3006
 2256TIP3    H128259   3.754   1.633   1.046  0.5349 -0.1800  1.2297
 2256TIP3    H228260   3.716   1.767   1.107 -0.7664 -0.0414  0.1593
 2257TIP3   OH228261   1.620   5.681   3.776  0.7997  0.3292  0.3236
 2257TIP3    H128262   1.612   5.607   3.716  1.3210  1.7864 -1.6504
 2257TIP3    H228263   1.699   5.727   3.747  0.4613  1.6934  1.4450
 2258TIP3   OH228264   0.471   2.855  11.591  0.4203 -0.6903 -0.8068
 2258TIP3    H128265   0.500   2.815  11.673  2.8282  0.9150 -0.7520
 2258TIP3    H228266   0.505   2.798  11.522  0.0928 -1.0098 -0.7033
 2259TIP3   OH228267   3.056   2.071   3.126 -0.1300  0.9026  0.2463
 2259TIP3    H128268   2.962   2.090   3.128 -0.9076 -2.2333  1.9637
 2259TIP3    H228269   3.070   2.031   3.041 -0.5641  0.6320  0.2959
 2260TIP3   OH228270   2.545   5.019   3.852 -0.6264  0.2130 -0.3596
 2260TIP3    H128271   2.522   4.927   3.858 -1.6628  0.5186  4.1289
 2260TIP3    H228272   2.639   5.022   3.871 -0.5731  0.0592 -0.6055
 2261TIP3   OH228273   6.151   3.799  14.846 -0.0585 -0.1977  0.5446
 2261TIP3    H128274   6.208   3.836  14.914  0.6103 -0.9663  0.4246
 2261TIP3    H228275   6.198   3.721  14.816 -1.9466 -1.8356  1.6141
 2262TIP3   OH228276   6.083   0.878   1.422 -0.4607 -0.5959  0.1204
 2262TIP3    H128277   6.035   0.833   1.353  0.4614 -0.6232 -0.5167
 2262TIP3    H228278   6.033   0.860   1.502 -1.2227 -1.0377 -0.4462
 2263TIP3   OH228279   1.508   3.762   1.389  0.3662 -0.0915  0.0545
 2263TIP3    H128280   1.418   3.737   1.370  0.8280 -2.4125  0.5383
 2263TIP3    H228281   1.560   3.684   1.366  1.9580  0.3106  1.9701
 2264TIP3   OH228282   3.299   1.317  16.768 -0.4366 -0.3015 -0.0051
 2264TIP3    H128283   3.319   1.341  16.678 -1.0198  0.8486  0.1610
 2264TIP3    H228284   3.382   1.329  16.815 -0.2955 -0.2843 -0.2570
 2265TIP3   OH228285   1.321   2.512   4.884 -0.3261  0.2858  0.0583
 2265TIP3    H128286   1.306   2.606   4.871 -1.6539 -0.3179 -3.8042
 2265TIP3    H228287   1.234   2.476   4.899  0.0728 -0.5117  0.5332
 2266TIP3   OH228288   4.126   2.187  13.382 -0.0009 -0.2023  0.4820
 2266TIP3    H128289   4.043   2.234  13.379 -0.3114 -0.7908 -0.6844
 2266TIP3    H228290   4.159   2.203  13.471 -1.4302 -0.0989  1.0304
 2267TIP3   OH228291   5.058   6.362   4.583 -0.2339  0.2269 -0.2988
 2267TIP3    H128292   4.986   6.392   4.639 -1.5579 -0.3580 -1.6029
 2267TIP3    H228293   5.083   6.277   4.619  1.9447  1.6767  1.9880
 2268TIP3   OH228294   2.449   4.844  13.966 -0.5071  0.5725  0.6644
 2268TIP3    H128295   2.363   4.803  13.963 -0.6813  0.6686  2.7238
 2268TIP3    H228296   2.498   4.794  14.031  1.3994 -0.1382 -1.2099
 2269TIP3   OH228297   4.093   0.074  11.676 -0.1645 -0.0752  0.2627
 2269TIP3    H128298   4.060   0.007  11.736  0.3784 -1.2532 -0.7071
 2269TIP3    H228299   4.016   0.128  11.655 -0.7965 -0.9047  0.4133
 2270TIP3   OH228300   2.061   3.358   0.003  0.3342 -0.0645  0.2842
 2270TIP3    H128301   2.124   3.359  -0.068  0.6176  2.2636  0.4871
 2270TIP3    H228302   2.081   3.437   0.054 -0.7209 -0.9447  2.1709
 2271TIP3   OH228303   2.991   6.799  14.100  0.0241 -0.9069 -0.4178
 2271TIP3    H128304   2.917   6.784  14.159  1.2614  0.8234  1.7308
 2271TIP3    H228305   3.064   6.752  14.140  0.6136 -0.7832 -1.3184
 2272TIP3   OH228306   5.318   1.063  11.467 -0.1124  0.0453 -0.5245
 2272TIP3    H128307   5.361   1.136  11.425 -1.0459  0.2155 -1.2169
 2272TIP3    H228308   5.288   1.098  11.551  0.0882  0.2411 -0.5346
 2273TIP3   OH228309   0.703   6.406  14.621 -0.2478 -0.3529  0.4643
 2273TIP3    H128310   0.707   6.440  14.532  0.2742 -2.2934 -0.3077
 2273TIP3    H228311   0.763   6.331  14.621  1.0074  0.5622  2.9073
 2274TIP3   OH228312   1.306   1.977  16.526  0.4277 -0.2347  0.6377
 2274TIP3    H128313   1.358   1.905  16.490 -0.8374 -0.9365  0.1517
 2274TIP3    H228314   1.336   1.984  16.617  1.2269 -0.7385  0.4294
 2275TIP3   OH228315   5.669   3.148   6.569 -0.9035  0.0862  0.3787
 2275TIP3    H128316   5.647   3.145   6.662 -1.6374 -0.9144  0.1883
 2275TIP3    H228317   5.603   3.093   6.527  1.3063 -2.1993 -0.3524
 2276TIP3   OH228318   0.816   0.730   3.109  0.1550  0.3487  0.2203
 2276TIP3    H128319   0.892   0.672   3.113  0.2988  0.5570  0.4957
 2276TIP3    H228320   0.741   0.672   3.120  0.1896 -0.0555 -1.3423
 2277TIP3   OH228321   1.853   2.426   4.471  0.0530  0.2907 -0.0132
 2277TIP3    H128322   1.944   2.415   4.446  0.3175 -0.7075  1.3295
 2277TIP3    H228323   1.817   2.485   4.404  0.7487 -2.0670 -2.6378
 2278TIP3   OH228324   5.924   4.092   2.394  0.0436  0.2777 -0.1882
 2278TIP3    H128325   5.900   4.001   2.413 -0.3334  0.5540  0.7081
 2278TIP3    H228326   6.014   4.086   2.363 -1.1414 -0.8366 -4.0216
 2279TIP3   OH228327   2.899   1.630   4.611 -0.1526 -0.4066  0.3392
 2279TIP3    H128328   2.973   1.609   4.553 -0.5592  0.6059 -0.5756
 2279TIP3    H228329   2.938   1.676   4.685  0.0174  1.3412 -0.7894
 2280TIP3   OH228330   3.651   5.909   2.929 -0.0809 -0.3160  0.7771
 2280TIP3    H128331   3.559   5.885   2.943 -0.2093 -0.1192  0.3061
 2280TIP3    H228332   3.661   5.993   2.974 -0.2181 -0.1839  0.5641
 2281TIP3   OH228333   1.721   2.485   0.743  0.0243 -0.1431 -0.1068
 2281TIP3    H128334   1.707   2.501   0.837  0.9099 -2.3108  0.4676
 2281TIP3    H228335   1.662   2.413   0.722 -0.9717  1.0380 -1.5429
 2282TIP3   OH228336   3.045   4.508  12.817  0.1977 -0.2363 -0.1567
 2282TIP3    H128337   2.958   4.490  12.855 -0.4097  0.2719 -1.2562
 2282TIP3    H228338   3.065   4.597  12.845  0.0793 -0.1292 -0.4062
 2283TIP3   OH228339   5.996   4.450  16.849 -0.1471  0.1510  0.4181
 2283TIP3    H128340   5.996   4.531  16.797 -0.7190 -0.5634 -0.7383
 2283TIP3    H228341   5.922   4.461  16.910 -0.2033  0.5103  0.2900
 2284TIP3   OH228342   3.612   3.523  13.178  0.4105  0.2602  0.0193
 2284TIP3    H128343   3.671   3.460  13.218 -0.6470 -0.4120  0.5888
 2284TIP3    H228344   3.591   3.584  13.250  1.4321  1.2831 -0.5272
 2285TIP3   OH228345   0.579   5.132  17.124 -0.0452 -0.5641  0.2449
 2285TIP3    H128346   0.521   5.075  17.175 -0.2300  1.8163  2.8921
 2285TIP3    H228347   0.628   5.182  17.189  2.0417  0.4458 -1.9395
 2286TIP3   OH228348   3.640   2.378   3.471 -0.1733  0.1530  0.1037
 2286TIP3    H128349   3.623   2.305   3.412 -0.7771  1.0161 -0.8245
 2286TIP3    H228350   3.736   2.379   3.479 -0.2208 -1.9471  1.7578
 2287TIP3   OH228351   1.661   0.287   2.028  0.3188  0.4849  0.5666
 2287TIP3    H128352   1.717   0.302   2.105  0.8826  0.2490  0.2106
 2287TIP3    H228353   1.628   0.374   2.006 -0.5097  0.4319  1.5674
 2288TIP3   OH228354   1.222   5.062  11.534  0.3912  0.2382  0.7873
 2288TIP3    H128355   1.263   4.981  11.563 -1.1967 -1.0178 -0.2762
 2288TIP3    H228356   1.285   5.101  11.474 -0.6873 -2.9114 -2.8319
 2289TIP3   OH228357   5.942   1.198   2.854 -0.0486 -0.3076 -0.8970
 2289TIP3    H128358   5.996   1.143   2.798  2.0288 -1.0891  1.6896
 2289TIP3    H228359   5.893   1.136   2.908  0.7085  0.3408  0.5881
 2290TIP3   OH228360   1.445   2.644   2.584 -0.0572  0.4309 -0.6845
 2290TIP3    H128361   1.374   2.700   2.616  0.4566  2.0170 -2.1576
 2290TIP3    H228362   1.499   2.702   2.531  2.1977 -0.8058  0.1364
 2291TIP3   OH228363   5.381   4.894  12.788 -0.9140 -0.2354 -0.6312
 2291TIP3    H128364   5.448   4.835  12.821  1.6631  2.1982 -1.0685
 2291TIP3    H228365   5.355   4.856  12.704 -0.4105 -1.4534 -0.2596
 2292TIP3   OH228366   2.395   3.522   6.680 -0.3840  0.4353 -0.4184
 2292TIP3    H128367   2.485   3.502   6.707 -0.7629 -0.4433  0.2386
 2292TIP3    H228368   2.377   3.460   6.610  0.1745  1.9080 -1.9329
 2293TIP3   OH228369   3.579   4.942   4.130  0.0659  0.3236 -0.7119
 2293TIP3    H128370   3.619   4.870   4.082 -0.5660  0.3532 -1.2867
 2293TIP3    H228371   3.533   4.900   4.203 -1.5514 -0.0111 -1.8856
 2294TIP3   OH228372   3.497   1.427  12.840  0.1786  0.1300 -0.1418
 2294TIP3    H128373   3.404   1.416  12.819 -0.1099 -2.1124  1.8625
 2294TIP3    H228374   3.540   1.353  12.798  1.0567  1.0631 -0.9183
 2295TIP3   OH228375   2.430   2.353   5.434  0.9955 -0.2789  0.0725
 2295TIP3    H128376   2.492   2.319   5.499  1.7663  1.5222  0.3330
 2295TIP3    H228377   2.484   2.404   5.374 -0.0065 -0.1699 -0.7607
 2296TIP3   OH228378   6.626   5.440   5.741 -0.0734  0.0978 -0.3059
 2296TIP3    H128379   6.711   5.410   5.773  0.7827  0.0331 -2.4510
 2296TIP3    H228380   6.571   5.444   5.819  1.9918  0.5468  1.2250
 2297TIP3   OH228381   5.094   4.552   2.440 -0.3506  0.2721  0.1340
 2297TIP3    H128382   5.166   4.542   2.502 -0.7865  2.3884  1.0551
 2297TIP3    H228383   5.039   4.621   2.477 -2.6119 -0.9010 -0.7952
 2298TIP3   OH228384   3.391   6.417   2.113 -0.4586 -0.1642  0.0397
 2298TIP3    H128385   3.322   6.355   2.136 -1.1039  0.8541  0.9109
 2298TIP3    H228386   3.447   6.368   2.053 -2.4503 -0.7051 -1.4923
 2299TIP3   OH228387   4.207   0.870  14.347  0.2043  0.0947  0.7445
 2299TIP3    H128388   4.141   0.884  14.279  0.0958 -3.8241 -0.2550
 2299TIP3    H228389   4.156   0.859  14.428 -0.4182 -1.7787  0.1741
 2300TIP3   OH228390   6.062   0.149  11.512 -0.0004  0.3424 -0.1832
 2300TIP3    H128391   6.007   0.139  11.434 -0.7448 -1.7018  0.5464
 2300TIP3    H228392   6.151   0.136  11.479 -0.3984 -2.0134 -0.5421
 2301TIP3   OH228393   4.893   4.966  12.629 -0.0845 -0.1596  0.2160
 2301TIP3    H128394   4.907   5.057  12.652 -1.5930 -0.0989  1.0351
 2301TIP3    H228395   4.890   4.920  12.713  2.8839 -1.3811 -0.2303
 2302TIP3   OH228396   5.668   2.309   2.168 -0.1914 -0.1094 -0.1920
 2302TIP3    H128397   5.673   2.285   2.260  0.5500 -0.7892 -0.4035
 2302TIP3    H228398   5.614   2.241   2.128  1.9062 -1.5222 -0.7887
 2303TIP3   OH228399   6.326   5.211   2.911  0.4165 -0.4935 -0.1259
 2303TIP3    H128400   6.405   5.205   2.965  0.6333 -2.2063 -0.5837
 2303TIP3    H228401   6.355   5.188   2.823 -0.0804  1.5532 -0.8952
 2304TIP3   OH228402   2.728   5.918   1.808 -0.0275  0.5944 -0.1405
 2304TIP3    H128403   2.742   5.940   1.900  0.0659 -1.1277  0.2901
 2304TIP3    H228404   2.814   5.927   1.768 -0.1077  1.5412 -0.1108
 2305TIP3   OH228405   6.303   1.909   2.207 -0.0330 -0.1655  0.5831
 2305TIP3    H128406   6.243   1.851   2.161 -0.9617  0.1106  1.4226
 2305TIP3    H228407   6.305   1.989   2.153  0.3564 -0.5371  0.0362
 2306TIP3   OH228408   3.538   6.198   1.893  0.1135 -0.3443 -0.1659
 2306TIP3    H128409   3.502   6.109   1.892  1.3611 -0.8711 -1.2002
 2306TIP3    H228410   3.633   6.185   1.890  0.3261  1.0287  0.0932
 2307TIP3   OH228411   2.919   5.472  17.287  0.8107 -0.7257 -0.6484
 2307TIP3    H128412   2.934   5.525  17.366  0.5960 -0.6168 -0.6800
 2307TIP3    H228413   2.863   5.400  17.315  0.7000 -0.6643 -0.7097
 2308TIP3   OH228414   4.862   2.636   0.126 -0.1030 -0.0335 -0.0278
 2308TIP3    H128415   4.837   2.551   0.160 -0.0440 -0.4954 -1.0825
 2308TIP3    H228416   4.952   2.649   0.156  1.0498 -1.8026 -2.4204
 2309TIP3   OH228417   5.864   5.544  16.081  0.9508 -0.3983  0.1200
 2309TIP3    H128418   5.839   5.480  16.148  0.4750 -1.5817 -1.1473
 2309TIP3    H228419   5.860   5.495  15.998  1.2164  1.1057 -0.8132
 2310TIP3   OH228420   4.008   3.670   2.362  0.3528 -0.5768 -0.4089
 2310TIP3    H128421   3.984   3.583   2.330 -0.9251 -0.1410 -0.6546
 2310TIP3    H228422   4.066   3.705   2.294  0.7553 -1.1636 -0.3796
 2311TIP3   OH228423   2.782   2.341   3.840 -0.1408 -0.0633  0.1786
 2311TIP3    H128424   2.766   2.256   3.798 -0.8859 -0.3680  1.0386
 2311TIP3    H228425   2.866   2.370   3.806  0.5691 -1.5911  0.5588
 2312TIP3   OH228426   3.338   4.825   2.636  0.0912 -0.2338  0.0029
 2312TIP3    H128427   3.372   4.851   2.721  2.4745 -0.0052 -0.9423
 2312TIP3    H228428   3.279   4.896   2.611  1.0467  0.7943  0.5563
 2313TIP3   OH228429   4.134   6.244  14.703  0.1359 -0.2325 -0.1638
 2313TIP3    H128430   4.192   6.257  14.778  0.9201  0.5492 -0.8772
 2313TIP3    H228431   4.050   6.279  14.732 -0.0089 -1.3849  0.8908
 2314TIP3   OH228432   3.892   5.144  17.084 -0.4333  0.1360 -0.1805
 2314TIP3    H128433   3.910   5.058  17.122 -0.5493  0.3334  0.3312
 2314TIP3    H228434   3.823   5.128  17.020 -1.8077  0.1338  1.2383
 2315TIP3   OH228435   1.250   0.746   0.410 -0.2589 -0.1964 -0.1885
 2315TIP3    H128436   1.223   0.666   0.455  1.4585 -0.9099 -0.3507
 2315TIP3    H228437   1.214   0.817   0.464 -3.1365 -0.9975 -0.8524
 2316TIP3   OH228438   5.830   0.502   1.735  0.2331 -0.3716 -0.7627
 2316TIP3    H128439   5.879   0.455   1.667 -0.8853  0.6603 -2.3450
 2316TIP3    H228440   5.750   0.451   1.746 -0.0086 -0.0265 -0.9086
 2317TIP3   OH228441   2.870   2.933  13.352 -0.3230 -0.4169 -0.0087
 2317TIP3    H128442   2.857   2.864  13.287  1.8987  0.2136 -1.2538
 2317TIP3    H228443   2.852   3.014  13.304 -0.5328 -0.0189  0.7317
 2318TIP3   OH228444   0.673   0.325   1.955  0.3072 -0.2569 -0.3000
 2318TIP3    H128445   0.754   0.286   1.922  0.0261 -0.2175 -1.0317
 2318TIP3    H228446   0.603   0.274   1.914 -0.0810  1.3501 -1.7237
 2319TIP3   OH228447   0.412   2.502  15.888 -0.1061 -0.4700  0.1944
 2319TIP3    H128448   0.369   2.587  15.893  0.8040  0.0038  0.2210
 2319TIP3    H228449   0.487   2.509  15.948  0.7367 -0.8270 -0.7797
 2320TIP3   OH228450   5.005   0.722  15.555  0.5183 -0.3201 -0.4414
 2320TIP3    H128451   5.012   0.789  15.622  2.4054 -0.0723 -0.8236
 2320TIP3    H228452   5.039   0.643  15.597  0.5803 -0.4503 -0.7345
 2321TIP3   OH228453   5.537   5.120  14.600 -0.3252 -0.2146  0.0546
 2321TIP3    H128454   5.450   5.152  14.577 -1.0190 -1.8306  0.3451
 2321TIP3    H228455   5.573   5.189  14.656 -1.9370 -0.0888  1.0162
 2322TIP3   OH228456   0.425   5.104  10.401 -0.2468  0.1076 -0.1734
 2322TIP3    H128457   0.457   5.079  10.488  1.7508  1.2680 -0.5070
 2322TIP3    H228458   0.347   5.157  10.419  0.0022  0.1337  0.9047
 2323TIP3   OH228459   3.930   5.847  16.118  0.5833  0.7236  0.2277
 2323TIP3    H128460   3.989   5.913  16.082 -0.1289  1.0320 -0.3949
 2323TIP3    H228461   3.857   5.844  16.056  1.5432 -2.1485 -0.9603
 2324TIP3   OH228462   4.004   2.778  15.630 -0.5740  0.0599 -0.1116
 2324TIP3    H128463   3.928   2.772  15.687  0.6400  1.9670  1.8830
 2324TIP3    H228464   4.074   2.811  15.686  1.4348 -0.4529 -2.1348
 2325TIP3   OH228465   2.279   2.006  14.096  0.2660  0.0778  0.1108
 2325TIP3    H128466   2.292   1.925  14.145  1.7079  0.1403 -0.1095
 2325TIP3    H228467   2.274   2.074  14.163 -1.1792 -0.1919  0.3085
 2326TIP3   OH228468   3.763   4.120   3.620  0.2191 -0.0075 -0.0365
 2326TIP3    H128469   3.777   4.123   3.714 -0.6784  0.9523  0.0909
 2326TIP3    H228470   3.816   4.192   3.585  0.4119 -0.2493 -0.2481
 2327TIP3   OH228471   6.300   2.923  13.753 -0.0029  0.0122  0.4709
 2327TIP3    H128472   6.321   2.874  13.673 -2.8230  0.9620 -0.9731
 2327TIP3    H228473   6.368   2.991  13.758  0.1081  0.0757 -1.2917
 2328TIP3   OH228474   4.853   3.780  15.061  0.3374  0.0523 -0.2005
 2328TIP3    H128475   4.874   3.855  15.005  4.2833 -0.6960 -0.0433
 2328TIP3    H228476   4.862   3.813  15.150 -2.4128  0.3764  0.0255
 2329TIP3   OH228477   5.678   2.014  16.918  0.1154  0.1880 -0.2018
 2329TIP3    H128478   5.638   1.970  16.843 -0.6357  0.4027  0.0634
 2329TIP3    H228479   5.770   2.027  16.893 -0.0820  0.0719 -0.9946
 2330TIP3   OH228480   5.435   5.400   1.368  0.1329  0.2206  0.1368
 2330TIP3    H128481   5.450   5.426   1.277  0.3577  0.9758  0.3779
 2330TIP3    H228482   5.512   5.433   1.415  0.4828 -0.9998  0.4519
 2331TIP3   OH228483   6.069   6.767  11.007  0.4179  0.1230  0.4637
 2331TIP3    H128484   6.149   6.818  10.997 -0.9600  2.1930 -0.8683
 2331TIP3    H228485   5.999   6.829  10.988 -1.4482 -2.0793 -0.3517
 2332TIP3   OH228486   2.096   6.673  10.687 -0.5793 -0.6165 -1.0297
 2332TIP3    H128487   2.189   6.653  10.698 -0.8465 -1.4854 -0.2124
 2332TIP3    H228488   2.067   6.699  10.775 -1.6793 -2.9074 -0.6535
 2333TIP3   OH228489   2.823   5.920   0.058  0.2090 -0.3627  0.0267
 2333TIP3    H128490   2.884   5.986   0.090  1.9245  0.1507 -3.7144
 2333TIP3    H228491   2.875   5.839   0.053 -0.1015 -0.5148 -0.9332
 2334TIP3   OH228492   1.769   1.323  14.179 -0.0510  0.1135  0.1142
 2334TIP3    H128493   1.714   1.367  14.244 -0.2461 -1.1306  0.8106
 2334TIP3    H228494   1.846   1.380  14.171  0.9517 -0.6717  2.9707
 2335TIP3   OH228495   5.411   3.578  14.438 -0.3067 -0.0676  0.5751
 2335TIP3    H128496   5.412   3.591  14.533  1.6144  0.5942  0.5224
 2335TIP3    H228497   5.391   3.485  14.426 -0.6382 -0.1369  1.6190
 2336TIP3   OH228498   2.672   5.535  12.308  0.2038  0.5093 -0.6300
 2336TIP3    H128499   2.747   5.498  12.261  0.5004 -0.9568  0.8842
 2336TIP3    H228500   2.646   5.465  12.369 -2.6277  0.8375 -1.3430
 2337TIP3   OH228501   1.483   2.166  11.453  0.1862 -0.1206  0.5938
 2337TIP3    H128502   1.412   2.110  11.421 -0.8696  1.0354  0.8308
 2337TIP3    H228503   1.551   2.105  11.480 -0.0551 -1.2182 -1.1463
 2338TIP3   OH228504   5.464   5.154  12.252  0.6843  0.1397 -0.5189
 2338TIP3    H128505   5.517   5.144  12.331 -0.7433  0.5944  0.5348
 2338TIP3    H228506   5.505   5.225  12.204 -0.2316  2.0859  1.4034
 2339TIP3   OH228507   5.477   0.949  15.140 -0.6276  0.0616 -0.7235
 2339TIP3    H128508   5.553   0.996  15.174 -1.4705  0.2215  1.0912
 2339TIP3    H228509   5.468   0.980  15.050  0.8638  0.7646 -0.6724
 2340TIP3   OH228510   4.481   5.143  11.846  0.0434  0.3643  0.0035
 2340TIP3    H128511   4.451   5.063  11.802  1.0301 -0.4657  0.7903
 2340TIP3    H228512   4.453   5.132  11.937  1.5623  0.1489  0.4746
 2341TIP3   OH228513   4.186   4.021   1.568 -0.2558  0.0405  0.8868
 2341TIP3    H128514   4.259   3.961   1.585 -1.1605 -1.0771  0.9333
 2341TIP3    H228515   4.199   4.049   1.478  0.4991  0.2303  1.0517
 2342TIP3   OH228516   2.769   4.497  12.964  0.2003 -0.5953  0.0449
 2342TIP3    H128517   2.800   4.587  12.977  1.4567 -1.0733  0.4706
 2342TIP3    H228518   2.674   4.503  12.973 -0.0971  1.2288 -2.9820
 2343TIP3   OH228519   6.724   2.837   5.840 -0.1314  0.4417 -0.2787
 2343TIP3    H128520   6.701   2.867   5.752  1.2179  0.0021 -0.8168
 2343TIP3    H228521   6.818   2.853   5.847 -0.0687 -0.2591  0.7812
 2344TIP3   OH228522   2.149   2.599  15.523 -0.3337 -0.0973 -0.1346
 2344TIP3    H128523   2.177   2.554  15.602  1.7924  0.7535 -0.3358
 2344TIP3    H228524   2.113   2.530  15.467  3.4853 -1.8696 -0.7435
 2345TIP3   OH228525   0.800   5.190  12.730 -0.3047 -0.2001 -0.6784
 2345TIP3    H128526   0.858   5.241  12.786 -1.5264 -1.2171  1.6200
 2345TIP3    H228527   0.842   5.192  12.644  2.1173  0.6709  0.4508
 2346TIP3   OH228528   4.220   2.771   0.951 -0.6165  0.3314 -0.1491
 2346TIP3    H128529   4.247   2.717   0.876  1.7923  0.6083  0.4653
 2346TIP3    H228530   4.189   2.708   1.016 -0.6226 -0.0683 -0.5336
 2347TIP3   OH228531   2.526   5.401  16.531  0.2981 -0.6060  0.3184
 2347TIP3    H128532   2.550   5.482  16.576 -2.2284  0.6328 -0.3655
 2347TIP3    H228533   2.570   5.406  16.446  0.4868 -0.1632  0.4421
 2348TIP3   OH228534   1.407   3.087   3.074  0.0454  0.2636 -0.5722
 2348TIP3    H128535   1.497   3.073   3.045  0.5233  0.2618  0.8542
 2348TIP3    H228536   1.356   3.088   2.993  1.5725  2.2993 -1.5762
 2349TIP3   OH228537   6.354   2.264   1.358 -0.4087 -0.2007  0.5483
 2349TIP3    H128538   6.355   2.348   1.404 -1.1061  0.6438 -0.8950
 2349TIP3    H228539   6.443   2.229   1.370 -0.0676  0.7962  1.0707
 2350TIP3   OH228540   3.256   3.999  16.734 -0.2184  0.1761  0.5933
 2350TIP3    H128541   3.247   3.906  16.754  2.3560 -0.3324 -0.2350
 2350TIP3    H228542   3.251   4.042  16.819 -0.0004 -0.8583  1.1469
 2351TIP3   OH228543   1.920   2.815   4.371 -0.4973 -0.4072 -0.1579
 2351TIP3    H128544   1.990   2.757   4.340 -1.0604 -2.0545  1.5425
 2351TIP3    H228545   1.842   2.784   4.326 -0.5146  0.2005 -0.5711
 2352TIP3   OH228546   3.320   2.863  14.988  0.3696  0.2696  0.1260
 2352TIP3    H128547   3.401   2.818  14.965 -0.0732 -1.1688  1.1696
 2352TIP3    H228548   3.321   2.866  15.084  0.0938  2.0176  0.1107
 2353TIP3   OH228549   6.398   5.222  10.523  0.0221 -0.2831  0.2331
 2353TIP3    H128550   6.441   5.308  10.533  0.6404 -0.5719  0.0913
 2353TIP3    H228551   6.438   5.184  10.445  2.4696 -2.2373  2.2481
 2354TIP3   OH228552   4.493   3.719   6.072  0.4035  0.0296 -0.0963
 2354TIP3    H128553   4.567   3.664   6.099  1.8498  1.2974 -1.2646
 2354TIP3    H228554   4.447   3.739   6.154  0.6786 -1.6998  0.5232
 2355TIP3   OH228555   4.140   1.916  14.561  0.0271  0.1045 -0.5101
 2355TIP3    H128556   4.233   1.899  14.571  0.3543 -0.4224 -3.4100
 2355TIP3    H228557   4.131   1.946  14.470 -2.5714  0.4676 -0.2091
 2356TIP3   OH228558   4.262   4.412  17.124 -0.0242  0.4539  0.0526
 2356TIP3    H128559   4.241   4.474  17.194 -1.8359 -0.5403  0.4609
 2356TIP3    H228560   4.343   4.370  17.153  0.1218  1.1859  0.7590
 2357TIP3   OH228561   2.463   3.104  14.150  0.3348  0.1874  0.2186
 2357TIP3    H128562   2.429   3.031  14.202  0.5260 -1.0310 -1.2759
 2357TIP3    H228563   2.511   3.062  14.079  0.5028  1.7870 -0.6615
 2358TIP3   OH228564   0.513   1.874   4.786 -0.1300  0.3449 -0.5637
 2358TIP3    H128565   0.526   1.825   4.705 -0.8165  1.0443 -1.1130
 2358TIP3    H228566   0.418   1.872   4.800 -0.2767  2.1770 -1.0463
 2359TIP3   OH228567   3.618   6.196  12.870 -0.4301  0.0758 -0.3149
 2359TIP3    H128568   3.649   6.283  12.897 -0.1888 -0.0965 -0.0282
 2359TIP3    H228569   3.523   6.201  12.879 -0.3709  0.1048  0.3411
 2360TIP3   OH228570   3.068   1.426   2.681 -0.1602  0.2751  0.2982
 2360TIP3    H128571   3.150   1.436   2.634  0.2338 -0.3712  0.8365
 2360TIP3    H228572   3.054   1.331   2.686  0.2697  0.2819  2.2591
 2361TIP3   OH228573   3.942   1.051  12.449 -0.2417  0.2722  0.0500
 2361TIP3    H128574   4.025   1.070  12.404 -0.6310  1.5499 -0.1615
 2361TIP3    H228575   3.966   0.989  12.518  0.7056 -0.1802 -0.6593
 2362TIP3   OH228576   4.990   4.162   1.839 -0.4812  0.1207  0.6048
 2362TIP3    H128577   5.042   4.212   1.902 -1.7211  2.5396 -0.1559
 2362TIP3    H228578   5.052   4.140   1.769  0.5669 -1.3089  1.9397
 2363TIP3   OH228579   2.128   4.081  15.172  0.5321 -0.4038  0.1589
 2363TIP3    H128580   2.207   4.043  15.132  1.3230 -0.0895  1.3634
 2363TIP3    H228581   2.137   4.175  15.157  1.2154 -0.1944  1.6267
 2364TIP3   OH228582   2.261   2.897   3.568 -0.5061  0.0973  0.0641
 2364TIP3    H128583   2.280   2.804   3.553 -0.6414  0.1224 -0.2734
 2364TIP3    H228584   2.249   2.904   3.663  0.0045 -0.1339  0.1460
 2365TIP3   OH228585   1.361   1.296   3.899  0.3419  0.3285  0.6105
 2365TIP3    H128586   1.315   1.216   3.924  1.6840  0.0811  2.5605
 2365TIP3    H228587   1.440   1.266   3.853  0.4300  0.5544  0.6111
 2366TIP3   OH228588   3.180   3.006  17.122 -0.0087  0.2817  0.6913
 2366TIP3    H128589   3.107   3.005  17.060  0.5665 -0.7739  0.0010
 2366TIP3    H228590   3.182   3.095  17.156 -1.4636  0.3964  0.5401
 2367TIP3   OH228591   2.751   5.173  12.093 -0.8566  0.3797 -0.0334
 2367TIP3    H128592   2.688   5.133  12.153  0.5221 -0.0484  1.1681
 2367TIP3    H228593   2.799   5.099  12.056  1.9332  0.7504  2.4366
 2368TIP3   OH228594   3.605   3.293   0.638  0.0431  0.4470 -0.3579
 2368TIP3    H128595   3.592   3.356   0.567 -1.1267  0.3868 -0.2124
 2368TIP3    H228596   3.553   3.217   0.612 -0.0528  0.2620  0.3655
 2369TIP3   OH228597   1.914   4.073   4.788  0.3397  0.0717  0.4277
 2369TIP3    H128598   1.988   4.030   4.746  1.5594  1.1951  1.3252
 2369TIP3    H228599   1.939   4.079   4.880 -0.7772  0.6806  0.7121
 2370TIP3   OH228600   6.479   0.287  13.339 -0.2796  0.7760 -0.4186
 2370TIP3    H128601   6.567   0.283  13.301 -0.2239  0.0121 -0.2205
 2370TIP3    H228602   6.447   0.197  13.335 -1.3100  1.1472 -1.0722
 2371TIP3   OH228603   5.999   2.914   7.142  0.1297  0.5538 -0.1594
 2371TIP3    H128604   5.907   2.935   7.126 -0.4815 -0.7196  1.4345
 2371TIP3    H228605   6.004   2.819   7.136  1.2341  0.5572  0.3494
 2372TIP3   OH228606   5.984   0.758  15.716 -0.8394 -0.0379  0.1158
 2372TIP3    H128607   5.908   0.714  15.677  0.4183  0.5673 -3.3219
 2372TIP3    H228608   5.950   0.844  15.742 -1.3615  0.2502 -1.4377
 2373TIP3   OH228609   1.347   6.438   1.494 -0.0063  0.2922 -0.0189
 2373TIP3    H128610   1.375   6.353   1.460  0.0685  0.1073  0.5056
 2373TIP3    H228611   1.252   6.432   1.501 -0.3100  1.1304 -2.3903
 2374TIP3   OH228612   5.076   1.380   1.804 -0.5256  0.0734  0.1327
 2374TIP3    H128613   5.134   1.350   1.734 -1.1950  0.8469 -0.7644
 2374TIP3    H228614   5.096   1.321   1.878  0.7026 -0.2821 -0.4568
 2375TIP3   OH228615   4.433   0.097   3.255 -0.4278  0.1148 -0.0090
 2375TIP3    H128616   4.487   0.019   3.272  0.9802  0.4772 -2.3855
 2375TIP3    H228617   4.409   0.128   3.342  2.5213 -0.5954  1.1872
 2376TIP3   OH228618   3.607   4.362  14.740 -0.3393 -0.2084  0.0768
 2376TIP3    H128619   3.611   4.456  14.723 -2.2637 -0.2290 -0.7663
 2376TIP3    H228620   3.694   4.330  14.715 -0.1955  1.1087 -1.2547
 2377TIP3   OH228621   3.569   0.232  16.790 -0.3424  0.0529  0.3027
 2377TIP3    H128622   3.551   0.140  16.811 -1.6210  0.0843 -0.5825
 2377TIP3    H228623   3.642   0.228  16.727  0.9452 -0.2175  1.7396
 2378TIP3   OH228624   3.889   3.733  16.216 -0.4631 -0.4032 -0.5028
 2378TIP3    H128625   3.925   3.822  16.215  0.0139 -0.5993 -1.2883
 2378TIP3    H228626   3.965   3.676  16.210 -0.7949 -0.8671 -0.3792
 2379TIP3   OH228627   0.725   6.138   1.457 -0.3707 -0.1312 -0.1891
 2379TIP3    H128628   0.713   6.048   1.424  0.1522  0.4004 -1.9246
 2379TIP3    H228629   0.811   6.136   1.499  0.2651 -0.1165 -1.4562
 2380TIP3   OH228630   3.405   6.043   3.438 -0.3136  0.4591  0.3820
 2380TIP3    H128631   3.475   6.068   3.499 -0.6760  1.6292  0.3313
 2380TIP3    H228632   3.374   5.959   3.472  0.0250  0.7072  1.3541
 2381TIP3   OH228633   0.426   5.429   6.017  0.0099  0.2385  0.1627
 2381TIP3    H128634   0.403   5.343   6.053  2.2309 -0.8920 -0.8737
 2381TIP3    H228635   0.420   5.489   6.091 -2.4850 -0.5824  0.7120
 2382TIP3   OH228636   4.263   3.846  13.407  0.1282 -0.1207 -0.3355
 2382TIP3    H128637   4.278   3.830  13.500  1.5623  0.9034 -0.3508
 2382TIP3    H228638   4.228   3.935  13.403 -0.1396 -0.2439 -0.7558
 2383TIP3   OH228639   1.546   4.423  15.306  0.1457  0.2864  0.0940
 2383TIP3    H128640   1.471   4.387  15.260 -0.9386  3.1384 -0.5959
 2383TIP3    H228641   1.526   4.408  15.399  0.0925 -1.4028 -0.1680
 2384TIP3   OH228642   2.814   0.642   5.634 -0.2938 -0.1812  0.2497
 2384TIP3    H128643   2.781   0.572   5.691 -1.3424  0.3585  0.3206
 2384TIP3    H228644   2.889   0.678   5.682  0.4401 -1.4251  0.0803
 2385TIP3   OH228645   1.061   0.476  13.212 -0.3840 -0.1795  0.2726
 2385TIP3    H128646   1.139   0.450  13.163  0.5143  0.7285  1.1650
 2385TIP3    H228647   1.029   0.395  13.251  1.7141 -0.2401  2.0931
 2386TIP3   OH228648   5.170   0.266   2.813  0.4431 -0.1294 -0.2479
 2386TIP3    H128649   5.258   0.261   2.776  0.6914 -0.5913  0.3701
 2386TIP3    H228650   5.156   0.180   2.852  0.2456  0.3557  0.8010
 2387TIP3   OH228651   5.996   6.578   3.626  0.1708  0.1063  0.1231
 2387TIP3    H128652   6.056   6.568   3.552  0.6380 -1.0152  0.6206
 2387TIP3    H228653   6.028   6.514   3.691 -1.0234  0.1310  0.7605
 2388TIP3   OH228654   3.417   2.132   1.533  0.3599 -0.0542  0.3616
 2388TIP3    H128655   3.499   2.165   1.569  0.3816  0.6204 -0.2751
 2388TIP3    H228656   3.442   2.092   1.449  0.2208 -1.0218  0.7730
 2389TIP3   OH228657   6.043   1.110  13.380 -0.0446  0.0841  0.2933
 2389TIP3    H128658   6.095   1.182  13.416  1.1257 -1.2380  1.3577
 2389TIP3    H228659   6.040   1.045  13.450 -2.8276 -0.0899  0.1315
 2390TIP3   OH228660   2.236   4.325   0.549  0.0050  0.3157  0.3104
 2390TIP3    H128661   2.328   4.305   0.567 -0.1706  0.5954  1.6049
 2390TIP3    H228662   2.239   4.385   0.475  0.7586 -1.0912 -0.8594
 2391TIP3   OH228663   1.916   5.519  15.948  0.1247  0.1900 -1.0520
 2391TIP3    H128664   2.000   5.559  15.971 -0.0019 -0.0888 -0.0688
 2391TIP3    H228665   1.854   5.553  16.013 -0.1774 -0.8490 -0.7692
 2392TIP3   OH228666   2.099   1.385   2.817  0.4724  0.0967  0.2250
 2392TIP3    H128667   2.090   1.325   2.743 -2.3679  0.2062  0.3684
 2392TIP3    H228668   2.100   1.327   2.894  1.3652  0.0812  0.2070
 2393TIP3   OH228669   2.811   0.071   4.719  0.7983  0.0589 -0.0854
 2393TIP3    H128670   2.764   0.151   4.744 -0.4342 -0.3121 -1.1667
 2393TIP3    H228671   2.896   0.103   4.687  0.3567  0.9355 -0.4194
 2394TIP3   OH228672   0.806   2.274   2.319 -0.7329 -0.2101 -0.1812
 2394TIP3    H128673   0.854   2.327   2.255 -0.0747 -0.2360  0.2839
 2394TIP3    H228674   0.734   2.331   2.348  0.8804  1.0919  1.5070
 2395TIP3   OH228675   3.194   0.307   3.917  0.7692  0.3490  0.4384
 2395TIP3    H128676   3.170   0.387   3.964 -0.1598 -0.2445  1.0172
 2395TIP3    H228677   3.133   0.241   3.950  1.9171 -0.7571  0.4407
 2396TIP3   OH228678   4.476   6.434   5.611 -0.0716 -0.0421  0.3405
 2396TIP3    H128679   4.517   6.454   5.695 -0.7807  1.6910  0.3197
 2396TIP3    H228680   4.391   6.396   5.633 -1.4108  2.7917  0.5409
 2397TIP3   OH228681   6.126   5.872   2.104 -0.8031  0.0199 -0.3235
 2397TIP3    H128682   6.106   5.812   2.032  0.2334 -0.0587 -0.5550
 2397TIP3    H228683   6.121   5.959   2.064 -3.2312  0.2128  0.2164
 2398TIP3   OH228684   1.669   1.390  13.638 -0.1164  0.9341  0.3116
 2398TIP3    H128685   1.609   1.464  13.651 -0.2081  0.6240  1.8038
 2398TIP3    H228686   1.685   1.357  13.726 -0.3787 -1.0845 -0.3471
 2399TIP3   OH228687   3.322   0.327   2.412  0.0544  0.2072  0.5780
 2399TIP3    H128688   3.382   0.399   2.428 -0.1800  0.9186 -1.4517
 2399TIP3    H228689   3.253   0.338   2.478  0.9380  0.7608  1.4310
 2400TIP3   OH228690   5.766   4.689  12.670 -0.2138  0.6266 -0.0576
 2400TIP3    H128691   5.699   4.754  12.651  0.9233  1.7111 -0.4462
 2400TIP3    H228692   5.796   4.659  12.584 -0.2684  0.0682  0.1134
 2401TIP3   OH228693   3.654   1.975   0.213 -0.6434 -0.3836 -0.6860
 2401TIP3    H128694   3.733   1.998   0.164 -1.1390  0.8464 -0.9416
 2401TIP3    H228695   3.582   2.005   0.157 -1.3171 -1.7427 -0.5893
 2402TIP3   OH228696   3.287   5.522  12.885 -0.0572  0.1215 -0.4435
 2402TIP3    H128697   3.253   5.550  12.970  1.1349 -0.1653  0.1428
 2402TIP3    H228698   3.232   5.447  12.861 -1.7628  1.4735 -0.9436
 2403TIP3   OH228699   0.997   0.259  10.903 -0.6574  0.0562  0.6052
 2403TIP3    H128700   1.074   0.311  10.884 -0.4846  0.5028  2.3229
 2403TIP3    H228701   1.005   0.237  10.996 -1.9900 -0.9052  0.5302
 2404TIP3   OH228702   1.339   3.734   1.681  0.1210  0.6991  0.2536
 2404TIP3    H128703   1.341   3.713   1.588  0.8893  0.0002  0.4093
 2404TIP3    H228704   1.360   3.827   1.686  0.3980  0.6632 -0.2526
 2405TIP3   OH228705   5.813   0.145   3.436  0.2860 -0.5316 -0.9017
 2405TIP3    H128706   5.889   0.136   3.379  0.2484  1.7533 -1.4079
 2405TIP3    H228707   5.738   0.129   3.379  0.3246 -0.3808 -0.9972
 2406TIP3   OH228708   0.148   1.910  13.828  0.4336 -0.2307  0.3121
 2406TIP3    H128709   0.173   1.818  13.822  0.8103 -0.0970 -0.2620
 2406TIP3    H228710   0.137   1.938  13.737  2.6129  0.8984  0.3317
 2407TIP3   OH228711   4.203   3.225  11.393  0.6891 -0.5223 -0.1237
 2407TIP3    H128712   4.133   3.215  11.329 -1.0908  0.6275  1.5228
 2407TIP3    H228713   4.276   3.262  11.343 -0.1700 -0.8765 -1.7157
 2408TIP3   OH228714   1.627   5.974  11.603  0.4279 -0.4516 -0.1872
 2408TIP3    H128715   1.637   6.033  11.678 -0.2274 -1.8327  1.0529
 2408TIP3    H228716   1.695   6.001  11.542  1.7966 -0.0347  1.4456
 2409TIP3   OH228717   4.916   1.362  12.192  0.2943 -0.3109 -0.1581
 2409TIP3    H128718   4.945   1.307  12.119 -2.1319 -0.8771 -0.7838
 2409TIP3    H228719   4.866   1.432  12.150  0.8646  0.7054  0.8344
 2410TIP3   OH228720   6.131   3.755  11.089  0.3979 -0.2549  0.4766
 2410TIP3    H128721   6.181   3.819  11.038  0.3680 -1.6578 -1.3993
 2410TIP3    H228722   6.192   3.684  11.105 -0.4423 -1.1635 -0.2353
 2411TIP3   OH228723   4.407   5.883  13.472  0.4124 -0.3323  0.1465
 2411TIP3    H128724   4.327   5.931  13.450  0.8341  0.1301 -0.4092
 2411TIP3    H228725   4.462   5.947  13.517  1.5415  0.1760 -1.7883
 2412TIP3   OH228726   6.625   2.915  10.791  0.2055  0.3441 -1.0406
 2412TIP3    H128727   6.641   2.984  10.855  1.9790  1.4414 -2.5657
 2412TIP3    H228728   6.567   2.853  10.836  0.5006  1.6019  1.2013
 2413TIP3   OH228729   6.776   5.163  11.975 -0.0856 -0.0856  0.0860
 2413TIP3    H128730   6.705   5.156  11.911  0.1634 -1.5420 -0.0681
 2413TIP3    H228731   6.736   5.141  12.059  0.2661 -1.4492 -0.0800
 2414TIP3   OH228732   6.428   3.403  12.139 -0.0237  0.2960  0.7224
 2414TIP3    H128733   6.348   3.429  12.094  0.5575 -0.7566 -1.0232
 2414TIP3    H228734   6.498   3.442  12.086  0.6832 -0.8825  0.7638
 2415TIP3   OH228735   0.017   1.849  12.699  0.3401 -0.1598 -0.3383
 2415TIP3    H128736   0.089   1.848  12.637  1.5284 -1.9910  0.9788
 2415TIP3    H228737  -0.048   1.789  12.662 -0.0597  0.6611 -0.9954
 2416TIP3   OH228738   1.902   1.116   5.409  0.2363 -0.1322  0.0275
 2416TIP3    H128739   1.813   1.130   5.440  0.3635  0.6837  0.0685
 2416TIP3    H228740   1.896   1.044   5.347 -0.9602  1.6408 -2.0703
 2417TIP3   OH228741   4.600   2.007  13.344  0.4440 -0.2822  0.0699
 2417TIP3    H128742   4.552   2.056  13.277  0.6925  0.9212  0.7468
 2417TIP3    H228743   4.665   1.957  13.294 -0.1135 -0.2894 -0.6761
 2418TIP3   OH228744   1.345   1.736   1.870  0.2107 -0.3690 -0.1581
 2418TIP3    H128745   1.339   1.648   1.907 -1.6656 -0.0117  0.5048
 2418TIP3    H228746   1.427   1.771   1.905 -0.1302 -1.0656  1.4233
 2419TIP3   OH228747   1.446   2.315  14.036  0.2543  0.7337 -0.2020
 2419TIP3    H128748   1.427   2.232  14.081 -0.0446  0.0143 -1.6187
 2419TIP3    H228749   1.494   2.366  14.101 -1.3168  0.2765  1.4314
 2420TIP3   OH228750   4.702   0.214  11.473  0.2305 -0.1157 -0.2579
 2420TIP3    H128751   4.679   0.157  11.400  0.3186  0.6222 -0.8673
 2420TIP3    H228752   4.773   0.168  11.518  0.4157 -0.4038 -0.8393
 2421TIP3   OH228753   2.662   1.294  14.360  0.0019 -0.1375  0.2315
 2421TIP3    H128754   2.683   1.278  14.452 -1.1316  0.7594  0.6810
 2421TIP3    H228755   2.611   1.375  14.361  2.0064  1.2465 -1.4580
 2422TIP3   OH228756   1.383   3.661   5.546 -0.7291  0.3714 -0.3789
 2422TIP3    H128757   1.410   3.642   5.456  0.2309  0.7379 -0.1789
 2422TIP3    H228758   1.407   3.582   5.595 -1.9948 -0.1539 -0.5803
 2423TIP3   OH228759   4.360   3.697  13.177 -0.5113  0.3246 -0.6115
 2423TIP3    H128760   4.324   3.760  13.240 -0.6420  0.2155 -0.5769
 2423TIP3    H228761   4.425   3.648  13.227 -1.7122 -0.8185 -0.1315
 2424TIP3   OH228762   5.253   2.823   3.260  0.3560  0.1271 -0.0740
 2424TIP3    H128763   5.158   2.829   3.249  0.1673 -2.0456 -0.2051
 2424TIP3    H228764   5.265   2.813   3.355  0.3243 -0.7900 -0.1547
 2425TIP3   OH228765   1.395   4.564  13.387  0.7099 -0.9858  0.3244
 2425TIP3    H128766   1.424   4.639  13.439  0.6243 -1.4705  1.0990
 2425TIP3    H228767   1.472   4.538  13.337  0.8876 -0.7026  0.4486
 2426TIP3   OH228768   2.840   6.040  13.997 -0.6072 -0.1292 -0.5174
 2426TIP3    H128769   2.818   6.104  13.929 -0.6054  0.0627 -0.3401
 2426TIP3    H228770   2.935   6.041  14.001 -0.6129  0.0123 -0.3723
 2427TIP3   OH228771   6.243   4.346  16.957  0.2907 -0.4010  0.5574
 2427TIP3    H128772   6.295   4.318  16.882  0.6988  1.7959 -0.0409
 2427TIP3    H228773   6.171   4.396  16.918  0.7178  1.0961  1.6074
 2428TIP3   OH228774   5.158   3.738  16.538 -0.0249  0.2768 -0.0129
 2428TIP3    H128775   5.224   3.736  16.469  1.0705  3.8181  0.7253
 2428TIP3    H228776   5.194   3.684  16.608  2.6752  2.7786  0.7131
 2429TIP3   OH228777   4.861   2.203  12.634  0.1347 -0.4651 -0.0336
 2429TIP3    H128778   4.943   2.243  12.660  0.3816 -1.5185  0.9164
 2429TIP3    H228779   4.793   2.259  12.672  0.3522  0.9068 -1.5675
 2430TIP3   OH228780   2.001   0.209  17.090 -0.0014  0.0242  0.2097
 2430TIP3    H128781   1.985   0.212  16.996 -1.1720  0.9470  0.4148
 2430TIP3    H228782   2.064   0.138  17.101 -1.7025 -1.7954 -0.9961
 2431TIP3   OH228783   0.773   4.415  12.703 -0.1714 -0.1868 -0.4039
 2431TIP3    H128784   0.727   4.340  12.740 -1.8522  0.3762 -1.2446
 2431TIP3    H228785   0.759   4.408  12.608  2.9313 -0.8893 -0.9004
 2432TIP3   OH228786   6.628   2.084  17.308  0.4548 -0.4819 -0.0918
 2432TIP3    H128787   6.635   2.154  17.374 -0.5805  0.7596 -1.2506
 2432TIP3    H228788   6.556   2.112  17.251  0.6576 -2.0354 -1.1544
 2433TIP3   OH228789   1.993   4.255   1.061 -0.1268 -0.2595 -0.6798
 2433TIP3    H128790   2.012   4.334   1.111  0.0515 -0.4059 -0.5179
 2433TIP3    H228791   2.068   4.246   1.001 -0.2747 -0.1590 -0.8823
 2434TIP3   OH228792   3.821   6.224  14.394  0.2660  1.0168 -0.0509
 2434TIP3    H128793   3.756   6.216  14.463 -0.2430 -1.1246 -0.6878
 2434TIP3    H228794   3.827   6.318  14.377 -2.3570  1.3425  0.3342
 2435TIP3   OH228795   3.841   1.667   5.039  0.1643 -0.0305 -0.1073
 2435TIP3    H128796   3.845   1.585   4.989  2.0193 -0.1475  0.1452
 2435TIP3    H228797   3.757   1.664   5.084  0.5628 -2.2598  0.6229
 2436TIP3   OH228798   6.306   0.402   1.776  0.1346 -0.1588 -0.2473
 2436TIP3    H128799   6.243   0.352   1.828  0.8710 -1.2290 -0.3457
 2436TIP3    H228800   6.330   0.476   1.833 -1.0997  0.1996 -0.1693
 2437TIP3   OH228801   2.209   1.425   3.671  0.0535  0.1292 -0.4664
 2437TIP3    H128802   2.254   1.463   3.747 -1.6896  0.2518  0.5488
 2437TIP3    H228803   2.165   1.499   3.631 -1.0995 -0.3426 -0.0984
 2438TIP3   OH228804   2.690   0.878  16.130 -0.1798  0.1585  0.2293
 2438TIP3    H128805   2.761   0.821  16.159  0.0874  0.5925  0.4455
 2438TIP3    H228806   2.621   0.865  16.195 -0.2235 -0.1122  0.1307
 2439TIP3   OH228807   3.033   5.901  11.334 -0.5660 -0.0975 -0.7393
 2439TIP3    H128808   2.990   5.974  11.290 -0.7440 -0.3717 -1.0262
 2439TIP3    H228809   2.961   5.847  11.366 -0.4898  1.0991  1.6304
 2440TIP3   OH228810   5.574   5.519   4.144  0.3352  0.0588 -0.3650
 2440TIP3    H128811   5.516   5.518   4.068  0.9905 -1.1052 -0.8791
 2440TIP3    H228812   5.649   5.467   4.117 -0.2765 -2.0824  1.7254
 2441TIP3   OH228813   2.583   0.973   6.132 -0.2644  0.4683  0.4682
 2441TIP3    H128814   2.622   1.060   6.133  0.0897  0.3269 -0.2204
 2441TIP3    H228815   2.657   0.913   6.120 -0.7352  0.2794 -2.3790
 2442TIP3   OH228816   0.088   0.137  11.330  0.3475  0.3286  0.0312
 2442TIP3    H128817   0.054   0.051  11.306 -1.0984  1.1084 -0.8392
 2442TIP3    H228818   0.018   0.198  11.308  1.6392  1.8271 -0.1207
 2443TIP3   OH228819   6.374   2.397  12.249 -0.1622  0.0668 -0.4484
 2443TIP3    H128820   6.297   2.389  12.306 -0.0853  0.3192 -0.3076
 2443TIP3    H228821   6.366   2.323  12.188 -0.3050 -0.1418 -0.1813
 2444TIP3   OH228822   1.980   4.386  11.027 -0.2833 -0.5297  0.2926
 2444TIP3    H128823   2.028   4.463  10.998 -0.3264 -0.3739  0.6390
 2444TIP3    H228824   2.035   4.312  10.998 -1.3644 -0.4797 -2.1628
 2445TIP3   OH228825   0.138   2.130  15.051  0.0593  0.0768 -0.0956
 2445TIP3    H128826   0.115   2.222  15.040  0.6262  0.1025 -1.1860
 2445TIP3    H228827   0.200   2.129  15.124  0.4006  0.6213 -0.3708
 2446TIP3   OH228828   2.576   1.656   1.493 -0.2739 -0.1952  0.6415
 2446TIP3    H128829   2.484   1.669   1.518 -0.3210 -1.4314  1.1735
 2446TIP3    H228830   2.615   1.610   1.568 -0.1277 -2.9839 -1.0020
 2447TIP3   OH228831   4.576   3.517  13.292  0.3682 -0.2053 -0.2486
 2447TIP3    H128832   4.627   3.582  13.342 -2.9028  0.9507  1.9080
 2447TIP3    H228833   4.581   3.438  13.345  0.9673 -0.5088 -0.7429
 2448TIP3   OH228834   1.874   5.847   3.851 -0.2535  0.4538  0.5321
 2448TIP3    H128835   1.912   5.929   3.818  1.6311 -0.2361  0.8750
 2448TIP3    H228836   1.880   5.787   3.776 -0.1612  0.1720  0.7674
 2449TIP3   OH228837   4.333   3.958   1.034  0.2200  0.2424 -0.2735
 2449TIP3    H128838   4.302   3.953   0.944  1.1012 -1.0260 -0.5394
 2449TIP3    H228839   4.418   3.913   1.033 -0.6467 -1.6045  1.5632
 2450TIP3   OH228840   1.114   6.095  16.425  0.8352 -0.6029  0.0658
 2450TIP3    H128841   1.123   6.032  16.497 -0.8428 -0.5597  0.3571
 2450TIP3    H228842   1.198   6.092  16.380  1.2398 -2.1086  0.8492
 2451TIP3   OH228843   6.545   1.779   3.205  0.6592 -0.2059 -0.4349
 2451TIP3    H128844   6.541   1.755   3.112 -0.3098 -2.2451  0.0696
 2451TIP3    H228845   6.565   1.872   3.205  0.5426 -0.1261 -2.6951
 2452TIP3   OH228846   1.337   0.483  11.460 -0.4980  0.1714 -0.0029
 2452TIP3    H128847   1.278   0.452  11.392  0.1185 -1.2879  0.0943
 2452TIP3    H228848   1.366   0.569  11.430 -0.8853 -0.1006 -1.1764
 2453TIP3   OH228849   5.322   2.863  12.590 -0.4502  0.0441  0.3447
 2453TIP3    H128850   5.283   2.832  12.508 -1.0936  3.6119 -0.8397
 2453TIP3    H228851   5.416   2.860  12.574 -0.4331 -1.7011  0.5206
 2454TIP3   OH228852   4.135   2.851  13.163 -0.6407  0.2906 -0.3914
 2454TIP3    H128853   4.122   2.931  13.213  0.8064  1.4130 -1.7546
 2454TIP3    H228854   4.054   2.841  13.113 -0.5455  1.3289 -0.7764
 2455TIP3   OH228855   0.107   2.681   4.486 -0.0181  0.3274 -0.0366
 2455TIP3    H128856   0.126   2.599   4.533 -0.7578  0.6694  0.8861
 2455TIP3    H228857   0.096   2.654   4.395 -1.9332 -0.8868  0.4848
 2456TIP3   OH228858   4.748   4.118  11.312  0.2740 -0.5462 -0.0484
 2456TIP3    H128859   4.729   4.207  11.282  1.3147  0.1188  1.1651
 2456TIP3    H228860   4.753   4.066  11.232  0.8268  0.7179 -0.8609
 2457TIP3   OH228861   0.559   1.709   1.141 -0.6753  0.0973  0.2313
 2457TIP3    H128862   0.652   1.706   1.115  0.1753  0.3449  2.9434
 2457TIP3    H228863   0.527   1.792   1.104  0.1496  0.0000 -0.7604
 2458TIP3   OH228864   5.804   2.103   2.919  0.0733  0.3578 -0.0762
 2458TIP3    H128865   5.889   2.105   2.876  1.5648  2.4811  2.5892
 2458TIP3    H228866   5.767   2.190   2.903 -1.3195 -0.3127 -0.6409
 2459TIP3   OH228867   1.342   5.568   3.787 -0.3423  0.0216 -0.3844
 2459TIP3    H128868   1.367   5.589   3.877  2.7122 -1.9277 -0.6256
 2459TIP3    H228869   1.253   5.535   3.794 -1.0495  2.0777  1.5122
 2460TIP3   OH228870   6.585   0.413  14.480 -0.6391 -0.1766  0.4962
 2460TIP3    H128871   6.680   0.418  14.482 -0.7190  2.6165  0.3674
 2460TIP3    H228872   6.561   0.439  14.391 -1.5541  0.1878  0.8410
 2461TIP3   OH228873   3.184   5.024   3.453  0.3495  0.2127 -0.3796
 2461TIP3    H128874   3.205   5.118   3.456 -0.6096  0.4824 -1.3783
 2461TIP3    H228875   3.146   5.005   3.539 -1.6006  1.3152 -0.9277
 2462TIP3   OH228876   2.563   3.475  17.042  0.0190  0.4721 -0.1699
 2462TIP3    H128877   2.609   3.445  17.120 -2.4005 -0.3111  1.0466
 2462TIP3    H228878   2.553   3.397  16.989  0.0551  0.6444 -0.4326
 2463TIP3   OH228879   3.537   1.049   6.307  0.1190 -0.7901 -0.1865
 2463TIP3    H128880   3.580   1.129   6.278 -0.3088 -0.7232 -0.6472
 2463TIP3    H228881   3.489   1.074   6.385  3.4052 -1.5325  2.3054
 2464TIP3   OH228882   5.464   2.875  15.520 -0.0991  0.5191 -0.6070
 2464TIP3    H128883   5.379   2.879  15.562  0.1585 -0.4971  0.0410
 2464TIP3    H228884   5.523   2.839  15.586  0.4124 -0.6731 -1.6522
 2465TIP3   OH228885   5.248   3.071  13.367 -0.1613 -0.1447  0.7743
 2465TIP3    H128886   5.330   3.046  13.325 -1.0392 -1.0543 -0.4996
 2465TIP3    H228887   5.224   3.154  13.325 -0.3026 -0.3094  0.5238
 2466TIP3   OH228888   1.764   2.433  14.984 -0.1070 -0.1547  0.5076
 2466TIP3    H128889   1.747   2.421  15.077 -0.4180  0.5278  0.5449
 2466TIP3    H228890   1.706   2.504  14.958  1.7436  1.3785  0.3370
 2467TIP3   OH228891   5.599   1.158  16.180 -0.1667  0.8444  0.1369
 2467TIP3    H128892   5.686   1.173  16.218  0.1868 -2.6600  1.0474
 2467TIP3    H228893   5.615   1.095  16.109 -1.8483  0.9030 -0.3271
 2468TIP3   OH228894   5.854   0.109  14.372 -0.1837  0.5747  0.7206
 2468TIP3    H128895   5.873   0.203  14.367  0.0568  0.5170 -4.2944
 2468TIP3    H228896   5.759   0.103  14.367 -0.1191  0.6272 -1.2935
 2469TIP3   OH228897   5.422   5.612   2.030 -0.2084  0.2730 -0.1689
 2469TIP3    H128898   5.425   5.598   2.125 -0.2284 -0.0828 -0.2208
 2469TIP3    H228899   5.511   5.636   2.006  0.0221 -0.6147 -0.2113
 2470TIP3   OH228900   1.931   3.042  15.832  0.1661 -0.5217  0.3144
 2470TIP3    H128901   2.007   3.027  15.888  0.0880 -1.1815  0.2482
 2470TIP3    H228902   1.865   2.979  15.862 -0.2547 -0.1525  0.1838
 2471TIP3   OH228903   6.778   0.029  16.471 -0.0581  0.7325 -0.2079
 2471TIP3    H128904   6.846  -0.035  16.491 -1.2089 -0.5115 -0.0977
 2471TIP3    H228905   6.805   0.068  16.388  0.8903  0.4089 -0.0576
 2472TIP3   OH228906   4.779   6.094  12.212  0.2799  0.0234 -0.2252
 2472TIP3    H128907   4.722   6.165  12.183  2.1060  1.5187 -0.3300
 2472TIP3    H228908   4.778   6.032  12.139  0.8377  1.2942 -1.3544
 2473TIP3   OH228909   1.753   2.156  13.627 -0.3220  0.3017  0.3963
 2473TIP3    H128910   1.746   2.062  13.643 -0.6184  0.3516  0.5795
 2473TIP3    H228911   1.673   2.178  13.579 -0.4823  0.5421  0.7681
 2474TIP3   OH228912   5.595   5.292  15.622 -0.4103  0.2716 -1.3537
 2474TIP3    H128913   5.511   5.297  15.667  0.0027  1.1803 -0.6481
 2474TIP3    H228914   5.580   5.231  15.550 -1.0831 -1.3045  0.0452
 2475TIP3   OH228915   2.401   6.725  16.878  0.2421  0.2386 -0.3001
 2475TIP3    H128916   2.476   6.686  16.832  0.7623  1.5162 -0.5954
 2475TIP3    H228917   2.357   6.651  16.920  1.6755 -0.5473 -0.1164
 2476TIP3   OH228918   3.760   0.096  13.458  0.7383  0.5316 -0.1229
 2476TIP3    H128919   3.768   0.158  13.386 -1.5595  0.3273 -0.6319
 2476TIP3    H228920   3.836   0.038  13.448  2.5949  2.7792  0.0058
 2477TIP3   OH228921   4.157   0.922  11.530  0.0512  0.6591  0.8094
 2477TIP3    H128922   4.132   0.936  11.621 -0.4463 -1.2187  1.0057
 2477TIP3    H228923   4.182   0.830  11.526  1.6612  1.1113 -0.6167
 2478TIP3   OH228924   6.108   5.124   3.648 -0.0048  0.0234  0.0676
 2478TIP3    H128925   6.147   5.210   3.667 -0.4533  0.0720  0.8192
 2478TIP3    H228926   6.022   5.144   3.612 -0.2539 -0.1082  0.5774
 2479TIP3   OH228927   0.274   5.632   1.815  0.6537  0.4144 -0.3717
 2479TIP3    H128928   0.222   5.643   1.735 -1.0520 -0.8574  0.5137
 2479TIP3    H228929   0.217   5.585   1.875  2.5104 -0.1881  1.0156
 2480TIP3   OH228930   3.372   1.964   2.986  0.0943 -0.3227  0.3993
 2480TIP3    H128931   3.287   1.942   2.947  0.1656  0.3895 -0.1597
 2480TIP3    H228932   3.435   1.951   2.915  0.2499  0.7623  0.3276
 2481TIP3   OH228933   4.108   3.006   2.185 -0.0937  0.0564  0.3915
 2481TIP3    H128934   4.173   2.942   2.215 -0.4141 -0.0578  0.8424
 2481TIP3    H228935   4.138   3.089   2.223 -0.7988 -0.1787  1.5077
 2482TIP3   OH228936   4.002   1.880  15.612 -0.1043  0.1143 -0.2273
 2482TIP3    H128937   4.033   1.936  15.682 -0.9483  0.0438  0.2177
 2482TIP3    H228938   3.995   1.793  15.652 -0.2099 -0.0068 -0.5057
 2483TIP3   OH228939   5.457   5.069   6.543  0.5075 -0.0576  0.0419
 2483TIP3    H128940   5.476   5.153   6.586 -1.4518  0.5479 -0.1720
 2483TIP3    H228941   5.465   5.004   6.613  3.0712  0.0984 -0.0022
 2484TIP3   OH228942   4.282   3.212   3.265  0.1914 -0.1058  0.2737
 2484TIP3    H128943   4.377   3.205   3.265  0.2848  0.6396 -1.2788
 2484TIP3    H228944   4.251   3.126   3.235  0.3937 -0.2328  0.4331
 2485TIP3   OH228945   5.757   2.413   0.944  0.3471 -0.1143 -0.3924
 2485TIP3    H128946   5.774   2.447   0.856  0.9574  0.0709 -0.2061
 2485TIP3    H228947   5.833   2.439   0.995  0.0649 -0.3525  0.1578
 2486TIP3   OH228948   5.605   1.747  14.655  0.0180 -0.2629 -0.1228
 2486TIP3    H128949   5.561   1.830  14.636  0.1193 -0.2029 -0.0950
 2486TIP3    H228950   5.631   1.713  14.569  0.7679  0.1666 -0.0713
 2487TIP3   OH228951   5.317   4.811   3.984 -0.2004 -0.3796 -0.2765
 2487TIP3    H128952   5.354   4.727   4.013 -0.1959 -0.4591 -0.5076
 2487TIP3    H228953   5.243   4.787   3.929  0.7840 -0.2920 -1.7187
 2488TIP3   OH228954   3.732   3.968   4.981 -0.5349 -0.3296  0.3345
 2488TIP3    H128955   3.740   3.907   5.054 -0.6607 -1.7026 -0.7484
 2488TIP3    H228956   3.638   3.976   4.967 -0.4929 -0.7970 -0.2459
 2489TIP3   OH228957   1.862   5.711   2.708 -0.3178 -0.3495 -0.4823
 2489TIP3    H128958   1.830   5.800   2.697  0.5732 -0.0565 -0.7502
 2489TIP3    H228959   1.818   5.679   2.787  1.0072  1.1017  0.9146
 2490TIP3   OH228960   2.010   0.936   2.563 -0.0554  0.0452 -0.2026
 2490TIP3    H128961   2.022   0.898   2.476  0.0749 -1.1072  0.2916
 2490TIP3    H228962   1.926   0.900   2.593  1.1473 -1.7866  1.2008
 2491TIP3   OH228963   6.709   3.332  15.031  0.2923 -0.1192  0.0750
 2491TIP3    H128964   6.750   3.418  15.027  0.3860 -0.2085 -1.0792
 2491TIP3    H228965   6.777   3.271  15.003  0.0678 -0.5123  0.3748
 2492TIP3   OH228966   0.703   2.039  16.829  0.2308  0.1608 -0.3573
 2492TIP3    H128967   0.696   1.999  16.742  1.4736 -1.3710  0.2058
 2492TIP3    H228968   0.705   2.133  16.812 -0.1946 -0.0832 -1.9302
 2493TIP3   OH228969   3.847   1.175  14.908  0.2888  0.3417  0.3296
 2493TIP3    H128970   3.906   1.220  14.968 -0.1004 -2.3523  2.9833
 2493TIP3    H228971   3.765   1.223  14.914  0.8114  1.2584  0.3834
 2494TIP3   OH228972   1.394   5.377   3.985 -0.0778 -0.7674  0.5255
 2494TIP3    H128973   1.490   5.369   3.986 -0.0656 -0.6206  0.5299
 2494TIP3    H228974   1.374   5.427   3.906  0.0039  1.0378  1.5772
 2495TIP3   OH228975   4.754   1.551   0.431 -0.4057  0.0778  0.5635
 2495TIP3    H128976   4.659   1.534   0.432 -0.3691 -0.1057  1.2458
 2495TIP3    H228977   4.779   1.555   0.523 -0.1630  2.5455  0.4583
 2496TIP3   OH228978   5.729   5.924  16.895  0.7135  0.0525  0.1446
 2496TIP3    H128979   5.745   5.939  16.989 -1.2127 -0.2941  0.5610
 2496TIP3    H228980   5.788   5.852  16.872  2.5838  1.3507  0.5861
 2497TIP3   OH228981   2.541   4.287  14.216  0.1811  0.0632 -1.0054
 2497TIP3    H128982   2.576   4.283  14.127  0.4802  0.2049 -0.8929
 2497TIP3    H228983   2.586   4.361  14.257  0.1196 -0.0639 -0.7044
 2498TIP3   OH228984   1.159   3.954  12.303  0.0675 -0.0633  0.3755
 2498TIP3    H128985   1.229   4.019  12.309  0.5580 -0.5520  0.0559
 2498TIP3    H228986   1.132   3.939  12.393 -0.5069  1.0693  0.4023
 2499TIP3   OH228987   2.324   4.884   3.458 -0.5078 -0.2058 -0.2666
 2499TIP3    H128988   2.377   4.945   3.407 -1.9850  1.7854  0.4518
 2499TIP3    H228989   2.250   4.864   3.400  0.4893 -2.2947 -0.9328
 2500TIP3   OH228990   4.027   0.978  14.181  0.3307  0.3242 -0.2161
 2500TIP3    H128991   4.000   1.057  14.229 -0.3676  0.8488 -1.4292
 2500TIP3    H228992   3.946   0.945  14.143  0.8331 -0.2365 -0.8097
 2501TIP3   OH228993   0.093   0.256  11.843 -0.0830  0.3188  0.0980
 2501TIP3    H128994   0.094   0.249  11.747  0.2714  1.8063 -0.0397
 2501TIP3    H228995   0.010   0.299  11.863 -1.2679 -2.0508  0.6977
 2502TIP3   OH228996   5.642   2.364   0.581  0.0630 -0.3045 -0.2437
 2502TIP3    H128997   5.599   2.448   0.595 -0.0107 -0.3012 -0.4998
 2502TIP3    H228998   5.656   2.330   0.670 -1.6485 -0.9099 -0.1645
 2503TIP3   OH228999   3.102   2.336  17.242 -0.0782 -0.0450  0.6506
 2503TIP3    H129000   3.070   2.400  17.306 -1.2596 -0.0695  0.1161
 2503TIP3    H229001   3.143   2.389  17.174 -1.7459  0.2356 -0.1788
 2504TIP3   OH229002   0.479   6.031  13.854 -0.4464  0.3803 -0.1052
 2504TIP3    H129003   0.400   5.978  13.869 -0.9529  1.6941  2.4549
 2504TIP3    H229004   0.456   6.088  13.780 -1.4664 -0.0326 -0.1247
 2505TIP3   OH229005   3.098   3.674  13.103  0.2916 -0.2175 -0.1560
 2505TIP3    H129006   3.174   3.714  13.146  0.2003 -1.2652  1.0092
 2505TIP3    H229007   3.117   3.683  13.009  1.3457  0.4914  0.1046
 2506TIP3   OH229008   4.758   3.881   3.919  0.3230 -0.4255 -0.4559
 2506TIP3    H129009   4.697   3.812   3.895  0.4359 -0.2913 -1.1425
 2506TIP3    H229010   4.705   3.961   3.924 -0.0904 -0.7741  1.7615
 2507TIP3   OH229011   0.985   1.214   5.249 -0.1963  0.0535  0.0288
 2507TIP3    H129012   0.914   1.262   5.291  0.3383  0.0020  1.0111
 2507TIP3    H229013   0.982   1.127   5.289  0.3278  0.0045 -0.0389
 2508TIP3   OH229014   4.899   4.759   3.749 -0.1044  0.5634 -0.2371
 2508TIP3    H129015   4.967   4.692   3.751  1.5936  2.1990  0.0879
 2508TIP3    H229016   4.819   4.712   3.726  1.7677 -0.9548 -4.9146
 2509TIP3   OH229017   4.914   4.219  13.390 -0.5422  0.2620 -0.2424
 2509TIP3    H129018   4.874   4.205  13.476  0.1675 -1.5048 -0.1412
 2509TIP3    H229019   4.894   4.139  13.341  2.0769 -0.3452 -0.4731
 2510TIP3   OH229020   6.711   5.773   4.841  0.1912 -0.5681 -0.4985
 2510TIP3    H129021   6.688   5.705   4.904 -1.2299 -0.6473 -1.0848
 2510TIP3    H229022   6.674   5.854   4.877  2.1594  0.0128  0.3681
 2511TIP3   OH229023   1.951   0.984   1.033  0.4653 -0.0572  0.0155
 2511TIP3    H129024   1.992   1.019   0.954 -1.2831  0.9636 -0.4787
 2511TIP3    H229025   1.977   1.045   1.102  1.9530 -0.9218  0.2697
 2512TIP3   OH229026   1.818   6.402   4.926 -0.2467 -0.3527 -0.0179
 2512TIP3    H129027   1.875   6.458   4.978  0.5865 -0.5548 -0.6815
 2512TIP3    H229028   1.730   6.434   4.944  0.1282  0.4422  0.4740
 2513TIP3   OH229029   0.830   4.030   4.260  0.3631  0.5956 -0.2138
 2513TIP3    H129030   0.882   4.041   4.340 -1.1474 -0.6843  0.9871
 2513TIP3    H229031   0.894   4.043   4.189  2.7575 -2.4542  1.1510
 2514TIP3   OH229032   2.822   5.884   5.665 -0.0666  0.0980  0.1928
 2514TIP3    H129033   2.740   5.873   5.617  0.7609 -0.8597 -1.0560
 2514TIP3    H229034   2.848   5.975   5.647 -1.1047  0.5946  1.0625
 2515TIP3   OH229035   3.391   2.659  15.759  0.1011 -0.3145  0.1663
 2515TIP3    H129036   3.373   2.565  15.755 -0.4807 -0.1886 -0.3939
 2515TIP3    H229037   3.476   2.669  15.717  0.0617 -0.5707  0.0197
 2516TIP3   OH229038   6.586   4.580   0.973 -0.1628 -0.1886  0.4420
 2516TIP3    H129039   6.503   4.535   0.957 -0.8697  0.7756  1.2065
 2516TIP3    H229040   6.602   4.569   1.066  0.3040  0.0706  0.3970
 2517TIP3   OH229041   5.256   0.723   0.541 -0.1801  0.4731  0.0160
 2517TIP3    H129042   5.177   0.766   0.507 -0.7604  1.1198  2.0221
 2517TIP3    H229043   5.236   0.707   0.633  1.1361 -1.5777  0.0035
 2518TIP3   OH229044   6.282   2.285   0.956  0.2323  0.2697  0.4154
 2518TIP3    H129045   6.270   2.341   0.880  0.8046 -0.5170 -0.2824
 2518TIP3    H229046   6.375   2.263   0.955 -0.0767 -1.1709  0.2950
 2519TIP3   OH229047   5.159   4.115  13.151 -0.3442  0.6786 -0.1654
 2519TIP3    H129048   5.135   4.035  13.196  2.2004  0.6681  1.3668
 2519TIP3    H229049   5.158   4.183  13.219 -0.6049  1.5867 -1.0375
 2520TIP3   OH229050   0.305   1.506  13.622  0.0757  0.4515  0.3435
 2520TIP3    H129051   0.281   1.596  13.646 -1.4051  0.4103 -0.7860
 2520TIP3    H229052   0.230   1.453  13.652  1.5591 -0.6750  2.3274
 2521TIP3   OH229053   1.377   0.901   2.879  0.1201 -0.7467 -0.1116
 2521TIP3    H129054   1.328   0.934   2.804  0.7219  2.3982  0.7203
 2521TIP3    H229055   1.452   0.960   2.887  1.1417 -2.1780  1.7953
 2522TIP3   OH229056   4.050   5.344   3.125 -0.6139 -0.3545 -0.1883
 2522TIP3    H129057   4.077   5.281   3.191 -3.5525  0.1160  1.6545
 2522TIP3    H229058   3.958   5.322   3.107 -0.8388  1.5395 -1.7232
 2523TIP3   OH229059   5.328   0.366   4.543 -0.3817  0.2517 -0.6074
 2523TIP3    H129060   5.358   0.304   4.477 -0.0016 -0.4813  0.2274
 2523TIP3    H229061   5.288   0.437   4.493 -1.4588 -0.9832 -1.5669
 2524TIP3   OH229062   3.709   6.447  10.820  0.6999 -0.0965  0.1702
 2524TIP3    H129063   3.680   6.435  10.730  0.5652 -0.9393  0.3191
 2524TIP3    H229064   3.636   6.492  10.863  0.2464 -0.7860  0.1472
 2525TIP3   OH229065   1.499   3.028   2.675 -0.0143 -0.4233  0.0542
 2525TIP3    H129066   1.497   2.942   2.632  1.5447  0.4144 -1.8252
 2525TIP3    H229067   1.408   3.057   2.674 -0.5194 -1.9131  0.4407
 2526TIP3   OH229068   0.299   5.806  13.918 -0.2133 -0.3337 -0.2927
 2526TIP3    H129069   0.306   5.733  13.980  0.5862  0.5395  0.6916
 2526TIP3    H229070   0.326   5.768  13.834 -2.2268 -1.7768 -0.3618
 2527TIP3   OH229071   2.471   2.285  16.837 -0.0253 -0.0962 -0.6359
 2527TIP3    H129072   2.381   2.255  16.837 -0.1099  0.1266 -1.4559
 2527TIP3    H229073   2.494   2.292  16.744  0.8551 -0.2271 -0.4405
 2528TIP3   OH229074   1.748   1.473  15.057  1.1009 -0.2918 -0.3533
 2528TIP3    H129075   1.751   1.564  15.028 -1.5183  0.7045  2.0225
 2528TIP3    H229076   1.683   1.432  15.000 -0.1840  0.2828  0.6381
 2529TIP3   OH229077   0.729   6.432  13.052  0.2063  0.3405  0.0709
 2529TIP3    H129078   0.817   6.418  13.017 -0.6337 -4.3106 -0.9284
 2529TIP3    H229079   0.680   6.471  12.980  0.5220 -1.1153 -0.9764
 2530TIP3   OH229080   1.483   6.507   0.783 -0.4542  1.0924 -0.0966
 2530TIP3    H129081   1.534   6.565   0.840  0.6440 -0.4237  0.5353
 2530TIP3    H229082   1.538   6.494   0.706  0.2707 -0.6872  0.6600
 2531TIP3   OH229083   3.973   2.726  16.358  0.1673 -0.6848 -0.8806
 2531TIP3    H129084   4.041   2.793  16.364 -0.3738 -0.1403 -0.7003
 2531TIP3    H229085   3.942   2.732  16.268 -0.1621 -0.4108 -0.7496
 2532TIP3   OH229086   4.056   5.223  14.725 -0.0139  0.7209 -0.0710
 2532TIP3    H129087   4.090   5.312  14.728 -0.1276  0.8037 -1.1433
 2532TIP3    H229088   4.047   5.203  14.632 -2.8983  0.6961  0.1278
 2533TIP3   OH229089   5.808   1.760  15.066 -0.2369 -0.2389  0.0735
 2533TIP3    H129090   5.767   1.681  15.100 -0.3785 -0.5187 -0.7322
 2533TIP3    H229091   5.902   1.745  15.077 -0.1311 -1.3813 -1.8233
 2534TIP3   OH229092   4.343   3.443   4.626  0.4279  0.5184  0.4764
 2534TIP3    H129093   4.401   3.460   4.552  0.3661  0.1361  0.3347
 2534TIP3    H229094   4.360   3.514   4.688 -0.2752  1.4360 -0.3548
 2535TIP3   OH229095   0.476   3.873   2.534 -0.2508 -0.1633  0.2195
 2535TIP3    H129096   0.530   3.809   2.488  0.2751 -0.9012  1.7940
 2535TIP3    H229097   0.438   3.927   2.464  2.2987  0.2364 -0.9727
 2536TIP3   OH229098   6.465   4.152  16.005  0.6519 -0.1027 -0.4777
 2536TIP3    H129099   6.385   4.101  16.018  0.2143  1.1746  2.5774
 2536TIP3    H229100   6.437   4.229  15.955  0.7303 -1.2471 -2.4010
 2537TIP3   OH229101   2.883   5.010   4.394 -0.4107 -0.1376  0.2237
 2537TIP3    H129102   2.913   5.051   4.313 -3.6436 -0.7649 -1.4576
 2537TIP3    H229103   2.837   5.079   4.441  0.3949 -0.0932  0.9747
 2538TIP3   OH229104   2.911   2.112   3.753  0.1655  0.1853  0.2048
 2538TIP3    H129105   2.856   2.049   3.707  1.5330 -1.6188  0.9378
 2538TIP3    H229106   2.954   2.162   3.683 -0.9978  0.3984 -0.3810
 2539TIP3   OH229107   5.922   2.917  12.131 -0.1792 -0.0222 -0.0880
 2539TIP3    H129108   5.960   2.832  12.153  0.7754  0.8523  1.7381
 2539TIP3    H229109   5.960   2.979  12.193 -1.2412  1.6802 -1.0416
 2540TIP3   OH229110   2.209   3.317  15.010 -0.2153  0.3191  0.1879
 2540TIP3    H129111   2.270   3.248  15.035 -0.7681  0.4953  2.1226
 2540TIP3    H229112   2.154   3.331  15.087 -1.9194  1.0244 -1.0740
 2541TIP3   OH229113   4.714   6.307   0.733  0.3119  0.0144  0.1398
 2541TIP3    H129114   4.773   6.350   0.671  0.0504  1.1521  0.6582
 2541TIP3    H229115   4.772   6.260   0.792  0.8152  2.0092  1.3154
 2542TIP3   OH229116   0.097   1.887  12.237 -0.2544 -0.8107  0.5191
 2542TIP3    H129117   0.192   1.885  12.232 -0.3232 -1.9993 -1.9351
 2542TIP3    H229118   0.068   1.852  12.153 -2.8735 -0.4265  1.1692
 2543TIP3   OH229119   1.731   6.595   0.280 -0.3806 -0.0278  0.3467
 2543TIP3    H129120   1.799   6.530   0.299 -0.5582  0.2723  2.1420
 2543TIP3    H229121   1.651   6.544   0.273 -0.6338 -0.0073  2.4087
 2544TIP3   OH229122   2.989   2.025   4.641 -0.1129  0.1064 -0.0270
 2544TIP3    H129123   2.952   2.076   4.714  1.0828 -0.6564  1.1634
 2544TIP3    H229124   3.081   2.014   4.664  0.3392 -0.0067 -1.7785
 2545TIP3   OH229125   1.806   6.213  15.891 -0.1575  0.0833 -0.0079
 2545TIP3    H129126   1.820   6.194  15.984  2.6207  0.7744 -0.2081
 2545TIP3    H229127   1.755   6.294  15.891  0.2740  0.3713  0.9252
 2546TIP3   OH229128   1.466   5.974  12.263 -0.3828  0.0771  0.2600
 2546TIP3    H129129   1.500   6.052  12.306  2.3290 -1.0800  0.4617
 2546TIP3    H229130   1.405   5.936  12.326 -0.9720  1.4598  0.5655
 2547TIP3   OH229131   1.334   1.296  13.175 -0.4191 -0.1193  0.0703
 2547TIP3    H129132   1.418   1.273  13.216 -0.2962 -2.1812 -1.1796
 2547TIP3    H229133   1.320   1.388  13.199  0.6583 -0.5708  2.8763
 2548TIP3   OH229134   2.578   3.196  11.621  1.6931 -0.1422  0.0890
 2548TIP3    H129135   2.599   3.171  11.711 -0.4254 -0.2279  0.5977
 2548TIP3    H229136   2.541   3.117  11.582 -0.5775  0.7888  0.2342
 2549TIP3   OH229137   2.717   3.191  13.484  0.4970 -0.5794 -0.4038
 2549TIP3    H129138   2.795   3.144  13.514 -0.1393 -1.0212  0.5998
 2549TIP3    H229139   2.733   3.204  13.390  1.1599 -1.9063 -0.5099
 2550TIP3   OH229140   2.635   5.612   2.040  0.7300 -0.4769 -0.2614
 2550TIP3    H129141   2.648   5.619   2.135  1.1883 -2.1721 -0.1539
 2550TIP3    H229142   2.719   5.640   2.002  1.2061 -1.5253 -0.0447
 2551TIP3   OH229143   4.804   1.666   0.712  0.5673  0.0941  0.5817
 2551TIP3    H129144   4.834   1.650   0.802 -0.3085  0.6051  0.9836
 2551TIP3    H229145   4.712   1.689   0.722  1.0220  2.6344 -0.1654
 2552TIP3   OH229146   5.344   3.693  15.983  0.2111 -0.3292  0.5473
 2552TIP3    H129147   5.435   3.679  16.010 -0.0312 -1.5519  0.7641
 2552TIP3    H229148   5.292   3.644  16.047 -0.4680 -1.7612 -1.0354
 2553TIP3   OH229149   2.910   3.288   5.101  0.0192 -0.2137 -0.0763
 2553TIP3    H129150   2.955   3.351   5.045  0.3707 -0.2132  0.2018
 2553TIP3    H229151   2.866   3.341   5.166  0.7147 -0.2694  0.4512
 2554TIP3   OH229152   0.649   5.910   6.144  0.8496 -0.2397  0.3178
 2554TIP3    H129153   0.573   5.868   6.187 -0.9989  2.4511 -0.0916
 2554TIP3    H229154   0.719   5.905   6.210 -0.2026 -1.1617  1.4399
 2555TIP3   OH229155   1.475   3.251   3.962  0.0521  0.1946  0.3062
 2555TIP3    H129156   1.441   3.293   4.041 -1.6744  0.1132 -0.3393
 2555TIP3    H229157   1.413   3.277   3.893  0.9250 -0.5802 -0.8068
 2556TIP3   OH229158   5.727   3.041  12.792  0.2594  0.3249  0.0034
 2556TIP3    H129159   5.683   3.125  12.775  1.0770  0.9793  0.9892
 2556TIP3    H229160   5.815   3.052  12.757  0.4139 -0.0780  0.2600
 2557TIP3   OH229161   0.026   0.962   3.693  0.2898 -0.8439 -0.2854
 2557TIP3    H129162   0.071   1.040   3.664 -1.4606  0.1830 -0.3623
 2557TIP3    H229163   0.007   0.978   3.786 -0.2574 -1.0776 -0.3508
 2558TIP3   OH229164   1.967   0.775   5.894 -0.1821  0.3659 -0.1927
 2558TIP3    H129165   1.995   0.862   5.865 -2.2753  1.0693 -0.2203
 2558TIP3    H229166   1.905   0.792   5.965  1.8676 -1.2285  2.1319
 2559TIP3   OH229167   0.938   4.184   3.734  0.0596  0.3234  0.0893
 2559TIP3    H129168   0.878   4.174   3.661  0.5809  0.0953 -0.3205
 2559TIP3    H229169   1.001   4.112   3.723  0.0826  0.2271  0.8181
 2560TIP3   OH229170   0.398   0.158  13.868 -0.4519  0.4181  0.3407
 2560TIP3    H129171   0.386   0.063  13.867 -1.4481  0.5336 -0.8215
 2560TIP3    H229172   0.432   0.179  13.781 -0.6024  1.1691  0.4532
 2561TIP3   OH229173   5.762   1.211   2.443 -0.2014 -0.6499  0.0671
 2561TIP3    H129174   5.846   1.166   2.443 -0.4121 -1.0652 -0.9275
 2561TIP3    H229175   5.729   1.200   2.354 -1.1955 -0.2765  0.3785
 2562TIP3   OH229176   6.639   2.160   0.485  0.5225  0.4879 -0.1752
 2562TIP3    H129177   6.637   2.095   0.415  0.4542  0.4396 -0.1279
 2562TIP3    H229178   6.551   2.198   0.486  0.7389  1.0145 -0.6113
 2563TIP3   OH229179   6.794   0.148  15.683 -0.5886  0.0397 -0.5602
 2563TIP3    H129180   6.793   0.134  15.588  0.1264  5.1696 -1.6119
 2563TIP3    H229181   6.705   0.178  15.703 -0.1318  1.1206 -0.0923
 2564TIP3   OH229182   2.056   5.923   0.577  0.5927  0.0163  0.6011
 2564TIP3    H129183   2.063   6.016   0.593 -0.3006 -0.0369  1.3872
 2564TIP3    H229184   2.067   5.914   0.482 -0.2558  1.0298  0.3875
 2565TIP3   OH229185   5.732   1.650   6.776 -0.0190 -0.3646  0.2160
 2565TIP3    H129186   5.820   1.672   6.747 -0.4243  0.6536 -0.2966
 2565TIP3    H229187   5.675   1.686   6.708 -0.7903 -2.0793 -0.0949
 2566TIP3   OH229188   6.282   5.210  15.230 -0.8900  0.3383 -0.1705
 2566TIP3    H129189   6.216   5.169  15.175 -1.4529  1.0192 -0.0128
 2566TIP3    H229190   6.265   5.174  15.318 -1.5612  1.0978  0.0220
 2567TIP3   OH229191   6.560   2.745  15.110 -0.6510 -0.6485 -0.3445
 2567TIP3    H129192   6.548   2.697  15.028 -0.8626 -0.8355 -0.2056
 2567TIP3    H229193   6.637   2.704  15.151 -0.8811 -0.9278 -0.1874
 2568TIP3   OH229194   5.269   2.477  13.840  0.3520 -0.4010  0.5976
 2568TIP3    H129195   5.180   2.448  13.822 -0.1993  1.7016 -0.3114
 2568TIP3    H229196   5.269   2.498  13.933 -0.9742  2.1874  0.1026
 2569TIP3   OH229197   4.636   3.550   0.097 -0.3548 -0.3491 -0.2933
 2569TIP3    H129198   4.706   3.508   0.048  1.2119  1.4463  0.3147
 2569TIP3    H229199   4.576   3.583   0.030  0.5605  0.0590 -0.9269
 2570TIP3   OH229200   1.749   4.478  16.115 -0.4777 -0.2518  0.2732
 2570TIP3    H129201   1.741   4.467  16.020  1.4075 -0.5392  0.1083
 2570TIP3    H229202   1.794   4.562  16.126 -0.4396 -0.3493  0.8942
 2571TIP3   OH229203   4.088   0.868  16.015 -0.4864 -0.2898 -0.4919
 2571TIP3    H129204   4.073   0.798  16.079  0.2728 -1.4262 -1.4922
 2571TIP3    H229205   4.047   0.835  15.935  0.0646  0.3236 -1.0357
 2572TIP3   OH229206   4.708   1.986  12.355  0.8886 -0.3848  0.1776
 2572TIP3    H129207   4.674   2.066  12.315  2.5690 -0.3127 -1.2872
 2572TIP3    H229208   4.631   1.935  12.379 -0.2444  0.2941 -1.7998
 2573TIP3   OH229209   4.904   4.780   4.736  0.5507 -0.1545  0.1474
 2573TIP3    H129210   4.895   4.727   4.815 -2.7975  0.6360  0.4614
 2573TIP3    H229211   4.920   4.717   4.666 -1.0008 -1.3891  0.8421
 2574TIP3   OH229212   1.398   2.743  11.224 -0.0066 -0.3845  0.7233
 2574TIP3    H129213   1.405   2.797  11.303  0.6700  1.0982 -0.2975
 2574TIP3    H229214   1.459   2.671  11.239  1.4915  0.8550  0.8421
 2575TIP3   OH229215   4.428   6.115   5.677 -0.0121  0.2098  0.4944
 2575TIP3    H129216   4.379   6.189   5.642  0.5145 -0.1270 -1.0467
 2575TIP3    H229217   4.371   6.039   5.662  0.6118 -0.0724 -0.5883
 2576TIP3   OH229218   5.024   0.958   5.358 -0.0242  1.0168  0.2946
 2576TIP3    H129219   4.948   0.980   5.411 -0.0587  1.0360  0.2374
 2576TIP3    H229220   5.097   0.959   5.419 -0.0540  1.1068  0.3290
 2577TIP3   OH229221   1.854   3.798  14.233 -0.1123 -0.4726 -0.0916
 2577TIP3    H129222   1.825   3.876  14.281  1.3925  0.9669 -1.4039
 2577TIP3    H229223   1.945   3.786  14.260 -0.2471 -1.6751 -0.1026
 2578TIP3   OH229224   5.142   4.367  16.660 -0.5246  0.1923  0.1159
 2578TIP3    H129225   5.219   4.328  16.703 -0.3060  0.1237 -0.3264
 2578TIP3    H229226   5.179   4.422  16.591 -0.8784 -0.1761 -0.3796
 2579TIP3   OH229227   3.092   0.250  11.388  0.2600 -0.5983 -0.6943
 2579TIP3    H129228   3.080   0.241  11.294 -2.0109  0.8618 -0.6174
 2579TIP3    H229229   3.027   0.191  11.426  0.3753 -0.3135 -0.0409
 2580TIP3   OH229230   3.843   5.873  12.736 -0.1063  0.2548 -0.2252
 2580TIP3    H129231   3.872   5.811  12.669  1.0811  0.0886  0.4120
 2580TIP3    H229232   3.829   5.819  12.814 -0.7819  0.5496 -0.1327
 2581TIP3   OH229233   1.942   2.572  16.397 -0.0198  0.6074 -0.1003
 2581TIP3    H129234   1.983   2.652  16.430  1.0265 -0.0200  0.1472
 2581TIP3    H229235   1.876   2.550  16.463 -0.1420  1.1289 -0.0450
 2582TIP3   OH229236   0.965   3.162   3.187  0.1539  0.1265  0.2852
 2582TIP3    H129237   1.004   3.182   3.273 -1.0725  1.1242  0.6434
 2582TIP3    H229238   0.883   3.116   3.208  0.5157 -0.8716 -0.4130
 2583TIP3   OH229239   1.143   5.230  13.191 -0.1531  0.7733  0.2648
 2583TIP3    H129240   1.061   5.261  13.153 -0.9322 -2.2051 -0.7597
 2583TIP3    H229241   1.211   5.260  13.131 -0.9213  0.0062 -1.0318
 2584TIP3   OH229242   3.582   0.576  12.378  0.4872  0.1550  0.9135
 2584TIP3    H129243   3.647   0.556  12.311  1.1422  1.7616  1.0194
 2584TIP3    H229244   3.622   0.547  12.460  0.3964 -0.2809  0.8066
 2585TIP3   OH229245   1.594   2.693  14.829 -0.0767  0.5095 -0.4715
 2585TIP3    H129246   1.511   2.702  14.876  0.4401  1.2415  0.3229
 2585TIP3    H229247   1.611   2.779  14.791  2.1316  1.5442  2.5007
 2586TIP3   OH229248   2.047   0.402   4.440  0.5229  0.8005 -0.0632
 2586TIP3    H129249   2.104   0.381   4.513  0.9615  0.3868 -0.5213
 2586TIP3    H229250   2.014   0.317   4.410  1.4664  0.8350 -1.2466
 2587TIP3   OH229251   5.973   5.140   5.458  0.1872 -0.2941 -0.2520
 2587TIP3    H129252   5.898   5.186   5.420 -0.5637 -2.3092 -1.3638
 2587TIP3    H229253   6.047   5.166   5.402 -0.2903 -0.6770 -1.0839
 2588TIP3   OH229254   4.579   1.087   4.864 -0.5882 -0.5998  0.0727
 2588TIP3    H129255   4.561   1.077   4.957  0.1813  0.6560  0.3813
 2588TIP3    H229256   4.632   1.010   4.841  0.4457 -0.2019  1.0293
 2589TIP3   OH229257   5.700   4.508  16.286 -0.4126  0.1154  0.5199
 2589TIP3    H129258   5.616   4.486  16.325 -1.2126 -1.5155 -1.8858
 2589TIP3    H229259   5.703   4.603  16.286 -2.8520  0.2592 -0.4177
 2590TIP3   OH229260   4.555   1.984  14.445  0.2733 -0.1109  0.0827
 2590TIP3    H129261   4.586   2.046  14.511 -0.2596 -0.5667  0.7829
 2590TIP3    H229262   4.515   1.913  14.496  1.4114 -1.3335 -0.6834
 2591TIP3   OH229263   5.215   4.617  16.410 -0.0399  0.2043  0.0318
 2591TIP3    H129264   5.148   4.549  16.402 -0.7558  0.7951  0.7187
 2591TIP3    H229265   5.177   4.679  16.472  0.9771  0.7753  0.0949
 2592TIP3   OH229266   5.791   1.282   5.001 -0.3868 -0.1603 -0.1332
 2592TIP3    H129267   5.713   1.226   5.003 -0.2469 -0.3317  0.5832
 2592TIP3    H229268   5.826   1.270   4.912 -0.7829 -0.6241 -0.2347
 2593TIP3   OH229269   6.264   3.092   5.477 -0.5580 -0.4355 -0.8108
 2593TIP3    H129270   6.207   3.166   5.495  1.3082  0.7851  0.4007
 2593TIP3    H229271   6.308   3.075   5.560  2.0873 -0.1981 -2.0579
 2594TIP3   OH229272   2.166   4.308   4.797 -0.0953 -0.3449 -0.2879
 2594TIP3    H129273   2.212   4.310   4.881 -0.0388  0.2184 -0.3276
 2594TIP3    H229274   2.078   4.340   4.816 -0.2554 -0.7459 -0.3437
 2595TIP3   OH229275   1.275   3.545  14.741  1.2609 -0.5564 -0.1116
 2595TIP3    H129276   1.319   3.587  14.667  0.1842 -0.6367 -0.8119
 2595TIP3    H229277   1.204   3.496  14.702  0.3550 -0.1925  1.0270
 2596TIP3   OH229278   6.095   3.427   2.802 -0.4007  0.0885 -0.0824
 2596TIP3    H129279   6.033   3.465   2.740 -0.9747 -0.1953  0.3073
 2596TIP3    H229280   6.055   3.344   2.828 -0.1699  0.2032  0.6630
 2597TIP3   OH229281   4.488   2.008   5.356  0.0368  0.4854  0.3399
 2597TIP3    H129282   4.394   2.027   5.351  0.2062  1.5175  0.7930
 2597TIP3    H229283   4.529   2.078   5.306  0.5203 -0.6713 -0.9527
 2598TIP3   OH229284   2.339   1.717  15.224  0.3528  0.2701  0.2467
 2598TIP3    H129285   2.380   1.643  15.269  0.8892 -0.3738 -1.2256
 2598TIP3    H229286   2.329   1.784  15.292  0.0641 -1.0564  1.5692
 2599TIP3   OH229287   1.751   4.404   5.260  0.0956 -0.0589 -0.5939
 2599TIP3    H129288   1.686   4.374   5.324  1.2251 -2.2244 -0.3633
 2599TIP3    H229289   1.706   4.396   5.176  0.1144 -1.9435 -0.4749
 2600TIP3   OH229290   5.120   6.717  16.927  0.4433 -0.4686 -0.2752
 2600TIP3    H129291   5.142   6.672  16.846  2.9746 -0.3532  0.2569
 2600TIP3    H229292   5.112   6.809  16.902 -0.2082 -0.6165 -0.6176
 2601TIP3   OH229293   4.705   3.247  11.988 -0.5193  0.7827 -0.1412
 2601TIP3    H129294   4.610   3.238  11.988 -0.4684  0.2435  0.3629
 2601TIP3    H229295   4.722   3.321  11.929 -1.2701  1.1282  0.0722
 2602TIP3   OH229296   3.170   1.941   0.493  0.0018  0.1189 -0.0280
 2602TIP3    H129297   3.237   1.904   0.436  0.2902  1.0324 -0.2977
 2602TIP3    H229298   3.195   2.033   0.503  0.5702 -0.2533  2.4470
 2603TIP3   OH229299   4.239   2.591   1.639 -0.0564  0.1780  0.3895
 2603TIP3    H129300   4.272   2.505   1.664  0.0882 -0.0500 -0.5567
 2603TIP3    H229301   4.287   2.652   1.695 -1.2679 -0.4181  2.2096
 2604TIP3   OH229302   0.961   5.006   3.387  0.0243  0.2410 -0.2359
 2604TIP3    H129303   0.922   4.996   3.301  0.2477 -0.2026 -0.2876
 2604TIP3    H229304   1.000   4.921   3.406  4.7126  1.6973 -2.0020
 2605TIP3   OH229305   4.604   3.224   1.490  0.1814 -0.1713  0.4567
 2605TIP3    H129306   4.552   3.304   1.478 -1.6978 -1.3185  0.4628
 2605TIP3    H229307   4.617   3.191   1.401  0.1884 -0.3189  0.5121
 2606TIP3   OH229308   1.527   5.214  12.158  0.3970 -1.0075  0.5068
 2606TIP3    H129309   1.537   5.182  12.069 -1.6365 -0.2904 -0.0442
 2606TIP3    H229310   1.490   5.302  12.147  0.4806 -0.7578  2.0503
 2607TIP3   OH229311   0.156   2.004  14.093  0.2557 -0.3920 -0.1807
 2607TIP3    H129312   0.063   2.008  14.117  0.7328  2.3599  1.7229
 2607TIP3    H229313   0.156   1.996  13.998 -1.9491 -0.2866 -0.2376
 2608TIP3   OH229314   3.869   3.200  14.010  0.2507 -0.2665  0.6122
 2608TIP3    H129315   3.931   3.271  14.025  0.3893 -0.4379  0.8737
 2608TIP3    H229316   3.790   3.243  13.976  1.0979 -0.2159 -1.4205
 2609TIP3   OH229317   3.096   0.112  12.893 -0.3873 -0.0615 -0.2521
 2609TIP3    H129318   3.143   0.029  12.900 -1.7642 -0.8601 -0.2533
 2609TIP3    H229319   3.091   0.130  12.799 -0.0640  0.0598 -0.2510
 2610TIP3   OH229320   3.524   4.854   1.666  0.3870  0.3694  0.6751
 2610TIP3    H129321   3.451   4.888   1.614  0.1850  0.2011  0.8452
 2610TIP3    H229322   3.596   4.846   1.603  0.6266  1.6924  0.7723
 2611TIP3   OH229323   0.461   2.869   0.006  0.1416 -0.4715 -0.4102
 2611TIP3    H129324   0.536   2.811  -0.005  0.4345 -0.0693 -0.5623
 2611TIP3    H229325   0.499   2.956   0.019 -0.2853 -0.3605  0.1411
 2612TIP3   OH229326   3.417   5.023  15.805 -0.2203  0.2930  0.0201
 2612TIP3    H129327   3.365   4.975  15.741 -1.1335  2.3527 -0.8676
 2612TIP3    H229328   3.376   5.109  15.810  1.6350  1.1879  1.1581
 2613TIP3   OH229329   4.446   6.465   2.732  0.5303 -0.3058 -0.4775
 2613TIP3    H129330   4.492   6.388   2.766  0.5684 -0.9478 -1.8701
 2613TIP3    H229331   4.382   6.487   2.799  0.5048 -1.5830 -0.0515
 2614TIP3   OH229332   5.986   5.539   6.800  0.1383  0.2958 -0.1803
 2614TIP3    H129333   6.031   5.608   6.849  0.7175  0.8915 -1.5070
 2614TIP3    H229334   6.057   5.490   6.758 -0.0936 -2.2649  2.0700
 2615TIP3   OH229335   6.753   1.597   0.023  0.7979  0.0766  0.5175
 2615TIP3    H129336   6.694   1.672   0.029 -1.4558 -1.4424 -0.9543
 2615TIP3    H229337   6.833   1.633  -0.016 -0.6989  1.5617 -1.4429
 2616TIP3   OH229338   4.661   6.158   0.511  0.2245 -0.0589 -1.3241
 2616TIP3    H129339   4.677   6.155   0.606  0.8613 -0.6282 -1.4410
 2616TIP3    H229340   4.577   6.113   0.499  1.0503 -1.7048 -1.2061
 2617TIP3   OH229341   6.174   0.375   3.899 -0.0049  0.3302 -0.1055
 2617TIP3    H129342   6.200   0.317   3.971  1.4037  0.2557 -0.6317
 2617TIP3    H229343   6.183   0.463   3.936  0.6857  0.2919 -0.1724
 2618TIP3   OH229344   0.854   4.302  13.173  0.3162  0.4098 -0.0710
 2618TIP3    H129345   0.802   4.243  13.228  0.5678 -0.2249 -0.5015
 2618TIP3    H229346   0.882   4.371  13.233 -2.0225  1.4593 -0.0820
 2619TIP3   OH229347   4.011   6.550  14.385  0.0358  0.7043 -0.2345
 2619TIP3    H129348   3.965   6.631  14.404  1.8237  1.9206 -0.8944
 2619TIP3    H229349   4.006   6.500  14.467 -0.2058  1.9087  0.5021
 2620TIP3   OH229350   5.066   3.430  11.688  0.2470 -0.6739  0.2009
 2620TIP3    H129351   5.062   3.446  11.593 -1.0685  0.2991  0.3940
 2620TIP3    H229352   5.138   3.486  11.718 -0.8651  0.8885  0.0823
 2621TIP3   OH229353   1.703   2.530  13.636  0.9327 -0.1821  0.0427
 2621TIP3    H129354   1.676   2.463  13.573  1.1714 -1.1044  0.9034
 2621TIP3    H229355   1.659   2.507  13.717 -0.3916  1.7283 -0.0741
 2622TIP3   OH229356   3.685   5.292   4.283  0.0649  0.3621  0.1623
 2622TIP3    H129357   3.729   5.377   4.284  0.3065  0.2592 -0.7808
 2622TIP3    H229358   3.696   5.260   4.193 -0.3116 -0.5153  0.4153
 2623TIP3   OH229359   6.035   0.002  13.733 -0.2088 -0.2543  0.1190
 2623TIP3    H129360   6.055  -0.050  13.811  0.2334  0.6622  0.6360
 2623TIP3    H229361   6.002  -0.062  13.670  2.9416 -1.6962 -0.2983
 2624TIP3   OH229362   1.037   3.320  13.399  0.0212  0.1508 -0.6788
 2624TIP3    H129363   0.966   3.256  13.403 -0.4105  0.5669 -1.4656
 2624TIP3    H229364   1.074   3.320  13.488 -0.2304 -0.8840 -0.5588
 2625TIP3   OH229365   2.196   2.293  11.981 -0.7369  0.4555 -0.0588
 2625TIP3    H129366   2.246   2.344  11.917  0.3606  0.3370  0.6742
 2625TIP3    H229367   2.213   2.202  11.959  2.7712  0.2811  2.5694
 2626TIP3   OH229368   5.091   4.146   5.403  0.0013  0.6623 -0.2979
 2626TIP3    H129369   5.033   4.222   5.407  0.6524  1.1769 -0.2135
 2626TIP3    H229370   5.160   4.166   5.468 -0.0654 -0.2141  0.0522
 2627TIP3   OH229371   0.425   5.320   1.462  0.1194  0.5263  0.7701
 2627TIP3    H129372   0.403   5.405   1.426 -0.2138  0.1315  0.0266
 2627TIP3    H229373   0.495   5.337   1.525  0.9558  1.1711 -0.3177
 2628TIP3   OH229374   0.509   1.100   4.950 -0.2604  0.5885  0.3130
 2628TIP3    H129375   0.590   1.130   4.990 -0.0450 -0.9273  1.0940
 2628TIP3    H229376   0.441   1.121   5.013 -0.1909  0.0473  0.5771
 2629TIP3   OH229377   1.338   5.004  13.236  0.3965 -0.2923  0.0586
 2629TIP3    H129378   1.433   5.015  13.248  0.2430  0.4374  0.6821
 2629TIP3    H229379   1.299   5.062  13.302 -0.4821  0.0847 -0.7733
 2630TIP3   OH229380   3.350   4.651  13.055 -0.3471  0.5131 -0.6063
 2630TIP3    H129381   3.427   4.622  13.007 -0.9835  0.0476 -1.3652
 2630TIP3    H229382   3.306   4.712  12.996 -0.5172  0.8463 -0.1451
 2631TIP3   OH229383   5.972   5.031  16.205  0.4687  0.6159 -0.7082
 2631TIP3    H129384   6.044   5.040  16.267 -0.3451  0.1260  0.3544
 2631TIP3    H229385   6.014   5.020  16.120  1.6956 -1.1755  0.0772
 2632TIP3   OH229386   2.451   6.503   2.784 -0.3385 -0.2494  0.0948
 2632TIP3    H129387   2.529   6.471   2.738 -0.7248 -0.2268 -0.5870
 2632TIP3    H229388   2.425   6.430   2.840 -0.2355 -0.5154 -0.1991
 2633TIP3   OH229389   2.304   2.659   6.781  0.0988  0.3367  0.4449
 2633TIP3    H129390   2.398   2.648   6.765  0.1638 -1.9561  1.8776
 2633TIP3    H229391   2.299   2.731   6.843  1.0864 -0.3867  1.4166
 2634TIP3   OH229392   2.849   6.165   5.692 -0.1554  0.1003 -0.0557
 2634TIP3    H129393   2.764   6.180   5.732 -2.1362 -0.7173 -3.6060
 2634TIP3    H229394   2.869   6.246   5.646  1.0576  0.2848  0.7319
 2635TIP3   OH229395   0.756   1.368  15.759 -0.5827  0.5236 -0.0344
 2635TIP3    H129396   0.735   1.462  15.756 -0.3489  0.5755 -0.0393
 2635TIP3    H229397   0.708   1.331  15.685 -1.0033  0.5714  0.2096
 2636TIP3   OH229398   5.985   5.968  14.851  0.4048  0.3519 -0.3213
 2636TIP3    H129399   5.963   5.876  14.838 -0.0930  0.6057 -1.4302
 2636TIP3    H229400   6.081   5.970  14.854  0.4338 -0.1610 -0.7331
 2637TIP3   OH229401   1.120   2.355  12.441  0.3492 -0.3213  0.4055
 2637TIP3    H129402   1.146   2.409  12.515  0.8243  0.5898 -0.3878
 2637TIP3    H229403   1.027   2.372  12.430  0.4102  0.0291  0.4181
 2638TIP3   OH229404   5.212   2.190   1.659  0.1768 -0.2936  0.1004
 2638TIP3    H129405   5.196   2.171   1.752  0.1606 -2.3530 -0.2893
 2638TIP3    H229406   5.307   2.191   1.651  0.2833  2.3361  0.5404
 2639TIP3   OH229407   0.203   2.126  16.035  0.3894  0.1033  0.1167
 2639TIP3    H129408   0.186   2.217  16.010  0.8397  0.4153  0.9060
 2639TIP3    H229409   0.269   2.132  16.104 -0.5358 -0.7510  1.1008
 2640TIP3   OH229410   1.074   2.449   5.963 -0.4177 -0.1975 -0.2413
 2640TIP3    H129411   1.118   2.501   5.895 -1.0304 -1.4539 -1.6732
 2640TIP3    H229412   0.985   2.485   5.967  0.4106  1.8239  2.0899
 2641TIP3   OH229413   0.066   0.800  11.831  0.3457 -0.1380 -0.3211
 2641TIP3    H129414   0.148   0.828  11.872  1.0445  0.6805 -2.1745
 2641TIP3    H229415  -0.003   0.833  11.890  1.2861  1.7113 -0.1767
 2642TIP3   OH229416   3.640   2.986   3.592 -0.5709 -0.5894 -0.0403
 2642TIP3    H129417   3.613   2.957   3.679 -0.0845  0.0488  0.3317
 2642TIP3    H229418   3.599   3.072   3.581  1.8186  0.7543  0.8551
 2643TIP3   OH229419   5.575   0.052   1.731 -0.4873 -0.5494 -0.2086
 2643TIP3    H129420   5.561  -0.002   1.653 -1.7144 -3.3429  1.7811
 2643TIP3    H229421   5.669   0.050   1.746 -0.3256 -0.5934 -1.1590
 2644TIP3   OH229422   4.764   6.619  13.746  0.5294 -0.5293  0.1836
 2644TIP3    H129423   4.710   6.651  13.819  0.5431 -2.7375  1.2438
 2644TIP3    H229424   4.702   6.594  13.679  0.4959  1.0805 -0.4307
 2645TIP3   OH229425   1.965   6.767   1.682 -0.1294  0.0905 -0.4395
 2645TIP3    H129426   2.047   6.813   1.699 -0.6800  0.6544  0.7946
 2645TIP3    H229427   1.898   6.821   1.724 -0.9910 -0.9792 -0.3952
 2646TIP3   OH229428   6.234   0.857  16.435  0.4256  0.0578 -0.4450
 2646TIP3    H129429   6.209   0.840  16.525 -0.3076 -0.2702 -0.7012
 2646TIP3    H229430   6.231   0.771  16.393  1.1870  0.1433 -0.6779
 2647TIP3   OH229431   1.960   2.789   5.622 -0.0417 -0.2978  0.2091
 2647TIP3    H129432   1.877   2.830   5.598 -0.2002 -1.4186 -1.2236
 2647TIP3    H229433   2.016   2.801   5.546  1.2675  0.7240  1.2700
 2648TIP3   OH229434   5.613   0.233  16.080 -0.2137 -0.2721  0.2527
 2648TIP3    H129435   5.682   0.251  16.016 -1.2114  0.7533 -0.5683
 2648TIP3    H229436   5.604   0.137  16.078  1.6520 -0.5119  0.9220
 2649TIP3   OH229437   5.304   6.510   2.869 -0.0804  0.3461  0.0428
 2649TIP3    H129438   5.229   6.530   2.925 -0.4603  1.2424 -0.7563
 2649TIP3    H229439   5.326   6.594   2.828 -0.8590 -0.5454 -2.3917
 2650TIP3   OH229440   0.412   1.286  16.809  0.1597 -0.0377 -0.2225
 2650TIP3    H129441   0.420   1.209  16.753 -1.2240 -0.7932  0.5510
 2650TIP3    H229442   0.338   1.266  16.866  1.7441  0.4791  2.1941
 2651TIP3   OH229443   2.145   4.372   1.263 -0.7736 -0.0682 -0.3469
 2651TIP3    H129444   2.239   4.365   1.281 -0.6963 -0.6864 -0.9505
 2651TIP3    H229445   2.126   4.464   1.275 -0.2540 -0.0623  0.5720
 2652TIP3   OH229446   3.219   5.422   0.914  0.0294 -0.3066 -0.6124
 2652TIP3    H129447   3.241   5.513   0.931 -2.3574  0.0377  1.2561
 2652TIP3    H229448   3.173   5.424   0.830 -1.6639  0.6044  0.2729
 2653TIP3   OH229449   1.270   6.758  13.294 -0.3938  0.2149  0.4141
 2653TIP3    H129450   1.220   6.763  13.213  1.1893 -0.3467 -0.6433
 2653TIP3    H229451   1.307   6.846  13.305  0.6200 -0.1082 -0.3123
 2654TIP3   OH229452   6.661   1.174  14.190  0.2429  0.1391 -0.2889
 2654TIP3    H129453   6.637   1.174  14.283  0.5857  0.8343 -0.1921
 2654TIP3    H229454   6.738   1.118  14.184 -1.3711 -2.1768 -0.6139
 2655TIP3   OH229455   1.999   2.590  15.921 -0.0133 -0.0826 -0.0564
 2655TIP3    H129456   2.054   2.643  15.979  1.7005  0.1982 -1.8592
 2655TIP3    H229457   2.052   2.513  15.902 -0.6761 -0.3149 -1.0179
 2656TIP3   OH229458   4.683   3.298  13.887 -0.1022 -0.1308 -0.2749
 2656TIP3    H129459   4.730   3.286  13.969  0.4040 -0.4234 -0.6046
 2656TIP3    H229460   4.663   3.392  13.885  0.6460  0.0385 -0.2198
 2657TIP3   OH229461   2.934   1.797   5.646 -0.4532  0.0038 -0.8480
 2657TIP3    H129462   3.026   1.791   5.669 -0.7137 -0.4960  0.1137
 2657TIP3    H229463   2.932   1.852   5.567  0.6839 -0.2849 -1.0886
 2658TIP3   OH229464   4.212   2.738  13.650  0.1891 -0.8142  0.4029
 2658TIP3    H129465   4.204   2.702  13.562 -0.7986  0.3435 -0.0003
 2658TIP3    H229466   4.191   2.665  13.708 -1.4574 -1.0046 -0.3872
 2659TIP3   OH229467   4.871   5.209   0.741  0.3296 -0.3643  0.2353
 2659TIP3    H129468   4.916   5.138   0.786  2.9758  0.4799 -0.9065
 2659TIP3    H229469   4.886   5.192   0.648 -1.3625  0.2351 -0.1859
 2660TIP3   OH229470   2.026   5.525   6.379 -0.5653  0.1640 -0.1867
 2660TIP3    H129471   2.107   5.483   6.351 -1.6616 -1.7299 -0.7481
 2660TIP3    H229472   2.044   5.618   6.377  1.6825 -0.2171  0.0137
 2661TIP3   OH229473   0.313   5.190   6.112 -0.6543  0.2881 -0.0737
 2661TIP3    H129474   0.221   5.174   6.091 -1.2732  0.3081  2.3411
 2661TIP3    H229475   0.360   5.116   6.073 -1.8560 -0.3657 -0.3277
 2662TIP3   OH229476   3.244   0.012  12.064  0.1675 -0.0334  0.5136
 2662TIP3    H129477   3.320  -0.042  12.088 -0.6679 -0.9401  1.2061
 2662TIP3    H229478   3.224   0.062  12.143 -0.2871 -0.2005  0.5037
 2663TIP3   OH229479   2.029   3.134  14.159  1.3291  0.2258 -0.1541
 2663TIP3    H129480   2.007   3.220  14.195 -2.0259 -0.6479  0.2272
 2663TIP3    H229481   2.114   3.146  14.117  1.3114  3.5159  0.5181
 2664TIP3   OH229482   3.239   3.614  17.258  0.3655  0.0028 -0.6559
 2664TIP3    H129483   3.199   3.530  17.281  1.2897 -0.0865  0.7398
 2664TIP3    H229484   3.168   3.664  17.216 -0.8833 -0.6001  0.6332
 2665TIP3   OH229485   2.851   0.573   5.378  0.2736 -0.2370 -0.3557
 2665TIP3    H129486   2.831   0.603   5.466  0.2104 -0.1260 -0.4077
 2665TIP3    H229487   2.837   0.650   5.322 -0.0026 -0.3907 -0.5020
 2666TIP3   OH229488   4.125   0.708  15.476  0.2919 -0.2559 -0.3729
 2666TIP3    H129489   4.155   0.793  15.444 -0.3886  0.0113 -0.3103
 2666TIP3    H229490   4.125   0.653  15.398 -0.0424  0.0208 -0.5707
 2667TIP3   OH229491   0.958   5.467  17.243  0.5919  0.7179  0.5784
 2667TIP3    H129492   1.013   5.544  17.259  0.9983  0.9317 -1.4757
 2667TIP3    H229493   0.940   5.471  17.149  3.1387 -3.2837 -0.3202
 2668TIP3   OH229494   0.858   6.666   1.013  0.2795 -0.3796 -0.1645
 2668TIP3    H129495   0.845   6.686   1.106  4.2601  1.2955  0.2279
 2668TIP3    H229496   0.911   6.586   1.013  0.6485 -0.1382 -0.9891
 2669TIP3   OH229497   0.285   0.230   1.451  0.3546 -0.5482 -0.2436
 2669TIP3    H129498   0.311   0.182   1.373 -0.2810 -1.6134  0.1770
 2669TIP3    H229499   0.360   0.287   1.471  0.5628 -0.3349 -1.5497
 2670TIP3   OH229500   2.980   6.686  16.906 -0.1205 -0.0614 -0.1469
 2670TIP3    H129501   3.014   6.735  16.832  0.3835 -0.2414 -0.0449
 2670TIP3    H229502   2.927   6.748  16.955 -0.0152  0.2013 -0.3679
 2671TIP3   OH229503   5.320   2.153   3.397  0.3121  0.1409 -0.2355
 2671TIP3    H129504   5.322   2.074   3.343  0.9398  1.1092 -1.6999
 2671TIP3    H229505   5.410   2.187   3.393 -0.1167  1.3175 -0.2497
 2672TIP3   OH229506   3.434   0.566   0.139  0.1039  0.0738 -0.1948
 2672TIP3    H129507   3.493   0.583   0.066  1.4774 -0.6593  0.6776
 2672TIP3    H229508   3.384   0.489   0.112  1.4811 -0.9629  0.0834
 2673TIP3   OH229509   3.536   2.362  12.969 -0.4446  0.3061  0.4411
 2673TIP3    H129510   3.512   2.304  12.896 -2.1882 -0.8178  1.8303
 2673TIP3    H229511   3.624   2.393  12.946  0.5346 -2.7453 -0.5022
 2674TIP3   OH229512   4.195   0.918  15.248  0.4388  0.3674 -0.6614
 2674TIP3    H129513   4.281   0.907  15.288  0.4283  2.7457  0.1818
 2674TIP3    H229514   4.184   0.841  15.192  1.1218 -2.3784  2.6584
 2675TIP3   OH229515   1.925   0.117  14.935 -0.2002  0.0279 -0.4711
 2675TIP3    H129516   1.897   0.077  15.017  3.8357  0.1933  1.2232
 2675TIP3    H229517   1.944   0.208  14.958  1.2272  0.0157 -1.4741
 2676TIP3   OH229518   2.497   3.939   6.113 -0.1846  0.8137  0.0142
 2676TIP3    H129519   2.585   3.967   6.139 -0.5308  0.4282  1.6506
 2676TIP3    H229520   2.438   4.002   6.154 -0.7254  0.5206 -0.3016
 2677TIP3   OH229521   6.125   0.956  15.095  0.0854 -0.0357 -0.0002
 2677TIP3    H129522   6.098   0.870  15.126  0.4411 -0.2524 -0.2780
 2677TIP3    H229523   6.221   0.954  15.100  0.0585  1.3487  2.6390
 2678TIP3   OH229524   3.449   6.094  10.650  0.3342  0.0272  0.4268
 2678TIP3    H129525   3.523   6.143  10.615  0.3736  0.8744  1.6282
 2678TIP3    H229526   3.420   6.039  10.577 -0.4142  2.6406 -1.4047
 2679TIP3   OH229527   2.045   2.434  16.166 -0.0593 -0.4173 -0.2911
 2679TIP3    H129528   2.014   2.475  16.247 -2.1239  0.8232 -1.6240
 2679TIP3    H229529   1.977   2.452  16.102  1.6466 -1.0873 -2.4287
 2680TIP3   OH229530   2.108   0.779   3.863 -0.0697 -0.0076 -0.4334
 2680TIP3    H129531   2.109   0.821   3.948 -0.8189  1.7672 -1.2438
 2680TIP3    H229532   2.200   0.774   3.836  0.2520 -1.4097  0.8248
 2681TIP3   OH229533   6.323   3.951  17.106 -0.1196  0.1472  0.5450
 2681TIP3    H129534   6.378   4.030  17.101  0.2390 -0.1190  0.1810
 2681TIP3    H229535   6.338   3.907  17.022  0.8883 -1.0979  1.3410
 2682TIP3   OH229536   5.909   4.217   1.297 -0.0800 -0.3455 -0.1899
 2682TIP3    H129537   5.864   4.133   1.304  0.8023 -0.8902 -0.7529
 2682TIP3    H229538   5.897   4.242   1.205 -1.4864  0.8370  0.2742
 2683TIP3   OH229539   5.465   2.236   1.769 -0.1946 -0.2499  0.3601
 2683TIP3    H129540   5.395   2.301   1.766  0.0797  0.0711  0.8557
 2683TIP3    H229541   5.465   2.204   1.859  0.0019 -0.5752  0.2463
 2684TIP3   OH229542   2.566   6.011  17.190 -0.6270  0.2154 -0.4473
 2684TIP3    H129543   2.603   5.930  17.226 -0.2424  0.8890  0.7185
 2684TIP3    H229544   2.474   5.990  17.174 -0.9302 -0.0030  1.3793
 2685TIP3   OH229545   4.003   4.225  10.531  0.7872  0.5192  0.1358
 2685TIP3    H129546   4.077   4.209  10.472  0.2656 -0.6802 -0.2294
 2685TIP3    H229547   4.036   4.201  10.618  0.3921 -1.5898 -0.2404
 2686TIP3   OH229548   2.113   4.056  13.825 -0.2525 -0.2729  0.0301
 2686TIP3    H129549   2.021   4.078  13.831 -1.0140 -3.0289  0.1106
 2686TIP3    H229550   2.145   4.102  13.747 -1.9153  0.0174 -0.5043
 2687TIP3   OH229551   4.251   5.727  17.130 -0.2227  0.0913 -0.3341
 2687TIP3    H129552   4.286   5.703  17.044  0.1604 -0.2671 -0.0848
 2687TIP3    H229553   4.280   5.656  17.187 -2.0712 -0.6615 -0.2725
 2688TIP3   OH229554   1.454   0.105  15.565 -0.0996 -0.3133  0.1078
 2688TIP3    H129555   1.409   0.167  15.508 -0.8209 -1.2525 -0.3909
 2688TIP3    H229556   1.387   0.076  15.627  0.0912 -0.9060  0.0516
 2689TIP3   OH229557   3.629   2.260  10.870  0.4571 -0.4679 -0.3873
 2689TIP3    H129558   3.593   2.267  10.959  1.8799  1.7236  0.0801
 2689TIP3    H229559   3.607   2.171  10.843 -1.9083 -0.5098  1.3050
 2690TIP3   OH229560   2.775   1.120   5.371  0.6139 -0.5095  0.3252
 2690TIP3    H129561   2.842   1.116   5.440 -0.2321  0.3881  1.2499
 2690TIP3    H229562   2.701   1.070   5.407  0.1218  0.0664  0.1249
 2691TIP3   OH229563   6.347   3.267  10.947  0.5783 -0.0957  0.5085
 2691TIP3    H129564   6.279   3.223  10.897 -0.4722  1.7810  0.2007
 2691TIP3    H229565   6.381   3.200  11.006 -0.6595 -1.4033 -0.2177
 2692TIP3   OH229566   5.113   5.288  17.208  1.3101 -0.3745 -0.0082
 2692TIP3    H129567   5.124   5.194  17.217  0.7236 -0.3905  0.6345
 2692TIP3    H229568   5.025   5.298  17.172  2.2975 -0.1634 -2.5695
 2693TIP3   OH229569   1.483   2.697  10.607  0.3363  0.3829 -0.2512
 2693TIP3    H129570   1.443   2.757  10.544  2.7532  1.0623 -1.2274
 2693TIP3    H229571   1.513   2.623  10.554 -0.6527 -0.6942  0.6351
 2694TIP3   OH229572   4.965   2.706  11.630 -0.4668 -0.2176  0.2806
 2694TIP3    H129573   4.909   2.705  11.707  0.2714 -0.1257  0.8246
 2694TIP3    H229574   4.909   2.739  11.560 -1.7060 -2.1306  0.3258
 2695TIP3   OH229575   5.680   5.334   5.596 -0.5616 -0.1700  0.0096
 2695TIP3    H129576   5.691   5.321   5.502 -1.1092  0.3469 -0.1355
 2695TIP3    H229577   5.629   5.258   5.625 -1.2334  0.1551 -0.2972
 2696TIP3   OH229578   6.606   5.256  16.225  0.0282  0.2815  0.2699
 2696TIP3    H129579   6.532   5.253  16.165 -0.8282  0.0557  1.3165
 2696TIP3    H229580   6.675   5.205  16.181 -0.2258  0.9582 -0.9571
 2697TIP3   OH229581   0.160   1.299   4.602  0.8093  0.1246  0.3793
 2697TIP3    H129582   0.075   1.336   4.580  1.7488 -0.0347 -4.7400
 2697TIP3    H229583   0.223   1.360   4.564  2.6802 -2.5320 -1.1211
 2698TIP3   OH229584   0.597   1.767  11.741 -0.3040 -0.0312  0.2197
 2698TIP3    H129585   0.564   1.717  11.666  3.2257 -0.5289 -1.1682
 2698TIP3    H229586   0.604   1.703  11.811  0.4801 -0.5856 -0.3591
 2699TIP3   OH229587   0.570   2.353   3.794 -0.2314 -0.1687  0.2037
 2699TIP3    H129588   0.618   2.281   3.753  1.8856  1.3353 -0.1164
 2699TIP3    H229589   0.553   2.414   3.723  0.4451  0.8973  0.9271
 2700TIP3   OH229590   2.060   2.208   3.952  0.1687  0.2978 -1.0394
 2700TIP3    H129591   2.095   2.176   3.868  0.4423  0.6526 -1.0651
 2700TIP3    H229592   2.039   2.129   4.001 -1.0001  0.0819 -1.8489
 2701TIP3   OH229593   5.326   6.582  13.094  0.3154  0.3535  0.1171
 2701TIP3    H129594   5.299   6.646  13.160 -1.4958 -1.0388  0.8169
 2701TIP3    H229595   5.314   6.628  13.011  0.3385  1.3469  0.6403
 2702TIP3   OH229596   4.528   5.346   0.866 -0.2494  0.1716 -0.9285
 2702TIP3    H129597   4.488   5.259   0.867  0.6737 -0.2685 -0.8896
 2702TIP3    H229598   4.496   5.388   0.945  1.3728 -1.1352  0.5187
 2703TIP3   OH229599   1.160   3.287  13.676 -0.9378 -0.3123  0.2615
 2703TIP3    H129600   1.206   3.363  13.711 -0.6448 -0.2269 -0.2965
 2703TIP3    H229601   1.149   3.228  13.751  0.5138 -0.5496  0.3120
 2704TIP3   OH229602   6.679   2.534  17.026 -0.8200 -0.0476  0.0458
 2704TIP3    H129603   6.767   2.573  17.030 -0.6526 -0.4800  1.0699
 2704TIP3    H229604   6.619   2.608  17.025 -0.4614  0.2485  0.3275
 2705TIP3   OH229605   4.376   1.301   2.373 -0.0122 -0.1064  0.2264
 2705TIP3    H129606   4.282   1.300   2.390 -0.9521  2.1406 -3.6912
 2705TIP3    H229607   4.390   1.227   2.313  0.5302  0.2086 -0.0382
 2706TIP3   OH229608   6.707   6.431  11.969  0.4815 -0.3419  0.3423
 2706TIP3    H129609   6.786   6.389  12.004  1.0857 -0.1305 -0.7115
 2706TIP3    H229610   6.728   6.525  11.970 -0.4069 -0.1328  1.5892
 2707TIP3   OH229611   1.782   0.270  16.293  0.6653  0.3657  0.0858
 2707TIP3    H129612   1.746   0.275  16.381 -0.2720  1.2929 -0.3293
 2707TIP3    H229613   1.854   0.207  16.300 -2.3299 -3.4090  0.5050
 2708TIP3   OH229614   5.856   2.322   3.585  0.0097  0.2879  0.0937
 2708TIP3    H129615   5.948   2.337   3.606 -0.2477  0.5733  1.0689
 2708TIP3    H229616   5.850   2.335   3.490  1.1085 -0.4752 -0.0891
 2709TIP3   OH229617   2.860   6.185   2.979 -0.2439 -0.2301  0.0052
 2709TIP3    H129618   2.892   6.123   3.045 -1.7807 -0.5546  0.4845
 2709TIP3    H229619   2.885   6.146   2.895 -1.3682 -1.6304  0.2924
 2710TIP3   OH229620   4.064   2.219  17.291 -0.4412 -0.2389  0.6743
 2710TIP3    H129621   4.142   2.196  17.341 -0.0978  0.1093  0.3031
 2710TIP3    H229622   4.090   2.209  17.200 -0.1696  1.8688  0.4736
 2711TIP3   OH229623   1.596   2.965  11.822  0.5503 -0.1525 -0.0025
 2711TIP3    H129624   1.598   3.005  11.735  1.9803 -0.2181 -0.0069
 2711TIP3    H229625   1.504   2.971  11.848  0.2574  0.6655 -1.1458
 2712TIP3   OH229626   5.379   4.048   0.633 -0.4238 -0.0492  0.1965
 2712TIP3    H129627   5.302   4.003   0.600 -1.5686  1.6403  0.4594
 2712TIP3    H229628   5.389   4.018   0.723 -1.3299  0.3875  0.4503
 2713TIP3   OH229629   5.004   6.403   1.051 -0.2506 -0.2303 -0.0300
 2713TIP3    H129630   4.982   6.476   1.109 -0.0196 -0.7714  0.7602
 2713TIP3    H229631   5.024   6.444   0.967 -1.6733  0.4956 -0.0545
 2714TIP3   OH229632   5.356   0.116  15.461  0.1022 -0.0788  0.2539
 2714TIP3    H129633   5.430   0.133  15.402  0.9878 -2.9157  0.4112
 2714TIP3    H229634   5.285   0.089  15.403 -0.1665  0.5602  0.2719
 2715TIP3   OH229635   3.728   4.439   0.731 -0.2293  0.2937 -0.0454
 2715TIP3    H129636   3.714   4.362   0.786 -1.9156  0.6232  0.0537
 2715TIP3    H229637   3.820   4.462   0.744  0.5920 -2.2491 -0.8340
 2716TIP3   OH229638   5.267   0.371   5.960 -0.5597 -0.6189 -0.0750
 2716TIP3    H129639   5.334   0.361   5.892 -1.2239  2.0135 -1.2371
 2716TIP3    H229640   5.312   0.346   6.041  0.9913 -1.5404 -1.1662
 2717TIP3   OH229641   1.571   5.454   4.507  0.0575  0.0880 -0.4196
 2717TIP3    H129642   1.568   5.536   4.557 -0.2750 -1.1874  1.8069
 2717TIP3    H229643   1.550   5.480   4.417 -2.0084  2.1962  0.5591
 2718TIP3   OH229644   1.650   2.630   4.751  0.1776 -0.0298  0.6036
 2718TIP3    H129645   1.724   2.683   4.722 -0.6339  1.6504  1.3964
 2718TIP3    H229646   1.599   2.614   4.672  0.1231  0.9433  0.4298
 2719TIP3   OH229647   0.906   2.797  15.139  0.1873 -0.0492  0.0395
 2719TIP3    H129648   0.994   2.776  15.169 -0.0088  1.6489  1.9543
 2719TIP3    H229649   0.849   2.734  15.183  0.2210  0.3699  0.6867
 2720TIP3   OH229650   2.299   1.291  16.342  0.3893  0.1509 -0.8641
 2720TIP3    H129651   2.277   1.222  16.279 -0.7767 -1.4108  1.0868
 2720TIP3    H229652   2.307   1.370  16.290 -1.6988 -0.8172 -2.8416
 2721TIP3   OH229653   3.203   1.739   5.616  0.2618 -0.3343  1.0061
 2721TIP3    H129654   3.138   1.703   5.556  0.1394  0.7412  0.4775
 2721TIP3    H229655   3.268   1.669   5.626 -0.8622 -1.3581  1.4027
 2722TIP3   OH229656   2.617   2.682   0.787 -0.2688 -0.2218 -0.1926
 2722TIP3    H129657   2.594   2.685   0.694 -0.2929  0.2186 -0.1749
 2722TIP3    H229658   2.579   2.762   0.823  0.9723  0.3313 -0.0827
 2723TIP3   OH229659   4.701   3.750   1.557  0.0226 -0.1362  0.4536
 2723TIP3    H129660   4.674   3.757   1.466  0.3991 -2.1527  0.1397
 2723TIP3    H229661   4.738   3.662   1.565 -1.5400 -0.6740  2.9587
 2724TIP3   OH229662   0.452   0.838   6.501 -0.2976 -0.2254 -0.6486
 2724TIP3    H129663   0.371   0.808   6.460 -1.0229 -1.1109  1.3249
 2724TIP3    H229664   0.516   0.770   6.480 -0.5849 -0.5292 -0.5559
 2725TIP3   OH229665   1.189   6.474   5.415 -0.5846  0.0217 -0.1299
 2725TIP3    H129666   1.175   6.411   5.344 -1.3741  1.1185 -0.9624
 2725TIP3    H229667   1.102   6.501   5.441 -0.3112 -0.4417  1.3673
 2726TIP3   OH229668   2.663   2.390  12.585 -0.4947  0.2624 -0.8346
 2726TIP3    H129669   2.591   2.440  12.621 -0.1059 -0.2569  0.7174
 2726TIP3    H229670   2.685   2.435  12.503 -0.5880  2.2174  0.1758
 2727TIP3   OH229671   0.200   5.796   4.800  0.0406 -0.0039 -0.5971
 2727TIP3    H129672   0.105   5.784   4.805 -0.0873  0.9055 -0.7043
 2727TIP3    H229673   0.222   5.777   4.709 -0.3549  1.7934 -1.1062
 2728TIP3   OH229674   0.298   5.190  16.416  0.0059  0.3494 -0.1375
 2728TIP3    H129675   0.230   5.223  16.357  0.2975  1.2667  0.0210
 2728TIP3    H229676   0.313   5.100  16.388 -2.1577 -0.3054  0.6272
 2729TIP3   OH229677   0.735   6.066  13.881 -0.1170 -0.1358  0.2091
 2729TIP3    H129678   0.642   6.050  13.866 -0.2868  1.7558 -1.0605
 2729TIP3    H229679   0.748   6.048  13.975 -1.3480 -2.0341  0.0794
 2730TIP3   OH229680   0.683   3.343  16.803 -0.2218 -0.2152  0.5852
 2730TIP3    H129681   0.598   3.377  16.831  0.3463  2.0221 -0.1987
 2730TIP3    H229682   0.716   3.409  16.742  1.3005 -1.9249 -0.5309
 2731TIP3   OH229683   1.869   4.751  12.991  0.1104  0.4956  0.4798
 2731TIP3    H129684   1.791   4.805  13.000 -0.2533 -0.0462  0.6688
 2731TIP3    H229685   1.942   4.813  12.990 -0.0960  0.9135  3.1162
 2732TIP3   OH229686   5.480   5.022  13.901 -0.1130  0.2803  0.3177
 2732TIP3    H129687   5.426   4.998  13.977  0.1860 -1.4070  0.0541
 2732TIP3    H229688   5.555   5.069  13.939 -0.3513  0.1369  0.9868
 2733TIP3   OH229689   5.503   4.279   4.696  0.5332  0.4082 -0.6046
 2733TIP3    H129690   5.568   4.331   4.743 -0.4260  0.2428  0.9675
 2733TIP3    H229691   5.490   4.326   4.613  2.0310  0.8755 -0.6087
 2734TIP3   OH229692   0.051   1.171   1.981  0.3623  0.1986 -0.5792
 2734TIP3    H129693  -0.010   1.235   1.946 -0.5956  0.6202  1.6689
 2734TIP3    H229694   0.061   1.195   2.073  2.2191 -1.1919 -0.3521
 2735TIP3   OH229695   4.891   4.653   5.008  0.4559  0.2398 -0.8775
 2735TIP3    H129696   4.812   4.647   5.061  0.2018  0.7221 -1.1875
 2735TIP3    H229697   4.931   4.736   5.034  0.8153  0.0423 -0.7882
 2736TIP3   OH229698   6.617   4.532  10.842  0.0724  0.7733  0.2068
 2736TIP3    H129699   6.591   4.624  10.848 -0.0673  0.7330  0.1970
 2736TIP3    H229700   6.544   4.483  10.880 -0.6717  0.5332 -1.4565
 2737TIP3   OH229701   0.897   4.679   2.616 -0.5206  0.1642  0.1762
 2737TIP3    H129702   0.834   4.682   2.689  0.2340  3.0486  0.8444
 2737TIP3    H229703   0.979   4.650   2.656 -0.2451  1.2061  0.3955
 2738TIP3   OH229704   0.847   3.225   4.226  0.0396  0.2294  0.1694
 2738TIP3    H129705   0.788   3.281   4.277 -3.0916 -2.7855  0.1688
 2738TIP3    H229706   0.841   3.258   4.137 -0.9253  0.5055  0.3328
 2739TIP3   OH229707   4.664   0.899  14.417  0.1797  0.4946  0.1879
 2739TIP3    H129708   4.586   0.845  14.428  1.0318 -0.8335 -0.0594
 2739TIP3    H229709   4.639   0.965  14.352 -0.6732 -0.0527 -0.0518
 2740TIP3   OH229710   4.338   0.482   3.340  0.0462  0.0426  0.6698
 2740TIP3    H129711   4.259   0.474   3.287  1.9705 -1.0135 -2.2931
 2740TIP3    H229712   4.344   0.575   3.361 -0.9868  0.4396 -0.6766
 2741TIP3   OH229713   0.968   5.719  16.413 -0.3939  0.0415  0.2580
 2741TIP3    H129714   0.975   5.714  16.317  1.0131 -1.7458  0.3998
 2741TIP3    H229715   0.911   5.647  16.436 -1.3514  0.9359  0.7449
 2742TIP3   OH229716   5.815   4.419  11.766 -0.0758  0.0873  0.3543
 2742TIP3    H129717   5.812   4.505  11.809  0.7463  0.0519  0.4919
 2742TIP3    H229718   5.828   4.439  11.674  1.4133  0.0993  0.5425
 2743TIP3   OH229719   0.197   1.556   6.452 -0.3383  0.6261 -0.6596
 2743TIP3    H129720   0.163   1.636   6.492  2.1419  1.1351  0.5947
 2743TIP3    H229721   0.174   1.565   6.359 -1.3895  2.0593 -0.3076
 2744TIP3   OH229722   3.216   1.731   3.280 -0.6897  0.0094  1.0250
 2744TIP3    H129723   3.139   1.696   3.235 -0.5950 -0.6915  1.3963
 2744TIP3    H229724   3.290   1.686   3.240 -0.4785  0.5746  0.7705
 2745TIP3   OH229725   5.696   6.465  11.342  0.5565  0.2787  0.3390
 2745TIP3    H129726   5.626   6.530  11.349 -0.2096 -0.6138  1.5413
 2745TIP3    H229727   5.650   6.382  11.325  1.1301 -0.6206  2.7544
 2746TIP3   OH229728   3.764   3.947   1.469 -0.5954 -0.1689  0.0932
 2746TIP3    H129729   3.834   3.918   1.528 -0.2225 -0.4272 -0.4730
 2746TIP3    H229730   3.770   4.042   1.472 -0.1902 -0.1874  0.0195
 2747TIP3   OH229731   0.540   6.040  13.375 -0.4948  0.3638 -0.4966
 2747TIP3    H129732   0.458   6.017  13.332 -0.6321  0.3805 -0.2465
 2747TIP3    H229733   0.514   6.073  13.461 -0.2746  1.0903 -0.7023
 2748TIP3   OH229734   1.303   4.019   5.809 -0.0454  0.3831 -0.7706
 2748TIP3    H129735   1.311   4.070   5.728  2.0474 -0.1077 -0.9287
 2748TIP3    H229736   1.370   3.951   5.801 -2.6627 -2.4348 -0.5412
 2749TIP3   OH229737   2.841   5.444   5.756  0.0062 -0.1555  0.2569
 2749TIP3    H129738   2.854   5.358   5.796 -0.6305 -0.4346 -0.1093
 2749TIP3    H229739   2.844   5.428   5.662  0.7761  0.3783  0.1763
 2750TIP3   OH229740   5.360   1.593   3.931  0.1820  0.0442  0.6413
 2750TIP3    H129741   5.415   1.515   3.920 -2.5057 -1.7975 -0.7310
 2750TIP3    H229742   5.374   1.619   4.021  2.1002 -1.2786  0.7910
 2751TIP3   OH229743   3.747   1.289   5.476 -0.1410  0.5448  0.6749
 2751TIP3    H129744   3.752   1.239   5.557  0.3443 -1.3985 -0.4696
 2751TIP3    H229745   3.747   1.222   5.407 -0.3101  2.1272 -0.9343
 2752TIP3   OH229746   0.860   0.209   3.889 -0.1230  0.3592  0.5207
 2752TIP3    H129747   0.832   0.192   3.979 -0.1888 -0.5091  0.3399
 2752TIP3    H229748   0.866   0.123   3.848 -0.0864  0.7403 -0.3102
 2753TIP3   OH229749   1.897   0.085  12.960 -0.7108 -0.5562 -1.0374
 2753TIP3    H129750   1.881   0.011  13.018  0.7471 -0.6502 -0.7243
 2753TIP3    H229751   1.810   0.123  12.946 -1.4849 -2.2190 -1.0873
 2754TIP3   OH229752   3.190   1.847   4.907  0.2484 -0.0126 -0.2977
 2754TIP3    H129753   3.130   1.781   4.872 -0.5995  1.3056 -1.4275
 2754TIP3    H229754   3.270   1.837   4.855  0.8039 -1.3196  0.7553
 2755TIP3   OH229755   6.593   2.530  12.527 -0.2205 -0.2678  0.7858
 2755TIP3    H129756   6.658   2.463  12.546  0.2014  0.6206  2.7203
 2755TIP3    H229757   6.513   2.499  12.570 -0.8552 -0.8698 -0.7410
 2756TIP3   OH229758   1.933   4.828   4.171 -0.0143 -0.2063 -0.2223
 2756TIP3    H129759   1.842   4.816   4.144 -0.7400  3.0222  0.4326
 2756TIP3    H229760   1.927   4.876   4.254  2.2402  1.7168 -1.0701
 2757TIP3   OH229761   5.238   0.568   1.839  0.5271  0.7079  0.0725
 2757TIP3    H129762   5.305   0.609   1.893  1.0129  0.6920 -0.5011
 2757TIP3    H229763   5.181   0.524   1.901 -0.2094  2.5091  0.7404
 2758TIP3   OH229764   2.337   1.055  14.152 -0.3205  0.1172 -0.5046
 2758TIP3    H129765   2.284   1.095  14.222  1.0751  1.6435 -0.2639
 2758TIP3    H229766   2.401   1.001  14.199 -0.6265 -0.4278 -0.7114
 2759TIP3   OH229767   2.357   2.237  12.602  0.5342  0.2143  0.3613
 2759TIP3    H129768   2.412   2.295  12.655  1.6547 -0.8034  0.3724
 2759TIP3    H229769   2.389   2.149  12.623  0.3176 -0.2722 -1.2278
 2760TIP3   OH229770   5.140   2.318   2.356 -0.0804  1.0278  0.0579
 2760TIP3    H129771   5.163   2.331   2.264  3.0964  0.3594  0.6249
 2760TIP3    H229772   5.147   2.405   2.395 -0.2398  1.1170 -0.1120
 2761TIP3   OH229773   4.081   6.383  16.930 -0.3942  0.0523 -0.2056
 2761TIP3    H129774   4.082   6.471  16.893 -0.9801  0.9607  1.7787
 2761TIP3    H229775   4.156   6.339  16.891  0.8695  1.9624 -0.0508
 2762TIP3   OH229776   5.245   1.295   4.591 -0.0778 -0.4735 -0.5286
 2762TIP3    H129777   5.169   1.349   4.569 -2.7868 -2.4699  2.8881
 2762TIP3    H229778   5.276   1.330   4.674  2.7619  0.1176 -1.7076
 2763TIP3   OH229779   0.414   0.054   2.393 -0.0649  0.6452 -0.7734
 2763TIP3    H129780   0.436   0.021   2.480  0.5513  0.5055 -0.9765
 2763TIP3    H229781   0.426   0.149   2.398  0.1203  0.6202 -0.7479
 2764TIP3   OH229782   2.755   5.486  13.218  0.2621 -0.3308 -0.2889
 2764TIP3    H129783   2.671   5.443  13.235  0.3607 -0.3783  0.0792
 2764TIP3    H229784   2.820   5.429  13.259  0.4905 -0.3567 -0.6725
 2765TIP3   OH229785   5.689   1.545  12.806  0.5826 -0.2487 -0.3859
 2765TIP3    H129786   5.711   1.621  12.859  2.2021 -0.1346 -1.1907
 2765TIP3    H229787   5.758   1.481  12.825  1.2337 -0.1821 -2.3814
 2766TIP3   OH229788   1.483   0.243   1.746 -0.0529 -0.0461 -0.9376
 2766TIP3    H129789   1.417   0.290   1.797 -1.0762 -2.9823  0.6707
 2766TIP3    H229790   1.535   0.312   1.704 -2.1853  2.4258  0.2283
 2767TIP3   OH229791   1.429   3.163   6.059  0.6583 -0.3492 -0.4149
 2767TIP3    H129792   1.457   3.184   5.970  2.3301  3.2330  0.7958
 2767TIP3    H229793   1.339   3.195   6.065  1.2238  1.2655 -0.2847
 2768TIP3   OH229794   1.698   1.633   5.636 -0.2365 -0.1088 -0.1321
 2768TIP3    H129795   1.608   1.621   5.666  0.0667 -1.5168  0.3237
 2768TIP3    H229796   1.747   1.660   5.714 -0.5095  2.1669 -0.7020
 2769TIP3   OH229797   3.649   1.454  16.069  0.2676  0.2785 -0.4935
 2769TIP3    H129798   3.688   1.401  15.999  1.0749 -0.6665  0.6305
 2769TIP3    H229799   3.723   1.495  16.113 -0.1129 -0.2319  0.6570
 2770TIP3   OH229800   3.379   5.109   5.402 -1.1655  0.4954 -0.1231
 2770TIP3    H129801   3.469   5.137   5.418  0.2298 -1.5052 -3.3597
 2770TIP3    H229802   3.335   5.186   5.367  0.4358  0.6195 -2.0089
 2771TIP3   OH229803   1.642   6.628  11.438 -0.5785 -0.2137  0.0931
 2771TIP3    H129804   1.736   6.637  11.423 -0.9381  0.4365 -2.0227
 2771TIP3    H229805   1.634   6.549  11.490  1.1408 -0.1995  0.4519
 2772TIP3   OH229806   4.212   0.220  13.305  0.1162 -0.7124  0.8784
 2772TIP3    H129807   4.143   0.265  13.256 -0.5911 -3.3020 -0.7030
 2772TIP3    H229808   4.294   0.254  13.268 -0.3932 -0.8837 -0.4657
 2773TIP3   OH229809   2.516   1.211  16.480 -0.0228  0.2215 -0.6297
 2773TIP3    H129810   2.586   1.238  16.420  0.5638  0.7377  0.2616
 2773TIP3    H229811   2.435   1.230  16.432  0.4364 -0.5653 -1.7468
 2774TIP3   OH229812   5.339   2.503  11.777  0.1236 -0.2183  0.2695
 2774TIP3    H129813   5.268   2.468  11.829 -1.2611  1.2670 -0.5343
 2774TIP3    H229814   5.325   2.468  11.689 -0.5917  1.3375 -0.2655
 2775TIP3   OH229815   3.409   5.120   1.510  0.1282  0.5174  0.2825
 2775TIP3    H129816   3.480   5.081   1.458  0.4219 -0.6506  1.5089
 2775TIP3    H229817   3.373   5.188   1.453  2.2005  1.1147 -0.4022
 2776TIP3   OH229818   3.192   0.179   3.236  0.0887 -0.2521 -0.4836
 2776TIP3    H129819   3.225   0.193   3.325  0.0058 -0.1081 -0.4759
 2776TIP3    H229820   3.139   0.256   3.217  0.8108  0.1265 -0.9945
 2777TIP3   OH229821   0.724   6.725  13.883  0.3104  0.0788  0.0220
 2777TIP3    H129822   0.817   6.732  13.907  0.8399 -0.2633 -1.7355
 2777TIP3    H229823   0.726   6.712  13.788 -1.4972 -0.9314  0.0872
 2778TIP3   OH229824   1.829   2.452  13.061 -0.1739  0.1658  0.1767
 2778TIP3    H129825   1.874   2.378  13.102 -1.5664 -0.7248  0.1613
 2778TIP3    H229826   1.814   2.425  12.971  0.2879  0.9380 -0.1429
 2779TIP3   OH229827   3.954   1.680   1.326 -0.0384 -0.1501  0.3839
 2779TIP3    H129828   4.021   1.689   1.258  0.0960 -3.4735 -0.0890
 2779TIP3    H229829   4.004   1.675   1.408  0.7535 -4.8770 -0.1325
 2780TIP3   OH229830   0.601   1.301  13.632  0.1670  0.5306  0.1301
 2780TIP3    H129831   0.585   1.378  13.578  3.2264  0.3609 -1.2202
 2780TIP3    H229832   0.639   1.237  13.572  0.9666 -0.7400  1.8913
 2781TIP3   OH229833   6.739   3.833   5.825  0.3475  0.1260 -0.0428
 2781TIP3    H129834   6.648   3.847   5.799 -0.3637 -0.6166  1.8128
 2781TIP3    H229835   6.765   3.915   5.868  1.0998  0.8851 -1.8322
 2782TIP3   OH229836   3.306   2.924   4.367  0.1517  0.2604  0.7062
 2782TIP3    H129837   3.222   2.878   4.362  0.2817  0.0567  0.3683
 2782TIP3    H229838   3.345   2.892   4.449  0.2468 -0.2452  0.4684
 2783TIP3   OH229839   5.193   6.020   6.007  0.0429  0.1826 -0.0794
 2783TIP3    H129840   5.174   6.090   6.069 -0.7042 -0.4445  0.4191
 2783TIP3    H229841   5.247   5.957   6.055 -0.8913 -0.5121  0.0930
 2784TIP3   OH229842   5.236   5.245  11.309 -0.0942 -0.2283  0.4564
 2784TIP3    H129843   5.198   5.236  11.221 -0.3840 -3.4114  0.8069
 2784TIP3    H229844   5.321   5.203  11.303  0.6447  1.0920  1.3169
 2785TIP3   OH229845   2.452   4.408   4.666  0.2622  0.5487  0.3904
 2785TIP3    H129846   2.473   4.500   4.651  0.5822  0.4846  0.4400
 2785TIP3    H229847   2.356   4.404   4.663  0.2289  0.9654  0.8842
 2786TIP3   OH229848   4.435   2.324  15.969 -0.2179 -0.0479  0.2628
 2786TIP3    H129849   4.366   2.375  16.011  0.5495  0.2213  1.2502
 2786TIP3    H229850   4.413   2.233  15.989 -1.6974 -0.1759 -1.6652
 2787TIP3   OH229851   3.131   2.416  14.295  0.2039  0.0493 -0.6695
 2787TIP3    H129852   3.178   2.349  14.248  0.0601  0.3247 -1.2146
 2787TIP3    H229853   3.096   2.372  14.373  1.6009 -0.0837 -0.0917
 2788TIP3   OH229854   4.451   0.984  15.308  0.1438  0.3854  0.0667
 2788TIP3    H129855   4.439   1.026  15.393 -2.3752 -1.9203  0.9929
 2788TIP3    H229856   4.539   0.945  15.312  0.4861  1.2393  1.1437
 2789TIP3   OH229857   4.482   5.661  11.014 -0.0823 -0.6766  0.3657
 2789TIP3    H129858   4.522   5.586  11.057  0.8371  0.1825  1.0588
 2789TIP3    H229859   4.438   5.709  11.084 -1.3686 -0.9859 -0.2049
 2790TIP3   OH229860   5.674   6.475   2.511 -0.1290 -0.2223  0.4297
 2790TIP3    H129861   5.751   6.427   2.478  0.9581  2.5065 -1.3829
 2790TIP3    H229862   5.642   6.523   2.434 -1.5394  1.3946  1.9526
 2791TIP3   OH229863   2.288   0.068   3.719  0.6956 -0.2099  0.1308
 2791TIP3    H129864   2.284   0.088   3.625  0.8536  0.7928  0.3348
 2791TIP3    H229865   2.244   0.141   3.761  0.7814 -0.5722  0.8562
 2792TIP3   OH229866   3.131   3.521   3.908 -0.7050  0.1224  0.2205
 2792TIP3    H129867   3.075   3.560   3.975 -2.1336 -0.7903 -0.4111
 2792TIP3    H229868   3.094   3.551   3.825 -1.0612 -1.5008 -0.2432
 2793TIP3   OH229869   4.215   4.779   1.463  0.0124  0.2155  0.3870
 2793TIP3    H129870   4.309   4.784   1.480  0.2226 -1.0180 -0.2521
 2793TIP3    H229871   4.175   4.791   1.549  0.6012  3.2050  0.3453
 2794TIP3   OH229872   3.454   6.297  13.422 -0.5645 -0.1153 -0.2450
 2794TIP3    H129873   3.401   6.250  13.359 -0.1830 -0.2614 -0.4630
 2794TIP3    H229874   3.527   6.333  13.370  1.0803 -2.2251  0.4602
 2795TIP3   OH229875   5.634   3.494   4.533  0.4592 -0.2797  0.6465
 2795TIP3    H129876   5.547   3.532   4.528  0.3398 -0.5627  0.5255
 2795TIP3    H229877   5.693   3.562   4.501  0.5752  0.8460  3.0411
 2796TIP3   OH229878   0.755   4.568   0.236  0.2381  0.6867  0.0546
 2796TIP3    H129879   0.770   4.542   0.327 -2.5151  0.9996  0.6968
 2796TIP3    H229880   0.748   4.486   0.188  1.0714  0.5037  0.2333
 2797TIP3   OH229881   4.001   3.171  15.325  0.4311 -0.5102  0.3058
 2797TIP3    H129882   3.973   3.090  15.283 -1.3108  0.8745 -1.3461
 2797TIP3    H229883   3.971   3.241  15.267 -0.0747  1.4323  2.7166
 2798TIP3   OH229884   0.024   4.502  11.776  0.0140 -0.4019  0.4785
 2798TIP3    H129885   0.009   4.411  11.750 -1.0424 -0.3333  0.8193
 2798TIP3    H229886   0.039   4.497  11.870  0.0439 -0.2299  0.4822
 2799TIP3   OH229887   6.597   5.435  14.389 -0.2182 -0.5209  1.3060
 2799TIP3    H129888   6.617   5.484  14.309 -0.7685 -1.0203  0.8541
 2799TIP3    H229889   6.627   5.346  14.371  2.1551 -0.0882  2.6644
 2800TIP3   OH229890   5.179   0.846   2.297  0.7722 -0.0898  0.5771
 2800TIP3    H129891   5.236   0.844   2.374 -0.4006 -1.1430  1.4588
 2800TIP3    H229892   5.091   0.840   2.332  0.1781 -0.1349 -0.8417
 2801TIP3   OH229893   1.079   2.597   1.988  0.0816  0.2974 -0.5043
 2801TIP3    H129894   1.148   2.638   1.936  0.2472  0.8079  0.1141
 2801TIP3    H229895   1.072   2.651   2.066 -0.3189 -0.3418 -0.0892
 2802TIP3   OH229896   2.439   2.655  16.589  0.2105  0.1377 -0.0086
 2802TIP3    H129897   2.512   2.696  16.635  0.2015 -1.4195  1.5041
 2802TIP3    H229898   2.367   2.655  16.652 -1.1242  1.5830 -1.4587
 2803TIP3   OH229899   2.694   1.660   4.379 -0.6361 -0.3261  0.2038
 2803TIP3    H129900   2.746   1.580   4.387 -1.2486 -0.6476  1.2600
 2803TIP3    H229901   2.746   1.727   4.424 -0.7550 -0.4550  0.5350
 2804TIP3   OH229902   4.236   1.390   4.094 -0.1828 -0.6436  0.1433
 2804TIP3    H129903   4.287   1.428   4.165  0.4494  0.4352 -0.8523
 2804TIP3    H229904   4.300   1.338   4.045 -0.7519 -1.9269  0.7105
 2805TIP3   OH229905   4.286   0.995   2.565  0.0740  0.1488 -0.4498
 2805TIP3    H129906   4.257   1.012   2.655 -0.7355 -0.7284 -0.5314
 2805TIP3    H229907   4.321   0.906   2.567  1.0078  0.4915 -0.7931
 2806TIP3   OH229908   3.758   3.676   2.584 -0.0632 -0.6468 -0.1949
 2806TIP3    H129909   3.825   3.648   2.522 -0.8876 -0.4621 -1.1904
 2806TIP3    H229910   3.722   3.594   2.618  1.1864 -0.7575  0.9669
 2807TIP3   OH229911   2.331   4.056   5.036 -0.0856 -0.0442 -0.3274
 2807TIP3    H129912   2.426   4.066   5.026  0.2382 -0.7154  1.5751
 2807TIP3    H229913   2.298   4.146   5.042  0.3053  0.2162 -1.7556
 2808TIP3   OH229914   6.367   2.166   5.775 -0.2459 -0.1262 -0.2982
 2808TIP3    H129915   6.439   2.155   5.837 -0.1008 -0.1241 -0.4647
 2808TIP3    H229916   6.361   2.081   5.730 -1.6857 -0.8237  1.1265
 2809TIP3   OH229917   2.079   1.821   5.909 -0.1152 -0.2333 -0.4847
 2809TIP3    H129918   2.146   1.758   5.883 -2.3204 -2.2950 -1.5424
 2809TIP3    H229919   2.030   1.839   5.830 -0.5723  1.6351  0.1562
 2810TIP3   OH229920   2.816   5.357  11.587 -0.1960  0.2189  0.2395
 2810TIP3    H129921   2.800   5.274  11.541 -0.3866  0.4780 -0.1701
 2810TIP3    H229922   2.876   5.334  11.657  1.8155  0.1888 -1.4011
 2811TIP3   OH229923   4.702   2.205   5.006  0.8570  0.0858  0.3072
 2811TIP3    H129924   4.642   2.141   4.968  0.1187  0.5730  0.6505
 2811TIP3    H229925   4.768   2.219   4.937  1.7044 -1.8885  0.6367
 2812TIP3   OH229926   1.131   5.834  11.384  0.1599  0.0375 -0.1132
 2812TIP3    H129927   1.131   5.823  11.479  0.0873 -0.2090 -0.1417
 2812TIP3    H229928   1.048   5.797  11.355  0.2183  0.0346 -0.2824
 2813TIP3   OH229929   4.526   1.240   4.616 -0.6692  0.2410 -0.1239
 2813TIP3    H129930   4.535   1.173   4.684 -0.2877 -1.2441 -1.5751
 2813TIP3    H229931   4.609   1.236   4.568  0.0275  2.8738  0.6640
 2814TIP3   OH229932   1.584   6.105   2.227 -0.4412 -0.0975  0.0939
 2814TIP3    H129933   1.490   6.119   2.236 -0.5128 -0.6660  0.2754
 2814TIP3    H229934   1.592   6.017   2.191  0.0082  0.1911 -0.5308
 2815TIP3   OH229935   6.097   0.881   2.464 -0.5705  0.1603 -0.6684
 2815TIP3    H129936   6.191   0.866   2.464 -0.8339 -1.7829  0.8320
 2815TIP3    H229937   6.060   0.806   2.416 -1.4055  0.5448 -0.6548
 2816TIP3   OH229938   5.928   3.557  11.389  0.0148  0.6979  0.5377
 2816TIP3    H129939   5.968   3.560  11.476  1.9135  0.2086 -0.2574
 2816TIP3    H229940   5.976   3.488  11.344  0.3283  2.1658 -1.4885
 2817TIP3   OH229941   5.608   3.668  16.709 -0.7009 -0.0940 -0.3739
 2817TIP3    H129942   5.657   3.616  16.645  1.2943  2.0691 -0.7231
 2817TIP3    H229943   5.669   3.677  16.783 -1.4597  0.7846  0.1601
 2818TIP3   OH229944   3.535   0.847  13.788  0.0971  0.3978  0.2437
 2818TIP3    H129945   3.492   0.808  13.865  0.4220 -1.0265 -0.2733
 2818TIP3    H229946   3.534   0.941  13.806 -0.7615  0.1783  1.5147
 2819TIP3   OH229947   1.819   3.938  13.302  0.0240  0.0678 -0.1612
 2819TIP3    H129948   1.877   3.864  13.320  2.4560  1.8762 -0.1018
 2819TIP3    H229949   1.734   3.911  13.338  1.2202 -2.0380  1.3115
 2820TIP3   OH229950   4.213   1.324  13.253 -0.1538  0.0728  0.3892
 2820TIP3    H129951   4.305   1.333  13.276  0.0920 -1.3045  0.0109
 2820TIP3    H229952   4.200   1.385  13.180  0.8316 -0.7895 -0.5397
 2821TIP3   OH229953   0.413   6.147   4.709  0.0980  0.2337 -0.1731
 2821TIP3    H129954   0.325   6.163   4.675 -0.1116 -2.2517 -1.0578
 2821TIP3    H229955   0.407   6.163   4.803 -1.9651 -2.0135  0.1672
 2822TIP3   OH229956   5.120   2.659   4.928 -0.1395 -0.6083 -0.1605
 2822TIP3    H129957   5.143   2.717   5.001  0.0194  1.6078 -1.8696
 2822TIP3    H229958   5.025   2.651   4.934  0.0160 -1.8459  1.2338
 2823TIP3   OH229959   3.292   5.391   4.034 -0.0805  0.3567  0.1126
 2823TIP3    H129960   3.325   5.480   4.030  0.0293  0.3618  1.0309
 2823TIP3    H229961   3.327   5.349   3.955 -1.6176  1.5975 -1.3150
 2824TIP3   OH229962   1.591   6.632   4.562  0.3800 -0.0999  0.0070
 2824TIP3    H129963   1.498   6.610   4.564  0.4852 -0.5081  1.0611
 2824TIP3    H229964   1.595   6.723   4.592  0.3696 -0.2518  0.4637
 2825TIP3   OH229965   1.273   1.345  13.864 -1.0100  0.6557  0.1416
 2825TIP3    H129966   1.350   1.295  13.894 -0.7592  1.6862  1.3141
 2825TIP3    H229967   1.204   1.279  13.857  0.1370 -0.4587 -1.7661
 2826TIP3   OH229968   3.306   3.859  15.968  0.1554  0.3004 -0.3888
 2826TIP3    H129969   3.302   3.825  16.058 -1.8277 -0.0334 -0.5739
 2826TIP3    H229970   3.395   3.896  15.961  0.5599 -0.2016  1.4977
 2827TIP3   OH229971   6.429   2.181  11.415 -0.0869  0.0581  0.2240
 2827TIP3    H129972   6.377   2.261  11.408 -1.4269 -0.9026 -1.6584
 2827TIP3    H229973   6.368   2.116  11.452  1.3179  0.1238  2.8647
 2828TIP3   OH229974   1.531   6.240   0.107 -0.4076 -0.4112 -0.1901
 2828TIP3    H129975   1.545   6.234   0.013  1.6849  1.9677 -0.1420
 2828TIP3    H229976   1.569   6.160   0.143  0.9957 -0.2320 -1.2145
 2829TIP3   OH229977   6.286   6.684   2.772  0.0642 -0.2457  0.0326
 2829TIP3    H129978   6.380   6.669   2.781 -0.1256 -1.2891  0.3951
 2829TIP3    H229979   6.279   6.761   2.716  1.1613  1.3314  1.9365
 2830TIP3   OH229980   3.694   0.448   3.819 -0.3433  0.3495 -0.0672
 2830TIP3    H129981   3.608   0.487   3.802 -0.1212  0.6205 -0.5976
 2830TIP3    H229982   3.676   0.356   3.836 -0.5688 -0.0445 -2.1670
 2831TIP3   OH229983   3.006   4.104  16.921  0.4655 -0.5179  0.2127
 2831TIP3    H129984   2.934   4.159  16.890 -0.0307 -0.3349  1.5965
 2831TIP3    H229985   2.962   4.035  16.971  1.2449 -0.4832  0.9576
 2832TIP3   OH229986   2.232   1.761   2.471  0.3975  0.4425  0.4461
 2832TIP3    H129987   2.234   1.701   2.546  0.3039  1.9022  1.6623
 2832TIP3    H229988   2.324   1.775   2.450  0.4273  0.1002  0.3359
 2833TIP3   OH229989   2.294   2.713   1.162  0.7599 -0.3591 -0.1340
 2833TIP3    H129990   2.384   2.702   1.193  0.2474  0.6854  1.9105
 2833TIP3    H229991   2.288   2.804   1.136  0.3599 -0.4959 -0.5333
 2834TIP3   OH229992   3.738   5.842   3.378 -0.0422  0.1208 -0.1913
 2834TIP3    H129993   3.832   5.835   3.394 -0.1985 -1.2701  0.3237
 2834TIP3    H229994   3.731   5.870   3.287  0.8568  1.8128  0.2123
 2835TIP3   OH229995   4.903   4.784   4.191  0.0849 -0.1830  0.0557
 2835TIP3    H129996   4.852   4.792   4.272 -0.0039 -0.2915  0.0122
 2835TIP3    H229997   4.905   4.872   4.154  0.2457 -0.1064  0.2481
 2836TIP3   OH229998   2.106   4.133   6.126 -0.0363  0.8461  0.1417
 2836TIP3    H129999   2.030   4.191   6.116 -0.5820  0.1719  0.3577
 2836TIP3    H230000   2.173   4.173   6.070 -1.2425  0.2494 -1.8393
 2837TIP3   OH230001   1.533   3.769   1.013  0.2418 -0.1401 -0.5729
 2837TIP3    H130002   1.508   3.741   0.925 -0.2318 -0.6776 -0.2753
 2837TIP3    H230003   1.629   3.777   1.010  0.2317 -0.2231 -1.1175
 2838TIP3   OH230004   5.011   2.240   4.392 -0.2090  0.3074  0.1450
 2838TIP3    H130005   4.991   2.228   4.485 -1.1088  0.3014 -0.0344
 2838TIP3    H230006   5.042   2.330   4.386 -0.1295  0.3032  0.4574
 2839TIP3   OH230007   6.798   3.777  12.323  0.5319 -0.3181 -0.2837
 2839TIP3    H130008   6.810   3.701  12.265  1.7183 -0.1891 -0.2306
 2839TIP3    H230009   6.707   3.770  12.353 -0.9580  0.8489 -3.9604
 2840TIP3   OH230010   3.042   4.026   5.309  0.3747 -0.0271 -0.0563
 2840TIP3    H130011   2.982   4.023   5.234  0.3507 -0.0058 -0.0378
 2840TIP3    H230012   3.008   4.096   5.364  1.5560  1.3463 -1.0073
 2841TIP3   OH230013   5.156   6.518   4.929 -0.5433  0.0702 -0.5590
 2841TIP3    H130014   5.082   6.578   4.928 -0.3873  0.2817  0.0695
 2841TIP3    H230015   5.226   6.566   4.973  0.1415  0.0605 -1.6150
 2842TIP3   OH230016   1.194   2.156  13.213  0.4990 -0.2686 -0.2468
 2842TIP3    H130017   1.188   2.225  13.147  2.4823 -0.4289 -0.6850
 2842TIP3    H230018   1.289   2.143  13.224  0.2154 -0.6247  2.2531
 2843TIP3   OH230019   2.169   6.157   4.492  0.2222 -0.0383  0.2174
 2843TIP3    H130020   2.183   6.252   4.494 -2.6567  0.5913 -2.6208
 2843TIP3    H230021   2.111   6.140   4.566 -1.5005  0.9548 -0.8550
 2844TIP3   OH230022   1.149   0.455  14.915 -0.1193  0.0956  0.2273
 2844TIP3    H130023   1.240   0.486  14.921 -0.4707  1.4040 -0.7878
 2844TIP3    H230024   1.112   0.475  15.001  0.1572  0.9288  0.1639
 2845TIP3   OH230025   2.346   1.444   2.325 -0.2311 -0.0279  0.2037
 2845TIP3    H130026   2.426   1.400   2.296  0.0780  1.2122 -0.9492
 2845TIP3    H230027   2.364   1.468   2.416  0.9986  0.7986 -0.2208
 2846TIP3   OH230028   5.066   0.546  14.209 -0.0966  0.0599 -0.5180
 2846TIP3    H130029   5.141   0.575  14.261 -0.8779  0.5609  0.3688
 2846TIP3    H230030   5.066   0.603  14.132  0.1194  0.4100 -0.2596
 2847TIP3   OH230031   3.383   5.467  14.998 -0.6345 -0.4946  0.1926
 2847TIP3    H130032   3.365   5.558  14.975 -1.2451 -0.6068  0.2157
 2847TIP3    H230033   3.410   5.426  14.916  4.1888  0.7096  0.8272
 2848TIP3   OH230034   2.349   4.548  14.781  0.6129 -0.3385  0.2034
 2848TIP3    H130035   2.269   4.591  14.752  1.0041  0.6316  0.5309
 2848TIP3    H230036   2.419   4.594  14.736  0.9904 -1.2824 -0.1997
 2849TIP3   OH230037   0.442   3.698   4.477 -0.1295  0.7262  0.3718
 2849TIP3    H130038   0.509   3.679   4.412  0.1642 -0.1401  0.9098
 2849TIP3    H230039   0.388   3.766   4.437  0.3043  0.5184 -0.5923
 2850TIP3   OH230040   1.325   1.969  13.682  0.0573 -0.2391 -0.0027
 2850TIP3    H130041   1.372   1.949  13.764 -1.2439  0.3728  0.9283
 2850TIP3    H230042   1.302   2.062  13.690 -0.8875 -0.4073 -0.6537
 2851TIP3   OH230043   5.347   1.806  15.659 -0.3111  0.1013  0.1872
 2851TIP3    H130044   5.400   1.858  15.598 -0.7802  1.0573  0.5749
 2851TIP3    H230045   5.337   1.721  15.616  2.2331 -0.4153  0.4592
 2852TIP3   OH230046   4.608   2.419  15.553 -0.4448  0.0916 -0.6501
 2852TIP3    H130047   4.539   2.360  15.582  0.8593 -0.4455  1.6042
 2852TIP3    H230048   4.576   2.506  15.574 -0.6523 -0.1124 -0.1107
 2853TIP3   OH230049   2.236   0.446   5.714  0.2038 -0.6304  0.5300
 2853TIP3    H130050   2.220   0.462   5.807 -0.8617 -2.4705  0.7151
 2853TIP3    H230051   2.240   0.533   5.675  1.1379  0.1892  2.3529
 2854TIP3   OH230052   5.786   0.586  16.039  0.4338 -0.6362 -0.8881
 2854TIP3    H130053   5.815   0.507  15.993  0.9474 -0.5764 -0.6760
 2854TIP3    H230054   5.736   0.553  16.114  0.3320 -0.7542 -1.0086
 2855TIP3   OH230055   4.995   3.619   5.633  0.0743 -0.1358 -0.2490
 2855TIP3    H130056   5.083   3.606   5.668 -0.7043 -0.8024  1.5892
 2855TIP3    H230057   4.992   3.712   5.610  1.9282 -0.5388 -2.4504
 2856TIP3   OH230058   0.871   5.716  11.855  0.4161  0.1313  0.7416
 2856TIP3    H130059   0.778   5.729  11.877 -0.2321 -1.7058 -0.6952
 2856TIP3    H230060   0.907   5.669  11.930  0.5969  2.0557  1.9391
 2857TIP3   OH230061   1.251   3.690  13.086 -0.4941  0.2237  0.3542
 2857TIP3    H130062   1.305   3.661  13.160 -0.3225 -0.6756 -0.1115
 2857TIP3    H230063   1.205   3.768  13.119  1.6493  1.5062  0.5280
 2858TIP3   OH230064   6.317   4.350   0.386 -0.4172 -0.4592  0.2202
 2858TIP3    H130065   6.293   4.295   0.311 -0.2960 -1.6823  1.0513
 2858TIP3    H230066   6.299   4.295   0.462  0.7627  0.2503  1.0299
 2859TIP3   OH230067   3.794   6.315  15.166  0.1738 -0.2421  0.1661
 2859TIP3    H130068   3.728   6.246  15.163 -1.1244  0.9580 -0.0242
 2859TIP3    H230069   3.770   6.369  15.241 -0.2105  1.2794 -0.9905
 2860TIP3   OH230070   3.260   5.764  14.270 -0.2400  0.2502 -0.0505
 2860TIP3    H130071   3.301   5.702  14.331  0.6944  0.7801 -0.1280
 2860TIP3    H230072   3.195   5.711  14.223  0.8773 -0.8070 -0.4703
 2861TIP3   OH230073   3.339   2.151  15.879  0.1681 -0.5711 -0.0519
 2861TIP3    H130074   3.249   2.136  15.908  0.6530  0.8112  2.4092
 2861TIP3    H230075   3.377   2.063  15.875 -1.0601 -1.1192 -0.4339
 2862TIP3   OH230076   2.548   0.697   1.646  0.3368  0.3227  0.3491
 2862TIP3    H130077   2.630   0.685   1.600  0.1067  0.7926 -0.1963
 2862TIP3    H230078   2.506   0.611   1.645 -0.0331  0.4985 -1.0466
 2863TIP3   OH230079   6.533   0.182  12.324  0.1262  0.8365 -0.5639
 2863TIP3    H130080   6.592   0.207  12.254 -0.0938 -0.1699 -1.1287
 2863TIP3    H230081   6.527   0.260  12.379  1.4611  1.1718 -0.8417
 2864TIP3   OH230082   0.605   1.068  11.718 -0.1416  0.0802 -0.4969
 2864TIP3    H130083   0.700   1.065  11.708  0.1090  1.6385  0.9597
 2864TIP3    H230084   0.572   1.007  11.652  1.8876 -1.0740 -0.5248
 2865TIP3   OH230085   6.300   1.373   0.440  0.3116  0.0709  0.6310
 2865TIP3    H130086   6.378   1.428   0.451 -0.5074  1.0808  1.6726
 2865TIP3    H230087   6.294   1.359   0.346  2.9593 -1.8923  0.6426
 2866TIP3   OH230088   0.871   3.338  11.480 -0.7722 -0.1804  0.2141
 2866TIP3    H130089   0.955   3.364  11.519 -0.7694  0.3258 -0.1175
 2866TIP3    H230090   0.817   3.417  11.486 -0.3382  0.3439 -1.9790
 2867TIP3   OH230091   0.997   3.705   4.351 -0.5224  0.3049 -0.0409
 2867TIP3    H130092   0.907   3.686   4.325 -0.8659 -0.2380  1.4575
 2867TIP3    H230093   1.051   3.662   4.284 -1.3253  2.2385 -2.0522
 2868TIP3   OH230094   6.496   0.928   0.854 -0.3803  0.2086  0.5121
 2868TIP3    H130095   6.550   0.923   0.775 -1.6939  2.7698 -0.6425
 2868TIP3    H230096   6.550   0.973   0.918  0.4653 -1.3440  0.9503
 2869TIP3   OH230097   4.266   1.260   5.564  0.3281  0.4223  0.1049
 2869TIP3    H130098   4.172   1.250   5.553  0.4429 -1.1709  0.2820
 2869TIP3    H230099   4.284   1.351   5.540 -0.9819  0.2354 -1.8389
 2870TIP3   OH230100   6.227   1.867  13.943  0.2203  0.4739 -0.0398
 2870TIP3    H130101   6.154   1.829  13.894  0.0450  0.9891 -0.1814
 2870TIP3    H230102   6.287   1.899  13.876 -0.5578  2.2202  0.0542
 2871TIP3   OH230103   3.636   5.766  16.682 -0.2667  0.4025  0.6499
 2871TIP3    H130104   3.627   5.855  16.650  0.0307  0.2940  0.2536
 2871TIP3    H230105   3.729   5.744  16.667 -0.5384 -0.2918 -0.1189
 2872TIP3   OH230106   4.270   3.822  16.739 -0.5063  0.1360  0.6599
 2872TIP3    H130107   4.175   3.825  16.734 -0.4528  3.3148 -3.4573
 2872TIP3    H230108   4.297   3.913  16.745  2.3211 -0.6164  0.7691
 2873TIP3   OH230109   3.988   3.668  15.754  0.0667  0.1785  0.1206
 2873TIP3    H130110   4.019   3.716  15.831 -1.5870  1.7507 -0.1270
 2873TIP3    H230111   3.928   3.602  15.790 -0.0146  0.3203  0.2475
 2874TIP3   OH230112   5.702   3.453  17.284 -0.2456 -0.1135 -0.0737
 2874TIP3    H130113   5.656   3.379  17.322  0.4394 -0.4042  0.2081
 2874TIP3    H230114   5.763   3.414  17.222 -0.7495  0.3045 -0.8481
 2875TIP3   OH230115   4.847   3.631  12.883 -0.1809  0.1612  0.1009
 2875TIP3    H130116   4.786   3.700  12.857  1.1075  1.2563 -0.1586
 2875TIP3    H230117   4.794   3.570  12.935 -2.1862 -0.5605 -2.5675
 2876TIP3   OH230118   5.693   1.379   1.053 -0.0350 -0.3338  0.2888
 2876TIP3    H130119   5.689   1.472   1.032 -2.7048 -0.2071  1.0569
 2876TIP3    H230120   5.661   1.335   0.974  2.5371 -0.7821 -0.6067
 2877TIP3   OH230121   1.135   2.648   2.433  0.4172 -0.4977 -0.4217
 2877TIP3    H130122   1.139   2.638   2.528 -0.9600  1.5519 -0.0790
 2877TIP3    H230123   1.157   2.740   2.417 -1.2681 -0.2809 -1.8841
 2878TIP3   OH230124   3.120   4.230  15.436  0.3899 -0.8595 -0.0040
 2878TIP3    H130125   3.122   4.145  15.393  0.8354 -1.2419  0.7639
 2878TIP3    H230126   3.212   4.256  15.443  0.2059  0.2122 -1.2453
 2879TIP3   OH230127   3.446   5.567   6.444 -0.1896  0.4184 -0.0008
 2879TIP3    H130128   3.486   5.631   6.385  1.8671 -1.8886 -1.2736
 2879TIP3    H230129   3.512   5.551   6.511 -0.1442 -1.2698 -0.4183
 2880TIP3   OH230130   2.280   2.993   1.076 -0.2429 -0.2136  0.4725
 2880TIP3    H130131   2.210   3.054   1.098  0.5064 -0.0486  2.5108
 2880TIP3    H230132   2.307   3.018   0.987 -2.1064  0.3092  0.0111
 2881TIP3   OH230133   0.771   1.527  15.222 -0.5562  0.8461 -0.3443
 2881TIP3    H130134   0.730   1.490  15.144  1.3936 -0.2307 -0.9176
 2881TIP3    H230135   0.855   1.481  15.230 -0.4288  1.3343  2.0596
 2882TIP3   OH230136   1.201   1.952   5.967  0.9682  0.5075 -0.2489
 2882TIP3    H130137   1.122   1.920   6.009  0.7027  0.6092 -0.6653
 2882TIP3    H230138   1.182   2.044   5.947  0.9386  0.3575 -0.9424
 2883TIP3   OH230139   3.107   6.162  16.473 -0.0120 -0.2489  0.0960
 2883TIP3    H130140   3.117   6.116  16.557  1.2489  2.1369  1.3582
 2883TIP3    H230141   3.193   6.202  16.457 -1.0567  1.7838 -0.7912
 2884TIP3   OH230142   5.637   0.609  14.327 -0.0210  0.2541 -0.1975
 2884TIP3    H130143   5.607   0.672  14.262  1.1243  0.3872 -0.6180
 2884TIP3    H230144   5.559   0.591  14.380 -0.1743  2.7850  0.5912
 2885TIP3   OH230145   3.470   5.586   5.432  0.3649  0.2781 -0.5083
 2885TIP3    H130146   3.492   5.524   5.502 -1.1644  1.7072  1.3275
 2885TIP3    H230147   3.436   5.530   5.362  1.4744 -1.1667  0.0486
 2886TIP3   OH230148   3.606   1.260  13.482 -0.0669 -0.5491 -0.1807
 2886TIP3    H130149   3.520   1.296  13.504  0.3140  0.6741 -0.6197
 2886TIP3    H230150   3.666   1.299  13.546  0.7194  1.4925 -2.0395
 2887TIP3   OH230151   6.407   2.183  12.087 -0.0413  0.0751  0.3948
 2887TIP3    H130152   6.344   2.112  12.071 -1.1465  1.4292 -1.7847
 2887TIP3    H230153   6.491   2.148  12.057 -0.3471 -0.6718  0.3779
 2888TIP3   OH230154   2.607   3.888  16.495 -0.7049  0.1904 -0.0326
 2888TIP3    H130155   2.514   3.886  16.517 -1.3644  0.8775 -2.4407
 2888TIP3    H230156   2.639   3.801  16.516 -1.8260  0.0106  1.0125
 2889TIP3   OH230157   3.967   1.282  12.642 -0.5848 -0.0523  0.1676
 2889TIP3    H130158   3.978   1.211  12.579  0.5861 -1.2624  1.6168
 2889TIP3    H230159   3.999   1.360  12.597 -0.6975 -0.6843 -1.0473
 2890TIP3   OH230160   2.030   4.609  15.652 -0.2656  0.1416 -0.2103
 2890TIP3    H130161   1.998   4.686  15.698  0.0327  0.5622 -0.6896
 2890TIP3    H230162   2.105   4.641  15.601 -0.7694 -0.2337 -1.2237
 2891TIP3   OH230163   6.524   6.639  16.826  0.0009 -0.0552 -0.1870
 2891TIP3    H130164   6.531   6.731  16.851 -2.1390  0.5096 -1.4115
 2891TIP3    H230165   6.553   6.637  16.734  0.2716 -0.6638 -0.0953
 2892TIP3   OH230166   1.304   0.432   5.090 -0.2015  0.2661 -0.0936
 2892TIP3    H130167   1.315   0.454   5.183  0.9590 -1.2632  0.1703
 2892TIP3    H230168   1.246   0.356   5.091  0.7516 -0.4808 -0.5199
 2893TIP3   OH230169   0.022   6.129  15.941 -0.3527 -0.0318 -0.3458
 2893TIP3    H130170  -0.036   6.156  15.870 -0.4310 -0.7805 -0.5731
 2893TIP3    H230171   0.052   6.211  15.979  0.1362  0.4123 -1.6116
 2894TIP3   OH230172   4.578   1.961   6.447 -0.1446  0.2373  0.3964
 2894TIP3    H130173   4.594   2.054   6.430  2.0201  0.4307  2.8624
 2894TIP3    H230174   4.635   1.916   6.385 -1.0009  0.5024 -0.6247
 2895TIP3   OH230175   5.879   5.645   2.210  0.3049 -0.9541 -0.1537
 2895TIP3    H130176   5.872   5.572   2.272 -0.0163 -0.1779  0.7555
 2895TIP3    H230177   5.933   5.611   2.139  1.1959 -1.6885  0.8367
 2896TIP3   OH230178   2.256   5.029  13.248 -0.0957 -0.0929 -0.5470
 2896TIP3    H130179   2.191   4.977  13.294  0.0366  0.5400  0.3897
 2896TIP3    H230180   2.340   4.992  13.275  0.0013  0.6197  0.1690
 2897TIP3   OH230181   3.382   0.644  16.117  0.5167 -0.0709  0.7934
 2897TIP3    H130182   3.374   0.691  16.034  2.0637  1.2083  1.3275
 2897TIP3    H230183   3.333   0.698  16.179  2.7204  1.2393  1.5180
 2898TIP3   OH230184   5.686   5.416  12.927  0.2376  0.7245  0.3188
 2898TIP3    H130185   5.648   5.501  12.948  0.3307  0.7061  0.5747
 2898TIP3    H230186   5.630   5.353  12.973  0.1188  0.6435  0.0598
 2899TIP3   OH230187   4.158   4.637  12.484 -0.1016  0.2138 -0.1879
 2899TIP3    H130188   4.236   4.682  12.515  0.7066 -0.0721 -1.7030
 2899TIP3    H230189   4.142   4.567  12.548  0.5197  0.6562  0.4532
 2900TIP3   OH230190   1.199   0.977  15.394 -0.3287 -0.1661 -0.0230
 2900TIP3    H130191   1.140   1.010  15.461 -0.3633  1.0031 -0.6058
 2900TIP3    H230192   1.224   1.054  15.343 -1.0388 -1.1210 -1.9539
 2901TIP3   OH230193   1.827   1.111  16.791  0.4690 -0.3467  0.0463
 2901TIP3    H130194   1.871   1.039  16.837 -3.1353 -3.2976 -0.6412
 2901TIP3    H230195   1.801   1.171  16.861 -0.0296 -1.8866  1.2440
 2902TIP3   OH230196   4.387   6.151   4.294  0.3822 -0.2076 -0.6167
 2902TIP3    H130197   4.359   6.065   4.262  0.1137 -0.6100  0.6150
 2902TIP3    H230198   4.305   6.199   4.306 -0.0147 -1.4209  3.1000
 2903TIP3   OH230199   3.023   0.741  11.255  0.0713  0.3245 -0.6553
 2903TIP3    H130200   2.978   0.658  11.266 -0.3811  0.7788  1.1262
 2903TIP3    H230201   3.049   0.742  11.163  1.0678 -2.2803 -0.4874
 2904TIP3   OH230202   4.973   5.132  13.634 -0.2528  0.3970  1.0100
 2904TIP3    H130203   5.067   5.113  13.625 -0.6405 -0.8015 -1.5896
 2904TIP3    H230204   4.938   5.059  13.685 -0.1026 -0.5275 -0.1539
 2905TIP3   OH230205   3.860   2.013   1.772 -0.4680 -0.4223  0.1970
 2905TIP3    H130206   3.916   2.035   1.698  1.5254 -1.1657  1.3935
 2905TIP3    H230207   3.797   1.950   1.736 -1.2626  1.1982 -1.4161
 2906TIP3   OH230208   2.119   3.308   0.892  0.3350  0.2486 -0.4820
 2906TIP3    H130209   2.167   3.323   0.811 -2.2173  1.0042 -1.9649
 2906TIP3    H230210   2.178   3.339   0.961  1.4882  2.2819 -2.2469
 2907TIP3   OH230211   0.553   3.972  16.199 -0.6247  0.8955 -0.7435
 2907TIP3    H130212   0.636   3.940  16.234 -0.1898  1.8677 -0.8535
 2907TIP3    H230213   0.499   3.893  16.187 -1.0945  0.5282  2.8052
 2908TIP3   OH230214   6.161   0.665   0.504  0.5330 -0.0668  0.2441
 2908TIP3    H130215   6.164   0.742   0.560  1.1906 -0.1317  0.3045
 2908TIP3    H230216   6.251   0.632   0.503  1.4248  1.8362 -3.4495
 2909TIP3   OH230217   0.440   3.747  16.911  0.4538 -0.4723  0.5978
 2909TIP3    H130218   0.525   3.789  16.899  0.5054 -0.1689  1.8603
 2909TIP3    H230219   0.377   3.817  16.891  0.4957 -0.5886  0.0360
 2910TIP3   OH230220   3.551   6.689  11.837  0.2448  0.4243 -0.3794
 2910TIP3    H130221   3.457   6.672  11.839  0.2418  0.4908  0.5369
 2910TIP3    H230222   3.580   6.655  11.753 -0.4226 -0.5361 -0.2340
 2911TIP3   OH230223   2.946   2.552   3.294 -0.7516 -0.2135 -0.4079
 2911TIP3    H130224   2.946   2.644   3.271 -0.2543 -0.0597  0.1716
 2911TIP3    H230225   2.909   2.549   3.382  2.6881 -0.0840  1.2084
 2912TIP3   OH230226   1.275   4.159   5.581 -0.2718 -0.1259  0.2413
 2912TIP3    H130227   1.324   4.088   5.540 -0.4623 -0.4324  0.5421
 2912TIP3    H230228   1.313   4.238   5.544  0.6980 -0.3443  0.7376
 2913TIP3   OH230229   2.808   1.736  13.686  0.0072 -0.1110  0.6906
 2913TIP3    H130230   2.781   1.756  13.776 -0.6504 -0.0326  0.4800
 2913TIP3    H230231   2.886   1.681  13.696  0.0332  0.0292  1.3062
 2914TIP3   OH230232   6.508   6.108   3.333  0.0791 -0.0835  0.0340
 2914TIP3    H130233   6.493   6.014   3.344 -1.0493  0.2679  1.8876
 2914TIP3    H230234   6.602   6.116   3.321  0.2094 -1.4286  0.0011
 2915TIP3   OH230235   3.816   2.151   2.548  0.0271 -0.7804 -0.0603
 2915TIP3    H130236   3.871   2.228   2.537 -2.0000  1.2361  2.5804
 2915TIP3    H230237   3.738   2.168   2.495  0.9407 -2.6970 -2.1906
 2916TIP3   OH230238   5.335   2.134  14.057  0.0796  0.2360  0.2092
 2916TIP3    H130239   5.369   2.185  13.983 -0.6466  0.9349  0.3333
 2916TIP3    H230240   5.261   2.087  14.021 -0.7284  1.1421  0.6359
 2917TIP3   OH230241   3.463   5.540  15.263 -0.5738  0.6071  0.4207
 2917TIP3    H130242   3.433   5.533  15.173 -1.6588 -0.2152  0.8286
 2917TIP3    H230243   3.558   5.555  15.256 -0.6279  0.4320 -0.8382
 2918TIP3   OH230244   3.103   2.333  12.242  0.1795 -0.3284  0.2066
 2918TIP3    H130245   3.088   2.257  12.185 -1.3826  0.1498 -0.0737
 2918TIP3    H230246   3.159   2.391  12.191 -0.6298 -0.2186 -0.5839
 2919TIP3   OH230247   1.116   2.996  11.408 -0.2040 -0.3536 -0.5267
 2919TIP3    H130248   1.118   2.910  11.451 -0.0161 -0.3961 -0.6183
 2919TIP3    H230249   1.150   2.979  11.320  2.0366  0.2201  0.1737
 2920TIP3   OH230250   6.479   1.388  16.049 -0.2670  0.1867  0.2598
 2920TIP3    H130251   6.542   1.336  16.098  1.1279  2.6637  1.3008
 2920TIP3    H230252   6.523   1.409  15.967  0.1847  1.5756  0.8158
 2921TIP3   OH230253   4.562   0.249   3.744 -0.2726  0.5843 -0.3169
 2921TIP3    H130254   4.467   0.259   3.733 -0.0885  0.3940 -2.3010
 2921TIP3    H230255   4.584   0.309   3.815 -1.5204  2.4747 -1.4314
 2922TIP3   OH230256   1.014   5.131   4.084  0.0957 -0.5580  0.5333
 2922TIP3    H130257   1.010   5.036   4.097  1.1238 -0.6952  0.0265
 2922TIP3    H230258   1.108   5.150   4.083 -0.0450  0.1896 -1.2166
 2923TIP3   OH230259   0.591   1.148  13.898  0.6139 -0.1175 -0.1326
 2923TIP3    H130260   0.653   1.095  13.847  0.2116 -0.3758 -0.3591
 2923TIP3    H230261   0.562   1.216  13.837  2.5733  1.5777  0.6998
 2924TIP3   OH230262   5.878   1.819   5.336 -0.2619  0.1467  0.1240
 2924TIP3    H130263   5.931   1.740   5.325  0.7724  0.4229  2.6019
 2924TIP3    H230264   5.933   1.879   5.386 -2.1071  1.2992  0.8952
 2925TIP3   OH230265   1.795   0.559   5.033 -0.4617  0.6442  0.2560
 2925TIP3    H130266   1.707   0.575   4.998 -0.2162  1.6552  0.0688
 2925TIP3    H230267   1.786   0.574   5.127 -0.4379  0.9684  0.2062
 2926TIP3   OH230268   0.985   4.376   2.659 -0.1906  0.2746  0.5867
 2926TIP3    H130269   1.070   4.411   2.687  0.3678  0.1470 -0.8439
 2926TIP3    H230270   0.999   4.350   2.568 -1.6921 -0.0289  0.4172
 2927TIP3   OH230271   4.274   3.900  15.823  0.5874 -0.2747  0.5121
 2927TIP3    H130272   4.353   3.866  15.782  0.4690  0.8499 -0.7091
 2927TIP3    H230273   4.282   3.996  15.816 -0.1699 -0.0951  1.7368
 2928TIP3   OH230274   6.114   0.276   0.440 -0.1112 -0.1542  0.5131
 2928TIP3    H130275   6.023   0.295   0.416 -0.2087  2.1102  2.3834
 2928TIP3    H230276   6.107   0.221   0.518  0.2180 -2.9333 -1.2717
 2929TIP3   OH230277   3.136   4.438   3.168 -0.1906 -0.6231 -0.3376
 2929TIP3    H130278   3.048   4.476   3.176 -0.3062 -0.7792 -0.8205
 2929TIP3    H230279   3.188   4.505   3.125 -0.0820 -0.5460 -0.0878
 2930TIP3   OH230280   0.474   2.060   3.308 -0.1804  0.5029  0.2532
 2930TIP3    H130281   0.550   2.075   3.364  0.6272 -0.6047 -0.5143
 2930TIP3    H230282   0.510   2.037   3.222 -1.3796  0.2521 -0.2167
 2931TIP3   OH230283   5.635   4.649  12.240 -0.7442 -0.0787  0.8665
 2931TIP3    H130284   5.592   4.613  12.318 -1.0083 -1.1888  0.2275
 2931TIP3    H230285   5.565   4.659  12.176 -0.3249 -0.3587  0.3552
 2932TIP3   OH230286   2.329   6.348   4.871  0.1923 -0.1856  0.2639
 2932TIP3    H130287   2.376   6.386   4.945 -1.9233 -0.6723  1.9604
 2932TIP3    H230288   2.263   6.413   4.847  1.2930  0.2775 -1.7404
 2933TIP3   OH230289   5.015   2.988  13.935 -0.4279 -0.3681 -0.6246
 2933TIP3    H130290   5.041   3.080  13.943  0.9655 -0.7094 -0.8438
 2933TIP3    H230291   5.076   2.952  13.871 -1.3199 -1.3254 -0.9673
 2934TIP3   OH230292   2.708   3.449   4.232 -0.0116 -0.0422 -0.2088
 2934TIP3    H130293   2.750   3.410   4.308 -0.9687 -0.9480 -0.1148
 2934TIP3    H230294   2.620   3.471   4.262 -0.0158  0.6944 -0.7312
 2935TIP3   OH230295   5.824   4.917   5.556 -0.0661  0.1718  0.3156
 2935TIP3    H130296   5.880   4.982   5.512  0.8092 -0.3393  0.6380
 2935TIP3    H230297   5.736   4.935   5.524  0.4686  0.1473 -1.2535
 2936TIP3   OH230298   1.748   3.282   4.020 -0.0227 -0.4425  0.4962
 2936TIP3    H130299   1.728   3.206   3.966 -1.7093  0.1106  0.2798
 2936TIP3    H230300   1.700   3.267   4.102  0.2366  0.0290  0.7420
 2937TIP3   OH230301   0.851   3.058   5.329 -0.2281  0.2192  0.6223
 2937TIP3    H130302   0.837   3.029   5.419 -1.7889 -0.9975  0.0377
 2937TIP3    H230303   0.881   3.149   5.337 -1.8293  0.6631  2.3517
 2938TIP3   OH230304   2.057   5.565  14.649  0.5298 -0.0688  0.2916
 2938TIP3    H130305   2.141   5.610  14.661  1.0536 -1.1626  0.8602
 2938TIP3    H230306   2.057   5.496  14.716 -0.8074 -0.1199  0.2688
 2939TIP3   OH230307   1.465   6.367  11.902 -0.4040 -0.0359 -0.1605
 2939TIP3    H130308   1.451   6.369  11.997 -0.9447 -0.4628 -0.2273
 2939TIP3    H230309   1.491   6.277  11.884  2.6369  0.6989 -0.0300
 2940TIP3   OH230310   2.675   5.385   4.128  0.3447  0.6227 -0.1297
 2940TIP3    H130311   2.616   5.446   4.171 -0.6448  0.1299 -0.7675
 2940TIP3    H230312   2.633   5.364   4.045  0.2558 -1.5374  0.3962
 2941TIP3   OH230313   2.075   2.977   6.007  0.1985  0.5137 -0.0455
 2941TIP3    H130314   2.103   2.900   5.957  0.6825  0.8765 -0.3464
 2941TIP3    H230315   2.140   2.986   6.076  2.2418  2.6663 -2.0567
 2942TIP3   OH230316   5.585   5.474   0.735 -0.1882  0.2986 -0.1830
 2942TIP3    H130317   5.617   5.562   0.756 -3.0963  1.1057  1.5095
 2942TIP3    H230318   5.560   5.479   0.643  1.4836  0.5717 -0.6581
 2943TIP3   OH230319   3.692   5.205   4.030  0.5102  0.1989 -0.5686
 2943TIP3    H130320   3.656   5.125   4.069  0.3722  0.7822  0.5360
 2943TIP3    H230321   3.759   5.174   3.969  0.0218 -0.7837 -0.6199
 2944TIP3   OH230322   0.256   2.872  17.206 -0.6473  0.3853 -0.0348
 2944TIP3    H130323   0.311   2.861  17.284 -1.4846 -0.2504  0.4884
 2944TIP3    H230324   0.187   2.932  17.235 -1.4153 -0.4824 -0.0296
 2945TIP3   OH230325   4.951   6.252  13.998  0.3030  0.4174  0.1547
 2945TIP3    H130326   4.897   6.226  14.073 -1.0267 -0.5432 -1.0894
 2945TIP3    H230327   4.910   6.332  13.965  0.8356  0.7908  0.3864
 2946TIP3   OH230328   1.933   3.483   0.810  0.6590  0.4251 -0.1779
 2946TIP3    H130329   1.954   3.480   0.717 -0.5386 -1.1874 -0.4435
 2946TIP3    H230330   1.984   3.412   0.849  1.3004  1.2115  0.4449
 2947TIP3   OH230331   4.988   4.251   0.342  0.1135  0.1313 -0.0311
 2947TIP3    H130332   4.977   4.239   0.247 -0.4342 -0.7163  0.1349
 2947TIP3    H230333   5.019   4.341   0.351 -1.6635  0.8748 -0.8898
 2948TIP3   OH230334   0.677   3.569  11.517 -0.2091  0.2632  0.1789
 2948TIP3    H130335   0.589   3.546  11.547 -0.4211  1.4232  0.5116
 2948TIP3    H230336   0.668   3.660  11.486  0.8797  0.4015  0.2471
 2949TIP3   OH230337   4.983   0.481  12.390  0.4303 -0.2323  0.4845
 2949TIP3    H130338   5.041   0.476  12.313 -0.1457 -1.1039  0.0866
 2949TIP3    H230339   4.979   0.391  12.422 -0.8308 -0.2240  0.4021
 2950TIP3   OH230340   0.526   5.382  14.220  0.6584 -0.7500  0.3990
 2950TIP3    H130341   0.593   5.447  14.200  0.0945  0.2456  1.6012
 2950TIP3    H230342   0.474   5.376  14.140 -1.3801  2.9136  1.2169
 2951TIP3   OH230343   2.171   5.548   0.441  0.0595  0.1058 -0.4015
 2951TIP3    H130344   2.233   5.571   0.371  0.7037  0.0583  0.1393
 2951TIP3    H230345   2.169   5.625   0.497 -0.7208  0.2731 -0.6515
 2952TIP3   OH230346   1.553   6.475  14.153 -0.7298 -0.1964  0.2219
 2952TIP3    H130347   1.522   6.565  14.163  0.8015  0.2216  1.6576
 2952TIP3    H230348   1.534   6.454  14.061  0.0675  2.0849 -0.5521
 2953TIP3   OH230349   2.775   2.108   1.496 -0.2546 -0.0151 -0.3536
 2953TIP3    H130350   2.865   2.078   1.505  0.6686  2.9496  1.8763
 2953TIP3    H230351   2.783   2.197   1.461 -2.2372  0.6134  0.6361
 2954TIP3   OH230352   1.922   6.727   1.351 -0.3957  0.1722 -0.3329
 2954TIP3    H130353   1.888   6.707   1.263 -0.7609  0.8422 -0.3501
 2954TIP3    H230354   2.014   6.747   1.337 -0.6875  1.2997 -0.7220
 2955TIP3   OH230355   5.481   5.012   3.876 -0.6290  0.1579 -0.2614
 2955TIP3    H130356   5.565   4.969   3.888 -0.2252  1.3413  1.6124
 2955TIP3    H230357   5.418   4.953   3.918 -0.2609  0.7180  1.1307
 2956TIP3   OH230358   2.563   0.383   4.585  0.1980  0.2961 -0.5373
 2956TIP3    H130359   2.565   0.452   4.652  0.2864  0.9030 -1.1432
 2956TIP3    H230360   2.550   0.431   4.503 -0.7366 -0.5037 -0.8661
 2957TIP3   OH230361   2.115   0.895   3.052  0.3037 -0.6081  0.2888
 2957TIP3    H130362   2.190   0.869   2.999  0.4614 -0.0999  0.2551
 2957TIP3    H230363   2.145   0.886   3.143  0.4202 -0.3619  0.2745
 2958TIP3   OH230364   4.760   6.655  16.884  0.2397  0.7699  0.0747
 2958TIP3    H130365   4.824   6.599  16.840 -1.0596 -1.2893  0.6697
 2958TIP3    H230366   4.794   6.666  16.972  1.3712  2.4535 -0.5246
 2959TIP3   OH230367   5.849   5.478  15.697  0.0615  0.1519 -0.2376
 2959TIP3    H130368   5.839   5.565  15.737 -1.4114  0.3561 -1.0044
 2959TIP3    H230369   5.819   5.417  15.765 -2.8514  0.5191 -1.0495
 2960TIP3   OH230370   0.564   0.300   2.387  0.3794 -0.1336 -0.1972
 2960TIP3    H130371   0.521   0.360   2.325  1.7944  1.4204  0.2386
 2960TIP3    H230372   0.634   0.260   2.337  0.7973  0.2443  0.0778
 2961TIP3   OH230373   2.814   6.676   1.443  0.0364  0.1087 -0.1815
 2961TIP3    H130374   2.810   6.581   1.458  2.8441 -0.2186 -0.8467
 2961TIP3    H230375   2.903   6.700   1.468 -0.0838  2.2752 -1.5679
 2962TIP3   OH230376   4.889   1.533   2.384  0.4494  0.1854  0.3285
 2962TIP3    H130377   4.808   1.482   2.374  1.1005 -0.6744 -0.8922
 2962TIP3    H230378   4.917   1.517   2.474  0.8846 -2.0782 -0.1322
 2963TIP3   OH230379   5.420   4.103  13.793 -0.1542  0.0765 -0.0237
 2963TIP3    H130380   5.377   4.134  13.713 -0.1563 -2.3332 -1.0601
 2963TIP3    H230381   5.354   4.048  13.836  0.4527 -0.1332  0.6581
 2964TIP3   OH230382   4.952   3.168   0.692 -0.7209  0.2703 -0.2151
 2964TIP3    H130383   5.025   3.204   0.743  0.4416 -0.2384 -1.4711
 2964TIP3    H230384   4.874   3.198   0.739  0.2385  2.1136  0.3280
 2965TIP3   OH230385   2.135   4.777   3.267 -0.1878  0.2300 -0.1828
 2965TIP3    H130386   2.060   4.731   3.229 -0.7881 -0.3279  1.5722
 2965TIP3    H230387   2.211   4.738   3.225 -0.8517  1.7613 -3.0428
 2966TIP3   OH230388   2.314   6.565   3.316 -0.4904 -0.2568 -0.4229
 2966TIP3    H130389   2.354   6.482   3.292  0.0808  0.0061 -0.4135
 2966TIP3    H230390   2.388   6.624   3.330 -0.8186 -0.1686  1.1827
 2967TIP3   OH230391   0.479   0.958  14.545 -0.0383  0.1001  0.3336
 2967TIP3    H130392   0.550   1.007  14.588  1.5093  1.0190 -2.9539
 2967TIP3    H230393   0.425   1.026  14.504 -2.3684 -0.6552  1.9842
 2968TIP3   OH230394   5.333   2.832   5.462  0.4581 -0.0150 -0.4243
 2968TIP3    H130395   5.396   2.850   5.532  1.6152  0.6419 -1.5987
 2968TIP3    H230396   5.295   2.747   5.486  0.9582  0.0965  0.8889
 2969TIP3   OH230397   1.572   2.716   3.349  0.5617  0.0036  0.2473
 2969TIP3    H130398   1.518   2.768   3.290  0.3812  1.0039  1.2539
 2969TIP3    H230399   1.655   2.706   3.302  0.8355  1.7819  0.2720
 2970TIP3   OH230400   6.089   5.316  16.217  0.2379 -0.3466  0.5585
 2970TIP3    H130401   5.995   5.336  16.213 -0.3542 -2.9128 -0.6847
 2970TIP3    H230402   6.132   5.394  16.182 -1.6855 -0.3144 -1.9911
 2971TIP3   OH230403   0.904   1.564  11.541 -0.2830  0.0193  0.0825
 2971TIP3    H130404   0.923   1.480  11.584 -0.6854  0.3707  0.9654
 2971TIP3    H230405   0.824   1.547  11.491 -1.2090  0.2345  1.4137
 2972TIP3   OH230406   1.873   2.377  12.115 -0.1397 -0.0454 -0.0451
 2972TIP3    H130407   1.944   2.440  12.104  1.2187 -1.2940  1.2434
 2972TIP3    H230408   1.886   2.313  12.046 -1.6373  1.1216 -1.4790
 2973TIP3   OH230409   1.383   0.851   5.517 -0.4206 -0.4545  0.4664
 2973TIP3    H130410   1.356   0.844   5.426  1.4626 -0.2937 -0.1538
 2973TIP3    H230411   1.442   0.777   5.531 -0.3577 -0.2476  1.4287
 2974TIP3   OH230412   3.550   3.744   2.208  0.0751 -0.1123 -0.1915
 2974TIP3    H130413   3.635   3.766   2.170 -0.3724 -0.5084 -1.4979
 2974TIP3    H230414   3.524   3.822   2.256  0.8514  0.2821 -0.3959
 2975TIP3   OH230415   4.729   0.422   3.402  0.0282  0.2874 -0.1645
 2975TIP3    H130416   4.668   0.482   3.445  0.0449 -0.1749  0.5402
 2975TIP3    H230417   4.681   0.389   3.326 -0.9235 -0.6730  0.8131
 2976TIP3   OH230418   2.373   6.018   1.028  0.4925  0.3078  0.3687
 2976TIP3    H130419   2.406   6.033   0.939 -0.6267 -1.7211 -0.4488
 2976TIP3    H230420   2.441   5.968   1.071  0.1520 -0.5598 -0.0734
 2977TIP3   OH230421   3.895   6.488  12.676 -0.5851 -0.2014 -0.0133
 2977TIP3    H130422   3.879   6.398  12.646  0.7032  0.0262 -1.5082
 2977TIP3    H230423   3.830   6.540  12.629 -1.0822 -0.2927  0.5629
 2978TIP3   OH230424   5.555   5.039   4.349 -0.4626  0.1236  0.3136
 2978TIP3    H130425   5.592   5.005   4.430  0.2897 -2.6099 -1.0771
 2978TIP3    H230426   5.619   5.104   4.319  1.3000 -1.6686 -0.0150
 2979TIP3   OH230427   6.766   4.420   0.117  0.6763 -0.3859  0.2170
 2979TIP3    H130428   6.724   4.442   0.034 -0.8434  0.6474  1.2191
 2979TIP3    H230429   6.764   4.500   0.168  1.0297 -1.1582  1.4987
 2980TIP3   OH230430   3.368   4.197   6.766 -1.0008  0.3685 -0.5647
 2980TIP3    H130431   3.319   4.223   6.687  0.1329  0.1396 -1.3567
 2980TIP3    H230432   3.332   4.112   6.790 -0.6755 -0.0173 -1.4206
 2981TIP3   OH230433   6.667   3.465   3.256  0.1875  0.2394  0.2869
 2981TIP3    H130434   6.701   3.515   3.331 -2.2367  0.9265  1.0466
 2981TIP3    H230435   6.600   3.522   3.219  0.5478 -0.5877 -1.7406
 2982TIP3   OH230436   0.905   3.546  16.381 -0.3385  0.1233 -0.1565
 2982TIP3    H130437   0.835   3.592  16.334 -0.5235 -0.7146 -0.7255
 2982TIP3    H230438   0.986   3.577  16.341 -0.2893  1.7203  1.0515
 2983TIP3   OH230439   2.114   6.468   0.542  0.0816 -0.3494  0.2284
 2983TIP3    H130440   2.194   6.478   0.490  0.4236 -0.3400  0.7512
 2983TIP3    H230441   2.115   6.543   0.601  0.0264 -0.7125  0.6932
 2984TIP3   OH230442   3.796   3.808   1.043 -0.7902  0.2269 -0.0414
 2984TIP3    H130443   3.825   3.732   0.993  0.4458  0.5078  0.2128
 2984TIP3    H230444   3.724   3.844   0.993 -0.0118  0.1094 -1.2842
 2985TIP3   OH230445   0.579   5.376   2.425 -0.1439 -0.0297 -0.4109
 2985TIP3    H130446   0.587   5.424   2.343 -1.6717 -0.0693 -0.6095
 2985TIP3    H230447   0.623   5.293   2.409 -0.6020 -0.1174 -1.2706
 2986TIP3   OH230448   0.778   2.683  14.913 -0.1913 -0.0119  0.0102
 2986TIP3    H130449   0.843   2.731  14.964  0.3123  0.6258 -1.1892
 2986TIP3    H230450   0.813   2.594  14.907  0.9367  0.4961 -1.2114
 2987TIP3   OH230451   1.755   1.337   2.786 -0.3835  0.1234 -0.1765
 2987TIP3    H130452   1.775   1.379   2.869  0.4835 -1.4848  0.4680
 2987TIP3    H230453   1.813   1.380   2.723  1.0162 -0.5678  0.6022
 2988TIP3   OH230454   3.362   1.676  12.624  0.1605 -0.4840 -0.7700
 2988TIP3    H130455   3.267   1.667  12.625  0.1290 -0.1754 -0.5093
 2988TIP3    H230456   3.392   1.613  12.559 -0.3217  0.2955 -1.7772
 2989TIP3   OH230457   4.546   4.623  15.459 -0.0032 -0.4878  0.1616
 2989TIP3    H130458   4.522   4.703  15.507 -2.3138 -1.0750  0.1166
 2989TIP3    H230459   4.473   4.563  15.475  0.9778 -2.0742 -1.0189
 2990TIP3   OH230460   6.326   3.971  13.638 -0.4060  0.5094  0.2427
 2990TIP3    H130461   6.245   4.015  13.613 -0.6355  1.5921  2.5715
 2990TIP3    H230462   6.395   4.036  13.621 -0.2464  0.2572 -0.0749
 2991TIP3   OH230463   5.720   1.801  12.939  0.4595  0.4218  0.0559
 2991TIP3    H130464   5.791   1.851  12.978 -0.6486  1.4034  0.8903
 2991TIP3    H230465   5.699   1.849  12.858  1.8896 -0.8762 -1.1377
 2992TIP3   OH230466   3.000   0.499   5.008  0.5551  0.0320  0.1539
 2992TIP3    H130467   3.003   0.404   4.995 -0.1160 -0.1219  1.0178
 2992TIP3    H230468   3.078   0.518   5.061  0.8271 -0.0019 -0.2346
 2993TIP3   OH230469   3.797   0.738  17.132 -0.6474 -0.3044 -0.4733
 2993TIP3    H130470   3.756   0.817  17.167 -0.1023 -1.0963  2.2629
 2993TIP3    H230471   3.746   0.715  17.055 -2.3152  1.3592  0.0836
 2994TIP3   OH230472   1.610   5.832   5.015 -0.0308  0.1136 -0.4346
 2994TIP3    H130473   1.648   5.753   4.976  0.0908  0.1977 -0.4870
 2994TIP3    H230474   1.685   5.889   5.032 -0.2389  0.7747 -1.6301
 2995TIP3   OH230475   0.089   4.899  11.379 -0.3589  0.3837  0.1173
 2995TIP3    H130476   0.062   4.970  11.437 -0.7956  0.0149  0.3713
 2995TIP3    H230477   0.078   4.820  11.431  0.1925  0.1350 -0.1422
 2996TIP3   OH230478   0.492   0.321   5.548 -0.6911  0.5659 -0.1689
 2996TIP3    H130479   0.474   0.401   5.597 -0.6721  0.3388  0.2112
 2996TIP3    H230480   0.422   0.261   5.573 -0.0727  0.0788  0.4228
 2997TIP3   OH230481   1.213   2.819   5.837 -0.8157 -0.2967 -0.6212
 2997TIP3    H130482   1.221   2.885   5.768 -1.5742 -0.5315 -0.9374
 2997TIP3    H230483   1.163   2.862   5.906  1.6472  0.6516  0.7135
 2998TIP3   OH230484   5.384   3.554  13.475 -0.0323  0.2243  0.3030
 2998TIP3    H130485   5.339   3.619  13.528 -0.4383 -0.2762  0.5848
 2998TIP3    H230486   5.423   3.604  13.404 -0.5938  0.7399  0.3450
 2999TIP3   OH230487   5.188   1.354  17.185  0.2478 -0.1131 -0.5705
 2999TIP3    H130488   5.200   1.302  17.265  0.5228  0.3685 -0.2945
 2999TIP3    H230489   5.254   1.320  17.125 -0.2394 -0.7695 -0.7537
 3000TIP3   OH230490   0.919   1.472   6.150 -0.0037  0.0120  0.3512
 3000TIP3    H130491   0.896   1.379   6.149 -0.2698  0.0821 -0.3152
 3000TIP3    H230492   0.943   1.490   6.241  4.6841 -1.8235 -0.2574
 3001TIP3   OH230493   1.650   5.498  14.765 -0.2080 -0.2272  0.1683
 3001TIP3    H130494   1.610   5.540  14.840 -0.2206 -0.0827  0.0809
 3001TIP3    H230495   1.702   5.567  14.723 -0.2304 -0.2968  0.0241
 3002TIP3   OH230496   0.466   4.814   4.925 -0.4428  0.0218 -0.2007
 3002TIP3    H130497   0.515   4.820   4.843  0.0385  0.4852  0.1144
 3002TIP3    H230498   0.414   4.734   4.916 -0.8357  0.3742 -1.1897
 3003TIP3   OH230499   3.516   1.674   2.192  0.1129 -0.2802 -0.3127
 3003TIP3    H130500   3.488   1.640   2.107  0.6834 -1.3967 -0.0715
 3003TIP3    H230501   3.436   1.682   2.243  0.1211 -3.1940  0.2906
 3004TIP3   OH230502   5.014   3.332  13.110  0.1147 -0.2842 -0.2859
 3004TIP3    H130503   4.981   3.246  13.139 -2.5938  0.9651  0.6883
 3004TIP3    H230504   5.003   3.388  13.186 -0.7921  1.5438 -1.6821
 3005TIP3   OH230505   4.236   5.308  12.423 -0.6628 -0.3945 -0.5442
 3005TIP3    H130506   4.164   5.257  12.385 -0.6947  0.4601 -1.6967
 3005TIP3    H230507   4.194   5.390  12.452 -0.2404 -0.1018 -0.7599
 3006TIP3   OH230508   3.902   3.716   5.936  0.4829  0.6322  0.9568
 3006TIP3    H130509   3.884   3.675   6.020  4.2846  0.7608  1.9859
 3006TIP3    H230510   3.961   3.655   5.891 -1.4290  0.5529 -1.7500
 3007TIP3   OH230511   5.513   1.547  13.732 -0.2210 -0.1251 -0.1520
 3007TIP3    H130512   5.437   1.590  13.771  0.4721  0.3794  0.6751
 3007TIP3    H230513   5.580   1.552  13.799 -0.2084 -2.8830  0.1766
 3008TIP3   OH230514   3.985   0.122  12.766 -0.0314  0.6616  0.0856
 3008TIP3    H130515   3.988   0.216  12.747 -2.2726  0.7235 -0.1917
 3008TIP3    H230516   4.032   0.082  12.693  1.2512  1.5643  0.3805
 3009TIP3   OH230517   4.132   2.501   1.109  0.1144 -0.4042 -0.3344
 3009TIP3    H130518   4.054   2.547   1.141 -1.6380 -3.0700 -0.4980
 3009TIP3    H230519   4.110   2.476   1.019  1.9714  0.4439 -1.0679
 3010TIP3   OH230520   1.983   6.169   4.915  0.0548 -0.0013 -0.1199
 3010TIP3    H130521   1.918   6.235   4.939  0.0496  0.3779 -1.1199
 3010TIP3    H230522   1.970   6.156   4.821  1.4127  0.0552 -0.3316
 3011TIP3   OH230523   3.999   5.023  15.430 -0.8749 -0.3383  0.0218
 3011TIP3    H130524   4.090   5.051  15.434 -0.5407 -1.3621 -0.0259
 3011TIP3    H230525   3.963   5.069  15.354 -0.5037  0.3404  0.2487
 3012TIP3   OH230526   5.155   3.928  12.729 -0.3623  0.1978  0.3988
 3012TIP3    H130527   5.116   4.014  12.714 -0.6918 -0.2471 -1.4768
 3012TIP3    H230528   5.123   3.902  12.815 -1.0236  1.5344  0.5791
 3013TIP3   OH230529   4.003   4.828   6.365 -0.2744  0.8475 -0.4039
 3013TIP3    H130530   3.929   4.782   6.404 -0.5786 -0.9834 -2.9082
 3013TIP3    H230531   3.964   4.885   6.299  0.5037 -0.6773 -2.2677
 3014TIP3   OH230532   2.557   0.403  16.925 -0.3030  0.4470  0.3558
 3014TIP3    H130533   2.480   0.379  16.873  1.1640 -1.4968 -1.0821
 3014TIP3    H230534   2.555   0.343  16.999  1.1348 -1.4491 -1.0510
 3015TIP3   OH230535   1.878   1.334  14.727 -0.0304 -0.4038 -0.0148
 3015TIP3    H130536   1.852   1.317  14.818 -1.7114  2.3162  0.1190
 3015TIP3    H230537   1.872   1.249  14.685  1.6906 -1.9461  2.5662
 3016TIP3   OH230538   4.344   5.987  15.181  0.4870  0.0178  0.2268
 3016TIP3    H130539   4.274   6.041  15.216 -0.0618  0.3372 -1.2666
 3016TIP3    H230540   4.379   6.037  15.107  0.0144 -1.5845 -1.1561
 3017TIP3   OH230541   2.102   3.969  14.307 -0.8718 -0.3493 -1.1018
 3017TIP3    H130542   2.020   4.012  14.333 -0.0918  2.0143 -2.2308
 3017TIP3    H230543   2.143   4.031  14.247  2.6345 -0.6360  0.7677
 3018TIP3   OH230544   1.590   0.456  17.147  0.2310 -0.6210 -0.4622
 3018TIP3    H130545   1.552   0.439  17.060 -0.8123 -2.2238  0.2584
 3018TIP3    H230546   1.523   0.508  17.191  0.5702 -0.1876 -0.4515
 3019TIP3   OH230547   5.652   6.314  16.889 -0.0145  0.0226 -0.0282
 3019TIP3    H130548   5.678   6.262  16.813 -1.9260 -1.8772  0.5294
 3019TIP3    H230549   5.714   6.289  16.958  0.1584 -0.1682 -0.2545
 3020TIP3   OH230550   6.379   0.304  13.706  0.5415  0.3008 -0.2048
 3020TIP3    H130551   6.448   0.349  13.657  2.2974 -0.7391  1.1705
 3020TIP3    H230552   6.353   0.232  13.650 -0.0512  1.1919 -1.0986
 3021TIP3   OH230553   0.792   0.412  11.536  0.3643  0.2332  0.2364
 3021TIP3    H130554   0.764   0.362  11.459 -1.5425 -0.8565  1.5660
 3021TIP3    H230555   0.887   0.398  11.539  0.5354  0.4998 -2.0010
 3022TIP3   OH230556   5.221   5.918  12.849  0.2030 -0.0702  0.0560
 3022TIP3    H130557   5.135   5.942  12.814  0.7587  0.8367 -0.7372
 3022TIP3    H230558   5.274   5.997  12.840  0.6074 -0.0294  2.3122
 3023TIP3   OH230559   1.254   5.405   0.836 -0.3089  0.2600  0.1898
 3023TIP3    H130560   1.212   5.470   0.780 -2.2449 -0.3180  0.8962
 3023TIP3    H230561   1.324   5.454   0.880  1.2288  0.7360 -2.5629
 3024TIP3   OH230562   4.173   4.692  11.095 -0.1228 -0.5430 -0.2026
 3024TIP3    H130563   4.174   4.689  10.999  1.8927 -0.6706 -0.2180
 3024TIP3    H230564   4.265   4.692  11.120 -0.6030  0.4279  1.7308
 3025TIP3   OH230565   0.450   5.657   2.629  0.2383  0.5829 -0.0627
 3025TIP3    H130566   0.386   5.595   2.595  0.3857  1.0592 -1.2271
 3025TIP3    H230567   0.413   5.743   2.612  1.2068  0.8689 -0.8078
 3026TIP3   OH230568   4.858   0.405   4.026  0.4223 -0.1265  0.5358
 3026TIP3    H130569   4.901   0.474   4.077 -0.4554 -0.1884  1.3879
 3026TIP3    H230570   4.930   0.360   3.981  1.5098 -1.2665  3.1635
 3027TIP3   OH230571   3.331   0.150  12.661  0.4938  0.4018  0.3150
 3027TIP3    H130572   3.377   0.214  12.608 -0.4088  0.5711 -0.2874
 3027TIP3    H230573   3.400   0.095  12.699  1.1533 -1.3867 -3.0569
 3028TIP3   OH230574   1.182   3.279  15.882 -0.4149 -0.0241  0.2461
 3028TIP3    H130575   1.269   3.241  15.878 -0.4369 -0.0656  0.1704
 3028TIP3    H230576   1.146   3.268  15.794  0.6545  2.7351 -0.6371
 3029TIP3   OH230577   0.338   5.193   4.731  0.3406 -0.0184 -0.6904
 3029TIP3    H130578   0.432   5.209   4.735  0.5784 -1.3993 -0.0667
 3029TIP3    H230579   0.329   5.117   4.674  0.1101 -2.9467  2.8972
 3030TIP3   OH230580   0.332   4.460   0.903  0.1413 -0.0396 -0.6682
 3030TIP3    H130581   0.362   4.550   0.893 -0.6103  0.0938 -1.9495
 3030TIP3    H230582   0.252   4.456   0.851 -0.3031 -1.2254  0.0755
 3031TIP3   OH230583   3.104   2.066  11.455  0.4306  0.5398 -0.0774
 3031TIP3    H130584   3.152   2.137  11.413 -0.4324  1.4159  0.3754
 3031TIP3    H230585   3.130   2.068  11.546  0.8378 -0.1081 -0.1736
 3032TIP3   OH230586   1.735   2.219   4.675 -0.1916 -0.1545  0.3581
 3032TIP3    H130587   1.669   2.275   4.715 -0.5547 -0.1100 -0.3012
 3032TIP3    H230588   1.776   2.274   4.608 -0.8047 -0.7844 -0.5477
 3033TIP3   OH230589   4.145   3.905   5.335 -0.4382 -0.4276 -0.2764
 3033TIP3    H130590   4.190   3.822   5.348  0.4535  0.0622 -0.1768
 3033TIP3    H230591   4.205   3.958   5.282 -0.6816  0.3932  0.2384
 3034TIP3   OH230592   1.705   1.713   3.845 -0.5490 -0.2914  0.2101
 3034TIP3    H130593   1.754   1.772   3.789  0.9783 -1.1532  0.5765
 3034TIP3    H230594   1.654   1.770   3.902 -1.4469  0.6045 -1.4274
 3035TIP3   OH230595   1.020   5.603   1.411 -0.3450 -0.1227 -0.0907
 3035TIP3    H130596   0.952   5.619   1.476  0.5846 -1.0236  1.1475
 3035TIP3    H230597   1.064   5.688   1.402 -1.5033  0.4275 -0.7957
 3036TIP3   OH230598   5.921   3.662   2.733  0.1100  0.1531  0.1696
 3036TIP3    H130599   5.934   3.698   2.821  0.3095 -0.4145  0.3768
 3036TIP3    H230600   5.829   3.638   2.731  0.5282 -1.7099  0.9589
 3037TIP3   OH230601   0.319   4.004  11.307  0.4969 -0.0878  0.3562
 3037TIP3    H130602   0.254   4.021  11.375  0.0835 -2.0083  0.5214
 3037TIP3    H230603   0.269   3.959  11.239  1.2201  0.4599 -0.5454
 3038TIP3   OH230604   0.180   0.826   6.433 -0.2796 -0.3856  0.1422
 3038TIP3    H130605   0.098   0.850   6.391  0.1320  0.0023 -0.4637
 3038TIP3    H230606   0.161   0.746   6.481 -0.6637 -1.0703 -1.1213
 3039TIP3   OH230607   1.659   2.936   1.668  0.0568  0.1681  0.0128
 3039TIP3    H130608   1.696   2.850   1.691 -2.0708 -1.0158 -0.6743
 3039TIP3    H230609   1.719   2.971   1.603  0.4899 -1.2685 -0.4080
 3040TIP3   OH230610   3.232   4.683  16.081 -0.1844 -0.1508  0.0184
 3040TIP3    H130611   3.274   4.769  16.085  1.3978 -0.9120  0.4654
 3040TIP3    H230612   3.235   4.651  16.171 -1.8397 -0.2042  0.0759
 3041TIP3   OH230613   6.494   0.806  15.667  0.3441  0.3612 -0.0678
 3041TIP3    H130614   6.537   0.863  15.730  2.6459 -0.3059 -0.9415
 3041TIP3    H230615   6.473   0.726  15.716  1.3452  0.1809  0.0932
 3042TIP3   OH230616   2.914   1.130   5.118  0.1333 -0.0532  0.0653
 3042TIP3    H130617   2.923   1.136   5.214 -0.7477  0.5606  0.1204
 3042TIP3    H230618   2.824   1.158   5.101  0.6093  0.8689 -1.0301
 3043TIP3   OH230619   2.974   0.124   1.120 -0.3131 -0.3529  0.1013
 3043TIP3    H130620   2.986   0.160   1.208 -1.9825  0.1451  0.1765
 3043TIP3    H230621   3.059   0.089   1.096  1.1517  2.6438  0.4933
 3044TIP3   OH230622   3.199   0.987  14.210  0.0171  0.5794  0.3200
 3044TIP3    H130623   3.275   1.029  14.170  0.6925  0.6212  1.6023
 3044TIP3    H230624   3.157   1.057  14.260  0.1197  0.1524  1.0091
 3045TIP3   OH230625   2.792   5.412   5.472  0.8037  0.3347  0.2353
 3045TIP3    H130626   2.853   5.458   5.415  0.6686  0.6352  0.3337
 3045TIP3    H230627   2.780   5.326   5.430 -0.5662  1.1214 -1.0814
 3046TIP3   OH230628   1.490   0.551   1.274  0.2245 -0.3899  0.4989
 3046TIP3    H130629   1.468   0.494   1.348  0.6704 -0.0631  0.8929
 3046TIP3    H230630   1.586   0.551   1.272  0.2241  0.2216  0.4104
 3047TIP3   OH230631   0.517   2.044   0.670 -0.0034 -0.0737  0.1450
 3047TIP3    H130632   0.471   1.981   0.615 -2.7954  2.5291 -0.7304
 3047TIP3    H230633   0.592   2.072   0.616 -1.3526  0.6872 -1.4166
 3048TIP3   OH230634   2.587   1.299   4.529 -0.2400 -0.1347 -0.0632
 3048TIP3    H130635   2.571   1.216   4.573  0.4346 -1.3057 -1.9266
 3048TIP3    H230636   2.605   1.361   4.600 -1.4277 -1.4003  1.3939
 3049TIP3   OH230637   3.794   3.999   0.400  0.1946 -0.3085  0.6824
 3049TIP3    H130638   3.749   3.929   0.353  1.5253 -0.6832 -0.0632
 3049TIP3    H230639   3.723   4.058   0.427 -0.7977 -1.1630  0.0285
 3050TIP3   OH230640   5.752   6.074   0.085 -0.3795 -0.1512 -0.0648
 3050TIP3    H130641   5.706   6.137   0.139 -0.8661  0.1000 -0.7518
 3050TIP3    H230642   5.817   6.126   0.037  1.2882 -0.6340  1.5684
 3051TIP3   OH230643   4.845   1.317   1.234  0.3248 -0.7598 -0.1131
 3051TIP3    H130644   4.857   1.255   1.306 -1.7085 -0.7118  0.3063
 3051TIP3    H230645   4.865   1.266   1.155  1.9409 -0.9891  0.4052
 3052TIP3   OH230646   1.442   1.352   2.538  0.0226  0.0793 -0.3709
 3052TIP3    H130647   1.468   1.441   2.514 -1.6427  0.5109 -0.7156
 3052TIP3    H230648   1.462   1.346   2.632  1.2146  0.3932 -0.5861
 3053TIP3   OH230649   1.385   1.340   0.612  0.3549 -0.5393  0.3910
 3053TIP3    H130650   1.374   1.257   0.565 -2.5469 -0.3045  0.4379
 3053TIP3    H230651   1.421   1.315   0.697 -0.7117 -1.8363  0.4938
 3054TIP3   OH230652   2.931   1.746   4.885 -0.2950 -0.1014 -0.0144
 3054TIP3    H130653   2.836   1.741   4.876 -0.3775 -1.5954  1.2142
 3054TIP3    H230654   2.945   1.811   4.954 -0.3921  0.4465 -0.5042
 3055TIP3   OH230655   4.758   2.298   1.864 -0.4147 -0.3982 -0.0485
 3055TIP3    H130656   4.718   2.292   1.951 -0.2573 -2.1705 -0.0536
 3055TIP3    H230657   4.685   2.290   1.804 -0.3144 -1.3724 -0.0579
 3056TIP3   OH230658   4.142   4.566   1.798  0.0416 -0.2289  0.0395
 3056TIP3    H130659   4.222   4.531   1.837  1.3934  2.0960 -0.4299
 3056TIP3    H230660   4.170   4.647   1.754 -2.2439 -0.2984 -1.7627
 3057TIP3   OH230661   3.427   3.859  12.313  0.0990 -0.1205 -0.1009
 3057TIP3    H130662   3.516   3.827  12.320 -0.4035 -1.3275  1.2796
 3057TIP3    H230663   3.419   3.924  12.383 -0.4164 -0.8289  0.5082
 3058TIP3   OH230664   1.994   6.167  14.319  0.1446 -0.3058 -0.2816
 3058TIP3    H130665   1.979   6.251  14.276  0.1855  0.5331  1.3058
 3058TIP3    H230666   2.089   6.157  14.321  0.1334 -1.1888 -1.8921
 3059TIP3   OH230667   5.262   5.074  13.734  0.5329  0.0501  0.5371
 3059TIP3    H130668   5.240   5.144  13.795  3.0021 -0.1147  1.7587
 3059TIP3    H230669   5.344   5.038  13.767  1.1897 -1.0872 -2.0347
 3060TIP3   OH230670   4.336   1.452  16.430 -0.3018 -0.3502 -0.1284
 3060TIP3    H130671   4.255   1.433  16.383 -1.1710  1.2277  0.6770
 3060TIP3    H230672   4.382   1.368  16.431 -2.0093 -1.3447 -0.4119
 3061TIP3   OH230673   6.607   6.307  16.178  0.0051 -0.4930 -0.1037
 3061TIP3    H130674   6.523   6.283  16.139 -0.8556  0.1890  1.2598
 3061TIP3    H230675   6.615   6.401  16.163 -0.2189 -0.2626  1.0722
 3062TIP3   OH230676   0.743   1.714   0.771  0.4283 -0.2980 -0.4370
 3062TIP3    H130677   0.652   1.690   0.788  0.4255  0.5063  0.7874
 3062TIP3    H230678   0.791   1.683   0.848  1.4129 -1.7664 -1.5897
 3063TIP3   OH230679   3.045   2.865  11.314  0.0514 -0.2359 -0.0641
 3063TIP3    H130680   3.093   2.819  11.246 -0.6114 -0.9517 -0.0595
 3063TIP3    H230681   2.953   2.849  11.294 -0.1521 -0.4676  0.9942
 3064TIP3   OH230682   1.517   0.122   4.626 -0.0616  0.5077 -0.3175
 3064TIP3    H130683   1.461   0.146   4.699 -2.3674  0.3961 -1.9557
 3064TIP3    H230684   1.606   0.142   4.656 -1.0650  2.0104  1.8655
 3065TIP3   OH230685   1.172   2.535  16.336  0.2414 -0.0568  0.2960
 3065TIP3    H130686   1.188   2.452  16.380 -2.2667 -0.7361  0.1125
 3065TIP3    H230687   1.178   2.515  16.242 -1.0119 -0.2253  0.2352
 3066TIP3   OH230688   5.151   1.877  12.439 -0.2958  0.0401 -0.0138
 3066TIP3    H130689   5.141   1.843  12.528  0.1859 -1.1652 -0.4078
 3066TIP3    H230690   5.100   1.958  12.440 -1.9356 -0.9332  0.8077
 3067TIP3   OH230691   3.178   6.179  11.626  0.5654 -0.4245 -0.5704
 3067TIP3    H130692   3.270   6.201  11.613 -0.0264  2.5734 -0.3473
 3067TIP3    H230693   3.152   6.229  11.703 -1.4811 -0.5092 -1.1562
 3068TIP3   OH230694   6.123   1.466   1.400 -0.2691  0.0025 -0.5970
 3068TIP3    H130695   6.216   1.465   1.426 -0.5468  0.7546  0.5047
 3068TIP3    H230696   6.101   1.374   1.386  0.6487 -0.1841 -0.8907
 3069TIP3   OH230697   4.733   2.252   1.272  0.0150 -0.4668  0.6293
 3069TIP3    H130698   4.799   2.185   1.256 -0.4621 -0.9445  0.6281
 3069TIP3    H230699   4.660   2.205   1.313 -0.5815 -0.0655  0.0533
 3070TIP3   OH230700   3.170   3.240  15.817  0.1051 -0.0447 -0.3619
 3070TIP3    H130701   3.160   3.199  15.731  2.5134 -1.3449 -0.0902
 3070TIP3    H230702   3.090   3.291  15.828 -0.9625 -1.0641 -2.7004
 3071TIP3   OH230703   5.203   0.618   0.966 -0.9920  0.3464 -0.1812
 3071TIP3    H130704   5.115   0.619   0.929 -0.6092  1.0150 -1.1243
 3071TIP3    H230705   5.190   0.601   1.059 -1.9701 -1.9872 -0.6543
 3072TIP3   OH230706   3.794   4.928   3.909 -0.1793  0.1704 -0.6940
 3072TIP3    H130707   3.718   4.932   3.851  0.0941 -1.4023 -1.2227
 3072TIP3    H230708   3.781   4.848   3.960  1.7900 -0.9298 -1.8009
 3073TIP3   OH230709   2.664   0.044   0.788  0.2877 -0.2035 -0.0483
 3073TIP3    H130710   2.692  -0.017   0.856  1.0224  0.8347  0.6070
 3073TIP3    H230711   2.745   0.076   0.748 -0.0959  0.0589 -0.6426
 3074TIP3   OH230712   2.972   0.991  15.536  0.0533  0.3071  0.1716
 3074TIP3    H130713   2.961   1.053  15.609  0.2163  1.1083 -0.4720
 3074TIP3    H230714   2.948   1.041  15.458 -0.5904 -0.6799 -0.2885
 3075TIP3   OH230715   0.975   5.410   1.751  0.6338  0.1733 -0.3974
 3075TIP3    H130716   1.043   5.432   1.688 -0.9189 -0.3294 -2.3327
 3075TIP3    H230717   0.904   5.471   1.733 -0.2395 -0.6368  0.1535
 3076TIP3   OH230718   1.778   4.193  15.535 -0.0600 -0.0007 -0.3753
 3076TIP3    H130719   1.790   4.279  15.495 -0.3760  0.6023  0.7766
 3076TIP3    H230720   1.683   4.187  15.550  0.1746  0.3962  1.5050
 3077TIP3   OH230721   1.599   5.223   3.267  0.5071 -0.3401  0.3363
 3077TIP3    H130722   1.541   5.286   3.225  0.8098  0.0589  0.5100
 3077TIP3    H230723   1.558   5.138   3.252 -0.9784  0.0570  1.8255
 3078TIP3   OH230724   4.868   2.004   2.370  0.7013 -0.3464 -0.1698
 3078TIP3    H130725   4.896   1.951   2.296 -0.4921  0.2953 -1.1123
 3078TIP3    H230726   4.773   2.009   2.362  0.5295 -0.3306  1.4672
 3079TIP3   OH230727   3.754   2.685  11.510  0.3503 -0.2529 -0.6757
 3079TIP3    H130728   3.780   2.606  11.464  0.6448 -1.1058  0.8927
 3079TIP3    H230729   3.818   2.694  11.580 -0.1861  0.9006 -0.3095
 3080TIP3   OH230730   4.804   1.750   1.509  0.4798 -0.1755  0.3084
 3080TIP3    H130731   4.712   1.722   1.499  0.5317 -1.0940  1.9888
 3080TIP3    H230732   4.848   1.673   1.544  1.3900  0.9681  1.7830
 3081TIP3   OH230733   5.613   3.118  14.161  0.0020  0.4432 -0.0658
 3081TIP3    H130734   5.688   3.174  14.183  0.6263 -0.3466 -0.1218
 3081TIP3    H230735   5.555   3.174  14.110 -0.0050  1.4150  0.9801
 3082TIP3   OH230736   1.517   3.729  17.310 -0.1483  0.1970  0.2017
 3082TIP3    H130737   1.560   3.749  17.227 -0.1716  0.8989  0.3518
 3082TIP3    H230738   1.532   3.636  17.324 -2.1715 -0.4918 -1.7711
 3083TIP3   OH230739   6.433   5.583   4.604 -0.0412 -0.5229 -0.1423
 3083TIP3    H130740   6.523   5.559   4.628  0.6435  0.8051 -1.2252
 3083TIP3    H230741   6.405   5.641   4.675  0.9878  1.2349 -1.1051
 3084TIP3   OH230742   3.255   6.367   0.599 -0.1222 -0.2262 -0.5559
 3084TIP3    H130743   3.330   6.396   0.650  0.0816  0.4777 -1.2333
 3084TIP3    H230744   3.179   6.403   0.644 -0.0389 -0.7495  0.0047
 3085TIP3   OH230745   3.515   4.523  13.997 -0.1987 -0.2037  0.9973
 3085TIP3    H130746   3.423   4.500  14.008 -0.2510 -0.2272  0.5145
 3085TIP3    H230747   3.554   4.506  14.083 -0.1010 -2.7079  0.5298
 3086TIP3   OH230748   0.306   5.353   0.641 -0.1481  0.9550  0.1242
 3086TIP3    H130749   0.330   5.347   0.548 -0.9936  0.5388 -0.0756
 3086TIP3    H230750   0.211   5.366   0.640 -0.5384 -1.4712  0.9816
 3087TIP3   OH230751   1.536   3.472   1.098 -0.1791  0.6620 -0.2242
 3087TIP3    H130752   1.580   3.436   1.021  0.5279  1.0393 -0.0009
 3087TIP3    H230753   1.604   3.520   1.144 -0.3363 -0.4047  1.1817
 3088TIP3   OH230754   0.292   4.422   3.294 -0.2488 -0.7485  0.3043
 3088TIP3    H130755   0.248   4.364   3.356 -0.8381 -1.7078 -0.9691
 3088TIP3    H230756   0.309   4.367   3.217 -2.8766  1.2398 -1.9059
 3089TIP3   OH230757   0.626   5.005   2.599 -0.1320  0.3551  0.7779
 3089TIP3    H130758   0.565   4.932   2.593  0.4715 -0.2962  2.0703
 3089TIP3    H230759   0.574   5.077   2.635 -0.6184  0.4464 -0.0801
 3090TIP3   OH230760   0.438   0.651  15.833 -0.5611 -0.7567 -0.2897
 3090TIP3    H130761   0.363   0.634  15.890 -0.3628  0.6822  0.4584
 3090TIP3    H230762   0.471   0.565  15.808 -0.7900 -1.4230  1.6030
 3091TIP3   OH230763   1.848   2.708  13.947 -0.1957 -0.2454  0.2332
 3091TIP3    H130764   1.927   2.688  13.896  0.5338  0.1619  1.1652
 3091TIP3    H230765   1.881   2.750  14.026 -1.3948  0.4847  0.3775
 3092TIP3   OH230766   3.458   3.048  11.984 -0.4501  0.6433  0.2741
 3092TIP3    H130767   3.363   3.032  11.980 -0.2581 -0.4524 -0.5092
 3092TIP3    H230768   3.476   3.062  12.076 -0.9197 -2.4007  0.9300
 3093TIP3   OH230769   3.771   5.065  11.658 -0.0707  0.0882  0.5924
 3093TIP3    H130770   3.801   5.144  11.703  0.3989  0.3813 -0.2143
 3093TIP3    H230771   3.726   5.015  11.725 -0.5302  1.1265  1.0778
 3094TIP3   OH230772   5.741   3.571  16.466 -0.3776 -0.6401  0.0460
 3094TIP3    H130773   5.703   3.484  16.470  0.8734 -1.3803 -2.1759
 3094TIP3    H230774   5.749   3.589  16.372  1.4455  0.9192  0.4342
 3095TIP3   OH230775   3.577   1.128   4.134 -0.2193  0.2735  0.4591
 3095TIP3    H130776   3.607   1.083   4.213 -0.9143  1.0688  1.1931
 3095TIP3    H230777   3.545   1.213   4.165  0.8725  1.2239 -0.8624
 3096TIP3   OH230778   5.780   5.191   4.284 -0.0411 -0.4113 -0.3168
 3096TIP3    H130779   5.843   5.215   4.216 -1.7591 -0.7543 -2.1019
 3096TIP3    H230780   5.770   5.272   4.336  0.6521  0.1176 -0.9797
 3097TIP3   OH230781   2.826   1.141  13.749 -0.1430  0.0027 -0.6091
 3097TIP3    H130782   2.789   1.136  13.837 -0.6177  2.0301 -0.6378
 3097TIP3    H230783   2.759   1.104  13.692  0.1564 -1.2951 -0.1522
 3098TIP3   OH230784   5.216   5.826   3.376  0.7919 -0.3380  0.1684
 3098TIP3    H130785   5.150   5.877   3.424  1.5492  1.4124 -0.5591
 3098TIP3    H230786   5.222   5.743   3.425  0.2768  0.6596  2.0502
 3099TIP3   OH230787   6.645   3.120  14.084 -0.1037  0.0379 -0.6083
 3099TIP3    H130788   6.728   3.077  14.105  0.4994  0.0515 -2.7664
 3099TIP3    H230789   6.579   3.050  14.090  0.3751 -0.4417 -0.8850
 3100TIP3   OH230790   2.009   1.292  16.365  0.2419 -0.8095 -0.4013
 3100TIP3    H130791   2.102   1.302  16.343  0.2558  1.0690  0.3483
 3100TIP3    H230792   1.999   1.199  16.382  1.5928 -1.3468 -2.1479
 3101TIP3   OH230793   0.799   6.488  13.331  0.4405  0.5632 -0.0373
 3101TIP3    H130794   0.755   6.422  13.384  1.5266 -1.0161 -1.0416
 3101TIP3    H230795   0.766   6.473  13.243  0.3215  1.7340 -0.2109
 3102TIP3   OH230796   0.529   2.193  12.961 -0.1520  0.3937  0.3116
 3102TIP3    H130797   0.458   2.233  13.010 -0.6403 -0.1767  0.0810
 3102TIP3    H230798   0.538   2.105  12.998  0.0438  0.2589 -0.0439
 3103TIP3   OH230799   3.639   2.559   4.804 -0.4944 -0.1684  0.3401
 3103TIP3    H130800   3.578   2.497   4.764 -0.1517 -1.4818  1.7501
 3103TIP3    H230801   3.595   2.588   4.884  0.1048  0.0231  0.6066
 3104TIP3   OH230802   6.651   1.351   4.621  0.3615  0.2906 -0.1705
 3104TIP3    H130803   6.686   1.378   4.536 -0.5205 -0.7487 -0.9074
 3104TIP3    H230804   6.593   1.423   4.646  1.0435  0.8554 -0.1687
 3105TIP3   OH230805   4.389   3.041   4.518  0.4571 -0.8644 -0.4657
 3105TIP3    H130806   4.473   3.087   4.523 -0.1227  0.1459  1.4113
 3105TIP3    H230807   4.330   3.104   4.476  0.2532 -0.8587 -0.1787
 3106TIP3   OH230808   4.042   1.591  11.125  0.2317 -0.4238  0.1362
 3106TIP3    H130809   4.089   1.604  11.207 -0.8256 -0.7084  0.8013
 3106TIP3    H230810   4.028   1.680  11.092  0.2979 -0.2873  0.4678
 3107TIP3   OH230811   6.352   6.014  13.425 -0.3342 -0.3488 -0.6940
 3107TIP3    H130812   6.360   5.959  13.347  1.0037 -0.4682 -0.4851
 3107TIP3    H230813   6.384   6.100  13.397 -0.8981 -0.0877 -0.5654
 3108TIP3   OH230814   4.469   5.927   2.932  0.0495 -0.3856  0.3560
 3108TIP3    H130815   4.515   5.977   3.000 -0.6129 -0.0745  0.5897
 3108TIP3    H230816   4.400   5.880   2.980 -1.8990  1.5825 -0.3201
 3109TIP3   OH230817   2.219   0.574  11.720 -0.3230  0.1088 -0.0365
 3109TIP3    H130818   2.216   0.642  11.652 -0.6137 -0.3723 -0.5105
 3109TIP3    H230819   2.127   0.557  11.740 -0.2545 -0.2798 -0.0536
 3110TIP3   OH230820   4.685   6.210   6.742 -0.7669  0.2948  0.5275
 3110TIP3    H130821   4.687   6.236   6.650 -2.8844  2.0361  0.9028
 3110TIP3    H230822   4.773   6.175   6.758  0.0106  0.9188 -1.8620
 3111TIP3   OH230823   4.658   0.241  11.083  0.3203  0.2267  0.0514
 3111TIP3    H130824   4.590   0.173  11.081  0.8386 -0.3075  0.1561
 3111TIP3    H230825   4.684   0.251  10.992  1.3084 -0.8268  0.1949
 3112TIP3   OH230826   0.831   3.484   3.100 -0.2726  0.5670 -0.3475
 3112TIP3    H130827   0.860   3.531   3.178  0.1210 -2.8938  1.7655
 3112TIP3    H230828   0.749   3.442   3.125  0.7096 -2.0171 -1.0939
 3113TIP3   OH230829   1.933   5.690  17.059  0.6723 -0.2704  0.2541
 3113TIP3    H130830   2.013   5.724  17.017  1.1114 -1.9444 -0.3668
 3113TIP3    H230831   1.883   5.768  17.082  1.8333  0.7895 -0.6537
 3114TIP3   OH230832   5.995   0.907  14.816 -0.1355 -0.7908 -0.6112
 3114TIP3    H130833   5.982   0.982  14.873  0.4274 -0.4720 -0.9000
 3114TIP3    H230834   5.936   0.840  14.851  1.1990 -1.0823  1.1892
 3115TIP3   OH230835   3.266   2.992  15.970 -0.0237 -0.3288 -0.3923
 3115TIP3    H130836   3.333   2.970  16.036  0.7793 -1.3510 -1.4961
 3115TIP3    H230837   3.199   3.038  16.019  1.9575  1.7054  0.5949
 3116TIP3   OH230838   5.292   2.588   3.055  1.0059  0.4969  0.1604
 3116TIP3    H130839   5.337   2.514   3.096  0.2730  0.2060  0.4521
 3116TIP3    H230840   5.269   2.646   3.128 -0.6284 -0.1966  0.2460
 3117TIP3   OH230841   4.899   1.970  11.965 -0.0846  0.1519 -0.1110
 3117TIP3    H130842   4.956   1.906  11.924 -0.8267  0.9106 -2.4765
 3117TIP3    H230843   4.825   1.919  11.999  1.9053 -0.8573  3.1371
 3118TIP3   OH230844   5.029   3.971   0.703 -0.3147  0.2970 -0.2647
 3118TIP3    H130845   5.078   3.899   0.662  1.2955  0.3670  1.3786
 3118TIP3    H230846   5.009   3.938   0.791 -0.2470  1.5493  0.2329
 3119TIP3   OH230847   0.582   2.617   4.115  0.2130 -0.3915 -0.2360
 3119TIP3    H130848   0.611   2.697   4.071  0.6673 -0.3334  0.1603
 3119TIP3    H230849   0.649   2.553   4.094 -1.2139 -1.2989 -2.3319
 3120TIP3   OH230850   6.711   4.587  15.572 -0.2971  0.1498 -0.2500
 3120TIP3    H130851   6.777   4.589  15.502  1.1985 -0.2963  1.0984
 3120TIP3    H230852   6.737   4.515  15.628 -2.9781 -1.1949 -0.5769
 3121TIP3   OH230853   0.044   4.646  11.494  0.3179 -0.2238 -0.3409
 3121TIP3    H130854   0.040   4.595  11.575 -0.3651 -1.6447 -1.2406
 3121TIP3    H230855  -0.028   4.613  11.441  1.4102 -0.0817 -1.9857
 3122TIP3   OH230856   3.819   4.305  10.829 -0.1743  0.5044  0.1814
 3122TIP3    H130857   3.900   4.254  10.819 -1.2678 -1.1703 -0.5779
 3122TIP3    H230858   3.845   4.395  10.813  1.9323  0.3156  1.9921
 3123TIP3   OH230859   1.974   5.189   5.222  0.4155  0.1277 -0.1351
 3123TIP3    H130860   1.882   5.163   5.228  0.4655  0.1444  0.8585
 3123TIP3    H230861   2.021   5.107   5.206  0.1245  0.2872 -2.0416
 3124TIP3   OH230862   0.165   2.085   5.754 -0.1925 -0.8284 -0.0327
 3124TIP3    H130863   0.248   2.095   5.707  0.1850 -0.3355  0.7210
 3124TIP3    H230864   0.153   2.167   5.801 -1.1549 -0.8631 -0.1894
 3125TIP3   OH230865   3.866   2.064   2.836 -0.0197 -0.2137 -0.0925
 3125TIP3    H130866   3.774   2.089   2.848 -0.5536 -1.6673 -0.8545
 3125TIP3    H230867   3.882   2.077   2.742  0.4168 -0.3947 -0.0462
 3126TIP3   OH230868   4.120   3.858  15.363 -0.3342  0.1523 -0.1193
 3126TIP3    H130869   4.125   3.855  15.268 -0.6916 -4.4081 -0.2588
 3126TIP3    H230870   4.028   3.840  15.383 -0.3425  1.3882  1.1520
 3127TIP3   OH230871   0.318   2.929  13.118  0.1906 -0.1956  0.7170
 3127TIP3    H130872   0.322   2.908  13.211 -0.5492 -0.4110  0.7027
 3127TIP3    H230873   0.340   3.023  13.114 -1.6173  0.2867  1.3045
 3128TIP3   OH230874   1.933   5.935  15.764  0.1501 -0.3490 -1.0350
 3128TIP3    H130875   1.985   5.856  15.747 -0.0730 -0.5708 -0.7105
 3128TIP3    H230876   1.991   6.008  15.742 -0.4019 -0.6098 -3.5447
 3129TIP3   OH230877   0.317   4.588   4.696  0.3117 -0.2311  0.5102
 3129TIP3    H130878   0.388   4.587   4.760 -1.7024  1.6848  2.9888
 3129TIP3    H230879   0.256   4.521   4.727 -0.1917 -0.0116  0.0119
 3130TIP3   OH230880   0.392   0.396  14.856  0.2525 -0.4416 -0.6129
 3130TIP3    H130881   0.429   0.313  14.887 -0.3117 -0.7448 -0.7364
 3130TIP3    H230882   0.459   0.461  14.875  0.9198 -1.0058 -0.9815
 3131TIP3   OH230883   3.061   0.854  13.636  0.9075  0.1163 -0.0192
 3131TIP3    H130884   3.146   0.893  13.617  0.8539 -0.1654 -0.8679
 3131TIP3    H230885   3.007   0.873  13.559  0.2081  0.2544  0.4856
 3132TIP3   OH230886   2.529   2.821   5.848 -0.1313 -0.5451  0.2139
 3132TIP3    H130887   2.600   2.791   5.905  0.5482 -0.1686 -0.4294
 3132TIP3    H230888   2.511   2.746   5.791  0.0337 -0.4932  0.0953
 3133TIP3   OH230889   4.077   4.046   4.522  0.0956 -0.4655  0.1061
 3133TIP3    H130890   4.109   4.076   4.437  0.6709  0.2721  0.5689
 3133TIP3    H230891   3.992   4.007   4.504  0.2283 -0.3369 -0.8112
 3134TIP3   OH230892   1.920   0.563  14.305 -0.7291 -0.1638 -0.9068
 3134TIP3    H130893   1.881   0.480  14.333  1.1180 -0.6303  0.4436
 3134TIP3    H230894   1.852   0.629  14.322 -1.2239 -1.0412  0.6446
 3135TIP3   OH230895   0.752   2.530   2.076 -0.3090 -0.3656  0.0286
 3135TIP3    H130896   0.692   2.604   2.063  0.8829  0.6288 -0.0184
 3135TIP3    H230897   0.826   2.567   2.124  0.5039 -1.4370 -0.3535
 3136TIP3   OH230898   1.843   2.839   1.243  0.0515  0.3658 -0.2223
 3136TIP3    H130899   1.906   2.904   1.274 -0.3096  0.6096  0.0012
 3136TIP3    H230900   1.892   2.756   1.245 -0.1601  0.2329  1.7553
 3137TIP3   OH230901   6.062   6.425  15.775  0.8620 -0.0421  0.2509
 3137TIP3    H130902   5.981   6.375  15.786  1.2236 -1.2918 -2.0681
 3137TIP3    H230903   6.036   6.504  15.728  0.9096 -0.2453 -0.1233
 3138TIP3   OH230904   1.141   6.771  13.772 -0.2649  0.5380 -0.1305
 3138TIP3    H130905   1.100   6.808  13.695 -0.5383 -1.1617 -0.8410
 3138TIP3    H230906   1.153   6.678  13.751 -1.4014 -0.2454  2.2888
 3139TIP3   OH230907   1.235   1.575  13.094 -0.0732  0.2649 -0.0389
 3139TIP3    H130908   1.195   1.630  13.162 -2.2403  1.5064 -2.1596
 3139TIP3    H230909   1.165   1.517  13.066  0.6573  0.0219 -1.4490
 3140TIP3   OH230910   0.242   4.126  10.703  0.8931  0.4665 -0.0768
 3140TIP3    H130911   0.174   4.100  10.641 -0.4197 -1.7820  2.1292
 3140TIP3    H230912   0.311   4.165  10.649 -2.1199  3.0822 -2.4557
 3141TIP3   OH230913   5.566   5.290   6.675  0.7463 -0.2571 -0.5863
 3141TIP3    H130914   5.627   5.291   6.749  0.3477 -0.9812 -0.2351
 3141TIP3    H230915   5.510   5.367   6.688  0.3305 -0.6800  0.1730
 3142TIP3   OH230916   5.608   4.757  16.654 -0.0625  0.2195 -0.0396
 3142TIP3    H130917   5.632   4.847  16.633  0.2324  0.0769 -0.3330
 3142TIP3    H230918   5.560   4.763  16.736  2.2395  0.3610  1.3660
 3143TIP3   OH230919   4.350   2.554  14.360  0.2318 -0.6252  0.0357
 3143TIP3    H130920   4.392   2.536  14.444 -0.8528  0.7802  0.9390
 3143TIP3    H230921   4.256   2.554  14.379 -0.0381 -0.1881 -1.1573
 3144TIP3   OH230922   0.960   6.612  11.033 -0.5117  0.0730  0.1352
 3144TIP3    H130923   0.935   6.560  11.110 -0.8659  0.6924  0.4557
 3144TIP3    H230924   0.878   6.655  11.006 -0.5304 -0.6379 -0.9925
 3145TIP3   OH230925   2.611   4.205   4.780  0.6072 -0.4787 -0.8742
 3145TIP3    H130926   2.698   4.218   4.742  1.2341  0.9790  0.8812
 3145TIP3    H230927   2.567   4.289   4.769  1.7090  0.9281  3.5124
 3146TIP3   OH230928   6.376   3.331  15.629  0.0364 -0.0080 -0.3060
 3146TIP3    H130929   6.385   3.247  15.583 -1.1156  0.7785 -2.0864
 3146TIP3    H230930   6.466   3.364  15.637  0.5567 -1.5667  0.8382
 3147TIP3   OH230931   6.438   1.755   6.420  0.5359  0.1541  0.0204
 3147TIP3    H130932   6.399   1.727   6.503  1.7187 -0.6658  0.3257
 3147TIP3    H230933   6.447   1.850   6.429 -1.0670  0.3309  0.0527
 3148TIP3   OH230934   6.190   3.271  17.323  0.6614 -0.3592  0.2246
 3148TIP3    H130935   6.269   3.322  17.340  0.5173  0.5231 -1.6020
 3148TIP3    H230936   6.177   3.220  17.404  3.3488 -0.9303  0.3920
 3149TIP3   OH230937   6.231   0.947  11.338  0.4008 -0.8613  0.4870
 3149TIP3    H130938   6.139   0.972  11.329  0.4041 -0.7030  0.9098
 3149TIP3    H230939   6.271   1.016  11.390  0.6471 -1.1965  0.7478
 3150TIP3   OH230940   6.517   4.590  10.592  0.1078 -0.4201 -0.1599
 3150TIP3    H130941   6.482   4.674  10.620 -0.7329 -0.6137 -0.5894
 3150TIP3    H230942   6.584   4.568  10.657  0.4664  0.6640 -0.1506
 3151TIP3   OH230943   3.006   2.444   3.748 -0.1984 -0.6558 -0.0697
 3151TIP3    H130944   3.073   2.509   3.769 -0.6951  0.9596 -2.9251
 3151TIP3    H230945   3.056   2.367   3.720  0.4020 -0.9117  1.5950
 3152TIP3   OH230946   5.028   5.439  14.303 -0.1712  0.0147 -0.5005
 3152TIP3    H130947   5.109   5.486  14.325 -0.4598 -0.1442  0.9483
 3152TIP3    H230948   5.049   5.347  14.319 -0.2703 -0.1648 -1.3278
 3153TIP3   OH230949   0.540   2.286  15.749 -0.4867  0.1201 -0.1954
 3153TIP3    H130950   0.478   2.217  15.725 -1.4722  1.4786 -1.7034
 3153TIP3    H230951   0.486   2.356  15.784  0.2243  1.0956 -0.9949
 3154TIP3   OH230952   5.340   5.702  12.954  0.2345 -0.5981 -0.3184
 3154TIP3    H130953   5.297   5.779  12.918 -1.0028 -1.6069 -1.1031
 3154TIP3    H230954   5.314   5.702  13.047  1.7811  0.9084  0.1601
 3155TIP3   OH230955   3.578   5.208   5.070  0.3816  0.3095  0.0169
 3155TIP3    H130956   3.643   5.145   5.101  1.8135  1.2596 -0.9002
 3155TIP3    H230957   3.547   5.172   4.987  1.3505  0.8763 -0.6089
 3156TIP3   OH230958   4.135   3.458  15.219 -0.1285 -0.0098  0.0217
 3156TIP3    H130959   4.074   3.482  15.288 -1.2020  1.8372 -1.4828
 3156TIP3    H230960   4.222   3.465  15.260 -0.7820  0.1540  1.4091
 3157TIP3   OH230961   0.291   2.041   1.322  0.2901 -0.4946  0.3582
 3157TIP3    H130962   0.268   2.050   1.229  1.2324  0.8926  0.2223
 3157TIP3    H230963   0.386   2.032   1.322  0.4255  0.6232  1.2288
 3158TIP3   OH230964   4.579   5.909  13.146 -0.1493 -0.6355 -0.3318
 3158TIP3    H130965   4.544   5.826  13.178 -0.2714 -0.0935  1.0449
 3158TIP3    H230966   4.593   5.961  13.226 -1.5321  1.2291 -1.2140
 3159TIP3   OH230967   4.920   5.544   3.436 -0.3029  0.1808 -0.1375
 3159TIP3    H130968   4.908   5.520   3.528 -1.4233  2.1666  0.2924
 3159TIP3    H230969   5.011   5.521   3.418  0.4381  1.1521  1.9578
 3160TIP3   OH230970   2.822   0.609  11.592  0.0467  0.1964 -0.0698
 3160TIP3    H130971   2.917   0.593  11.594  0.6026  3.0898  1.2818
 3160TIP3    H230972   2.814   0.703  11.581 -2.7077  0.0509  0.1587
 3161TIP3   OH230973   3.091   5.436   4.835  0.1999 -0.3393 -0.3675
 3161TIP3    H130974   3.035   5.454   4.759  2.2925  1.7107 -1.5437
 3161TIP3    H230975   3.159   5.377   4.801  1.0282  0.4208 -0.0609
 3162TIP3   OH230976   1.227   5.248   0.275  0.2163 -0.0488 -0.1987
 3162TIP3    H130977   1.299   5.288   0.324 -0.2140 -0.4361  0.7953
 3162TIP3    H230978   1.182   5.322   0.234  1.7489  0.1097 -1.6777
 3163TIP3   OH230979   2.338   1.816  13.675  0.2181  0.0085 -0.5398
 3163TIP3    H130980   2.301   1.790  13.591  0.1221 -1.3840 -0.0981
 3163TIP3    H230981   2.270   1.870  13.716  0.3875  0.9561 -1.4530
 3164TIP3   OH230982   4.691   6.204  15.766 -0.0065 -0.4607  0.0926
 3164TIP3    H130983   4.642   6.181  15.687 -1.0566 -0.1009  0.6258
 3164TIP3    H230984   4.697   6.300  15.763  3.4795 -0.5531 -1.6110
 3165TIP3   OH230985   0.323   0.338  10.867  0.5181  0.3556 -0.0435
 3165TIP3    H130986   0.375   0.418  10.871 -1.2049  1.5546 -0.3610
 3165TIP3    H230987   0.278   0.342  10.783  0.4383 -0.9935 -0.0899
 3166TIP3   OH230988   3.889   6.369  11.223 -0.0277 -0.1192 -0.1050
 3166TIP3    H130989   3.876   6.275  11.216  0.4822 -0.1892 -0.1815
 3166TIP3    H230990   3.912   6.396  11.133  1.4430 -0.1895  0.2221
 3167TIP3   OH230991   1.870   1.414   0.343  0.0165  0.4074  0.3068
 3167TIP3    H130992   1.876   1.364   0.424  1.1884  0.7792  0.4615
 3167TIP3    H230993   1.781   1.397   0.311  0.3686 -1.8158  0.3315
 3168TIP3   OH230994   2.494   1.612  14.521 -0.0963 -0.4774  0.4375
 3168TIP3    H130995   2.560   1.638  14.586  1.2163 -0.2885 -0.9162
 3168TIP3    H230996   2.425   1.570  14.572  0.1666  1.0099  2.1314
 3169TIP3   OH230997   2.850   5.174  10.962 -0.1243 -0.0521 -0.6501
 3169TIP3    H130998   2.870   5.102  11.023 -2.4419 -1.2378 -1.1873
 3169TIP3    H230999   2.864   5.137  10.875 -0.4385  0.4580 -0.9220
 3170TIP3   OH231000   6.552   1.496   0.451  0.4387 -0.1846  0.2466
 3170TIP3    H131001   6.608   1.500   0.528  0.5760  0.5551  0.1159
 3170TIP3    H231002   6.613   1.489   0.377  0.4161  1.5337  0.0359
 3171TIP3   OH231003   2.699   3.742   1.818  0.5581  0.3686  0.7083
 3171TIP3    H131004   2.771   3.692   1.857  0.3187 -0.4956  0.0851
 3171TIP3    H231005   2.642   3.763   1.892 -0.3561 -2.0225  0.7926
 3172TIP3   OH231006   0.915   6.485   5.586  0.5297 -0.2567  0.4237
 3172TIP3    H131007   0.935   6.411   5.529  0.4607  0.8273 -1.0430
 3172TIP3    H231008   0.921   6.449   5.675  1.1642 -1.8443 -0.2359
 3173TIP3   OH231009   5.324   6.570  11.175 -0.0489  0.1481  0.6232
 3173TIP3    H131010   5.364   6.530  11.253 -0.8935  0.7227  1.3708
 3173TIP3    H231011   5.376   6.648  11.159  0.2251 -0.0565  0.5250
 3174TIP3   OH231012   3.743   0.091  14.060 -0.3984  0.4107 -0.0103
 3174TIP3    H131013   3.723   0.118  13.970  0.6489  0.9292 -0.0988
 3174TIP3    H231014   3.758   0.173  14.107 -1.1674  0.1578  0.7116
 3175TIP3   OH231015   1.557   5.030  11.596 -0.6120  0.0541 -0.2333
 3175TIP3    H131016   1.503   4.960  11.632 -0.7729 -0.1052 -0.7706
 3175TIP3    H231017   1.646   4.995  11.597 -0.4903  0.3783  0.8015
 3176TIP3   OH231018   4.538   0.860   5.357  1.0268 -0.0136  0.2375
 3176TIP3    H131019   4.519   0.880   5.449 -2.2198 -2.2946  0.2529
 3176TIP3    H231020   4.563   0.768   5.357  1.5703  0.1110 -1.1280
 3177TIP3   OH231021   1.467   2.350  14.700 -0.0581  0.0835  0.3059
 3177TIP3    H131022   1.406   2.421  14.679 -0.1314 -0.4587 -1.4246
 3177TIP3    H231023   1.549   2.375  14.659 -0.0396 -0.7415 -0.1872
 3178TIP3   OH231024   4.578   0.123   6.007  0.1013  0.9304 -0.5221
 3178TIP3    H131025   4.613   0.203   6.046 -0.0925  1.0129 -0.5145
 3178TIP3    H231026   4.654   0.066   5.996 -0.1662 -0.4610  3.1413
 3179TIP3   OH231027   4.669   2.981  13.647  0.1695 -0.2194  0.1751
 3179TIP3    H131028   4.621   2.937  13.577 -0.4119 -0.8768  0.9645
 3179TIP3    H231029   4.710   3.057  13.605 -0.3254 -0.4982 -0.8259
 3180TIP3   OH231030   6.646   5.253   6.727 -0.3360  0.1826 -0.2656
 3180TIP3    H131031   6.621   5.259   6.635 -0.4239  0.9652 -0.1970
 3180TIP3    H231032   6.563   5.254   6.774 -0.2803  0.0513 -0.1646
 3181TIP3   OH231033   4.587   1.437  16.679 -0.1693  0.4963  0.0108
 3181TIP3    H131034   4.641   1.455  16.602  0.7985  0.0387  0.5675
 3181TIP3    H231035   4.646   1.392  16.739 -1.3850 -0.6631  0.3563
 3182TIP3   OH231036   2.221   2.087  13.293  0.2968 -0.2826  1.3800
 3182TIP3    H131037   2.140   2.094  13.244 -0.3971 -0.4632  2.4569
 3182TIP3    H231038   2.214   2.155  13.360  0.9790 -0.3811  1.5576
 3183TIP3   OH231039   6.012   2.680   2.854 -0.0428  0.4061 -0.1071
 3183TIP3    H131040   5.935   2.732   2.831  0.3454  0.2058 -2.0076
 3183TIP3    H231041   6.055   2.663   2.771  2.4867  1.1447  0.9706
 3184TIP3   OH231042   2.044   1.187  15.948 -0.3529  0.6049  0.3695
 3184TIP3    H131043   2.025   1.191  15.854  0.3088 -3.6355 -0.1506
 3184TIP3    H231044   1.958   1.192  15.990 -1.4971 -3.4236 -1.0095
 3185TIP3   OH231045   5.245   1.741  13.396  0.6078  0.0932  0.3894
 3185TIP3    H131046   5.200   1.719  13.477  0.8003 -3.3302 -0.2660
 3185TIP3    H231047   5.178   1.778  13.339  0.0110  0.5485  1.3744
 3186TIP3   OH231048   0.704   4.757   5.068  0.3204 -0.3742 -0.0265
 3186TIP3    H131049   0.664   4.746   5.155  1.8545 -1.8262  0.5434
 3186TIP3    H231050   0.629   4.762   5.008 -0.7481 -0.8197  1.2175
 3187TIP3   OH231051   5.602   0.322  13.270 -0.1541 -0.4958  0.1075
 3187TIP3    H131052   5.584   0.249  13.212  0.4141 -1.5383  1.1937
 3187TIP3    H231053   5.651   0.384  13.216 -2.2589 -0.0264 -1.3486
 3188TIP3   OH231054   5.629   1.727  12.556 -0.7086 -0.4321 -0.4700
 3188TIP3    H131055   5.709   1.773  12.584 -1.4569  0.1720  0.7614
 3188TIP3    H231056   5.610   1.667  12.628 -2.1008  0.3982 -0.1113
 3189TIP3   OH231057   1.476   0.246   5.843 -0.8366 -0.0552 -0.4095
 3189TIP3    H131058   1.408   0.307   5.814 -1.5127 -0.0633  1.0630
 3189TIP3    H231059   1.487   0.265   5.936  0.9732 -0.2728 -0.5341
 3190TIP3   OH231060   2.409   0.967   1.629 -0.4081 -0.1988 -1.4062
 3190TIP3    H131061   2.444   0.878   1.636  0.2587  0.1786  0.8724
 3190TIP3    H231062   2.320   0.961   1.664 -0.9592 -0.2612 -2.7848
 3191TIP3   OH231063   5.190   2.022  13.697 -0.0159 -0.6030  0.1212
 3191TIP3    H131064   5.103   2.014  13.658  0.7784 -2.1807 -1.4941
 3191TIP3    H231065   5.245   2.055  13.627  0.6437  0.8228  1.2581
 3192TIP3   OH231066   4.450   2.061  13.637 -0.1579  0.6624  0.6261
 3192TIP3    H131067   4.528   2.116  13.626  0.6628 -0.6755 -0.6994
 3192TIP3    H231068   4.480   1.973  13.612 -2.3734  0.3119 -1.0583
 3193TIP3   OH231069   2.013   3.111  15.450 -0.2649  0.4365 -0.3380
 3193TIP3    H131070   1.961   3.110  15.370 -0.1269  1.3078 -0.4582
 3193TIP3    H231071   2.083   3.049  15.434 -0.9789 -0.3755 -0.3698
 3194TIP3   OH231072   1.338   6.785   0.014 -0.7495 -0.2084  0.2571
 3194TIP3    H131073   1.292   6.826  -0.060 -0.7904 -0.9946 -0.1579
 3194TIP3    H231074   1.392   6.856   0.050 -1.1003  0.3125 -0.2128
 3195TIP3   OH231075   1.453   2.556  16.997 -0.0153 -0.7291 -0.3223
 3195TIP3    H131076   1.434   2.579  16.906 -0.4935  2.0981  0.3755
 3195TIP3    H231077   1.367   2.543  17.037  0.2017 -2.1992 -0.2875
 3196TIP3   OH231078   6.746   5.924  17.253  0.2541  0.6517 -0.2709
 3196TIP3    H131079   6.723   5.919  17.160 -0.5850  0.5600 -0.0708
 3196TIP3    H231080   6.754   6.018  17.271  0.1627  0.6810 -0.3808
 3197TIP3   OH231081   6.714   6.656   6.050 -0.5346 -0.5518  0.7996
 3197TIP3    H131082   6.744   6.631   6.137  1.5146  0.3733  0.4300
 3197TIP3    H231083   6.669   6.740   6.063 -2.0942 -1.4122  1.2069
 3198TIP3   OH231084   6.769   6.515  13.355  0.3929  0.5516 -0.9421
 3198TIP3    H131085   6.864   6.528  13.360  0.3012  2.0957 -2.2855
 3198TIP3    H231086   6.758   6.421  13.339  1.6625  0.2912 -0.3976
 3199TIP3   OH231087   1.641   3.447   0.848 -0.6693  0.2248 -0.5024
 3199TIP3    H131088   1.585   3.507   0.800  0.4098  2.5749  0.9660
 3199TIP3    H231089   1.728   3.460   0.811 -0.6836 -1.8795 -1.4031
 3200TIP3   OH231090   2.196   6.348  16.759  0.5832 -0.1020 -0.3489
 3200TIP3    H131091   2.263   6.297  16.805 -1.5341 -3.6222 -0.7715
 3200TIP3    H231092   2.122   6.351  16.821  0.5044  2.3103 -0.4804
 3201TIP3   OH231093   2.549   0.827  13.437 -0.1833 -0.4884  0.3101
 3201TIP3    H131094   2.507   0.743  13.420 -0.6407 -0.1261 -0.4160
 3201TIP3    H231095   2.477   0.886  13.458  0.0105 -0.0128 -0.3140
 3202TIP3   OH231096   6.799   4.091  14.987 -0.7840  0.3413  0.4176
 3202TIP3    H131097   6.739   4.096  14.913 -0.1815  0.4373 -0.0664
 3202TIP3    H231098   6.767   4.017  15.039  0.0541 -1.1308 -1.0696
 3203TIP3   OH231099   1.197   3.445   5.382 -0.0780  0.1289 -0.1303
 3203TIP3    H131100   1.155   3.524   5.346 -1.2161 -0.6148 -0.4955
 3203TIP3    H231101   1.250   3.411   5.310 -0.5220 -0.0873 -0.3552
 3204TIP3   OH231102   0.412   3.324   0.802 -0.2711 -0.1431 -0.4538
 3204TIP3    H131103   0.380   3.350   0.716  1.6359 -0.4726 -1.3291
 3204TIP3    H231104   0.468   3.397   0.829 -0.6085 -0.1847  0.3628
 3205TIP3   OH231105   6.464   3.996   4.678 -0.5236 -0.2480 -0.0985
 3205TIP3    H131106   6.525   4.062   4.710 -0.9022 -0.9318  2.1899
 3205TIP3    H231107   6.436   4.029   4.592  2.5819  0.3482 -1.0266
 3206TIP3   OH231108   1.204   0.020   2.194  0.0642  0.0102  0.1736
 3206TIP3    H131109   1.253  -0.031   2.129  0.8654 -1.2202  1.6700
 3206TIP3    H231110   1.262   0.092   2.218  0.4066 -0.4131  0.6292
 3207TIP3   OH231111   3.368   5.382   5.251 -0.2490 -0.0743 -0.5269
 3207TIP3    H131112   3.432   5.376   5.180 -1.3698 -2.1366 -1.4294
 3207TIP3    H231113   3.285   5.357   5.212 -0.9239 -1.2233  1.4537
 3208TIP3   OH231114   4.681   4.138  17.253 -0.4183  0.0881  0.4440
 3208TIP3    H131115   4.701   4.114  17.162  2.0545  0.2901  0.8698
 3208TIP3    H231116   4.663   4.054  17.296 -0.9633 -0.0671 -0.0600
 3209TIP3   OH231117   0.134   3.102  17.315  0.7238 -0.4449  0.1851
 3209TIP3    H131118   0.147   3.171  17.250  1.6655 -1.3599 -0.6248
 3209TIP3    H231119   0.197   3.122  17.385  0.2601  0.0940  0.4570
 3210TIP3   OH231120   2.027   1.955  13.142  0.1415 -0.1873  0.1117
 3210TIP3    H131121   1.956   1.955  13.207  1.6159 -0.2112  1.8008
 3210TIP3    H231122   2.045   1.862  13.127 -0.2699 -0.1832 -0.4390
 3211TIP3   OH231123   4.671   0.727   2.968  0.3083  1.4756  0.1450
 3211TIP3    H131124   4.724   0.701   3.043 -2.8163 -1.2775  1.6585
 3211TIP3    H231125   4.684   0.657   2.904 -2.1873  0.0982  1.0187
 3212TIP3   OH231126   0.713   5.997  15.519  0.0213  0.0213 -0.3006
 3212TIP3    H131127   0.709   5.923  15.580  0.3967  0.6843  0.5390
 3212TIP3    H231128   0.628   6.041  15.529  0.3644  0.5552  0.2903
 3213TIP3   OH231129   2.974   5.124   2.888 -0.3426 -0.0953  0.3472
 3213TIP3    H131130   3.049   5.182   2.902 -1.2626  0.5498  3.5523
 3213TIP3    H231131   2.918   5.172   2.827  0.8805  0.3423 -0.4778
 3214TIP3   OH231132   1.731   2.408  12.420  0.6427  0.4974  0.0095
 3214TIP3    H131133   1.656   2.362  12.458  1.6588 -0.0068  1.5018
 3214TIP3    H231134   1.797   2.340  12.408  1.6753  1.3078  0.9319
 3215TIP3   OH231135   5.602   0.657  12.221 -0.4193  0.1942  0.0389
 3215TIP3    H131136   5.559   0.715  12.158 -0.9709 -1.6356 -1.3703
 3215TIP3    H231137   5.695   0.683  12.218 -0.5230  0.4778 -1.1567
 3216TIP3   OH231138   5.114   2.558   2.818 -0.1936 -0.3817  0.1936
 3216TIP3    H131139   5.144   2.629   2.762 -0.3197  0.7700  1.5151
 3216TIP3    H231140   5.154   2.576   2.903  1.1094 -2.8288  0.1834
 3217TIP3   OH231141   3.915   3.016  13.472 -0.1483 -0.3568 -0.1306
 3217TIP3    H131142   3.837   3.005  13.417  0.7507 -0.3981 -1.4580
 3217TIP3    H231143   3.935   2.928  13.503 -0.6414 -0.3413  0.2396
 3218TIP3   OH231144   3.695   4.623  14.821  0.3996  0.1654 -0.0209
 3218TIP3    H131145   3.705   4.717  14.835  1.3794  0.1267 -0.3760
 3218TIP3    H231146   3.629   4.596  14.885  0.3107  1.0408  0.2752
 3219TIP3   OH231147   4.296   0.815   4.000 -0.3176  0.1828  0.3085
 3219TIP3    H131148   4.292   0.898   4.047  2.8461 -0.4823  2.0266
 3219TIP3    H231149   4.311   0.839   3.909 -0.6744  1.4558  0.5669
 3220TIP3   OH231150   0.032   3.917   6.074 -0.5531 -0.0559  0.0588
 3220TIP3    H131151  -0.031   3.882   6.137 -1.4273  0.0120 -0.7708
 3220TIP3    H231152   0.003   4.006   6.058 -0.5287 -0.1835 -0.7036
 3221TIP3   OH231153   3.420   4.119   4.272  0.1541  0.7973  0.1672
 3221TIP3    H131154   3.446   4.184   4.208  0.8406 -0.4028 -0.8216
 3221TIP3    H231155   3.340   4.155   4.312  0.1811  1.9459 -0.7659
 3222TIP3   OH231156   4.266   5.953   3.834 -0.6049  0.2154 -0.1138
 3222TIP3    H131157   4.285   5.972   3.742 -1.0058  3.3263  0.3401
 3222TIP3    H231158   4.178   5.988   3.848  0.0463  1.2152  1.7806
 3223TIP3   OH231159   0.107   3.860  11.293 -0.1043 -0.2111  0.0692
 3223TIP3    H131160   0.153   3.814  11.363  1.0500  0.7953  0.0029
 3223TIP3    H231161   0.015   3.841  11.309  0.2514 -1.4613  0.7964
 3224TIP3   OH231162   1.116   1.838   1.198 -0.9400 -0.2782 -0.3854
 3224TIP3    H131163   1.098   1.780   1.124 -0.7442 -1.5161  0.4938
 3224TIP3    H231164   1.029   1.856   1.236 -0.8904 -1.3411  0.2870
 3225TIP3   OH231165   5.656   1.793   4.592  0.5918  0.2133  0.0954
 3225TIP3    H131166   5.657   1.887   4.573 -2.1629  0.2634 -0.2975
 3225TIP3    H231167   5.612   1.786   4.677 -1.0529 -0.7640 -0.7837
 3226TIP3   OH231168   2.143   1.196   3.002  0.2462 -0.2945 -0.5748
 3226TIP3    H131169   2.119   1.104   3.011 -0.5336 -0.0717 -0.3279
 3226TIP3    H231170   2.239   1.195   3.003  0.2865 -0.9031  1.5863
 3227TIP3   OH231171   4.861   2.848  12.863 -0.1747  0.4608 -0.3689
 3227TIP3    H131172   4.938   2.807  12.902 -0.1665  0.0716 -0.7798
 3227TIP3    H231173   4.895   2.893  12.785 -0.2021  1.1628  0.0176
 3228TIP3   OH231174   3.506   0.090  15.523 -0.0782 -0.3591 -0.8006
 3228TIP3    H131175   3.580   0.059  15.470  0.2618  0.4556 -0.8179
 3228TIP3    H231176   3.532   0.178  15.550 -1.6900  0.5403 -2.0508
 3229TIP3   OH231177   6.403   5.379  14.894  0.0098 -0.6270  0.2322
 3229TIP3    H131178   6.371   5.435  14.966  1.2370 -0.4075  0.6408
 3229TIP3    H231179   6.325   5.333  14.862 -0.4753 -1.2285  2.1456
 3230TIP3   OH231180   2.242   3.926  12.674  0.1528 -0.1301  0.6737
 3230TIP3    H131181   2.168   3.871  12.646 -0.9122  1.7262 -0.3628
 3230TIP3    H231182   2.202   3.996  12.725  1.0965  1.1960 -0.3191
 3231TIP3   OH231183   2.069   4.888  13.434 -0.5524 -0.2642 -0.0353
 3231TIP3    H131184   2.069   4.888  13.529 -0.0842  1.1012 -0.0138
 3231TIP3    H231185   2.066   4.795  13.410  2.7160 -0.8898  1.3493
 3232TIP3   OH231186   0.888   6.771  16.340 -0.7110 -0.2513 -0.3536
 3232TIP3    H131187   0.853   6.856  16.369 -1.2496 -1.2941  2.3390
 3232TIP3    H231188   0.810   6.717  16.325 -0.3558 -0.5006 -1.3913
 3233TIP3   OH231189   0.525   0.499   4.561  0.3590 -0.1148  0.4890
 3233TIP3    H131190   0.483   0.510   4.476  0.1813 -1.6477  0.3426
 3233TIP3    H231191   0.606   0.550   4.555 -1.1690  2.4585  0.5964
 3234TIP3   OH231192   5.690   6.641   4.451  0.1401 -0.0326  1.0286
 3234TIP3    H131193   5.684   6.706   4.521  1.6429  0.1665  1.0107
 3234TIP3    H231194   5.618   6.581   4.467 -0.4351  0.8571  1.8674
 3235TIP3   OH231195   3.282   6.077  11.304 -1.2691  0.7108 -0.0321
 3235TIP3    H131196   3.199   6.032  11.316 -1.3982  1.3387  1.6779
 3235TIP3    H231197   3.284   6.144  11.373 -0.1294  1.8810 -1.1343
 3236TIP3   OH231198   2.403   3.962   0.474  0.4627  0.0286  0.3108
 3236TIP3    H131199   2.494   3.944   0.495  0.5874 -0.3384 -0.4899
 3236TIP3    H231200   2.404   3.987   0.382  0.0566  2.4220  0.8868
 3237TIP3   OH231201   4.336   2.263  14.559 -0.5232 -0.2884 -0.2209
 3237TIP3    H131202   4.241   2.265  14.570 -0.5870  2.2849 -0.5068
 3237TIP3    H231203   4.367   2.198  14.622 -2.5271 -2.2661 -1.1348
 3238TIP3   OH231204   1.547   1.577   2.643 -0.1861  0.2202  0.0712
 3238TIP3    H131205   1.587   1.629   2.712  0.1857 -1.1544  0.9377
 3238TIP3    H231206   1.615   1.569   2.576  1.0149 -1.8591  1.4050
 3239TIP3   OH231207   2.310   4.229   2.662 -0.6087  0.2463 -0.3423
 3239TIP3    H131208   2.281   4.139   2.677 -1.0917  0.5640  0.7100
 3239TIP3    H231209   2.392   4.237   2.712 -0.8077  0.5196 -0.0559
 3240TIP3   OH231210   0.701   6.525   3.513  0.3126 -0.6382  0.1525
 3240TIP3    H131211   0.698   6.607   3.464  0.4653 -0.1950  0.8672
 3240TIP3    H231212   0.792   6.516   3.540  0.0519 -0.3846  1.1507
 3241TIP3   OH231213   4.882   3.935  11.595  0.1641  0.2351  0.1854
 3241TIP3    H131214   4.857   3.929  11.687  0.3305 -1.2220  0.1525
 3241TIP3    H231215   4.803   3.910  11.547  0.4004 -0.0954 -0.0324
 3242TIP3   OH231216   4.353   2.944   3.016  0.6800  0.3636  0.5713
 3242TIP3    H131217   4.356   2.862   2.967  0.4902  0.1111  0.9777
 3242TIP3    H231218   4.286   2.996   2.971 -0.1450 -0.2169  1.0917
 3243TIP3   OH231219   4.230   3.492  13.028 -0.1809 -0.5863  0.4669
 3243TIP3    H131220   4.137   3.497  13.007 -0.3048 -0.7199  0.9628
 3243TIP3    H231221   4.245   3.565  13.087 -0.2300 -1.2403  1.3035
 3244TIP3   OH231222   5.126   4.411   5.616  0.8492 -0.8027 -0.2428
 3244TIP3    H131223   5.212   4.369   5.611  0.8608 -0.8632  0.3626
 3244TIP3    H231224   5.093   4.385   5.702  1.2238  1.1321  0.5289
 3245TIP3   OH231225   3.485   1.826  11.558  0.1358  0.5207 -0.2326
 3245TIP3    H131226   3.445   1.912  11.551  2.3464  1.5464 -0.8255
 3245TIP3    H231227   3.532   1.813  11.476  0.9155 -0.6873  0.3676
 3246TIP3   OH231228   2.467   1.100   4.302 -0.4734 -0.2988  0.2599
 3246TIP3    H131229   2.395   1.077   4.359 -0.8816  0.7511  0.1854
 3246TIP3    H231230   2.518   1.165   4.351  1.8945 -2.7707  1.3683
 3247TIP3   OH231231   0.869   2.780   4.077 -0.1295  0.3881  0.1042
 3247TIP3    H131232   0.849   2.829   4.157  0.8071  1.6169 -0.3836
 3247TIP3    H231233   0.897   2.694   4.108 -1.3279  0.2982  1.0104
 3248TIP3   OH231234   6.104   1.336   1.055  0.1349  0.0615  0.8338
 3248TIP3    H131235   6.061   1.413   1.092 -1.2686  0.0699 -0.7162
 3248TIP3    H231236   6.049   1.262   1.082 -1.7346  0.1933 -2.2367
 3249TIP3   OH231237   3.871   4.217  14.154 -0.2665 -0.4062  0.5111
 3249TIP3    H131238   3.785   4.180  14.131  0.3082 -1.8293  0.5579
 3249TIP3    H231239   3.895   4.270  14.078 -1.1453 -0.0575  0.4662
 3250TIP3   OH231240   2.028   3.349   5.531 -0.2200  0.6898  0.1125
 3250TIP3    H131241   2.044   3.254   5.526 -0.1032  0.6780  0.6439
 3250TIP3    H231242   1.943   3.356   5.574 -0.8111  0.8020 -1.0290
 3251TIP3   OH231243   1.984   0.999   5.026 -0.1867 -0.7006  0.0072
 3251TIP3    H131244   1.933   1.078   5.044  0.4379 -0.0849 -0.8200
 3251TIP3    H231245   2.062   1.031   4.980  0.4337 -1.7244  0.3007
 3252TIP3   OH231246   3.789   2.994  10.941  0.4518  0.2254  0.1089
 3252TIP3    H131247   3.738   2.962  10.867  0.5241  0.8299 -0.2048
 3252TIP3    H231248   3.731   3.057  10.985  0.8103  0.6826 -0.0700
 3253TIP3   OH231249   3.832   4.986   3.028 -0.3456 -0.4350 -0.0986
 3253TIP3    H131250   3.831   4.891   3.032  1.5693 -0.6255 -2.2341
 3253TIP3    H231251   3.751   5.009   2.982  0.0492 -1.2103 -1.2364
 3254TIP3   OH231252   5.192   3.447  16.046  0.1436 -0.1794  0.0092
 3254TIP3    H131253   5.172   3.485  15.960  1.9410  0.5620 -0.1413
 3254TIP3    H231254   5.110   3.450  16.094 -0.7202  0.0905 -1.4367
 3255TIP3   OH231255   6.336   1.879   4.389 -0.6674  0.6149 -0.3393
 3255TIP3    H131256   6.322   1.784   4.390 -0.2653  0.5194 -1.7141
 3255TIP3    H231257   6.425   1.890   4.356 -0.5607  1.4636  0.2102
 3256TIP3   OH231258   4.263   2.442  13.240  0.4137 -0.0857  0.5350
 3256TIP3    H131259   4.202   2.373  13.263  0.5898 -0.5177 -0.2516
 3256TIP3    H231260   4.344   2.396  13.217  0.9378  0.4571  1.2365
 3257TIP3   OH231261   3.737   2.055   4.906  0.0700 -0.5287 -0.1752
 3257TIP3    H131262   3.688   1.994   4.962 -0.4312 -0.5348 -0.6159
 3257TIP3    H231263   3.828   2.047   4.937  0.4531 -3.1552 -1.6525
 3258TIP3   OH231264   2.885   6.738   4.952 -0.4573 -0.8368 -0.3993
 3258TIP3    H131265   2.929   6.668   4.905 -0.1685 -0.5133 -0.6089
 3258TIP3    H231266   2.836   6.785   4.885  2.9725  2.0268 -1.1595
 3259TIP3   OH231267   5.242   3.450   1.731  0.0800  0.0069  0.1094
 3259TIP3    H131268   5.282   3.421   1.813 -0.4752  1.6579  1.0108
 3259TIP3    H231269   5.273   3.387   1.666  1.4079 -0.7262  1.3798
 3260TIP3   OH231270   5.686   6.083  16.668  0.4607  0.5192 -0.1647
 3260TIP3    H131271   5.595   6.074  16.640 -0.1711  3.7043  0.5223
 3260TIP3    H231272   5.697   6.017  16.736 -1.1332 -0.2692 -0.6146
 3261TIP3   OH231273   1.654   3.224   4.589 -0.0523 -0.3680 -0.1872
 3261TIP3    H131274   1.745   3.238   4.616 -0.0511 -1.8909  0.6914
 3261TIP3    H231275   1.602   3.250   4.665 -0.2748 -0.8620 -0.1696
 3262TIP3   OH231276   0.429   0.946  12.786 -0.2992  0.6223  0.6936
 3262TIP3    H131277   0.370   0.959  12.860 -1.1860 -1.5949  0.4686
 3262TIP3    H231278   0.431   0.851  12.774  1.5981  0.7805 -0.7192
 3263TIP3   OH231279   0.788   2.653   3.126 -0.4759 -0.4015  0.8205
 3263TIP3    H131280   0.693   2.644   3.130 -0.6131  0.7714  0.4645
 3263TIP3    H231281   0.821   2.566   3.151 -1.6309 -0.9345  0.5715
 3264TIP3   OH231282   4.997   5.798  12.150  0.7216 -0.0375 -0.5337
 3264TIP3    H131283   4.933   5.859  12.115  2.3001  1.2350 -1.3207
 3264TIP3    H231284   4.946   5.721  12.175 -0.9033  0.3565 -2.4490
 3265TIP3   OH231285   0.131   1.905  16.592  0.5727  0.7571  0.2047
 3265TIP3    H131286   0.146   1.820  16.551 -1.6085  0.8906 -0.9939
 3265TIP3    H231287   0.152   1.969  16.525 -2.1517  0.9978 -0.5462
 3266TIP3   OH231288   1.591   1.924   5.682 -0.0017 -0.2216  0.3338
 3266TIP3    H131289   1.609   1.833   5.706 -0.2798 -1.1268 -2.5411
 3266TIP3    H231290   1.677   1.963   5.669  0.1394 -1.1061 -1.7159
 3267TIP3   OH231291   0.982   6.267  13.591 -0.1250  0.5358 -0.2559
 3267TIP3    H131292   0.931   6.186  13.598  0.4561  0.2340  0.6486
 3267TIP3    H231293   0.935   6.320  13.527 -1.5264  0.2189  0.4769
 3268TIP3   OH231294   0.955   5.419  12.826  1.1945  0.6104  0.3788
 3268TIP3    H131295   1.032   5.367  12.846  1.9323  1.3502 -0.4118
 3268TIP3    H231296   0.990   5.506  12.803  0.0389  1.3730  1.3495
 3269TIP3   OH231297   3.088   1.404   1.069  0.0518 -0.3468 -0.2928
 3269TIP3    H131298   3.096   1.500   1.073  0.4259 -0.3354 -1.1456
 3269TIP3    H231299   3.060   1.386   0.980  1.0213 -1.0958 -0.4617
 3270TIP3   OH231300   2.328   5.473   3.491 -0.2644  0.9647  0.1641
 3270TIP3    H131301   2.304   5.406   3.556 -1.3499  1.1243 -0.0522
 3270TIP3    H231302   2.410   5.509   3.524  0.3946 -0.5266  0.2414
 3271TIP3   OH231303   4.405   0.585   0.580  0.4265  0.3816 -0.1355
 3271TIP3    H131304   4.404   0.668   0.628  0.4705 -0.1869  0.8617
 3271TIP3    H231305   4.398   0.518   0.647 -1.0141 -0.4024 -1.0136
 3272TIP3   OH231306   1.631   6.429   1.294 -0.1164 -0.3798 -0.0030
 3272TIP3    H131307   1.674   6.468   1.370  0.0356 -0.3044 -0.1264
 3272TIP3    H231308   1.552   6.482   1.281  1.0543  1.1231 -1.3315
 3273TIP3   OH231309   5.985   5.472   4.624  0.4389 -0.1862  0.1751
 3273TIP3    H131310   5.955   5.432   4.706  1.4630  0.7727  1.0620
 3273TIP3    H231311   6.001   5.563   4.647 -1.3964  0.6812 -1.6730
 3274TIP3   OH231312   4.855   1.531   5.614 -0.1972  0.9001 -0.0644
 3274TIP3    H131313   4.911   1.608   5.618 -1.4493  1.8233  0.4839
 3274TIP3    H231314   4.857   1.496   5.703  0.7572 -0.0045 -0.4292
 3275TIP3   OH231315   5.694   1.236  11.950 -0.2486 -0.0506  0.2489
 3275TIP3    H131316   5.772   1.257  11.898 -1.2167  2.7138 -0.3047
 3275TIP3    H231317   5.621   1.247  11.889 -1.1557 -1.4269  1.0451
 3276TIP3   OH231318   0.454   4.790  14.221  0.8628  0.7347  0.4190
 3276TIP3    H131319   0.432   4.776  14.128 -0.5828 -0.9833  0.9466
 3276TIP3    H231320   0.491   4.878  14.224 -2.7259  2.5145 -1.2322
 3277TIP3   OH231321   2.779   3.025   5.858 -0.1407 -0.2008 -0.1617
 3277TIP3    H131322   2.801   3.084   5.931  0.6535  0.6502 -1.0636
 3277TIP3    H231323   2.684   3.015   5.864 -0.1775  0.4269  0.5639
 3278TIP3   OH231324   0.771   5.946  17.163  0.0136 -0.2142 -0.4767
 3278TIP3    H131325   0.693   5.956  17.218 -1.0578  0.5853 -2.0592
 3278TIP3    H231326   0.785   5.851  17.158 -0.0241 -0.3055  0.9398
 3279TIP3   OH231327   2.100   4.227   3.597  0.5554 -0.4421 -0.3136
 3279TIP3    H131328   2.048   4.238   3.517  1.6441 -0.1075 -0.9971
 3279TIP3    H231329   2.147   4.310   3.605  1.2073 -0.8553  0.1222
 3280TIP3   OH231330   2.279   5.982  12.464  0.5445  0.1565 -0.0790
 3280TIP3    H131331   2.204   5.925  12.448 -0.1325  1.4134 -1.6436
 3280TIP3    H231332   2.349   5.923  12.493 -0.3811 -1.3322 -0.7753
 3281TIP3   OH231333   0.089   2.698   1.635 -0.1373  0.4144  0.6702
 3281TIP3    H131334   0.074   2.790   1.612  0.7036  0.6786  1.1079
 3281TIP3    H231335   0.019   2.677   1.697 -1.5727  0.1236 -0.9916
 3282TIP3   OH231336   4.225   3.020  11.572 -0.4914 -0.4632 -0.3993
 3282TIP3    H131337   4.270   2.942  11.541  0.2591 -0.7064  1.1594
 3282TIP3    H231338   4.225   3.080  11.498 -0.1270 -1.5368 -1.2884
 3283TIP3   OH231339   6.082   4.161  17.308  0.5846 -0.3631 -0.1890
 3283TIP3    H131340   6.162   4.213  17.314 -0.5143  1.2992  0.4338
 3283TIP3    H231341   6.018   4.220  17.269 -0.9733 -0.9110  1.4589
 3284TIP3   OH231342   4.591   5.488  16.944 -0.2710  0.2490  0.3978
 3284TIP3    H131343   4.595   5.581  16.964 -1.4708  0.2337  0.7677
 3284TIP3    H231344   4.503   5.474  16.909 -0.4170 -0.9013  1.1621
 3285TIP3   OH231345   5.848   0.947   5.492  0.5777 -0.2625 -0.3861
 3285TIP3    H131346   5.917   0.890   5.458  2.2215  1.4228 -0.0636
 3285TIP3    H231347   5.874   0.965   5.583  0.3429  1.2933 -0.5993
 3286TIP3   OH231348   4.379   1.676  16.568 -0.5776  0.0162  0.2558
 3286TIP3    H131349   4.383   1.594  16.519  1.2053  1.0371 -1.4352
 3286TIP3    H231350   4.308   1.725  16.527  1.2389  1.0814 -1.8173
 3287TIP3   OH231351   1.237   1.845   2.992 -0.0593  0.6741 -0.0712
 3287TIP3    H131352   1.234   1.753   2.964  1.8902  1.1871 -2.2612
 3287TIP3    H231353   1.328   1.858   3.022 -0.5737  1.6777  1.1545
 3288TIP3   OH231354   4.502   0.155  16.543 -0.4846  0.1133  0.0821
 3288TIP3    H131355   4.557   0.103  16.602 -1.6341 -0.1652  0.9631
 3288TIP3    H231356   4.528   0.246  16.559 -1.3752  0.1324  1.7515
 3289TIP3   OH231357   4.889   1.078   3.949 -1.0530  0.2030 -0.1849
 3289TIP3    H131358   4.886   1.054   3.856 -2.4792 -1.6398  0.2904
 3289TIP3    H231359   4.982   1.075   3.971 -0.8120 -0.8198 -1.2114
 3290TIP3   OH231360   1.061   6.736   3.591 -0.2163  0.2232  0.1277
 3290TIP3    H131361   1.146   6.779   3.599  0.2129 -0.3012 -1.3300
 3290TIP3    H231362   1.020   6.747   3.678  0.3305  2.5444  0.1600
 3291TIP3   OH231363   4.872   3.748  16.421  0.8171 -0.2469 -0.4855
 3291TIP3    H131364   4.907   3.785  16.502 -0.9772  0.8829 -0.1642
 3291TIP3    H231365   4.874   3.821  16.359  1.8059 -0.9964 -1.3455
 3292TIP3   OH231366   2.428   4.768   6.168 -0.1732 -0.4603 -0.3043
 3292TIP3    H131367   2.471   4.692   6.129  0.4563  1.1087 -2.8846
 3292TIP3    H231368   2.373   4.731   6.237  0.1621 -3.2456 -1.3925
 3293TIP3   OH231369   3.378   2.554   2.435  0.3883  0.3770  0.2295
 3293TIP3    H131370   3.283   2.541   2.431 -0.2505  1.9967  4.4869
 3293TIP3    H231371   3.399   2.603   2.356 -2.2562 -0.2356 -0.9540
 3294TIP3   OH231372   0.863   4.964   5.660  0.4832 -0.3862 -0.5409
 3294TIP3    H131373   0.829   4.913   5.587  0.7692 -1.0627 -0.2120
 3294TIP3    H231374   0.831   4.918   5.738 -1.4631  1.4076 -0.1905
 3295TIP3   OH231375   0.334   6.207   0.607  1.1345  0.0869  0.6893
 3295TIP3    H131376   0.283   6.193   0.687 -2.4856  1.5396 -1.1639
 3295TIP3    H231377   0.347   6.119   0.572  0.1908 -0.3560  1.4012
 3296TIP3   OH231378   2.012   4.162   5.682  0.2630  0.0968 -0.5613
 3296TIP3    H131379   1.954   4.139   5.754 -1.2778  1.9341 -1.1219
 3296TIP3    H231380   2.016   4.083   5.627  1.3264 -1.2633  1.3604
 3297TIP3   OH231381   1.512   3.352  16.665  0.0568  0.0902 -0.1858
 3297TIP3    H131382   1.453   3.394  16.602 -0.3186 -0.2758 -0.0793
 3297TIP3    H231383   1.529   3.266  16.628  0.1145  0.0038  0.0434
 3298TIP3   OH231384   5.667   3.623   5.375  0.1349  0.2199  0.3766
 3298TIP3    H131385   5.621   3.624   5.291 -0.7430  0.2681  0.8412
 3298TIP3    H231386   5.754   3.658   5.355 -0.6777  2.0562 -0.1752
 3299TIP3   OH231387   6.477   4.830  16.694  0.2524  0.0486  0.2709
 3299TIP3    H131388   6.440   4.755  16.741 -0.3531  0.7743  0.9792
 3299TIP3    H231389   6.400   4.881  16.667  0.6817  0.7866  0.4286
 3300TIP3   OH231390   2.138   3.177   4.867  0.6047 -0.6878 -0.0986
 3300TIP3    H131391   2.124   3.180   4.961  0.8331  0.4761 -0.0906
 3300TIP3    H231392   2.057   3.141   4.831  0.2205 -0.4173  0.4871
 3301TIP3   OH231393   0.843   2.678   0.586 -0.3320 -0.5542 -0.0778
 3301TIP3    H131394   0.761   2.630   0.597  1.4149 -3.7677  0.1436
 3301TIP3    H231395   0.899   2.618   0.536  2.3625  0.8879  1.0422
 3302TIP3   OH231396   3.094   2.790  16.248  0.0084  0.3983  0.1588
 3302TIP3    H131397   3.064   2.755  16.164  0.4944 -3.0758  1.2772
 3302TIP3    H231398   3.048   2.874  16.256 -1.5089 -0.0147 -2.7007
 3303TIP3   OH231399   6.081   1.717  11.063  0.4368  0.0968 -0.1972
 3303TIP3    H131400   6.129   1.663  11.125 -0.6723  0.2825  0.8679
 3303TIP3    H231401   5.989   1.695  11.078  0.0903  0.8739 -1.0826
 3304TIP3   OH231402   0.098   5.875  15.626  0.6818 -0.3605  0.1391
 3304TIP3    H131403   0.076   5.802  15.685  0.6851 -0.6192 -0.1770
 3304TIP3    H231404   0.169   5.921  15.670  1.5916 -1.3339 -0.2830
 3305TIP3   OH231405   5.713   4.051   0.432 -0.2467 -0.4982 -0.2913
 3305TIP3    H131406   5.632   4.102   0.422  0.5507  0.8174 -0.2802
 3305TIP3    H231407   5.743   4.036   0.342 -0.2934 -0.6509 -0.2822
 3306TIP3   OH231408   5.014   5.567   1.427  0.5519  0.4535 -0.0826
 3306TIP3    H131409   4.958   5.535   1.356  0.2524  0.8781 -0.0432
 3306TIP3    H231410   5.098   5.584   1.385  0.0193  1.9117 -0.6278
 3307TIP3   OH231411   5.813   4.436   0.764 -0.4266  0.2254  0.1634
 3307TIP3    H131412   5.754   4.432   0.839  0.9563  0.3669  1.2770
 3307TIP3    H231413   5.877   4.504   0.786  2.1851 -2.1840  0.5364
 3308TIP3   OH231414   2.272   5.228  15.059  0.5737  0.2485  0.0791
 3308TIP3    H131415   2.327   5.305  15.077  1.7698 -0.3435 -0.9101
 3308TIP3    H231416   2.187   5.250  15.097  1.2316  1.5728  0.8555
 3309TIP3   OH231417   4.653   0.806   3.249  0.2907 -0.4651  0.0254
 3309TIP3    H131418   4.624   0.804   3.158  0.1631 -0.7720  0.0700
 3309TIP3    H231419   4.740   0.766   3.248  0.8141  0.6441 -0.1386
 3310TIP3   OH231420   6.590   3.848   4.160 -0.3493  0.2710  0.0858
 3310TIP3    H131421   6.641   3.788   4.214  0.0399 -0.9041 -1.5338
 3310TIP3    H231422   6.642   3.859   4.080 -0.9632  1.8699 -0.1351
 3311TIP3   OH231423   6.603   3.850  12.627 -0.4017 -0.1715 -0.5047
 3311TIP3    H131424   6.565   3.824  12.543  0.0147 -2.7277 -0.0006
 3311TIP3    H231425   6.612   3.945  12.622 -0.9388 -0.1991 -3.1101
 3312TIP3   OH231426   1.061   5.816  17.003  0.0504  0.0178  0.0886
 3312TIP3    H131427   1.063   5.791  17.095 -0.6677  0.7524  0.3081
 3312TIP3    H231428   1.068   5.911  17.003 -1.7909  0.1921 -0.5058
 3313TIP3   OH231429   0.711   1.787   3.211 -0.5297  0.5591 -0.7235
 3313TIP3    H131430   0.720   1.880   3.188  1.1170  0.3723 -0.9482
 3313TIP3    H231431   0.696   1.743   3.128 -2.6672  0.7220 -0.4850
 3314TIP3   OH231432   5.080   5.741  16.770  0.0894  0.1251  0.3362
 3314TIP3    H131433   5.100   5.829  16.738 -0.7135  0.5147  0.8514
 3314TIP3    H231434   5.066   5.689  16.691  1.7735  0.1364 -0.0054
 3315TIP3   OH231435   1.269   0.200   4.782 -0.2785  0.5541  0.5940
 3315TIP3    H131436   1.264   0.199   4.878 -1.1466  2.3007  0.5942
 3315TIP3    H231437   1.272   0.292   4.759 -0.0816  0.1534 -1.0886
 3316TIP3   OH231438   5.841   2.003  13.788  0.0606 -0.0675  0.6051
 3316TIP3    H131439   5.796   2.086  13.803 -1.9927 -1.2999  1.7586
 3316TIP3    H231440   5.774   1.947  13.749  0.7256 -1.8458  1.9112
 3317TIP3   OH231441   3.558   0.709   3.258  0.1570  0.1499 -0.3646
 3317TIP3    H131442   3.595   0.767   3.191  1.2489  0.2807  0.3239
 3317TIP3    H231443   3.468   0.694   3.229  0.2792  1.0520 -1.2984
 3318TIP3   OH231444   3.699   0.659   4.783  0.1842  0.6918 -0.7547
 3318TIP3    H131445   3.636   0.640   4.714 -0.0600  0.1109 -0.3769
 3318TIP3    H231446   3.785   0.647   4.740  0.0356  0.2368 -0.9309
 3319TIP3   OH231447   1.608   1.004   2.562 -0.1129 -0.3130 -0.0696
 3319TIP3    H131448   1.620   1.020   2.656 -0.2404 -0.3040 -0.0553
 3319TIP3    H231449   1.520   0.969   2.555  0.5353 -2.0223  0.0226
 3320TIP3   OH231450   6.235   4.038  13.293 -0.2743  0.4768  0.1112
 3320TIP3    H131451   6.162   3.997  13.248 -0.5304 -0.4403  1.3131
 3320TIP3    H231452   6.199   4.119  13.330 -0.1687  1.0139 -0.9243
 3321TIP3   OH231453   3.215   0.654   3.785  0.5916 -0.4106  0.5558
 3321TIP3    H131454   3.140   0.639   3.728  0.6542  0.5234  0.2095
 3321TIP3    H231455   3.218   0.749   3.796  2.5869 -0.2739 -0.6422
 3322TIP3   OH231456   1.527   0.805  17.334 -0.5115 -0.0184 -0.4828
 3322TIP3    H131457   1.460   0.862  17.374 -0.0863  0.4460 -0.4177
 3322TIP3    H231458   1.530   0.833  17.243 -0.7770 -0.4004 -0.6102
 3323TIP3   OH231459   4.192   6.329  12.639 -0.4100 -0.3019 -0.1240
 3323TIP3    H131460   4.126   6.398  12.628 -0.6136 -0.6780 -1.4408
 3323TIP3    H231461   4.196   6.315  12.733 -2.3660 -0.3969 -0.0083
 3324TIP3   OH231462   5.873   6.504   1.130  0.5469  0.1755  0.3881
 3324TIP3    H131463   5.886   6.518   1.036  0.7354 -0.4459  0.3165
 3324TIP3    H231464   5.952   6.542   1.170  1.6345 -1.6693  0.1069
 3325TIP3   OH231465   4.771   2.220   3.843  0.3423 -0.1751 -0.0033
 3325TIP3    H131466   4.778   2.249   3.753  2.5817  1.6584  0.6606
 3325TIP3    H231467   4.826   2.141   3.847  2.6258  1.3310  0.2681
 3326TIP3   OH231468   2.380   0.537  15.698 -0.2995 -0.0721 -0.5243
 3326TIP3    H131469   2.331   0.466  15.656 -0.0461  0.3985 -1.6698
 3326TIP3    H231470   2.335   0.617  15.671 -0.4599  0.2336  0.5814
 3327TIP3   OH231471   5.422   6.450  12.071  0.1024 -0.1673 -0.0193
 3327TIP3    H131472   5.353   6.490  12.019 -0.1147  0.0922  0.4618
 3327TIP3    H231473   5.394   6.360  12.085  1.7295 -1.3131 -3.1892
 3328TIP3   OH231474   2.017   1.008  17.312  0.0430 -0.2493  0.2242
 3328TIP3    H131475   2.037   0.927  17.264  3.1900  1.6815 -2.1437
 3328TIP3    H231476   2.057   1.077  17.260  0.0388  2.5828  3.6004
 3329TIP3   OH231477   2.963   5.918  16.896  0.1344  0.1443  0.3959
 3329TIP3    H131478   2.973   5.831  16.858  0.8344  0.2596  0.3087
 3329TIP3    H231479   2.967   5.903  16.991 -2.7216 -0.2910  0.5443
 3330TIP3   OH231480   5.723   4.291  13.476 -0.2245 -0.4568  0.0614
 3330TIP3    H131481   5.644   4.332  13.442  0.8956  1.3334 -0.5267
 3330TIP3    H231482   5.787   4.299  13.405  1.0369 -0.1603  1.1895
 3331TIP3   OH231483   4.222   3.466  11.904  0.3631 -0.3015  0.5270
 3331TIP3    H131484   4.135   3.466  11.862  0.3449 -0.7221  0.5567
 3331TIP3    H231485   4.258   3.379  11.884 -0.2361 -1.0821  2.5754
 3332TIP3   OH231486   2.108   3.679  12.764 -0.2226 -0.1716 -0.2044
 3332TIP3    H131487   2.136   3.617  12.831  1.2413 -1.0085 -1.5404
 3332TIP3    H231488   2.017   3.699  12.786 -0.4935 -2.2073  0.6893
 3333TIP3   OH231489   5.134   0.568  17.213  0.2625  0.0763  0.4037
 3333TIP3    H131490   5.220   0.548  17.175 -0.7580 -1.0455 -1.4570
 3333TIP3    H231491   5.154   0.607  17.298  2.7154  2.7771 -1.2422
 3334TIP3   OH231492   0.306   2.536  11.460 -0.1104 -0.0486  0.0106
 3334TIP3    H131493   0.356   2.457  11.479  1.2793  1.0352  1.0735
 3334TIP3    H231494   0.291   2.532  11.366 -0.1603 -1.6095  0.0505
 3335TIP3   OH231495   1.128   4.770   0.142 -0.4311  0.2167  0.0261
 3335TIP3    H131496   1.056   4.763   0.079  0.2792  1.0721 -0.9087
 3335TIP3    H231497   1.156   4.861   0.137  1.1212 -0.2257 -0.1099
 3336TIP3   OH231498   0.445   0.625   2.954 -0.1452  0.2775  0.3117
 3336TIP3    H131499   0.517   0.568   2.982 -0.4893  1.1869  3.4961
 3336TIP3    H231500   0.368   0.591   3.002 -1.1375  1.2375 -0.5511
 3337TIP3   OH231501   6.412   6.551  13.049 -0.1495 -0.2379  0.4276
 3337TIP3    H131502   6.353   6.487  13.011 -1.2542  0.1423  1.4220
 3337TIP3    H231503   6.419   6.525  13.141 -0.7926  1.1598  0.8984
 3338TIP3   OH231504   5.582   6.591   2.745  0.2239 -0.6188 -0.2707
 3338TIP3    H131505   5.603   6.527   2.812 -2.1539 -0.9427  0.2532
 3338TIP3    H231506   5.600   6.547   2.662 -0.8820 -1.8238  0.0977
 3339TIP3   OH231507   3.665   5.455   3.881  0.2540  0.2984  0.4487
 3339TIP3    H131508   3.609   5.389   3.921  1.4639  0.1764  2.0744
 3339TIP3    H231509   3.633   5.463   3.791 -2.9086  0.8763  1.4911
 3340TIP3   OH231510   0.639   2.509  13.285 -0.0153  0.0896  0.2193
 3340TIP3    H131511   0.545   2.523  13.293 -0.0313 -0.2114  0.6303
 3340TIP3    H231512   0.671   2.514  13.375  0.4090  0.5096  0.0495
 3341TIP3   OH231513   2.430   6.075  16.172 -0.0194  0.3844  0.1531
 3341TIP3    H131514   2.411   5.995  16.222 -0.3501  0.7468  0.6253
 3341TIP3    H231515   2.513   6.058  16.129  1.2016  0.7196  2.2596
 3342TIP3   OH231516   6.715   0.857  11.627  0.0113  0.3303  0.3171
 3342TIP3    H131517   6.743   0.822  11.712  1.3677 -1.0513 -0.6363
 3342TIP3    H231518   6.757   0.942  11.622  1.4385 -0.3372  0.3166
 3343TIP3   OH231519   1.385   0.796  14.016 -0.1641 -0.6617  0.3325
 3343TIP3    H131520   1.461   0.840  13.978 -0.0858  0.3426  1.5800
 3343TIP3    H231521   1.393   0.705  13.987  0.5685 -0.2115 -0.9558
 3344TIP3   OH231522   1.349   4.102  15.032  0.6794 -0.8552 -0.0346
 3344TIP3    H131523   1.330   4.029  15.091  1.0825 -1.1157 -0.2143
 3344TIP3    H231524   1.339   4.064  14.944 -0.4567 -0.3293 -0.1473
 3345TIP3   OH231525   6.758   5.548  16.926  0.3439  0.7261 -0.1873
 3345TIP3    H131526   6.778   5.635  16.892 -2.4198  0.5449 -2.7678
 3345TIP3    H231527   6.790   5.488  16.858 -0.2539 -0.0669  0.2131
 3346TIP3   OH231528   1.766   5.311   1.924 -0.2226 -0.0330  0.0013
 3346TIP3    H131529   1.839   5.319   1.985  0.1648  0.2854 -0.4998
 3346TIP3    H231530   1.730   5.400   1.920  0.0424  0.0456 -0.5942
 3347TIP3   OH231531   4.122   1.485  12.131 -0.5743  0.4143  0.1895
 3347TIP3    H131532   4.088   1.566  12.092 -1.1157  1.7755  3.2408
 3347TIP3    H231533   4.208   1.509  12.166 -0.0002 -0.8206 -0.3069
 3348TIP3   OH231534   4.854   4.337   4.531  0.0808 -0.1990 -0.0207
 3348TIP3    H131535   4.806   4.306   4.454  1.6516 -0.2874 -1.0163
 3348TIP3    H231536   4.825   4.281   4.602 -0.4773 -0.9572 -0.8269
 3349TIP3   OH231537   3.720   2.417   5.042  0.1211  0.1025 -0.1296
 3349TIP3    H131538   3.778   2.471   5.096  0.2195 -1.0304  0.9397
 3349TIP3    H231539   3.747   2.435   4.952  2.3687 -0.6526  0.3499
 3350TIP3   OH231540   2.397   4.084   0.723  0.3769  0.6538 -0.3220
 3350TIP3    H131541   2.406   3.991   0.744 -0.8996  0.8707  1.4379
 3350TIP3    H231542   2.406   4.089   0.628  0.4126 -1.2660 -0.4475
 3351TIP3   OH231543   5.175   0.848  14.648  0.1094  0.0620  0.3593
 3351TIP3    H131544   5.105   0.899  14.607 -0.9184 -0.6309  1.2296
 3351TIP3    H231545   5.201   0.785  14.581  0.5946  0.9364 -0.3107
 3352TIP3   OH231546   1.762   1.860   4.803  0.2330 -0.6787 -0.0180
 3352TIP3    H131547   1.780   1.932   4.864 -0.3816  1.5868 -2.3249
 3352TIP3    H231548   1.672   1.875   4.774 -0.9078 -4.0223  1.3579
 3353TIP3   OH231549   5.568   3.355  14.642 -0.1033  0.0741 -0.1438
 3353TIP3    H131550   5.664   3.357  14.649  0.0283 -1.2146 -1.1502
 3353TIP3    H231551   5.551   3.332  14.551 -1.4019  1.0452 -0.1753
 3354TIP3   OH231552   1.030   3.944   6.483  0.1071 -0.0449 -0.5348
 3354TIP3    H131553   0.939   3.969   6.469  0.3048  1.4707  0.6420
 3354TIP3    H231554   1.030   3.899   6.568  0.4659 -0.0301 -0.5249
 3355TIP3   OH231555   3.912   0.367  12.374  0.0156  0.0561  0.0685
 3355TIP3    H131556   3.928   0.391  12.465  0.2687 -1.2164  0.3837
 3355TIP3    H231557   3.887   0.274  12.378  0.2926 -0.0917 -1.1760
 3356TIP3   OH231558   2.307   3.853  16.567 -1.0319  0.0955 -0.0401
 3356TIP3    H131559   2.293   3.759  16.555 -1.4166  0.2358 -0.7752
 3356TIP3    H231560   2.236   3.894  16.517 -0.8639  0.7766  0.2690
 3357TIP3   OH231561   6.567   3.844  14.405  0.6698 -0.3338 -0.0234
 3357TIP3    H131562   6.523   3.842  14.490 -0.7862  0.8638 -0.7003
 3357TIP3    H231563   6.498   3.826  14.341  1.6123 -0.5976 -1.0068
 3358TIP3   OH231564   2.930   3.600   1.986 -0.3033 -0.1646 -0.1830
 3358TIP3    H131565   2.920   3.589   2.080 -1.2720 -0.2104 -0.2793
 3358TIP3    H231566   3.013   3.556   1.965  0.8026  1.3161  0.8781
 3359TIP3   OH231567   3.994   6.369  13.239 -1.4110  0.9681  0.1636
 3359TIP3    H131568   4.020   6.296  13.183 -1.9549  0.9263 -0.0349
 3359TIP3    H231569   3.908   6.396  13.206 -1.7628  0.9077  1.0076
 3360TIP3   OH231570   0.536   5.221  14.443  0.6328 -0.2743 -0.1958
 3360TIP3    H131571   0.593   5.285  14.483 -2.8790  1.4263  2.6820
 3360TIP3    H231572   0.490   5.269  14.374  0.0868 -0.5028 -0.0054
 3361TIP3   OH231573   4.885   6.455   0.110  0.2866  0.0167  0.0518
 3361TIP3    H131574   4.870   6.363   0.132  0.8555 -0.3285 -0.9225
 3361TIP3    H231575   4.979   6.468   0.125  0.3100  0.2877 -0.3177
 3362TIP3   OH231576   2.443   4.046   2.165 -0.2459 -0.4796 -0.1502
 3362TIP3    H131577   2.444   4.030   2.259  1.2140  0.2603 -0.0174
 3362TIP3    H231578   2.368   4.104   2.151 -1.0046 -1.3016  0.4047
 3363TIP3   OH231579   0.503   0.279   3.525  0.1505 -0.0060  0.2518
 3363TIP3    H131580   0.432   0.299   3.464  0.9137 -1.4984 -1.2168
 3363TIP3    H231581   0.461   0.228   3.594 -0.2935 -0.6401 -0.4571
 3364TIP3   OH231582   6.452   4.123  13.106  0.6006  0.1117 -0.4575
 3364TIP3    H131583   6.376   4.143  13.051  0.9264  0.3645 -0.8219
 3364TIP3    H231584   6.418   4.121  13.195  0.2001  0.4159 -0.6016
 3365TIP3   OH231585   2.637   6.748  12.574 -0.0059  0.3985 -0.0645
 3365TIP3    H131586   2.565   6.767  12.514  0.7617 -0.8218 -1.4154
 3365TIP3    H231587   2.709   6.805  12.544 -0.1086  0.9748  0.7370
 3366TIP3   OH231588   1.197   2.260  16.488  0.3375  0.2440 -0.0805
 3366TIP3    H131589   1.176   2.260  16.581  1.4814 -0.0309  0.2007
 3366TIP3    H231590   1.292   2.247  16.486  0.0595 -2.0869 -1.3212
 3367TIP3   OH231591   6.725   3.242   0.321  0.3892 -0.0938 -0.7443
 3367TIP3    H131592   6.688   3.316   0.272 -1.1113 -1.4058 -1.6899
 3367TIP3    H231593   6.727   3.170   0.258  0.3357 -1.2841  0.5620
 3368TIP3   OH231594   3.518   6.705  15.752  0.4900 -0.2717 -0.0020
 3368TIP3    H131595   3.460   6.629  15.747  0.3933 -0.2798  1.0702
 3368TIP3    H231596   3.514   6.744  15.665 -1.7890  0.2012  0.2610
 3369TIP3   OH231597   4.962   5.231   6.090 -0.4606  0.1224 -0.0187
 3369TIP3    H131598   4.968   5.297   6.022  1.8410  1.0203  0.9319
 3369TIP3    H231599   4.891   5.261   6.147 -1.4327  0.1193 -1.1829
 3370TIP3   OH231600   3.013   2.184  16.368  0.2720  0.1607 -0.1632
 3370TIP3    H131601   2.971   2.098  16.362  0.5887  0.0302 -0.5581
 3370TIP3    H231602   3.061   2.182  16.450 -0.9243  0.5064  0.5646
 3371TIP3   OH231603   4.522   6.671   5.056  0.2014  0.0773  0.2727
 3371TIP3    H131604   4.469   6.691   5.133  0.2383  0.0386  0.3080
 3371TIP3    H231605   4.481   6.722   4.985 -1.4461 -1.8315 -0.2614
 3372TIP3   OH231606   3.327   1.029  16.613  0.6062  0.0825  0.4432
 3372TIP3    H131607   3.402   1.088  16.615  0.8410 -0.2320  1.1327
 3372TIP3    H231608   3.364   0.942  16.629  0.0087  0.0300  1.6667
 3373TIP3   OH231609   2.799   0.114  14.621  0.2345  0.0462 -0.3011
 3373TIP3    H131610   2.793   0.049  14.691  0.6183 -0.1959 -0.4919
 3373TIP3    H231611   2.843   0.068  14.549 -2.2424 -0.5061 -1.6217
 3374TIP3   OH231612   5.153   3.560   4.430  0.7356 -0.0504  0.4031
 3374TIP3    H131613   5.242   3.568   4.466  0.5184  1.5327  0.7013
 3374TIP3    H231614   5.131   3.650   4.403 -0.0887 -0.7459 -1.3472
 3375TIP3   OH231615   4.571   1.773  13.755 -0.0048  0.1692 -0.0546
 3375TIP3    H131616   4.509   1.701  13.753 -0.3492  0.2886  2.8157
 3375TIP3    H231617   4.544   1.827  13.829  3.0347  0.6223  0.8871
 3376TIP3   OH231618   3.455   2.841   2.392  0.4677  0.4503  0.0231
 3376TIP3    H131619   3.369   2.815   2.358  1.5539 -0.9659 -1.8299
 3376TIP3    H231620   3.453   2.813   2.483 -0.4663 -1.1511 -0.4294
 3377TIP3   OH231621   2.584   4.732   0.605  0.5908  0.0935  0.2789
 3377TIP3    H131622   2.504   4.714   0.654  0.2543  0.3058 -0.1855
 3377TIP3    H231623   2.633   4.793   0.660 -0.3794  1.3529 -0.2140
 3378TIP3   OH231624   1.799   1.698  11.892  0.0535  0.2720 -0.1853
 3378TIP3    H131625   1.820   1.666  11.980  1.2158  0.4768 -0.3818
 3378TIP3    H231626   1.761   1.621  11.848 -1.3363  0.3822  0.7273
 3379TIP3   OH231627   3.061   0.981  16.219  0.3883  0.2730 -0.3990
 3379TIP3    H131628   3.150   1.005  16.243  0.6121 -0.4155 -0.5305
 3379TIP3    H231629   3.006   1.043  16.267  0.9665  1.6671 -1.4484
 3380TIP3   OH231630   2.571   2.001   3.438  0.0645  0.0970 -0.3798
 3380TIP3    H131631   2.499   2.017   3.499  0.6556  1.2325  0.0453
 3380TIP3    H231632   2.585   1.906   3.442 -1.7026 -0.2205 -0.8354
 3381TIP3   OH231633   0.522   4.186  15.536 -0.0085  0.0445  0.1809
 3381TIP3    H131634   0.576   4.195  15.457  0.0169  1.5288  0.3384
 3381TIP3    H231635   0.583   4.157  15.603  0.8754  2.5551  0.5757
 3382TIP3   OH231636   3.856   4.261  14.683 -0.2140 -0.1549  0.0455
 3382TIP3    H131637   3.867   4.267  14.588 -0.3310  0.0617  0.0446
 3382TIP3    H231638   3.906   4.183  14.708 -1.8705 -1.4501 -0.4611
 3383TIP3   OH231639   0.042   4.740   0.234 -0.2012 -0.3631 -0.4127
 3383TIP3    H131640   0.025   4.794   0.311 -0.4980 -1.2175  0.1289
 3383TIP3    H231641   0.127   4.700   0.251  0.0889  0.0344 -0.8840
 3384TIP3   OH231642   3.988   5.260   2.511  0.3760  0.1117 -0.0344
 3384TIP3    H131643   3.955   5.211   2.586 -0.8606  0.2933 -0.4333
 3384TIP3    H231644   4.040   5.197   2.461 -0.2739 -0.4855  0.0390
 3385TIP3   OH231645   2.618   2.517   6.273 -0.0643  0.4807 -0.4470
 3385TIP3    H131646   2.568   2.588   6.313  0.1238  0.8752 -0.9017
 3385TIP3    H231647   2.628   2.452   6.343  2.8867  2.4425  1.1643
 3386TIP3   OH231648   6.055   0.919   4.767 -0.1269  0.3016 -0.1956
 3386TIP3    H131649   6.102   0.937   4.686 -2.2545 -1.1526 -1.8767
 3386TIP3    H231650   6.031   0.826   4.760 -1.5668  0.5070  1.4416
 3387TIP3   OH231651   3.388   0.868   6.164 -0.2468 -1.1420  0.1246
 3387TIP3    H131652   3.458   0.921   6.201  0.6400 -1.4817 -0.9862
 3387TIP3    H231653   3.308   0.904   6.202  0.4718 -0.2882  0.8872
 3388TIP3   OH231654   2.110   1.324  16.900  0.3227  0.9004 -0.5990
 3388TIP3    H131655   2.030   1.360  16.862  0.1363  0.0743 -1.0091
 3388TIP3    H231656   2.178   1.340  16.834  0.3432  0.9111 -0.5766
 3389TIP3   OH231657   2.741   6.462  15.296  0.2260  0.5937  0.5543
 3389TIP3    H131658   2.688   6.382  15.284 -0.9144  1.2794  0.8276
 3389TIP3    H231659   2.792   6.469  15.216 -1.1850  0.6823 -0.3863
 3390TIP3   OH231660   5.693   0.695   3.889  0.2780 -0.4184  0.0060
 3390TIP3    H131661   5.778   0.686   3.931 -0.4890 -1.4176  1.3936
 3390TIP3    H231662   5.695   0.633   3.816 -0.0064 -2.0675  1.3366
 3391TIP3   OH231663   5.753   5.694  13.172  0.6069  0.4516 -0.2188
 3391TIP3    H131664   5.733   5.663  13.083 -1.8177  1.2144 -0.0093
 3391TIP3    H231665   5.762   5.789  13.163  1.5837  0.4109  0.1812
 3392TIP3   OH231666   6.116   6.388   3.760  0.1151  0.0563 -0.3026
 3392TIP3    H131667   6.186   6.370   3.698  0.9052 -0.7278  0.7726
 3392TIP3    H231668   6.083   6.302   3.784  1.0122  0.2100  1.6631
 3393TIP3   OH231669   5.430   0.000  10.990  0.0401 -0.2090  0.0426
 3393TIP3    H131670   5.374   0.074  11.013  1.4577  0.7429  0.5715
 3393TIP3    H231671   5.446   0.010  10.896  0.0357  0.0290  0.0657
 3394TIP3   OH231672   4.084   4.474  15.643 -0.6400  0.4616  0.3777
 3394TIP3    H131673   4.103   4.414  15.715 -1.9517  0.7687  1.0116
 3394TIP3    H231674   3.997   4.509  15.663 -0.7742  1.0193 -1.0467
 3395TIP3   OH231675   4.266   3.367  16.340 -0.3165  0.1835 -0.0571
 3395TIP3    H131676   4.289   3.286  16.386 -1.2875 -0.6963 -1.0516
 3395TIP3    H231677   4.349   3.410  16.322  0.1792 -0.3012  0.9825
 3396TIP3   OH231678   1.279   6.051   1.456  0.2330  0.9359  0.3507
 3396TIP3    H131679   1.265   6.115   1.526  1.0840  0.5976  0.8494
 3396TIP3    H231680   1.301   6.105   1.379  1.6228  1.2422  0.9339
 3397TIP3   OH231681   6.535   3.669   6.174  0.2348 -0.0014 -0.9591
 3397TIP3    H131682   6.493   3.583   6.171  1.9857 -0.9839  0.3627
 3397TIP3    H231683   6.500   3.710   6.253 -0.2221  0.2799 -1.3101
 3398TIP3   OH231684   2.943   3.370   4.803 -0.3596 -0.1604  0.8442
 3398TIP3    H131685   3.033   3.346   4.826 -0.0399  0.6544  0.4889
 3398TIP3    H231686   2.942   3.465   4.811 -1.3362 -0.2046  1.3430
 3399TIP3   OH231687   5.911   3.823  14.720 -0.3322  0.1346 -0.4413
 3399TIP3    H131688   5.947   3.754  14.776 -1.3273  0.6403  0.8611
 3399TIP3    H231689   5.850   3.778  14.662  1.3926 -0.5403 -1.8384
 3400TIP3   OH231690   3.238   2.488   6.412 -0.0223  0.0205  0.2479
 3400TIP3    H131691   3.222   2.395   6.402  0.7553 -0.1443  0.4715
 3400TIP3    H231692   3.196   2.511   6.495  1.4245 -0.5462  1.1729
 3401TIP3   OH231693   2.905   5.349   2.709 -0.2513 -0.2314  0.2311
 3401TIP3    H131694   2.865   5.345   2.796 -1.7893 -1.4989 -0.4762
 3401TIP3    H231695   2.847   5.407   2.659  0.8181  0.7689  0.1266
 3402TIP3   OH231696   5.973   2.312  11.371 -0.1354 -0.4412  0.3897
 3402TIP3    H131697   6.042   2.376  11.352 -0.1156 -0.2447  1.0709
 3402TIP3    H231698   5.892   2.355  11.344 -0.1599  0.0307  1.1750
 3403TIP3   OH231699   2.958   4.009   0.939 -0.0013 -0.4286  0.3795
 3403TIP3    H131700   3.018   3.969   1.001  0.8421  0.1948 -0.0213
 3403TIP3    H231701   2.904   3.936   0.907  0.0101 -0.8604  1.3193
 3404TIP3   OH231702   4.546   4.349   3.756 -0.2011  0.5123 -0.1341
 3404TIP3    H131703   4.538   4.354   3.661  1.3909  0.4679 -0.3023
 3404TIP3    H231704   4.456   4.347   3.788 -0.8699 -2.2764 -1.7860
 3405TIP3   OH231705   5.741   1.362   0.543  0.0223 -0.4300  0.0561
 3405TIP3    H131706   5.682   1.427   0.503  1.8584  1.2694 -0.0167
 3405TIP3    H231707   5.776   1.406   0.620  1.9150 -1.0074 -0.4337
 3406TIP3   OH231708   6.230   0.467   3.229 -0.7310  0.1283 -0.0277
 3406TIP3    H131709   6.273   0.549   3.251  0.4077 -0.5679  0.3719
 3406TIP3    H231710   6.281   0.400   3.273 -1.2214 -0.8660 -0.9411
 3407TIP3   OH231711   5.991   3.953   2.686 -0.7861 -0.1761  0.0387
 3407TIP3    H131712   5.914   4.009   2.682 -1.1566 -0.3278  2.8781
 3407TIP3    H231713   5.957   3.864   2.676 -1.0505 -0.2449  1.3175
 3408TIP3   OH231714   5.263   3.236  13.683  0.0658  0.2421  0.1081
 3408TIP3    H131715   5.275   3.225  13.589 -0.6469 -2.1172  0.2292
 3408TIP3    H231716   5.170   3.255  13.693  0.5287  2.8294  0.2471
 3409TIP3   OH231717   4.129   2.926   1.613  0.0925  0.1323  0.2032
 3409TIP3    H131718   4.128   2.871   1.535 -0.6393  1.3809 -0.7020
 3409TIP3    H231719   4.209   2.978   1.606 -1.2720  2.1745 -1.1646
 3410TIP3   OH231720   3.185   3.257  17.254  0.0767 -0.1820 -0.0435
 3410TIP3    H131721   3.243   3.216  17.318  0.8715  0.5988 -0.2489
 3410TIP3    H231722   3.241   3.318  17.206 -0.2266 -1.4765 -2.2162
 3411TIP3   OH231723   6.240   4.755  12.091  0.3815  0.1767  0.4968
 3411TIP3    H131724   6.285   4.820  12.146 -0.1545  0.4048  0.6759
 3411TIP3    H231725   6.247   4.673  12.140 -1.4676  0.6829  1.7263
 3412TIP3   OH231726   5.808   1.337   5.696 -0.5989 -0.3662 -0.1014
 3412TIP3    H131727   5.809   1.306   5.787 -1.5274 -0.1077  0.0132
 3412TIP3    H231728   5.855   1.269   5.647 -2.3039 -1.8610  0.1862
 3413TIP3   OH231729   0.853   0.978   0.093 -0.7273  0.1633  0.2448
 3413TIP3    H131730   0.848   0.939   0.006 -1.0827  0.9432 -0.0959
 3413TIP3    H231731   0.849   0.904   0.153 -0.6345 -0.3719 -0.3986
 3414TIP3   OH231732   6.148   3.296  12.328 -0.0334 -0.4950 -0.2694
 3414TIP3    H131733   6.225   3.341  12.362 -0.3429 -2.0901  2.9368
 3414TIP3    H231734   6.076   3.358  12.340  0.0261 -0.6832  1.3224
 3415TIP3   OH231735   2.383   6.280  11.402 -0.4718 -0.0050  0.1361
 3415TIP3    H131736   2.452   6.244  11.457 -1.1232 -1.1334  0.2328
 3415TIP3    H231737   2.424   6.354  11.357  1.1837 -1.4299 -0.8045
 3416TIP3   OH231738   2.454   4.807   2.430  0.1949 -0.4268 -0.4789
 3416TIP3    H131739   2.506   4.819   2.350 -0.6425  1.6845 -0.7829
 3416TIP3    H231740   2.499   4.861   2.496 -1.6790  1.7301 -0.8394
 3417TIP3   OH231741   0.152   5.551   5.771 -0.0555 -0.0784 -0.1986
 3417TIP3    H131742   0.240   5.517   5.751 -0.1870  0.0008 -0.9464
 3417TIP3    H231743   0.110   5.480   5.820  1.0550  0.6115  1.8766
 3418TIP3   OH231744   0.296   3.434   0.287 -0.3452  0.4485  0.1005
 3418TIP3    H131745   0.260   3.392   0.209  0.8776  0.9855 -0.7948
 3418TIP3    H231746   0.280   3.371   0.358 -1.9513  0.1841 -0.4588
 3419TIP3   OH231747   4.299   2.925   5.797 -0.3313  0.0352  0.4652
 3419TIP3    H131748   4.225   2.958   5.746 -0.8834 -0.1294  1.1450
 3419TIP3    H231749   4.354   2.881   5.732 -0.2077  1.1974 -0.2468
 3420TIP3   OH231750   1.033   0.939   5.334  0.0316  0.1397  0.4300
 3420TIP3    H131751   0.946   0.932   5.295 -0.1787  1.4557  0.6319
 3420TIP3    H231752   1.029   0.882   5.411 -0.6194  0.1371  0.3994
 3421TIP3   OH231753   0.200   6.299  17.278  0.0976  0.1469 -0.1761
 3421TIP3    H131754   0.278   6.353  17.267 -0.7209  1.1893 -1.0933
 3421TIP3    H231755   0.225   6.213  17.244  1.2142  0.1046  0.6957
 3422TIP3   OH231756   4.677   4.970  16.492 -0.1492  0.6583  0.1464
 3422TIP3    H131757   4.625   5.004  16.565 -0.0454 -0.4711  0.7675
 3422TIP3    H231758   4.612   4.955  16.422 -0.6365 -0.5192  0.8351
 3423TIP3   OH231759   3.260   5.813   1.957 -0.4520  0.4937  0.3148
 3423TIP3    H131760   3.251   5.813   1.861  0.6106  3.0068  0.1415
 3423TIP3    H231761   3.189   5.869   1.988 -0.5761 -0.0195  0.9874
 3424TIP3   OH231762   5.603   1.259  13.401  0.3995  0.1718  0.3213
 3424TIP3    H131763   5.619   1.275  13.308 -2.5306  0.4891 -0.2111
 3424TIP3    H231764   5.622   1.344  13.442  1.2495  0.1666 -0.0382
 3425TIP3   OH231765   2.411   0.799  11.599  0.2188 -0.4387  0.4650
 3425TIP3    H131766   2.499   0.813  11.633  0.7882  1.6473 -1.5785
 3425TIP3    H231767   2.418   0.720  11.546  0.1092 -1.8451  2.4531
 3426TIP3   OH231768   3.557   5.658  13.126 -0.1554 -0.3761 -0.1667
 3426TIP3    H131769   3.499   5.686  13.197  0.0625 -0.2507 -0.0375
 3426TIP3    H231770   3.615   5.732  13.111  0.2089 -0.6353 -0.0524
 3427TIP3   OH231771   4.197   2.738   2.087 -0.1352 -0.4088 -0.2618
 3427TIP3    H131772   4.151   2.809   2.041 -0.1856 -0.0439  0.3486
 3427TIP3    H231773   4.130   2.670   2.097  0.1090 -0.8707 -1.5175
 3428TIP3   OH231774   1.233   2.818  12.141  0.9369 -0.1256  0.2401
 3428TIP3    H131775   1.318   2.782  12.166  1.0545 -0.4324 -0.5639
 3428TIP3    H231776   1.175   2.795  12.213  1.0928 -1.6472 -0.0755
 3429TIP3   OH231777   5.404   0.522  17.136  0.2572 -0.1856  0.7416
 3429TIP3    H131778   5.448   0.600  17.170  1.2557 -0.2940 -0.2703
 3429TIP3    H231779   5.468   0.481  17.079 -1.6214  0.4423 -2.0029
 3430TIP3   OH231780   3.982   0.023   0.484 -0.0474  0.0026  0.0394
 3430TIP3    H131781   4.017  -0.059   0.519  0.0307  0.4928  1.1260
 3430TIP3    H231782   3.953  -0.000   0.395  2.0379 -0.6492 -0.5218
 3431TIP3   OH231783   0.904   3.663  17.058  0.0432 -0.0561  0.0006
 3431TIP3    H131784   0.951   3.597  17.008  0.9989  1.1130 -0.6932
 3431TIP3    H231785   0.942   3.746  17.030 -1.8423  0.8852  0.0667
 3432TIP3   OH231786   5.825   0.970  11.055 -1.0998 -0.6992 -0.5042
 3432TIP3    H131787   5.887   0.985  10.983 -1.5759  0.4568 -0.6942
 3432TIP3    H231788   5.765   0.903  11.021 -1.0835 -0.4497 -1.0339
 3433TIP3   OH231789   1.666   2.505   5.891  0.2332 -0.3017 -0.0862
 3433TIP3    H131790   1.719   2.431   5.919 -0.8551 -1.8287 -1.8600
 3433TIP3    H231791   1.706   2.581   5.934  2.1545 -1.7224  0.7648
 3434TIP3   OH231792   2.833   4.099  11.823  0.5334  0.3274 -0.9648
 3434TIP3    H131793   2.807   4.187  11.797  0.4707  0.3024 -0.9886
 3434TIP3    H231794   2.750   4.055  11.843  0.6609  0.8266  0.8333
 3435TIP3   OH231795   1.618   0.253  16.509 -0.4295 -0.0651  0.7380
 3435TIP3    H131796   1.663   0.312  16.569 -0.4548  1.7494 -0.9193
 3435TIP3    H231797   1.536   0.232  16.553  0.0809  0.2217  1.8595
 3436TIP3   OH231798   1.899   2.170  16.110  0.0341 -0.1315  0.0332
 3436TIP3    H131799   1.818   2.159  16.159  0.6965  2.2744  1.8865
 3436TIP3    H231800   1.968   2.144  16.171  0.7276 -0.9742 -1.0777
 3437TIP3   OH231801   6.283   5.353  12.641  0.3648  0.1180 -0.2207
 3437TIP3    H131802   6.290   5.360  12.736 -1.1053 -0.5525 -0.0292
 3437TIP3    H231803   6.290   5.443  12.609 -0.1958  0.4759  0.6286
 3438TIP3   OH231804   5.269   1.707  13.872 -0.1503 -0.3175  0.7785
 3438TIP3    H131805   5.332   1.778  13.862 -1.1096  1.1240  3.8813
 3438TIP3    H231806   5.221   1.706  13.789  1.4264  1.0482 -0.2140
 3439TIP3   OH231807   2.537   6.106   3.754  0.3605 -0.3662 -0.1189
 3439TIP3    H131808   2.464   6.048   3.776 -0.3886  0.6458  0.1387
 3439TIP3    H231809   2.510   6.150   3.674 -0.1431  1.3306  0.9278
 3440TIP3   OH231810   1.663   2.227   0.398  0.2345  0.2503 -0.2761
 3440TIP3    H131811   1.709   2.228   0.314  1.5466  1.3927  0.4190
 3440TIP3    H231812   1.730   2.202   0.462  0.1177  2.5856  0.8555
 3441TIP3   OH231813   2.686   6.045   2.062 -0.3392  0.4664  0.0333
 3441TIP3    H131814   2.593   6.065   2.072 -0.1632  0.5869  1.7589
 3441TIP3    H231815   2.730   6.106   2.121  0.6709 -0.9646  0.8236
 3442TIP3   OH231816   0.181   5.038   1.727 -0.3727  0.4263  0.1095
 3442TIP3    H131817   0.203   5.009   1.816 -0.6417  2.2935  0.8228
 3442TIP3    H231818   0.264   5.064   1.689  0.1177 -2.4036 -1.0717
 3443TIP3   OH231819   2.255   3.728   2.558 -0.1679 -0.2035 -0.2285
 3443TIP3    H131820   2.165   3.700   2.572  0.5717 -1.5304  2.5026
 3443TIP3    H231821   2.248   3.822   2.539 -2.0094  0.5823  3.4393
 3444TIP3   OH231822   5.782   0.873  16.022 -0.4469 -0.2261 -0.4756
 3444TIP3    H131823   5.766   0.882  15.928 -0.1577  0.6474 -0.4524
 3444TIP3    H231824   5.769   0.780  16.039 -5.0124  0.1626 -0.5368
 3445TIP3   OH231825   2.217   4.210  11.024 -0.0048 -0.4441  0.2922
 3445TIP3    H131826   2.231   4.129  10.974  1.3178 -0.2515  0.3107
 3445TIP3    H231827   2.228   4.280  10.959 -1.4618 -0.2682  0.2084
 3446TIP3   OH231828   5.754   4.509   4.398  0.3306 -0.0205 -0.7839
 3446TIP3    H131829   5.817   4.570   4.436 -0.5130 -0.1293  0.8491
 3446TIP3    H231830   5.764   4.521   4.303  1.3504  1.4448 -0.5231
 3447TIP3   OH231831   1.625   4.466   3.686 -0.7088  0.1757  0.2330
 3447TIP3    H131832   1.681   4.441   3.613  0.6409 -0.1861  1.3680
 3447TIP3    H231833   1.642   4.560   3.698 -1.2802  0.3439 -0.1809
 3448TIP3   OH231834   4.476   0.291  17.311 -0.3881  0.4472 -0.0109
 3448TIP3    H131835   4.524   0.215  17.345 -0.3566 -0.4740 -1.9893
 3448TIP3    H231836   4.531   0.324  17.240 -1.4815  0.9313 -0.6482
 3449TIP3   OH231837   6.439   3.250   5.712 -0.2870  0.1958 -0.3733
 3449TIP3    H131838   6.384   3.321   5.681  0.1800  0.3605 -0.8547
 3449TIP3    H231839   6.378   3.182   5.741 -0.7544 -0.0013 -1.7497
 3450TIP3   OH231840   3.339   3.125  12.939  0.1819  0.1878  0.5636
 3450TIP3    H131841   3.434   3.123  12.926  0.2891 -0.7625  1.4456
 3450TIP3    H231842   3.327   3.140  13.033 -0.5492  0.8287  0.3796
 3451TIP3   OH231843   6.014   1.829  17.367  0.3021 -0.0035  0.5651
 3451TIP3    H131844   6.011   1.739  17.335  0.0468  0.5153 -0.9251
 3451TIP3    H231845   6.106   1.842  17.392  0.6813 -0.2013 -0.6762
 3452TIP3   OH231846   0.131   1.702  17.137 -0.0237 -0.1206 -0.0068
 3452TIP3    H131847   0.143   1.695  17.043 -0.9229  0.0674 -0.1439
 3452TIP3    H231848   0.065   1.637  17.159  0.8238 -0.7941  0.6435
 3453TIP3   OH231849   6.113   3.662  13.410 -1.1604  0.3300  0.1535
 3453TIP3    H131850   6.196   3.674  13.456 -0.3502 -0.7362 -0.9764
 3453TIP3    H231851   6.063   3.603  13.467 -0.4742 -0.3635  0.0438
 3454TIP3   OH231852   1.051   5.411  16.551  0.5107 -0.1880  0.1440
 3454TIP3    H131853   0.964   5.451  16.554  1.2814  1.5606  2.2531
 3454TIP3    H231854   1.054   5.355  16.629  0.2735 -2.7425 -1.5502
 3455TIP3   OH231855   0.015   4.378   5.810  0.0956  0.7847 -0.1710
 3455TIP3    H131856   0.011   4.426   5.893  1.5675 -0.6040  0.7553
 3455TIP3    H231857  -0.065   4.405   5.763 -1.2993  0.8506  2.0847
 3456TIP3   OH231858   1.749   1.754   4.143 -0.2301 -0.4217  0.4816
 3456TIP3    H131859   1.674   1.728   4.197 -0.1695  0.3395  0.9388
 3456TIP3    H231860   1.779   1.836   4.181  1.9866 -1.5894  1.4520
 3457TIP3   OH231861   4.463   5.603   0.020  0.0926 -0.3101 -0.1244
 3457TIP3    H131862   4.410   5.552  -0.041 -1.5160  0.6784  0.3664
 3457TIP3    H231863   4.418   5.688   0.025  1.5777  0.4810  0.5518
 3458TIP3   OH231864   3.989   2.208  12.903  0.6083 -0.4634  0.0562
 3458TIP3    H131865   3.977   2.167  12.817  0.7432 -0.6892  0.1442
 3458TIP3    H231866   3.961   2.299  12.891  0.7878 -0.4496 -0.2725
 3459TIP3   OH231867   1.452   2.558  12.415 -0.2599 -0.0515  0.5919
 3459TIP3    H131868   1.529   2.517  12.376  0.8784  2.0614  0.4991
 3459TIP3    H231869   1.421   2.619  12.349  0.6230  2.2743  2.2009
 3460TIP3   OH231870   0.705   1.336   1.637  0.2070 -0.6826  0.0831
 3460TIP3    H131871   0.706   1.281   1.715 -0.2605 -0.0071  0.5817
 3460TIP3    H231872   0.679   1.422   1.669 -1.1200 -0.6564 -0.9686
 3461TIP3   OH231873   3.580   3.904  15.494  0.2620  0.1891  0.2640
 3461TIP3    H131874   3.655   3.961  15.478 -0.9808  1.1714 -2.7534
 3461TIP3    H231875   3.533   3.902  15.410 -3.7888  0.6641  2.2936
 3462TIP3   OH231876   1.456   3.764   6.420  0.4720  0.7752 -0.3452
 3462TIP3    H131877   1.419   3.853   6.419 -0.8278  0.2910 -2.3570
 3462TIP3    H231878   1.448   3.736   6.511 -1.2919  1.8707 -0.0983
 3463TIP3   OH231879   5.177   1.967  15.810 -0.0935 -1.1822 -0.2296
 3463TIP3    H131880   5.170   2.032  15.740 -0.8078 -1.1334 -0.1098
 3463TIP3    H231881   5.243   1.905  15.778  1.1230 -0.0221 -0.0375
 3464TIP3   OH231882   1.969   0.830   4.325  0.2258 -0.0636 -0.1391
 3464TIP3    H131883   1.914   0.908   4.335  0.8255  0.1593  1.7218
 3464TIP3    H231884   1.914   0.768   4.276 -1.5451  0.2946  1.2955
 3465TIP3   OH231885   5.422   1.069  11.174  0.2615  0.0653 -0.3002
 3465TIP3    H131886   5.356   1.012  11.135 -0.7578  1.6298 -0.9425
 3465TIP3    H231887   5.373   1.144  11.209  1.6818  1.3772 -0.9972
 3466TIP3   OH231888   3.168   4.144   3.097  0.2215 -0.4123  0.0823
 3466TIP3    H131889   3.134   4.225   3.135  2.2700 -0.7458  2.9150
 3466TIP3    H231890   3.114   4.075   3.136  1.8592 -0.7056  1.9568
 3467TIP3   OH231891   1.699   1.140  13.513  0.5202  0.5127 -0.1279
 3467TIP3    H131892   1.681   1.229  13.543  0.6117  0.0884  1.2676
 3467TIP3    H231893   1.775   1.112  13.563 -0.6404 -1.0078  0.8919
 3468TIP3   OH231894   6.753   2.927  13.194  0.2478  0.3235  0.4445
 3468TIP3    H131895   6.759   3.023  13.194  0.8502  0.2945  1.2907
 3468TIP3    H231896   6.748   2.903  13.286 -0.2403 -0.4545  0.2269
 3469TIP3   OH231897   5.978   2.971  16.532 -0.2832 -0.5355  0.0909
 3469TIP3    H131898   6.047   2.955  16.467 -0.8760 -1.4879 -0.3279
 3469TIP3    H231899   5.926   3.042  16.494  0.8590  0.7022  0.7470
 3470TIP3   OH231900   4.126   2.985   3.865  0.4871 -0.5787 -0.1405
 3470TIP3    H131901   4.169   2.974   3.950  1.7003 -0.1034 -0.6720
 3470TIP3    H231902   4.178   3.052   3.820 -0.7468 -0.0764 -0.8642
 3471TIP3   OH231903   2.460   0.374   1.330  0.1482 -0.4436 -0.2021
 3471TIP3    H131904   2.412   0.454   1.311 -0.7169 -0.7855  0.4681
 3471TIP3    H231905   2.519   0.398   1.402  2.1087  0.3683 -1.9909
 3472TIP3   OH231906   2.817   3.305  11.575  0.1227 -0.4362 -0.2027
 3472TIP3    H131907   2.727   3.276  11.594 -0.9539  2.1745 -0.8465
 3472TIP3    H231908   2.819   3.312  11.479  1.3095 -1.2621 -0.2489
 3473TIP3   OH231909   6.183   4.208   0.613 -0.0452 -0.5820  0.2759
 3473TIP3    H131910   6.098   4.169   0.593 -0.4966 -0.2926  1.5281
 3473TIP3    H231911   6.235   4.136   0.648  0.3525 -0.8332 -0.8044
 3474TIP3   OH231912   1.177   3.665  11.201  0.0963  0.0460  0.0552
 3474TIP3    H131913   1.083   3.679  11.208 -0.0446 -1.0147  0.5688
 3474TIP3    H231914   1.214   3.709  11.277  0.3288  2.6460 -1.4374
 3475TIP3   OH231915   2.692   2.658   5.091  0.7636  0.2517  0.1813
 3475TIP3    H131916   2.615   2.606   5.113  0.0923  1.8168  1.8226
 3475TIP3    H231917   2.658   2.724   5.030  0.5528  1.4523  1.5379
 3476TIP3   OH231918   5.132   2.559   2.506  0.0145  0.1542  0.1292
 3476TIP3    H131919   5.184   2.630   2.545 -2.4995  1.1008  1.9836
 3476TIP3    H231920   5.084   2.601   2.435  0.6840 -0.4198 -0.6910
 3477TIP3   OH231921   5.977   1.981   3.875 -0.3940 -0.5232  0.0408
 3477TIP3    H131922   5.955   1.987   3.782 -1.4856  0.4455  0.3436
 3477TIP3    H231923   6.056   1.927   3.877  0.7203  0.9136 -1.6166
 3478TIP3   OH231924   4.107   4.969  15.945  0.7350 -0.4447  0.0020
 3478TIP3    H131925   4.154   5.044  15.907  0.1074  0.0212  0.1221
 3478TIP3    H231926   4.042   4.945  15.880 -0.4274  0.4363  0.7949
 3479TIP3   OH231927   0.365   4.953  11.398 -0.2073  0.1888 -0.2732
 3479TIP3    H131928   0.401   5.036  11.368  0.4349 -0.2017 -0.6238
 3479TIP3    H231929   0.271   4.966  11.399 -0.0332  1.8553  2.4538
 3480TIP3   OH231930   4.629   2.116  15.198  0.1213 -0.0821 -0.6901
 3480TIP3    H131931   4.641   2.171  15.120 -1.3850  1.7451  0.2854
 3480TIP3    H231932   4.714   2.117  15.242 -0.2297  2.9703  0.1673
 3481TIP3   OH231933   1.454   5.418   6.203 -0.1334 -0.2968 -0.1046
 3481TIP3    H131934   1.386   5.483   6.185 -2.1371 -2.0874  0.5636
 3481TIP3    H231935   1.447   5.355   6.131  1.5779  0.0154 -0.5963
 3482TIP3   OH231936   1.287   5.608   1.896  0.1674 -0.1982  0.2257
 3482TIP3    H131937   1.227   5.578   1.964 -0.0557 -0.8518 -0.2533
 3482TIP3    H231938   1.279   5.544   1.826  2.5462 -1.1603  0.7356
 3483TIP3   OH231939   6.592   5.117   5.736  0.1023  0.3614  0.8726
 3483TIP3    H131940   6.573   5.032   5.696 -0.0228  1.0498 -0.5770
 3483TIP3    H231941   6.554   5.110   5.824 -0.5058 -0.8473  0.5473
 3484TIP3   OH231942   1.307   2.535   4.355  0.7126 -0.7482 -0.2757
 3484TIP3    H131943   1.386   2.504   4.399  0.4690  0.5820  1.1968
 3484TIP3    H231944   1.249   2.563   4.426 -0.4610 -0.2659 -1.3788
 3485TIP3   OH231945   0.006   1.667   4.514  0.4979 -0.1707  0.4529
 3485TIP3    H131946   0.002   1.583   4.469  0.5067  0.4975 -0.8459
 3485TIP3    H231947  -0.068   1.666   4.575 -1.1841 -0.0639 -1.4981
 3486TIP3   OH231948   4.086   0.913   3.696 -0.8864 -0.1195 -0.3273
 3486TIP3    H131949   4.049   0.991   3.739 -2.2296 -0.0119 -1.5921
 3486TIP3    H231950   4.034   0.840   3.731 -0.9375 -0.2123 -0.5978
 3487TIP3   OH231951   3.004   4.085   3.777  0.0961  0.0701  0.0351
 3487TIP3    H131952   2.922   4.068   3.823 -0.6645  0.0362 -1.2792
 3487TIP3    H231953   3.025   4.176   3.798  0.4158 -0.3008  1.3966
 3488TIP3   OH231954   0.218   4.337  11.448  0.1793 -0.4505  0.3524
 3488TIP3    H131955   0.134   4.375  11.425  0.7918 -0.2421 -1.7901
 3488TIP3    H231956   0.196   4.254  11.491 -1.1052  0.1528  0.9079
 3489TIP3   OH231957   6.095   4.373   2.228 -0.4356 -0.2272 -0.5404
 3489TIP3    H131958   6.064   4.449   2.277  0.3240 -0.1802 -0.1238
 3489TIP3    H231959   6.018   4.340   2.183 -0.9822  0.1799  0.0908
 3490TIP3   OH231960   6.781   3.224  15.325 -0.4710  0.5838  0.2772
 3490TIP3    H131961   6.818   3.207  15.239 -0.5195  1.6383  0.0319
 3490TIP3    H231962   6.857   3.231  15.383 -0.4717 -1.1079  0.5378
 3491TIP3   OH231963   3.564   4.633  15.267 -0.3804  0.2226  0.0316
 3491TIP3    H131964   3.484   4.615  15.315  0.0023 -0.5182  0.4024
 3491TIP3    H231965   3.633   4.629  15.333 -0.0904  1.4562 -0.1673
 3492TIP3   OH231966   5.156   0.889   0.753 -0.3426 -0.2908 -0.6593
 3492TIP3    H131967   5.238   0.903   0.800 -0.1558 -0.2269 -1.0007
 3492TIP3    H231968   5.098   0.848   0.817 -0.5455  1.0556  0.0377
 3493TIP3   OH231969   1.289   0.559  12.122 -0.1286  0.6063  0.3070
 3493TIP3    H131970   1.292   0.466  12.145  3.3910  0.6607  0.7280
 3493TIP3    H231971   1.275   0.604  12.205  0.2009  0.4713  0.4399
 3494TIP3   OH231972   2.748   4.866  13.454 -0.1674  0.1379 -0.3655
 3494TIP3    H131973   2.812   4.842  13.522  1.8020  0.4504 -2.0158
 3494TIP3    H231974   2.742   4.788  13.399  0.4981  0.8394 -1.4638
 3495TIP3   OH231975   1.896   4.098   4.200  0.2927 -0.5983 -0.3102
 3495TIP3    H131976   1.848   4.141   4.129 -0.0639  0.7700  0.7219
 3495TIP3    H231977   1.890   4.158   4.274 -1.3825 -3.0066  1.6801
 3496TIP3   OH231978   3.542   6.715   1.645 -0.6569 -0.2800 -0.3125
 3496TIP3    H131979   3.519   6.623   1.656  0.9294 -0.6800 -0.0068
 3496TIP3    H231980   3.602   6.733   1.717 -1.2108  1.1050 -0.1728
 3497TIP3   OH231981   5.263   3.874   2.559  0.0474 -0.1819 -0.4842
 3497TIP3    H131982   5.282   3.793   2.607  0.6481  0.3040  0.1136
 3497TIP3    H231983   5.211   3.845   2.484 -0.2830 -1.0457  0.0614
 3498TIP3   OH231984   1.869   0.976  13.041  0.1101  0.1280  0.4153
 3498TIP3    H131985   1.916   0.893  13.043  0.0421  0.0855  0.2841
 3498TIP3    H231986   1.934   1.040  13.013 -0.1333 -0.0863 -0.6873
 3499TIP3   OH231987   5.693   5.919   0.509 -0.2797  0.0812  0.0004
 3499TIP3    H131988   5.653   6.006   0.515  0.7293  0.7009 -1.6303
 3499TIP3    H231989   5.633   5.868   0.454  0.1035  0.3598 -0.6820
 3500TIP3   OH231990   2.282   4.164  14.814 -0.0864 -0.3733  0.2428
 3500TIP3    H131991   2.286   4.256  14.841  2.7700 -1.1163  3.0515
 3500TIP3    H231992   2.239   4.119  14.886 -1.7493 -1.2865 -1.2416
 3501TIP3   OH231993   1.430   4.789   5.072 -0.1778 -0.5352 -0.0330
 3501TIP3    H131994   1.522   4.806   5.050 -0.0310 -1.4195 -0.1441
 3501TIP3    H231995   1.427   4.793   5.167 -0.1280 -0.0160 -0.0512
 3502TIP3   OH231996   0.747   0.132  13.527 -0.7357  0.1688 -0.4803
 3502TIP3    H131997   0.777   0.146  13.617 -1.0740 -1.4229 -0.0775
 3502TIP3    H231998   0.654   0.154  13.529 -1.2431 -1.8175  0.1232
 3503TIP3   OH231999   4.355   4.242   1.748 -0.0424 -0.6926  0.2908
 3503TIP3    H132000   4.379   4.167   1.802 -0.8631 -0.0037  1.6741
 3503TIP3    H232001   4.259   4.248   1.757 -0.2124 -0.6025 -1.3250
 3504TIP3   OH232002   3.139   3.312   4.386 -0.5922  0.2113 -0.2271
 3504TIP3    H132003   3.063   3.259   4.362 -0.2925  0.6083 -2.1691
 3504TIP3    H232004   3.194   3.314   4.308  0.4315  1.6339  0.4698
 3505TIP3   OH232005   5.880   5.815   4.204 -0.1813  0.2464  0.2514
 3505TIP3    H132006   5.831   5.809   4.122  0.0853 -0.3119  0.1297
 3505TIP3    H232007   5.821   5.862   4.264 -0.2263  1.0063 -0.3645
 3506TIP3   OH232008   2.152   0.286   0.068 -0.4659  0.0780  0.7150
 3506TIP3    H132009   2.182   0.348   0.134 -0.2237  0.0640  0.6202
 3506TIP3    H232010   2.154   0.336  -0.014 -0.8393  0.1187  0.7320
 3507TIP3   OH232011   5.883   0.149  13.175  0.1088  0.1181 -0.1210
 3507TIP3    H132012   5.917   0.124  13.089 -0.9726  0.3361 -0.6448
 3507TIP3    H232013   5.854   0.240  13.163 -0.3663  0.0379  0.3685
 3508TIP3   OH232014   2.884   1.420  12.734  0.2850 -0.0988 -0.2974
 3508TIP3    H132015   2.934   1.501  12.743 -1.2171  0.8237 -0.0388
 3508TIP3    H232016   2.919   1.379  12.655  2.0544  0.0493  0.3563
 3509TIP3   OH232017   4.164   5.743  10.954 -0.0421 -0.2923  0.5496
 3509TIP3    H132018   4.183   5.829  10.916  2.0038 -0.8576  0.1674
 3509TIP3    H232019   4.157   5.759  11.048  0.1444  0.3238  0.4624
 3510TIP3   OH232020   5.029   2.979  14.526  0.2858 -0.4186  0.1756
 3510TIP3    H132021   5.109   3.016  14.563  0.4017 -1.1210  0.6578
 3510TIP3    H232022   5.048   2.970  14.432  1.4897 -2.2435  0.5222
 3511TIP3   OH232023   3.523   4.348  16.891  0.0524 -0.7203  0.1593
 3511TIP3    H132024   3.564   4.349  16.978 -0.0475 -1.2014  0.2123
 3511TIP3    H232025   3.467   4.270  16.892  0.9659 -1.4106 -0.7680
 3512TIP3   OH232026   3.362   6.698   4.699  0.1255 -0.1863  0.3693
 3512TIP3    H132027   3.299   6.627   4.710 -0.9513  0.3657 -1.7503
 3512TIP3    H232028   3.313   6.777   4.720 -0.0347  0.2745 -1.5389
 3513TIP3   OH232029   3.632   1.259   0.498 -0.0002  0.1350 -0.3002
 3513TIP3    H132030   3.654   1.227   0.411  0.6046  0.4744 -0.2736
 3513TIP3    H232031   3.687   1.336   0.511 -0.2487  0.2229  0.2932
 3514TIP3   OH232032   1.014   0.323  16.394 -0.4812 -0.0413 -0.2012
 3514TIP3    H132033   0.937   0.306  16.447 -0.9324  0.1642 -0.7769
 3514TIP3    H232034   1.056   0.398  16.435 -2.2471  1.8302 -1.5674
 3515TIP3   OH232035   0.491   3.334   5.056  0.5866  0.7841 -0.3583
 3515TIP3    H132036   0.578   3.309   5.024  0.5099 -0.7963  0.5779
 3515TIP3    H232037   0.507   3.402   5.120  1.0454  1.2197 -0.9269
 3516TIP3   OH232038   6.756   3.684  13.330 -0.1162 -0.0751 -0.5440
 3516TIP3    H132039   6.727   3.763  13.285 -0.9264 -1.0565 -1.8273
 3516TIP3    H232040   6.840   3.663  13.289  0.3659  0.4023  0.1770
 3517TIP3   OH232041   2.254   3.797  14.692  0.5000  0.2825  0.0197
 3517TIP3    H132042   2.327   3.834  14.643  0.8230  1.2044  1.1487
 3517TIP3    H232043   2.290   3.717  14.732  0.3318 -0.2853 -0.9358
 3518TIP3   OH232044   1.011   2.571   0.386 -0.2877 -0.1078 -0.4001
 3518TIP3    H132045   0.958   2.496   0.411 -0.8675  0.7534  1.0613
 3518TIP3    H232046   1.031   2.556   0.293 -1.4310 -1.4195 -0.4694
 3519TIP3   OH232047   3.322   2.760  16.974  0.1816  0.0631 -0.0295
 3519TIP3    H132048   3.315   2.677  16.926  1.1491  0.1845 -0.3938
 3519TIP3    H232049   3.231   2.785  16.992 -0.1550 -0.5606 -0.8069
 3520TIP3   OH232050   0.528   4.144   6.511 -0.5292 -0.1465  0.0759
 3520TIP3    H132051   0.525   4.231   6.471  0.7791  0.5280  1.3818
 3520TIP3    H232052   0.598   4.098   6.464 -0.4334 -0.1074  0.1840
 3521TIP3   OH232053   3.846   6.074  12.909 -0.3386  0.2266  0.7632
 3521TIP3    H132054   3.789   6.140  12.869  1.7620  1.3692 -0.4838
 3521TIP3    H232055   3.860   6.009  12.839 -1.1155 -0.7603  1.4857
 3522TIP3   OH232056   5.266   0.227   0.129 -0.5327  0.2619 -0.1007
 3522TIP3    H132057   5.276   0.141   0.087 -0.9770  0.7197 -1.1846
 3522TIP3    H232058   5.171   0.236   0.143 -0.5583  0.8665 -0.6384
 3523TIP3   OH232059   4.749   4.800  14.610 -0.2745 -0.0261 -1.0481
 3523TIP3    H132060   4.728   4.865  14.544  1.6870  2.0960  0.2402
 3523TIP3    H232061   4.670   4.794  14.664 -0.2316  2.0144 -0.6845
 3524TIP3   OH232062   2.456   6.490   1.429  0.3685 -0.3972  0.0922
 3524TIP3    H132063   2.379   6.473   1.376  0.6490 -2.3027  0.2134
 3524TIP3    H232064   2.496   6.568   1.389 -2.0336  1.1911  0.5820
 3525TIP3   OH232065   6.331   3.633  14.659 -0.0828  0.0978 -0.1015
 3525TIP3    H132066   6.278   3.571  14.608 -0.3377  2.2896 -2.7418
 3525TIP3    H232067   6.412   3.586  14.677 -0.6559 -1.3580 -1.1093
 3526TIP3   OH232068   5.065   6.371  11.822 -0.3923  0.1503 -0.2868
 3526TIP3    H132069   4.989   6.360  11.764  0.0868 -2.2187 -0.5508
 3526TIP3    H232070   5.041   6.322  11.901  0.2004  0.7850  0.2929
 3527TIP3   OH232071   4.583   3.385  15.316  0.7945 -0.0145 -0.1848
 3527TIP3    H132072   4.602   3.348  15.402 -0.8451 -0.2811  0.1085
 3527TIP3    H232073   4.500   3.431  15.327 -0.0088 -0.9403 -1.8371
 3528TIP3   OH232074   5.948   6.109   5.226 -0.1253 -0.1885  0.9021
 3528TIP3    H132075   5.926   6.073   5.140 -1.5267  0.4935  0.9515
 3528TIP3    H232076   5.983   6.035   5.275 -2.2105 -1.3131  0.7684
 3529TIP3   OH232077   6.359   2.278  16.629 -0.2198  0.2650 -0.2968
 3529TIP3    H132078   6.385   2.275  16.537  1.7170  1.0249  0.1817
 3529TIP3    H232079   6.439   2.261  16.677 -1.2468 -0.3197  1.2748
 3530TIP3   OH232080   2.658   0.990  15.406 -0.7713 -0.3738 -0.4768
 3530TIP3    H132081   2.650   1.005  15.500  1.5548  0.9669 -0.4270
 3530TIP3    H232082   2.622   0.902  15.393 -1.6472 -0.3688  1.5496
 3531TIP3   OH232083   5.624   5.615  14.694 -0.2032 -0.1760  0.8747
 3531TIP3    H132084   5.580   5.700  14.697  0.4067  0.1209  1.9568
 3531TIP3    H232085   5.606   5.581  14.606 -1.7062  0.3927  0.9444
 3532TIP3   OH232086   1.706   6.390   4.635  0.1408 -0.2934 -0.4597
 3532TIP3    H132087   1.687   6.470   4.585 -0.6497 -0.8974 -1.1602
 3532TIP3    H232088   1.690   6.414   4.726 -1.7773 -0.1056 -0.8100
 3533TIP3   OH232089   6.772   0.844   2.156 -0.1781  0.8050  0.2679
 3533TIP3    H132090   6.739   0.863   2.069  0.4774  0.3932 -0.0729
 3533TIP3    H232091   6.821   0.762   2.147  0.0842  0.8695  0.9729
 3534TIP3   OH232092   5.663   4.872   2.807 -0.1989 -0.1812 -0.2938
 3534TIP3    H132093   5.713   4.920   2.741  2.4660 -0.3142  1.4746
 3534TIP3    H232094   5.727   4.814   2.848 -1.6938 -0.0681  2.4273
 3535TIP3   OH232095   5.409   2.792   2.079 -0.1572 -0.0943  0.0813
 3535TIP3    H132096   5.418   2.858   2.011 -0.4975  1.1592  1.2130
 3535TIP3    H232097   5.443   2.711   2.039 -1.0915  0.3978 -1.8179
 3536TIP3   OH232098   3.004   5.088   4.130 -0.6958  0.1019 -1.0143
 3536TIP3    H132099   2.955   5.062   4.052 -0.7152  0.9504 -1.2994
 3536TIP3    H232100   2.970   5.175   4.152  0.5150  0.6220 -1.1019
 3537TIP3   OH232101   3.513   2.125   2.497 -0.3360 -0.0253  0.2264
 3537TIP3    H132102   3.555   2.160   2.576 -2.1738  2.6211  0.1463
 3537TIP3    H232103   3.446   2.066   2.530  3.1719 -4.4591  0.3555
 3538TIP3   OH232104   5.793   2.155   1.456  0.0694 -0.1199  0.0016
 3538TIP3    H132105   5.785   2.158   1.361 -1.1817  2.1709  0.1209
 3538TIP3    H232106   5.703   2.149   1.488  0.2106  2.1977  1.0390
 3539TIP3   OH232107   1.936   5.250  14.032 -0.2534  0.9362 -0.0346
 3539TIP3    H132108   1.912   5.287  13.947 -3.0528  0.3166  0.3781
 3539TIP3    H232109   1.853   5.244  14.079  0.9903 -0.2518  2.1497
 3540TIP3   OH232110   5.660   2.148  11.084  0.1357  0.3964  0.1224
 3540TIP3    H132111   5.753   2.147  11.059  0.8559 -0.5347  2.5111
 3540TIP3    H232112   5.651   2.228  11.136 -0.4899  0.6271 -0.3367
 3541TIP3   OH232113   0.324   1.242  14.795 -0.5195  0.1234 -0.1299
 3541TIP3    H132114   0.327   1.225  14.701  0.5875  0.1986 -0.1215
 3541TIP3    H232115   0.300   1.334  14.803  0.1239  0.3192 -0.3716
 3542TIP3   OH232116   3.687   5.071   6.207 -0.4108 -0.1200  0.1936
 3542TIP3    H132117   3.620   5.022   6.255 -0.4097 -0.6218 -0.3019
 3542TIP3    H232118   3.741   5.111   6.275 -1.7412  1.0451  0.6078
 3543TIP3   OH232119   3.928   2.930   0.357 -0.0275 -0.0512 -0.2099
 3543TIP3    H132120   3.946   2.981   0.278  1.3497  1.5743  1.0822
 3543TIP3    H232121   3.938   2.992   0.429 -1.1228 -1.5070  1.2816
 3544TIP3   OH232122   6.390   1.090  12.219 -0.7797 -0.4570 -0.4127
 3544TIP3    H132123   6.406   1.033  12.295  0.7641  0.2654 -0.1499
 3544TIP3    H232124   6.390   1.178  12.256 -0.4602 -0.1277 -1.1962
 3545TIP3   OH232125   5.962   5.379  11.234  0.1851 -0.3992 -0.0147
 3545TIP3    H132126   5.896   5.402  11.299  0.5810 -0.8167  0.5484
 3545TIP3    H232127   5.998   5.295  11.264  1.2331  0.0008 -0.0976
 3546TIP3   OH232128   6.459   4.685  15.552 -0.0317 -0.3526  0.2333
 3546TIP3    H132129   6.553   4.669  15.546  0.3404  1.0116  1.7684
 3546TIP3    H232130   6.427   4.671  15.463  1.3509 -2.2979 -0.0314
 3547TIP3   OH232131   3.552   3.284   1.498  0.0993 -0.5495  0.7801
 3547TIP3    H132132   3.530   3.371   1.465  0.4175 -1.4416 -1.9880
 3547TIP3    H232133   3.599   3.242   1.426  0.7905 -2.6998  2.3935
 3548TIP3   OH232134   2.578   3.689   6.170 -0.2767 -0.4396  0.7410
 3548TIP3    H132135   2.541   3.774   6.144  1.6502  0.0314 -0.7594
 3548TIP3    H232136   2.649   3.712   6.230 -0.7094 -1.1265  1.5326
 3549TIP3   OH232137   6.428   0.062  12.766  0.4628  0.0640 -0.4758
 3549TIP3    H132138   6.356   0.124  12.751  0.5835  0.9865  2.1035
 3549TIP3    H232139   6.506   0.116  12.764  0.7139 -0.2550  0.3160
 3550TIP3   OH232140   0.963   5.861   5.831 -0.0836 -0.0201 -0.2542
 3550TIP3    H132141   1.030   5.926   5.809 -0.8761  1.3883  1.2717
 3550TIP3    H232142   0.991   5.827   5.916 -1.1972  0.4686  0.3195
 3551TIP3   OH232143   6.556   2.519   5.719 -0.2448 -0.0151 -0.9536
 3551TIP3    H132144   6.612   2.523   5.797  1.4654  0.0281 -2.1140
 3551TIP3    H232145   6.523   2.608   5.709  0.6961  0.3357 -1.0648
 3552TIP3   OH232146   4.059   4.862  12.777  0.0271 -0.5597  0.2317
 3552TIP3    H132147   4.148   4.827  12.778 -0.4424 -1.9463  2.8466
 3552TIP3    H232148   4.065   4.945  12.825  0.0198 -0.2159 -0.3450
 3553TIP3   OH232149   0.722   3.349  12.579 -0.0963 -0.0600  0.9594
 3553TIP3    H132150   0.627   3.351  12.591 -0.4455 -2.8212 -0.6754
 3553TIP3    H232151   0.740   3.422  12.520 -1.6827 -1.2554 -1.1430
 3554TIP3   OH232152   0.319   1.664   1.339 -0.4190 -0.2951  0.6236
 3554TIP3    H132153   0.291   1.604   1.270 -1.1646  0.7733 -0.0339
 3554TIP3    H232154   0.261   1.739   1.331  1.9800  1.6068 -0.1643
 3555TIP3   OH232155   4.039   0.024  12.054  0.1837 -1.0708  0.2904
 3555TIP3    H132156   4.054  -0.027  11.975 -2.4954  2.0718 -2.5528
 3555TIP3    H232157   3.978  -0.028  12.105 -1.7857 -1.2692 -2.0889
 3556TIP3   OH232158   1.479   0.276   0.719  0.7915  0.1523 -0.6942
 3556TIP3    H132159   1.548   0.331   0.682  0.6245  0.8788  0.0494
 3556TIP3    H232160   1.523   0.193   0.738  1.4000  0.5186 -0.4712
 3557TIP3   OH232161   0.740   0.285  11.804 -0.6946  0.1366  0.2188
 3557TIP3    H132162   0.664   0.228  11.792 -0.7023  0.1215  0.3301
 3557TIP3    H232163   0.763   0.315  11.716  0.7399 -1.8970 -0.1666
 3558TIP3   OH232164   1.445   5.199  17.233  0.7020  0.3141  0.0088
 3558TIP3    H132165   1.355   5.225  17.248  0.6110 -0.2429  0.4295
 3558TIP3    H232166   1.496   5.254  17.292  0.5018 -0.5135  0.9664
 3559TIP3   OH232167   2.371   3.674   5.770  0.0689  0.6675 -0.7258
 3559TIP3    H132168   2.377   3.696   5.677  1.5571  0.7192 -0.6316
 3559TIP3    H232169   2.415   3.746   5.815  0.3233  0.1041 -0.0514
 3560TIP3   OH232170   6.451   3.897  15.170 -0.3614 -0.0014 -0.4643
 3560TIP3    H132171   6.407   3.979  15.192  0.8282  0.6486 -0.4461
 3560TIP3    H232172   6.537   3.903  15.212 -0.5694 -1.6459  0.2921
 3561TIP3   OH232173   4.680   0.124  10.706  0.2305  0.5045  0.0363
 3561TIP3    H132174   4.676   0.206  10.755 -0.1338  0.3720  0.2333
 3561TIP3    H232175   4.595   0.082  10.722 -0.5301  1.1726 -1.9413
 3562TIP3   OH232176   0.003   2.405   0.230  0.2797  0.1577  0.0148
 3562TIP3    H132177   0.063   2.331   0.241 -0.5569 -0.8742 -1.7333
 3562TIP3    H232178   0.052   2.468   0.178  0.4130  0.0170 -0.0315
 3563TIP3   OH232179   2.001   6.390   3.585  0.2319  0.0700  0.6013
 3563TIP3    H132180   2.090   6.361   3.607  0.0601 -0.9036  0.0810
 3563TIP3    H232181   2.008   6.485   3.577  1.0912  0.0639  1.1674
 3564TIP3   OH232182   4.383   0.175  12.831 -0.0667 -0.6626  0.0924
 3564TIP3    H132183   4.317   0.158  12.898  0.9397 -1.5236  0.9016
 3564TIP3    H232184   4.467   0.160  12.875  0.6142 -1.6632 -1.4590
 3565TIP3   OH232185   5.737   2.652  14.194  0.7089  0.0856  0.0064
 3565TIP3    H132186   5.829   2.678  14.198  0.1572  2.1606  0.0756
 3565TIP3    H232187   5.688   2.733  14.210 -1.1433 -0.7688 -1.0408
 3566TIP3   OH232188   6.120   4.020   0.394  0.3381 -0.6602 -0.9771
 3566TIP3    H132189   6.201   4.006   0.345  0.8649 -0.1177 -0.2732
 3566TIP3    H232190   6.103   3.936   0.437  2.4353  0.1320  1.6670
 3567TIP3   OH232191   5.523   0.406  12.584 -0.1553 -0.2590  0.4436
 3567TIP3    H132192   5.446   0.395  12.638  0.2033  0.3429  1.1006
 3567TIP3    H232193   5.497   0.469  12.517 -0.1066  0.3198  0.9547
 3568TIP3   OH232194   4.463   6.148   4.578 -0.1132  0.0535 -1.2669
 3568TIP3    H132195   4.480   6.242   4.589 -1.2976  0.1435  0.1063
 3568TIP3    H232196   4.443   6.138   4.485  0.4597  1.0890 -1.5139
 3569TIP3   OH232197   6.643   1.834  14.331  0.1720  0.7945 -0.2778
 3569TIP3    H132198   6.701   1.762  14.307 -0.2524  0.4076 -0.1647
 3569TIP3    H232199   6.565   1.791  14.366  0.3609  1.3148  0.8519
 3570TIP3   OH232200   4.868   4.914  11.587  0.1023  0.5629  0.2291
 3570TIP3    H132201   4.918   4.847  11.541  0.7512  0.8501  0.4971
 3570TIP3    H232202   4.793   4.931  11.531  0.9084  0.9453 -0.7533
 3571TIP3   OH232203   4.477   2.673  11.653 -0.4593 -0.2496 -0.1630
 3571TIP3    H132204   4.398   2.632  11.688  0.0781 -0.1162  1.2566
 3571TIP3    H232205   4.444   2.749  11.604 -1.1987  0.0515  0.7665
 3572TIP3   OH232206   3.813   2.310  14.533  0.2726  0.5910 -0.7589
 3572TIP3    H132207   3.771   2.385  14.575 -0.3272 -0.3387  0.3703
 3572TIP3    H232208   3.784   2.314  14.442 -0.6884  1.0805 -0.4431
 3573TIP3   OH232209   3.787   1.454   1.244 -0.3526  0.1180 -0.2780
 3573TIP3    H132210   3.836   1.511   1.304 -0.9805 -1.0091  1.3535
 3573TIP3    H232211   3.831   1.466   1.159  1.3424  0.8080  0.6526
 3574TIP3   OH232212   2.091   3.593  11.141 -0.3126  0.3236 -0.3250
 3574TIP3    H132213   2.093   3.607  11.235 -0.1980  1.5433 -0.4984
 3574TIP3    H232214   2.019   3.647  11.110  0.3161  0.7593 -1.0592
 3575TIP3   OH232215   0.179   2.416   4.624 -0.1343  0.4697 -0.5020
 3575TIP3    H132216   0.221   2.338   4.588 -0.7526  0.3068 -0.8934
 3575TIP3    H232217   0.195   2.412   4.718 -0.2071 -0.1472 -0.5181
 3576TIP3   OH232218   4.868   6.632   0.904 -0.5028 -0.1658  0.7346
 3576TIP3    H132219   4.928   6.591   0.842 -1.5933 -0.7550  0.0191
 3576TIP3    H232220   4.798   6.667   0.848 -0.9267  0.3142  1.5534
 3577TIP3   OH232221   2.941   1.442  15.458  0.1337 -0.6539 -0.0858
 3577TIP3    H132222   3.022   1.459  15.507  0.5719 -1.5169 -0.5007
 3577TIP3    H232223   2.960   1.364  15.407 -1.0276 -0.9598 -0.0631
 3578TIP3   OH232224   4.972   1.852  15.268 -0.5304  0.1593  0.1528
 3578TIP3    H132225   4.916   1.884  15.339 -2.5843  1.9284 -2.0613
 3578TIP3    H232226   4.915   1.795  15.217  0.3456  0.2749 -0.9979
 3579TIP3   OH232227   4.500   4.641  15.013  0.3007 -0.3565  0.6009
 3579TIP3    H132228   4.516   4.690  15.094  0.1848 -0.9849  1.0097
 3579TIP3    H232229   4.441   4.570  15.039 -0.2262 -0.2033 -0.1584
 3580TIP3   OH232230   5.581   6.041  12.940 -0.1095 -0.1366  0.0214
 3580TIP3    H132231   5.609   5.957  12.903  2.4191  0.3257  0.7217
 3580TIP3    H232232   5.540   6.086  12.866  0.4722 -1.1264 -0.9452
 3581TIP3   OH232233   6.208   2.570   5.238 -0.2232 -0.3374  0.5322
 3581TIP3    H132234   6.230   2.659   5.265 -0.8836  0.4292 -1.3109
 3581TIP3    H232235   6.231   2.566   5.145  0.2767 -2.2745  0.6904
 3582TIP3   OH232236   5.736   2.421   3.114  0.6055 -0.2539  0.1555
 3582TIP3    H132237   5.692   2.505   3.128 -0.1407 -0.6362  0.1401
 3582TIP3    H232238   5.689   2.381   3.041 -0.6291 -1.7280  1.6799
 3583TIP3   OH232239   6.394   3.849   5.272 -0.0507  0.0870  0.3988
 3583TIP3    H132240   6.379   3.801   5.354  1.8720  0.8580  1.2900
 3583TIP3    H232241   6.351   3.933   5.286 -2.3076 -0.8301 -0.6445
 3584TIP3   OH232242   3.226   1.563   4.179 -1.1537  0.2822  0.1631
 3584TIP3    H132243   3.146   1.613   4.165 -0.4303  2.2957  2.4590
 3584TIP3    H232244   3.207   1.509   4.256 -0.7236 -0.1734 -0.0462
 3585TIP3   OH232245   5.803   3.691   4.440  0.5944 -0.1450  0.1828
 3585TIP3    H132246   5.851   3.684   4.523  0.6126 -0.3210  0.1584
 3585TIP3    H232247   5.871   3.710   4.375  0.5551  0.1847  0.2384
 3586TIP3   OH232248   4.597   3.466   4.810 -0.0294  0.6303  0.0945
 3586TIP3    H132249   4.604   3.514   4.728 -0.1731  0.1645 -0.1899
 3586TIP3    H232250   4.503   3.451   4.822  0.0050  0.5425  0.2564
 3587TIP3   OH232251   3.298   4.882  15.588  0.2176 -0.3366  0.1837
 3587TIP3    H132252   3.366   4.837  15.637  0.0809 -0.6812  0.0606
 3587TIP3    H232253   3.312   4.856  15.497 -0.3165 -0.7303  0.2065
 3588TIP3   OH232254   5.020   3.043   1.750  0.2271  0.5807 -0.0477
 3588TIP3    H132255   5.021   2.962   1.701  1.0824 -0.2205  1.2331
 3588TIP3    H232256   5.111   3.073   1.750 -0.1647  1.9067 -1.0361
 3589TIP3   OH232257   6.722   1.539  13.392  0.1686  0.2680 -0.0197
 3589TIP3    H132258   6.707   1.451  13.357  1.6509  0.5610 -1.5231
 3589TIP3    H232259   6.789   1.576  13.335 -1.0840  2.7396 -0.0042
 3590TIP3   OH232260   3.058   3.494   1.092 -0.1571  0.0702  0.4805
 3590TIP3    H132261   3.031   3.533   1.009 -1.7993 -0.5456  0.6750
 3590TIP3    H232262   3.128   3.550   1.124  1.4649 -0.4266 -1.9379
 3591TIP3   OH232263   3.661   5.832   3.634 -0.0280 -0.5034 -0.2919
 3591TIP3    H132264   3.685   5.824   3.542  0.5890  0.1196 -0.2025
 3591TIP3    H232265   3.745   5.825   3.680 -0.4546 -1.9899  0.3151
 3592TIP3   OH232266   2.636   2.573  12.375 -0.0893 -0.3083  0.0889
 3592TIP3    H132267   2.724   2.608  12.388 -0.1803 -0.2407  0.5287
 3592TIP3    H232268   2.595   2.634  12.313  0.2359 -0.4545 -0.2783
 3593TIP3   OH232269   2.190   3.232   2.270  0.1670 -0.2289  0.0105
 3593TIP3    H132270   2.143   3.314   2.259  0.4279 -0.0322  0.3460
 3593TIP3    H232271   2.280   3.258   2.287  0.4492 -0.6072 -0.8521
 3594TIP3   OH232272   4.415   0.123   6.371 -0.0999 -0.7500 -0.0021
 3594TIP3    H132273   4.420   0.091   6.461  0.9515 -2.6811 -0.6811
 3594TIP3    H232274   4.332   0.088   6.338 -1.0932  0.9839  0.5282
 3595TIP3   OH232275   5.062   1.798   0.192  0.4609  0.4722 -0.5431
 3595TIP3    H132276   4.967   1.809   0.198  0.5467  0.7637  0.4798
 3595TIP3    H232277   5.074   1.713   0.150 -0.2543  0.2397 -0.2915
 3596TIP3   OH232278   4.710   3.267   3.538  0.2706  0.4718 -0.0528
 3596TIP3    H132279   4.731   3.231   3.624 -1.1044 -2.0754 -0.7142
 3596TIP3    H232280   4.795   3.275   3.495  0.9211  1.2454  1.2743
 3597TIP3   OH232281   4.671   6.520   3.539 -0.0063 -0.0064  0.6785
 3597TIP3    H132282   4.595   6.471   3.506  0.6044  0.2364 -1.1858
 3597TIP3    H232283   4.723   6.455   3.585 -0.2065 -0.6941 -0.0378
 3598TIP3   OH232284   0.790   3.207  15.452  0.6235 -0.4661 -0.3663
 3598TIP3    H132285   0.812   3.127  15.405 -1.7268 -0.1182 -2.2344
 3598TIP3    H232286   0.734   3.178  15.524  1.2189 -0.6446  0.0328
 3599TIP3   OH232287   4.014   2.318  14.223  0.0391 -0.1884  0.4445
 3599TIP3    H132288   3.982   2.350  14.307  0.0689 -1.6400  1.0318
 3599TIP3    H232289   4.108   2.305  14.235 -0.2719 -2.3088  0.8529
 3600TIP3   OH232290   0.690   4.596  13.967  0.0872  0.0731 -0.7100
 3600TIP3    H132291   0.660   4.524  14.022 -0.5787  1.5245  0.9167
 3600TIP3    H232292   0.634   4.592  13.889  0.2649 -1.3099 -0.7936
 3601TIP3   OH232293   3.484   6.682   2.872  0.3867 -0.4191 -0.2259
 3601TIP3    H132294   3.489   6.681   2.968 -0.2402  1.4821 -0.1266
 3601TIP3    H232295   3.399   6.642   2.852 -0.1216  0.4646  0.1121
 3602TIP3   OH232296   1.308   4.356   5.901  0.8368 -0.5983 -0.7112
 3602TIP3    H132297   1.393   4.316   5.886  0.6783 -0.6924 -1.3894
 3602TIP3    H232298   1.245   4.285   5.887  0.7044 -1.0545  1.7094
 3603TIP3   OH232299   2.939   2.227  17.051 -0.4775 -0.7368  0.5155
 3603TIP3    H132300   2.991   2.276  17.115 -1.0471 -1.9887  2.0046
 3603TIP3    H232301   2.860   2.202  17.098 -1.3584 -0.8942 -0.9862
 3604TIP3   OH232302   2.553   5.040   1.158 -0.0808 -0.0578 -0.1686
 3604TIP3    H132303   2.522   5.078   1.241 -0.6717  0.5630 -0.6620
 3604TIP3    H232304   2.647   5.053   1.160 -0.0917  0.0018  0.3840
 3605TIP3   OH232305   5.653   3.900   1.491 -0.0277 -0.0668  0.1916
 3605TIP3    H132306   5.670   3.911   1.397  1.3470  2.2613  0.6419
 3605TIP3    H232307   5.736   3.866   1.526  0.1254  0.9112  0.8147
 3606TIP3   OH232308   4.473   3.968  13.874  0.5154 -0.2261 -0.2754
 3606TIP3    H132309   4.462   4.027  13.948  1.4503  0.0264 -0.3305
 3606TIP3    H232310   4.510   3.888  13.913 -0.1383 -0.5554 -0.2999
 3607TIP3   OH232311   2.526   1.831  11.145  0.3578 -0.0242  0.9877
 3607TIP3    H132312   2.442   1.877  11.148 -0.2616 -1.0599  0.0400
 3607TIP3    H232313   2.557   1.844  11.056 -0.0251 -1.7321  0.5662
 3608TIP3   OH232314   4.762   1.580  12.120  0.6464 -0.0806  0.3054
 3608TIP3    H132315   4.742   1.610  12.209 -0.3595 -0.5363  0.2494
 3608TIP3    H232316   4.732   1.652  12.064 -0.0101 -0.3726  0.2709
 3609TIP3   OH232317   2.516   4.371   0.493  0.5590 -0.2274  0.4943
 3609TIP3    H132318   2.559   4.432   0.553  0.9241  1.2840 -1.2226
 3609TIP3    H232319   2.586   4.339   0.436 -0.1549  0.3819 -0.7689
 3610TIP3   OH232320   0.148   1.320  16.910  0.4330 -0.0431  0.5508
 3610TIP3    H132321   0.165   1.354  16.998  2.7778  0.4776 -0.0433
 3610TIP3    H232322   0.099   1.239  16.925  0.3510  0.2848  2.3014
 3611TIP3   OH232323   4.973   1.968  15.542 -0.6737  0.3945  0.2382
 3611TIP3    H132324   5.016   1.887  15.571 -1.4334  0.2792  1.0710
 3611TIP3    H232325   5.046   2.025  15.515 -0.1542 -0.7309 -0.8405
 3612TIP3   OH232326   6.336   0.743   2.800  0.1767 -0.3112  0.3480
 3612TIP3    H132327   6.314   0.780   2.886  1.1627  0.1150  0.4382
 3612TIP3    H232328   6.292   0.659   2.798 -0.4801  0.0073  0.9712
 3613TIP3   OH232329   1.795   4.345  12.019 -0.0072 -0.7289  0.1554
 3613TIP3    H132330   1.864   4.360  12.084 -1.2841  0.9648  1.2113
 3613TIP3    H232331   1.829   4.383  11.938  1.5910 -2.8336 -0.2310
 3614TIP3   OH232332   1.754   1.328  11.868 -0.2604 -0.6906  0.1721
 3614TIP3    H132333   1.715   1.275  11.798  0.7931 -1.0062 -0.1843
 3614TIP3    H232334   1.681   1.344  11.929 -1.3244  0.0210 -1.2257
 3615TIP3   OH232335   4.169   4.272  11.952 -0.0751 -0.2312 -0.0046
 3615TIP3    H132336   4.105   4.328  11.908  0.5582  0.2304 -0.3594
 3615TIP3    H232337   4.254   4.307  11.924  0.3352 -1.4350 -0.3130
 3616TIP3   OH232338   0.330   4.751  16.618  0.2900  0.5206  0.2912
 3616TIP3    H132339   0.238   4.745  16.594 -0.3230  0.7892  2.3713
 3616TIP3    H232340   0.375   4.694  16.556 -0.9711  1.9386 -2.0512
 3617TIP3   OH232341   6.340   3.511  11.589 -0.2715 -0.9718  0.1946
 3617TIP3    H132342   6.267   3.526  11.648 -0.1537 -0.5056  0.2295
 3617TIP3    H232343   6.416   3.501  11.646  0.3336  2.1001  0.1416
 3618TIP3   OH232344   2.606   0.238   4.305 -0.1256  0.4584 -0.3718
 3618TIP3    H132345   2.672   0.176   4.338 -0.7581 -0.5103 -0.8784
 3618TIP3    H232346   2.624   0.245   4.212 -0.1605  0.9260 -0.3471
 3619TIP3   OH232347   3.761   3.344   4.444 -0.3912  0.5235 -0.2044
 3619TIP3    H132348   3.744   3.287   4.370 -1.6513 -2.3553  2.0917
 3619TIP3    H232349   3.846   3.316   4.477 -0.9744 -0.0465  0.8808
 3620TIP3   OH232350   0.006   4.618  12.670  0.1324 -0.3753  0.0839
 3620TIP3    H132351  -0.003   4.702  12.626  0.7225 -1.3974 -2.1069
 3620TIP3    H232352   0.095   4.620  12.707  0.2110 -0.1065 -0.1206
 3621TIP3   OH232353   0.285   1.520   1.060 -0.0138 -0.2574 -0.4918
 3621TIP3    H132354   0.201   1.551   1.025 -0.0109  0.9052  0.4520
 3621TIP3    H232355   0.346   1.592   1.041  0.4081 -0.4230  0.1994
 3622TIP3   OH232356   2.244   3.964   1.835 -0.1903  0.2628 -0.3072
 3622TIP3    H132357   2.253   4.028   1.906 -1.1097 -0.4102  0.4329
 3622TIP3    H232358   2.189   4.007   1.770 -0.5967  0.3231  0.0744
 3623TIP3   OH232359   4.591   3.352  16.878  0.2190  0.3169 -0.6866
 3623TIP3    H132360   4.571   3.315  16.964 -0.0082 -0.3134 -1.0029
 3623TIP3    H232361   4.679   3.388  16.887  0.4897 -0.4000 -0.3980
 3624TIP3   OH232362   3.641   6.035   5.637 -0.2236  0.0648  0.5890
 3624TIP3    H132363   3.604   5.967   5.581  0.5321  0.9601 -1.0780
 3624TIP3    H232364   3.694   5.988   5.701 -0.2679 -0.9436 -0.0935
 3625TIP3   OH232365   6.625   5.802   3.205  0.5396 -0.3298 -0.9238
 3625TIP3    H132366   6.616   5.769   3.295  1.7622 -1.4582 -1.1782
 3625TIP3    H232367   6.670   5.885   3.215  0.5245 -0.3678 -0.4832
 3626TIP3   OH232368   5.698   0.981   2.662 -0.3128  0.5589 -0.3055
 3626TIP3    H132369   5.655   0.937   2.736 -1.1303 -0.2316 -1.2286
 3626TIP3    H232370   5.626   1.018   2.611  0.1800  0.3240 -1.1879
 3627TIP3   OH232371   5.237   6.667  11.463 -0.4739  0.0814 -0.1708
 3627TIP3    H132372   5.253   6.597  11.526  1.8407  1.7919  1.3376
 3627TIP3    H232373   5.178   6.727  11.508  0.7455  1.0336  0.2181
 3628TIP3   OH232374   1.535   2.390  11.560  0.3704  0.1261  0.3134
 3628TIP3    H132375   1.508   2.311  11.514 -0.5854  1.1872 -1.0411
 3628TIP3    H232376   1.458   2.416  11.611  0.1735  0.9234 -0.3573
 3629TIP3   OH232377   2.525   2.923   0.896 -0.3314 -0.4700 -0.2628
 3629TIP3    H132378   2.521   2.998   0.838  0.0230 -1.0838 -1.0938
 3629TIP3    H232379   2.599   2.940   0.954 -0.0618 -0.3294 -0.6528
 3630TIP3   OH232380   0.034   1.406  16.551  0.0932 -0.0646 -0.2503
 3630TIP3    H132381   0.028   1.393  16.645  2.0301 -0.2925 -0.1305
 3630TIP3    H232382   0.100   1.344  16.521  0.9621  1.3463 -1.4327
 3631TIP3   OH232383   3.094   4.067   0.684  0.4264  0.4320  0.6094
 3631TIP3    H132384   3.051   4.072   0.770 -0.2103 -0.5651  0.3712
 3631TIP3    H232385   3.032   4.017   0.630  1.4553 -0.1794 -0.0254
 3632TIP3   OH232386   2.656   4.205   5.875 -0.1697  0.1538 -0.1408
 3632TIP3    H132387   2.687   4.251   5.954  0.2655  1.4888 -1.0512
 3632TIP3    H232388   2.576   4.162   5.903  0.6931 -0.5576  1.4010
 3633TIP3   OH232389   0.415   4.459  16.687 -0.3001 -0.8149 -0.7717
 3633TIP3    H132390   0.338   4.508  16.716 -0.1120 -0.9980  0.0557
 3633TIP3    H232391   0.427   4.486  16.596 -0.8015 -0.0978 -0.6351
 3634TIP3   OH232392   0.566   3.381  11.791  0.2422  0.1096 -0.5721
 3634TIP3    H132393   0.475   3.404  11.777  0.2516  0.5930  0.1065
 3634TIP3    H232394   0.608   3.463  11.818  0.4479 -0.4924  1.0880
 3635TIP3   OH232395   6.029   6.151  15.192 -0.7580 -0.0203 -0.0997
 3635TIP3    H132396   6.020   6.063  15.228 -2.9370  0.2304  0.1601
 3635TIP3    H232397   6.020   6.209  15.268 -0.7789  0.4448 -0.4485
 3636TIP3   OH232398   4.846   5.230  12.815  0.2717 -0.8570 -0.3869
 3636TIP3    H132399   4.908   5.297  12.787 -0.6349  0.4445  0.5902
 3636TIP3    H232400   4.870   5.213  12.906 -1.0613 -0.0119  0.1377
 3637TIP3   OH232401   6.656   5.801  16.312 -0.1595  0.5950  0.1673
 3637TIP3    H132402   6.637   5.712  16.282  1.7518  0.6605 -1.4424
 3637TIP3    H232403   6.697   5.789  16.397 -0.3973 -0.0195  0.2008
 3638TIP3   OH232404   5.421   4.523   1.218 -0.3096  0.0582  0.4015
 3638TIP3    H132405   5.348   4.472   1.183 -0.4388 -0.0718  0.8512
 3638TIP3    H232406   5.436   4.591   1.153  0.7750 -1.3716 -0.9196
 3639TIP3   OH232407   3.070   6.758   4.521  0.1401 -0.0210  0.6429
 3639TIP3    H132408   3.043   6.676   4.563 -0.6915  1.3563  3.0004
 3639TIP3    H232409   3.122   6.803   4.588  4.1687 -0.3058 -1.9942
 3640TIP3   OH232410   5.595   0.224   3.931 -0.8536 -0.3896 -0.1935
 3640TIP3    H132411   5.653   0.229   3.855 -1.5598 -0.1184 -0.7305
 3640TIP3    H232412   5.632   0.155   3.986 -0.4017 -0.6672 -0.8418
 3641TIP3   OH232413   5.100   1.236  13.083 -0.2230 -0.5292  0.0827
 3641TIP3    H132414   5.083   1.284  13.001 -1.1783  0.3387  0.7683
 3641TIP3    H232415   5.115   1.145  13.054  1.0560  0.0447 -1.1899
 3642TIP3   OH232416   5.634   0.686  15.047 -0.0480 -0.3552 -0.4255
 3642TIP3    H132417   5.667   0.768  15.010  0.2624 -0.3561 -0.1518
 3642TIP3    H232418   5.562   0.713  15.104 -0.0062 -0.2808 -0.4067
 3643TIP3   OH232419   1.755   4.652  15.584  0.1777  0.4776  0.6429
 3643TIP3    H132420   1.840   4.633  15.546  0.0336 -2.2209  1.4859
 3643TIP3    H232421   1.692   4.624  15.518 -0.0462  0.4819  0.8525
 3644TIP3   OH232422   2.121   3.192  11.963 -0.6188  0.0803  0.5064
 3644TIP3    H132423   2.107   3.147  12.046  1.6391  1.2972  1.6304
 3644TIP3    H232424   2.042   3.244  11.950 -0.6152  0.6241  2.4133
 3645TIP3   OH232425   0.439   1.650  11.541 -0.3129  0.1449 -0.6085
 3645TIP3    H132426   0.353   1.678  11.571 -0.2678  0.3406 -0.6598
 3645TIP3    H232427   0.426   1.625  11.449 -0.2613  0.4226 -0.6912
 3646TIP3   OH232428   2.931   1.003  12.580  0.1107 -0.0795 -0.3335
 3646TIP3    H132429   2.997   1.063  12.545 -0.5153  0.2943 -0.8965
 3646TIP3    H232430   2.919   0.937  12.511 -0.0375 -0.1947 -0.1985
 3647TIP3   OH232431   4.183   1.865  16.390 -0.0625 -0.2990 -0.3687
 3647TIP3    H132432   4.112   1.846  16.452  0.4584  0.1549  0.3923
 3647TIP3    H232433   4.211   1.953  16.413  0.8997 -0.5594 -0.5099
 3648TIP3   OH232434   4.361   2.243  12.497 -0.1357 -0.1873 -0.3575
 3648TIP3    H132435   4.409   2.187  12.557 -0.0883 -0.5047 -0.6912
 3648TIP3    H232436   4.406   2.233  12.413 -0.9725 -0.7385 -0.7569
 3649TIP3   OH232437   5.824   2.659   6.045  0.1024 -0.4477 -0.0561
 3649TIP3    H132438   5.828   2.704   5.961 -3.5831 -1.6549 -1.0271
 3649TIP3    H232439   5.816   2.566   6.023 -0.2510 -0.8687  1.6713
 3650TIP3   OH232440   4.761   1.775  11.631  0.6968  0.1377 -0.3470
 3650TIP3    H132441   4.758   1.846  11.567  2.0115  0.2301 -0.3417
 3650TIP3    H232442   4.840   1.725  11.607 -0.1547 -1.2727 -0.2997
 3651TIP3   OH232443   4.490   6.162   0.072  0.2354 -0.9104 -0.1434
 3651TIP3    H132444   4.529   6.078   0.047 -2.8427 -2.0881 -1.3984
 3651TIP3    H232445   4.425   6.180   0.004 -1.0376  1.1771  1.5007
 3652TIP3   OH232446   2.808   5.573   3.756  0.1567 -0.2988 -0.3794
 3652TIP3    H132447   2.846   5.486   3.772  2.5032  0.5893 -0.7304
 3652TIP3    H232448   2.773   5.600   3.841 -0.9342 -1.7080 -0.3487
 3653TIP3   OH232449   3.248   6.541  16.541  0.0120  0.0581 -0.3927
 3653TIP3    H132450   3.330   6.580  16.510  0.9560 -1.7341 -0.2901
 3653TIP3    H232451   3.267   6.447  16.547 -2.3526 -0.5416 -1.3027
 3654TIP3   OH232452   4.468   0.651   0.244 -0.2264  0.5482 -0.3082
 3654TIP3    H132453   4.501   0.643   0.155 -3.1820 -0.0389 -1.4496
 3654TIP3    H232454   4.452   0.561   0.272 -2.2673  0.8318 -0.4338
 3655TIP3   OH232455   4.084   2.942  12.449 -0.2160  0.3261 -0.5545
 3655TIP3    H132456   4.021   2.898  12.506 -0.0611  0.2132 -0.4699
 3655TIP3    H232457   4.103   3.025  12.493 -0.1334  0.2605 -0.4677
 3656TIP3   OH232458   5.797   3.403   4.185  0.2732 -0.0830  0.2431
 3656TIP3    H132459   5.858   3.349   4.237  0.4269 -1.3587 -1.1870
 3656TIP3    H232460   5.852   3.473   4.150  0.1049  0.9804  1.9978
 3657TIP3   OH232461   2.640   0.595   1.229 -0.0438 -0.1116  0.1277
 3657TIP3    H132462   2.697   0.586   1.306 -0.7263  0.5888  0.7321
 3657TIP3    H232463   2.700   0.609   1.156  0.5741  0.3498  0.7130
 3658TIP3   OH232464   1.675   4.297   3.064  0.2529 -0.7147  0.2894
 3658TIP3    H132465   1.679   4.308   2.969 -0.3477 -1.7365  0.1370
 3658TIP3    H232466   1.599   4.242   3.079 -1.0445  1.2794  1.5502
 3659TIP3   OH232467   6.706   0.891  16.242  0.0696 -0.1377 -0.0649
 3659TIP3    H132468   6.617   0.904  16.273 -0.2704 -0.7006 -0.7774
 3659TIP3    H232469   6.752   0.970  16.269 -0.3223 -0.3725  1.3982
 3660TIP3   OH232470   5.474   1.092   0.116  0.3176  0.1120 -0.7500
 3660TIP3    H132471   5.554   1.054   0.152 -0.0073 -1.3885 -1.5810
 3660TIP3    H232472   5.495   1.111   0.025 -0.2396 -0.1871 -0.9433
 3661TIP3   OH232473   2.900   5.588   4.965 -0.3116  0.0522  0.5975
 3661TIP3    H132474   2.974   5.537   4.932  0.5679  1.1585  0.8081
 3661TIP3    H232475   2.834   5.580   4.896  1.4481  2.2536 -1.5347
 3662TIP3   OH232476   2.661   4.947   0.792  0.2029  0.1616 -0.1752
 3662TIP3    H132477   2.704   4.992   0.719 -0.5056  0.7119 -0.2637
 3662TIP3    H232478   2.728   4.943   0.860  1.1335 -1.0836 -1.1250
 3663TIP3   OH232479   2.912   6.085  12.007  0.6766 -0.3053  0.3938
 3663TIP3    H132480   2.846   6.123  12.064 -0.0676 -1.3942  0.2935
 3663TIP3    H232481   2.913   6.142  11.930  0.5890  0.2922  0.8278
 3664TIP3   OH232482   1.647   2.133  15.937  0.3477 -0.6190 -0.2941
 3664TIP3    H132483   1.689   2.115  15.853  0.0626  1.8249 -1.0384
 3664TIP3    H232484   1.682   2.067  15.996  3.5561 -0.0598 -1.3999
 3665TIP3   OH232485   5.472   5.899   3.888  0.2650  0.3600 -0.2361
 3665TIP3    H132486   5.403   5.869   3.947  0.2832 -1.1759 -0.9599
 3665TIP3    H232487   5.486   5.991   3.912 -1.8469  0.6301  0.0861
 3666TIP3   OH232488   5.984   2.295  16.321  0.3184  0.6476  0.4658
 3666TIP3    H132489   6.071   2.334  16.314  0.6055 -0.2894 -3.3335
 3666TIP3    H232490   5.995   2.222  16.381  2.1663  0.5446  0.0522
 3667TIP3   OH232491   5.086   0.009   5.425 -0.4218  0.1335 -0.0147
 3667TIP3    H132492   5.073  -0.066   5.483 -0.9983 -0.4787 -0.9169
 3667TIP3    H232493   5.170  -0.008   5.382  0.6732  1.2476  1.5829
 3668TIP3   OH232494   2.899   3.757  11.398  0.0454 -0.4296  0.4895
 3668TIP3    H132495   2.920   3.683  11.341 -0.3948 -1.2009  1.2951
 3668TIP3    H232496   2.984   3.787  11.431  0.1369 -2.0829  1.9629
 3669TIP3   OH232497   4.716   6.520   1.956  0.7627  0.4337  0.2798
 3669TIP3    H132498   4.672   6.468   1.889 -1.2321  0.7943  1.2598
 3669TIP3    H232499   4.707   6.611   1.926  2.6152  0.4151 -0.4873
 3670TIP3   OH232500   3.548   6.507   0.105  0.0020 -0.1263 -0.1222
 3670TIP3    H132501   3.616   6.466   0.158  0.0959 -0.9950 -0.8900
 3670TIP3    H232502   3.525   6.587   0.153 -0.7892 -1.4810  1.8979
 3671TIP3   OH232503   4.516   2.925   1.426 -0.1434 -0.1485 -0.2570
 3671TIP3    H132504   4.564   2.976   1.361 -2.7937  1.5702 -1.0625
 3671TIP3    H232505   4.512   2.981   1.503 -0.7667 -0.2713 -0.1899
 3672TIP3   OH232506   0.468   4.554  16.448  0.1242 -0.0902  0.4676
 3672TIP3    H132507   0.554   4.581  16.415 -0.6900  2.7020  0.3935
 3672TIP3    H232508   0.419   4.531  16.369 -0.1378  1.4285  0.1427
 3673TIP3   OH232509   4.243   4.740  15.337 -0.1273 -0.4992  0.1380
 3673TIP3    H132510   4.211   4.719  15.425 -1.5686  0.3639 -0.1370
 3673TIP3    H232511   4.260   4.834  15.339  1.2657 -0.7313 -0.0982
 3674TIP3   OH232512   3.375   1.364   1.167 -0.0066  0.2943 -0.7906
 3674TIP3    H132513   3.372   1.455   1.138 -0.6813  0.5774  0.1163
 3674TIP3    H232514   3.288   1.348   1.204 -0.1456 -0.9508 -1.5847
 3675TIP3   OH232515   0.926   1.204  15.389  0.0124 -0.5766 -0.0556
 3675TIP3    H132516   1.001   1.253  15.353 -0.0843 -0.3274  0.0777
 3675TIP3    H232517   0.960   1.165  15.469 -0.3868  0.7368  0.7925
 3676TIP3   OH232518   2.815   3.668  15.505  0.2623  0.1577 -0.3022
 3676TIP3    H132519   2.875   3.742  15.509 -0.6927  0.9116  0.4261
 3676TIP3    H232520   2.767   3.670  15.588 -1.0299 -0.1829 -1.0037
 3677TIP3   OH232521   3.598   4.389  17.156  0.1527 -0.3196 -0.2966
 3677TIP3    H132522   3.576   4.303  17.192  0.9773 -0.3376  0.1777
 3677TIP3    H232523   3.542   4.450  17.205 -0.0798 -0.5307 -0.2954
 3678TIP3   OH232524   4.746   4.404   0.030  0.0770 -0.3451 -0.7793
 3678TIP3    H132525   4.687   4.403   0.105  0.1120  1.2325 -0.6988
 3678TIP3    H232526   4.804   4.329   0.045 -0.2036 -0.3369  0.5407
 3679TIP3   OH232527   1.442   6.285   1.854  0.0426  0.1240  0.6794
 3679TIP3    H132528   1.479   6.364   1.816  0.6705 -0.1762  0.6406
 3679TIP3    H232529   1.390   6.316   1.928  0.5253  0.5554  0.8449
 3680TIP3   OH232530   3.565   6.446   4.765  0.5148 -0.2270  0.7626
 3680TIP3    H132531   3.527   6.411   4.685 -0.4214 -0.4283  1.2866
 3680TIP3    H232532   3.540   6.384   4.833 -1.7613  1.7339  1.8412
 3681TIP3   OH232533   3.954   3.338   0.455 -0.6548  0.2257 -1.3705
 3681TIP3    H132534   4.032   3.285   0.444 -0.8948 -0.0669 -1.6982
 3681TIP3    H232535   3.911   3.303   0.533  0.5097  1.6217 -0.0326
 3682TIP3   OH232536   0.887   6.511   3.010  0.1181  0.2781 -0.1109
 3682TIP3    H132537   0.968   6.501   2.960  1.0192  1.0333  1.1309
 3682TIP3    H232538   0.843   6.427   3.003  0.8123 -0.0193 -1.1289
 3683TIP3   OH232539   1.504   4.793   0.106  0.3381  0.5727 -0.5451
 3683TIP3    H132540   1.488   4.741   0.027 -1.3078  2.1318 -1.3168
 3683TIP3    H232541   1.430   4.854   0.110  1.6771  2.2137  0.8448
 3684TIP3   OH232542   1.932   0.873   1.620  0.5062 -0.1578 -0.1111
 3684TIP3    H132543   1.992   0.864   1.546 -0.5332 -1.2234 -0.8475
 3684TIP3    H232544   1.877   0.948   1.598  1.0426  0.3328  0.1998
 3685TIP3   OH232545   6.278   4.620  15.756 -0.3299  0.2778 -0.3082
 3685TIP3    H132546   6.330   4.613  15.836 -1.5449 -2.6964  0.3584
 3685TIP3    H232547   6.342   4.629  15.686  0.8293  1.2276  0.8291
 3686TIP3   OH232548   1.019   2.859   0.753  0.0791  0.3759  0.2239
 3686TIP3    H132549   0.957   2.904   0.811  0.1386  1.1597 -0.3086
 3686TIP3    H232550   0.967   2.790   0.712 -0.4908  1.1413 -0.3522
 3687TIP3   OH232551   5.139   1.301   3.422  0.0704 -0.6660  0.4531
 3687TIP3    H132552   5.210   1.334   3.476  0.1860 -1.8355  1.0404
 3687TIP3    H232553   5.146   1.206   3.428 -1.8860 -0.8163  0.9790
 3688TIP3   OH232554   6.662   3.672  11.177 -0.2809 -0.1408  0.5792
 3688TIP3    H132555   6.611   3.698  11.254 -2.3248  2.0081 -1.3451
 3688TIP3    H232556   6.663   3.576  11.180 -2.4583 -0.1842  1.9411
 3689TIP3   OH232557   5.023   5.100  14.023 -0.0286 -0.3443  0.2329
 3689TIP3    H132558   4.999   5.020  13.977  0.8099  0.3246 -1.4581
 3689TIP3    H232559   4.959   5.165  13.992 -0.9980 -0.4167  1.9421
 3690TIP3   OH232560   3.592   3.198   3.313 -0.2851 -0.1829  0.2844
 3690TIP3    H132561   3.521   3.234   3.367  0.0640 -1.1972  1.4462
 3690TIP3    H232562   3.564   3.108   3.294  1.0767 -0.8845  1.4905
 3691TIP3   OH232563   0.288   3.198   2.687 -0.4621 -0.5839  0.3363
 3691TIP3    H132564   0.221   3.175   2.752 -1.8406 -2.3259 -1.5538
 3691TIP3    H232565   0.240   3.246   2.620  0.6475 -0.0538 -0.0969
 3692TIP3   OH232566   4.185   1.133  16.257 -0.0502  0.0437 -0.1569
 3692TIP3    H132567   4.112   1.159  16.202  0.5145  2.8165  0.2803
 3692TIP3    H232568   4.263   1.161  16.209  0.8498 -3.0753 -0.7374
 3693TIP3   OH232569   2.710   6.453   5.761 -0.0431  0.5658 -0.3322
 3693TIP3    H132570   2.653   6.376   5.765 -0.4988  0.8378 -1.4281
 3693TIP3    H232571   2.702   6.493   5.848  1.3822 -1.4331  0.8165
 3694TIP3   OH232572   0.559   0.151  16.354  0.0008 -0.2297 -0.2043
 3694TIP3    H132573   0.631   0.205  16.386  0.3841 -1.2915  0.8182
 3694TIP3    H232574   0.489   0.165  16.418 -0.3642  0.0584 -0.6606
 3695TIP3   OH232575   2.795   2.189  13.952  0.0541  0.3412  0.5711
 3695TIP3    H132576   2.849   2.170  13.875 -0.2742  2.3229 -0.2085
 3695TIP3    H232577   2.748   2.107  13.969  0.5787 -0.3232 -0.9791
 3696TIP3   OH232578   2.842   0.754   5.167  0.3785 -0.3278  0.6708
 3696TIP3    H132579   2.810   0.781   5.081  2.8745  3.1319  0.6240
 3696TIP3    H232580   2.928   0.717   5.151  0.8278  0.2565  1.6585
 3697TIP3   OH232581   5.999   3.278   2.549 -0.1781 -0.2253  0.5198
 3697TIP3    H132582   6.055   3.207   2.580 -1.9533 -2.6385 -1.4026
 3697TIP3    H232583   5.942   3.298   2.622  0.6167 -0.4360  1.2142
 3698TIP3   OH232584   4.006   2.739  13.856  0.5620  0.3076 -0.6209
 3698TIP3    H132585   4.048   2.775  13.778  2.5606 -1.9775 -0.7335
 3698TIP3    H232586   3.971   2.815  13.902  0.3439  1.8407 -3.1242
 3699TIP3   OH232587   2.983   5.471  10.717 -0.2071 -0.6320  0.2253
 3699TIP3    H132588   2.955   5.389  10.679 -0.0035 -0.5792 -0.0409
 3699TIP3    H232589   3.072   5.454  10.748 -0.6428 -0.9025  1.3762
 3700TIP3   OH232590   1.221   2.218   6.030 -0.0778  0.6685 -0.0865
 3700TIP3    H132591   1.197   2.290   5.972 -0.1351  0.5384 -0.2261
 3700TIP3    H232592   1.189   2.245   6.116 -1.5714  0.0964 -0.4367
 3701TIP3   OH232593   1.111   3.625  15.537 -0.1554  0.0228  0.4806
 3701TIP3    H132594   1.139   3.692  15.600 -0.4366  0.0363  0.5903
 3701TIP3    H232595   1.189   3.572  15.523 -0.3799 -0.6550  1.6730
 3702TIP3   OH232596   0.096   1.489   5.185 -0.4803 -0.4832  0.1986
 3702TIP3    H132597   0.072   1.400   5.212 -1.3767 -0.0038  1.0533
 3702TIP3    H232598   0.013   1.529   5.158 -0.3711  0.6032  1.3695
 3703TIP3   OH232599   3.023   1.617   2.022 -0.6143  0.1529  0.4889
 3703TIP3    H132600   3.037   1.665   2.104  1.0219 -0.1679  0.4204
 3703TIP3    H232601   3.022   1.525   2.047  0.0067  0.0464  0.1495
 3704TIP3   OH232602   4.470   4.384  14.501 -0.2558  0.1247 -0.3114
 3704TIP3    H132603   4.532   4.455  14.484  2.1988 -1.6677  0.6133
 3704TIP3    H232604   4.459   4.384  14.596 -1.1523 -0.0234 -0.4096
 3705TIP3   OH232605   6.210   0.245  16.423 -0.7271  0.0378 -0.4247
 3705TIP3    H132606   6.233   0.317  16.364 -1.4524 -0.9055 -1.9177
 3705TIP3    H232607   6.294   0.206  16.447 -0.3191  1.4075  0.4815
 3706TIP3   OH232608   3.787   0.525  14.441 -0.2485  0.1913  0.7140
 3706TIP3    H132609   3.767   0.605  14.490 -0.2944  0.0866  0.8672
 3706TIP3    H232610   3.880   0.532  14.420 -0.1791  0.1364  1.0013
 3707TIP3   OH232611   5.332   3.584   2.077  0.6306  0.1737  1.3631
 3707TIP3    H132612   5.301   3.580   2.168 -0.8524 -0.7246  0.8532
 3707TIP3    H232613   5.271   3.644   2.034  0.1875 -0.8200  0.5671
 3708TIP3   OH232614   1.539   6.231  12.334 -0.3102  0.3130 -0.1981
 3708TIP3    H132615   1.611   6.242  12.272  0.3296 -0.6935  0.3427
 3708TIP3    H232616   1.576   6.261  12.418 -1.2308  1.8646 -0.3159
 3709TIP3   OH232617   2.743   6.130   4.353 -0.3324  0.0778  0.0921
 3709TIP3    H132618   2.674   6.081   4.309 -1.5450 -1.5744  3.4930
 3709TIP3    H232619   2.713   6.139   4.443  2.5275  2.0971  0.9995
 3710TIP3   OH232620   4.511   2.910   3.258 -0.4677  0.4984 -0.1097
 3710TIP3    H132621   4.542   2.998   3.279  2.7484 -0.4652 -0.3435
 3710TIP3    H232622   4.459   2.921   3.178  0.9116  2.0507 -0.8528
 3711TIP3   OH232623   0.094   2.333   6.856 -0.6826 -0.2966  0.2837
 3711TIP3    H132624   0.151   2.256   6.867 -1.1622 -1.0333 -1.8395
 3711TIP3    H232625   0.032   2.328   6.929  0.1452 -1.1353  0.9597
 3712TIP3   OH232626   3.794   5.154   5.823  0.6833  0.6791 -0.5481
 3712TIP3    H132627   3.706   5.139   5.856  0.5634  0.3953 -0.9866
 3712TIP3    H232628   3.784   5.222   5.757  0.6876  0.1609 -1.0856
 3713TIP3   OH232629   3.054   1.448  17.337  0.5020 -0.8350 -0.0520
 3713TIP3    H132630   3.039   1.355  17.316  0.1623 -0.9524  0.7057
 3713TIP3    H232631   3.012   1.461  17.421  2.2373 -0.4775  0.7991
 3714TIP3   OH232632   2.999   2.014  14.244  0.4519  0.1667 -0.7472
 3714TIP3    H132633   3.089   2.046  14.245  0.7451 -0.6092  0.3647
 3714TIP3    H232634   2.945   2.093  14.240  1.1742  0.7896  0.7927
 3715TIP3   OH232635   1.895   4.622  16.629 -0.1092  0.0472  0.5533
 3715TIP3    H132636   1.850   4.706  16.638 -0.0222  0.0452  1.0503
 3715TIP3    H232637   1.825   4.557  16.621 -0.1758  0.2696 -0.9541
 3716TIP3   OH232638   0.823   3.924  13.644 -0.2787 -0.2925 -0.6261
 3716TIP3    H132639   0.807   4.012  13.679  0.8573 -0.1979 -0.3098
 3716TIP3    H232640   0.754   3.871  13.683 -0.5606  0.3241 -0.2635
 3717TIP3   OH232641   1.229   1.080   1.782  0.1824  0.2797  0.6858
 3717TIP3    H132642   1.279   1.017   1.730 -1.1872 -0.2200 -0.1031
 3717TIP3    H232643   1.138   1.065   1.755 -0.5572  0.2136  3.0125
 3718TIP3   OH232644   2.231   4.148  16.998  0.0934 -0.0388  0.0877
 3718TIP3    H132645   2.206   4.070  16.948  0.0441 -0.4135  0.6733
 3718TIP3    H232646   2.170   4.216  16.970  0.1665 -0.2005 -0.4631
 3719TIP3   OH232647   0.589   4.416   5.152  0.0608 -0.0488  0.1492
 3719TIP3    H132648   0.552   4.369   5.226 -1.3227 -0.6832 -0.8867
 3719TIP3    H232649   0.680   4.387   5.147 -0.7242 -2.6753 -0.4296
 3720TIP3   OH232650   1.484   2.772   2.184  0.0457 -0.2052 -0.2897
 3720TIP3    H132651   1.490   2.843   2.121  2.2081  0.1215  0.2026
 3720TIP3    H232652   1.487   2.692   2.131 -0.7981  0.0428 -0.7337
 3721TIP3   OH232653   1.494   1.864   4.735  0.1578 -0.5312 -0.1544
 3721TIP3    H132654   1.421   1.907   4.779  0.3348 -2.7082  2.6178
 3721TIP3    H232655   1.478   1.878   4.642 -0.7309  3.7098  0.4454
 3722TIP3   OH232656   5.096   6.614  12.701  0.4684 -0.8019  0.4713
 3722TIP3    H132657   5.122   6.578  12.616  0.4077  1.3245 -0.5384
 3722TIP3    H232658   5.015   6.663  12.682  0.9324  0.4495  1.5424
 3723TIP3   OH232659   2.629   6.455   3.243  0.3706  0.0096 -0.2286
 3723TIP3    H132660   2.563   6.388   3.262 -0.5804  1.2066  0.8562
 3723TIP3    H232661   2.625   6.466   3.148 -0.6611 -0.2837 -0.2345
 3724TIP3   OH232662   3.580   4.560   1.253 -0.2142 -0.3079  0.1156
 3724TIP3    H132663   3.592   4.544   1.347 -0.9623 -0.7731  0.1371
 3724TIP3    H232664   3.669   4.567   1.219  0.0683 -0.2107  0.8458
 3725TIP3   OH232665   2.699   0.304   2.189 -0.0012 -0.4643  0.1045
 3725TIP3    H132666   2.655   0.388   2.174  0.7117 -0.0646  0.2231
 3725TIP3    H232667   2.639   0.239   2.153 -1.8309 -0.1532  2.3660
 3726TIP3   OH232668   5.109   4.595   3.884 -0.6190 -0.0881 -0.0950
 3726TIP3    H132669   5.178   4.579   3.819 -0.1159  0.3742  0.3205
 3726TIP3    H232670   5.124   4.529   3.952  1.4809  2.0425  1.6403
 3727TIP3   OH232671   2.571   6.694   1.298 -0.0894  0.8616  0.3712
 3727TIP3    H132672   2.663   6.686   1.320 -0.2672  1.6328  1.4424
 3727TIP3    H232673   2.565   6.775   1.248 -0.2972  1.2126  0.9600
 3728TIP3   OH232674   1.238   1.020  12.567 -0.3945 -0.2507 -0.5572
 3728TIP3    H132675   1.325   1.057  12.581 -0.5593 -0.3753  1.1122
 3728TIP3    H232676   1.178   1.085  12.603 -0.8819 -0.8102 -0.3414
 3729TIP3   OH232677   3.088   0.248   4.937 -0.3886 -0.6392 -0.3211
 3729TIP3    H132678   3.150   0.317   4.960 -0.7788  0.4924 -2.4554
 3729TIP3    H232679   3.140   0.167   4.941  0.4293 -0.0891  0.8289
 3730TIP3   OH232680   0.001   3.148  11.700 -0.4180  0.0379  0.3306
 3730TIP3    H132681  -0.061   3.110  11.762 -1.0262  1.6209  0.7297
 3730TIP3    H232682   0.086   3.113  11.726 -0.5310  1.3401  2.6384
 3731TIP3   OH232683   5.260   0.907  12.401  0.0821  0.3839  0.2276
 3731TIP3    H132684   5.336   0.872  12.447 -0.0451 -2.1625 -1.3367
 3731TIP3    H232685   5.272   0.879  12.310 -2.1249  0.9649 -0.2939
 3732TIP3   OH232686   6.053   0.705  12.539  0.2946 -0.0488  0.0196
 3732TIP3    H132687   6.057   0.801  12.544  0.2636 -0.0780  0.7138
 3732TIP3    H232688   5.965   0.684  12.571  0.7727 -0.3766  1.1781
 3733TIP3   OH232689   0.152   3.410   3.947  0.4094 -0.1642  0.3945
 3733TIP3    H132690   0.088   3.363   4.000  0.0259 -0.1599 -0.0624
 3733TIP3    H232691   0.100   3.454   3.880  0.9733 -0.8732 -0.5230
 3734TIP3   OH232692   0.232   1.980  14.735 -0.6580 -0.0594 -0.6223
 3734TIP3    H132693   0.139   2.002  14.731 -0.6897 -0.0760  0.0055
 3734TIP3    H232694   0.235   1.895  14.778 -0.4566 -0.7935 -2.0440
 3735TIP3   OH232695   2.447   5.058   3.264  0.0507  0.1403 -0.2318
 3735TIP3    H132696   2.469   5.145   3.229 -1.3417  0.3806 -0.5615
 3735TIP3    H232697   2.515   5.001   3.229  1.6456  1.2667  0.8990
 3736TIP3   OH232698   4.129   3.067   4.345  0.4949  0.2822 -0.4173
 3736TIP3    H132699   4.195   3.024   4.290 -0.6635  0.2581 -1.8285
 3736TIP3    H232700   4.065   3.102   4.283 -0.4065  1.0193  0.8869
 3737TIP3   OH232701   1.214   0.883   0.636  0.0143 -0.0401 -0.5244
 3737TIP3    H132702   1.138   0.880   0.695  1.1488  2.0740  1.1618
 3737TIP3    H232703   1.283   0.926   0.687  1.1842  1.6106 -3.2835
 3738TIP3   OH232704   4.946   2.765   4.488 -0.3237 -0.2003  0.6023
 3738TIP3    H132705   4.943   2.797   4.578  2.3662 -0.8161  0.9743
 3738TIP3    H232706   4.910   2.838   4.436 -1.0796  0.5055  2.0468
 3739TIP3   OH232707   3.690   4.409   2.270 -0.8094 -0.1051  0.8592
 3739TIP3    H132708   3.779   4.390   2.240 -1.4865 -0.5597 -1.0518
 3739TIP3    H232709   3.639   4.332   2.244 -1.5255 -0.5181  3.2364
 3740TIP3   OH232710   6.162   5.121  16.404 -0.0353  0.2001  0.8088
 3740TIP3    H132711   6.252   5.096  16.385 -0.5265 -0.3153 -0.9813
 3740TIP3    H232712   6.154   5.209  16.368 -0.5525 -0.1837 -0.0231
 3741TIP3   OH232713   3.796   1.969  11.137  0.4013 -0.0433 -0.4197
 3741TIP3    H132714   3.875   1.917  11.126  0.2664 -0.2880 -0.2445
 3741TIP3    H232715   3.726   1.912  11.106  0.3464  0.3497 -1.0253
 3742TIP3   OH232716   6.407   2.728   5.639 -0.2574  0.0886  0.7441
 3742TIP3    H132717   6.463   2.748   5.564 -0.8116  0.8084  0.5090
 3742TIP3    H232718   6.388   2.813   5.678 -0.6303 -0.2095  1.2169
 3743TIP3   OH232719   3.783   3.100   5.356  0.2942  0.2695 -0.1728
 3743TIP3    H132720   3.798   3.035   5.424 -1.2837 -0.5488 -0.5651
 3743TIP3    H232721   3.855   3.088   5.294 -0.7602 -2.1618 -1.0204
 3744TIP3   OH232722   3.247   6.016   1.116  0.2338  0.2113  0.0917
 3744TIP3    H132723   3.204   6.020   1.031  0.3886 -0.4270 -0.0188
 3744TIP3    H232724   3.189   6.065   1.174 -0.4597 -0.3325 -0.1292
 3745TIP3   OH232725   4.914   2.418   2.127 -0.2191 -0.4490  0.3279
 3745TIP3    H132726   4.926   2.496   2.181 -0.7529 -0.9101  1.1396
 3745TIP3    H232727   4.820   2.408   2.118 -0.1460 -0.0182 -1.2714
 3746TIP3   OH232728   4.907   1.819  16.495  0.1249  0.0243 -0.6046
 3746TIP3    H132729   4.960   1.889  16.535 -0.0577 -0.0232 -0.2801
 3746TIP3    H232730   4.863   1.861  16.421 -0.7387  0.4947  0.1643
 3747TIP3   OH232731   5.444   4.896   1.654 -0.4131  0.1614 -0.6623
 3747TIP3    H132732   5.463   4.842   1.730 -0.0470 -0.5051 -1.2265
 3747TIP3    H232733   5.348   4.895   1.648 -0.5031  0.9642  0.3162
 3748TIP3   OH232734   3.724   1.085  14.229  0.4993 -0.2630  0.5294
 3748TIP3    H132735   3.634   1.115  14.239  0.3004 -0.3382 -0.8286
 3748TIP3    H232736   3.717   1.002  14.183  1.2534 -0.4180  0.6825
 3749TIP3   OH232737   0.471   4.224   5.836 -0.5652 -0.2229  0.5954
 3749TIP3    H132738   0.565   4.216   5.820 -0.6867  0.1581 -0.3492
 3749TIP3    H232739   0.459   4.188   5.924  0.1792 -1.9820  0.0033
 3750TIP3   OH232740   5.042   4.331   5.862  0.2321 -0.1289 -0.5091
 3750TIP3    H132741   4.999   4.259   5.907 -0.4702 -0.1463 -1.1842
 3750TIP3    H232742   5.057   4.397   5.930 -2.0473  0.4235 -0.4507
 3751TIP3   OH232743   2.248   1.196  14.730 -0.1914 -0.1611  0.3179
 3751TIP3    H132744   2.182   1.133  14.701  0.8535 -1.3364  0.3943
 3751TIP3    H232745   2.332   1.157  14.704  0.4361  2.1056 -1.3445
 3752TIP3   OH232746   1.446   4.070   2.833  0.4492 -0.1692 -0.2524
 3752TIP3    H132747   1.537   4.049   2.817  0.7366 -0.3583  1.4406
 3752TIP3    H232748   1.413   3.998   2.887  0.4321  1.7300  2.4804
 3753TIP3   OH232749   1.690   3.748   3.724 -0.6714  0.0636 -0.8747
 3753TIP3    H132750   1.713   3.662   3.759 -0.6957 -0.7013 -2.6503
 3753TIP3    H232751   1.762   3.805   3.752  0.6079 -1.0877 -1.6814
 3754TIP3   OH232752   3.450   0.310   2.106  0.4383 -0.0816 -0.1706
 3754TIP3    H132753   3.537   0.288   2.140 -0.4063 -1.1497  1.4162
 3754TIP3    H232754   3.423   0.386   2.158 -0.0781 -0.5387  0.2452
 3755TIP3   OH232755   2.561   1.158   3.094  0.4315  0.2551 -0.5180
 3755TIP3    H132756   2.636   1.195   3.139  0.4478 -1.6878  1.1906
 3755TIP3    H232757   2.599   1.105   3.023  0.6224  0.0986 -0.2974
 3756TIP3   OH232758   0.980   1.040  14.494 -0.2031 -0.4874  0.5543
 3756TIP3    H132759   0.914   0.996  14.441  0.5079 -0.5176 -0.3419
 3756TIP3    H232760   1.026   1.097  14.432 -0.7898  1.1561  1.5972
 3757TIP3   OH232761   6.385   4.754   5.804  0.2554  0.0640 -0.1064
 3757TIP3    H132762   6.451   4.788   5.742 -0.5455  1.3211 -0.3072
 3757TIP3    H232763   6.435   4.699   5.864  1.4909  0.9071 -0.3123
 3758TIP3   OH232764   5.558   6.245  15.775  0.0446 -0.4745 -0.1175
 3758TIP3    H132765   5.525   6.335  15.778 -1.4853 -0.7620 -3.2224
 3758TIP3    H232766   5.492   6.194  15.822 -0.8335 -0.3017 -1.1118
 3759TIP3   OH232767   3.845   1.396  16.769 -0.3213 -0.0028  0.0346
 3759TIP3    H132768   3.863   1.389  16.862 -0.8887  1.4500  0.2894
 3759TIP3    H232769   3.813   1.486  16.758 -0.8215 -0.3355 -1.4606
 3760TIP3   OH232770   3.991   5.509  11.639  0.6944  0.0682 -0.1015
 3760TIP3    H132771   4.027   5.446  11.701  0.7550  1.6039  1.4962
 3760TIP3    H232772   3.944   5.572  11.694 -2.8464 -0.7270 -1.8735
 3761TIP3   OH232773   4.871   2.400  15.544 -0.4482 -0.0761  0.6300
 3761TIP3    H132774   4.906   2.415  15.632 -1.6965 -0.2751  1.1828
 3761TIP3    H232775   4.778   2.421  15.551 -0.1856  2.2104 -1.2184
 3762TIP3   OH232776   1.001   3.949   2.048  0.5854 -0.0308 -0.8593
 3762TIP3    H132777   0.917   3.979   2.014 -0.0037 -0.5146  0.1410
 3762TIP3    H232778   0.986   3.859   2.074  0.7621  0.5603  1.4582
 3763TIP3   OH232779   4.288   5.608  16.309 -0.2658 -0.2557 -0.0260
 3763TIP3    H132780   4.355   5.556  16.265 -0.9463 -1.6010  0.4899
 3763TIP3    H232781   4.285   5.690  16.260  1.1438 -0.5090 -0.5794
 3764TIP3   OH232782   0.303   5.387  14.723  0.3244  0.6871 -0.2467
 3764TIP3    H132783   0.222   5.339  14.710  1.3162 -0.5103 -2.3570
 3764TIP3    H232784   0.278   5.479  14.712 -0.7190  0.3383 -0.9360
 3765TIP3   OH232785   1.969   2.031  17.369  0.4526 -0.8466 -0.6453
 3765TIP3    H132786   1.980   2.054  17.277  0.0796 -0.5805 -0.6261
 3765TIP3    H232787   2.043   2.073  17.413 -1.8417  3.1193 -0.1466
 3766TIP3   OH232788   0.607   4.105  16.900  0.2427  0.5040 -0.4212
 3766TIP3    H132789   0.678   4.041  16.896 -0.6956 -0.6336  0.2554
 3766TIP3    H232790   0.650   4.190  16.891  1.4986 -0.2197 -1.6520
 3767TIP3   OH232791   4.065   4.197  13.548  0.2242  0.2819 -0.0133
 3767TIP3    H132792   3.977   4.226  13.570 -0.4672  0.3059 -2.5412
 3767TIP3    H232793   4.063   4.102  13.560 -0.7394  0.0453 -1.7488
 3768TIP3   OH232794   3.923   4.632  12.116 -0.4782  0.1553 -0.1726
 3768TIP3    H132795   3.998   4.688  12.094 -0.4427  0.3911  0.5297
 3768TIP3    H232796   3.881   4.676  12.190 -2.2850  0.9096 -1.5796
 3769TIP3   OH232797   1.904   4.429  13.807 -0.4915 -0.0861  0.2666
 3769TIP3    H132798   1.958   4.506  13.788  0.6453 -0.6999  0.9441
 3769TIP3    H232799   1.901   4.382  13.723  2.5376 -1.5603  0.8384
 3770TIP3   OH232800   4.805   3.203   1.711  0.4374  0.6865  0.2689
 3770TIP3    H132801   4.881   3.148   1.725  0.7271  1.4150  1.6669
 3770TIP3    H232802   4.766   3.169   1.630  0.5467 -1.6134  1.1050
 3771TIP3   OH232803   4.257   5.936   2.472 -0.3688 -0.6227  0.0693
 3771TIP3    H132804   4.178   5.966   2.519  0.8120  2.5650  0.2754
 3771TIP3    H232805   4.303   5.882   2.536 -1.0023 -0.1049  0.9955
 3772TIP3   OH232806   1.978   0.294   4.752 -0.2846 -0.1999  0.0336
 3772TIP3    H132807   2.011   0.353   4.820  0.4401 -0.3430 -0.1869
 3772TIP3    H232808   2.048   0.231   4.739 -0.5737 -0.4006 -0.5799
 3773TIP3   OH232809   3.690   0.378   0.577  0.4137 -0.4619 -0.8976
 3773TIP3    H132810   3.752   0.313   0.611  0.1428 -0.9594 -1.3493
 3773TIP3    H232811   3.636   0.330   0.515 -0.4218 -0.0290 -0.5190
 3774TIP3   OH232812   4.063   0.899  11.775  0.1012 -0.2760  0.6988
 3774TIP3    H132813   4.092   0.897  11.866  2.5239  0.8778  0.0213
 3774TIP3    H232814   4.025   0.812  11.760  4.2149 -2.4669  1.4914
 3775TIP3   OH232815   1.076   5.479   3.001 -0.2349  0.3470  0.3104
 3775TIP3    H132816   1.121   5.523   3.073 -0.5830  0.2292  0.6091
 3775TIP3    H232817   1.019   5.546   2.964  1.6339  1.0829 -1.3832
 3776TIP3   OH232818   5.372   5.758   4.120  0.2381 -0.0774  0.1068
 3776TIP3    H132819   5.343   5.759   4.211  1.1966 -2.5636  0.5295
 3776TIP3    H232820   5.370   5.666   4.095  1.3534  0.3852 -1.9476
 3777TIP3   OH232821   5.849   3.752   2.010  0.0629 -0.1292  0.3136
 3777TIP3    H132822   5.793   3.826   1.986 -0.5762 -0.5199  0.5839
 3777TIP3    H232823   5.790   3.691   2.054  0.5316 -0.9025 -0.1160
 3778TIP3   OH232824   0.836   4.945  11.873  0.9016  0.0817 -0.1366
 3778TIP3    H132825   0.836   4.960  11.779  0.6657  2.2383  0.1528
 3778TIP3    H232826   0.746   4.966  11.901  0.5497 -1.9566  0.4055
 3779TIP3   OH232827   6.535   4.571  15.986  0.5508  0.4980 -0.0945
 3779TIP3    H132828   6.606   4.611  15.936  0.3868  0.6236 -0.2288
 3779TIP3    H232829   6.554   4.477  15.983  1.1703  0.5936  0.5842
 3780TIP3   OH232830   0.351   1.848  15.545  0.6068  0.3085  0.3180
 3780TIP3    H132831   0.368   1.912  15.476 -1.7956  2.5179  1.5815
 3780TIP3    H232832   0.301   1.778  15.501 -0.1333  1.2520 -0.3763
 3781TIP3   OH232833   2.235   1.262  15.006  0.2812  0.6477 -0.1622
 3781TIP3    H132834   2.325   1.295  15.003  0.4287  0.2880  0.3133
 3781TIP3    H232835   2.231   1.197  14.935  0.9565 -0.7392  1.0248
 3782TIP3   OH232836   6.599   5.177  14.268  0.4295  0.2541 -0.6946
 3782TIP3    H132837   6.664   5.133  14.213  0.6786  1.2179 -1.1885
 3782TIP3    H232838   6.599   5.127  14.350  1.7287  0.1854 -0.7187
 3783TIP3   OH232839   6.352   4.000   3.652  0.1274  0.8780 -0.2252
 3783TIP3    H132840   6.281   3.952   3.610  2.5420 -2.7965 -0.5212
 3783TIP3    H232841   6.397   4.043   3.580 -0.7511  1.8183 -0.2355
 3784TIP3   OH232842   3.481   3.982   1.367  0.1804  0.0731 -0.7050
 3784TIP3    H132843   3.424   3.938   1.430  0.3091 -0.5596 -1.0310
 3784TIP3    H232844   3.559   4.004   1.418 -0.6612  1.7131 -0.0279
 3785TIP3   OH232845   2.753   3.002  16.520 -0.3943 -0.5085  0.0182
 3785TIP3    H132846   2.666   3.038  16.501 -0.3399 -0.8001 -0.8547
 3785TIP3    H232847   2.803   3.021  16.440 -0.3431 -2.4321 -0.4462
 3786TIP3   OH232848   4.336   0.536   4.153  0.0750  0.5403  0.0254
 3786TIP3    H132849   4.385   0.556   4.233  0.6947 -2.2262  0.4469
 3786TIP3    H232850   4.279   0.612   4.140  0.0805  1.1874  2.9917
 3787TIP3   OH232851   2.135   2.789   2.885 -0.1125  0.2839  0.1052
 3787TIP3    H132852   2.136   2.798   2.790  1.7365 -0.5461 -0.0027
 3787TIP3    H232853   2.218   2.826   2.914 -0.1683 -0.4425  1.2842
 3788TIP3   OH232854   0.975   6.121   2.130  0.2883  0.0778  0.0396
 3788TIP3    H132855   0.908   6.057   2.107 -0.4109  1.0069 -0.5748
 3788TIP3    H232856   1.057   6.072   2.125 -0.0843 -0.4420 -1.8666
 3789TIP3   OH232857   6.685   0.056   1.726  0.0400  0.5366 -0.3126
 3789TIP3    H132858   6.682   0.134   1.781  1.5028 -0.0423  0.6391
 3789TIP3    H232859   6.771   0.061   1.682  1.1464 -1.5723  1.4231
 3790TIP3   OH232860   3.778   1.993   0.578  0.2928  0.0917 -0.0418
 3790TIP3    H132861   3.797   2.013   0.670 -1.1523  1.3088  0.0271
 3790TIP3    H232862   3.685   2.011   0.568  0.3781 -0.2457 -1.7039
 3791TIP3   OH232863   3.130   3.808  12.321 -0.0223 -0.2539  0.3156
 3791TIP3    H132864   3.225   3.815  12.323  0.2465 -2.3096 -1.3259
 3791TIP3    H232865   3.112   3.714  12.327 -1.8167 -0.1023 -1.4840
 3792TIP3   OH232866   4.092   2.031  11.978  0.7592  0.1277  0.3458
 3792TIP3    H132867   4.120   2.121  11.961  1.2147 -0.1999 -0.6923
 3792TIP3    H232868   4.038   2.008  11.903  0.1673 -0.2756  0.8894
 3793TIP3   OH232869   5.677   4.231   2.471  0.5286  0.2910 -0.2902
 3793TIP3    H132870   5.708   4.320   2.485  0.2981  0.1934  0.9804
 3793TIP3    H232871   5.755   4.182   2.446  0.7331  0.7533 -0.5741
 3794TIP3   OH232872   1.802   6.767   6.230  0.1593  0.4693  0.4936
 3794TIP3    H132873   1.816   6.802   6.318 -0.3559  0.1211  0.7185
 3794TIP3    H232874   1.804   6.672   6.241  0.5705  0.4163  0.0456
 3795TIP3   OH232875   2.807   2.251  15.686 -0.7435  0.3768  0.3073
 3795TIP3    H132876   2.814   2.163  15.648  0.0055  1.0900 -1.3122
 3795TIP3    H232877   2.870   2.251  15.758 -1.0911 -0.5444  0.6279
 3796TIP3   OH232878   2.179   0.844   4.783  0.0923 -0.3990  0.2007
 3796TIP3    H132879   2.158   0.788   4.708 -0.5549 -0.4305  0.3979
 3796TIP3    H232880   2.126   0.809   4.855 -1.0492  1.0237  0.1073
 3797TIP3   OH232881   5.897   4.576   2.708  0.4755  0.4457  0.2581
 3797TIP3    H132882   5.870   4.621   2.788  1.9885  1.0632  0.4591
 3797TIP3    H232883   5.943   4.643   2.657  0.5731 -0.2430 -0.5973
 3798TIP3   OH232884   2.535   5.263  13.922 -0.3438  0.6279 -0.0202
 3798TIP3    H132885   2.508   5.254  14.014  1.4227 -0.2410  0.4626
 3798TIP3    H232886   2.549   5.173  13.893  0.0085  0.9442 -0.8501
 3799TIP3   OH232887   5.341   3.987   0.898  0.0985 -0.2255  0.4795
 3799TIP3    H132888   5.418   3.932   0.915 -0.0572  0.2136  2.8978
 3799TIP3    H232889   5.268   3.939   0.937 -0.5970  0.1212 -0.3763
 3800TIP3   OH232890   6.346   5.272   5.597 -0.4186 -0.6392  0.0100
 3800TIP3    H132891   6.425   5.242   5.643  0.5033  0.8215 -0.5517
 3800TIP3    H232892   6.275   5.256   5.659  0.5322 -0.5070  1.1791
 3801TIP3   OH232893   5.897   0.217   2.426  0.0962  0.3726 -0.4585
 3801TIP3    H132894   5.811   0.252   2.450  0.1168  0.5655 -0.6571
 3801TIP3    H232895   5.898   0.128   2.460 -0.1796  0.3748 -0.4470
 3802TIP3   OH232896   0.617   2.698   4.794 -0.6910 -0.9113  0.3810
 3802TIP3    H132897   0.556   2.735   4.858 -1.3656  0.8581 -1.2037
 3802TIP3    H232898   0.561   2.665   4.724  0.0968 -1.2642 -0.0859
 3803TIP3   OH232899   5.223   3.285  11.084 -0.0854  0.1128 -0.4365
 3803TIP3    H132900   5.198   3.306  11.174 -0.4826 -0.9235 -0.2945
 3803TIP3    H232901   5.212   3.191  11.078  0.1006  0.1558 -1.5315
 3804TIP3   OH232902   1.058   6.058  12.210  0.6752  0.3426  0.1887
 3804TIP3    H132903   1.039   6.141  12.254  2.1739  1.3192 -0.8926
 3804TIP3    H232904   0.991   6.050  12.142 -0.2748 -0.0351  1.1389
 3805TIP3   OH232905   1.296   4.008  14.761  0.2270  0.9058  0.4693
 3805TIP3    H132906   1.247   3.959  14.695 -0.9968  3.1355 -0.3842
 3805TIP3    H232907   1.255   4.095  14.762  2.1733  1.8909  1.9981
 3806TIP3   OH232908   6.030   5.007   0.110 -0.2089  0.3228 -0.3839
 3806TIP3    H132909   6.084   4.999   0.188 -0.8903  0.2199  0.0855
 3806TIP3    H232910   5.941   5.018   0.143 -0.5768 -0.2428 -1.1482
 3807TIP3   OH232911   5.252   0.149  13.937 -0.1136  0.2455  0.3516
 3807TIP3    H132912   5.210   0.089  13.876 -0.0694  0.3412  0.2260
 3807TIP3    H232913   5.341   0.158  13.905  0.3449 -0.8515  1.2733
 3808TIP3   OH232914   4.596   3.877  12.424  0.1016 -0.4798 -0.0228
 3808TIP3    H132915   4.541   3.867  12.502  1.1354  1.1552  0.9791
 3808TIP3    H232916   4.680   3.837  12.448  0.2619 -0.4259 -0.4794
 3809TIP3   OH232917   5.806   0.448  14.977  0.0405  0.3820  0.2018
 3809TIP3    H132918   5.721   0.422  14.941  0.4891 -1.0013  0.0737
 3809TIP3    H232919   5.818   0.391  15.053  0.5723  1.0116  0.6037
 3810TIP3   OH232920   1.655   3.034   5.737  0.3700 -0.7717 -0.0168
 3810TIP3    H132921   1.737   2.996   5.770  0.3640 -1.2670 -0.5771
 3810TIP3    H232922   1.589   2.967   5.753  0.5664 -1.5177 -2.0953
 3811TIP3   OH232923   2.546   6.107   1.699  0.0656 -1.1396 -0.4367
 3811TIP3    H132924   2.500   6.073   1.622  1.2586 -2.0269 -0.7752
 3811TIP3    H232925   2.606   6.037   1.725  0.9106 -0.1898  0.2699
 3812TIP3   OH232926   4.328   4.107  16.772 -0.3977 -0.4197  0.4842
 3812TIP3    H132927   4.298   4.191  16.805 -2.1732 -1.2947  1.2254
 3812TIP3    H232928   4.372   4.066  16.846 -0.3953 -0.5398  0.4173
 3813TIP3   OH232929   0.669   6.299  14.936 -0.3776  0.0075  0.5944
 3813TIP3    H132930   0.629   6.241  14.870 -0.0510  0.8542 -0.3841
 3813TIP3    H232931   0.671   6.247  15.016 -2.5206 -0.4287  0.4369
 3814TIP3   OH232932   0.664   4.245  15.797  0.2604  0.2426 -0.3136
 3814TIP3    H132933   0.715   4.322  15.771  1.0828 -0.4870 -0.8967
 3814TIP3    H232934   0.603   4.279  15.863  2.8042  0.7854  1.9386
 3815TIP3   OH232935   1.625   6.003  15.984  0.6179 -0.1722  0.7157
 3815TIP3    H132936   1.715   6.023  16.011  0.4129 -1.0595  2.1453
 3815TIP3    H232937   1.627   6.013  15.889  1.8192  1.3747  0.8508
 3816TIP3   OH232938   5.761   6.772  17.243  0.2067 -0.7937  0.5927
 3816TIP3    H132939   5.695   6.706  17.222 -0.7332  0.3407 -0.2526
 3816TIP3    H232940   5.710   6.853  17.254  1.4052  0.0084  0.4583
 3817TIP3   OH232941   0.678   6.280  13.524  0.5362  0.7325  0.1016
 3817TIP3    H132942   0.602   6.249  13.573  2.1991 -2.3290  0.9557
 3817TIP3    H232943   0.669   6.240  13.438 -0.5000  3.2073 -1.0599
 3818TIP3   OH232944   4.503   5.634  15.863 -0.0913  0.1476 -0.0684
 3818TIP3    H132945   4.579   5.631  15.804 -0.9320  0.9736 -1.2485
 3818TIP3    H232946   4.464   5.720  15.847 -1.3413 -0.3028  0.4456
 3819TIP3   OH232947   1.094   3.458   2.186 -0.0003 -0.2625 -0.5817
 3819TIP3    H132948   1.026   3.503   2.135  1.1486  0.3818 -1.6363
 3819TIP3    H232949   1.079   3.485   2.276 -0.7645  0.3648 -0.8871
 3820TIP3   OH232950   1.414   4.692   4.803  0.2211 -0.1916 -0.1490
 3820TIP3    H132951   1.356   4.702   4.879 -0.8266 -2.2138 -0.6079
 3820TIP3    H232952   1.370   4.740   4.733  0.8460  1.1037  0.3148
 3821TIP3   OH232953   4.921   3.624  15.649  0.1553 -0.2627  0.1063
 3821TIP3    H132954   4.933   3.573  15.569 -0.1874  0.2194 -0.2573
 3821TIP3    H232955   5.010   3.647  15.676  0.2622 -0.2446 -0.2588
 3822TIP3   OH232956   4.925   0.949   1.623  0.3655 -0.4744  0.0762
 3822TIP3    H132957   4.978   0.939   1.701  0.8415 -1.0483 -0.3111
 3822TIP3    H232958   4.952   0.877   1.566 -0.3983 -0.4206 -0.3731
 3823TIP3   OH232959   3.568   1.334  16.846 -0.4495 -0.7109  0.0360
 3823TIP3    H132960   3.625   1.365  16.776 -0.8933  2.2256  0.8529
 3823TIP3    H232961   3.628   1.300  16.912  0.3789  1.3757  0.4384
 3824TIP3   OH232962   0.364   0.934   1.072  0.4232 -0.2161 -0.0362
 3824TIP3    H132963   0.302   0.967   1.137 -0.9092  0.7909 -1.7627
 3824TIP3    H232964   0.326   0.957   0.988  1.9542 -1.7651 -1.2204
 3825TIP3   OH232965   1.610   2.631   1.484 -0.0122 -0.3093  0.1049
 3825TIP3    H132966   1.660   2.559   1.524 -1.1334 -1.4315 -0.4183
 3825TIP3    H232967   1.638   2.631   1.393 -0.8794 -0.9040 -0.1768
 3826TIP3   OH232968   4.604   5.414   4.151 -0.3100 -0.2587 -0.0555
 3826TIP3    H132969   4.696   5.388   4.162 -0.2273  0.1796  0.3148
 3826TIP3    H232970   4.571   5.357   4.082  0.1278 -0.7036  0.0977
 3827TIP3   OH232971   1.670   3.883   4.298  0.2268  0.3791 -0.0944
 3827TIP3    H132972   1.608   3.929   4.354  1.5521 -1.4106  3.1181
 3827TIP3    H232973   1.750   3.935   4.304  0.0685  0.8265 -1.4347
 3828TIP3   OH232974   6.549   0.300  15.673  0.3972 -0.5585 -0.6544
 3828TIP3    H132975   6.584   0.356  15.603 -0.4866  1.8944  0.7414
 3828TIP3    H232976   6.557   0.353  15.752 -2.5980 -1.4685  0.3962
 3829TIP3   OH232977   0.355   2.714   1.651 -0.3203  0.1593  0.2085
 3829TIP3    H132978   0.260   2.702   1.653 -0.0778 -2.0365  0.9095
 3829TIP3    H232979   0.390   2.630   1.680  1.8301  1.1939  0.7758
 3830TIP3   OH232980   5.025   2.935   0.579 -0.1064 -0.1313 -0.4678
 3830TIP3    H132981   4.990   2.871   0.641 -0.5821  0.0046 -0.5929
 3830TIP3    H232982   4.986   3.018   0.604  1.3148  0.3258  0.3430
 3831TIP3   OH232983   5.284   4.157   1.269 -0.0900 -0.1082  0.5299
 3831TIP3    H132984   5.234   4.083   1.236 -1.1061  0.4301  0.8372
 3831TIP3    H232985   5.314   4.129   1.356  0.7422 -0.6864  0.0757
 3832TIP3   OH232986   0.186   3.982   0.006  0.0465  0.3168  0.0837
 3832TIP3    H132987   0.099   3.942  -0.002  0.2149  0.1003 -0.7261
 3832TIP3    H232988   0.170   4.076  -0.005 -0.3712  0.5358  2.1462
 3833TIP3   OH232989   2.550   3.919   0.206  0.4740 -0.1349  0.1434
 3833TIP3    H132990   2.536   3.919   0.111  0.2049  3.5111  0.0246
 3833TIP3    H232991   2.645   3.925   0.216  0.5380 -1.0374  0.1553
 3834TIP3   OH232992   6.068   4.229   0.219  0.4916  0.5087 -0.1218
 3834TIP3    H132993   6.049   4.194   0.132 -2.1071 -0.6325  0.8010
 3834TIP3    H232994   6.119   4.160   0.261  0.2093  0.2723 -0.1607
 3835TIP3   OH232995   4.671   0.185   2.319 -0.4875  0.4142  0.0316
 3835TIP3    H132996   4.637   0.096   2.307 -0.0073  0.2889 -0.4708
 3835TIP3    H232997   4.593   0.241   2.318 -0.7201  0.1016 -0.7678
 3836TIP3   OH232998   6.220   3.162   4.393 -0.2687 -0.3192 -0.4311
 3836TIP3    H132999   6.237   3.144   4.486 -2.0926 -1.3475 -0.2486
 3836TIP3    H233000   6.175   3.247   4.393 -0.1849 -0.2747 -0.3790
 3837TIP3   OH233001   6.052   1.420   6.735 -0.0524  0.2433  0.5749
 3837TIP3    H133002   6.065   1.395   6.644 -0.5976  1.3356  0.1748
 3837TIP3    H233003   6.139   1.414   6.774  0.6261  1.8405 -0.5724
 3838TIP3   OH233004   1.798   2.676   0.969 -0.3466  0.5724 -0.4165
 3838TIP3    H133005   1.836   2.759   0.998 -0.6907  0.2714  0.9506
 3838TIP3    H233006   1.705   2.696   0.954 -0.0744  0.8545 -1.9171
 3839TIP3   OH233007   0.229   4.732   4.086  0.5037  0.0540 -0.3075
 3839TIP3    H133008   0.195   4.741   3.997 -0.5333  2.0081  0.2111
 3839TIP3    H233009   0.153   4.751   4.142  1.0465 -1.4798  1.0189
 3840TIP3   OH233010   4.283   5.369   2.570 -0.0359 -0.4072  0.2588
 3840TIP3    H133011   4.343   5.372   2.644 -0.2763 -0.3500  0.4538
 3840TIP3    H233012   4.273   5.276   2.551 -0.6859 -0.4788  0.8896
 3841TIP3   OH233013   2.044   1.268   1.951  0.4006  0.6134  0.3227
 3841TIP3    H133014   2.135   1.260   1.977  0.6149  0.6954 -0.4072
 3841TIP3    H233015   2.010   1.340   2.005  0.3976 -0.2786  1.5714
 3842TIP3   OH233016   1.779   2.354   2.556 -0.2384 -0.3224 -0.5185
 3842TIP3    H133017   1.818   2.286   2.501 -0.1195 -1.3229  0.7698
 3842TIP3    H233018   1.821   2.435   2.527  1.8817 -1.1901 -0.0408
 3843TIP3   OH233019   1.150   6.245   4.704 -0.7814 -0.2592 -0.0352
 3843TIP3    H133020   1.104   6.175   4.656  0.2455 -0.6891 -0.4216
 3843TIP3    H233021   1.087   6.317   4.707 -0.7577 -0.0490 -2.4363
 3844TIP3   OH233022   6.173   5.780  12.433 -0.2750 -0.6703 -0.0333
 3844TIP3    H133023   6.180   5.751  12.342  0.7395  0.6571 -0.4151
 3844TIP3    H233024   6.102   5.845  12.432  0.6973  0.4245 -0.2075
 3845TIP3   OH233025   0.068   1.284   6.279 -0.2203 -0.2906 -0.0895
 3845TIP3    H133026  -0.020   1.251   6.298  0.3650 -2.7772 -1.2662
 3845TIP3    H233027   0.060   1.328   6.194 -0.4168 -0.0707  0.0424
 3846TIP3   OH233028   4.875   4.881   1.874 -0.1274 -0.5143  0.3672
 3846TIP3    H133029   4.968   4.863   1.879 -0.0466 -0.1633  0.1270
 3846TIP3    H233030   4.844   4.833   1.797  0.5694  2.3486 -1.8470
 3847TIP3   OH233031   4.355   5.508  11.649 -0.1706 -0.0744  0.5965
 3847TIP3    H133032   4.349   5.582  11.709  0.4878 -0.5783  1.3069
 3847TIP3    H233033   4.328   5.543  11.564  1.2041  1.2926  0.6764
 3848TIP3   OH233034   6.390   1.343  11.956 -0.2120  0.4066 -0.1911
 3848TIP3    H133035   6.407   1.254  11.984  1.5290  1.1581  1.3521
 3848TIP3    H233036   6.396   1.395  12.036 -2.1508  1.8203 -0.8903
 3849TIP3   OH233037   1.840   5.270  10.932 -0.1527 -0.1959 -0.0913
 3849TIP3    H133038   1.835   5.362  10.956  1.1440 -0.0914 -0.1448
 3849TIP3    H233039   1.756   5.251  10.891 -1.3909  0.3203  2.0437
 3850TIP3   OH233040   6.313   2.012   2.479  0.4108  0.2325  0.2629
 3850TIP3    H133041   6.288   1.969   2.561  0.5308 -1.4523 -0.5340
 3850TIP3    H233042   6.292   1.947   2.411  0.0020  1.7079 -1.0755
 3851TIP3   OH233043   6.273   5.205   4.817 -0.4234 -0.1737  0.1672
 3851TIP3    H133044   6.231   5.215   4.732 -0.2929  0.5300  0.1796
 3851TIP3    H233045   6.321   5.123   4.811 -1.0029 -0.4900 -0.1876
 3852TIP3   OH233046   0.535   3.972   3.440  0.2977  0.9447  1.3050
 3852TIP3    H133047   0.485   3.892   3.424 -1.0266  1.5057  2.5247
 3852TIP3    H233048   0.512   4.030   3.368 -0.6676  1.1250  1.7504
 3853TIP3   OH233049   0.277   3.402  11.175 -0.0736  0.1560  0.6720
 3853TIP3    H133050   0.330   3.326  11.155  0.7785  0.8089  0.3850
 3853TIP3    H233051   0.193   3.386  11.132  1.0533  0.6616 -1.8690
 3854TIP3   OH233052   6.030   2.144  12.322 -0.3468 -0.2176 -0.2095
 3854TIP3    H133053   5.940   2.170  12.305 -0.2438 -0.9973 -2.2130
 3854TIP3    H233054   6.082   2.195  12.260  0.8762  1.6413  2.1520
 3855TIP3   OH233055   4.076   4.457   6.527 -0.2200  0.1045  0.1645
 3855TIP3    H133056   4.112   4.370   6.511 -0.0397 -0.2269  2.1536
 3855TIP3    H233057   3.984   4.441   6.548 -0.3040  0.4556  0.0721
 3856TIP3   OH233058   2.685   6.063  12.301 -0.2372 -0.7051  0.3911
 3856TIP3    H133059   2.591   6.075  12.312  0.0718  1.1706  1.3868
 3856TIP3    H233060   2.701   5.973  12.329 -1.5066 -0.5289  1.8227
 3857TIP3   OH233061   2.841   5.670   3.172 -0.2596 -0.0805  0.1225
 3857TIP3    H133062   2.889   5.605   3.120  1.7512  0.6889  0.9053
 3857TIP3    H233063   2.836   5.747   3.115  2.5221  0.9858  1.1851
 3858TIP3   OH233064   5.392   4.853  12.211  0.0319  0.0217  0.5334
 3858TIP3    H133065   5.429   4.938  12.233 -0.9721  0.5306  0.2645
 3858TIP3    H233066   5.404   4.846  12.116 -3.2438  1.5371 -0.0981
 3859TIP3   OH233067   1.100   3.818  14.647 -0.2612 -0.2504 -0.7077
 3859TIP3    H133068   1.045   3.850  14.575  0.2868 -1.6604 -1.8120
 3859TIP3    H233069   1.075   3.726  14.657 -0.5597 -0.0050  1.1710
 3860TIP3   OH233070   4.566   4.799  13.858  0.4622 -0.6048 -0.2614
 3860TIP3    H133071   4.519   4.875  13.825 -1.2709 -2.3381 -2.0373
 3860TIP3    H233072   4.659   4.822  13.848  0.0313  1.6032  0.1962
 3861TIP3   OH233073   2.771   2.446   4.854 -0.2906  0.0101  0.4482
 3861TIP3    H133074   2.676   2.443   4.844 -0.4784  0.6056  1.9516
 3861TIP3    H233075   2.794   2.357   4.882 -0.2090 -0.5279 -1.1785
 3862TIP3   OH233076   1.594   3.185   1.285 -0.0671  0.4158 -0.0113
 3862TIP3    H133077   1.528   3.183   1.217 -1.4828 -0.2098  1.3238
 3862TIP3    H233078   1.564   3.122   1.351  2.2745 -0.5077  0.2862
 3863TIP3   OH233079   2.774   3.508   3.419  0.2545  0.3752  0.1039
 3863TIP3    H133080   2.772   3.602   3.400  0.1599 -0.0015 -1.8880
 3863TIP3    H233081   2.862   3.494   3.454  0.4569  1.1098 -0.0830
 3864TIP3   OH233082   0.846   1.412   0.783  0.2190  0.9146  0.4685
 3864TIP3    H133083   0.927   1.419   0.732  1.3616  1.5366  2.2924
 3864TIP3    H233084   0.875   1.412   0.874 -1.5290 -2.9448  1.2046
 3865TIP3   OH233085   2.361   5.566   3.226  0.7319  0.2081 -0.2785
 3865TIP3    H133086   2.391   5.648   3.266 -1.2047  1.0368 -0.4142
 3865TIP3    H233087   2.337   5.510   3.300  2.3860 -0.4088 -0.1742
 3866TIP3   OH233088   3.629   5.098   2.678  0.0103  0.7075  0.0075
 3866TIP3    H133089   3.577   5.116   2.757  0.8768 -0.0963  0.7795
 3866TIP3    H233090   3.715   5.136   2.697 -0.2471  1.9670 -1.2343
 3867TIP3   OH233091   4.791   2.106  15.737  0.0709  0.0739  0.1916
 3867TIP3    H133092   4.865   2.067  15.692  0.3169 -0.9123  1.3978
 3867TIP3    H233093   4.805   2.200  15.730  1.5262 -0.1046  0.5273
 3868TIP3   OH233094   3.416   0.187   3.723 -0.1606 -0.0359  0.4442
 3868TIP3    H133095   3.391   0.141   3.803  0.9484 -1.4851  0.0054
 3868TIP3    H233096   3.509   0.206   3.734  0.6027 -2.2413 -1.3394
 3869TIP3   OH233097   2.486   1.400   0.752 -0.4082 -0.3699  0.6627
 3869TIP3    H133098   2.498   1.326   0.692  1.4191  0.7500 -0.4323
 3869TIP3    H233099   2.424   1.457   0.707 -0.8222 -0.6233  0.9108
 3870TIP3   OH233100   4.185   4.179  14.130  0.1537  0.9537 -0.1114
 3870TIP3    H133101   4.163   4.237  14.203 -1.2334 -0.8906  1.0547
 3870TIP3    H233102   4.181   4.091  14.169  4.0564  0.0583 -1.2499
 3871TIP3   OH233103   0.396   2.601   1.333 -0.4487  0.7826  0.5408
 3871TIP3    H133104   0.447   2.682   1.338 -2.0183  1.7165  2.1831
 3871TIP3    H233105   0.308   2.625   1.360 -1.2933 -1.2330 -0.1759
 3872TIP3   OH233106   3.082   5.270  12.368 -0.0204 -0.4163 -0.5254
 3872TIP3    H133107   3.085   5.187  12.416  0.0011 -0.1780 -0.1025
 3872TIP3    H233108   3.089   5.337  12.437  2.4957 -0.0654 -1.0150
 3873TIP3   OH233109   5.370   0.712  13.730 -1.1638  0.6990 -0.6890
 3873TIP3    H133110   5.462   0.697  13.708 -0.9250  2.5541 -1.1354
 3873TIP3    H233111   5.336   0.625  13.754  1.2195  0.2821  1.5962
 3874TIP3   OH233112   2.300   2.287   1.455 -0.0322 -0.4898  0.4722
 3874TIP3    H133113   2.372   2.225   1.453  1.4182  1.0336  1.9307
 3874TIP3    H233114   2.317   2.342   1.532 -1.1907  1.7184 -0.7287
 3875TIP3   OH233115   0.818   0.614   4.032  0.0678 -0.0385  0.0829
 3875TIP3    H133116   0.754   0.684   4.021  0.0532 -0.0180  0.3045
 3875TIP3    H233117   0.773   0.547   4.083 -0.0192 -0.3433 -0.3878
 3876TIP3   OH233118   1.485   2.869  12.801  0.0119 -0.2600  0.4493
 3876TIP3    H133119   1.482   2.773  12.808 -1.3893 -0.3091 -0.5811
 3876TIP3    H233120   1.578   2.890  12.813  0.0993 -1.5751  2.5832
 3877TIP3   OH233121   3.831   6.665  11.237 -0.2970 -0.2213  0.3431
 3877TIP3    H133122   3.800   6.575  11.245 -0.4778 -0.0206  2.1091
 3877TIP3    H233123   3.810   6.706  11.321  0.3214  1.3099 -0.2111
 3878TIP3   OH233124   4.707   3.445  13.053 -0.9675 -0.1333 -0.3179
 3878TIP3    H133125   4.778   3.388  13.083 -0.7878  0.7803  1.0503
 3878TIP3    H233126   4.639   3.435  13.119 -1.1503  0.8152 -0.3488
 3879TIP3   OH233127   6.191   0.272   5.786 -0.5164  0.0195 -0.1100
 3879TIP3    H133128   6.149   0.336   5.843 -0.8436  1.3863 -1.8171
 3879TIP3    H233129   6.284   0.288   5.797 -0.5951  0.7588 -0.4919
 3880TIP3   OH233130   3.867   2.379  12.619  0.1658 -0.2770 -0.1058
 3880TIP3    H133131   3.951   2.422  12.604  0.0903 -0.5826 -1.6201
 3880TIP3    H233132   3.801   2.446  12.601  0.0704 -0.1398  0.7180
 3881TIP3   OH233133   4.696   1.025  15.040  0.1218  0.0971  0.1746
 3881TIP3    H133134   4.708   0.978  14.957  1.0656  1.4773 -0.5031
 3881TIP3    H233135   4.601   1.030  15.051 -0.0092 -0.3340 -0.6708
 3882TIP3   OH233136   4.759   3.233   3.836 -0.0578 -0.3239 -0.2859
 3882TIP3    H133137   4.780   3.144   3.862 -0.2882 -0.6626 -1.2158
 3882TIP3    H233138   4.740   3.278   3.918 -1.5799 -1.5604  0.0888
 3883TIP3   OH233139   4.422   1.788   6.086  0.6628  0.0736  0.0904
 3883TIP3    H133140   4.408   1.783   5.991 -0.3507  0.1042  0.2244
 3883TIP3    H233141   4.516   1.772   6.097  0.8264  0.2215 -0.9275
 3884TIP3   OH233142   1.096   0.662  16.931  0.3403  0.2984 -0.6075
 3884TIP3    H133143   1.038   0.588  16.914 -1.9207  2.3754 -2.7534
 3884TIP3    H233144   1.045   0.720  16.988  2.7824 -0.4702  2.6491
 3885TIP3   OH233145   0.279   4.120   4.713 -0.1009 -0.0438 -0.3450
 3885TIP3    H133146   0.241   4.033   4.703 -2.0937  0.8033 -0.6846
 3885TIP3    H233147   0.345   4.127   4.644 -0.0985 -1.1824 -0.4667
 3886TIP3   OH233148   4.861   3.989  16.256  0.1596  0.1709 -0.1076
 3886TIP3    H133149   4.805   3.964  16.183 -0.0031 -1.6178  0.6018
 3886TIP3    H233150   4.847   4.084  16.265 -2.0327 -0.0804 -0.5274
 3887TIP3   OH233151   0.958   1.383  16.541 -0.1895 -0.1711  0.2635
 3887TIP3    H133152   0.997   1.403  16.626 -1.9065  1.5675  0.6870
 3887TIP3    H233153   1.003   1.442  16.480 -1.3454  1.0810  0.5793
 3888TIP3   OH233154   1.846   6.757   0.795 -0.1756  0.4149  0.7408
 3888TIP3    H133155   1.790   6.687   0.762 -0.6690  0.8933  0.5439
 3888TIP3    H233156   1.787   6.814   0.844  0.4150  0.1372  1.8011
 3889TIP3   OH233157   1.490   5.355  13.444 -0.3995 -0.8062  0.0843
 3889TIP3    H133158   1.411   5.385  13.399  0.0308  1.0125  0.4929
 3889TIP3    H233159   1.561   5.374  13.383 -0.1124 -1.0170  0.3522
 3890TIP3   OH233160   4.949   3.587  12.637 -0.3199 -0.2396 -0.4257
 3890TIP3    H133161   4.952   3.581  12.733 -0.3650 -2.4068 -0.5134
 3890TIP3    H233162   4.857   3.579  12.616 -0.5272  2.0845 -0.6138
 3891TIP3   OH233163   0.747   0.550  15.956  0.2982  0.2334  0.1055
 3891TIP3    H133164   0.746   0.527  16.049  1.3680  0.6195  0.2157
 3891TIP3    H233165   0.746   0.645  15.954  3.9053  0.3969 -0.1481
 3892TIP3   OH233166   1.062   2.785  12.351 -0.3291  0.0782 -0.2570
 3892TIP3    H133167   0.967   2.789  12.358 -0.4288 -2.9220  3.5640
 3892TIP3    H233168   1.094   2.817  12.435  1.8163 -1.4976 -0.3785
 3893TIP3   OH233169   5.869   0.865   1.224 -0.1287  0.2149 -0.3897
 3893TIP3    H133170   5.828   0.931   1.169 -3.2013 -1.4792 -0.3125
 3893TIP3    H233171   5.917   0.809   1.163  0.1474  0.8698 -0.7809
 3894TIP3   OH233172   0.317   3.732  14.479  0.2133 -0.2561  0.4492
 3894TIP3    H133173   0.367   3.812  14.492 -1.2722  0.8496 -0.3325
 3894TIP3    H233174   0.330   3.709  14.388 -0.5531 -0.0438  0.2786
 3895TIP3   OH233175   6.629   5.343   3.138 -0.1046 -0.2439  0.0902
 3895TIP3    H133176   6.573   5.273   3.106 -0.0364 -0.2801  0.0482
 3895TIP3    H233177   6.588   5.424   3.106 -0.8663 -0.1847  1.1814
 3896TIP3   OH233178   5.599   3.154   1.167  0.0303  0.3841  0.1180
 3896TIP3    H133179   5.648   3.072   1.164  0.1989  0.4730  0.4522
 3896TIP3    H233180   5.507   3.126   1.171  0.0975  0.2083  0.4751
 3897TIP3   OH233181   6.449   2.812  11.189  0.1763  0.1552 -0.3141
 3897TIP3    H133182   6.488   2.727  11.173 -1.1708 -0.2185 -1.8850
 3897TIP3    H233183   6.376   2.817  11.128 -2.2022  0.8459  2.3480
 3898TIP3   OH233184   1.804   2.733   1.746 -0.2292  0.0786 -0.1851
 3898TIP3    H133185   1.757   2.687   1.815  1.8185 -1.2004  0.4305
 3898TIP3    H233186   1.787   2.681   1.667 -1.2269  0.6179 -0.3474
 3899TIP3   OH233187   4.683   2.052  16.011  0.0068  0.2358  0.5067
 3899TIP3    H133188   4.626   1.978  15.990 -1.2274  1.2119  0.2880
 3899TIP3    H233189   4.710   2.086  15.925  2.2761 -1.1738  0.5887
 3900TIP3   OH233190   0.973   2.642  13.338  0.2692  0.4269 -0.4678
 3900TIP3    H133191   0.935   2.656  13.251  0.5235  0.5459 -0.5634
 3900TIP3    H233192   1.058   2.601  13.320  0.9489  1.7296 -0.3553
 3901TIP3   OH233193   5.505   2.245  12.207 -0.3616  0.5302 -0.2750
 3901TIP3    H133194   5.567   2.259  12.278  0.3133 -1.2036 -0.4752
 3901TIP3    H233195   5.443   2.317  12.214  0.0806  0.7588  1.6499
 3902TIP3   OH233196   2.017   0.730  13.003  0.7354 -0.6792  0.4476
 3902TIP3    H133197   2.021   0.641  13.039  2.5889 -0.7128  0.2773
 3902TIP3    H233198   2.099   0.740  12.954 -0.9186 -0.0234 -2.3782
 3903TIP3   OH233199   2.998   5.715  16.116 -0.3153 -0.9166 -0.5581
 3903TIP3    H133200   2.988   5.742  16.025 -1.3525 -0.6801 -0.3833
 3903TIP3    H233201   2.943   5.775  16.166  1.3943 -0.0665  0.4188
 3904TIP3   OH233202   2.511   4.642  11.346  0.1797  0.1220  0.3539
 3904TIP3    H133203   2.534   4.622  11.437  1.5225  1.6876  0.3911
 3904TIP3    H233204   2.550   4.571  11.295  0.7201  0.0400  0.8763
 3905TIP3   OH233205   0.040   0.376   5.281  0.3476 -0.3098 -0.1666
 3905TIP3    H133206   0.030   0.450   5.221  0.3460 -1.3765 -1.5301
 3905TIP3    H233207   0.028   0.414   5.368  0.0592  1.2350 -0.8461
 3906TIP3   OH233208   6.272   0.173  14.226 -0.1985 -0.1348  0.0212
 3906TIP3    H133209   6.328   0.166  14.149 -0.3913 -1.4052 -0.0242
 3906TIP3    H233210   6.329   0.150  14.299 -1.1177 -3.7725 -0.2386
 3907TIP3   OH233211   1.178   1.512   3.833 -0.9983 -0.2553 -0.2301
 3907TIP3    H133212   1.127   1.494   3.754  0.5600 -1.1759 -1.0821
 3907TIP3    H233213   1.235   1.436   3.843  0.1569  0.6803  0.7154
 3908TIP3   OH233214   3.771   0.486   2.115 -0.8141 -0.4582  0.0274
 3908TIP3    H133215   3.708   0.550   2.148 -2.0433 -1.6839  0.1011
 3908TIP3    H233216   3.808   0.446   2.193  0.1107  0.2752 -0.0142
 3909TIP3   OH233217   2.375   6.653  10.828 -0.2118  0.3128 -0.2230
 3909TIP3    H133218   2.405   6.691  10.911  0.0126  0.4149 -0.3469
 3909TIP3    H233219   2.444   6.591  10.804 -0.6923 -0.3624  0.0972
 3910TIP3   OH233220   1.851   2.483   1.584  0.3173 -0.0930  0.1093
 3910TIP3    H133221   1.927   2.448   1.629  0.6915 -1.3255 -1.4029
 3910TIP3    H233222   1.878   2.489   1.492 -1.6894 -1.5328 -0.6451
 3911TIP3   OH233223   5.565   0.147  15.300  0.3216 -0.2402 -0.4884
 3911TIP3    H133224   5.533   0.228  15.260  0.5895 -0.5998 -1.4635
 3911TIP3    H233225   5.611   0.102  15.229  0.4721 -1.0855  0.1325
 3912TIP3   OH233226   2.559   1.762  11.949  0.2909 -0.3193 -0.0777
 3912TIP3    H133227   2.589   1.773  11.859 -0.6641  3.4871 -0.0978
 3912TIP3    H233228   2.471   1.727  11.941 -0.0486  0.6430 -0.6939
 3913TIP3   OH233229   6.549   6.045   1.751  0.2130  0.9660  0.3858
 3913TIP3    H133230   6.594   5.977   1.701 -1.4052  1.2723 -1.6172
 3913TIP3    H233231   6.606   6.061   1.826  0.7253 -2.4686  0.8811
 3914TIP3   OH233232   1.789   0.591  13.183 -0.2305 -0.2833 -0.1465
 3914TIP3    H133233   1.875   0.611  13.220 -0.3026  0.1838 -0.2243
 3914TIP3    H233234   1.731   0.655  13.224 -0.2994  0.2887 -1.1205
 3915TIP3   OH233235   5.798   0.344  15.332 -0.1921 -0.1435  0.3310
 3915TIP3    H133236   5.729   0.342  15.398 -0.5528 -0.0257 -0.0363
 3915TIP3    H233237   5.802   0.254  15.299  1.6302 -0.8344  2.1576
 3916TIP3   OH233238   0.530   1.781   5.196  0.3847  0.6039 -0.0225
 3916TIP3    H133239   0.576   1.725   5.257  0.4342  2.5565  1.8593
 3916TIP3    H233240   0.437   1.766   5.215  0.3123 -0.3827 -1.0385
 3917TIP3   OH233241   1.710   1.634   3.020  0.5110 -0.7347  0.0578
 3917TIP3    H133242   1.641   1.681   3.068 -0.4795 -2.9826  1.0018
 3917TIP3    H233243   1.789   1.647   3.073  0.1214 -0.5913  0.6184
 3918TIP3   OH233244   6.386   5.280  12.024 -0.6272  0.2615 -0.1137
 3918TIP3    H133245   6.427   5.210  11.973 -0.9475 -0.8172  1.0660
 3918TIP3    H233246   6.351   5.339  11.958  0.6066 -0.1001 -1.1474
 3919TIP3   OH233247   5.247   3.617  11.786 -0.7320  0.2566  0.2285
 3919TIP3    H133248   5.305   3.642  11.858  1.8832  0.2367 -1.7261
 3919TIP3    H233249   5.230   3.699  11.739 -2.7604  0.3426  1.0289
 3920TIP3   OH233250   2.256   2.366  17.040  0.4122  0.6786 -0.4834
 3920TIP3    H133251   2.302   2.445  17.013  1.2715 -0.2982 -1.9978
 3920TIP3    H233252   2.325   2.309  17.076 -0.0497  0.2429 -0.2642
 3921TIP3   OH233253   6.057   6.097   1.839  0.0904 -0.2208 -0.1070
 3921TIP3    H133254   6.059   6.129   1.929 -0.1458 -0.1128 -0.1388
 3921TIP3    H233255   6.030   6.173   1.787 -0.6460 -0.5175 -0.1653
 3922TIP3   OH233256   6.143   4.347   5.351 -0.1537  0.3951 -0.8669
 3922TIP3    H133257   6.168   4.427   5.398  2.4822 -0.2143 -1.0761
 3922TIP3    H233258   6.152   4.369   5.259 -0.5953  0.1802 -0.9656
 3923TIP3   OH233259   0.661   4.908  12.841  0.5119  0.4296 -0.6473
 3923TIP3    H133260   0.654   4.989  12.790  1.1912  0.9322  0.0288
 3923TIP3    H233261   0.590   4.853  12.808  0.3302  1.1151 -1.4476
 3924TIP3   OH233262   4.767   3.681   0.889 -0.1434 -0.3831  0.3938
 3924TIP3    H133263   4.804   3.718   0.810 -0.5495  0.5463  0.6276
 3924TIP3    H233264   4.681   3.648   0.862  0.2310 -1.1975  0.1788
 3925TIP3   OH233265   5.618   0.327   3.529 -0.1517  0.0227  0.0363
 3925TIP3    H133266   5.555   0.259   3.553  1.3747 -1.2116  0.7515
 3925TIP3    H233267   5.694   0.279   3.495  0.7483  1.4023  0.0009
 3926TIP3   OH233268   0.695   4.715   0.804 -0.1257 -0.4468  0.1458
 3926TIP3    H133269   0.749   4.671   0.869  1.1225 -0.3585 -0.7973
 3926TIP3    H233270   0.685   4.651   0.734 -0.5794 -0.1666 -0.0503
 3927TIP3   OH233271   4.456   0.889  16.556 -0.0673 -0.2521  0.3952
 3927TIP3    H133272   4.427   0.943  16.629  0.1822  1.6552 -0.8397
 3927TIP3    H233273   4.535   0.845  16.588 -0.7153 -0.5420  1.6851
 3928TIP3   OH233274   3.900   1.521   4.366  0.6377  0.7758  0.5562
 3928TIP3    H133275   3.992   1.544   4.352  0.8724 -0.1844  0.4204
 3928TIP3    H233276   3.864   1.594   4.417  1.5114  1.0979  0.7292
 3929TIP3   OH233277   5.706   2.977  16.887  0.6828 -0.4459  0.7619
 3929TIP3    H133278   5.699   3.071  16.903 -1.2775  0.0693 -2.2911
 3929TIP3    H233279   5.646   2.938  16.950 -1.3948  0.7722 -0.3537
 3930TIP3   OH233280   2.333   4.035  13.996  0.5232  0.2468 -0.0711
 3930TIP3    H133281   2.306   4.029  14.088 -0.7925  0.8117 -0.3990
 3930TIP3    H233282   2.251   4.044  13.948  1.1863 -0.2341 -1.3277
 3931TIP3   OH233283   5.577   3.716  16.120  0.0827 -0.0832 -0.2996
 3931TIP3    H133284   5.653   3.728  16.177  0.3747 -1.0090 -0.4875
 3931TIP3    H233285   5.542   3.804  16.109  1.2505  0.3940 -0.3799
 3932TIP3   OH233286   6.322   4.213  12.490  0.2138  0.3726  0.0833
 3932TIP3    H133287   6.234   4.214  12.452 -1.1748  0.4549  2.9844
 3932TIP3    H233288   6.371   4.152  12.436 -0.9556  1.8418 -2.8656
 3933TIP3   OH233289   2.597   3.804  15.105  0.0548 -0.5378 -0.7860
 3933TIP3    H133290   2.681   3.758  15.111 -1.2218 -3.3379 -2.4266
 3933TIP3    H233291   2.540   3.757  15.165 -0.3354  1.5896  0.6168
 3934TIP3   OH233292   1.303   1.611   2.789 -0.2910 -0.3111  0.3704
 3934TIP3    H133293   1.319   1.563   2.871 -1.0146 -1.0016  0.1106
 3934TIP3    H233294   1.386   1.605   2.742  0.4269  0.8306  1.4066
 3935TIP3   OH233295   5.256   3.869   3.841  0.0246  0.1630 -0.0976
 3935TIP3    H133296   5.162   3.886   3.827 -0.1836  0.5705  1.5595
 3935TIP3    H233297   5.284   3.825   3.761 -1.0339  2.1108 -1.6401
 3936TIP3   OH233298   6.021   1.715  11.520  0.2269  0.2781  0.0925
 3936TIP3    H133299   5.968   1.725  11.600 -1.2153 -0.6147 -0.7037
 3936TIP3    H233300   5.996   1.629  11.486  1.6791  0.1545 -0.7219
 3937TIP3   OH233301   4.948   5.023   3.825  0.3629  0.6938 -0.1613
 3937TIP3    H133302   4.955   4.928   3.816  0.4092  0.5403  1.3302
 3937TIP3    H233303   4.858   5.043   3.798  1.1377  0.6054 -3.1378
 3938TIP3   OH233304   5.860   4.188  15.960 -0.2170  0.5124 -0.0948
 3938TIP3    H133305   5.771   4.177  15.927 -0.4626  1.7019  0.1212
 3938TIP3    H233306   5.852   4.257  16.026  0.0633 -2.3572  3.2382
 3939TIP3   OH233307   5.995   3.958  12.854 -0.2020 -0.1124  0.0766
 3939TIP3    H133308   6.055   3.954  12.779 -1.4846 -3.5254 -0.9932
 3939TIP3    H233309   5.928   4.021  12.828 -0.3332 -0.8395 -1.4744
 3940TIP3   OH233310   0.614   1.674   1.695  0.2560 -0.7045  0.1507
 3940TIP3    H133311   0.574   1.701   1.613  1.8395 -0.5025 -0.5954
 3940TIP3    H233312   0.629   1.756   1.743  1.6628 -0.5617 -0.4945
 3941TIP3   OH233313   4.578   4.662   1.245 -0.4204 -0.1690  0.7113
 3941TIP3    H133314   4.509   4.729   1.242 -0.1171  0.1508 -1.6315
 3941TIP3    H233315   4.653   4.708   1.282 -0.9034  0.0495  1.4476
 3942TIP3   OH233316   6.486   5.498   0.472 -0.1178  0.0987  0.0158
 3942TIP3    H133317   6.567   5.513   0.423 -0.0361 -3.3152 -1.1841
 3942TIP3    H233318   6.512   5.499   0.564  1.0581  0.2381 -0.3045
 3943TIP3   OH233319   5.344   5.592  11.184 -0.5353  0.3965  0.0860
 3943TIP3    H133320   5.318   5.555  11.269  0.0351 -1.5927 -0.5376
 3943TIP3    H233321   5.301   5.677  11.180  0.0952  0.9398  2.7328
 3944TIP3   OH233322   5.081   6.697   2.945  0.0480  0.9185  0.0620
 3944TIP3    H133323   5.079   6.775   3.000  0.8603  2.7803 -2.3627
 3944TIP3    H233324   5.087   6.731   2.856  0.0989 -1.9428 -1.1211
 3945TIP3   OH233325   2.573   0.489   2.661  0.4273 -0.5786  0.6086
 3945TIP3    H133326   2.517   0.461   2.734  1.4411  0.8049  1.9886
 3945TIP3    H233327   2.513   0.495   2.586 -1.1396  0.0946  1.8321
 3946TIP3   OH233328   0.179   4.307   1.532  0.3546  0.7311  0.2083
 3946TIP3    H133329   0.101   4.363   1.538  0.0859  0.2986  0.7970
 3946TIP3    H233330   0.247   4.366   1.500  0.3647  1.7055  1.9046
 3947TIP3   OH233331   4.879   5.110   5.745 -0.2259 -0.5042 -0.0716
 3947TIP3    H133332   4.807   5.166   5.774  0.8405  1.4873 -1.0570
 3947TIP3    H233333   4.956   5.168   5.744  0.6384 -1.5445 -2.5927
 3948TIP3   OH233334   2.523   4.148   1.745 -0.0405 -0.3194 -0.4567
 3948TIP3    H133335   2.494   4.061   1.718 -0.0057 -0.0400 -1.4118
 3948TIP3    H233336   2.470   4.208   1.693  1.3101  0.2152 -1.2535
 3949TIP3   OH233337   6.091   4.255  11.076  0.3752  0.2013 -0.3924
 3949TIP3    H133338   6.094   4.319  11.006  1.5117  1.9331  1.1570
 3949TIP3    H233339   6.143   4.181  11.043 -0.5736  0.1968 -2.0121
 3950TIP3   OH233340   5.196   4.940   5.241  0.5318  0.2715  0.0478
 3950TIP3    H133341   5.119   4.914   5.190 -0.3186 -2.3770  2.3990
 3950TIP3    H233342   5.270   4.903   5.192  0.3403  2.2057 -1.8411
 3951TIP3   OH233343   5.468   5.060   2.279  0.0023 -0.5658  0.3450
 3951TIP3    H133344   5.488   4.982   2.331 -0.1056 -0.8371 -0.0087
 3951TIP3    H233345   5.394   5.100   2.323 -0.4751 -1.1238  0.0787
 3952TIP3   OH233346   2.590   5.817  11.809 -0.4232  0.7081  0.2365
 3952TIP3    H133347   2.645   5.744  11.836  0.9111  1.3292 -0.6609
 3952TIP3    H233348   2.641   5.860  11.740 -2.1011  1.2447 -0.7194
 3953TIP3   OH233349   2.889   4.096   5.066  0.0872  0.0394  0.0237
 3953TIP3    H133350   2.895   4.076   4.972  0.1340 -1.3098  0.2975
 3953TIP3    H233351   2.797   4.081   5.088  0.1623 -0.0548  0.2783
 3954TIP3   OH233352   3.665   1.108   4.586 -0.2529 -0.4757  0.4312
 3954TIP3    H133353   3.718   1.092   4.664 -1.4267  0.2600  1.4108
 3954TIP3    H233354   3.665   1.203   4.576 -2.4453 -0.3292  1.2572
 3955TIP3   OH233355   5.431   5.518   2.294 -0.1635 -0.1076 -0.5276
 3955TIP3    H133356   5.513   5.469   2.285  0.2221  0.1749  1.1507
 3955TIP3    H233357   5.459   5.605   2.322 -0.9975  0.2881 -0.9095
 3956TIP3   OH233358   2.430   5.613   1.852 -0.1336 -0.0514 -0.2661
 3956TIP3    H133359   2.493   5.620   1.924 -0.9282  0.6410  0.3791
 3956TIP3    H233360   2.484   5.616   1.773  0.6125  1.1788  0.2560
 3957TIP3   OH233361   1.884   4.206   4.441 -0.2440  0.0319  0.5750
 3957TIP3    H133362   1.791   4.230   4.447 -0.4948 -1.0547  1.9752
 3957TIP3    H233363   1.927   4.263   4.504  0.0920  0.7221 -0.2741
 3958TIP3   OH233364   2.639   2.001  12.325 -0.1855 -0.0017  0.3169
 3958TIP3    H133365   2.616   1.982  12.235  0.0430  0.6083  0.1298
 3958TIP3    H233366   2.624   2.095  12.336 -1.8958 -0.3497  1.4148
 3959TIP3   OH233367   5.190   1.527  16.611 -0.3817 -0.3788  0.2257
 3959TIP3    H133368   5.189   1.432  16.606  0.7062 -0.4712  1.4344
 3959TIP3    H233369   5.136   1.555  16.536 -0.6047 -1.9166 -0.2274
 3960TIP3   OH233370   4.134   6.042  16.043 -0.5437 -0.1281  0.2399
 3960TIP3    H133371   4.078   6.093  15.984  1.9718  1.5635 -0.8277
 3960TIP3    H233372   4.149   6.100  16.117  1.0206  0.0860 -0.2195
 3961TIP3   OH233373   0.367   0.524  11.769  0.2883  0.3377  0.3854
 3961TIP3    H133374   0.422   0.598  11.743  0.7361  0.2332  1.0088
 3961TIP3    H233375   0.379   0.460  11.700 -0.6104  1.0861 -0.4990
 3962TIP3   OH233376   6.532   1.085   1.117 -0.5102 -0.3302 -0.7069
 3962TIP3    H133377   6.604   1.108   1.176  0.1731 -0.4023 -1.4940
 3962TIP3    H233378   6.461   1.144   1.142 -0.9967 -1.7479  1.5975
 3963TIP3   OH233379   1.468   6.207  15.891 -0.2970 -0.0597  0.0446
 3963TIP3    H133380   1.521   6.147  15.942 -0.4901  0.6684  1.1284
 3963TIP3    H233381   1.500   6.294  15.916 -0.8051  0.3320 -0.6280
 3964TIP3   OH233382   5.920   6.669   4.299  0.5544 -0.3277  0.3611
 3964TIP3    H133383   5.850   6.650   4.362  0.8811 -0.6672  0.6219
 3964TIP3    H233384   5.962   6.748   4.334 -0.0419  0.1904 -0.0848
 3965TIP3   OH233385   1.189   3.163  15.349  0.2657  0.1649 -0.5592
 3965TIP3    H133386   1.133   3.107  15.295 -0.5475  0.5028 -0.0854
 3965TIP3    H233387   1.217   3.233  15.290  1.1897 -0.6687 -1.1199
 3966TIP3   OH233388   6.791   1.658  15.908  0.2835 -0.3861 -0.1278
 3966TIP3    H133389   6.790   1.745  15.946  0.3461 -1.1522  1.7186
 3966TIP3    H233390   6.759   1.670  15.819  0.7154  1.5724 -0.0562
 3967TIP3   OH233391   1.298   2.901  15.427 -0.1562 -0.0618 -0.0372
 3967TIP3    H133392   1.281   2.990  15.457  0.5829 -0.0061  0.2439
 3967TIP3    H233393   1.339   2.858  15.502  0.3926 -0.3400 -0.4878
 3968TIP3   OH233394   3.188   0.443  16.335 -0.3345 -0.4385  0.0104
 3968TIP3    H133395   3.097   0.468  16.350 -0.1834 -0.1088  0.3838
 3968TIP3    H233396   3.239   0.517  16.368  0.1146 -1.1880  1.0297
 3969TIP3   OH233397   5.407   1.794  11.013 -0.4398  0.7721 -0.2869
 3969TIP3    H133398   5.494   1.832  11.028 -0.5140  1.2594 -0.9987
 3969TIP3    H233399   5.352   1.870  10.995  0.0443  0.3181 -5.0386
 3970TIP3   OH233400   2.204   4.766  14.058 -0.3101  0.3912 -0.1571
 3970TIP3    H133401   2.129   4.823  14.077  0.7872  1.4618  1.1712
 3970TIP3    H233402   2.189   4.689  14.113 -0.0024  1.0083  0.8215
 3971TIP3   OH233403   4.231   4.915  16.802 -0.2711  0.1444 -0.2433
 3971TIP3    H133404   4.230   4.888  16.894  0.3477  1.7718  0.2855
 3971TIP3    H233405   4.166   4.986  16.798  0.7927  1.1287 -0.6821
 3972TIP3   OH233406   0.636   4.868  13.150  0.5911 -0.3521  0.1202
 3972TIP3    H133407   0.653   4.881  13.057 -1.3941 -0.0877 -0.2535
 3972TIP3    H233408   0.542   4.852  13.155  0.8421 -1.5151  1.9769
 3973TIP3   OH233409   2.492   3.041   3.295  0.5559 -0.1260  0.1907
 3973TIP3    H133410   2.583   3.066   3.306  0.6080  0.1562 -0.8346
 3973TIP3    H233411   2.465   3.079   3.212  0.1822 -2.1169 -0.6744
 3974TIP3   OH233412   2.240   1.239  11.301 -0.0751  0.2640 -0.2690
 3974TIP3    H133413   2.198   1.261  11.218 -0.1702 -1.6407 -0.7760
 3974TIP3    H233414   2.232   1.144  11.307  0.4078  0.3122  1.6763
 3975TIP3   OH233415   4.972   3.987  17.258 -0.1394 -0.7564  0.0429
 3975TIP3    H133416   4.883   3.955  17.274 -0.5418  0.8112  1.1629
 3975TIP3    H233417   4.964   4.040  17.179 -0.0247 -1.2334 -0.2942
 3976TIP3   OH233418   6.169   1.038   1.161  0.2871  0.1620 -0.1766
 3976TIP3    H133419   6.196   1.078   1.244 -0.7579  0.2509  0.1335
 3976TIP3    H233420   6.108   0.969   1.187 -0.7994  0.8269 -0.9287
 3977TIP3   OH233421   3.494   3.622   5.061  0.1641  0.3505  0.6202
 3977TIP3    H133422   3.580   3.602   5.097  1.4753  3.5166 -0.4096
 3977TIP3    H233423   3.459   3.690   5.118 -1.0565  0.1101  0.1853
 3978TIP3   OH233424   6.266   5.860  11.415  0.3319  0.1213 -0.0943
 3978TIP3    H133425   6.266   5.808  11.335  2.0646 -0.0576 -0.0116
 3978TIP3    H233426   6.352   5.847  11.453  1.0341  3.3092 -0.2641
 3979TIP3   OH233427   0.197   1.850  11.410  0.7871  0.0350  0.2786
 3979TIP3    H133428   0.138   1.904  11.358  0.2651 -0.1427  0.6831
 3979TIP3    H233429   0.206   1.769  11.359 -0.2943 -0.4286  0.7977
 3980TIP3   OH233430   0.181   2.150   5.442 -0.5019 -0.2350  0.2594
 3980TIP3    H133431   0.269   2.157   5.479 -0.1611  0.4470 -0.6353
 3980TIP3    H233432   0.149   2.065   5.471 -0.0376  0.0435  1.6367
 3981TIP3   OH233433   6.130   6.674   3.016 -0.0637  0.3806 -0.7660
 3981TIP3    H133434   6.058   6.613   2.999 -0.2867  0.3908  0.1114
 3981TIP3    H233435   6.189   6.662   2.942 -0.1050 -0.9083 -0.6173
 3982TIP3   OH233436   5.294   0.200   4.096  0.2878 -0.4294  0.0327
 3982TIP3    H133437   5.337   0.121   4.063  0.4629 -0.8850  1.3016
 3982TIP3    H233438   5.207   0.171   4.122  0.0758 -0.0294 -0.2150
 3983TIP3   OH233439   3.238   1.716   2.669 -0.2069  0.0297 -0.1448
 3983TIP3    H133440   3.260   1.677   2.754 -0.3297 -1.0796 -0.6070
 3983TIP3    H233441   3.167   1.662   2.636  0.9347 -0.5764 -1.6881
 3984TIP3   OH233442   3.655   4.871  17.253 -0.6805 -0.1721 -0.5853
 3984TIP3    H133443   3.600   4.931  17.303 -1.5556  0.3497 -2.1212
 3984TIP3    H233444   3.595   4.831  17.189 -0.1427 -2.6880  0.3512
 3985TIP3   OH233445   5.998   5.066  10.477 -0.0725 -0.0559 -0.1264
 3985TIP3    H133446   6.028   5.152  10.506  0.7418  0.1273 -1.4766
 3985TIP3    H233447   5.902   5.073  10.479 -0.0220  0.6712  0.3334
 3986TIP3   OH233448   5.165   1.664  11.165  0.1525  0.2545 -0.2534
 3986TIP3    H133449   5.147   1.728  11.097 -0.4417  1.6213  1.1456
 3986TIP3    H233450   5.249   1.691  11.202 -0.5325  0.8135  0.9497
 3987TIP3   OH233451   4.782   5.035  13.305 -0.2931 -0.6114  0.0352
 3987TIP3    H133452   4.796   5.116  13.355 -2.6569  0.1932 -0.4604
 3987TIP3    H233453   4.733   4.979  13.364  2.4715 -2.3484  0.8722
 3988TIP3   OH233454   5.950   1.008   0.871 -0.8505  0.2899  0.7413
 3988TIP3    H133455   5.921   0.917   0.860 -2.3934  0.9454 -1.2461
 3988TIP3    H233456   6.039   1.010   0.837 -1.5788 -0.0972 -1.3370
 3989TIP3   OH233457   1.079   2.291   4.791  0.0896  0.1011 -0.3009
 3989TIP3    H133458   1.156   2.233   4.790  0.3027  0.3792 -1.4435
 3989TIP3    H233459   1.028   2.263   4.716 -0.9104 -0.0334  0.4136
 3990TIP3   OH233460   3.490   6.115  12.278 -0.3468 -0.1207  0.3034
 3990TIP3    H133461   3.564   6.096  12.221 -0.7155 -0.6278 -0.0132
 3990TIP3    H233462   3.458   6.029  12.305 -1.4665  0.0443 -0.4064
 3991TIP3   OH233463   5.187   6.273  15.751 -0.5386 -0.0628 -0.2187
 3991TIP3    H133464   5.246   6.218  15.802  0.8571  1.4308 -0.1033
 3991TIP3    H233465   5.190   6.358  15.795 -2.4296  0.2000 -0.5172
 3992TIP3   OH233466   0.062   4.341  13.781  0.4144  0.2738 -0.2038
 3992TIP3    H133467   0.098   4.266  13.828  2.2491  1.4616  0.4156
 3992TIP3    H233468   0.060   4.314  13.689  0.0538 -0.8745  0.1330
 3993TIP3   OH233469   2.123   1.826   5.151 -0.7585 -0.3416 -0.2463
 3993TIP3    H133470   2.087   1.914   5.140 -2.7927 -1.0376  0.3209
 3993TIP3    H233471   2.104   1.804   5.242 -0.4608 -1.4237 -0.4322
 3994TIP3   OH233472   3.838   5.061   0.446 -0.3453  0.3937  0.7410
 3994TIP3    H133473   3.899   5.134   0.453  2.1349 -1.7496  4.5268
 3994TIP3    H233474   3.893   4.982   0.445 -2.9133 -1.6368  2.8943
 3995TIP3   OH233475   1.205   3.136  16.233  0.5873 -0.0534  0.1831
 3995TIP3    H133476   1.258   3.170  16.162  2.9850 -2.0972  0.8339
 3995TIP3    H233477   1.152   3.067  16.193  0.5814  0.0323  0.0440
 3996TIP3   OH233478   4.793   6.635  15.191  0.1896 -0.1797  0.1115
 3996TIP3    H133479   4.763   6.555  15.234 -2.7543  0.1983 -0.9908
 3996TIP3    H233480   4.821   6.692  15.262  0.9113 -1.6319  1.0196
 3997TIP3   OH233481   5.297   1.650   0.920 -0.3223  0.0140  0.0092
 3997TIP3    H133482   5.233   1.641   0.849 -0.6055 -1.1169  0.3720
 3997TIP3    H233483   5.307   1.561   0.953  2.5746 -0.1373 -0.9865
 3998TIP3   OH233484   2.153   5.985   5.264  0.1387  0.3754  0.3604
 3998TIP3    H133485   2.170   6.031   5.181  2.6456 -0.2749  0.4414
 3998TIP3    H233486   2.118   6.053   5.321 -0.9257  1.0105 -0.9921
 3999TIP3   OH233487   5.579   6.208  11.271 -0.0236 -0.0229 -0.1976
 3999TIP3    H133488   5.553   6.171  11.355 -1.3421 -2.0504 -1.4082
 3999TIP3    H233489   5.665   6.169  11.253 -0.0839 -0.1884 -0.1296
 4000TIP3   OH233490   0.342   4.013   5.417 -0.3478 -0.1892  0.6209
 4000TIP3    H133491   0.323   3.920   5.406 -1.6644 -0.0120  1.2034
 4000TIP3    H233492   0.299   4.037   5.499 -0.8046  1.1274  0.0260
 4001TIP3   OH233493   6.654   2.564   4.067  0.5872 -0.2373 -0.0467
 4001TIP3    H133494   6.609   2.605   4.141  2.6234 -1.1796  1.8035
 4001TIP3    H233495   6.583   2.531   4.012 -1.0046  0.8973  1.2183
 4002TIP3   OH233496   5.497   6.039   3.051  0.3043 -0.2524  0.2268
 4002TIP3    H133497   5.416   6.075   3.016 -0.1587 -1.2069  0.2879
 4002TIP3    H233498   5.559   6.042   2.978  0.2928  0.6772  0.2390
 4003TIP3   OH233499   0.230   0.570   6.568 -0.2205  0.2455 -0.5251
 4003TIP3    H133500   0.256   0.498   6.625  1.8843  1.8078  0.6280
 4003TIP3    H233501   0.135   0.559   6.558 -0.4011 -1.0999  1.8396
 4004TIP3   OH233502   5.026   1.133   2.335  0.5572  0.4365 -0.3175
 4004TIP3    H133503   4.933   1.135   2.312  0.5696 -0.9230 -0.5973
 4004TIP3    H233504   5.044   1.040   2.351  1.8951  0.6702 -0.3828
 4005TIP3   OH233505   3.294   3.608   1.727 -0.3188 -0.0229 -0.0051
 4005TIP3    H133506   3.211   3.653   1.718 -1.0776 -1.4140 -0.2608
 4005TIP3    H233507   3.298   3.582   1.819 -0.9667 -1.3900 -0.3395
 4006TIP3   OH233508   5.994   3.720   4.657 -0.2325 -0.0541  0.4419
 4006TIP3    H133509   6.083   3.710   4.622 -0.8264  0.0230 -1.1680
 4006TIP3    H233510   6.004   3.778   4.733  1.0804 -0.0152  0.2548
 4007TIP3   OH233511   0.009   3.572   2.347  0.2108 -0.2485  0.5637
 4007TIP3    H133512  -0.016   3.610   2.263 -0.7165  0.0435  0.9535
 4007TIP3    H233513  -0.069   3.583   2.402  1.1861  0.6272  1.8194
 4008TIP3   OH233514   0.444   1.809  16.640  0.4075 -0.1036 -0.1126
 4008TIP3    H133515   0.418   1.781  16.553  1.4675 -0.4694 -0.3290
 4008TIP3    H233516   0.506   1.742  16.669 -0.9454 -0.7396  1.4848
 4009TIP3   OH233517   3.605   4.568   2.603 -0.3702  0.6220  0.4465
 4009TIP3    H133518   3.529   4.575   2.545 -0.3957  2.6420  0.6441
 4009TIP3    H233519   3.662   4.641   2.576 -0.4427  1.7385  2.9924
 4010TIP3   OH233520   6.630   0.536   2.855  0.1009 -0.0215 -0.2555
 4010TIP3    H133521   6.603   0.582   2.776  0.7415  0.2538 -0.3257
 4010TIP3    H233522   6.722   0.512   2.838  0.0782 -0.4362  0.1840
 4011TIP3   OH233523   0.422   6.607   2.801 -0.8636  0.5780 -0.3966
 4011TIP3    H133524   0.502   6.596   2.750 -1.0908  0.2307 -0.6811
 4011TIP3    H233525   0.403   6.520   2.836 -1.0855  0.6689 -0.2818
 4012TIP3   OH233526   6.120   2.277   1.808 -0.5016 -0.1620  0.4051
 4012TIP3    H133527   6.117   2.246   1.717 -1.4949  2.2360 -0.4724
 4012TIP3    H233528   6.054   2.346   1.812  1.2704  1.5812  2.2444
 4013TIP3   OH233529   3.076   0.434  10.794  0.4045 -0.3963 -0.1756
 4013TIP3    H133530   3.077   0.342  10.768  0.6759 -0.5352  0.3070
 4013TIP3    H233531   3.161   0.449  10.835  0.0408 -0.1644  0.5236
 4014TIP3   OH233532   1.448   5.572   4.283 -0.0991 -0.2670  0.3179
 4014TIP3    H133533   1.376   5.509   4.284 -0.0964 -0.2949 -0.6646
 4014TIP3    H233534   1.475   5.576   4.192  0.2687  0.7462  0.4605
 4015TIP3   OH233535   1.045   1.868   0.072 -0.1529 -0.2521  0.2381
 4015TIP3    H133536   1.004   1.796   0.023 -0.5206  1.2346 -1.7891
 4015TIP3    H233537   0.971   1.924   0.098  0.1871 -0.1714  1.0293
 4016TIP3   OH233538   0.011   5.757  12.222  0.1524 -0.2607 -0.3176
 4016TIP3    H133539   0.013   5.667  12.254 -1.2512 -0.5914 -1.0513
 4016TIP3    H233540   0.089   5.766  12.168  0.7241 -0.7670  0.4052
 4017TIP3   OH233541   3.212   6.148   1.703 -0.0128  0.9010 -0.1247
 4017TIP3    H133542   3.219   6.187   1.616  1.7086 -0.4817 -0.6866
 4017TIP3    H233543   3.256   6.211   1.760 -0.8992  1.6825 -0.2721
 4018TIP3   OH233544   4.595   2.196   5.694 -0.0423  0.0748  0.2952
 4018TIP3    H133545   4.664   2.214   5.758 -1.9752  1.7002  2.0781
 4018TIP3    H233546   4.598   2.271   5.635  0.2864 -0.3126 -0.1871
 4019TIP3   OH233547   0.965   3.718  11.528 -0.6992 -0.0506 -0.0523
 4019TIP3    H133548   0.992   3.636  11.569  1.6670  0.5068 -0.3469
 4019TIP3    H233549   0.895   3.751  11.583 -0.2979 -1.2663  1.2329
 4020TIP3   OH233550   5.776   3.125  13.842  0.2781 -0.4843 -0.0354
 4020TIP3    H133551   5.854   3.079  13.814  0.4274 -1.1705  1.4119
 4020TIP3    H233552   5.801   3.168  13.924 -0.6779 -0.1732  0.1088
 4021TIP3   OH233553   5.352   4.240   1.021  0.0960 -0.0790 -0.4210
 4021TIP3    H133554   5.330   4.162   0.969 -1.0148  0.4482 -0.7809
 4021TIP3    H233555   5.329   4.216   1.111 -3.7937  0.9739 -0.9529
 4022TIP3   OH233556   5.234   3.837  17.167  0.0766 -0.1327 -0.5217
 4022TIP3    H133557   5.183   3.917  17.156 -1.5277 -0.7338  1.8679
 4022TIP3    H233558   5.279   3.849  17.250  0.5705 -1.3428 -0.5976
 4023TIP3   OH233559   0.106   1.326  12.774 -0.0164 -0.3087  0.3553
 4023TIP3    H133560   0.181   1.266  12.778  0.3925  0.1165 -0.7527
 4023TIP3    H233561   0.119   1.376  12.694 -1.7174 -0.5260 -0.0853
 4024TIP3   OH233562   0.240   4.699  12.787 -0.5262  0.5758  0.4786
 4024TIP3    H133563   0.318   4.668  12.833 -1.6401  0.1139  2.1484
 4024TIP3    H233564   0.275   4.748  12.712  1.3442  0.0923  0.9624
 4025TIP3   OH233565   1.927   4.063  12.755  0.2436 -0.6587  0.0472
 4025TIP3    H133566   1.911   4.042  12.847  1.1816 -2.5907 -0.1902
 4025TIP3    H233567   1.864   4.010  12.707  0.4148 -0.4093 -0.4606
 4026TIP3   OH233568   0.221   1.770   4.898 -0.0799  0.6274 -0.1745
 4026TIP3    H133569   0.249   1.783   4.988  0.6437  1.6172 -0.5262
 4026TIP3    H233570   0.129   1.744   4.905 -0.3337  1.6969  0.8181
 4027TIP3   OH233571   1.987   2.559  14.760  0.1889 -0.2405 -0.0960
 4027TIP3    H133572   1.977   2.603  14.843 -0.9423  0.0702 -0.3789
 4027TIP3    H233573   2.081   2.542  14.752  0.4308  0.6761  0.7381
 4028TIP3   OH233574   3.226   3.658   2.251 -0.4954  0.4380 -0.1753
 4028TIP3    H133575   3.135   3.685   2.264 -0.1864  2.4319 -1.6685
 4028TIP3    H233576   3.272   3.686   2.329 -0.6900  1.9370 -0.5748
 4029TIP3   OH233577   4.424   0.413   4.961 -0.5253  0.0331 -0.9845
 4029TIP3    H133578   4.510   0.437   4.927 -0.2023 -0.1624 -0.3316
 4029TIP3    H233579   4.390   0.350   4.897 -0.8296  1.2215 -2.0207
 4030TIP3   OH233580   1.370   4.064  11.462 -0.2617 -0.2360  0.0725
 4030TIP3    H133581   1.350   3.970  11.468 -0.8122 -0.0095  2.9053
 4030TIP3    H233582   1.285   4.107  11.466  0.0502  0.4350 -0.3039
 4031TIP3   OH233583   1.185   5.670   4.579  0.1606 -0.1716 -0.2312
 4031TIP3    H133584   1.108   5.644   4.629  1.0008 -0.5639  0.9069
 4031TIP3    H233585   1.239   5.591   4.576  0.9925  0.3836 -0.1025
 4032TIP3   OH233586   0.790   1.246  16.363  0.0182 -0.1434  0.3694
 4032TIP3    H133587   0.850   1.305  16.409  0.4541 -0.8024  0.6624
 4032TIP3    H233588   0.747   1.196  16.433 -1.0272  0.4514  0.1780
 4033TIP3   OH233589   3.442   0.501   6.553  0.0372  0.3872 -0.2889
 4033TIP3    H133590   3.354   0.478   6.523 -0.4312  1.8198 -0.0821
 4033TIP3    H233591   3.435   0.500   6.649  0.5649 -0.6142 -0.2477
 4034TIP3   OH233592   4.019   0.665  13.885  0.2189 -0.7080  0.1855
 4034TIP3    H133593   3.962   0.721  13.833  1.0688  0.4884  0.4957
 4034TIP3    H233594   3.984   0.669  13.973  0.4747 -0.3936  0.2734
 4035TIP3   OH233595   6.348   2.611   1.136  0.6310  0.0515  0.3774
 4035TIP3    H133596   6.377   2.671   1.067  0.9140  0.4015  0.7934
 4035TIP3    H233597   6.416   2.618   1.203 -1.2424  2.2248  2.1886
 4036TIP3   OH233598   6.054   6.286  12.805  0.0880 -0.4507  0.4417
 4036TIP3    H133599   6.129   6.344  12.820 -0.8282  0.8605  0.0492
 4036TIP3    H233600   6.070   6.212  12.864  1.2804  0.1792  0.9535
 4037TIP3   OH233601   0.362   5.616   2.285 -0.3651 -0.5247  0.0768
 4037TIP3    H133602   0.330   5.589   2.371 -0.5945  0.7386  0.4178
 4037TIP3    H233603   0.297   5.680   2.254 -0.6302 -1.4273 -1.3328
 4038TIP3   OH233604   6.273   2.055   3.066  0.0498 -0.7119  0.0657
 4038TIP3    H133605   6.300   2.000   2.993 -0.8478 -0.4640 -0.4693
 4038TIP3    H233606   6.349   2.113   3.081  0.3828 -1.0108 -0.4196
 4039TIP3   OH233607   3.667   3.388  10.788 -0.3823  0.1583  0.6775
 4039TIP3    H133608   3.754   3.353  10.809  0.2818  1.1265 -0.3254
 4039TIP3    H233609   3.608   3.344  10.849  0.8881 -0.0998  1.7745
 4040TIP3   OH233610   0.373   2.105   5.267 -0.0566 -0.2622  0.4024
 4040TIP3    H133611   0.283   2.135   5.279 -1.0359 -2.5495 -0.6478
 4040TIP3    H233612   0.407   2.095   5.355 -0.3684  1.8182  0.8027
 4041TIP3   OH233613   0.079   2.766  16.278 -0.4741 -0.1608 -0.5213
 4041TIP3    H133614   0.052   2.681  16.242 -1.0431 -1.0742  1.9207
 4041TIP3    H233615  -0.001   2.804  16.312  0.0751  0.6034 -0.0673
 4042TIP3   OH233616   2.856   5.958  11.127  0.2088  0.7099 -0.1916
 4042TIP3    H133617   2.918   6.022  11.091  0.0932  3.5196  3.9482
 4042TIP3    H233618   2.790   5.947  11.058  1.3832  3.4348 -1.9117
 4043TIP3   OH233619   3.425   5.010   4.558  0.2443  0.0196  0.8797
 4043TIP3    H133620   3.485   4.977   4.492 -0.8192  1.9596 -1.1919
 4043TIP3    H233621   3.401   5.097   4.528 -2.8519 -0.2754  2.0646
 4044TIP3   OH233622   3.087   1.888  12.063 -0.0390  0.0388  0.1341
 4044TIP3    H133623   3.114   1.843  11.983 -1.3349  1.0203 -0.9020
 4044TIP3    H233624   2.997   1.859  12.078  0.3097 -0.4332  1.4910
 4045TIP3   OH233625   3.581   2.710   1.364 -0.4344  0.8636  0.2157
 4045TIP3    H133626   3.630   2.636   1.328  0.4436  0.7210  1.6267
 4045TIP3    H233627   3.647   2.763   1.410 -1.0734  2.4393 -0.5894
 4046TIP3   OH233628   5.487   2.068   5.548  0.3250  0.0558  0.5985
 4046TIP3    H133629   5.555   2.054   5.482 -0.3809 -0.0140 -0.1297
 4046TIP3    H233630   5.518   2.019   5.625  0.7278 -0.6275  0.0168
 4047TIP3   OH233631   1.518   0.107  12.308 -0.3505 -0.3657 -0.4016
 4047TIP3    H133632   1.611   0.128  12.295 -0.0165 -1.1950  0.5190
 4047TIP3    H233633   1.500   0.038  12.245 -0.3523 -0.1889 -0.5967
 4048TIP3   OH233634   1.448   3.343  13.227  0.2077 -0.1072  0.3354
 4048TIP3    H133635   1.540   3.324  13.212  0.2377  1.6265 -2.5543
 4048TIP3    H233636   1.438   3.341  13.322  3.1139 -0.7163  0.7221
 4049TIP3   OH233637   1.797   0.114  13.470  0.4298 -0.3131  0.1236
 4049TIP3    H133638   1.859   0.075  13.533 -0.4596 -1.0090  0.5978
 4049TIP3    H233639   1.807   0.061  13.391  0.0880 -0.7536  0.3688
 4050TIP3   OH233640   1.850   2.112   1.566  0.0048 -0.4878  0.1230
 4050TIP3    H133641   1.937   2.144   1.543 -0.0097 -0.5717 -0.0492
 4050TIP3    H233642   1.792   2.151   1.500  0.2066 -2.1871 -1.1146
 4051TIP3   OH233643   0.328   6.031  12.877  0.0113 -0.0668  0.0158
 4051TIP3    H133644   0.397   6.082  12.920  0.3194  0.8917 -1.5298
 4051TIP3    H233645   0.265   6.096  12.846 -2.1390 -0.9739  2.1706
 4052TIP3   OH233646   3.743   3.211   4.219 -0.0378 -0.6670 -0.3749
 4052TIP3    H133647   3.823   3.196   4.169 -0.1151  0.0809 -0.7266
 4052TIP3    H233648   3.681   3.246   4.156 -0.6966 -1.3741 -0.1385
 4053TIP3   OH233649   0.726   2.177  10.728 -0.0136  0.8057  0.4597
 4053TIP3    H133650   0.812   2.145  10.756 -0.5868 -0.0435  1.3385
 4053TIP3    H233651   0.701   2.240  10.796  1.0495  3.1866 -1.1881
 4054TIP3   OH233652   4.775   0.309  12.190 -0.7923  0.4769  0.3715
 4054TIP3    H133653   4.680   0.304  12.180 -0.6264  0.5010 -1.5210
 4054TIP3    H233654   4.805   0.219  12.178 -0.3589  0.9065 -2.1686
 4055TIP3   OH233655   3.383   4.477  16.526 -0.5893  0.0416 -0.7114
 4055TIP3    H133656   3.346   4.429  16.452 -2.7550 -0.9781  0.9210
 4055TIP3    H233657   3.447   4.417  16.564 -2.4085 -1.1883  0.5855
 4056TIP3   OH233658   5.953   6.510  16.021  0.3906  0.1965 -0.2168
 4056TIP3    H133659   6.022   6.489  15.958  0.6236  2.0930 -0.6319
 4056TIP3    H233660   5.969   6.601  16.046 -0.6140 -0.0357  1.4296
 4057TIP3   OH233661   0.865   6.780  15.897 -0.2394 -0.1923  0.3326
 4057TIP3    H133662   0.794   6.803  15.958 -1.6095  0.5600 -1.4301
 4057TIP3    H233663   0.919   6.859  15.893 -0.1608 -0.2342  0.5428
 4058TIP3   OH233664   5.417   6.591   3.879 -0.2814  0.0948  0.3022
 4058TIP3    H133665   5.468   6.518   3.843  1.3651  0.9975  0.6792
 4058TIP3    H233666   5.326   6.562   3.873  0.3617 -2.6041  1.7752
 4059TIP3   OH233667   1.039   5.463  14.634  0.0003 -0.5367  0.0428
 4059TIP3    H133668   1.099   5.389  14.640 -0.9572 -1.2875  0.5427
 4059TIP3    H233669   1.037   5.500  14.722 -0.3703 -0.5963  0.0598
 4060TIP3   OH233670   1.596   1.440  14.362  0.4153  0.5734  0.5540
 4060TIP3    H133671   1.536   1.392  14.306  0.4057 -1.0986  1.9012
 4060TIP3    H233672   1.552   1.523  14.380 -0.9369 -0.1070  0.5028
 4061TIP3   OH233673   5.895   0.262   4.676  0.4834 -0.0366 -0.2326
 4061TIP3    H133674   5.977   0.287   4.633 -0.6332  0.4019 -2.2027
 4061TIP3    H233675   5.848   0.210   4.611  0.0344 -2.0730  1.5855
 4062TIP3   OH233676   2.676   2.458   3.113  0.4029 -0.2265 -0.4505
 4062TIP3    H133677   2.596   2.501   3.144 -0.0019 -0.4242 -1.1966
 4062TIP3    H233678   2.670   2.463   3.018  0.4672 -1.7112 -0.5507
 4063TIP3   OH233679   2.235   3.519   2.366  0.1496 -0.2307 -0.1782
 4063TIP3    H133680   2.279   3.595   2.406  1.3998 -0.8825 -0.2586
 4063TIP3    H233681   2.268   3.518   2.276 -0.7189 -0.2388 -0.5033
 4064TIP3   OH233682   2.589   1.236  15.006  0.4527 -0.3039 -0.4401
 4064TIP3    H133683   2.679   1.204  15.007  1.2057  1.5171  2.4481
 4064TIP3    H233684   2.590   1.310  14.945  0.7250 -0.6907 -0.9106
 4065TIP3   OH233685   4.110   0.205   5.293 -0.3236  0.4131  0.1470
 4065TIP3    H133686   4.143   0.285   5.333  0.6023  0.6731 -1.0738
 4065TIP3    H233687   4.015   0.219   5.288 -0.5334  0.2161  2.4795
 4066TIP3   OH233688   3.763   6.312  13.607 -0.2224  0.2748  0.9811
 4066TIP3    H133689   3.681   6.332  13.650 -1.0737 -1.0492  0.0585
 4066TIP3    H233690   3.738   6.259  13.531  1.3671  0.9882 -0.0908
 4067TIP3   OH233691   0.677   3.075  12.442 -0.1779  0.0221  0.5563
 4067TIP3    H133692   0.703   3.056  12.532 -3.2226 -0.0832  1.5267
 4067TIP3    H233693   0.727   3.153  12.418  1.9997 -0.9583  1.6419
 4068TIP3   OH233694   0.750   3.147  12.140  0.2311 -0.7922 -0.3193
 4068TIP3    H133695   0.841   3.176  12.135 -0.1845  1.0268  1.1894
 4068TIP3    H233696   0.699   3.228  12.128 -1.1286 -1.4653  0.7029
 4069TIP3   OH233697   2.655   5.117  13.038  0.0518  0.0361  0.0311
 4069TIP3    H133698   2.574   5.148  13.080  0.7948  1.7013  0.3204
 4069TIP3    H233699   2.708   5.084  13.111  0.1172  0.0923  0.0094
 4070TIP3   OH233700   0.013   2.995  10.619  0.0378 -0.2022 -0.2602
 4070TIP3    H133701  -0.062   2.974  10.674 -0.8759 -0.5129 -1.5624
 4070TIP3    H233702   0.039   3.083  10.645 -0.8105 -0.0707  0.1764
 4071TIP3   OH233703   0.963   5.061   5.330  0.5554 -0.1149  0.6050
 4071TIP3    H133704   0.969   5.034   5.238 -2.4856 -0.8074  0.5136
 4071TIP3    H233705   0.956   4.980   5.379  0.1153  0.2949  1.2353
 4072TIP3   OH233706   2.869   3.368  10.922  0.2653  0.4638  0.6350
 4072TIP3    H133707   2.916   3.368  10.839 -1.7391  0.5158 -0.5565
 4072TIP3    H233708   2.931   3.327  10.984  1.7301  0.2419 -0.8930
 4073TIP3   OH233709   0.619   6.336   4.585 -0.0096  0.0047 -0.6005
 4073TIP3    H133710   0.531   6.355   4.551 -0.9844 -1.8605  0.7038
 4073TIP3    H233711   0.605   6.269   4.651  2.1640  1.2168  1.2452
 4074TIP3   OH233712   6.006   1.970   1.020  0.0654  0.1401 -0.2400
 4074TIP3    H133713   5.939   1.976   0.952 -0.3192 -1.2679 -0.0067
 4074TIP3    H233714   5.966   1.918   1.089  0.9312  0.4121  0.4788
 4075TIP3   OH233715   0.440   5.685  15.277  0.0142  0.1137  0.0196
 4075TIP3    H133716   0.486   5.692  15.361 -1.4024 -1.3688  0.9926
 4075TIP3    H233717   0.407   5.773  15.261  3.0364  1.2512 -0.7162
 4076TIP3   OH233718   5.586   5.833   4.290 -0.1939 -0.4897  0.7656
 4076TIP3    H133719   5.544   5.918   4.277  1.3554  0.2111  0.1104
 4076TIP3    H233720   5.560   5.781   4.214  1.1739  0.4076 -0.3685
 4077TIP3   OH233721   4.917   2.958  12.215 -0.0167 -0.2901 -1.0040
 4077TIP3    H133722   4.914   2.888  12.280  0.0399  0.4388 -0.1879
 4077TIP3    H233723   4.939   2.914  12.133  3.1471 -0.8772  0.0216
 4078TIP3   OH233724   2.838   4.307  15.662 -0.2185 -0.5891 -0.0787
 4078TIP3    H133725   2.893   4.374  15.622 -1.9662  0.8472 -0.2176
 4078TIP3    H233726   2.871   4.298  15.752 -1.6163  2.6170  0.9045
 4079TIP3   OH233727   1.316   2.300  16.754 -0.4364  0.1649 -0.3304
 4079TIP3    H133728   1.337   2.224  16.809  0.5918  1.3945  1.0949
 4079TIP3    H233729   1.229   2.327  16.782 -1.7058 -1.6356 -2.2894
 4080TIP3   OH233730   1.280   2.584  14.720  0.3709  0.0537 -0.1444
 4080TIP3    H133731   1.213   2.517  14.704  1.4429 -0.6602 -1.9467
 4080TIP3    H233732   1.244   2.638  14.791 -1.2757 -1.3985  0.1826
 4081TIP3   OH233733   4.443   0.410  11.886 -0.0889  0.3823  0.2364
 4081TIP3    H133734   4.354   0.442  11.871  0.4718  1.9663  0.0813
 4081TIP3    H233735   4.480   0.400  11.798 -0.6409 -2.0336  0.1993
 4082TIP3   OH233736   0.092   6.186   3.554 -0.6402 -0.1549 -0.2263
 4082TIP3    H133737   0.027   6.207   3.622 -0.1632  2.1146 -0.3866
 4082TIP3    H233738   0.101   6.267   3.504  3.1257  0.0057  0.4717
 4083TIP3   OH233739   1.551   0.065   3.032  0.1546 -0.5699 -0.5458
 4083TIP3    H133740   1.538  -0.019   3.076 -0.0217 -0.4625 -0.3877
 4083TIP3    H233741   1.646   0.073   3.022  0.4381  0.5034  2.0429
 4084TIP3   OH233742   0.872   3.500   5.068 -0.5233  0.6180 -0.0769
 4084TIP3    H133743   0.785   3.525   5.100 -1.0277 -0.3204 -0.6648
 4084TIP3    H233744   0.863   3.500   4.972 -0.9966 -3.0762 -0.1517
 4085TIP3   OH233745   2.334   4.672  13.732 -0.2197 -0.4052  0.4485
 4085TIP3    H133746   2.402   4.733  13.705  0.2194 -0.7749  0.7022
 4085TIP3    H233747   2.300   4.635  13.651  1.0854 -1.5114  0.3753
 4086TIP3   OH233748   1.879   6.339   4.365  0.4823  0.1549 -0.0999
 4086TIP3    H133749   1.860   6.263   4.420 -2.4769  0.2548 -0.8097
 4086TIP3    H233750   1.907   6.301   4.281 -2.9767 -0.3747 -1.1494
 4087TIP3   OH233751   5.255   2.647   1.534  0.2077  0.5630 -0.0623
 4087TIP3    H133752   5.334   2.644   1.587  0.4176  1.1831 -0.3356
 4087TIP3    H233753   5.235   2.555   1.516  0.0225  0.3400  1.2398
 4088TIP3   OH233754   4.514   0.301  12.124 -0.3556  0.3295  0.3118
 4088TIP3    H133755   4.497   0.347  12.041  0.2793  0.2889  0.1568
 4088TIP3    H233756   4.452   0.228  12.123 -0.0399  0.0618 -0.3433
 4089TIP3   OH233757   2.393   3.396   2.874 -0.4534 -0.0408  0.7108
 4089TIP3    H133758   2.454   3.346   2.819  0.6066  0.0470  1.7694
 4089TIP3    H233759   2.395   3.351   2.958 -3.1071 -1.0137  0.3739
 4090TIP3   OH233760   3.570   3.620  14.272  0.2485  0.2363 -0.2335
 4090TIP3    H133761   3.491   3.596  14.322  1.1617 -1.2570  0.5587
 4090TIP3    H233762   3.569   3.561  14.197  0.5575  0.2943 -0.2813
 4091TIP3   OH233763   2.778   4.217   1.091  0.3991  0.2252 -0.7056
 4091TIP3    H133764   2.803   4.161   1.018  1.0200  0.3746 -0.6110
 4091TIP3    H233765   2.740   4.294   1.050 -2.4409 -1.1157 -0.8250
 4092TIP3   OH233766   5.650   5.446  10.855  0.4218  0.4666 -0.1874
 4092TIP3    H133767   5.590   5.401  10.915 -0.7395  1.0433 -0.8788
 4092TIP3    H233768   5.711   5.492  10.912  0.3654 -0.3365  0.5354
 4093TIP3   OH233769   3.562   0.253   4.301 -0.3160  0.1193  0.1631
 4093TIP3    H133770   3.554   0.169   4.255  0.0756  0.2004 -0.0614
 4093TIP3    H233771   3.559   0.319   4.231  0.3592  0.2405  0.2417
 4094TIP3   OH233772   3.878   4.698   1.416 -0.4505 -0.2348  0.2137
 4094TIP3    H133773   3.889   4.642   1.339 -0.0319  0.9928 -0.6401
 4094TIP3    H233774   3.908   4.643   1.489  1.3186 -0.6736 -0.7665
 4095TIP3   OH233775   2.075   0.518  15.859  0.2534  0.3717 -0.1914
 4095TIP3    H133776   2.065   0.608  15.890  0.7867  0.4975 -0.3711
 4095TIP3    H233777   2.061   0.523  15.764  0.3763  0.2793 -0.2146
 4096TIP3   OH233778   0.072   3.222   0.873  0.5855  0.4880 -0.2113
 4096TIP3    H133779   0.060   3.269   0.955  0.3436  0.4022 -0.1949
 4096TIP3    H233780   0.002   3.156   0.874  0.6645  0.4023 -0.4237
 4097TIP3   OH233781   4.176   4.109   4.768  0.6742  0.5562 -0.1326
 4097TIP3    H133782   4.140   4.087   4.682 -1.6442 -3.5467  1.6362
 4097TIP3    H233783   4.124   4.184   4.797 -1.6238 -0.7577 -0.6091
 4098TIP3   OH233784   2.521   4.779  14.996 -0.3274 -0.0143  0.0647
 4098TIP3    H133785   2.493   4.870  15.005  1.0998  0.4040  0.4985
 4098TIP3    H233786   2.616   4.783  15.000 -0.2249 -1.4646 -0.6092
 4099TIP3   OH233787   2.248   5.181   5.870 -0.2017 -0.1922 -0.4229
 4099TIP3    H133788   2.268   5.087   5.865  1.9501  0.1984 -0.3599
 4099TIP3    H233789   2.318   5.217   5.924  0.3765  1.7948 -2.3599
 4100TIP3   OH233790   0.639   0.073   1.411 -0.4751  0.4644  0.8926
 4100TIP3    H133791   0.609   0.119   1.332  2.0496  1.9306  0.6902
 4100TIP3    H233792   0.658  -0.016   1.381 -0.3772  0.7599  0.0502
 4101TIP3   OH233793   4.162   3.760  14.826 -0.3871  0.5179  0.2757
 4101TIP3    H133794   4.073   3.766  14.793 -0.5050 -1.3756  0.1770
 4101TIP3    H233795   4.167   3.675  14.868  1.3318  0.6538  0.4282
 4102TIP3   OH233796   2.159   6.432   1.003  0.1466 -0.5163  0.0089
 4102TIP3    H133797   2.204   6.473   1.077 -1.1887  0.4299  0.3164
 4102TIP3    H233798   2.176   6.490   0.929 -1.6949  0.6362  0.4317
 4103TIP3   OH233799   0.162   6.398  13.097  0.1310 -0.1941  0.0833
 4103TIP3    H133800   0.197   6.363  13.179 -1.2054  1.9432  1.6831
 4103TIP3    H233801   0.072   6.366  13.094 -0.4815  1.3614  0.5737
 4104TIP3   OH233802   0.726   5.703   5.525 -1.0879 -0.0792 -0.0701
 4104TIP3    H133803   0.754   5.613   5.506 -0.4147  0.0846  0.0957
 4104TIP3    H233804   0.631   5.702   5.512 -0.9352 -0.4999 -1.3513
 4105TIP3   OH233805   2.133   1.983  15.879 -0.0763  0.4409 -0.1122
 4105TIP3    H133806   2.199   2.053  15.877 -0.6737  1.0176 -1.7648
 4105TIP3    H233807   2.179   1.906  15.847  0.0523  0.6106 -0.3442
 4106TIP3   OH233808   4.909   3.336  12.147 -0.2082 -0.0096 -0.1295
 4106TIP3    H133809   4.826   3.328  12.099  0.6373  0.2081 -1.6707
 4106TIP3    H233810   4.966   3.269  12.108 -0.3631 -1.8581  2.5597
 4107TIP3   OH233811   1.358   1.088   4.438  0.1185 -0.0747  0.6153
 4107TIP3    H133812   1.435   1.038   4.410 -0.5962 -0.0928 -1.4263
 4107TIP3    H233813   1.284   1.029   4.423 -0.6411  1.2081 -0.9127
 4108TIP3   OH233814   2.493   5.239  14.209 -0.1159 -0.0899 -0.4340
 4108TIP3    H133815   2.437   5.162  14.200 -0.5406  0.1088  0.3791
 4108TIP3    H233816   2.534   5.230  14.295 -0.5588  0.8183 -0.1030
 4109TIP3   OH233817   2.962   4.779   5.387  0.4954 -0.1367 -1.1417
 4109TIP3    H133818   2.998   4.868   5.386  0.3673 -0.0802 -0.8161
 4109TIP3    H233819   2.952   4.758   5.480  1.8304 -1.0241 -1.1757
 4110TIP3   OH233820   1.510   3.945  15.592  0.1681  0.1046  0.3077
 4110TIP3    H133821   1.548   3.884  15.656 -0.7786  2.3952  3.2548
 4110TIP3    H233822   1.553   4.028  15.609 -0.2563  0.8804 -2.0054
 4111TIP3   OH233823   3.713   3.763  14.649  0.5106  0.1005  0.4317
 4111TIP3    H133824   3.685   3.838  14.596  0.7625 -0.0676  0.0511
 4111TIP3    H233825   3.637   3.743  14.703 -0.1783 -0.4430 -0.6942
 4112TIP3   OH233826   5.842   3.737  11.151 -0.7273 -0.1832  0.2232
 4112TIP3    H133827   5.935   3.730  11.130 -0.8500  0.6762 -0.6933
 4112TIP3    H233828   5.807   3.651  11.129 -0.2445 -0.3450  0.0598
 4113TIP3   OH233829   5.675   2.967   4.982  0.4132 -0.2247 -0.2808
 4113TIP3    H133830   5.712   2.927   4.903  0.6844  0.0589 -0.3019
 4113TIP3    H233831   5.732   2.937   5.053 -0.1807 -0.9584 -0.1042
 4114TIP3   OH233832   0.110   1.583   0.549  0.7461  0.3869 -0.2866
 4114TIP3    H133833   0.029   1.619   0.513  1.2959  0.4932 -1.4344
 4114TIP3    H233834   0.179   1.613   0.490  1.5864 -0.0501  0.4417
 4115TIP3   OH233835   6.404   5.079   0.432  0.6571 -0.2584  0.0475
 4115TIP3    H133836   6.461   5.128   0.373  3.4888 -1.1880  1.7461
 4115TIP3    H233837   6.408   4.989   0.399  1.1645 -0.5312  0.8101
 4116TIP3   OH233838   0.596   5.011  14.293  0.0159  0.2203 -0.4977
 4116TIP3    H133839   0.577   5.088  14.346 -0.9696 -1.8641  2.5200
 4116TIP3    H233840   0.690   4.999  14.299  0.0561  0.6889 -0.2029
 4117TIP3   OH233841   0.959   3.168  11.253 -0.1529 -0.3921  0.2800
 4117TIP3    H133842   0.973   3.262  11.257  1.4336 -0.5276 -1.1096
 4117TIP3    H233843   1.027   3.131  11.311  1.1649 -0.7742 -1.4370
 4118TIP3   OH233844   1.278   5.528  16.441  0.2901  0.7670 -0.2084
 4118TIP3    H133845   1.197   5.506  16.486  0.3041 -1.3397 -1.1132
 4118TIP3    H233846   1.250   5.562  16.355  0.3451 -0.3294 -0.6733
 4119TIP3   OH233847   4.495   3.432   5.428 -0.0799  0.1217 -0.0016
 4119TIP3    H133848   4.580   3.427   5.473 -0.2736 -0.1622  0.3395
 4119TIP3    H233849   4.443   3.491   5.482 -0.8166 -1.3701  1.0148
 4120TIP3   OH233850   4.845   0.735  12.787  0.1476  0.0908  0.1513
 4120TIP3    H133851   4.893   0.768  12.711 -0.8535  0.3524 -0.3806
 4120TIP3    H233852   4.753   0.749  12.765 -0.1503  0.4904  1.5536
 4121TIP3   OH233853   5.724   4.519  13.884  0.2740 -0.1211  0.3762
 4121TIP3    H133854   5.783   4.466  13.831 -1.0979 -0.7028 -0.6362
 4121TIP3    H233855   5.658   4.457  13.915 -0.4779  0.7153  0.4929
 4122TIP3   OH233856   6.492   0.773   0.187 -0.7351  0.5791  0.4621
 4122TIP3    H133857   6.502   0.787   0.281 -0.4438 -1.2646  0.7350
 4122TIP3    H233858   6.402   0.743   0.177 -0.7687  0.7802  0.1399
 4123TIP3   OH233859   1.263   5.929  14.570  0.1268 -0.5463 -0.5673
 4123TIP3    H133860   1.330   5.873  14.608 -2.5550 -2.5155  1.6616
 4123TIP3    H233861   1.196   5.869  14.539 -1.7470  1.3629 -0.4624
 4124TIP3   OH233862   5.764   2.258  14.443 -0.4312 -0.8641  0.0126
 4124TIP3    H133863   5.766   2.298  14.356 -0.5534 -2.1669 -0.6122
 4124TIP3    H233864   5.815   2.177  14.434 -2.6171 -2.3896  0.4328
 4125TIP3   OH233865   1.237   2.187  11.696 -0.0618  0.5027  0.4862
 4125TIP3    H133866   1.294   2.253  11.735  0.2459  0.2427  0.4759
 4125TIP3    H233867   1.291   2.109  11.691  0.1408  0.7194 -1.1181
 4126TIP3   OH233868   3.578   1.543   1.644  0.0553 -0.1214 -0.1285
 4126TIP3    H133869   3.668   1.576   1.649 -0.0159  0.1053 -0.3748
 4126TIP3    H233870   3.558   1.540   1.551  0.3105 -1.5414 -0.1589
 4127TIP3   OH233871   4.982   1.184   1.033 -0.6587  0.7029  0.3849
 4127TIP3    H133872   5.046   1.130   1.079  0.6040  2.2397  0.4844
 4127TIP3    H233873   4.995   1.163   0.940 -2.9211 -2.0786  0.5276
 4128TIP3   OH233874   5.613   5.972   5.377  0.7307  0.1568  0.1153
 4128TIP3    H133875   5.688   5.958   5.433  0.6121 -0.1747  0.1899
 4128TIP3    H233876   5.548   6.013   5.433  0.2203 -1.1419  0.5077
 4129TIP3   OH233877   3.706   1.276  15.155 -0.0684 -0.7621  0.2722
 4129TIP3    H133878   3.650   1.232  15.090 -2.8174  0.3153  1.7593
 4129TIP3    H233879   3.645   1.325  15.210  2.4556  1.1604  1.5687
 4130TIP3   OH233880   2.315   3.497  11.645 -0.3235  0.0121 -0.7503
 4130TIP3    H133881   2.298   3.403  11.640 -0.1434 -0.2615  2.0747
 4130TIP3    H233882   2.409   3.505  11.626  0.5588 -0.9427  2.6133
 4131TIP3   OH233883   6.589   1.570   5.949 -0.1481 -0.4880  0.2904
 4131TIP3    H133884   6.522   1.610   6.003 -0.8336  0.3317 -1.1208
 4131TIP3    H233885   6.668   1.623   5.964 -0.9414  1.2708 -1.2552
 4132TIP3   OH233886   4.760   5.523  16.511 -0.1208  0.1460 -0.3839
 4132TIP3    H133887   4.715   5.446  16.474 -0.4897 -0.2619  0.8790
 4132TIP3    H233888   4.713   5.541  16.592  2.7984 -1.1305  1.7686
 4133TIP3   OH233889   2.653   4.012   3.203  0.3367  0.3163  0.2229
 4133TIP3    H133890   2.588   4.036   3.269  0.8445 -0.5673  1.0625
 4133TIP3    H233891   2.605   4.017   3.120 -0.5107  0.7079  0.7152
 4134TIP3   OH233892   0.627   3.511   0.824  0.0367 -0.3697 -0.3249
 4134TIP3    H133893   0.595   3.592   0.865 -1.2239 -0.4161 -1.1540
 4134TIP3    H233894   0.637   3.535   0.731  1.5601 -0.6337 -0.2550
 4135TIP3   OH233895   0.615   5.782   2.192 -0.0649 -0.2098  0.0489
 4135TIP3    H133896   0.526   5.819   2.190  0.5225  1.3636  0.8972
 4135TIP3    H233897   0.615   5.722   2.266 -0.3455  0.0117  0.2284
 4136TIP3   OH233898   0.924   2.949  15.635  0.2151  0.1483  0.0975
 4136TIP3    H133899   0.930   2.968  15.541  1.4548  1.2492  0.3595
 4136TIP3    H233900   0.940   2.855  15.642  0.1584  0.0643 -0.7788
 4137TIP3   OH233901   3.207   1.278  13.264 -0.4315 -0.2203 -0.4578
 4137TIP3    H133902   3.257   1.204  13.231  0.9572  0.4857 -0.0383
 4137TIP3    H233903   3.150   1.241  13.332  1.1449 -0.7316  0.6359
 4138TIP3   OH233904   5.532   3.885   2.356 -0.3357 -0.2136 -0.2832
 4138TIP3    H133905   5.455   3.865   2.303  0.7654 -0.4570 -1.8525
 4138TIP3    H233906   5.580   3.950   2.305 -0.0853  0.8470  1.2386
 4139TIP3   OH233907   6.708   1.456   3.136  0.3559  0.1948  0.1847
 4139TIP3    H133908   6.744   1.489   3.054  0.0776 -1.0455 -0.4559
 4139TIP3    H233909   6.614   1.453   3.121  0.4176 -1.5239 -0.0463
 4140TIP3   OH233910   0.497   5.280   2.675  0.9703 -0.1923 -0.0375
 4140TIP3    H133911   0.489   5.344   2.604 -0.3576 -2.0458 -1.6582
 4140TIP3    H233912   0.408   5.271   2.709  0.8091 -2.2161 -0.8587
 4141TIP3   OH233913   1.602   4.983  14.994 -0.0826  0.1520  0.0766
 4141TIP3    H133914   1.642   5.065  14.964 -1.5717  0.2014 -1.9842
 4141TIP3    H233915   1.643   4.916  14.940  0.0029 -0.2922  0.6835
 4142TIP3   OH233916   0.350   5.631   0.353 -0.1397  0.2567  0.3638
 4142TIP3    H133917   0.425   5.620   0.410 -1.0713 -2.1214  1.2395
 4142TIP3    H233918   0.274   5.634   0.412 -0.9871 -0.5994 -0.6371
 4143TIP3   OH233919   1.133   3.241  10.762  0.2952  0.2384 -0.2892
 4143TIP3    H133920   1.162   3.153  10.739  3.4054  0.2262  2.6843
 4143TIP3    H233921   1.044   3.229  10.795  0.0827 -1.5016 -1.3476
 4144TIP3   OH233922   1.867   6.542   1.862 -0.5007  0.3158 -0.3066
 4144TIP3    H133923   1.954   6.501   1.860 -0.8827 -1.2633  4.0103
 4144TIP3    H233924   1.883   6.627   1.904 -0.9200  0.2761 -0.0596
 4145TIP3   OH233925   4.995   4.218   0.059 -0.1966  0.1271  0.3563
 4145TIP3    H133926   4.964   4.152  -0.003  0.8801 -0.7985  0.7718
 4145TIP3    H233927   4.995   4.299   0.009 -0.1804 -0.4441 -0.6062
 4146TIP3   OH233928   5.331   1.459  12.228 -0.2649  0.2046 -0.2625
 4146TIP3    H133929   5.366   1.375  12.196  0.9583  0.5874  0.0279
 4146TIP3    H233930   5.402   1.521  12.214  0.1905  0.4833  2.7578
 4147TIP3   OH233931   0.633   2.330   6.193  0.3856  0.8951  0.2660
 4147TIP3    H133932   0.670   2.259   6.245 -0.8592 -0.9671 -1.2603
 4147TIP3    H233933   0.676   2.409   6.226  1.5967 -0.5094  2.2320
 4148TIP3   OH233934   1.153   3.753  13.458 -0.2088  0.4591  0.6692
 4148TIP3    H133935   1.084   3.694  13.428 -0.6143  0.5964  1.3174
 4148TIP3    H233936   1.212   3.698  13.509 -0.6686  0.6272  1.4022
 4149TIP3   OH233937   1.168   1.058   0.861  0.0664  0.4305 -0.1061
 4149TIP3    H133938   1.087   1.055   0.811  0.6700 -0.6153 -1.0591
 4149TIP3    H233939   1.142   1.035   0.950 -1.1244  2.9491  0.2795
 4150TIP3   OH233940   3.379   0.784  16.725 -0.0593 -0.2782  0.2550
 4150TIP3    H133941   3.364   0.736  16.807  1.2268 -1.9061 -0.4038
 4150TIP3    H233942   3.307   0.757  16.668  0.5095 -1.2574 -0.0207
 4151TIP3   OH233943   3.562   0.092   5.806 -0.1747  0.4797  0.0341
 4151TIP3    H133944   3.655   0.086   5.826 -0.1603 -0.8591 -0.3027
 4151TIP3    H233945   3.519   0.097   5.891  0.1574 -0.0215  0.2386
 4152TIP3   OH233946   4.108   3.766  17.347  0.3436 -0.2879 -0.1874
 4152TIP3    H133947   4.027   3.810  17.322 -0.5022 -1.3908  0.5227
 4152TIP3    H233948   4.130   3.711  17.272 -1.2463 -2.2723  0.7106
 4153TIP3   OH233949   6.258   4.184  16.744 -0.0180  0.2134  0.1516
 4153TIP3    H133950   6.169   4.161  16.771  0.1879  0.2058  0.8647
 4153TIP3    H233951   6.258   4.177  16.649 -0.6432 -0.2867  0.1860
 4154TIP3   OH233952   1.086   4.512   1.141  0.1707  0.0584  0.4735
 4154TIP3    H133953   1.133   4.575   1.196  1.0355  0.5295 -0.7637
 4154TIP3    H233954   1.107   4.427   1.180 -0.5317  0.4741  1.8070
 4155TIP3   OH233955   4.006   1.898   4.220 -0.1582 -0.1716  0.0330
 4155TIP3    H133956   3.995   1.809   4.256 -1.1698 -1.0155 -2.1806
 4155TIP3    H233957   4.091   1.926   4.253 -1.1749 -0.6150  3.4331
 4156TIP3   OH233958   6.175   4.565  13.045 -0.2129  0.5845 -0.4005
 4156TIP3    H133959   6.098   4.512  13.025  1.1034 -2.3159  1.4922
 4156TIP3    H233960   6.241   4.536  12.983 -0.0092  1.4464 -0.5945
 4157TIP3   OH233961   3.778   5.732   5.053 -0.5644 -0.3246  0.4977
 4157TIP3    H133962   3.744   5.810   5.099 -0.1057  0.1044  0.1220
 4157TIP3    H233963   3.709   5.667   5.063 -1.7124  0.6527 -0.6123
 4158TIP3   OH233964   3.717   0.374   5.007  0.5330 -0.2377 -0.0740
 4158TIP3    H133965   3.652   0.430   5.049  2.2337  0.4573  1.7891
 4158TIP3    H233966   3.748   0.426   4.933 -0.4503 -0.2668 -0.5284
 4159TIP3   OH233967   4.301   5.589  12.479  0.0053  0.3941  0.3103
 4159TIP3    H133968   4.320   5.683  12.477  1.6112  0.0853 -0.6372
 4159TIP3    H233969   4.351   5.553  12.406 -2.0216 -0.9658 -0.5223
 4160TIP3   OH233970   3.758   4.288  10.439  0.3795 -0.2044 -0.0863
 4160TIP3    H133971   3.795   4.373  10.413  1.6142 -0.7992 -0.3748
 4160TIP3    H233972   3.827   4.248  10.492  0.3321 -1.5292 -0.9786
 4161TIP3   OH233973   0.379   4.825  10.992  0.1604 -0.9460 -0.8117
 4161TIP3    H133974   0.397   4.906  10.944 -0.8377 -0.7204 -0.8484
 4161TIP3    H233975   0.456   4.771  10.979  1.7607  0.7594  0.8746
 4162TIP3   OH233976   6.134   6.208   4.092 -0.7733  0.5728 -0.8415
 4162TIP3    H133977   6.119   6.300   4.071 -1.0836  0.7710  0.2278
 4162TIP3    H233978   6.050   6.166   4.075 -0.3148  0.2433 -2.4947
 4163TIP3   OH233979   0.267   3.442  11.457 -0.9552 -0.3201  0.0022
 4163TIP3    H133980   0.267   3.395  11.373  0.3455  0.1461 -0.2798
 4163TIP3    H233981   0.329   3.393  11.511  1.4091  1.6843 -0.7076
 4164TIP3   OH233982   5.464   4.888  14.170 -0.3099  0.1398 -0.0400
 4164TIP3    H133983   5.412   4.969  14.169 -2.7781 -1.3351  1.2262
 4164TIP3    H233984   5.511   4.890  14.253  0.6817  0.8038 -0.5778
 4165TIP3   OH233985   2.805   2.923   1.028 -0.6630 -0.0585 -0.3160
 4165TIP3    H133986   2.846   2.928   1.114 -0.9125  0.3166 -0.2124
 4165TIP3    H233987   2.872   2.954   0.967 -0.8315  0.7089 -0.1300
 4166TIP3   OH233988   1.348   6.627  11.451 -0.1048 -0.4275  0.8560
 4166TIP3    H133989   1.443   6.625  11.467  0.1050  2.5340  0.4440
 4166TIP3    H233990   1.310   6.653  11.535 -0.3572  0.3536  0.5059
 4167TIP3   OH233991   1.806   6.329   5.724  0.3073 -0.5008  0.3287
 4167TIP3    H133992   1.740   6.398   5.730 -1.2377 -2.0336  3.9513
 4167TIP3    H233993   1.853   6.333   5.807  3.3609 -0.9398 -1.2372
 4168TIP3   OH233994   2.609   3.318  12.880 -0.3180 -0.0752  0.6381
 4168TIP3    H133995   2.676   3.352  12.821  0.1860 -0.7288  0.8218
 4168TIP3    H233996   2.579   3.394  12.929 -0.5861  0.4395 -0.3017
 4169TIP3   OH233997   5.393   6.699   2.553  0.4085  0.2099 -0.2643
 4169TIP3    H133998   5.469   6.709   2.611 -0.1252  0.9073  0.3343
 4169TIP3    H233999   5.431   6.688   2.466  1.2427 -1.3510  0.2493
 4170TIP3   OH234000   0.117   3.969  12.512 -0.0563  0.0151 -0.6899
 4170TIP3    H134001   0.106   3.963  12.607 -0.0811 -2.4522 -0.7937
 4170TIP3    H234002   0.080   3.888  12.478  1.9080 -0.1734 -2.6141
 4171TIP3   OH234003   4.710   0.150   3.471  0.1769 -0.1600 -0.0718
 4171TIP3    H134004   4.691   0.164   3.563 -0.3368 -1.1170 -0.0224
 4171TIP3    H234005   4.731   0.237   3.437 -1.2874  0.4605  0.5621
 4172TIP3   OH234006   5.080   2.196   3.533 -0.4954 -0.0325  0.0731
 4172TIP3    H134007   5.155   2.149   3.496 -0.6293  0.0353 -0.2857
 4172TIP3    H234008   5.097   2.288   3.514 -0.3408  0.0484  0.5851
 4173TIP3   OH234009   5.536   6.211   1.323 -0.4439 -0.4932  0.2745
 4173TIP3    H134010   5.567   6.295   1.290  0.4398 -1.7426 -2.3464
 4173TIP3    H234011   5.611   6.175   1.371 -0.3987 -0.3413  0.3185
 4174TIP3   OH234012   5.408   5.003   0.193 -0.8598  0.1439 -0.5289
 4174TIP3    H134013   5.446   5.091   0.189  1.6726 -0.6990  1.5554
 4174TIP3    H234014   5.434   4.970   0.280 -0.4749 -3.1515 -1.7540
 4175TIP3   OH234015   4.117   3.567  13.334  1.2047  0.2526 -0.0123
 4175TIP3    H134016   4.127   3.481  13.374 -0.6514  0.9139  2.1120
 4175TIP3    H234017   4.197   3.614  13.356  2.2643 -0.8694 -1.2499
 4176TIP3   OH234018   3.603   6.680  14.819 -0.1298 -0.2395 -0.5373
 4176TIP3    H134019   3.530   6.686  14.757 -1.0161 -1.0821  0.3767
 4176TIP3    H234020   3.627   6.771  14.835 -2.4068  0.2356  0.7194
 4177TIP3   OH234021   6.603   4.365   1.986  0.4458  0.0390 -0.0094
 4177TIP3    H134022   6.557   4.289   2.022  0.9662 -0.5304 -0.5117
 4177TIP3    H234023   6.683   4.373   2.039  0.5349  0.0522 -0.1443
 4178TIP3   OH234024   1.779   3.567   5.390  0.2982  0.7328  0.6605
 4178TIP3    H134025   1.811   3.480   5.367 -1.8295  0.5673 -2.1318
 4178TIP3    H234026   1.805   3.622   5.316 -2.4149  1.3981  0.1233
 4179TIP3   OH234027   4.149   4.754  12.096 -0.1966  0.0673 -0.2875
 4179TIP3    H134028   4.212   4.714  12.156  0.7525  0.3804 -1.0501
 4179TIP3    H234029   4.176   4.724  12.009 -0.2789  1.2597 -0.7501
 4180TIP3   OH234030   6.643   3.598   6.480  0.3853 -0.5598  0.0975
 4180TIP3    H134031   6.595   3.524   6.518  0.2941 -0.5620 -0.0194
 4180TIP3    H234032   6.575   3.661   6.457  0.5718  0.2217  1.5947
 4181TIP3   OH234033   6.467   0.298  10.820  0.0051  0.5413 -0.9748
 4181TIP3    H134034   6.484   0.204  10.822  0.1684  0.5510 -1.6758
 4181TIP3    H234035   6.514   0.333  10.895  1.0903  0.2417 -1.5033
 4182TIP3   OH234036   3.465   4.402   5.036  0.9098  0.0227  0.2097
 4182TIP3    H134037   3.488   4.412   5.128  1.0889 -1.5483  0.3616
 4182TIP3    H234038   3.371   4.414   5.032  0.9949  0.7812  0.4897
 4183TIP3   OH234039   1.417   2.003  15.307 -0.2351 -0.1651 -0.3998
 4183TIP3    H134040   1.477   2.067  15.347  0.3105 -0.6478 -0.4265
 4183TIP3    H234041   1.475   1.935  15.272 -0.7328 -0.0581 -1.4668
 4184TIP3   OH234042   5.302   5.120  14.119 -0.0383  0.7203  0.1701
 4184TIP3    H134043   5.219   5.132  14.075  1.0476 -0.4930 -2.4245
 4184TIP3    H234044   5.336   5.209  14.131 -0.7413  1.1327 -0.7536
 4185TIP3   OH234045   0.267   2.365  14.315 -0.1206 -0.1181 -0.6286
 4185TIP3    H134046   0.197   2.414  14.273  1.3856  2.0005 -0.8659
 4185TIP3    H234047   0.347   2.401  14.277  1.2077 -0.0685  1.9613
 4186TIP3   OH234048   5.279   1.204  11.939 -0.2608  0.0113  0.0515
 4186TIP3    H134049   5.346   1.171  11.999  0.8350  0.4430 -0.8887
 4186TIP3    H234050   5.204   1.223  11.995 -0.1363 -1.8828  0.9392
 4187TIP3   OH234051   2.174   5.334  14.131 -0.1547 -0.1329 -0.2743
 4187TIP3    H134052   2.207   5.346  14.042 -0.4323  1.5302 -0.1885
 4187TIP3    H234053   2.082   5.311  14.119 -0.7155  1.9718 -0.4473
 4188TIP3   OH234054   6.074   1.078   0.358  0.1026  0.3030 -0.2690
 4188TIP3    H134055   6.101   1.025   0.283 -0.0579  0.9523 -0.8024
 4188TIP3    H234056   6.054   1.164   0.320 -0.8261  0.3979  0.3880
 4189TIP3   OH234057   2.054   4.677   2.707 -0.6095  0.2762 -0.0411
 4189TIP3    H134058   2.112   4.740   2.665  1.6893 -1.9782 -0.5070
 4189TIP3    H234059   2.044   4.709   2.796  2.2938  0.2707  0.3814
 4190TIP3   OH234060   6.001   5.429  12.041 -0.0793  0.0358 -0.5958
 4190TIP3    H134061   5.986   5.458  11.951 -2.5150 -0.7337 -0.5115
 4190TIP3    H234062   6.015   5.509  12.090  2.1357  0.4211 -1.7469
 4191TIP3   OH234063   1.090   1.305   6.444  0.1766 -0.3252 -0.2389
 4191TIP3    H134064   1.030   1.270   6.377 -2.3855  1.3984  0.9773
 4191TIP3    H234065   1.072   1.399   6.444  2.8430  0.2459  0.3535
 4192TIP3   OH234066   4.653   5.336   1.276 -0.1932  0.3210  0.0283
 4192TIP3    H134067   4.701   5.325   1.359 -0.1691  1.1277  0.1286
 4192TIP3    H234068   4.684   5.263   1.221  0.6910  0.4669  0.3070
 4193TIP3   OH234069   3.146   2.218   5.017  0.0694  0.3883  0.2163
 4193TIP3    H134070   3.232   2.177   5.027  0.9045  2.0929  0.4217
 4193TIP3    H234071   3.146   2.287   5.083 -0.3812  2.1406 -1.5371
 4194TIP3   OH234072   2.975   6.352  15.739  1.0275 -0.9087 -0.5899
 4194TIP3    H134073   3.035   6.333  15.666 -0.1927 -2.6616 -1.1960
 4194TIP3    H234074   2.966   6.269  15.785 -0.5505 -0.5607 -0.2215
 4195TIP3   OH234075   0.328   1.403   3.902  0.4339 -0.0544  0.7501
 4195TIP3    H134076   0.334   1.494   3.932  0.4375  0.1812  0.0534
 4195TIP3    H234077   0.320   1.410   3.807  1.5885 -0.8349  0.5809
 4196TIP3   OH234078   2.084   0.455  14.088 -0.2507  0.0133  0.5191
 4196TIP3    H134079   2.018   0.465  14.157  0.1541  0.7328  0.8110
 4196TIP3    H234080   2.077   0.535  14.036 -1.2045 -0.9255 -0.8711
 4197TIP3   OH234081   6.608   1.674  16.208 -0.1633  0.0018 -0.1760
 4197TIP3    H134082   6.627   1.595  16.259  0.2235 -0.8471 -1.6015
 4197TIP3    H234083   6.527   1.654  16.162 -0.5706  0.8107  0.1640
 4198TIP3   OH234084   4.663   5.129  13.852 -0.3741  0.1518  0.0587
 4198TIP3    H134085   4.738   5.069  13.850 -0.8616 -0.4471 -0.7973
 4198TIP3    H234086   4.689   5.201  13.794 -1.1171 -0.8997 -1.6575
 4199TIP3   OH234087   0.515   0.341   0.525 -0.1684  0.1366 -0.0326
 4199TIP3    H134088   0.581   0.361   0.592  0.6070  4.2673 -1.6774
 4199TIP3    H234089   0.552   0.268   0.476  2.1576  0.8403  0.5329
 4200TIP3   OH234090   2.487   0.012  11.319  0.2196  0.9128 -0.0378
 4200TIP3    H134091   2.427   0.087  11.322  0.2621  0.9308  0.4090
 4200TIP3    H234092   2.571   0.049  11.293  0.1611  0.9675 -0.1513
 4201TIP3   OH234093   4.118   2.183   4.017  0.2145  0.6080 -0.4549
 4201TIP3    H134094   4.140   2.251   4.081 -0.7444 -0.9370  1.6085
 4201TIP3    H234095   4.027   2.162   4.034  0.6682 -1.6739 -0.5403
 4202TIP3   OH234096   0.694   1.445   0.459  0.2827  0.4442 -0.1662
 4202TIP3    H134097   0.783   1.475   0.477  1.5435 -3.4634  1.1537
 4202TIP3    H234098   0.661   1.415   0.543 -2.3538  1.7082 -0.6498
 4203TIP3   OH234099   3.258   4.473   6.876 -0.0305  0.3298  0.0380
 4203TIP3    H134100   3.290   4.390   6.842 -1.4826 -0.8375  1.3221
 4203TIP3    H234101   3.335   4.515   6.914  0.8277 -0.1521 -1.0992
 4204TIP3   OH234102   6.279   0.422   0.255 -0.0061 -0.0210  0.2248
 4204TIP3    H134103   6.247   0.377   0.333  1.3631  0.3018  1.0047
 4204TIP3    H234104   6.252   0.365   0.182 -0.5080 -0.7970  0.9916
 4205TIP3   OH234105   2.483   2.084   4.932  0.3729 -0.7452  0.0304
 4205TIP3    H134106   2.449   2.001   4.966 -1.7245 -0.0379 -0.1924
 4205TIP3    H234107   2.484   2.072   4.837 -1.5615 -0.0189 -0.1373
 4206TIP3   OH234108   1.541   0.379   4.437  0.1505  0.2111  0.1297
 4206TIP3    H134109   1.496   0.310   4.389  0.7038 -0.9578  1.2288
 4206TIP3    H234110   1.620   0.337   4.472  0.0601  1.1492  1.5715
 4207TIP3   OH234111   2.470   5.395   2.477 -0.3399 -0.0496 -0.2143
 4207TIP3    H134112   2.502   5.375   2.389 -0.6450 -0.5447 -0.2188
 4207TIP3    H234113   2.394   5.452   2.463 -0.6661 -0.4967 -0.2987
 4208TIP3   OH234114   0.331   0.744   0.717 -0.4276  0.1582 -0.1655
 4208TIP3    H134115   0.369   0.666   0.757  0.5751  0.9875  0.5498
 4208TIP3    H234116   0.310   0.717   0.628 -0.3240 -0.9931  0.1364
 4209TIP3   OH234117   2.132   6.338  13.019  0.5965 -0.3167  0.2778
 4209TIP3    H134118   2.173   6.265  13.065  1.6561  1.5760  2.5052
 4209TIP3    H234119   2.140   6.316  12.926 -0.0954 -3.4869  0.8688
 4210TIP3   OH234120   5.962   0.455  14.741  0.5554 -0.1462  0.3749
 4210TIP3    H134121   5.912   0.488  14.815 -0.0602  2.3813 -1.0484
 4210TIP3    H234122   5.897   0.440  14.673  1.0945 -2.5399  0.3208
 4211TIP3   OH234123   2.710   1.591   4.111 -0.2257  0.0017 -0.6786
 4211TIP3    H134124   2.696   1.625   4.200 -0.9074  1.6004 -1.3476
 4211TIP3    H234125   2.628   1.547   4.089  0.1115 -0.7961 -0.3570
 4212TIP3   OH234126   5.882   6.762   0.633 -0.0925 -0.3454  0.8409
 4212TIP3    H134127   5.825   6.773   0.708 -2.6601  0.0874 -1.0211
 4212TIP3    H234128   5.883   6.667   0.618  0.5122 -0.4405  1.4696
 4213TIP3   OH234129   1.803   3.348   0.152  0.5632  0.3476  0.4036
 4213TIP3    H134130   1.786   3.270   0.205  2.4261  0.9370  1.9965
 4213TIP3    H234131   1.882   3.327   0.103 -0.1561  0.4725 -0.8508
 4214TIP3   OH234132   5.125   5.192   1.801 -0.7112  0.7328  0.4774
 4214TIP3    H134133   5.157   5.203   1.712 -1.4109  1.7423  0.3326
 4214TIP3    H234134   5.168   5.113   1.833 -1.6217 -0.5345 -1.2918
 4215TIP3   OH234135   0.942   3.601  13.129  0.6175  0.4121  0.3839
 4215TIP3    H134136   1.006   3.559  13.071  1.6780  0.0909  1.7411
 4215TIP3    H234137   0.858   3.592  13.083  1.4386  0.3504 -1.1794
 4216TIP3   OH234138   0.606   1.186   1.186  0.7107  0.7659  0.2988
 4216TIP3    H134139   0.514   1.195   1.212  1.0010  1.7791  1.0301
 4216TIP3    H234140   0.644   1.272   1.203  1.5753  0.6443 -0.9437
 4217TIP3   OH234141   1.413   3.189  11.912  0.0108 -0.4176  0.0360
 4217TIP3    H134142   1.320   3.167  11.912 -0.1628  0.3093 -0.1061
 4217TIP3    H234143   1.423   3.253  11.842  0.7092 -0.8538 -0.2736
 4218TIP3   OH234144   3.557   0.644   5.303  0.3937  0.6828  0.1822
 4218TIP3    H134145   3.571   0.660   5.209  1.1484  0.0869  0.1803
 4218TIP3    H234146   3.487   0.704   5.327  0.0869  0.7411 -0.8015
 4219TIP3   OH234147   0.904   5.214   4.664 -0.1218 -0.1329  0.4498
 4219TIP3    H134148   0.954   5.264   4.600  0.3419 -1.6104 -0.3798
 4219TIP3    H234149   0.931   5.124   4.651 -0.4123 -0.5513  2.3889
 4220TIP3   OH234150   3.129   1.100  12.384  0.2692  0.2549 -0.2158
 4220TIP3    H134151   3.204   1.125  12.437 -0.7188  2.3392  0.3081
 4220TIP3    H234152   3.160   1.028  12.330  1.9641 -0.4396  1.5850
 4221TIP3   OH234153   6.551   1.097   3.138 -0.1881  0.1120  0.6059
 4221TIP3    H134154   6.604   1.153   3.195 -1.2018  0.6750  1.0194
 4221TIP3    H234155   6.565   1.132   3.050  3.1041 -2.0734  0.0620
 4222TIP3   OH234156   5.215   1.092   0.409 -0.0118  0.6100 -0.3921
 4222TIP3    H134157   5.134   1.045   0.390  0.1035 -0.4419  1.4678
 4222TIP3    H234158   5.197   1.137   0.492  1.0649  0.9604 -0.3343
 4223TIP3   OH234159   3.983   0.583   1.643  0.1118 -0.5730 -0.1921
 4223TIP3    H134160   3.965   0.640   1.568  0.4179 -0.7384 -0.3933
 4223TIP3    H234161   4.070   0.547   1.626  1.7521  2.0491  1.9193
 4224TIP3   OH234162   1.399   2.033   3.184 -0.4107  0.1019 -0.2817
 4224TIP3    H134163   1.335   1.992   3.242 -1.0053  3.6435  1.9023
 4224TIP3    H234164   1.355   2.112   3.152  1.1785  0.0670 -2.8479
 4225TIP3   OH234165   5.997   4.878   5.090  0.4977 -0.3519  0.3656
 4225TIP3    H134166   6.003   4.784   5.076 -0.4193 -0.2999 -0.4619
 4225TIP3    H234167   6.086   4.904   5.115  1.0576 -1.2432 -0.6119
 4226TIP3   OH234168   4.772   3.299  11.334  0.1053  0.3257  0.2863
 4226TIP3    H134169   4.697   3.333  11.382 -0.3414  1.9534 -1.4496
 4226TIP3    H234170   4.736   3.229  11.279 -0.4815  1.9582 -1.5074
 4227TIP3   OH234171   4.375   2.671  12.039 -0.0961 -0.4070 -0.4937
 4227TIP3    H134172   4.348   2.731  11.970 -0.4734 -1.9780 -1.7719
 4227TIP3    H234173   4.338   2.708  12.119 -2.9607 -0.4879 -1.6634
 4228TIP3   OH234174   6.497   3.508  12.523  0.2535  0.0897  0.4661
 4228TIP3    H134175   6.472   3.423  12.487 -0.8910 -0.2781  2.0358
 4228TIP3    H234176   6.499   3.494  12.618  0.2767  1.7593  0.7358
 4229TIP3   OH234177   4.195   2.267   3.429  0.1558  0.7030  0.1172
 4229TIP3    H134178   4.113   2.234   3.464 -0.2670  0.6038 -0.9300
 4229TIP3    H234179   4.170   2.342   3.374  0.8441  1.1821  0.4385
 4230TIP3   OH234180   3.557   1.292  14.671  0.4454 -0.2254  0.4559
 4230TIP3    H134181   3.600   1.208  14.685  1.3864  0.1421 -0.1116
 4230TIP3    H234182   3.587   1.320  14.585 -1.0323  0.0096 -0.0092
 4231TIP3   OH234183   5.221   2.919   6.333 -0.4323 -0.3483  0.3807
 4231TIP3    H134184   5.156   2.971   6.379 -0.3540  0.0985 -0.0124
 4231TIP3    H234185   5.176   2.887   6.255 -0.5318 -1.0184  0.6978
 4232TIP3   OH234186   4.693   3.954  15.854  0.5893  0.2625 -0.9650
 4232TIP3    H134187   4.696   4.012  15.929  1.6409  1.2019 -1.7131
 4232TIP3    H234188   4.723   3.869  15.888 -2.3868 -0.3434  0.4897
 4233TIP3   OH234189   0.302   5.863   2.494  0.5241 -0.7222 -0.1299
 4233TIP3    H134190   0.356   5.925   2.446 -1.9124  0.8202 -1.0446
 4233TIP3    H234191   0.234   5.836   2.432 -0.6828 -1.3524  1.3957
 4234TIP3   OH234192   0.740   3.836   2.686  0.0662 -0.2995  0.0157
 4234TIP3    H134193   0.683   3.759   2.693  0.0954 -0.6296 -2.2909
 4234TIP3    H234194   0.681   3.911   2.689 -0.4810 -0.6116 -1.6625
 4235TIP3   OH234195   4.636   2.384   2.111 -0.6918  0.2686  0.2183
 4235TIP3    H134196   4.552   2.416   2.077 -1.4967 -0.8239  1.1000
 4235TIP3    H234197   4.612   2.329   2.186  0.8127 -0.1365  0.4313
 4236TIP3   OH234198   1.559   2.452   3.728 -0.6351 -0.0521 -0.3741
 4236TIP3    H134199   1.511   2.441   3.810  0.2355 -0.1579  0.1299
 4236TIP3    H234200   1.629   2.387   3.731  1.0495  1.6941  0.0386
 4237TIP3   OH234201   2.349   5.925   2.958  0.6180  0.3010 -0.2963
 4237TIP3    H134202   2.363   5.866   3.032 -1.6304  0.3229  0.2296
 4237TIP3    H234203   2.269   5.973   2.981 -0.2204  0.2272 -2.7759
 4238TIP3   OH234204   4.560   5.195  12.858 -0.1491 -0.4180  0.6591
 4238TIP3    H134205   4.583   5.208  12.950  0.2771 -1.3582  0.6968
 4238TIP3    H234206   4.639   5.219  12.811 -0.3070 -0.1148  0.5484
 4239TIP3   OH234207   2.601   1.000  13.641  0.2166  0.0221 -0.4602
 4239TIP3    H134208   2.571   0.958  13.560 -1.3980  0.8539 -0.3465
 4239TIP3    H234209   2.530   1.060  13.663  2.0696  2.2226 -0.1919
 4240TIP3   OH234210   2.228   0.063   0.201 -0.0955  0.1246 -0.5186
 4240TIP3    H134211   2.207   0.139   0.148 -0.6494  0.8916  0.7395
 4240TIP3    H234212   2.154   0.054   0.261  1.0044  0.0015  0.8818
 4241TIP3   OH234213   6.615   4.681   1.686 -0.2463  0.1582 -0.1207
 4241TIP3    H134214   6.688   4.690   1.747 -0.9001  0.4864  0.6295
 4241TIP3    H234215   6.555   4.620   1.729 -1.4163  1.5372  0.2762
 4242TIP3   OH234216   0.183   5.049   3.864 -0.0420 -0.3544  0.0456
 4242TIP3    H134217   0.209   5.141   3.853  0.9648 -0.6317 -0.0598
 4242TIP3    H234218   0.266   5.001   3.857 -0.6074 -1.2956 -0.2043
 4243TIP3   OH234219   4.026   0.623   3.377 -0.3301  0.2855 -0.1973
 4243TIP3    H134220   3.945   0.625   3.429  0.2389 -1.3417  0.8350
 4243TIP3    H234221   4.094   0.597   3.440  0.4450 -1.4563 -1.6670
 4244TIP3   OH234222   4.165   3.545   1.975  0.5321 -0.0515  0.4161
 4244TIP3    H134223   4.110   3.476   2.010  2.7666 -1.2189  1.8213
 4244TIP3    H234224   4.223   3.501   1.913  0.5957  0.9645 -0.2752
 4245TIP3   OH234225   0.176   3.650  11.124  0.5160  0.5895 -0.3605
 4245TIP3    H134226   0.110   3.701  11.171  0.4807  1.1709 -1.0109
 4245TIP3    H234227   0.196   3.577  11.182  0.9810  1.6516  0.8630
 4246TIP3   OH234228   5.727   5.427   3.164  0.3324  0.0250  0.3670
 4246TIP3    H134229   5.646   5.377   3.152  0.0260  0.5305  0.3277
 4246TIP3    H234230   5.784   5.367   3.213 -0.6609  0.2471  1.8857
 4247TIP3   OH234231   2.602   5.173  14.797  0.4205 -0.4395 -0.0332
 4247TIP3    H134232   2.567   5.187  14.885  0.2713 -0.9932  0.0009
 4247TIP3    H234233   2.683   5.123  14.811 -0.1976 -1.5488 -0.2616
 4248TIP3   OH234234   2.769   6.198  15.045 -0.0546  0.9602 -0.4928
 4248TIP3    H134235   2.679   6.198  15.014 -1.1877  0.3969  2.4419
 4248TIP3    H234236   2.774   6.124  15.106  1.5209  2.6589  1.6000
 4249TIP3   OH234237   1.141   3.023  13.909 -0.0016  0.6052  0.3442
 4249TIP3    H134238   1.082   2.954  13.878 -0.7255  1.0633  0.6821
 4249TIP3    H234239   1.092   3.068  13.977  1.1109  0.3808  1.3407
 4250TIP3   OH234240   0.572   5.494  14.647 -0.3370 -0.5990 -0.1410
 4250TIP3    H134241   0.501   5.430  14.647  0.4010 -1.4886 -2.1764
 4250TIP3    H234242   0.647   5.446  14.682 -0.0344 -0.5366 -0.7035
 4251TIP3   OH234243   6.263   1.506  11.792 -0.6141  0.0033 -0.0990
 4251TIP3    H134244   6.177   1.467  11.781  0.4536 -2.3923 -0.7053
 4251TIP3    H234245   6.312   1.443  11.844  0.4020  1.9661  1.4946
 4252TIP3   OH234246   6.151   6.450   3.216  0.1833  0.1015  0.5282
 4252TIP3    H134247   6.123   6.540   3.199 -0.4118  0.4710  3.1352
 4252TIP3    H234248   6.199   6.455   3.299  2.7797 -1.5339 -0.7152
 4253TIP3   OH234249   1.646   4.155   4.679 -0.2230 -0.0191 -0.3038
 4253TIP3    H134250   1.602   4.240   4.691  0.1118 -0.0404  1.3128
 4253TIP3    H234251   1.736   4.170   4.707  0.0004 -0.7660 -0.5898
 4254TIP3   OH234252   5.534   0.873  12.013  0.1571  0.1421  0.3210
 4254TIP3    H134253   5.537   0.894  11.920 -1.7596  1.2698  0.4586
 4254TIP3    H234254   5.527   0.958  12.057 -0.6445 -0.4311  1.3707
 4255TIP3   OH234255   2.416   0.015  12.409 -0.4204 -0.3351  0.4364
 4255TIP3    H134256   2.419   0.107  12.384  1.4822 -0.4762  0.0369
 4255TIP3    H234257   2.322  -0.006  12.409 -0.7924  0.8251 -2.3217
 4256TIP3   OH234258   2.888   5.546  11.969 -0.1269  0.1064  0.1045
 4256TIP3    H134259   2.901   5.499  12.051  1.5337 -0.1288 -0.2678
 4256TIP3    H234260   2.840   5.484  11.913  1.4108 -0.9212 -0.1339
 4257TIP3   OH234261   6.062   2.943  14.247 -0.4212 -0.0774  0.0168
 4257TIP3    H134262   6.127   2.874  14.260  2.3551  2.4983  0.7958
 4257TIP3    H234263   6.024   2.957  14.333  0.7878  0.9652  0.3988
 4258TIP3   OH234264   2.960   1.297  12.465  0.9498  0.5257 -0.0425
 4258TIP3    H134265   3.009   1.223  12.429  0.1794  1.5826 -3.6742
 4258TIP3    H234266   3.026   1.353  12.505  2.3042  0.2770 -1.8072
 4259TIP3   OH234267   5.404   6.673   4.987 -0.0943 -0.2463 -0.4131
 4259TIP3    H134268   5.456   6.601   5.023  0.5766 -0.3558 -1.5521
 4259TIP3    H234269   5.359   6.710   5.063  0.3517 -1.2093  0.3477
 4260TIP3   OH234270   3.810   2.791   4.907  0.1449  0.0614 -0.0623
 4260TIP3    H134271   3.835   2.847   4.833 -0.9514  0.4554 -0.1548
 4260TIP3    H234272   3.802   2.704   4.870  0.6840  0.0555 -0.1715
 4261TIP3   OH234273   0.238   4.750  15.841 -0.1991  0.3595  0.0778
 4261TIP3    H134274   0.301   4.717  15.905 -0.5210 -0.3777  0.0246
 4261TIP3    H234275   0.269   4.716  15.757 -1.4138 -1.1854  0.2130
 4262TIP3   OH234276   0.946   2.253  16.338  0.6552  0.1701 -0.3182
 4262TIP3    H134277   0.934   2.189  16.268  0.9420 -1.7341  1.2779
 4262TIP3    H234278   1.019   2.218  16.390  0.1433  1.2392  1.2063
 4263TIP3   OH234279   2.918   6.356  16.514 -0.1606 -0.2076 -0.4825
 4263TIP3    H134280   3.010   6.332  16.520 -0.3951 -1.3967 -1.2175
 4263TIP3    H234281   2.896   6.391  16.601  0.8419 -0.4037 -0.1379
 4264TIP3   OH234282   1.140   0.273  13.859 -0.0384 -0.2355 -0.1081
 4264TIP3    H134283   1.223   0.320  13.857  0.1696 -0.6012 -0.4794
 4264TIP3    H234284   1.160   0.192  13.906 -1.5463  2.0760  5.1637
 4265TIP3   OH234285   2.537   2.964  13.582 -0.2060 -0.7081  0.0557
 4265TIP3    H134286   2.581   3.045  13.556  1.9348 -1.2401  1.7820
 4265TIP3    H234287   2.596   2.894  13.556  0.2672 -1.4334  2.7144
 4266TIP3   OH234288   1.156   4.860   1.756  0.1916  0.5378  0.8003
 4266TIP3    H134289   1.083   4.831   1.702  0.8754  0.7585 -0.2926
 4266TIP3    H234290   1.232   4.810   1.723  0.5078  0.2041  2.0048
 4267TIP3   OH234291   1.017   6.401  14.534  0.4657  0.0137  0.0683
 4267TIP3    H134292   1.070   6.386  14.612  0.1407  1.0044  0.5044
 4267TIP3    H234293   0.970   6.318  14.520  0.5872 -0.1996  0.8816
 4268TIP3   OH234294   1.069   3.562   1.092 -0.3703  0.2087 -0.0433
 4268TIP3    H134295   1.128   3.633   1.067  0.7344 -1.7602 -3.9023
 4268TIP3    H234296   1.127   3.492   1.123 -1.0553 -0.3517  0.0090
 4269TIP3   OH234297   0.236   4.153  17.030  0.4282  0.0291  0.4177
 4269TIP3    H134298   0.182   4.111  16.962  0.1800  1.9876 -0.6750
 4269TIP3    H234299   0.175   4.213  17.074  1.4241  1.4910 -0.1263
 4270TIP3   OH234300   1.257   0.381  16.648 -0.0779 -0.0375 -0.3308
 4270TIP3    H134301   1.270   0.306  16.706 -0.6495  0.6549  0.7041
 4270TIP3    H234302   1.197   0.438  16.694  0.5401  1.1965 -0.9965
 4271TIP3   OH234303   1.454   0.244  12.555  0.6202 -0.0344  0.0829
 4271TIP3    H134304   1.503   0.210  12.481 -0.3635 -1.4995  0.0568
 4271TIP3    H234305   1.461   0.339  12.547  1.5823 -0.1826 -1.1521
 4272TIP3   OH234306   0.870   1.813   3.666  0.5212  0.3016 -0.1257
 4272TIP3    H134307   0.775   1.818   3.680  0.5201  0.0012 -0.0268
 4272TIP3    H234308   0.883   1.851   3.579  0.3569  0.7282  0.0347
 4273TIP3   OH234309   1.009   0.205  12.250 -0.0265 -0.0089  0.1356
 4273TIP3    H134310   0.971   0.201  12.163 -0.6840  0.1013  0.4149
 4273TIP3    H234311   1.095   0.244  12.237  0.2906 -0.9157 -0.5914
 4274TIP3   OH234312   6.601   3.999  15.835  0.5229  0.0997 -0.4179
 4274TIP3    H134313   6.677   4.047  15.867 -0.2946  0.4005  1.1967
 4274TIP3    H234314   6.530   4.024  15.895 -0.8410 -0.2291 -1.8138
 4275TIP3   OH234315   4.299   4.820   4.080  0.1718 -0.2679  0.3729
 4275TIP3    H134316   4.288   4.743   4.136  2.0737 -2.6889 -2.2693
 4275TIP3    H234317   4.229   4.812   4.015  1.4969 -0.9170 -1.0320
 4276TIP3   OH234318   2.865   3.542  12.829  0.3760 -0.1514 -0.4151
 4276TIP3    H134319   2.930   3.480  12.862 -1.5848 -1.7255  0.7168
 4276TIP3    H234320   2.845   3.598  12.904 -0.4522 -0.4874 -0.3762
 4277TIP3   OH234321   0.783   3.576   4.577  0.5606 -0.2386 -0.0029
 4277TIP3    H134322   0.743   3.661   4.595  0.2699 -0.4361  0.3104
 4277TIP3    H234323   0.848   3.565   4.646  1.1196  0.0540 -0.4751
 4278TIP3   OH234324   6.781   1.212   5.208 -0.5462 -0.4061 -0.8671
 4278TIP3    H134325   6.752   1.145   5.271 -0.5368 -0.5010 -0.9631
 4278TIP3    H234326   6.736   1.189   5.127 -0.1113 -0.6233 -1.0477
 4279TIP3   OH234327   5.663   4.363   2.841  0.0804 -0.3182 -0.2597
 4279TIP3    H134328   5.665   4.421   2.765 -0.8716 -1.3020 -1.0499
 4279TIP3    H234329   5.570   4.346   2.856  0.3447 -1.7296 -0.1203
 4280TIP3   OH234330   6.037   2.582  16.566 -0.0928 -0.1343 -0.4912
 4280TIP3    H134331   6.034   2.529  16.645 -0.1351  1.1466  0.3970
 4280TIP3    H234332   5.947   2.609  16.551  0.2431  1.7020  0.5147
 4281TIP3   OH234333   0.261   0.885  15.004  0.2855  0.5175 -0.3866
 4281TIP3    H134334   0.259   0.969  15.050 -0.0944  0.4944 -0.3595
 4281TIP3    H234335   0.280   0.821  15.072 -1.6979  0.2982  0.0416
 4282TIP3   OH234336   6.283   2.866   0.040  0.0776  0.0669 -0.0965
 4282TIP3    H134337   6.318   2.777   0.039  0.3426  0.1692 -0.6212
 4282TIP3    H234338   6.360   2.922   0.028 -0.2708  0.2904 -1.5065
 4283TIP3   OH234339   6.271   3.940  13.938 -0.0556 -0.4319  0.0389
 4283TIP3    H134340   6.202   4.005  13.932  1.1151  0.9566  0.8641
 4283TIP3    H234341   6.333   3.964  13.869  0.6759 -0.2762  0.7270
 4284TIP3   OH234342   3.254   5.616   0.615  0.2880 -0.0313 -0.6507
 4284TIP3    H134343   3.283   5.546   0.557 -1.1997 -1.2009 -0.0292
 4284TIP3    H234344   3.225   5.686   0.556  0.4232 -0.5096 -1.2890
 4285TIP3   OH234345   6.163   5.565  10.676  0.1708 -0.1736  0.3217
 4285TIP3    H134346   6.080   5.613  10.673  0.8258  0.9986  0.4391
 4285TIP3    H234347   6.229   5.633  10.690  1.1673 -1.0750  0.0738
 4286TIP3   OH234348   4.913   0.480   5.831 -0.3195  0.3115 -0.3229
 4286TIP3    H134349   4.991   0.520   5.793  0.5037 -0.9432 -0.0249
 4286TIP3    H234350   4.848   0.550   5.832  0.8056  1.3964 -0.5613
 4287TIP3   OH234351   6.229   6.202  14.963  0.0854 -0.3529  0.2194
 4287TIP3    H134352   6.247   6.108  14.972 -1.2690 -0.8957 -2.0787
 4287TIP3    H234353   6.161   6.219  15.029 -0.1372 -1.1255  0.2001
 4288TIP3   OH234354   3.713   3.163   2.551 -0.3046 -0.3176 -0.4577
 4288TIP3    H134355   3.670   3.187   2.469  0.4320  0.0713 -0.7402
 4288TIP3    H234356   3.660   3.091   2.585 -0.2535 -0.9373 -1.6158
 4289TIP3   OH234357   5.011   2.855   1.952 -0.1408  0.4461 -0.1739
 4289TIP3    H134358   5.024   2.938   1.905  1.8673  0.7308  0.7856
 4289TIP3    H234359   4.996   2.882   2.043  0.9649 -0.2365  0.2280
 4290TIP3   OH234360   5.150   1.217   0.652  0.1651  0.3807  0.1608
 4290TIP3    H134361   5.100   1.155   0.706 -1.2385  1.5614  0.3038
 4290TIP3    H234362   5.221   1.247   0.710 -1.1440  1.4074  1.3288
 4291TIP3   OH234363   0.394   5.875   0.521 -0.1056  0.1013 -0.0743
 4291TIP3    H134364   0.302   5.898   0.513  0.0046  0.5212 -0.1795
 4291TIP3    H234365   0.395   5.780   0.533 -0.5751  0.1521  0.3893
 4292TIP3   OH234366   1.335   1.456  13.438 -0.0401  0.3208 -0.8139
 4292TIP3    H134367   1.292   1.531  13.399  1.9667  0.8814 -2.1201
 4292TIP3    H234368   1.412   1.493  13.482 -0.3542 -0.7158  0.7229
 4293TIP3   OH234369   4.994   2.710   3.402  0.4420 -0.5728  0.2847
 4293TIP3    H134370   4.959   2.744   3.320  1.1411  1.0977  0.6283
 4293TIP3    H234371   4.917   2.699   3.458 -0.1694 -2.7522 -0.8922
 4294TIP3   OH234372   5.563   0.580   4.621 -0.3934 -0.5200  0.5949
 4294TIP3    H134373   5.484   0.553   4.573  0.8785 -1.9634 -0.8190
 4294TIP3    H234374   5.631   0.584   4.554  0.5765  1.6659  1.6081
 4295TIP3   OH234375   4.121   6.242   4.243  0.0697  0.8999 -0.3381
 4295TIP3    H134376   4.062   6.314   4.219 -0.3432  0.5197 -0.4937
 4295TIP3    H234377   4.072   6.192   4.308  0.4076  0.8367 -0.1315
 4296TIP3   OH234378   3.057   5.019  17.247 -0.4322  0.1818 -0.1115
 4296TIP3    H134379   3.102   4.940  17.217 -0.8467  0.9052 -2.9210
 4296TIP3    H234380   2.975   4.988  17.284 -0.2044 -0.7836 -0.4028
 4297TIP3   OH234381   1.503   6.294  13.339 -0.1648  0.0186 -0.2224
 4297TIP3    H134382   1.480   6.346  13.262  1.5734 -0.1179 -0.8816
 4297TIP3    H234383   1.498   6.203  13.310  0.5051 -0.0333 -0.1842
 4298TIP3   OH234384   3.072   1.272   3.913 -0.3002 -0.7255 -0.0598
 4298TIP3    H134385   3.156   1.311   3.936 -0.7954 -0.1132  0.7516
 4298TIP3    H234386   3.015   1.291   3.987 -2.2786  2.2437 -2.1157
 4299TIP3   OH234387   6.531   1.017  13.977 -0.2784  0.1717 -0.0562
 4299TIP3    H134388   6.450   1.047  13.936 -1.2853 -1.0030  0.9970
 4299TIP3    H234389   6.546   1.077  14.050 -0.5830 -0.0159  0.1617
 4300TIP3   OH234390   5.802   4.855  14.137  0.1265 -0.3794 -0.5203
 4300TIP3    H134391   5.708   4.865  14.123 -0.3096 -0.2582  2.0549
 4300TIP3    H234392   5.822   4.917  14.207  2.1129 -0.5207 -0.9160
 4301TIP3   OH234393   1.601   6.650  15.708 -0.1182  0.2609  0.0993
 4301TIP3    H134394   1.676   6.644  15.767 -2.1214 -1.2975  2.7221
 4301TIP3    H234395   1.534   6.697  15.759 -2.5572 -2.7188 -0.0654
 4302TIP3   OH234396   6.577   0.394  15.157 -0.1092 -0.0193 -0.8464
 4302TIP3    H134397   6.628   0.338  15.098  0.0502 -2.0627  1.0694
 4302TIP3    H234398   6.550   0.468  15.103  4.1872  0.8275 -2.2235
 4303TIP3   OH234399   3.036   0.668   2.869 -0.0234 -0.6778  0.4987
 4303TIP3    H134400   3.065   0.704   2.953  3.2713 -0.6305 -0.4943
 4303TIP3    H234401   2.949   0.633   2.887 -0.2864  1.0926  3.3915
 4304TIP3   OH234402   0.937   1.813  13.243 -0.0447 -0.1534  0.0255
 4304TIP3    H134403   0.944   1.848  13.154 -1.7844  1.9989  0.6663
 4304TIP3    H234404   1.027   1.814  13.276  0.2940  1.4406 -0.8497
 4305TIP3   OH234405   6.544   0.870   4.259  0.2807 -0.0897  0.2189
 4305TIP3    H134406   6.470   0.911   4.214  1.1152  0.2119 -0.9298
 4305TIP3    H234407   6.611   0.938   4.261  0.0230  0.1637  2.6671
 4306TIP3   OH234408   6.138   4.849  14.263 -0.4144  0.3404  0.4502
 4306TIP3    H134409   6.075   4.903  14.310 -0.3245 -1.0411  2.2304
 4306TIP3    H234410   6.170   4.786  14.327  0.2037 -1.2352 -1.2885
 4307TIP3   OH234411   6.419   6.418   0.077  0.2104 -0.1744 -0.0088
 4307TIP3    H134412   6.507   6.422   0.038  0.4391  0.0690  0.5328
 4307TIP3    H234413   6.405   6.325   0.093  1.7900 -0.0070  3.0750
 4308TIP3   OH234414   1.976   2.454  13.641  0.4602  0.0993  0.6759
 4308TIP3    H134415   2.004   2.455  13.732 -1.9407 -1.3551  1.5186
 4308TIP3    H234416   1.886   2.485  13.644  0.8130  1.4982 -1.4416
 4309TIP3   OH234417   1.992   2.707  12.609 -0.6870 -0.2309  0.2009
 4309TIP3    H134418   1.917   2.693  12.667  0.5133 -2.6208  1.3070
 4309TIP3    H234419   1.978   2.646  12.536 -1.2672  1.4656 -1.1671
 4310TIP3   OH234420   2.769   6.339   2.083  0.9274  0.5825 -0.5339
 4310TIP3    H134421   2.800   6.420   2.042  1.2738  1.1997  0.9013
 4310TIP3    H234422   2.719   6.367   2.159  3.7663 -0.5100  1.9210
 4311TIP3   OH234423   3.313   3.690  13.333 -0.3900  0.1625 -0.4023
 4311TIP3    H134424   3.229   3.694  13.379 -0.0355  0.6236  0.2173
 4311TIP3    H234425   3.335   3.597  13.332 -1.0041  0.0115 -0.7582
 4312TIP3   OH234426   5.475   6.515  15.734  0.1521 -0.5297  0.6543
 4312TIP3    H134427   5.379   6.519  15.730  0.1947  0.5552  0.3364
 4312TIP3    H234428   5.504   6.586  15.676  1.1076  2.3315  4.2917
 4313TIP3   OH234429   1.327   1.778   0.892 -0.0639  0.3501  0.2344
 4313TIP3    H134430   1.370   1.758   0.975 -0.0503 -2.4505 -0.3451
 4313TIP3    H234431   1.381   1.733   0.827 -1.4879  0.3736 -0.9980
 4314TIP3   OH234432   5.071   1.227  12.631  0.1662 -1.0543  0.0667
 4314TIP3    H134433   5.098   1.316  12.609 -2.0677  0.1396  1.7377
 4314TIP3    H234434   5.038   1.191  12.549 -0.8707  0.4486 -0.2120
 4315TIP3   OH234435   5.555   3.914  11.870 -0.0416 -0.0599 -0.7865
 4315TIP3    H134436   5.549   3.871  11.785  0.5597 -1.8998  0.0438
 4315TIP3    H234437   5.603   3.851  11.925 -0.7893  0.8798  1.0158
 4316TIP3   OH234438   4.935   4.233   3.414 -0.1280  0.5041 -0.3633
 4316TIP3    H134439   4.945   4.270   3.326 -0.1078  0.6793 -0.2887
 4316TIP3    H234440   4.873   4.292   3.457  0.0244  0.5390 -0.1912
 4317TIP3   OH234441   5.448   0.599  16.600  0.2537 -0.3249 -0.2264
 4317TIP3    H134442   5.398   0.654  16.660  1.7345  0.8397 -0.0091
 4317TIP3    H234443   5.534   0.640  16.595  0.4257 -0.8072 -2.5578
 4318TIP3   OH234444   5.806   5.407  15.055 -0.5851 -0.4519 -0.7040
 4318TIP3    H134445   5.771   5.330  15.012  0.0416 -0.1766 -1.7369
 4318TIP3    H234446   5.830   5.466  14.984 -2.0725  1.1814  0.0601
 4319TIP3   OH234447   1.709   0.724  11.305  0.2836  0.1253 -0.0377
 4319TIP3    H134448   1.763   0.774  11.245 -0.5110  0.5632 -0.3986
 4319TIP3    H234449   1.652   0.672  11.248 -0.0702  0.0983  0.3402
 4320TIP3   OH234450   1.817   2.292   5.838  0.0064 -0.0768 -0.4388
 4320TIP3    H134451   1.883   2.283   5.769  0.7718 -0.6851  0.3569
 4320TIP3    H234452   1.833   2.219   5.897 -1.6197 -0.4341 -0.4056
 4321TIP3   OH234453   5.924   6.485  14.916  0.5114  0.1961 -0.1165
 4321TIP3    H134454   5.900   6.421  14.849  0.1496 -1.8718  1.8291
 4321TIP3    H234455   6.011   6.516  14.892  0.1249  0.0003 -1.8344
 4322TIP3   OH234456   6.519   1.019   5.710  0.0029 -0.4586  0.2477
 4322TIP3    H134457   6.524   1.112   5.687 -1.2174 -0.3571  0.3461
 4322TIP3    H234458   6.548   0.973   5.631  1.3849 -0.0008  0.4560
 4323TIP3   OH234459   3.967   5.518   5.202  0.0833 -0.5537  0.2838
 4323TIP3    H134460   3.969   5.611   5.178  0.6019 -0.8946 -1.0999
 4323TIP3    H234461   3.887   5.509   5.254 -1.6134  0.1422 -2.0123
 4324TIP3   OH234462   4.492   0.479   1.531  0.1221  0.4871 -0.3919
 4324TIP3    H134463   4.506   0.558   1.584  0.0733  0.6281 -0.5880
 4324TIP3    H234464   4.399   0.458   1.542  0.0231  0.7420 -0.7314
 4325TIP3   OH234465   3.348   6.779  13.394  0.0290 -0.3912 -0.1512
 4325TIP3    H134466   3.359   6.806  13.303  0.7346 -1.4494 -0.3938
 4325TIP3    H234467   3.304   6.695  13.390  2.9164 -2.0731  0.2601
 4326TIP3   OH234468   1.766   0.727  12.859  0.1226 -0.5032  0.4549
 4326TIP3    H134469   1.849   0.699  12.899  1.5874  1.7632 -0.8074
 4326TIP3    H234470   1.757   0.819  12.883 -0.2641  0.2427 -2.2043
 4327TIP3   OH234471   1.004   4.303   4.413  0.6245  0.6122  0.0425
 4327TIP3    H134472   0.960   4.342   4.337  1.1741  1.4790  0.1582
 4327TIP3    H234473   1.048   4.376   4.455  0.0624  0.1985  1.3935
 4328TIP3   OH234474   1.604   2.832   0.151  0.4820  0.1851 -0.0369
 4328TIP3    H134475   1.590   2.738   0.163 -1.1638  0.4463  0.2501
 4328TIP3    H234476   1.684   2.851   0.200  1.3277 -1.2055 -0.8237
 4329TIP3   OH234477   2.446   2.635  16.316 -0.3859 -0.5600  0.1402
 4329TIP3    H134478   2.527   2.684  16.329 -0.4745 -0.4667  0.3405
 4329TIP3    H234479   2.398   2.644  16.398 -1.2352  0.5619 -0.4412
 4330TIP3   OH234480   2.949   2.249   0.862  0.0273  0.3315  0.1919
 4330TIP3    H134481   2.914   2.338   0.851  1.5239  0.5876 -4.0341
 4330TIP3    H234482   2.908   2.198   0.792  0.1667 -2.0876  1.7424
 4331TIP3   OH234483   0.540   6.238  14.057  0.0508 -0.0418 -0.2967
 4331TIP3    H134484   0.586   6.313  14.020  0.3243  0.2843  0.6602
 4331TIP3    H234485   0.503   6.192  13.982 -1.4603  1.8969 -0.8258
 4332TIP3   OH234486   2.110   3.305   0.363  0.5217  0.0221  0.1864
 4332TIP3    H134487   2.177   3.257   0.410  1.7352  0.8776 -0.5901
 4332TIP3    H234488   2.101   3.387   0.412  0.2380  0.0181  0.1396
 4333TIP3   OH234489   4.169   1.210   1.731 -0.3625 -0.5165  0.2991
 4333TIP3    H134490   4.144   1.144   1.667 -0.2575  0.4768 -0.7980
 4333TIP3    H234491   4.218   1.161   1.798 -0.7799 -1.6289 -0.1821
 4334TIP3   OH234492   5.677   0.060   5.120 -0.1814  0.3522  0.3788
 4334TIP3    H134493   5.711  -0.018   5.165  1.2099  1.0394  0.5765
 4334TIP3    H234494   5.749   0.090   5.065 -1.4488  0.2355 -1.4434
 4335TIP3   OH234495   4.869   3.098   1.365  0.5577  0.3268 -0.2753
 4335TIP3    H134496   4.850   3.006   1.382 -0.3094  0.7575  1.2214
 4335TIP3    H234497   4.913   3.097   1.280  1.1663 -1.5232  0.0061
 4336TIP3   OH234498   3.705   4.978   0.769  0.1145  0.5410  0.7386
 4336TIP3    H134499   3.620   5.022   0.775  0.0925  0.6535 -0.2878
 4336TIP3    H234500   3.683   4.885   0.769  0.0149  0.5642  0.7307
 4337TIP3   OH234501   2.797   1.897   1.142 -0.0249  0.2325 -0.0569
 4337TIP3    H134502   2.796   1.894   1.047 -0.2332  1.6957 -0.1206
 4337TIP3    H234503   2.743   1.823   1.169 -1.2859  0.7315 -1.1039
 4338TIP3   OH234504   0.582   3.386  15.412  0.0934  0.3939  0.0903
 4338TIP3    H134505   0.667   3.350  15.437 -0.4478 -0.8192  0.2626
 4338TIP3    H234506   0.552   3.328  15.341 -0.5660  0.8442 -0.0032
 4339TIP3   OH234507   3.160   3.114  15.527  0.0010  0.0721  0.1184
 4339TIP3    H134508   3.158   3.089  15.434  0.3453 -0.3824  0.2261
 4339TIP3    H234509   3.229   3.059  15.565  0.5265  0.9254  0.4492
 4340TIP3   OH234510   0.621   0.594  11.655  0.1596 -0.6364 -0.1342
 4340TIP3    H134511   0.667   0.525  11.607  1.2059 -1.5172  2.0293
 4340TIP3    H234512   0.690   0.642  11.700 -0.5325  2.0121 -1.6864
 4341TIP3   OH234513   5.894   3.037   5.550 -0.0369 -0.3083 -0.5489
 4341TIP3    H134514   5.807   3.010   5.578  0.3506 -2.1682 -0.9926
 4341TIP3    H234515   5.919   2.973   5.484  2.4158 -0.9956  0.9117
 4342TIP3   OH234516   5.909   4.359  17.285 -0.1731 -0.3656 -0.1589
 4342TIP3    H134517   5.880   4.334  17.373 -1.7488  1.0748 -0.2024
 4342TIP3    H234518   5.918   4.454  17.290  0.1253 -0.3120 -1.4597
 4343TIP3   OH234519   5.878   4.568   1.875 -0.1101  0.3546  0.5753
 4343TIP3    H134520   5.885   4.582   1.781 -2.2581 -1.2984  0.0840
 4343TIP3    H234521   5.851   4.653   1.910 -1.9418  0.3752 -0.7206
 4344TIP3   OH234522   2.137   6.185  16.376  0.0753 -0.2337  0.5295
 4344TIP3    H134523   2.225   6.170  16.410 -0.3277  0.4010  1.9174
 4344TIP3    H234524   2.124   6.280  16.385 -1.5292 -0.5819  2.3611
 4345TIP3   OH234525   6.321   5.129  16.838  0.2874  0.4237  0.3333
 4345TIP3    H134526   6.245   5.143  16.780 -1.4228  0.1471  2.3748
 4345TIP3    H234527   6.379   5.202  16.818 -1.0573  1.3345 -0.4849
 4346TIP3   OH234528   3.313   4.818   4.858 -0.3314  0.3223  0.1615
 4346TIP3    H134529   3.327   4.724   4.868 -1.1971  0.1551 -0.1339
 4346TIP3    H234530   3.336   4.855   4.944  2.5972  0.1943 -0.4646
 4347TIP3   OH234531   5.334   5.448   6.146  0.8147  0.2575  0.3098
 4347TIP3    H134532   5.370   5.387   6.210 -0.7019  0.2667  1.2312
 4347TIP3    H234533   5.309   5.525   6.197  1.6522  1.2085 -0.6609
 4348TIP3   OH234534   3.148   6.477  15.924 -0.4817  0.7971 -0.3205
 4348TIP3    H134535   3.163   6.396  15.974  4.8526 -1.1470 -4.1125
 4348TIP3    H234536   3.095   6.450  15.850  2.5944  0.0144 -2.4444
 4349TIP3   OH234537   4.019   5.338   5.420 -0.3149  0.3049  0.2055
 4349TIP3    H134538   4.111   5.363   5.426  0.0673 -1.0133  0.1451
 4349TIP3    H234539   3.977   5.411   5.375  0.9519  0.3518 -0.9662
 4350TIP3   OH234540   5.595   0.899   0.716 -0.0413 -0.6152 -0.3916
 4350TIP3    H134541   5.542   0.931   0.789  1.4822 -2.7408  1.8117
 4350TIP3    H234542   5.657   0.970   0.698 -0.2684 -0.1447  0.6130
 4351TIP3   OH234543   3.346   3.694   2.993 -0.1308 -0.0936  0.2410
 4351TIP3    H134544   3.344   3.753   3.068  0.5525 -1.3310  1.2976
 4351TIP3    H234545   3.263   3.708   2.947 -1.3446 -0.4767  2.2007
 4352TIP3   OH234546   6.201   0.172   1.111 -0.3044  0.1960 -0.1243
 4352TIP3    H134547   6.243   0.160   1.196  1.3318  0.5295 -0.8443
 4352TIP3    H234548   6.109   0.187   1.131 -0.0701 -0.4501  1.5359
 4353TIP3   OH234549   0.754   3.212  16.465  0.1219  0.0310  0.3834
 4353TIP3    H134550   0.743   3.168  16.549  2.4489  1.4553  1.5462
 4353TIP3    H234551   0.667   3.245  16.444 -0.6938 -1.1061  1.7914
 4354TIP3   OH234552   0.915   1.219   4.780 -0.0582  0.5390 -0.1633
 4354TIP3    H134553   0.908   1.286   4.712  1.7156  0.0421 -0.8789
 4354TIP3    H234554   0.911   1.136   4.732  1.8690  0.1826  0.2195
 4355TIP3   OH234555   4.713   2.722  11.761  0.7107 -0.6738  0.2385
 4355TIP3    H134556   4.624   2.713  11.727  0.7096  1.1983 -0.3895
 4355TIP3    H234557   4.703   2.768  11.845  1.1068  0.4643 -0.3083
 4356TIP3   OH234558   3.926   1.288  14.188  0.2269 -0.9369  0.1998
 4356TIP3    H134559   3.908   1.352  14.256  0.3856 -1.0944  0.3914
 4356TIP3    H234560   3.867   1.215  14.206  2.3142 -2.3254  2.0107
 4357TIP3   OH234561   6.580   6.523   3.355  0.0911  0.1683 -0.1424
 4357TIP3    H134562   6.569   6.574   3.435 -0.0466  0.5538 -0.4066
 4357TIP3    H234563   6.657   6.560   3.312 -0.6804  0.9213 -0.9062
 4358TIP3   OH234564   4.778   4.602  12.133  0.1163  0.0876  0.1161
 4358TIP3    H134565   4.859   4.554  12.112 -0.0797 -0.2953  0.2209
 4358TIP3    H234566   4.797   4.646  12.216  1.5439  3.1072 -1.6421
 4359TIP3   OH234567   2.137   6.428   4.484 -0.2253 -0.0410  0.4124
 4359TIP3    H134568   2.167   6.500   4.539  0.9624 -0.5380  0.4547
 4359TIP3    H234569   2.042   6.441   4.476 -1.0186 -1.5067  4.8887
 4360TIP3   OH234570   4.536   5.103   1.584  0.0863 -0.0712 -0.1746
 4360TIP3    H134571   4.609   5.163   1.568 -0.4705  0.6978  0.1024
 4360TIP3    H234572   4.484   5.147   1.651 -0.6949 -0.5581 -0.4588
 4361TIP3   OH234573   5.608   2.094  17.159  0.2711  0.6189 -0.3464
 4361TIP3    H134574   5.632   2.073  17.068  0.1822 -0.0693 -0.2181
 4361TIP3    H234575   5.673   2.046  17.212  0.7888  1.6195 -0.0523
 4362TIP3   OH234576   1.200   1.627  15.071 -0.1204 -0.6052  0.3888
 4362TIP3    H134577   1.133   1.561  15.085 -2.2479  1.0117 -1.3639
 4362TIP3    H234578   1.166   1.705  15.115 -1.8248  1.5207 -4.0697
 4363TIP3   OH234579   2.735   0.273  15.180  0.5912 -0.0073  0.1343
 4363TIP3    H134580   2.670   0.203  15.175  0.0333  0.5652 -0.8140
 4363TIP3    H234581   2.724   0.322  15.099 -0.6778  2.6507  1.7954
 4364TIP3   OH234582   6.128   4.496  11.691  0.4982  0.5313  0.2809
 4364TIP3    H134583   6.138   4.585  11.723  0.4330  0.3476  0.8194
 4364TIP3    H234584   6.048   4.498  11.639 -1.3513  0.0934  2.9030
 4365TIP3   OH234585   5.800   2.727   3.934 -0.0633  0.1470 -0.4012
 4365TIP3    H134586   5.880   2.689   3.898 -0.7247 -2.0931  0.3324
 4365TIP3    H234587   5.731   2.697   3.875 -0.7314 -0.7190  0.7783
 4366TIP3   OH234588   6.500   6.656   1.675 -0.1747  0.3075 -0.2934
 4366TIP3    H134589   6.464   6.669   1.587  1.1171  1.3108 -0.7136
 4366TIP3    H234590   6.569   6.722   1.682  0.6958 -0.6950  0.9532
 4367TIP3   OH234591   2.117   6.511   1.400 -0.5034  0.5643 -0.2143
 4367TIP3    H134592   2.164   6.585   1.363  0.1598 -0.2691 -1.0667
 4367TIP3    H234593   2.148   6.435   1.351 -0.7025 -0.3745  1.0646
 4368TIP3   OH234594   1.391   5.449   0.550 -0.7174  0.2266 -0.6081
 4368TIP3    H134595   1.395   5.356   0.572  1.4258  0.5026  0.3540
 4368TIP3    H234596   1.464   5.463   0.490 -1.5498  1.1590 -1.4611
 4369TIP3   OH234597   6.692   1.087   4.234 -0.4714 -0.3613 -0.2237
 4369TIP3    H134598   6.637   1.125   4.303  0.7544  3.5718 -1.1739
 4369TIP3    H234599   6.779   1.122   4.250  0.5314 -1.8458 -2.0253
 4370TIP3   OH234600   0.946   0.309   1.652  0.3776  0.3914  0.4210
 4370TIP3    H134601   0.855   0.323   1.626  0.4882 -1.2148 -1.0098
 4370TIP3    H234602   0.974   0.393   1.688 -1.2615  1.3125 -0.3494
 4371TIP3   OH234603   0.035   6.653   0.534  0.8699  0.1241  0.7489
 4371TIP3    H134604  -0.024   6.697   0.473  0.2583  0.6503  1.6943
 4371TIP3    H234605  -0.017   6.641   0.614  1.6961 -0.4023  1.2300
 4372TIP3   OH234606   0.037   3.599  14.332 -0.0131  0.0067  0.3810
 4372TIP3    H134607  -0.058   3.603  14.326 -0.1331 -2.1712  0.0384
 4372TIP3    H234608   0.055   3.598  14.426 -0.3222  0.5340  0.4456
 4373TIP3   OH234609   3.006   3.532  12.290  0.3934  0.6408 -0.3553
 4373TIP3    H134610   2.998   3.440  12.265  1.7438  0.1666  0.8555
 4373TIP3    H234611   3.001   3.532  12.386  0.2309  1.8634 -0.3429
 4374TIP3   OH234612   0.387   3.006  15.045 -0.1227 -0.3240  0.0042
 4374TIP3    H134613   0.344   3.006  14.960  0.1168 -1.6051 -0.1421
 4374TIP3    H234614   0.315   2.997  15.108 -0.1826 -1.2608 -0.1780
 4375TIP3   OH234615   4.948   5.944  13.885  0.6234 -0.6308 -0.1615
 4375TIP3    H134616   4.987   5.857  13.886  1.2874 -0.3424 -0.6675
 4375TIP3    H234617   4.979   5.985  13.966  0.7664 -0.6635 -0.2002
 4376TIP3   OH234618   5.159   5.882  11.613 -0.8574  0.1928  0.2456
 4376TIP3    H134619   5.077   5.878  11.564 -0.3195  1.9722 -0.9167
 4376TIP3    H234620   5.163   5.972  11.646  1.6269  0.9367 -1.7066
 4377TIP3   OH234621   0.908   2.420  16.129  0.1333  0.4360  0.3257
 4377TIP3    H134622   0.847   2.357  16.091  2.1782 -0.4494 -1.7310
 4377TIP3    H234623   0.929   2.385  16.215  0.1793 -0.9592 -0.2334
 4378TIP3   OH234624   1.779   4.050   5.181  0.2030 -0.3608  0.1068
 4378TIP3    H134625   1.713   4.009   5.125 -0.0351  0.8423 -0.5248
 4378TIP3    H234626   1.734   4.063   5.264 -0.2801  0.2149 -0.2406
 4379TIP3   OH234627   1.194   6.166   4.371  0.0189 -0.2976 -0.1333
 4379TIP3    H134628   1.177   6.101   4.302  0.5260  0.3322 -0.8659
 4379TIP3    H234629   1.192   6.116   4.452  0.3092 -1.2237 -0.6822
 4380TIP3   OH234630   0.885   0.921  16.890  0.0228  0.0138 -0.5510
 4380TIP3    H134631   0.976   0.926  16.862 -0.0939 -3.1517 -1.7886
 4380TIP3    H234632   0.889   0.880  16.977 -0.2504 -0.5115 -0.7868
 4381TIP3   OH234633   0.734   3.258   4.928  0.1455 -0.0749  0.1624
 4381TIP3    H134634   0.740   3.163   4.921 -2.9580 -0.2874 -1.0932
 4381TIP3    H234635   0.757   3.290   4.841 -1.2384  0.1092 -0.1517
 4382TIP3   OH234636   2.435   1.014  14.938  0.6123 -0.1896  0.4482
 4382TIP3    H134637   2.440   1.021  14.843 -2.4106  2.1663  0.3014
 4382TIP3    H234638   2.475   1.094  14.970 -3.0882  1.7714  0.7231
 4383TIP3   OH234639   4.364   6.397  14.777  0.0553  0.3895 -0.1813
 4383TIP3    H134640   4.327   6.441  14.853 -0.9600 -1.6414  0.5961
 4383TIP3    H234641   4.346   6.456  14.704 -1.9420  0.9365  0.6651
 4384TIP3   OH234642   1.906   5.451   0.357  0.0858 -0.3490  0.1231
 4384TIP3    H134643   1.911   5.498   0.274  1.1640  0.0252  0.3808
 4384TIP3    H234644   1.978   5.486   0.409  0.6679 -1.9677  0.4919
 4385TIP3   OH234645   2.263   3.445  10.919 -0.2080 -0.0248  0.1650
 4385TIP3    H134646   2.268   3.384  10.845 -0.0347 -0.0874  0.2281
 4385TIP3    H234647   2.188   3.500  10.899 -1.1199 -1.0315  0.7033
 4386TIP3   OH234648   0.040   0.296   0.550 -0.5042 -0.1316 -0.3706
 4386TIP3    H134649   0.131   0.285   0.522 -0.7114 -0.9070 -0.7971
 4386TIP3    H234650   0.004   0.207   0.550 -1.5837  0.2591 -1.3600
 4387TIP3   OH234651   6.492   4.699   5.448 -0.4196  0.6204  0.0480
 4387TIP3    H134652   6.476   4.614   5.406  1.6573  0.3965 -0.4074
 4387TIP3    H234653   6.474   4.763   5.379  0.3816  0.3913 -0.3930
 4388TIP3   OH234654   5.407   0.180   4.382 -0.5135 -0.0614  0.1612
 4388TIP3    H134655   5.503   0.182   4.371 -0.5718 -0.2847 -0.4414
 4388TIP3    H234656   5.373   0.185   4.292 -1.0621 -0.2075  0.3603
 4389TIP3   OH234657   3.999   5.289   1.889 -0.0275 -0.0281  0.6896
 4389TIP3    H134658   3.936   5.241   1.943 -2.2624  2.0008  0.0654
 4389TIP3    H234659   4.030   5.360   1.945  1.4608 -0.7512  0.8424
 4390TIP3   OH234660   6.378   0.295  17.244 -0.3057  0.0985  0.8193
 4390TIP3    H134661   6.464   0.324  17.214 -0.5365 -0.0648 -0.0296
 4390TIP3    H234662   6.397   0.231  17.312  0.2284  0.6436  1.1967
 4391TIP3   OH234663   0.266   4.061  16.070  0.0823 -0.6400  0.2793
 4391TIP3    H134664   0.289   4.032  15.981 -3.0111 -0.7313 -0.5889
 4391TIP3    H234665   0.329   4.015  16.126  1.2785 -1.6504 -1.7541
 4392TIP3   OH234666   1.402   2.130   2.404 -0.3971  0.2225 -0.4331
 4392TIP3    H134667   1.440   2.217   2.415  0.6241 -0.2532  0.0033
 4392TIP3    H234668   1.332   2.125   2.469 -1.4897  1.2456 -1.4908
 4393TIP3   OH234669   6.757   3.903   1.136  0.4561  0.1516  0.1838
 4393TIP3    H134670   6.730   3.842   1.068 -2.8159 -0.8127  2.1197
 4393TIP3    H234671   6.707   3.983   1.119 -2.3938 -0.9156  2.6083
 4394TIP3   OH234672   5.963   5.306   3.280  0.0801 -0.4225 -0.3615
 4394TIP3    H134673   5.992   5.331   3.367 -1.5571  0.8955 -0.1279
 4394TIP3    H234674   5.988   5.214   3.271 -0.4455 -0.8368  1.8285
 4395TIP3   OH234675   2.255   5.228   1.643 -0.2802  0.7157  0.2156
 4395TIP3    H134676   2.173   5.255   1.685 -0.6023  0.8914 -0.5196
 4395TIP3    H234677   2.309   5.195   1.715 -0.2397  2.4173  1.0076
 4396TIP3   OH234678   2.216   5.742  17.262 -0.4061 -0.9426  0.0149
 4396TIP3    H134679   2.236   5.836  17.255  0.4303 -1.1518 -0.6269
 4396TIP3    H234680   2.247   5.706  17.179  1.3639 -2.1571  1.1391
 4397TIP3   OH234681   3.097   5.455   3.652 -0.1028 -0.8442  0.4256
 4397TIP3    H134682   3.083   5.549   3.666 -0.5814 -0.9687  0.7978
 4397TIP3    H234683   3.031   5.413   3.707 -0.2504 -1.3922 -0.1757
 4398TIP3   OH234684   4.450   5.955  15.868 -0.5257  0.1798  0.0554
 4398TIP3    H134685   4.500   5.948  15.787 -2.4732 -0.2460 -1.1783
 4398TIP3    H234686   4.358   5.947  15.841 -1.3028  1.0332  2.1891
 4399TIP3   OH234687   5.263   4.120  15.586 -0.0372 -0.1483 -0.4097
 4399TIP3    H134688   5.272   4.106  15.680 -2.5259 -0.5852 -0.1635
 4399TIP3    H234689   5.299   4.207  15.570  3.8003 -1.3935  0.2419
 4400TIP3   OH234690   5.309   6.771   5.827  0.0066  0.1584  0.6165
 4400TIP3    H134691   5.288   6.678   5.821  1.5410 -0.2760  1.3058
 4400TIP3    H234692   5.324   6.786   5.921 -2.0453  1.5601  0.7756
 4401TIP3   OH234693   4.134   3.612  14.146 -0.2006 -0.0399  0.2807
 4401TIP3    H134694   4.133   3.525  14.107  0.5022 -0.3304  0.8867
 4401TIP3    H234695   4.093   3.600  14.232  1.0811 -0.0550  0.9095
 4402TIP3   OH234696   5.567   3.378  17.049 -0.0108 -0.4984  0.1014
 4402TIP3    H134697   5.516   3.326  17.111  0.6383 -0.7673  0.4109
 4402TIP3    H234698   5.518   3.460  17.041 -0.1481 -0.4968  0.8965
 4403TIP3   OH234699   1.999   6.639  14.704 -0.6609  0.4442  0.1694
 4403TIP3    H134700   1.940   6.608  14.635  0.3543 -1.2665  0.0196
 4403TIP3    H234701   1.941   6.657  14.778 -1.3894 -1.7312  0.2167
 4404TIP3   OH234702   1.092   5.139   5.747  0.1660 -0.2908 -0.1414
 4404TIP3    H134703   1.016   5.081   5.748 -0.2650  0.2703  0.2745
 4404TIP3    H234704   1.099   5.171   5.837  0.9103 -0.3548 -0.1669
 4405TIP3   OH234705   2.497   0.246  16.519  0.6142  0.5714  0.0783
 4405TIP3    H134706   2.574   0.294  16.551  0.9855  0.3747 -0.4993
 4405TIP3    H234707   2.527   0.155  16.514  0.6574  0.6342 -1.0716
 4406TIP3   OH234708   0.200   2.219   5.026 -0.1705 -0.5266  0.0815
 4406TIP3    H134709   0.263   2.186   4.963 -0.1092 -1.0467  0.4080
 4406TIP3    H234710   0.253   2.259   5.095 -0.2519  0.6392 -0.5014
 4407TIP3   OH234711   0.784   4.938  14.786 -0.4594 -0.4416 -0.0365
 4407TIP3    H134712   0.848   4.913  14.719 -0.3642 -2.7711  0.8341
 4407TIP3    H234713   0.716   4.986  14.738  1.4546  1.3847 -1.1159
 4408TIP3   OH234714   1.552   6.714   5.026  0.6098 -0.4983 -0.1746
 4408TIP3    H134715   1.553   6.621   5.003  2.6911 -0.9870  1.5286
 4408TIP3    H234716   1.462   6.731   5.053 -0.1411 -1.6407 -1.7937
 4409TIP3   OH234717   0.334   1.673  12.607  0.0579  0.1081 -0.0490
 4409TIP3    H134718   0.414   1.662  12.658  0.2163  0.4442 -0.2190
 4409TIP3    H234719   0.355   1.742  12.544  0.5613 -1.6225 -1.9188
 4410TIP3   OH234720   2.596   0.682  15.782 -0.2829  0.2258  0.1444
 4410TIP3    H134721   2.628   0.645  15.864  0.2489  1.0148  0.3098
 4410TIP3    H234722   2.514   0.636  15.764 -1.0707  0.9148  1.7924
 4411TIP3   OH234723   1.297   4.104  12.016 -0.0234 -0.2484 -0.1890
 4411TIP3    H134724   1.299   4.165  11.943 -0.5704  0.3477  0.2853
 4411TIP3    H234725   1.204   4.084  12.029 -0.0360  0.5021  1.0252
 4412TIP3   OH234726   3.716   5.629   6.128  0.0638 -0.1432  0.2315
 4412TIP3    H134727   3.623   5.615   6.143 -0.1904  0.7953 -0.4304
 4412TIP3    H234728   3.730   5.606   6.036 -0.0385  2.1679 -0.4043
 4413TIP3   OH234729   1.565   1.250   4.870  0.8313 -0.0172 -0.2830
 4413TIP3    H134730   1.636   1.218   4.814  0.5314  0.2327 -0.8105
 4413TIP3    H234731   1.485   1.229   4.822  0.4984 -0.9634  0.6378
 4414TIP3   OH234732   5.687   2.046   1.873 -0.2203  0.4929  0.4309
 4414TIP3    H134733   5.731   1.995   1.941  0.5162  2.2557  1.3438
 4414TIP3    H234734   5.649   2.120   1.919 -1.5589  0.6352 -0.8056
 4415TIP3   OH234735   5.934   3.786   1.644  0.4263 -0.2193  0.7635
 4415TIP3    H134736   5.920   3.698   1.680  0.4078 -0.7247 -0.4378
 4415TIP3    H234737   6.029   3.795   1.641  0.4354  0.2503  1.9023
 4416TIP3   OH234738   0.099   6.164  12.787  0.2951 -0.7091  0.2194
 4416TIP3    H134739   0.011   6.129  12.801  0.0516 -0.5019 -0.6871
 4416TIP3    H234740   0.086   6.241  12.732  0.9232  0.2325  1.3723
 4417TIP3   OH234741   4.129   0.824  14.599 -0.3699  0.1967  0.0109
 4417TIP3    H134742   4.085   0.739  14.606  1.1156 -0.6791 -0.8024
 4417TIP3    H234743   4.076   0.883  14.653 -0.6444 -1.5588  1.7746
 4418TIP3   OH234744   4.057   0.547   6.250  0.3997 -0.4192 -0.5834
 4418TIP3    H134745   4.031   0.637   6.230  0.6070  0.1172  1.3828
 4418TIP3    H234746   4.141   0.536   6.204  2.1047  1.6099  1.7289
 4419TIP3   OH234747   2.085   4.612  12.327 -0.7925  0.1937  0.2469
 4419TIP3    H134748   2.106   4.699  12.292  1.2612 -0.6355 -0.7151
 4419TIP3    H234749   2.072   4.558  12.249  1.1738 -1.0790  0.7415
 4420TIP3   OH234750   5.570   0.471   5.585 -0.1823 -0.5313 -0.4332
 4420TIP3    H134751   5.603   0.390   5.546  2.7619  0.6430 -0.6434
 4420TIP3    H234752   5.482   0.480   5.549  0.0459 -2.7242 -1.7579
 4421TIP3   OH234753   6.500   1.549   2.308  0.2066 -0.3234  0.1803
 4421TIP3    H134754   6.546   1.472   2.275 -1.4380 -0.7993 -1.1577
 4421TIP3    H234755   6.444   1.516   2.378 -1.0549 -0.5398 -0.8863
 4422TIP3   OH234756   2.537   2.578  11.880 -0.0229  0.2928  0.2276
 4422TIP3    H134757   2.589   2.524  11.939 -0.2621  0.6589  0.7715
 4422TIP3    H234758   2.483   2.632  11.937 -1.0674 -0.1348 -0.3222
 4423TIP3   OH234759   0.744   1.628  16.946 -0.2310 -0.4342  0.0031
 4423TIP3    H134760   0.743   1.679  16.865  1.7270  0.1686  0.3169
 4423TIP3    H234761   0.695   1.682  17.008  1.0382  0.6891  0.0804
 4424TIP3   OH234762   4.203   2.880  14.148 -0.5970  0.4730 -0.2872
 4424TIP3    H134763   4.246   2.958  14.114  0.7088  1.0814  2.4684
 4424TIP3    H234764   4.113   2.908  14.165 -0.3914  1.1126 -0.2140
 4425TIP3   OH234765   6.229   5.859   1.210  0.3080  0.0228  0.2156
 4425TIP3    H134766   6.273   5.846   1.294  0.3034  0.2124  0.2466
 4425TIP3    H234767   6.137   5.870   1.232  0.3835  0.6344  0.2324
 4426TIP3   OH234768   0.883   3.523   1.446  0.5014  0.2264 -0.2062
 4426TIP3    H134769   0.880   3.586   1.374 -0.7104  0.5133  0.0818
 4426TIP3    H234770   0.946   3.457   1.417 -0.1540  0.1970 -1.6385
 4427TIP3   OH234771   4.318   0.405  16.881 -0.9519 -0.6074  0.2224
 4427TIP3    H134772   4.317   0.384  16.975 -0.3727 -1.4126  0.0585
 4427TIP3    H234773   4.267   0.336  16.840 -0.5426 -0.7021 -0.1358
 4428TIP3   OH234774   1.283   6.503  14.587 -0.5067 -0.0875  0.1548
 4428TIP3    H134775   1.344   6.552  14.531 -1.7153  1.5268  0.1957
 4428TIP3    H234776   1.280   6.416  14.548  0.9042  0.1481 -0.5516
 4429TIP3   OH234777   2.692   1.852  13.417 -0.2437  0.4114  0.0455
 4429TIP3    H134778   2.713   1.841  13.510 -2.2872 -0.3245  0.4765
 4429TIP3    H234779   2.739   1.782  13.373  0.2740  0.4053  0.5982
 4430TIP3   OH234780   0.520   0.358  14.285 -0.2883 -0.0511 -0.2028
 4430TIP3    H134781   0.463   0.343  14.209  0.6319 -0.8772 -0.7551
 4430TIP3    H234782   0.585   0.421  14.254  0.8097 -1.2941 -0.5111
 4431TIP3   OH234783   5.194   5.362   2.048  0.1378  0.0179  0.1019
 4431TIP3    H134784   5.277   5.398   2.016  0.9194 -0.2596  1.7153
 4431TIP3    H234785   5.180   5.284   1.995  0.8852  0.0906 -0.2219
 4432TIP3   OH234786   4.595   1.411   0.666 -0.2293  0.1893  0.1433
 4432TIP3    H134787   4.580   1.412   0.761  1.2225  1.3808  0.3911
 4432TIP3    H234788   4.549   1.489   0.634  1.3340  1.2115  0.2602
 4433TIP3   OH234789   2.459   3.101   5.843 -0.5245 -0.0274  0.0264
 4433TIP3    H134790   2.465   3.006   5.856  1.5159  0.2132  1.2268
 4433TIP3    H234791   2.426   3.134   5.927  0.0726  0.4266  0.0853
 4434TIP3   OH234792   4.690   6.600   5.819 -0.4511 -0.2888  0.5671
 4434TIP3    H134793   4.771   6.635   5.855 -0.8490  0.8355  0.3926
 4434TIP3    H234794   4.659   6.666   5.758 -1.5409 -0.6577  0.6868
 4435TIP3   OH234795   6.655   5.595  13.856 -0.0344  0.1111  0.4094
 4435TIP3    H134796   6.710   5.671  13.841  2.6610 -2.1163 -2.2515
 4435TIP3    H234797   6.700   5.545  13.924  0.2861 -0.8424 -0.4794
 4436TIP3   OH234798   1.979   1.649   4.281 -0.2111  0.7146  0.0849
 4436TIP3    H134799   2.012   1.682   4.198 -1.4376 -1.1322 -1.1939
 4436TIP3    H234800   1.886   1.670   4.280 -0.2427  0.6511  0.9975
 4437TIP3   OH234801   4.564   3.939   2.119 -0.3208 -0.0602 -0.4787
 4437TIP3    H134802   4.649   3.954   2.160  0.6579 -4.4545 -0.3754
 4437TIP3    H234803   4.504   3.923   2.192 -0.5138  0.0628 -0.6079
 4438TIP3   OH234804   2.008   1.902  14.507  0.1988  0.2292 -0.0193
 4438TIP3    H134805   2.056   1.981  14.482  0.5807 -0.6808 -2.4858
 4438TIP3    H234806   2.074   1.833  14.506  0.0132 -0.1066  2.7848
 4439TIP3   OH234807   0.483   6.320   2.843 -0.2264 -0.2065 -0.1219
 4439TIP3    H134808   0.443   6.277   2.767 -0.5931  0.2872 -0.2155
 4439TIP3    H234809   0.410   6.338   2.902  0.1092 -0.9944  0.5694
 4440TIP3   OH234810   6.482   6.462  11.717 -0.0177 -0.0099 -0.0968
 4440TIP3    H134811   6.402   6.484  11.669  0.6682  0.9016 -0.8715
 4440TIP3    H234812   6.451   6.433  11.803 -1.1788  0.2105 -0.4163
 4441TIP3   OH234813   0.217   5.288   6.603 -0.4556 -0.0831  0.2415
 4441TIP3    H134814   0.304   5.328   6.606 -0.1370 -0.7843  0.7101
 4441TIP3    H234815   0.227   5.206   6.652 -1.4216 -0.0914  0.4448
 4442TIP3   OH234816   2.938   4.522   1.702  0.1449  0.4178  0.0629
 4442TIP3    H134817   2.959   4.534   1.609 -0.4148  1.2241  0.0316
 4442TIP3    H234818   2.844   4.505   1.703 -0.0309  1.3250  0.5387
 4443TIP3   OH234819   6.292   5.164   3.928 -0.2269  0.2911 -0.0951
 4443TIP3    H134820   6.344   5.168   3.847 -0.2184 -0.4584 -0.1336
 4443TIP3    H234821   6.337   5.100   3.982  0.9565  2.2653  1.3773
 4444TIP3   OH234822   1.956   3.890   3.736 -0.2764 -0.1699 -0.2181
 4444TIP3    H134823   1.999   3.892   3.821 -0.9481  0.7158  0.1292
 4444TIP3    H234824   2.004   3.954   3.683 -0.9124  0.5466  0.0533
 4445TIP3   OH234825   1.484   4.117   3.173 -0.2375 -0.2810 -0.2446
 4445TIP3    H134826   1.452   4.082   3.256 -0.3667 -0.4524 -0.3649
 4445TIP3    H234827   1.480   4.042   3.113 -0.2116 -0.1411 -0.4215
 4446TIP3   OH234828   6.537   3.780   5.536 -0.3614 -1.3585  0.2488
 4446TIP3    H134829   6.567   3.718   5.603  2.4690  0.4385  0.8473
 4446TIP3    H234830   6.503   3.854   5.586 -0.5716 -1.0340 -0.3663
 4447TIP3   OH234831   2.770   6.347  14.170  0.2986  0.6289 -0.0650
 4447TIP3    H134832   2.858   6.328  14.139  0.6172  0.3820  0.9380
 4447TIP3    H234833   2.712   6.308  14.105  0.9054  1.7139 -1.2942
 4448TIP3   OH234834   5.769   4.786  16.207  0.3286  0.3816  0.0727
 4448TIP3    H134835   5.761   4.850  16.137 -2.8840  0.4607  0.3357
 4448TIP3    H234836   5.858   4.797  16.241  0.5014  3.4036 -1.0882
 4449TIP3   OH234837   5.662   3.549   2.690 -0.7248 -0.3156 -0.0140
 4449TIP3    H134838   5.626   3.617   2.747  0.9740  0.1170  0.6139
 4449TIP3    H234839   5.595   3.535   2.623 -0.5685  3.0283 -1.0407
 4450TIP3   OH234840   2.859   5.098  14.332  0.6305  0.3389  0.0014
 4450TIP3    H134841   2.772   5.067  14.359  0.0109  0.2753 -1.9009
 4450TIP3    H234842   2.910   5.018  14.321  0.9403  0.3722  1.0386
 4451TIP3   OH234843   0.148   5.415  16.626  0.4484  0.7026  0.1081
 4451TIP3    H134844   0.179   5.340  16.576 -2.3193 -0.9212  0.6170
 4451TIP3    H234845   0.068   5.443  16.581 -0.5323  1.0150  1.9478
 4452TIP3   OH234846   6.701   0.786  11.371  0.2855  0.6445 -0.4129
 4452TIP3    H134847   6.635   0.844  11.332 -2.3265 -2.1034 -0.4717
 4452TIP3    H234848   6.692   0.800  11.466  1.2155  1.8047 -0.4685
 4453TIP3   OH234849   6.249   4.922   3.762 -0.1912 -0.2391  0.3860
 4453TIP3    H134850   6.217   4.996   3.711 -0.2785  0.0350  0.8257
 4453TIP3    H234851   6.285   4.861   3.698  2.6600  1.5100  0.1855
 4454TIP3   OH234852   1.587   4.615   0.299  0.4112 -0.1364 -0.9336
 4454TIP3    H134853   1.540   4.531   0.305 -2.0587  1.1952 -0.3934
 4454TIP3    H234854   1.592   4.633   0.205 -0.2180 -0.2984 -1.0063
 4455TIP3   OH234855   0.940   5.924   0.048  0.0689 -1.0869  0.1330
 4455TIP3    H134856   0.953   5.928   0.143  0.7588  1.1502  0.0008
 4455TIP3    H234857   0.853   5.885   0.038 -0.5395 -0.2299  1.7470
 4456TIP3   OH234858   0.667   3.401   2.328  0.0435 -0.3228 -0.2147
 4456TIP3    H134859   0.621   3.482   2.352 -2.7374 -1.8768  0.1093
 4456TIP3    H234860   0.705   3.370   2.410 -0.4187 -0.2521  0.0287
 4457TIP3   OH234861   5.951   0.841  13.798  0.2602 -0.0977 -0.2935
 4457TIP3    H134862   5.891   0.912  13.821  0.7971 -0.3823  2.2470
 4457TIP3    H234863   5.897   0.762  13.796  0.0426  0.0588 -1.0596
 4458TIP3   OH234864   0.637   0.900  16.757  0.2933  0.7564 -0.0315
 4458TIP3    H134865   0.581   0.859  16.823 -2.1493 -0.4788 -2.6790
 4458TIP3    H234866   0.722   0.858  16.768 -0.8317 -1.5381  0.5160
 4459TIP3   OH234867   1.525   0.259  15.855  0.1111 -0.3056  0.2946
 4459TIP3    H134868   1.494   0.189  15.798  2.1191 -0.7146 -0.3679
 4459TIP3    H234869   1.547   0.215  15.937  0.5679 -0.3250  0.1651
 4460TIP3   OH234870   6.413   5.260   4.505  0.1520  0.1844 -0.3507
 4460TIP3    H134871   6.409   5.298   4.592 -0.6923  0.6477 -0.5755
 4460TIP3    H234872   6.500   5.283   4.472  0.1436  0.7890  0.0286
 4461TIP3   OH234873   5.335   2.237   5.687 -0.7478 -0.0361 -0.0021
 4461TIP3    H134874   5.293   2.177   5.748  0.0754 -1.1176 -0.4731
 4461TIP3    H234875   5.396   2.183   5.638  1.1820  1.4370  0.6209
 4462TIP3   OH234876   4.328   4.197  15.814 -1.2727 -0.4391  0.1677
 4462TIP3    H134877   4.400   4.216  15.754 -2.4693 -0.7965 -1.4747
 4462TIP3    H234878   4.265   4.267  15.798 -1.3611 -0.1938  1.4930
 4463TIP3   OH234879   6.290   2.543  14.012  0.1692 -0.0020 -0.0395
 4463TIP3    H134880   6.205   2.507  14.038  0.1001 -0.1183 -0.4249
 4463TIP3    H234881   6.309   2.502  13.928 -0.6418  1.9951 -1.2617
 4464TIP3   OH234882   0.290   3.322   2.073  0.2429  0.5701  0.0193
 4464TIP3    H134883   0.247   3.346   2.155  0.9701  1.3202  0.1967
 4464TIP3    H234884   0.293   3.227   2.075 -2.7354  0.3540 -0.7071
 4465TIP3   OH234885   3.074   6.775   2.366 -0.4766  0.1919 -0.5674
 4465TIP3    H134886   3.169   6.774   2.375 -0.4056 -2.5421 -0.9009
 4465TIP3    H234887   3.059   6.759   2.273 -1.2824  0.3860 -0.4742
 4466TIP3   OH234888   6.141   6.014   4.342 -0.2202 -0.0124  0.4126
 4466TIP3    H134889   6.149   6.086   4.280 -0.0496 -0.6026 -0.2676
 4466TIP3    H234890   6.052   6.021   4.376 -0.5371 -0.0560 -0.3854
 4467TIP3   OH234891   4.948   2.902   3.218  0.7894  0.8043  0.3795
 4467TIP3    H134892   4.876   2.900   3.156  0.6874  2.3741  0.4113
 4467TIP3    H234893   4.934   2.982   3.269  0.7356 -0.5334  2.6061
 4468TIP3   OH234894   1.250   6.360  17.186  0.0052 -0.0926  0.4237
 4468TIP3    H134895   1.222   6.352  17.278 -0.8448 -2.6866  0.0041
 4468TIP3    H234896   1.169   6.374  17.138  0.2502 -0.4709 -0.1033
 4469TIP3   OH234897   3.303   0.042   1.778 -0.1883  0.1962  0.4320
 4469TIP3    H134898   3.369  -0.017   1.814 -0.8787 -1.1487 -0.4393
 4469TIP3    H234899   3.353   0.118   1.748  1.0914 -1.1360 -0.9380
 4470TIP3   OH234900   1.471   5.399   1.558 -0.3495  0.2883  0.5165
 4470TIP3    H134901   1.511   5.472   1.604 -1.0283  1.1688 -0.2448
 4470TIP3    H234902   1.531   5.378   1.487 -1.3347  1.8536 -0.8538
 4471TIP3   OH234903   6.310   5.477  15.374  0.2304  0.6642  0.6574
 4471TIP3    H134904   6.296   5.409  15.309  3.5555  0.3082  0.1548
 4471TIP3    H234905   6.234   5.535  15.366 -0.8575 -0.9490 -1.4597
 4472TIP3   OH234906   0.392   3.746  16.222 -0.3648  0.0246  0.3641
 4472TIP3    H134907   0.439   3.688  16.281 -1.3874  0.5417  1.7337
 4472TIP3    H234908   0.372   3.691  16.146  0.7586 -0.7213  0.5839
 4473TIP3   OH234909   5.964   0.946   2.719  0.2853  0.2989  0.0930
 4473TIP3    H134910   5.877   0.947   2.678  0.0749  1.5316  0.5269
 4473TIP3    H234911   6.021   0.906   2.653 -0.3463  0.7843 -0.7708
 4474TIP3   OH234912   3.053   5.329   6.547 -0.1943 -0.0510 -0.2436
 4474TIP3    H134913   2.961   5.324   6.524 -0.7585  1.6930  1.3474
 4474TIP3    H234914   3.084   5.409   6.504  0.3189 -0.1090  0.0120
 4475TIP3   OH234915   4.173   3.630   4.363  0.1307  0.2801  0.2077
 4475TIP3    H134916   4.261   3.592   4.362 -0.5874 -1.5860 -1.4870
 4475TIP3    H234917   4.187   3.724   4.362  2.1618  0.0395 -1.1764
 4476TIP3   OH234918   3.797   5.644   0.130 -0.5336 -0.1250 -0.0476
 4476TIP3    H134919   3.737   5.573   0.149 -0.9961  0.2429 -0.0985
 4476TIP3    H234920   3.757   5.690   0.056 -0.8508  0.8844  0.7245
 4477TIP3   OH234921   5.738   1.124   0.755  0.4823 -0.2243  0.3856
 4477TIP3    H134922   5.772   1.165   0.676 -1.3350 -0.0601 -0.3612
 4477TIP3    H234923   5.816   1.093   0.802  1.5919 -0.4195 -1.5053
 4478TIP3   OH234924   0.794   0.715  15.452  0.0087  0.3193 -0.3147
 4478TIP3    H134925   0.732   0.652  15.415 -0.3783  0.1643  0.5562
 4478TIP3    H234926   0.857   0.732  15.382  0.7963 -1.9252 -0.2164
 4479TIP3   OH234927   2.142   4.828   0.320  0.2736  0.2615 -0.6810
 4479TIP3    H134928   2.197   4.902   0.294 -0.7353  1.9556  1.6178
 4479TIP3    H234929   2.059   4.842   0.275 -0.1988  1.0729  0.3836
 4480TIP3   OH234930   3.844   2.878  12.225 -0.8561  0.5273  0.4759
 4480TIP3    H134931   3.841   2.832  12.141  0.2425 -0.0691  0.7504
 4480TIP3    H234932   3.917   2.940  12.215 -0.3593  0.0568  1.1902
 4481TIP3   OH234933   1.763   1.408   3.672 -0.7264 -0.0168 -0.3509
 4481TIP3    H134934   1.825   1.480   3.683 -0.1315 -0.5844  0.0372
 4481TIP3    H234935   1.696   1.424   3.740  0.7365 -1.2059  1.4635
 4482TIP3   OH234936   2.519   1.090  14.682 -0.5375 -0.5559 -0.3164
 4482TIP3    H134937   2.495   1.074  14.590  0.7806 -2.9990 -0.3258
 4482TIP3    H234938   2.608   1.054  14.690 -0.9109 -1.1087  2.0691
 4483TIP3   OH234939   6.151   0.249  11.243  0.0371 -0.0062 -0.4800
 4483TIP3    H134940   6.140   0.335  11.284  0.3164  0.6426 -1.7275
 4483TIP3    H234941   6.215   0.263  11.174 -0.2242 -1.1368 -0.9725
 4484TIP3   OH234942   4.595   5.820   1.491 -0.1176  0.7120  0.7745
 4484TIP3    H134943   4.559   5.853   1.574  0.9127  0.3464  1.3736
 4484TIP3    H234944   4.519   5.818   1.432 -1.1545 -0.2877  2.0818
 4485TIP3   OH234945   5.888   1.897  14.050  0.2974  0.1682  0.0336
 4485TIP3    H134946   5.884   1.889  13.955  0.8285 -0.4757  0.0607
 4485TIP3    H234947   5.816   1.956  14.072  0.1359  0.2773 -0.7596
 4486TIP3   OH234948   2.165   2.946  14.703 -0.7462  0.1407 -0.2082
 4486TIP3    H134949   2.119   3.028  14.691  0.2965  0.6878 -0.6217
 4486TIP3    H234950   2.162   2.903  14.618  0.5445  0.7480 -0.5784
 4487TIP3   OH234951   3.168   4.265  12.379 -0.3490 -0.1659 -0.4188
 4487TIP3    H134952   3.136   4.196  12.436 -1.3380  1.0061  0.4895
 4487TIP3    H234953   3.250   4.293  12.420 -1.9411  1.9094  1.5588
 4488TIP3   OH234954   4.578   1.747  14.772 -0.0227 -0.5593  0.2362
 4488TIP3    H134955   4.634   1.681  14.814  1.6781 -0.2072 -1.3368
 4488TIP3    H234956   4.632   1.826  14.770 -0.4511 -0.2731 -1.5638
 4489TIP3   OH234957   1.891   4.055   2.382 -0.4504 -0.6738  0.0111
 4489TIP3    H134958   1.814   4.110   2.370 -0.6785 -1.3250 -1.7099
 4489TIP3    H234959   1.957   4.115   2.418 -1.3215  0.2096  0.1916
 4490TIP3   OH234960   0.741   4.335  16.863 -0.2909 -0.1171  0.1211
 4490TIP3    H134961   0.776   4.366  16.780 -1.0910  0.4121 -0.0313
 4490TIP3    H234962   0.709   4.414  16.906 -1.3628 -0.5920  0.2131
 4491TIP3   OH234963   3.512   4.568   2.044  0.0073 -0.3058  0.3334
 4491TIP3    H134964   3.538   4.559   2.135  0.5414 -1.0884  0.1130
 4491TIP3    H234965   3.443   4.502   2.032 -1.4686  1.1084  0.6637
 4492TIP3   OH234966   3.464   4.650   3.139 -0.3270  0.9994 -0.3955
 4492TIP3    H134967   3.404   4.715   3.177  1.9990  2.4875  0.9435
 4492TIP3    H234968   3.551   4.686   3.155  0.9444 -0.4362 -3.4082
 4493TIP3   OH234969   2.632   1.169   5.733  0.0109 -0.4473  0.6954
 4493TIP3    H134970   2.723   1.190   5.716 -0.5665 -0.2345 -2.8107
 4493TIP3    H234971   2.626   1.074   5.725  0.1522 -0.6440  2.5483
 4494TIP3   OH234972   2.831   3.633   5.477  0.0674 -0.3882  0.5267
 4494TIP3    H134973   2.863   3.596   5.395  1.8778  0.8093  0.6440
 4494TIP3    H234974   2.736   3.642   5.464  0.4540  0.9140 -1.9205
 4495TIP3   OH234975   0.395   1.428  14.194  0.1927  0.3359 -0.1814
 4495TIP3    H134976   0.450   1.356  14.162  1.0909  0.9245  0.0017
 4495TIP3    H234977   0.382   1.409  14.286 -0.5079 -0.1715 -0.3772
 4496TIP3   OH234978   0.289   5.812  16.036  0.5081  0.2549  0.2208
 4496TIP3    H134979   0.251   5.886  16.083 -1.6747 -0.7602  0.2002
 4496TIP3    H234980   0.341   5.767  16.101 -3.4296 -1.8376  2.3226
 4497TIP3   OH234981   5.499   4.546  16.448  0.4127 -0.4918  0.5085
 4497TIP3    H134982   5.523   4.608  16.517  0.8781 -0.0529 -0.0335
 4497TIP3    H234983   5.409   4.571  16.425  1.1733  1.1745 -0.9160
 4498TIP3   OH234984   3.268   5.698   0.861 -1.0788 -0.4533 -0.1159
 4498TIP3    H134985   3.262   5.792   0.846  0.8508 -0.1273  0.9509
 4498TIP3    H234986   3.270   5.660   0.773  2.4548  0.8496 -0.7440
 4499TIP3   OH234987   0.987   2.280  15.712 -0.4324 -0.8026  0.5021
 4499TIP3    H134988   1.056   2.266  15.777  0.1669  0.8598  0.2957
 4499TIP3    H234989   0.970   2.194  15.675  0.9611 -1.3875  1.1476
 4500TIP3   OH234990   5.614   2.332   3.814 -0.1729 -0.0097 -0.6256
 4500TIP3    H134991   5.675   2.298   3.748 -1.1341  0.2960 -1.7077
 4500TIP3    H234992   5.558   2.258   3.834  0.6592 -0.3578  0.5442
 4501TIP3   OH234993   4.724   2.284  12.144  0.2978  0.4390  0.1318
 4501TIP3    H134994   4.687   2.347  12.083 -1.0325  3.2459  3.5101
 4501TIP3    H234995   4.818   2.286  12.128  0.2917  3.2840  0.0303
 4502TIP3   OH234996   1.809   2.266  14.337  0.1544  0.0926 -0.2775
 4502TIP3    H134997   1.876   2.301  14.396  0.4941 -1.2031  0.1452
 4502TIP3    H234998   1.731   2.259  14.391  0.5183 -1.2873  0.1372
 4503TIP3   OH234999   3.450   2.355  14.333  0.6952  0.2634  0.1280
 4503TIP3    H135000   3.457   2.416  14.406  2.6881  0.2065  0.0378
 4503TIP3    H235001   3.539   2.347  14.299 -0.2025  0.5966 -2.5804
 4504TIP3   OH235002   0.836   2.298   4.362 -0.1647 -0.4372 -0.2016
 4504TIP3    H135003   0.799   2.309   4.274  0.1525 -0.9277 -0.4014
 4504TIP3    H235004   0.838   2.387   4.398 -0.6668 -0.2868 -0.5373
 4505TIP3   OH235005   1.198   0.893   2.008  0.0054  0.1552 -0.5693
 4505TIP3    H135006   1.124   0.877   1.949 -0.4970  1.4803 -0.3324
 4505TIP3    H235007   1.235   0.976   1.979 -0.3239  0.9004  0.9973
 4506TIP3   OH235008   5.963   3.566   4.033  0.3383 -0.3402 -0.1186
 4506TIP3    H135009   6.035   3.553   3.971  0.8096  0.5551  0.2187
 4506TIP3    H235010   5.925   3.650   4.007  0.2127 -0.2075  0.4858
 4507TIP3   OH235011   0.951   4.115  15.717 -1.0584 -0.1136  0.2839
 4507TIP3    H135012   0.911   4.073  15.641  0.6983  0.2185 -0.8791
 4507TIP3    H235013   0.964   4.044  15.779  0.4174 -1.0703 -1.0287
 4508TIP3   OH235014   5.547   3.099   3.026 -0.6028 -0.4860  0.2888
 4508TIP3    H135015   5.606   3.156   3.076 -0.7405 -0.7574  0.7645
 4508TIP3    H235016   5.563   3.122   2.935 -1.0012  0.6605  0.4921
 4509TIP3   OH235017   0.905   1.464  16.012 -0.7150 -0.3706  0.1540
 4509TIP3    H135018   0.923   1.384  16.062  0.1137 -1.1936 -1.3751
 4509TIP3    H235019   0.828   1.442  15.959 -1.0608  0.1807  0.4228
 4510TIP3   OH235020   3.901   3.079  16.403  0.3377  0.0658  0.3155
 4510TIP3    H135021   3.904   3.129  16.321  0.2240  1.5955  1.2018
 4510TIP3    H235022   3.827   3.020  16.392  1.1943 -0.7885 -1.2311
 4511TIP3   OH235023   5.048   6.094  16.751  0.0238 -0.2976  0.4891
 4511TIP3    H135024   4.999   6.081  16.833 -0.7822  0.3000  0.1247
 4511TIP3    H235025   5.009   6.173  16.714  0.8301 -0.2011 -0.1526
 4512TIP3   OH235026   6.340   3.162   5.188  0.0015  0.3994  0.2938
 4512TIP3    H135027   6.275   3.104   5.148 -0.2883  1.3656 -0.6880
 4512TIP3    H235028   6.364   3.119   5.269  0.6332 -1.6759 -0.9179
 4513TIP3   OH235029   2.281   0.916  16.304 -0.0351 -0.2783  0.6102
 4513TIP3    H135030   2.216   0.922  16.374  0.6866  0.5932  1.2302
 4513TIP3    H235031   2.258   0.987  16.244 -1.0739 -1.4560 -0.4315
 4514TIP3   OH235032   4.780   5.234   1.476 -0.2362  0.0395  0.4777
 4514TIP3    H135033   4.809   5.214   1.566 -1.2295 -0.2879  0.7450
 4514TIP3    H235034   4.850   5.202   1.421  0.4909  0.4384  1.1533
 4515TIP3   OH235035   3.970   1.041  14.720 -0.1368 -0.3946 -0.4653
 4515TIP3    H135036   3.919   1.110  14.764  0.7777 -0.0121  0.0120
 4515TIP3    H235037   3.926   1.031  14.635 -0.7036  0.2908 -0.2710
 4516TIP3   OH235038   0.379   1.858  15.158  0.4066 -0.7172 -0.3848
 4516TIP3    H135039   0.345   1.927  15.216  0.8712  0.2133 -1.1811
 4516TIP3    H235040   0.301   1.827  15.110  0.1390 -0.9866  0.2199
 4517TIP3   OH235041   2.141   2.223   6.171 -0.0779 -0.3661  0.1913
 4517TIP3    H135042   2.219   2.277   6.184  0.0217 -0.4459 -0.0768
 4517TIP3    H235043   2.140   2.164   6.246  1.6077 -2.2039 -1.1225
 4518TIP3   OH235044   3.495   1.830  13.214 -0.0596 -0.1340 -0.3109
 4518TIP3    H135045   3.413   1.841  13.262  1.6922  1.5977  2.5871
 4518TIP3    H235046   3.503   1.911  13.163  0.5121  0.3836  0.5802
 4519TIP3   OH235047   6.107   2.941   6.267 -0.0758  0.6449  0.2138
 4519TIP3    H135048   6.017   2.906   6.263 -0.0511  0.6689 -1.7273
 4519TIP3    H235049   6.157   2.884   6.209  1.0921  0.8890  0.9499
 4520TIP3   OH235050   1.912   6.081  14.003  0.3526 -0.0297 -0.4644
 4520TIP3    H135051   1.981   6.146  14.017 -0.5471  0.7889  0.3722
 4520TIP3    H235052   1.834   6.133  13.981 -0.5101 -0.7877  0.6993
 4521TIP3   OH235053   4.372   6.163   2.148  0.1112  0.1839 -0.3163
 4521TIP3    H135054   4.467   6.169   2.138 -0.0155  1.7873 -0.9887
 4521TIP3    H235055   4.350   6.074   2.121  1.2094  0.4962 -2.4830
 4522TIP3   OH235056   1.060   3.947   3.636  0.3376  0.1430  0.1748
 4522TIP3    H135057   1.041   3.936   3.543 -2.2497 -1.5800  0.8008
 4522TIP3    H235058   1.126   3.880   3.654  0.4173  0.0846 -0.3136
 4523TIP3   OH235059   3.748   2.578  14.639 -0.0208 -0.2784  0.4775
 4523TIP3    H135060   3.808   2.648  14.616 -0.5149  0.6726  1.9624
 4523TIP3    H235061   3.769   2.556  14.730  1.2963 -3.3090 -0.4473
 4524TIP3   OH235062   2.163   2.820   5.111 -0.6044  0.6460 -0.1434
 4524TIP3    H135063   2.129   2.795   5.026 -2.0578  0.3566  0.4957
 4524TIP3    H235064   2.251   2.853   5.093 -0.7913  0.3613 -1.7084
 4525TIP3   OH235065   3.818   6.542   4.767 -0.1373  0.0225 -0.4654
 4525TIP3    H135066   3.750   6.518   4.704 -1.3676  0.6841  0.5778
 4525TIP3    H235067   3.776   6.535   4.852  1.6517 -1.4251  0.3804
 4526TIP3   OH235068   0.277   6.374   1.471  0.1295  0.0811 -0.5462
 4526TIP3    H135069   0.249   6.394   1.560  3.0036 -2.1531  1.0353
 4526TIP3    H235070   0.240   6.288   1.453 -0.6039  0.6072 -1.6426
 4527TIP3   OH235071   2.834   1.124  14.210 -0.1808 -0.0597  0.0517
 4527TIP3    H135072   2.915   1.104  14.257 -1.0210  0.0673  1.6257
 4527TIP3    H235073   2.780   1.170  14.275 -2.3039 -1.9180 -0.2983
 4528TIP3   OH235074   3.780   1.653  16.247 -0.2847 -0.1126  0.2106
 4528TIP3    H135075   3.847   1.699  16.298  0.3258 -1.7633  0.9911
 4528TIP3    H235076   3.704   1.648  16.305 -0.0647 -0.7650  0.4611
 4529TIP3   OH235077   1.178   0.732  12.597  0.4377  0.0861  0.4850
 4529TIP3    H135078   1.099   0.764  12.553  0.8984  0.5112 -0.0449
 4529TIP3    H235079   1.229   0.810  12.616  1.7289 -0.2859 -1.1250
 4530TIP3   OH235080   2.825   2.474  14.186 -0.7676  0.0050  0.1184
 4530TIP3    H135081   2.912   2.510  14.200 -0.5705 -1.1944  2.4322
 4530TIP3    H235082   2.765   2.542  14.218 -0.7057  0.6922 -1.1668
 4531TIP3   OH235083   3.533   0.006   0.556 -0.7541  0.6033  0.3172
 4531TIP3    H135084   3.476   0.083   0.557 -2.3611 -0.4764 -1.2066
 4531TIP3    H235085   3.598   0.026   0.489 -2.7531 -0.3108 -2.0587
 4532TIP3   OH235086   6.491   0.541  15.835  0.5472  0.3979 -0.4265
 4532TIP3    H135087   6.522   0.610  15.894 -0.2802  0.8553 -0.5256
 4532TIP3    H235088   6.396   0.552  15.832  0.6608  1.2125 -2.8493
 4533TIP3   OH235089   2.929   2.526  13.114 -0.0927  0.3594 -0.9821
 4533TIP3    H135090   2.898   2.441  13.144 -2.3097  1.0781 -1.0528
 4533TIP3    H235091   3.022   2.527  13.137 -0.6952 -0.8243  1.9279
 4534TIP3   OH235092   5.732   3.628   3.076  0.5988 -0.3813 -0.7712
 4534TIP3    H135093   5.816   3.635   3.120  0.1467 -0.1646  0.0872
 4534TIP3    H235094   5.724   3.711   3.028  0.3307  0.1487  0.1600
 4535TIP3   OH235095   2.827   6.235  12.569 -0.7651  0.1020 -0.5087
 4535TIP3    H135096   2.921   6.232  12.552 -0.7828  0.6311 -0.7300
 4535TIP3    H235097   2.787   6.206  12.487 -0.7769 -2.2293  0.2534
 4536TIP3   OH235098   4.819   2.390  13.003 -0.6016  0.1398 -0.2850
 4536TIP3    H135099   4.910   2.412  12.982 -0.6295  0.0484 -0.4964
 4536TIP3    H235100   4.769   2.464  12.970 -0.5053  0.7133  0.7957
 4537TIP3   OH235101   2.549   2.400  11.409  0.3622  0.6156 -0.1322
 4537TIP3    H135102   2.488   2.361  11.346  0.3097 -0.4456  0.5534
 4537TIP3    H235103   2.618   2.439  11.355  1.5581 -2.2562 -0.8602
 4538TIP3   OH235104   2.265   2.169   0.796  0.2556 -0.3594  0.7588
 4538TIP3    H135105   2.199   2.107   0.827 -3.2722  2.3060 -0.8114
 4538TIP3    H235106   2.268   2.155   0.701 -0.3097  1.5274  0.4333
 4539TIP3   OH235107   1.216   2.696   1.029  0.8053  0.2908  0.3712
 4539TIP3    H135108   1.241   2.661   1.115  2.7462  0.1950 -0.1819
 4539TIP3    H235109   1.142   2.754   1.047  2.2027  1.5488  2.3594
 4540TIP3   OH235110   6.548   5.718   1.562  0.4044 -0.1760  0.4724
 4540TIP3    H135111   6.569   5.705   1.470  0.0663 -1.2687  0.5437
 4540TIP3    H235112   6.621   5.771   1.595 -0.3458  1.7630 -0.8079
 4541TIP3   OH235113   2.411   0.014   4.838  0.0587  0.2867 -0.0930
 4541TIP3    H135114   2.470  -0.024   4.773  0.0049 -1.0496  0.5895
 4541TIP3    H235115   2.339   0.052   4.788  0.4881  0.1151 -0.8452
 4542TIP3   OH235116   0.667   3.384   1.503 -0.3652 -0.4012  0.3740
 4542TIP3    H135117   0.754   3.418   1.482 -0.3562 -0.9083 -0.4843
 4542TIP3    H235118   0.637   3.438   1.575  0.0230  0.8176 -0.3432
 4543TIP3   OH235119   4.881   2.854   5.791  0.4862  0.0678 -0.0205
 4543TIP3    H135120   4.821   2.919   5.754  0.1356  0.3244  0.9658
 4543TIP3    H235121   4.892   2.789   5.722 -2.2225 -0.8453  0.2845
 4544TIP3   OH235122   3.630   2.391  10.636  0.0101  0.2700  0.1249
 4544TIP3    H135123   3.591   2.315  10.594  1.4259 -0.4265  0.0324
 4544TIP3    H235124   3.637   2.366  10.728  2.2705 -0.5519 -0.1987
 4545TIP3   OH235125   0.648   0.879   1.673  0.1691  0.0332 -0.2190
 4545TIP3    H135126   0.618   0.957   1.720 -0.2581  0.9133 -1.8833
 4545TIP3    H235127   0.736   0.863   1.707 -0.3621  0.2539  1.3157
 4546TIP3   OH235128   4.218   1.561  16.966 -0.1189  0.1738 -0.2352
 4546TIP3    H135129   4.288   1.625  16.979  0.9256 -0.8245 -0.7843
 4546TIP3    H235130   4.261   1.476  16.975 -1.3727 -0.4695 -0.0473
 4547TIP3   OH235131   4.942   2.015  13.620 -0.6571  0.2904 -0.5081
 4547TIP3    H135132   4.874   2.078  13.594 -2.5840 -1.7157 -0.5673
 4547TIP3    H235133   4.906   1.971  13.696  0.3274 -1.2407 -0.8957
 4548TIP3   OH235134   0.179   4.974  15.955  0.3244  0.5229 -0.2633
 4548TIP3    H135135   0.101   4.921  15.976 -0.6828  1.8054 -0.6174
 4548TIP3    H235136   0.232   4.917  15.900  0.1277 -0.7400  0.7904
 4549TIP3   OH235137   0.330   6.516  12.664 -0.4877  0.4517 -0.2371
 4549TIP3    H135138   0.405   6.551  12.616 -0.4677  1.7127  0.6528
 4549TIP3    H235139   0.255   6.535  12.608 -0.2472 -0.1366 -0.7826
 4550TIP3   OH235140   4.199   4.137   2.460  0.1321  0.0215 -0.3982
 4550TIP3    H135141   4.151   4.063   2.498  2.0267 -1.2868 -0.3654
 4550TIP3    H235142   4.212   4.112   2.368 -0.4028  0.9765 -0.7387
 4551TIP3   OH235143   3.015   3.757  14.351 -0.6019 -0.2479  0.2070
 4551TIP3    H135144   2.999   3.783  14.260 -1.8028  0.1180  0.5149
 4551TIP3    H235145   3.071   3.826  14.386  0.0163 -0.4798 -0.2882
 4552TIP3   OH235146   2.730   0.576   4.838 -0.4180 -0.0248  0.1736
 4552TIP3    H135147   2.698   0.495   4.878  0.3052 -0.1045  0.6191
 4552TIP3    H235148   2.693   0.646   4.892 -0.5059 -0.0865  0.1920
 4553TIP3   OH235149   6.184   0.865   3.004  0.3043  0.6120  0.1956
 4553TIP3    H135150   6.205   0.860   3.098  2.3519 -2.2710 -0.2695
 4553TIP3    H235151   6.088   0.859   3.001  0.2761 -1.0831  2.1026
 4554TIP3   OH235152   1.949   5.232   1.314  0.2348  0.0159  0.1490
 4554TIP3    H135153   2.011   5.161   1.331  1.3146  0.6121 -1.0924
 4554TIP3    H235154   1.870   5.206   1.361  0.2200 -2.5637 -1.0939
 4555TIP3   OH235155   1.957   5.903  10.915  0.1319  0.3519 -0.5403
 4555TIP3    H135156   1.878   5.934  10.870 -0.3014 -0.4416 -0.3388
 4555TIP3    H235157   2.023   5.896  10.845  0.4218  2.1956 -0.5246
 4556TIP3   OH235158   3.441   3.815   5.261  0.0225  0.6649 -0.2878
 4556TIP3    H135159   3.402   3.775   5.338 -0.2555  0.9120 -0.3012
 4556TIP3    H235160   3.370   3.864   5.219  0.8292  3.0930  0.9632
 4557TIP3   OH235161   5.559   2.931   3.227  0.4212  0.0753  0.1997
 4557TIP3    H135162   5.562   2.963   3.137 -1.2355 -0.0797  0.0592
 4557TIP3    H235163   5.502   2.992   3.272 -0.4664 -1.0145  0.6166
 4558TIP3   OH235164   3.722   1.692  13.229  0.4315 -0.7066 -0.2106
 4558TIP3    H135165   3.746   1.747  13.155  0.2077  0.3423  0.4647
 4558TIP3    H235166   3.628   1.706  13.239  0.9030  1.7566  2.2070
 4559TIP3   OH235167   4.939   3.407   2.770  0.4406  0.4728 -0.2561
 4559TIP3    H135168   4.904   3.414   2.860 -2.0908 -1.8444 -0.9228
 4559TIP3    H235169   4.998   3.332   2.773  0.7217  0.6881 -0.4327
 4560TIP3   OH235170   1.795   2.844   0.367  0.3096  0.5590 -0.4289
 4560TIP3    H135171   1.855   2.771   0.349 -2.5103 -2.0943  0.0501
 4560TIP3    H235172   1.790   2.847   0.463 -2.0911 -1.0102 -0.4216
 4561TIP3   OH235173   5.902   2.891   5.153 -0.1273  0.2856 -0.0675
 4561TIP3    H135174   5.953   2.971   5.137 -0.1623  0.3757  0.2685
 4561TIP3    H235175   5.935   2.858   5.237  0.3434 -0.4094 -0.5053
 4562TIP3   OH235176   6.347   6.024  16.025 -0.2530 -0.8966  0.1365
 4562TIP3    H135177   6.401   5.965  15.973  0.8997  0.2347  0.0152
 4562TIP3    H235178   6.293   6.070  15.960 -0.6543 -1.3032  0.1751
 4563TIP3   OH235179   5.877   5.877  14.503  0.2343 -0.0552  0.1491
 4563TIP3    H135180   5.882   5.799  14.448  0.1888  0.1025 -0.0783
 4563TIP3    H235181   5.783   5.889  14.518  0.1132  0.9270 -1.2093
 4564TIP3   OH235182   3.495   1.731  17.128  0.0541  0.3947  0.1522
 4564TIP3    H135183   3.424   1.673  17.099  1.9171 -2.8192  1.4993
 4564TIP3    H235184   3.556   1.733  17.054  0.8164 -0.8934  0.7147
 4565TIP3   OH235185   0.516   0.495  16.728  0.1925  0.2194 -0.4390
 4565TIP3    H135186   0.501   0.574  16.780  0.1463  0.7830 -1.2768
 4565TIP3    H235187   0.440   0.490  16.669 -0.6877 -1.4290  0.7635
 4566TIP3   OH235188   0.968   6.421   1.677  0.4251 -0.2086  0.3320
 4566TIP3    H135189   0.932   6.412   1.765 -0.7059  1.5236  0.0944
 4566TIP3    H235190   1.045   6.476   1.688  0.6182 -0.4777  0.3171
 4567TIP3   OH235191   0.540   0.141   4.955 -0.3909  0.3408  0.6518
 4567TIP3    H135192   0.503   0.174   4.874 -0.4250  0.3791  0.6831
 4567TIP3    H235193   0.500   0.194   5.024  0.7189  1.3022  0.5941
 4568TIP3   OH235194   1.711   5.261  12.679 -0.2688  0.3212  0.4109
 4568TIP3    H135195   1.629   5.309  12.694 -1.9647 -2.0702 -0.5920
 4568TIP3    H235196   1.717   5.255  12.584  0.9050  0.1644  0.4901
 4569TIP3   OH235197   6.372   2.445   0.568 -0.5098  0.4760  0.0852
 4569TIP3    H135198   6.334   2.471   0.652  0.9447  1.3554  0.5148
 4569TIP3    H235199   6.455   2.492   0.564  1.4593 -2.6965  0.0529
 4570TIP3   OH235200   4.068   6.674  12.306 -0.5318  0.3895  0.0519
 4570TIP3    H135201   3.990   6.650  12.255 -0.2845  1.5287 -0.9106
 4570TIP3    H235202   4.106   6.590  12.332 -2.9581 -0.2247  1.9851
 4571TIP3   OH235203   1.397   4.369  13.581 -0.1409 -0.7857 -0.3169
 4571TIP3    H135204   1.320   4.381  13.637 -0.9805 -2.6153 -0.9929
 4571TIP3    H235205   1.390   4.440  13.517 -0.9651 -0.5808 -0.0215
 4572TIP3   OH235206   0.539   1.115   2.562  0.8934  0.5540 -0.1672
 4572TIP3    H135207   0.632   1.092   2.568  0.2382 -2.0602  2.6898
 4572TIP3    H235208   0.526   1.182   2.628  0.4970 -0.3244  0.6722
 4573TIP3   OH235209   5.172   4.505   1.040 -0.6966  0.3796  0.5274
 4573TIP3    H135210   5.228   4.488   0.965 -0.7204  0.6489  0.4472
 4573TIP3    H235211   5.105   4.437   1.037 -0.9424  0.6403  0.0651
 4574TIP3   OH235212   5.558   2.854  14.217 -0.2425 -0.3444 -0.0241
 4574TIP3    H135213   5.466   2.827  14.216 -0.2685 -0.2421 -0.4271
 4574TIP3    H235214   5.558   2.939  14.173 -0.0409 -0.0669  0.5011
 4575TIP3   OH235215   0.702   6.213  16.035  0.3408  0.0108 -0.2048
 4575TIP3    H135216   0.717   6.308  16.029 -2.5561  0.5143 -1.0465
 4575TIP3    H235217   0.707   6.182  15.945 -1.7177 -0.0166 -0.3684
 4576TIP3   OH235218   6.628   2.098   5.412  0.7568 -0.3028  0.6028
 4576TIP3    H135219   6.581   2.149   5.346  2.3450 -0.4973 -0.7426
 4576TIP3    H235220   6.648   2.161   5.481  1.1303  0.5093 -0.2151
 4577TIP3   OH235221   4.390   3.520  15.787  0.3386  0.3441  0.0126
 4577TIP3    H135222   4.366   3.428  15.780 -0.1079  0.2794  1.7506
 4577TIP3    H235223   4.460   3.532  15.724 -0.5309 -0.8443 -1.2342
 4578TIP3   OH235224   6.712   3.624   3.470 -0.2621 -0.1122 -0.1025
 4578TIP3    H135225   6.791   3.675   3.492  1.3313 -1.1853 -2.8096
 4578TIP3    H235226   6.646   3.690   3.450  1.2575  0.9462 -1.9427
 4579TIP3   OH235227   1.410   6.624   5.511  0.3821 -0.0014 -0.1538
 4579TIP3    H135228   1.378   6.708   5.543  1.2672  1.0982 -1.9452
 4579TIP3    H235229   1.335   6.583   5.468 -0.1066 -0.2514  0.9179
 4580TIP3   OH235230   3.238   4.354   3.895  0.2693  0.0464 -0.1864
 4580TIP3    H135231   3.216   4.400   3.814  1.1600  2.1001  0.6964
 4580TIP3    H235232   3.176   4.387   3.960  0.1879 -0.8616  0.2165
 4581TIP3   OH235233   4.069   0.043  12.515  0.5435 -0.4327  0.4046
 4581TIP3    H135234   4.136   0.110  12.508 -1.2673  1.4857  0.2512
 4581TIP3    H235235   4.085  -0.015  12.441 -0.5285  2.5502 -2.4098
 4582TIP3   OH235236   1.229   2.157  17.078 -0.3091 -0.4857  0.2665
 4582TIP3    H135237   1.187   2.077  17.111 -0.0063 -0.1657  1.4643
 4582TIP3    H235238   1.284   2.187  17.150  1.9968 -0.8711 -1.2359
 4583TIP3   OH235239   3.176   2.156  12.048 -0.1871 -0.2014  0.5005
 4583TIP3    H135240   3.269   2.138  12.037  0.2743 -0.5089  3.9626
 4583TIP3    H235241   3.134   2.070  12.044 -0.2673 -0.1346 -0.3225
 4584TIP3   OH235242   5.283   1.114   4.908  0.4690 -0.0869  0.7407
 4584TIP3    H135243   5.253   1.085   4.994  0.6717 -0.8350  0.5659
 4584TIP3    H235244   5.204   1.143   4.863 -0.2360 -2.9281 -0.0684
 4585TIP3   OH235245   6.587   2.245   4.071  0.0314 -0.4020  0.3330
 4585TIP3    H135246   6.549   2.297   4.000  0.6347  0.5679  0.7130
 4585TIP3    H235247   6.665   2.292   4.097 -0.0522 -0.8693  1.4988
 4586TIP3   OH235248   1.100   1.096   0.200 -0.1718  0.5332 -0.1999
 4586TIP3    H135249   1.093   1.189   0.176  0.9322  0.1952 -2.0754
 4586TIP3    H235250   1.020   1.056   0.167 -0.5322  0.7667  0.3813
 4587TIP3   OH235251   0.901   3.622   3.355  0.3623  0.2589  0.3802
 4587TIP3    H135252   0.875   3.596   3.443 -1.1160  2.7960  0.7986
 4587TIP3    H235253   0.848   3.699   3.336  2.5901  1.4534 -1.6390
 4588TIP3   OH235254   3.382   2.999   3.925  0.2620 -0.3488  0.2575
 4588TIP3    H135255   3.411   2.912   3.898 -0.2611 -1.1594  2.1281
 4588TIP3    H235256   3.394   2.999   4.020 -0.8396  1.2124  0.4322
 4589TIP3   OH235257   0.020   4.523  14.244 -0.4497 -0.4307 -0.2222
 4589TIP3    H135258  -0.067   4.557  14.223 -0.3137  0.7124  0.9104
 4589TIP3    H235259   0.049   4.576  14.319  0.4525 -2.0294  0.6199
 4590TIP3   OH235260   5.872   0.721   3.233  0.1641 -0.2428  0.1472
 4590TIP3    H135261   5.938   0.783   3.202 -0.5714  1.3986  1.6464
 4590TIP3    H235262   5.905   0.635   3.207  1.9945  0.6567 -0.6893
 4591TIP3   OH235263   0.458   4.505   4.929 -0.2185 -0.2654  0.4087
 4591TIP3    H135264   0.493   4.490   5.017 -0.4310  0.1235  0.5634
 4591TIP3    H235265   0.399   4.431   4.913 -0.5552 -0.0820  0.7898
 4592TIP3   OH235266   4.257   1.939   4.313 -0.6041  0.5059  0.0368
 4592TIP3    H135267   4.233   1.988   4.392  0.0248  0.7020  0.1055
 4592TIP3    H235268   4.350   1.957   4.300  0.3983 -2.7838  1.5836
 4593TIP3   OH235269   5.749   1.709   1.525 -0.5512 -0.5067 -0.6083
 4593TIP3    H135270   5.759   1.616   1.546 -1.2122 -0.0622  2.0248
 4593TIP3    H235271   5.656   1.727   1.539 -0.3415  0.6715 -0.6075
 4594TIP3   OH235272   0.087   6.578   4.552 -0.1312 -0.1879 -0.3915
 4594TIP3    H135273   0.037   6.595   4.632 -1.0240  0.0741 -0.9955
 4594TIP3    H235274   0.055   6.642   4.489  0.7508 -0.2255 -0.8880
 4595TIP3   OH235275   4.758   0.988  14.056 -0.1236 -0.1119 -0.1173
 4595TIP3    H135276   4.735   0.899  14.029  1.4665 -0.9213  1.0656
 4595TIP3    H235277   4.675   1.027  14.083 -1.1821 -0.4870 -2.5684
 4596TIP3   OH235278   1.347   3.783   2.630 -0.0956 -0.0003  0.0080
 4596TIP3    H135279   1.416   3.848   2.640 -1.0688  1.0340  0.2581
 4596TIP3    H235280   1.266   3.832   2.643 -0.9034 -1.0906 -0.7050
 4597TIP3   OH235281   0.600   3.812  15.024  0.5139 -0.0930  0.3970
 4597TIP3    H135282   0.628   3.852  15.106  0.1948 -0.5250  0.7238
 4597TIP3    H235283   0.611   3.718  15.038 -2.4507 -0.4411  1.1142
 4598TIP3   OH235284   5.314   4.429   0.810  0.4577 -0.7233 -0.1983
 4598TIP3    H135285   5.335   4.338   0.833  1.0062 -1.0316 -1.8007
 4598TIP3    H235286   5.399   4.470   0.796  0.1850 -0.1563 -0.2097
 4599TIP3   OH235287   1.625   2.003   1.068  0.1920 -0.4658  0.2341
 4599TIP3    H135288   1.686   2.022   1.139 -2.0748 -1.5882  2.6905
 4599TIP3    H235289   1.573   2.083   1.059 -0.8609 -0.9773  1.3914
 4600TIP3   OH235290   4.963   5.944   5.325 -0.9384  0.4758 -0.1500
 4600TIP3    H135291   4.879   5.988   5.339 -1.5508 -0.2974 -1.2462
 4600TIP3    H235292   4.947   5.853   5.347 -1.0219 -0.1197 -2.3794
 4601TIP3   OH235293   3.029   2.299  13.495 -0.3903 -0.2129 -0.2975
 4601TIP3    H135294   3.124   2.305  13.508 -0.4877 -0.2472  0.4305
 4601TIP3    H235295   2.991   2.341  13.572 -0.9924 -1.8696  0.3413
 4602TIP3   OH235296   1.726   6.759   5.274 -0.1566  0.6923  0.4568
 4602TIP3    H135297   1.755   6.758   5.366 -1.4710  2.2369  0.9236
 4602TIP3    H235298   1.655   6.696   5.271  0.7337 -0.3353  0.1615
 4603TIP3   OH235299   2.747   2.458   0.888  0.3386 -0.1341  0.3294
 4603TIP3    H135300   2.688   2.516   0.839  0.2154 -0.0850  0.5334
 4603TIP3    H235301   2.688   2.399   0.935  0.4420  0.2029  0.8894
 4604TIP3   OH235302   4.943   2.952  11.204  0.1638  0.3772 -0.0410
 4604TIP3    H135303   4.983   3.006  11.136 -0.3682 -0.6539 -1.2347
 4604TIP3    H235304   4.999   2.874  11.208 -1.8343 -1.3598 -2.1449
 4605TIP3   OH235305   0.586   4.034  13.499  0.5975  0.1202 -0.8506
 4605TIP3    H135306   0.636   4.107  13.535 -0.5249  0.7653 -0.5401
 4605TIP3    H235307   0.498   4.046  13.534  0.1481 -0.8155 -1.6111
 4606TIP3   OH235308   1.710   4.327  12.623 -0.0459  0.1482  0.0862
 4606TIP3    H135309   1.672   4.386  12.689 -0.9747 -1.0346  0.6415
 4606TIP3    H235310   1.638   4.310  12.562  0.6254  0.7069 -0.8931
 4607TIP3   OH235311   4.582   6.395  11.482  0.2334 -0.2323 -0.4428
 4607TIP3    H135312   4.523   6.458  11.523 -0.1434 -1.1300  0.4369
 4607TIP3    H235313   4.637   6.447  11.424  0.3262  0.9773  0.7003
 4608TIP3   OH235314   1.213   1.594  17.091  0.4707  0.2614  0.0208
 4608TIP3    H135315   1.213   1.634  17.003  0.8606 -0.5228 -0.3434
 4608TIP3    H235316   1.129   1.550  17.097  0.8899 -0.6214 -0.4048
 4609TIP3   OH235317   5.083   6.399  13.564  0.4907 -0.0301  0.4054
 4609TIP3    H135318   5.070   6.485  13.526 -0.3405 -1.1580 -2.0973
 4609TIP3    H235319   5.178   6.384  13.560  0.6021  0.6342  0.5686
 4610TIP3   OH235320   6.750   2.537  15.201 -0.5078 -0.4005 -0.2087
 4610TIP3    H135321   6.813   2.586  15.253 -0.7672 -1.0521  0.7431
 4610TIP3    H235322   6.723   2.464  15.257  1.6051 -3.0739 -2.3625
 4611TIP3   OH235323   1.969   2.184   1.958 -0.2819 -0.2169 -0.6743
 4611TIP3    H135324   2.051   2.184   2.007 -0.1807  2.1201 -0.7391
 4611TIP3    H235325   1.933   2.096   1.971  3.2778 -2.1588 -2.5526
 4612TIP3   OH235326   4.778   2.116  11.075  0.8355 -0.3861 -0.1490
 4612TIP3    H135327   4.741   2.040  11.030 -0.0691  0.1274 -0.2827
 4612TIP3    H235328   4.872   2.111  11.057  0.5977 -0.6704 -1.3741
 4613TIP3   OH235329   6.584   0.826  14.867 -0.5345 -0.0750  0.1200
 4613TIP3    H135330   6.587   0.737  14.833 -1.3774  0.0893 -0.4093
 4613TIP3    H235331   6.675   0.855  14.864 -0.3942 -0.5468 -0.7232
 4614TIP3   OH235332   4.336   6.099  15.522  0.1515  0.8023  0.1548
 4614TIP3    H135333   4.389   6.161  15.473 -0.6825  0.4711 -1.2304
 4614TIP3    H235334   4.393   6.024  15.537  0.7749  1.3879  0.7196
 4615TIP3   OH235335   6.336   4.212   1.318 -0.6830 -0.4048  0.3875
 4615TIP3    H135336   6.383   4.166   1.389 -1.1371 -0.0045  0.9534
 4615TIP3    H235337   6.376   4.298   1.315  0.5925 -1.0061 -1.0940
 4616TIP3   OH235338   2.250   0.612  12.284  0.7818 -0.0500 -0.3832
 4616TIP3    H135339   2.174   0.555  12.299  0.3331  0.7496  0.5291
 4616TIP3    H235340   2.224   0.668  12.210  0.7319 -0.2012 -0.4797
 4617TIP3   OH235341   4.866   3.912  15.571 -0.8998  0.1745 -0.1845
 4617TIP3    H135342   4.879   3.833  15.623 -3.5691  0.1805  0.6122
 4617TIP3    H235343   4.820   3.972  15.629 -0.8525  1.5170 -1.4762
 4618TIP3   OH235344   2.591   1.682   2.861 -0.3547  0.2459  0.4669
 4618TIP3    H135345   2.658   1.728   2.811  1.9601 -0.7097  2.4769
 4618TIP3    H235346   2.533   1.752   2.892  0.1799  1.2136 -0.6177
 4619TIP3   OH235347   4.534   2.221   6.015  0.1964 -0.4449 -0.1827
 4619TIP3    H135348   4.591   2.153   6.050 -0.6132 -0.7800  0.5364
 4619TIP3    H235349   4.579   2.303   6.035  1.0503 -0.7551 -0.8163
 4620TIP3   OH235350   3.295   0.088  16.704  0.1975  0.5679 -0.1175
 4620TIP3    H135351   3.326   0.091  16.795  0.3795  3.2524 -0.1659
 4620TIP3    H235352   3.201   0.071  16.712  0.4234 -0.4564  0.4882
 4621TIP3   OH235353   1.869   2.514   2.946 -0.0644 -0.2120 -0.0254
 4621TIP3    H135354   1.836   2.433   2.908  1.0992  0.0931 -1.8635
 4621TIP3    H235355   1.791   2.560   2.977 -1.0361 -0.8972 -1.3342
 4622TIP3   OH235356   6.023   3.883  15.252  0.1286  0.3306 -0.5572
 4622TIP3    H135357   6.065   3.946  15.312 -0.2094 -0.4566  0.5340
 4622TIP3    H235358   5.951   3.846  15.303  1.8165 -2.8196 -0.1808
 4623TIP3   OH235359   0.804   1.262  12.472  0.0628 -0.3409  0.1559
 4623TIP3    H135360   0.787   1.170  12.495  0.7686 -0.6301 -0.4087
 4623TIP3    H235361   0.724   1.308  12.495 -0.5041 -1.1963 -0.0446
 4624TIP3   OH235362   2.643   4.845   3.476 -0.0107 -0.3352  0.3197
 4624TIP3    H135363   2.553   4.858   3.504 -0.2057 -0.6122 -0.1858
 4624TIP3    H235364   2.638   4.786   3.402  0.4323  0.9563 -0.7874
 4625TIP3   OH235365   4.621   1.476   1.170 -0.6437 -0.3205  0.1073
 4625TIP3    H135366   4.685   1.417   1.209 -1.8960 -3.2803 -1.9371
 4625TIP3    H235367   4.540   1.459   1.217 -1.3693 -1.4264 -1.4728
 4626TIP3   OH235368   4.147   1.661   4.328 -0.1702  0.2471  0.1755
 4626TIP3    H135369   4.203   1.583   4.321  0.1967  0.3043  1.8595
 4626TIP3    H235370   4.209   1.734   4.328 -0.4317  0.4647 -0.3455
 4627TIP3   OH235371   1.786   1.725  14.952  0.0141  0.3697 -0.4482
 4627TIP3    H135372   1.862   1.756  14.904  0.2681  1.7582  0.7640
 4627TIP3    H235373   1.711   1.751  14.898  0.3482 -0.5550 -1.3980
 4628TIP3   OH235374   3.694   0.695  13.292 -0.0709 -0.2112  0.3855
 4628TIP3    H135375   3.653   0.781  13.302  0.0955  0.6261 -4.0654
 4628TIP3    H235376   3.781   0.704  13.330 -0.8118  0.8463  1.9065
 4629TIP3   OH235377   6.359   2.053   0.541  0.5382  0.0352 -0.4584
 4629TIP3    H135378   6.300   2.032   0.613  1.0590 -0.4746 -0.1710
 4629TIP3    H235379   6.400   1.970   0.519 -1.1049 -0.2615 -2.7374
 4630TIP3   OH235380   6.117   0.019  16.203 -0.1178 -0.0783 -0.4365
 4630TIP3    H135381   6.069   0.102  16.206 -0.3920 -0.1918 -1.4014
 4630TIP3    H235382   6.124  -0.008  16.295 -2.2677 -0.2662 -0.2826
 4631TIP3   OH235383   1.196   0.106  12.662  0.2125  0.2464  0.4376
 4631TIP3    H135384   1.272   0.083  12.609  0.1820 -1.6759  1.1557
 4631TIP3    H235385   1.230   0.114  12.751 -0.4718 -0.9946  0.8212
 4632TIP3   OH235386   0.492   4.189   2.201 -0.1307  0.4040 -0.6886
 4632TIP3    H135387   0.558   4.229   2.144 -0.0711  0.5496 -0.5175
 4632TIP3    H235388   0.498   4.238   2.283 -0.4030  0.3704 -0.6492
 4633TIP3   OH235389   3.299   5.751   1.117  0.1399 -0.1231  0.0292
 4633TIP3    H135390   3.335   5.735   1.030  0.7004  1.0087  0.0333
 4633TIP3    H235391   3.278   5.845   1.117 -0.5887 -0.2772  0.8443
 4634TIP3   OH235392   4.564   0.580  17.355  0.4360 -0.5026 -0.0747
 4634TIP3    H135393   4.471   0.597  17.342  0.6819  0.5161 -0.5899
 4634TIP3    H235394   4.607   0.624  17.281  1.4479  0.4512  1.0384
 4635TIP3   OH235395   3.265   2.624   1.925 -0.1989 -0.1621 -0.1812
 4635TIP3    H135396   3.327   2.696   1.934  0.3113 -0.8014  2.0184
 4635TIP3    H235397   3.320   2.546   1.920 -0.7740 -0.6217  0.4511
 4636TIP3   OH235398   2.709   4.855  14.164 -0.1432 -0.4488  0.1111
 4636TIP3    H135399   2.695   4.814  14.249 -0.0464 -0.6522  0.0305
 4636TIP3    H235400   2.798   4.828  14.139 -0.2898 -0.6586 -0.1998
 4637TIP3   OH235401   2.379   3.734   5.161 -0.1704 -0.5159 -0.1683
 4637TIP3    H135402   2.399   3.807   5.220 -1.7747  0.4324 -0.7357
 4637TIP3    H235403   2.286   3.744   5.140 -0.5160 -2.9364 -0.0324
 4638TIP3   OH235404   1.649   2.984   4.798  0.2484 -0.1196  0.2090
 4638TIP3    H135405   1.626   2.962   4.707 -0.2450 -1.1198  0.5653
 4638TIP3    H235406   1.593   3.058   4.820 -1.1563 -1.2139  0.3839
 4639TIP3   OH235407   2.831   2.296  13.312 -0.4857  0.0159  0.2572
 4639TIP3    H135408   2.919   2.289  13.347 -0.2046  1.5906 -0.0751
 4639TIP3    H235409   2.784   2.222  13.350  0.8644 -0.6260  0.7355
 4640TIP3   OH235410   5.252   3.136  11.793 -0.1063  0.5015 -0.2397
 4640TIP3    H135411   5.306   3.142  11.715  1.5082  0.3162  0.8022
 4640TIP3    H235412   5.188   3.206  11.784  0.9430  1.3930 -1.0828
 4641TIP3   OH235413   2.380   6.290  13.959  0.1417  0.1540  0.4100
 4641TIP3    H135414   2.430   6.208  13.964  0.9526  0.6912  1.3578
 4641TIP3    H235415   2.394   6.332  14.043 -3.2815 -0.4420  1.4410
 4642TIP3   OH235416   0.424   4.866  12.670 -0.3896 -0.0833  0.0646
 4642TIP3    H135417   0.473   4.826  12.598 -2.6709 -1.0470 -1.0667
 4642TIP3    H235418   0.389   4.947  12.633 -1.7465 -0.6841 -0.0389
 4643TIP3   OH235419   1.962   3.428   3.118  0.2914  0.1906  0.0803
 4643TIP3    H135420   1.940   3.336   3.129 -0.2914  0.4054  0.8677
 4643TIP3    H235421   1.898   3.461   3.055 -0.5766  0.4217  1.0585
 4644TIP3   OH235422   2.776   3.142   2.162  0.1409  0.1498  0.4405
 4644TIP3    H135423   2.794   3.224   2.208 -2.8607  1.0040  0.3245
 4644TIP3    H235424   2.814   3.153   2.075 -0.9429  1.8297  0.1390
 4645TIP3   OH235425   3.556   5.361   3.596  0.2687 -0.2192 -0.3658
 4645TIP3    H135426   3.550   5.332   3.504 -1.1932 -2.8920  0.4716
 4645TIP3    H235427   3.610   5.294   3.638  1.6155  1.4236  0.6393
 4646TIP3   OH235428   2.648   3.960  16.837  0.3076  0.2655 -0.5197
 4646TIP3    H135429   2.581   4.007  16.787 -2.9553 -0.2907  2.8506
 4646TIP3    H235430   2.642   3.870  16.805 -0.1984  0.3373 -0.6394
 4647TIP3   OH235431   3.207   2.837   2.249 -0.2421  0.1663  0.0365
 4647TIP3    H135432   3.180   2.752   2.216  1.3693 -1.8665  3.4079
 4647TIP3    H235433   3.125   2.882   2.269 -1.1308 -0.4820 -1.8838
 4648TIP3   OH235434   6.490   5.688  16.898  0.0005 -0.2609  0.5511
 4648TIP3    H135435   6.543   5.768  16.897  0.5979 -0.6546  0.1216
 4648TIP3    H235436   6.508   5.646  16.814 -0.2697 -0.8761  0.7947
 4649TIP3   OH235437   1.821   2.652  12.344  0.3146  0.5571  0.3594
 4649TIP3    H135438   1.762   2.706  12.397  1.1334  0.6958  1.1421
 4649TIP3    H235439   1.790   2.563  12.358 -1.0755  0.7809 -0.9757
 4650TIP3   OH235440   1.085   5.025  16.788 -0.5916  0.2878  0.1533
 4650TIP3    H135441   1.174   5.058  16.781 -0.5300  0.2633  0.7317
 4650TIP3    H235442   1.087   4.940  16.744 -0.6113  0.7946 -0.8377
 4651TIP3   OH235443   1.125   4.770   6.010  0.2024  0.2870  0.0857
 4651TIP3    H135444   1.154   4.818   6.087 -0.6435 -0.1879  0.7128
 4651TIP3    H235445   1.177   4.690   6.010 -2.8867 -2.0018  2.8753
 4652TIP3   OH235446   1.968   3.452   2.272 -0.1238 -0.2639 -0.0050
 4652TIP3    H135447   2.040   3.503   2.309  0.7853 -1.9324  0.6291
 4652TIP3    H235448   1.939   3.502   2.196  1.1116  0.8866  0.2462
 4653TIP3   OH235449   3.182   5.834  10.817 -0.1337  0.0127  0.4296
 4653TIP3    H135450   3.255   5.772  10.816 -0.3695 -0.2836 -1.2748
 4653TIP3    H235451   3.126   5.804  10.890 -0.4246 -2.0173 -0.5578
 4654TIP3   OH235452   1.616   3.508  12.426 -0.2286 -0.0732  0.4293
 4654TIP3    H135453   1.681   3.451  12.386 -1.7841 -1.0331 -0.8059
 4654TIP3    H235454   1.664   3.589  12.446  2.6948 -2.4158  4.4009
 4655TIP3   OH235455   1.456   0.659   5.046  0.2756  0.0095 -0.1162
 4655TIP3    H135456   1.435   0.566   5.052 -1.8209  0.4610  0.1242
 4655TIP3    H235457   1.521   0.674   5.115 -1.8675 -0.6532  2.1741
 4656TIP3   OH235458   2.445   5.992  11.951 -0.3362 -0.1087 -0.4070
 4656TIP3    H135459   2.501   5.927  11.908 -0.6113  0.1567 -1.1838
 4656TIP3    H235460   2.472   6.075  11.914 -0.8149  0.0895 -0.3133
 4657TIP3   OH235461   2.052   6.469  14.079  0.4124 -0.3951 -0.1934
 4657TIP3    H135462   2.074   6.400  14.015  0.7244 -1.0175  0.5647
 4657TIP3    H235463   1.972   6.437  14.121  0.2865 -0.0532 -0.1749
 4658TIP3   OH235464   0.628   5.542  15.101  0.8719  0.2623 -0.3685
 4658TIP3    H135465   0.653   5.452  15.122  1.7036  0.1560 -1.6795
 4658TIP3    H235466   0.609   5.582  15.186  0.2545 -1.2049  0.2149
 4659TIP3   OH235467   2.033   0.475  13.052 -0.4448  0.1194  0.3002
 4659TIP3    H135468   2.108   0.419  13.073  1.4852  2.5260  0.3090
 4659TIP3    H235469   2.017   0.459  12.959 -0.1384 -0.6730  0.3760
 4660TIP3   OH235470   4.610   2.312   0.100 -0.5480 -0.0701 -0.1670
 4660TIP3    H135471   4.595   2.218   0.106 -0.7644 -0.0064  0.3142
 4660TIP3    H235472   4.598   2.345   0.189  2.6819 -0.0265  0.3666
 4661TIP3   OH235473   3.432   2.020  11.860  0.1458  0.2681 -0.3108
 4661TIP3    H135474   3.443   1.938  11.907  0.2970  0.4120 -0.0913
 4661TIP3    H235475   3.495   2.016  11.789 -0.3031 -0.0869 -0.6958
 4662TIP3   OH235476   6.570   3.123   1.184 -0.4983 -0.3456 -0.5829
 4662TIP3    H135477   6.630   3.099   1.254  0.2124  1.2655 -0.6058
 4662TIP3    H235478   6.596   3.067   1.111  0.4892 -0.1997 -0.3551
 4663TIP3   OH235479   1.235   4.558   0.007  0.0719  0.3924 -0.0561
 4663TIP3    H135480   1.222   4.618   0.081 -0.0402 -0.8396  0.9585
 4663TIP3    H235481   1.170   4.584  -0.057 -1.8464 -0.3624  1.4957
 4664TIP3   OH235482   6.276   4.097  15.216  0.1747  0.6598  0.0004
 4664TIP3    H135483   6.205   4.054  15.168 -0.3176  0.8338  0.5543
 4664TIP3    H235484   6.244   4.185  15.233  0.7792  0.9357 -0.2736
 4665TIP3   OH235485   1.451   0.270   5.442 -0.0117  0.0116 -0.8690
 4665TIP3    H135486   1.519   0.257   5.508 -1.0666  0.5481  0.3509
 4665TIP3    H235487   1.468   0.202   5.376  0.5621 -1.0726  0.3641
 4666TIP3   OH235488   1.286   4.362   5.227 -0.9318  0.2298 -0.3477
 4666TIP3    H135489   1.273   4.415   5.306 -0.6970  2.8131 -1.9419
 4666TIP3    H235490   1.199   4.353   5.189 -0.8284  0.3378 -0.6102
 4667TIP3   OH235491   1.538   3.552  12.701 -0.2075  0.0269  0.0841
 4667TIP3    H135492   1.517   3.606  12.624  0.0158  2.0180  1.3461
 4667TIP3    H235493   1.462   3.563  12.759  0.2248 -0.3145  0.7188
 4668TIP3   OH235494   5.178   4.847  11.607 -0.1831 -0.5752 -0.1466
 4668TIP3    H135495   5.130   4.780  11.657  1.2839 -0.0991  2.0722
 4668TIP3    H235496   5.269   4.818  11.608  0.3146  0.8770 -0.0997
 4669TIP3   OH235497   1.077   5.395  13.834 -0.0593  0.1941  0.7171
 4669TIP3    H135498   0.996   5.380  13.785  0.3616  1.0382 -0.3032
 4669TIP3    H235499   1.081   5.324  13.897 -0.3892 -1.2437 -0.8149
 4670TIP3   OH235500   2.700   0.131  11.236 -0.3988  0.1887 -0.1654
 4670TIP3    H135501   2.742   0.215  11.217  0.0485 -0.2712 -1.2424
 4670TIP3    H235502   2.734   0.071  11.170 -0.7326 -0.8451  0.5718
 4671TIP3   OH235503   6.701   0.979  13.452 -0.0891 -0.6278  0.0610
 4671TIP3    H135504   6.725   1.058  13.501  1.2561 -1.7209  1.2508
 4671TIP3    H235505   6.635   0.936  13.507 -1.1318 -0.1702 -0.7843
 4672TIP3   OH235506   2.041   1.024  11.375  0.2002  0.1853 -0.1939
 4672TIP3    H135507   1.958   1.018  11.327 -0.3193  0.6137  0.6366
 4672TIP3    H235508   2.075   0.935  11.374 -1.1967 -0.4224  1.0469
 4673TIP3   OH235509   3.478   6.149   0.719  0.4621  0.3075 -0.1280
 4673TIP3    H135510   3.456   6.079   0.780  2.2480  0.1380  0.3596
 4673TIP3    H235511   3.447   6.229   0.761 -0.9772 -0.0930 -0.3811
 4674TIP3   OH235512   1.096   0.835   4.709 -0.0749 -0.4288 -0.1093
 4674TIP3    H135513   1.115   0.885   4.788 -0.1672  0.8167 -0.8470
 4674TIP3    H235514   1.129   0.746   4.728 -0.0527 -0.1480  1.2853
 4675TIP3   OH235515   1.762   3.692  16.448 -0.0639  0.3247 -0.1696
 4675TIP3    H135516   1.835   3.711  16.390  0.4687  1.1635  0.7493
 4675TIP3    H235517   1.736   3.777  16.483 -1.9940  0.1437 -1.0624
 4676TIP3   OH235518   0.283   3.159   0.390 -0.1853  0.7148 -0.3019
 4676TIP3    H135519   0.294   3.071   0.427 -1.2733  0.2996 -0.9213
 4676TIP3    H235520   0.235   3.207   0.456  0.8065  1.0075  0.2358
 4677TIP3   OH235521   6.299   2.633  11.991 -0.2556  0.5268 -0.0253
 4677TIP3    H135522   6.318   2.540  12.005 -0.7707  0.5038  0.6021
 4677TIP3    H235523   6.303   2.645  11.896  0.3765 -0.0105 -0.0670
 4678TIP3   OH235524   0.207   4.635  10.373  0.1872 -0.2810 -0.5424
 4678TIP3    H135525   0.117   4.631  10.403 -0.1266 -0.1790 -1.4521
 4678TIP3    H235526   0.238   4.721  10.402  0.0236 -0.3433 -0.1734
 4679TIP3   OH235527   6.037   4.793  13.212 -0.1709 -0.4469 -0.0922
 4679TIP3    H135528   6.021   4.877  13.170  0.1213  0.5064  1.6488
 4679TIP3    H235529   5.995   4.729  13.153 -2.2660  1.0776 -0.3808
 4680TIP3   OH235530   6.577   4.766  12.956  0.9685 -0.3635  0.0840
 4680TIP3    H135531   6.656   4.815  12.933  0.1326  1.6137  1.1600
 4680TIP3    H235532   6.517   4.783  12.883 -0.0997  2.1953  1.4261
 4681TIP3   OH235533   1.086   6.591  15.916  0.1455 -0.0660  0.0414
 4681TIP3    H135534   1.077   6.526  15.847 -1.0520 -1.6207  1.5666
 4681TIP3    H235535   1.002   6.637  15.917  1.0160  1.6931 -1.1023
 4682TIP3   OH235536   2.859   1.185  11.560 -0.6991 -0.2348  0.1395
 4682TIP3    H135537   2.846   1.102  11.515 -1.1877  0.3922 -0.9050
 4682TIP3    H235538   2.912   1.237  11.500  0.4924 -0.1430  1.2313
 4683TIP3   OH235539   1.780   4.642  12.755 -0.0011 -0.5525 -0.3650
 4683TIP3    H135540   1.821   4.673  12.836  0.0665 -0.2544 -0.5096
 4683TIP3    H235541   1.839   4.671  12.685  0.2240 -1.2982 -0.4863
 4684TIP3   OH235542   3.448   2.957  17.080 -0.2609  0.1814 -0.3014
 4684TIP3    H135543   3.358   2.971  17.110  0.4552  1.7679  1.2832
 4684TIP3    H235544   3.443   2.878  17.025 -2.6587  0.4577 -0.5784
 4685TIP3   OH235545   3.350   4.322  16.313 -0.3915  0.1655  0.4251
 4685TIP3    H135546   3.410   4.258  16.351  0.5451 -0.6539 -2.2034
 4685TIP3    H235547   3.271   4.273  16.293  0.0973 -0.0762 -1.0232
 4686TIP3   OH235548   2.021   3.061   0.727  0.2773  0.2016 -0.9259
 4686TIP3    H135549   2.033   2.966   0.732  3.5054  0.5429  2.3542
 4686TIP3    H235550   1.941   3.078   0.777 -1.0425 -0.7752 -2.6087
 4687TIP3   OH235551   5.957   5.618   1.594 -0.8720  0.5312  0.2297
 4687TIP3    H135552   5.901   5.599   1.519 -0.6695  4.1178 -1.0203
 4687TIP3    H235553   5.901   5.666   1.655 -0.6703 -1.1931  1.9095
 4688TIP3   OH235554   2.252   5.911   5.565 -0.0207 -0.2106  0.3971
 4688TIP3    H135555   2.329   5.966   5.576  0.1749 -0.6468  1.2913
 4688TIP3    H235556   2.234   5.914   5.471  0.6347  0.4904  0.2817
 4689TIP3   OH235557   3.882   1.832   5.693  0.0436 -0.5262  0.4480
 4689TIP3    H135558   3.867   1.927   5.693  0.4386 -0.4417  1.5409
 4689TIP3    H235559   3.881   1.807   5.601  3.3576  1.1076 -0.1801
 4690TIP3   OH235560   0.902   1.675  14.931  0.2696  0.2146 -0.4939
 4690TIP3    H135561   0.962   1.748  14.943 -1.6788  1.7341  0.8673
 4690TIP3    H235562   0.952   1.598  14.956  1.9025  1.2897 -0.3173
 4691TIP3   OH235563   6.026   0.866   3.495 -0.1097 -0.5690 -0.0629
 4691TIP3    H135564   5.973   0.944   3.481  0.2551 -0.2572  0.2559
 4691TIP3    H235565   6.091   0.868   3.425  0.8682  0.2606  0.8325
 4692TIP3   OH235566   6.594   1.393  17.178 -0.5731  0.3437 -0.4520
 4692TIP3    H135567   6.507   1.432  17.176 -0.1045  1.4038 -1.3464
 4692TIP3    H235568   6.654   1.467  17.163  0.4266 -0.5030 -0.7533
 4693TIP3   OH235569   0.749   0.702   2.715  0.9987 -0.3215 -0.3301
 4693TIP3    H135570   0.755   0.639   2.644 -1.0742  0.9498 -1.7404
 4693TIP3    H235571   0.733   0.649   2.793  0.4018 -1.6165 -1.2892
 4694TIP3   OH235572   6.377   1.716   2.563  0.0782  0.3254  0.5880
 4694TIP3    H135573   6.374   1.765   2.645 -0.7759  2.0513 -0.4265
 4694TIP3    H235574   6.468   1.723   2.535 -0.0223  1.3396  0.4781
 4695TIP3   OH235575   0.133   4.297   0.767 -0.2785  0.6285 -0.0610
 4695TIP3    H135576   0.049   4.342   0.778 -0.3655  0.2670  0.8339
 4695TIP3    H235577   0.154   4.264   0.854 -0.4345 -1.4620 -0.7596
 4696TIP3   OH235578   3.432   0.775   3.625 -0.8514  0.4562 -0.0520
 4696TIP3    H135579   3.340   0.800   3.618 -0.9759  0.3563  1.0691
 4696TIP3    H235580   3.435   0.684   3.596 -0.9550  0.7085 -0.8906
 4697TIP3   OH235581   5.130   1.265  15.154  0.2729 -0.0912  0.2759
 4697TIP3    H135582   5.086   1.332  15.102 -0.1468 -0.7246 -0.2026
 4697TIP3    H235583   5.096   1.182  15.120  3.2986 -0.7458 -1.5128
 4698TIP3   OH235584   0.710   3.780  11.703  0.0058  0.4828 -0.5111
 4698TIP3    H135585   0.746   3.692  11.715  0.4932  0.8893  1.2428
 4698TIP3    H235586   0.637   3.784  11.764 -0.2648  1.1770 -0.8740
 4699TIP3   OH235587   2.456   1.987  12.750 -0.0842 -0.1345 -0.4261
 4699TIP3    H135588   2.465   1.892  12.747  0.6613 -0.0501 -1.6172
 4699TIP3    H235589   2.406   2.004  12.830  0.2989 -1.4779  0.1284
 4700TIP3   OH235590   3.997   1.491  15.922  0.3542 -0.5051  0.3500
 4700TIP3    H135591   4.058   1.560  15.948  0.1674 -0.3277  0.3194
 4700TIP3    H235592   3.976   1.511  15.831 -2.4014  1.4544  1.2813
 4701TIP3   OH235593   5.663   0.105  15.007  0.0841 -0.0289  0.5153
 4701TIP3    H135594   5.620   0.185  14.978  0.3626  0.2175  0.7803
 4701TIP3    H235595   5.602   0.035  14.983  0.1935  0.1914 -0.4342
 4702TIP3   OH235596   4.921   3.077  12.467 -0.0490  0.0859  0.1151
 4702TIP3    H135597   4.915   3.172  12.479 -2.3079  0.0015  0.0689
 4702TIP3    H235598   4.936   3.066  12.373  1.5791  0.3941  0.3143
 4703TIP3   OH235599   1.767   0.463   0.315  0.0466 -0.3389 -0.2964
 4703TIP3    H135600   1.824   0.392   0.345 -0.1796 -0.2307  0.3941
 4703TIP3    H235601   1.761   0.522   0.390 -0.8154 -0.2482 -0.4354
 4704TIP3   OH235602   6.401   1.498   1.361  0.2233  0.4829  0.3829
 4704TIP3    H135603   6.400   1.547   1.279  2.7667  2.1533  1.2111
 4704TIP3    H235604   6.437   1.413   1.338 -1.0722  0.1598 -0.5399
 4705TIP3   OH235605   2.495   2.515   1.342  0.6172  0.1620  0.3859
 4705TIP3    H135606   2.551   2.469   1.405  0.0500 -0.3200  0.5575
 4705TIP3    H235607   2.410   2.521   1.387  0.4158  0.4965 -0.0372
 4706TIP3   OH235608   2.521   2.965   2.666 -0.0453 -0.1826 -0.4557
 4706TIP3    H135609   2.608   2.925   2.674 -1.0877 -2.4140  0.2826
 4706TIP3    H235610   2.482   2.923   2.589 -0.7227  0.3734 -0.4279
 4707TIP3   OH235611   0.264   0.342   0.886  0.0092  0.0374  0.2755
 4707TIP3    H135612   0.318   0.410   0.844 -0.7642  0.2359 -0.4258
 4707TIP3    H235613   0.325   0.270   0.901  0.5165  0.3131 -0.3698
 4708TIP3   OH235614   2.922   1.133   5.620 -0.1272  0.0724  0.4022
 4708TIP3    H135615   2.976   1.056   5.639  0.2637  0.8568  2.7745
 4708TIP3    H235616   2.982   1.195   5.578 -0.0849 -0.3485 -0.1728
 4709TIP3   OH235617   4.922   1.855   3.609  0.0325 -0.2842  0.0519
 4709TIP3    H135618   4.833   1.887   3.597  0.6384  1.1329 -0.8640
 4709TIP3    H235619   4.976   1.933   3.614  1.3641 -1.1205 -0.5290
 4710TIP3   OH235620   2.947   2.447   6.292 -0.2348  0.2815 -0.1574
 4710TIP3    H135621   2.901   2.527   6.318 -1.1664  0.0340 -0.9721
 4710TIP3    H235622   2.926   2.383   6.360  1.3298  0.9738  1.0389
 4711TIP3   OH235623   2.641   6.771  16.529  0.2138  0.6670  0.0602
 4711TIP3    H135624   2.679   6.698  16.481 -0.4416  0.8674 -0.7933
 4711TIP3    H235625   2.621   6.735  16.616  1.8002  0.4172  0.3495
 4712TIP3   OH235626   2.923   5.864   4.323 -0.2059  0.6363  0.1653
 4712TIP3    H135627   2.999   5.915   4.296 -0.5168  1.0449  0.0568
 4712TIP3    H235628   2.852   5.928   4.330 -1.0832 -0.0214 -1.8568
 4713TIP3   OH235629   4.184   0.701   2.823  0.1262 -0.3042  0.2926
 4713TIP3    H135630   4.095   0.665   2.827  0.3071 -1.0251 -1.4132
 4713TIP3    H235631   4.181   0.780   2.878 -1.3539 -0.7247  0.8538
 4714TIP3   OH235632   4.548   4.725   6.330 -0.3439  0.5578  0.1699
 4714TIP3    H135633   4.478   4.716   6.395 -0.1368 -1.6805  0.1817
 4714TIP3    H235634   4.617   4.773   6.375 -0.3598 -0.6068  1.5278
 4715TIP3   OH235635   6.666   6.543   2.569 -0.0743  0.3041  0.2656
 4715TIP3    H135636   6.639   6.537   2.660  2.8404 -0.0120  1.2144
 4715TIP3    H235637   6.656   6.636   2.547 -1.0372  0.3365  0.7978
 4716TIP3   OH235638   6.450   2.788   0.514  0.3871 -0.0232  0.2666
 4716TIP3    H135639   6.375   2.827   0.557  0.8836  1.0198  0.2044
 4716TIP3    H235640   6.526   2.831   0.552  0.8426  1.5249 -2.1402
 4717TIP3   OH235641   5.645   1.615   0.918 -0.0041 -0.2118 -0.2493
 4717TIP3    H135642   5.730   1.612   0.876 -0.3298  1.8176 -1.2036
 4717TIP3    H235643   5.585   1.645   0.849 -1.2695 -0.5042  0.6830
 4718TIP3   OH235644   1.094   4.791   3.815 -0.2183 -0.7767  0.5133
 4718TIP3    H135645   1.050   4.829   3.891 -0.5000 -0.7930  0.3585
 4718TIP3    H235646   1.024   4.747   3.766 -0.0034 -0.9406  0.3518
 4719TIP3   OH235647   2.370   1.651  12.161 -0.2760 -0.5437 -0.2131
 4719TIP3    H135648   2.387   1.575  12.217  0.0972 -0.6194 -0.4248
 4719TIP3    H235649   2.275   1.654  12.152 -0.3498 -0.4301  0.5639
 4720TIP3   OH235650   4.239   0.724  16.636  0.5327 -0.4410  0.2773
 4720TIP3    H135651   4.303   0.776  16.588  0.2771 -1.2141 -0.9358
 4720TIP3    H235652   4.195   0.671  16.569 -1.5397  0.2231  1.0210
 4721TIP3   OH235653   0.964   0.983  12.991  0.7606  0.0918  0.2849
 4721TIP3    H135654   1.004   1.032  13.062  0.0488  0.0245  0.7445
 4721TIP3    H235655   0.954   1.046  12.920  0.0134  0.5788  0.8085
 4722TIP3   OH235656   5.923   5.432  13.525 -0.0932 -0.1191  0.3596
 4722TIP3    H135657   5.995   5.477  13.569  1.5257  0.9624 -3.0301
 4722TIP3    H235658   5.953   5.341  13.518  1.4349  0.4617 -1.6601
 4723TIP3   OH235659   0.397   2.936  14.200 -0.2254  0.1268 -0.3174
 4723TIP3    H135660   0.397   2.937  14.295 -1.4723 -0.7145 -0.2871
 4723TIP3    H235661   0.423   2.846  14.177 -0.0449  0.2914 -0.7786
 4724TIP3   OH235662   5.739   0.845   1.469  0.2723 -0.4873  0.1162
 4724TIP3    H135663   5.780   0.932   1.467 -0.6911 -0.0383 -0.3237
 4724TIP3    H235664   5.787   0.795   1.403  0.3138 -0.0585 -0.1842
 4725TIP3   OH235665   0.423   4.254  11.283  0.0588  0.0901  0.1319
 4725TIP3    H135666   0.383   4.167  11.276 -0.0945  0.0651  1.1340
 4725TIP3    H235667   0.351   4.311  11.308  0.1188  0.5564 -0.7227
 4726TIP3   OH235668   1.721   0.875  17.103 -0.7364  0.4764  0.2467
 4726TIP3    H135669   1.681   0.906  17.022 -0.2346  0.3884 -0.0339
 4726TIP3    H235670   1.775   0.801  17.076 -0.2442  0.7032  0.6017
 4727TIP3   OH235671   6.412   5.275   6.278  0.8315 -0.2040  0.0835
 4727TIP3    H135672   6.507   5.267   6.280  0.7542 -1.0660  1.5144
 4727TIP3    H235673   6.393   5.349   6.337  0.5873 -0.2950  0.1204
 4728TIP3   OH235674   5.737   4.036   4.845  0.3869  0.3429  0.2236
 4728TIP3    H135675   5.782   4.097   4.785 -0.4167  0.7452  0.0068
 4728TIP3    H235676   5.705   3.966   4.788 -3.1609  2.2669 -0.4902
 4729TIP3   OH235677   2.199   3.266  11.402 -0.0834 -0.5404  0.1681
 4729TIP3    H135678   2.263   3.217  11.452  0.6579  0.9817  0.7795
 4729TIP3    H235679   2.250   3.309  11.333 -0.5495  0.1402  0.2386
 4730TIP3   OH235680   2.532   1.794  11.471  0.2700 -0.2255 -0.1686
 4730TIP3    H135681   2.599   1.821  11.408 -0.8228 -0.9505 -1.7344
 4730TIP3    H235682   2.457   1.850  11.451 -0.9312 -2.1079 -1.2797
 4731TIP3   OH235683   2.146   2.139  14.458  0.3812  0.4183 -0.6159
 4731TIP3    H135684   2.130   2.182  14.374 -0.6319  1.2397 -0.0138
 4731TIP3    H235685   2.105   2.196  14.523  0.3832 -0.6565  0.3554
 4732TIP3   OH235686   4.766   2.244   3.547 -0.0904  0.0879 -0.5747
 4732TIP3    H135687   4.858   2.218   3.537 -0.4570 -1.6625  0.1048
 4732TIP3    H235688   4.741   2.280   3.462  1.2544  0.7335 -0.7161
 4733TIP3   OH235689   6.665   0.554   3.721  0.3299  0.3230 -0.1566
 4733TIP3    H135690   6.758   0.538   3.737  0.3807  0.4552 -0.3140
 4733TIP3    H235691   6.664   0.635   3.670  0.1076  0.5346  0.1842
 4734TIP3   OH235692   6.432   1.463  11.568  0.2943 -0.4986 -0.3423
 4734TIP3    H135693   6.393   1.496  11.487 -0.1173  0.2532  0.1511
 4734TIP3    H235694   6.377   1.499  11.638  2.5475  1.6594  0.4845
 4735TIP3   OH235695   1.187   3.234   2.062 -0.2330  0.1483 -0.1451
 4735TIP3    H135696   1.142   3.217   1.980 -1.6941  0.6780  0.5285
 4735TIP3    H235697   1.144   3.310   2.099  1.8314  1.2733  0.1023
 4736TIP3   OH235698   0.207   2.032   2.952  0.1676  0.0233  0.3190
 4736TIP3    H135699   0.126   1.982   2.941  0.5349 -1.0853  2.2433
 4736TIP3    H235700   0.180   2.110   3.000 -0.0145  0.5779 -0.6411
 4737TIP3   OH235701   6.529   4.053  16.822 -0.7501 -0.2392 -0.3025
 4737TIP3    H135702   6.447   4.078  16.779 -2.1630 -2.0142  1.2053
 4737TIP3    H235703   6.538   3.960  16.802  1.8470  0.2344 -1.8188
 4738TIP3   OH235704   5.283   6.137   1.768  0.0785  0.2315  0.2045
 4738TIP3    H135705   5.293   6.230   1.751 -0.2223  0.1206 -0.6096
 4738TIP3    H235706   5.202   6.112   1.722 -0.3984 -0.2208  1.2494
 4739TIP3   OH235707   5.765   5.710  15.810  0.1665 -0.3890  0.1628
 4739TIP3    H135708   5.732   5.800  15.804 -2.7807 -1.4234 -1.2595
 4739TIP3    H235709   5.734   5.679  15.895  1.1964 -0.1029  0.6600
 4740TIP3   OH235710   1.965   2.381   3.203 -0.5681 -0.1386  0.0190
 4740TIP3    H135711   1.940   2.442   3.133 -1.9356  0.2126  0.7756
 4740TIP3    H235712   2.014   2.435   3.265 -1.0071 -0.0072  0.2543
 4741TIP3   OH235713   4.369   2.438   3.565  0.3964 -0.3163 -0.5040
 4741TIP3    H135714   4.306   2.392   3.509  0.2519 -1.1486  0.3214
 4741TIP3    H235715   4.356   2.400   3.652  0.7009  0.8734  0.0798
 4742TIP3   OH235716   2.977   5.744  15.818 -0.3415  0.1514  0.0774
 4742TIP3    H135717   3.073   5.741  15.828 -0.5333  0.8365  3.4749
 4742TIP3    H235718   2.951   5.652  15.811  0.5400 -0.0659 -0.4427
 4743TIP3   OH235719   0.982   1.755  15.521 -0.8416  1.1548 -0.0869
 4743TIP3    H135720   1.051   1.732  15.584  0.9532  2.1297 -1.6234
 4743TIP3    H235721   0.923   1.679  15.523  0.8872 -0.2630  0.4345
 4744TIP3   OH235722   2.094   2.301   4.355 -0.4241  0.1503 -0.1902
 4744TIP3    H135723   2.121   2.254   4.434  0.1166  0.7022 -0.0427
 4744TIP3    H235724   2.176   2.319   4.308 -0.6744  0.4590 -0.5184
 4745TIP3   OH235725   2.622   4.175   0.839  0.3993  0.1981 -0.2185
 4745TIP3    H135726   2.660   4.172   0.751  2.7247 -0.7799  0.7195
 4745TIP3    H235727   2.529   4.158   0.826 -0.0034  3.3822 -2.7636
 4746TIP3   OH235728   2.737   2.760   4.121 -0.2698 -0.1362 -0.2137
 4746TIP3    H135729   2.661   2.812   4.095 -1.2534 -0.9037  0.9995
 4746TIP3    H235730   2.735   2.761   4.217  3.1592  2.5654  0.0282
 4747TIP3   OH235731   6.236   6.385  11.592 -0.3422 -0.1625  0.0471
 4747TIP3    H135732   6.179   6.331  11.646 -0.8312 -3.3716 -3.2758
 4747TIP3    H235733   6.180   6.457  11.563 -0.8129  0.1367  1.6016
 4748TIP3   OH235734   1.309   5.636  10.998  0.2889  0.0806 -0.0267
 4748TIP3    H135735   1.238   5.682  11.043 -0.5678 -0.2627 -0.9724
 4748TIP3    H235736   1.388   5.681  11.024 -0.5188  2.1060 -0.9048
 4749TIP3   OH235737   5.451   3.910  17.365 -0.2280  0.1680 -0.1908
 4749TIP3    H135738   5.415   3.995  17.389 -2.9581 -1.7071  3.2783
 4749TIP3    H235739   5.526   3.897  17.424  0.6512  0.3921 -1.2203
 4750TIP3   OH235740   5.174   2.505  14.191 -0.1376  0.1442 -0.3025
 4750TIP3    H135741   5.190   2.446  14.265 -1.2193  0.5598  0.2782
 4750TIP3    H235742   5.262   2.528  14.160  0.4944  1.9270  2.4183
 4751TIP3   OH235743   1.970   3.684  17.360 -0.0020  0.3453  0.0845
 4751TIP3    H135744   2.001   3.735  17.285 -1.4852  1.1156 -0.0379
 4751TIP3    H235745   2.046   3.632  17.386  0.9042  0.9723 -1.1777
 4752TIP3   OH235746   1.704   0.829   5.499  0.2591 -0.2685 -0.2813
 4752TIP3    H135747   1.785   0.846   5.546 -0.8552  1.7038  1.0904
 4752TIP3    H235748   1.658   0.913   5.498 -2.5979 -1.6686  0.6721
 4753TIP3   OH235749   2.937   4.218   0.125  0.6318 -0.1255 -0.1038
 4753TIP3    H135750   2.911   4.132   0.159  1.4116  0.2156  1.4179
 4753TIP3    H235751   2.917   4.279   0.196  0.3538  0.9329 -1.0586
 4754TIP3   OH235752   5.388   5.628  14.979  0.2215  0.2241 -0.0909
 4754TIP3    H135753   5.309   5.593  15.018 -1.1286  0.2382 -2.5899
 4754TIP3    H235754   5.386   5.722  15.000 -0.3047  0.1775  0.0713
 4755TIP3   OH235755   1.424   3.789  12.529  0.3089  0.3054 -0.3245
 4755TIP3    H135756   1.345   3.736  12.520  0.5314 -0.0235 -0.3214
 4755TIP3    H235757   1.403   3.850  12.600  0.2084 -0.0476 -0.0495
 4756TIP3   OH235758   1.865   3.311   2.835 -0.4176  0.1696 -0.2255
 4756TIP3    H135759   1.955   3.304   2.802 -0.9474  0.6381 -1.8750
 4756TIP3    H235760   1.812   3.270   2.767 -1.3672 -1.4664  1.4213
 4757TIP3   OH235761   3.154   1.267  15.082 -0.1665 -0.7726 -0.7195
 4757TIP3    H135762   3.109   1.234  15.004  0.3195 -0.3440 -1.1873
 4757TIP3    H235763   3.229   1.316  15.048  1.0379 -2.0192  0.0687
 4758TIP3   OH235764   5.809   2.867   6.227 -0.0780  0.0821 -0.1968
 4758TIP3    H135765   5.807   2.838   6.318  3.6543  0.4468  0.1428
 4758TIP3    H235766   5.817   2.786   6.177  0.0393 -0.0145 -0.0238
 4759TIP3   OH235767   0.593   1.457   3.480 -0.4446  0.0002  0.2381
 4759TIP3    H135768   0.542   1.377   3.471 -0.3122 -0.0328 -0.3005
 4759TIP3    H235769   0.622   1.458   3.571  2.3626 -2.2835 -0.5008
 4760TIP3   OH235770   5.202   2.890   4.224  0.5551 -0.1814 -0.2359
 4760TIP3    H135771   5.278   2.862   4.276  0.6918 -0.6364 -0.6781
 4760TIP3    H235772   5.127   2.866   4.278  0.6857  2.9756  1.6577
 4761TIP3   OH235773   1.658   4.816   5.433  0.0213  0.1624  0.3463
 4761TIP3    H135774   1.572   4.774   5.424 -0.0824  0.7288 -1.9529
 4761TIP3    H235775   1.717   4.760   5.382  0.6152  0.8532  0.2671
 4762TIP3   OH235776   1.463   5.716   5.238 -0.0998 -0.0434  0.4720
 4762TIP3    H135777   1.471   5.731   5.144  1.3898  0.0168  0.5949
 4762TIP3    H235778   1.472   5.803   5.277  1.1228 -0.2761  0.7565
 4763TIP3   OH235779   5.123   0.966  15.132 -0.5682 -0.7442 -0.6253
 4763TIP3    H135780   5.033   0.958  15.164 -0.3136  0.0847  0.3341
 4763TIP3    H235781   5.129   0.901  15.062 -1.9782 -0.6706 -0.8537
 4764TIP3   OH235782   3.967   5.538  15.595  0.0969  0.2670 -0.5117
 4764TIP3    H135783   4.007   5.501  15.673  0.8439  0.9565 -0.5470
 4764TIP3    H235784   3.877   5.508  15.597 -0.0297  0.6916  0.8857
 4765TIP3   OH235785   3.220   6.170   3.877 -0.3484 -0.5747  0.2896
 4765TIP3    H135786   3.288   6.233   3.854  0.5201 -1.8984 -0.9295
 4765TIP3    H235787   3.162   6.168   3.800 -0.1134 -1.5669  0.1263
 4766TIP3   OH235788   3.085   4.438   5.353 -0.3447 -0.2162  0.1935
 4766TIP3    H135789   3.111   4.476   5.437  0.5803 -1.3600  0.4591
 4766TIP3    H235790   3.011   4.381   5.375  0.0985 -0.7583  0.2964
 4767TIP3   OH235791   4.334   3.401   1.803  0.0155  0.4826  0.4313
 4767TIP3    H135792   4.388   3.411   1.725 -3.0181  0.7134 -1.8560
 4767TIP3    H235793   4.379   3.335   1.855  1.7245 -0.4456 -2.0168
 4768TIP3   OH235794   2.520   4.335  12.730 -0.6167 -0.2555 -0.3967
 4768TIP3    H135795   2.498   4.290  12.649 -0.4271  0.5182 -0.8918
 4768TIP3    H235796   2.558   4.418  12.701  1.0215 -0.6635  0.4328
 4769TIP3   OH235797   5.541   3.034   2.151  0.3524  0.2168  0.0910
 4769TIP3    H135798   5.611   2.980   2.114  0.8548 -0.4371  1.8906
 4769TIP3    H235799   5.502   2.979   2.219  1.0555  2.1669  2.1798
 4770TIP3   OH235800   0.243   0.742   4.964  0.0243 -0.0630  0.6074
 4770TIP3    H135801   0.263   0.835   4.972 -1.0245  0.2498 -0.1098
 4770TIP3    H235802   0.189   0.723   5.041 -0.1084  0.0303  0.5387
 4771TIP3   OH235803   3.381   4.421   1.517  0.0230  0.2109  0.5221
 4771TIP3    H135804   3.344   4.472   1.589  0.3981  2.0138 -0.4999
 4771TIP3    H235805   3.470   4.455   1.508 -0.0375  0.0442 -0.8140
 4772TIP3   OH235806   5.820   0.287  12.058  0.1886  0.1977 -0.0951
 4772TIP3    H135807   5.775   0.326  11.983 -0.0028 -0.2011 -0.1939
 4772TIP3    H235808   5.789   0.196  12.059  0.3808  0.1353  0.3180
 4773TIP3   OH235809   3.508   4.678  10.601  0.0284 -0.0562  0.2710
 4773TIP3    H135810   3.469   4.656  10.517 -2.5838  0.2367  1.3071
 4773TIP3    H235811   3.600   4.651  10.594 -0.7122 -2.3312 -1.7726
 4774TIP3   OH235812   3.805   4.723  12.702 -0.4942  0.1566 -0.6189
 4774TIP3    H135813   3.764   4.732  12.616  1.1218 -0.7597 -1.5299
 4774TIP3    H235814   3.890   4.765  12.692 -0.3054  0.0743  0.5503
 4775TIP3   OH235815   4.043   6.318  13.918  0.2465 -0.6100  0.2893
 4775TIP3    H135816   3.959   6.274  13.905  0.4581 -1.1338  0.6616
 4775TIP3    H235817   4.095   6.295  13.842 -0.2284  0.4188 -0.3768
 4776TIP3   OH235818   0.840   2.918   3.660  0.6827 -0.1952  0.3285
 4776TIP3    H135819   0.877   2.993   3.613  0.8665 -1.3766 -1.5020
 4776TIP3    H235820   0.779   2.957   3.722  1.1729  1.4984 -0.1947
 4777TIP3   OH235821   3.795   4.060  15.616  0.2109  0.1664 -0.9048
 4777TIP3    H135822   3.829   4.049  15.705 -1.6344 -2.1514 -0.3739
 4777TIP3    H235823   3.863   4.023  15.559 -0.6672 -3.3259  0.0450
 4778TIP3   OH235824   5.573   0.610  17.370 -0.5569 -0.3513  0.2220
 4778TIP3    H135825   5.579   0.684  17.431 -0.7727  0.2858 -0.5134
 4778TIP3    H235826   5.507   0.552  17.409  0.4231 -0.7400  1.3867
 4779TIP3   OH235827   1.726   1.974   3.110  0.1307  0.4253 -0.1481
 4779TIP3    H135828   1.703   2.062   3.140 -0.3711  0.9025 -1.8232
 4779TIP3    H235829   1.657   1.952   3.047  2.2514  0.4522 -2.6815
 4780TIP3   OH235830   0.539   5.474  16.619 -0.1490  0.1740  0.5422
 4780TIP3    H135831   0.519   5.413  16.549  1.0752  1.5172 -1.0623
 4780TIP3    H235832   0.485   5.551  16.601  0.8323  0.8841  0.4982
 4781TIP3   OH235833   4.419   2.919  15.995  0.5947 -0.7254 -0.1270
 4781TIP3    H135834   4.446   2.830  16.015 -0.8518 -1.3431 -0.7838
 4781TIP3    H235835   4.402   2.919  15.901  1.2682  0.4512 -0.2746
 4782TIP3   OH235836   0.366   2.237  12.494  0.1661 -0.1417  0.9675
 4782TIP3    H135837   0.291   2.269  12.544  0.4734  0.5790  0.9774
 4782TIP3    H235838   0.351   2.268  12.404  0.0825 -0.6295  0.8111
 4783TIP3   OH235839   1.656   0.402   1.595  0.1857 -0.4159  0.2784
 4783TIP3    H135840   1.694   0.357   1.520  1.3915  1.4260 -0.2732
 4783TIP3    H235841   1.675   0.494   1.581 -0.0555  0.0599  2.5717
 4784TIP3   OH235842   2.551   2.231  13.017 -0.5774  0.0672  0.2911
 4784TIP3    H135843   2.480   2.180  12.979 -2.1062  1.5003  1.1020
 4784TIP3    H235844   2.516   2.264  13.099  1.0921  0.7062  0.7956
 4785TIP3   OH235845   4.376   5.480  12.233  0.3868  0.2060 -0.6460
 4785TIP3    H135846   4.290   5.463  12.195  0.0070  0.3688  0.1154
 4785TIP3    H235847   4.394   5.571  12.210  0.3714  0.1632 -0.8311
 4786TIP3   OH235848   4.946   5.359  16.398  0.8797 -0.1615  0.2568
 4786TIP3    H135849   5.016   5.403  16.350  0.2268  0.3901 -0.2162
 4786TIP3    H235850   4.890   5.431  16.428 -0.4219 -0.6778 -0.8665
 4787TIP3   OH235851   4.271   5.719   2.272  0.3163  0.0011 -0.1609
 4787TIP3    H135852   4.231   5.766   2.346 -0.5089 -1.3329  0.2782
 4787TIP3    H235853   4.306   5.639   2.311 -1.6761 -1.5845 -1.4234
 4788TIP3   OH235854   5.554   4.839  17.065  0.3108  0.2888  0.4410
 4788TIP3    H135855   5.646   4.840  17.089  0.0117 -2.2161  2.0020
 4788TIP3    H235856   5.507   4.847  17.148 -0.8523 -0.7441 -0.0850
 4789TIP3   OH235857   4.955   1.165   3.669 -0.0143  0.2619  0.3081
 4789TIP3    H135858   4.962   1.241   3.726 -0.2663  0.4609  0.0808
 4789TIP3    H235859   5.045   1.135   3.657  0.1225  0.7244  0.1365
 4790TIP3   OH235860   4.501   4.095  11.135  0.0329  0.4235 -0.0762
 4790TIP3    H135861   4.431   4.046  11.092 -0.8971 -0.6508  2.4715
 4790TIP3    H235862   4.581   4.068  11.090 -0.5395 -2.8955  0.7103
 4791TIP3   OH235863   5.912   6.353   2.422 -0.5415  0.1112 -0.2836
 4791TIP3    H135864   5.904   6.319   2.332  2.0214 -1.8419  0.1091
 4791TIP3    H235865   5.921   6.275   2.476  1.3583  1.3092  1.2444
 4792TIP3   OH235866   0.835   2.283   2.009 -0.0265 -0.5227 -0.0598
 4792TIP3    H135867   0.793   2.368   2.023 -0.2198 -0.3200 -1.6635
 4792TIP3    H235868   0.906   2.301   1.948  0.7175 -1.3214  0.5575
 4793TIP3   OH235869   1.930   5.585  14.171  0.4894 -0.5249 -0.4522
 4793TIP3    H135870   1.949   5.509  14.116 -0.4671 -0.3777 -1.0149
 4793TIP3    H235871   1.842   5.612  14.144 -0.1981 -0.7124  1.4480
 4794TIP3   OH235872   6.203   1.745  13.372  0.2167  0.1853  0.2795
 4794TIP3    H135873   6.256   1.676  13.334 -0.7443  0.1591 -1.0632
 4794TIP3    H235874   6.258   1.823  13.367  1.0667 -0.3244  1.2313
 4795TIP3   OH235875   0.057   1.980   5.222  0.2241 -0.1247 -0.2242
 4795TIP3    H135876  -0.005   2.005   5.291  0.4391 -0.5341  0.1270
 4795TIP3    H235877   0.126   1.933   5.269  0.3623 -0.4256 -0.7241
 4796TIP3   OH235878   1.829   6.717  16.552  0.4608 -0.4422  0.0557
 4796TIP3    H135879   1.902   6.757  16.504 -0.8442  1.3177 -0.6136
 4796TIP3    H235880   1.861   6.708  16.642  1.4358  0.4871 -0.1735
 4797TIP3   OH235881   0.632   1.497  17.249  0.4153  0.7540  0.3384
 4797TIP3    H135882   0.566   1.566  17.237 -2.4460 -1.7124  0.7831
 4797TIP3    H235883   0.604   1.427  17.189  2.2959 -0.6328  1.0146
 4798TIP3   OH235884   2.894   1.040   0.324 -0.0536 -0.3000 -0.1566
 4798TIP3    H135885   2.812   1.018   0.368 -0.1463  2.6826  1.4911
 4798TIP3    H235886   2.928   0.957   0.293 -3.6004 -1.6917 -0.8019
 4799TIP3   OH235887   0.461   5.881  16.973 -0.2186 -0.1175  0.3001
 4799TIP3    H135888   0.544   5.927  16.959  0.5856 -1.1633  1.4001
 4799TIP3    H235889   0.484   5.788  16.963 -1.9100 -0.3511 -2.4283
 4800TIP3   OH235890   0.794   1.481  14.235  0.5226  0.0466  0.5348
 4800TIP3    H135891   0.849   1.554  14.209 -0.3429  0.6619  0.3786
 4800TIP3    H235892   0.750   1.454  14.155 -1.2864  1.2091  1.0744
 4801TIP3   OH235893   6.083   1.620   5.280 -0.4012 -0.1052 -0.9255
 4801TIP3    H135894   6.079   1.614   5.185 -0.3365 -2.4868 -0.8385
 4801TIP3    H235895   6.117   1.535   5.308 -0.6346  0.4510  1.2481
 4802TIP3   OH235896   4.911   0.741  11.680 -0.0633 -0.2972 -0.2366
 4802TIP3    H135897   4.907   0.746  11.584 -2.4621 -1.7876 -0.3186
 4802TIP3    H235898   4.893   0.648  11.700 -1.2444  0.2706  1.6479
 4803TIP3   OH235899   1.990   0.971  13.294 -0.5055  0.6308 -0.5239
 4803TIP3    H135900   2.009   1.041  13.356 -2.5610 -0.1226  1.0737
 4803TIP3    H235901   1.990   1.014  13.208  0.4290  2.1089  0.1832
 4804TIP3   OH235902   5.486   5.039  11.921  0.0022  0.2719  0.1303
 4804TIP3    H135903   5.398   5.065  11.894 -0.7363 -3.3601 -1.4923
 4804TIP3    H235904   5.542   5.068  11.850 -0.2972  0.1740 -0.1480
 4805TIP3   OH235905   0.761   3.118  13.703 -0.2596  0.5904 -0.4985
 4805TIP3    H135906   0.747   3.209  13.678  1.8841  0.9205 -0.6851
 4805TIP3    H235907   0.805   3.079  13.627 -0.8648 -0.5200 -0.2934
 4806TIP3   OH235908   5.568   4.800   0.433  1.0345  0.4329  0.4920
 4806TIP3    H135909   5.504   4.870   0.446 -0.0151 -0.1050 -1.4453
 4806TIP3    H235910   5.594   4.774   0.522 -3.2796 -0.9954  1.5737
 4807TIP3   OH235911   5.843   3.136   6.248 -0.1322 -0.4417  0.4207
 4807TIP3    H135912   5.810   3.046   6.252  1.0216 -1.0021 -1.5680
 4807TIP3    H235913   5.931   3.131   6.286  0.1522 -0.2803 -0.2026
 4808TIP3   OH235914   1.691   3.031   3.865 -0.1037  0.1928  0.4704
 4808TIP3    H135915   1.609   2.982   3.857 -0.3686  0.9109 -1.9461
 4808TIP3    H235916   1.687   3.096   3.796  1.2887  2.1277  2.0972
 4809TIP3   OH235917   3.739   2.552   4.226  0.2309 -0.0266  0.3444
 4809TIP3    H135918   3.662   2.606   4.246  0.7214  1.4749 -1.4893
 4809TIP3    H235919   3.813   2.613   4.229  0.8985 -0.7163 -1.1179
 4810TIP3   OH235920   1.997   2.229   5.636  0.1407 -0.7788 -0.3453
 4810TIP3    H135921   2.089   2.202   5.631  0.8440  0.9948  1.5371
 4810TIP3    H235922   1.978   2.265   5.549  0.5155 -3.0648 -1.4348
 4811TIP3   OH235923   2.087   4.148  17.290 -0.6184 -0.4130 -0.0828
 4811TIP3    H135924   2.089   4.223  17.349 -2.9058 -0.3989  0.0808
 4811TIP3    H235925   2.126   4.181  17.209 -0.2814  0.5065  0.4352
 4812TIP3   OH235926   2.010   4.768  14.915 -0.2727  0.7017  0.3866
 4812TIP3    H135927   2.100   4.758  14.884  0.1243  0.3045  1.5925
 4812TIP3    H235928   1.999   4.697  14.978 -1.0214  1.4718  1.1518
 4813TIP3   OH235929   6.689   5.013  12.755 -0.1660  0.0469  0.0944
 4813TIP3    H135930   6.678   5.063  12.836  1.9023 -1.9236  1.7233
 4813TIP3    H235931   6.772   5.044  12.718 -0.1710 -0.3710 -0.2767
 4814TIP3   OH235932   2.933   0.507  13.968 -0.0146  0.7028 -0.0349
 4814TIP3    H135933   2.981   0.473  14.043  0.9077  1.8931 -0.0456
 4814TIP3    H235934   2.841   0.497  13.992  0.2159 -0.9882  0.2840
 4815TIP3   OH235935   3.975   1.905   4.840  0.2984 -0.4601 -0.0647
 4815TIP3    H135936   3.896   1.898   4.786  0.3780 -2.3527  0.0115
 4815TIP3    H235937   3.965   1.838   4.907  1.7386 -0.3907  0.2614
 4816TIP3   OH235938   2.813   3.978  17.052 -0.5067  0.5464  0.0096
 4816TIP3    H135939   2.740   3.960  16.993 -0.0817 -1.7755  0.0856
 4816TIP3    H235940   2.849   3.892  17.072  2.6185  1.6390 -0.4357
 4817TIP3   OH235941   1.111   0.898  12.043  0.2100 -0.1409  0.1025
 4817TIP3    H135942   1.093   0.804  12.051 -1.3724  0.2138  1.0424
 4817TIP3    H235943   1.062   0.938  12.114  2.3085  1.2695  0.8694
 4818TIP3   OH235944   4.309   5.456  11.097  0.2879  0.1888 -0.1216
 4818TIP3    H135945   4.217   5.431  11.107 -0.1715  1.0248 -1.8262
 4818TIP3    H235946   4.322   5.526  11.161  0.2964 -1.1749  1.4281
 4819TIP3   OH235947   3.405   1.566  13.751 -0.2146  0.2498 -0.0492
 4819TIP3    H135948   3.347   1.581  13.827 -0.0128  2.9706 -0.3565
 4819TIP3    H235949   3.468   1.638  13.754 -0.5286  0.7723 -3.1078
 4820TIP3   OH235950   0.889   2.133   0.342  0.2153  0.1612  0.2507
 4820TIP3    H135951   0.832   2.210   0.342  0.2156  0.1794 -0.7971
 4820TIP3    H235952   0.849   2.073   0.405 -2.5482 -0.9352 -2.3055
 4821TIP3   OH235953   4.695   0.005  12.091  0.2064  0.2165  0.6498
 4821TIP3    H135954   4.645  -0.026  12.166 -0.5780  2.5223  1.1691
 4821TIP3    H235955   4.630   0.047  12.034  0.5728 -2.4914 -1.9938
 4822TIP3   OH235956   2.812   2.656   1.140 -0.3154 -0.2535 -0.6170
 4822TIP3    H135957   2.797   2.573   1.095 -1.9725 -0.0201 -0.5674
 4822TIP3    H235958   2.781   2.722   1.079 -1.4126  0.1468  0.3264
 4823TIP3   OH235959   6.782   6.568   1.867 -0.2910  0.4556  0.2504
 4823TIP3    H135960   6.703   6.622   1.861 -1.9839 -1.8959 -0.0758
 4823TIP3    H235961   6.792   6.531   1.779  0.7320  0.1294  0.4942
 4824TIP3   OH235962   2.119   6.158  11.575  0.5203  0.2165  0.2253
 4824TIP3    H135963   2.043   6.159  11.516 -1.7200  0.8277  2.8859
 4824TIP3    H235964   2.164   6.076  11.555 -0.7526 -0.1121 -1.5529
 4825TIP3   OH235965   4.683   0.916   1.282 -0.1586 -0.2602  0.0158
 4825TIP3    H135966   4.763   0.967   1.289 -0.9378  1.2853 -1.5798
 4825TIP3    H235967   4.620   0.962   1.338  0.2370 -1.9850  2.0032
 4826TIP3   OH235968   4.360   0.384   0.771 -0.1094 -1.0409  0.0847
 4826TIP3    H135969   4.386   0.448   0.837 -0.6361 -1.0154  0.2714
 4826TIP3    H235970   4.294   0.329   0.814 -1.3347 -0.2928 -0.7510
 4827TIP3   OH235971   5.354   2.967   5.035 -1.0798 -0.1630 -0.1900
 4827TIP3    H135972   5.314   3.054   5.031 -1.7164 -0.4248  0.2345
 4827TIP3    H235973   5.283   2.910   5.066 -0.1900 -0.5409  1.2322
 4828TIP3   OH235974   5.198   0.551   4.924 -0.1211 -0.0009 -0.4174
 4828TIP3    H135975   5.207   0.574   5.017 -1.1932 -2.6737  0.4638
 4828TIP3    H235976   5.278   0.584   4.883  0.7756  0.5345  1.6389
 4829TIP3   OH235977   5.622   3.076  16.209  0.2233  0.0427  0.1472
 4829TIP3    H135978   5.606   3.168  16.190  0.2859 -0.2660 -1.5110
 4829TIP3    H235979   5.571   3.058  16.288  0.5821  1.6046  0.7636
 4830TIP3   OH235980   0.903   4.546   3.014  0.0406  0.7730  0.8275
 4830TIP3    H135981   0.895   4.459   2.977 -0.2679  1.5337 -0.9661
 4830TIP3    H235982   0.918   4.531   3.108 -0.0009 -1.1799  0.5508
 4831TIP3   OH235983   2.020   6.770   0.368 -0.0630  0.2990 -0.1336
 4831TIP3    H135984   2.051   6.774   0.459 -1.7815  0.0259  0.4893
 4831TIP3    H235985   1.987   6.681   0.358 -0.4727  0.5295 -0.8377
 4832TIP3   OH235986   0.365   3.548   5.184 -0.3582 -0.0827 -0.0503
 4832TIP3    H135987   0.303   3.492   5.138 -0.0133 -0.2412 -0.3369
 4832TIP3    H235988   0.322   3.572   5.265 -0.3013 -1.2127  0.3338
 4833TIP3   OH235989   5.276   0.913  11.809  0.1102 -0.2367  0.2287
 4833TIP3    H135990   5.314   0.831  11.841  3.3386  1.3601  1.0025
 4833TIP3    H235991   5.347   0.953  11.758 -1.4557  1.9297 -0.3664
 4834TIP3   OH235992   4.707   5.281  14.300 -0.2736 -0.3148 -0.1390
 4834TIP3    H135993   4.802   5.286  14.288 -0.4651  1.0528 -1.4023
 4834TIP3    H235994   4.693   5.304  14.392  0.5479  0.9968 -0.3041
 4835TIP3   OH235995   1.606   4.196  13.606 -0.3811 -0.1458  0.2533
 4835TIP3    H135996   1.689   4.232  13.638  1.3127 -4.5909  1.5278
 4835TIP3    H235997   1.544   4.269  13.615  2.8820  2.8364  1.0690
 4836TIP3   OH235998   4.990   3.864   0.941 -0.5085  0.1322  0.1985
 4836TIP3    H135999   4.920   3.800   0.952  0.9508 -1.4389  0.8587
 4836TIP3    H236000   4.987   3.917   1.021  0.6085 -1.5988  1.4679
 4837TIP3   OH236001   0.386   0.273  13.089 -0.0630 -0.3318  0.3397
 4837TIP3    H136002   0.378   0.363  13.121  0.8364 -0.4365  0.8828
 4837TIP3    H236003   0.449   0.278  13.018 -0.6992 -0.3930 -0.2338
 4838TIP3   OH236004   6.400   6.452   3.623 -0.3724 -0.3947 -0.4500
 4838TIP3    H136005   6.448   6.369   3.620  2.1488  0.9780 -0.9380
 4838TIP3    H236006   6.466   6.517   3.647 -2.1041  1.5853 -0.7504
 4839TIP3   OH236007   5.375   4.281  16.911 -0.5788 -0.3375 -0.2132
 4839TIP3    H136008   5.398   4.226  16.986 -2.3720 -1.5730 -0.5045
 4839TIP3    H236009   5.458   4.303  16.870  0.2461 -2.3325  0.2939
 4840TIP3   OH236010   4.183   0.104  13.033  1.0083  0.1252  0.5000
 4840TIP3    H136011   4.180   0.147  13.119  1.3296  2.2238 -0.4551
 4840TIP3    H236012   4.096   0.067  13.022  0.6773  0.5955  1.3642
 4841TIP3   OH236013   5.084   5.601   5.921 -0.2614  0.4910 -0.8456
 4841TIP3    H136014   5.097   5.606   6.016 -1.8966 -1.8377 -0.4383
 4841TIP3    H236015   5.167   5.633   5.885  0.8576  0.3018  1.3631
 4842TIP3   OH236016   4.961   4.620   0.834 -0.2075 -0.4002 -0.5139
 4842TIP3    H136017   5.007   4.567   0.768 -0.7821 -0.5254 -0.8183
 4842TIP3    H236018   5.014   4.611   0.913  0.9855  0.4431 -1.1658
 4843TIP3   OH236019   6.635   6.704   5.604 -0.0467  0.1602 -0.8911
 4843TIP3    H136020   6.609   6.761   5.676 -1.1491 -0.2712 -0.9420
 4843TIP3    H236021   6.731   6.701   5.609 -0.1343 -2.4465  2.5675
 4844TIP3   OH236022   3.166   5.637   2.529  0.0153 -0.8316  0.0485
 4844TIP3    H136023   3.100   5.637   2.459  0.9250  1.9136 -0.9529
 4844TIP3    H236024   3.247   5.611   2.485  0.0632 -1.8955  0.7484
 4845TIP3   OH236025   5.290   4.921   3.354 -0.2811 -0.3453  0.6530
 4845TIP3    H136026   5.297   4.916   3.449 -1.6781 -2.6496  0.6890
 4845TIP3    H236027   5.325   4.838   3.322 -0.9497 -0.1200 -0.7747
 4846TIP3   OH236028   1.361   5.337  13.937 -0.3363 -0.0592 -0.1983
 4846TIP3    H136029   1.382   5.428  13.919  2.7617 -0.7753 -0.9152
 4846TIP3    H236030   1.400   5.289  13.864 -0.3039 -2.0632  1.0545
 4847TIP3   OH236031   5.435   5.710   1.600  0.4852  0.1186 -0.0267
 4847TIP3    H136032   5.345   5.724   1.627  1.1324  0.5393  2.1294
 4847TIP3    H236033   5.470   5.797   1.584  1.3401  0.2536  2.2475
 4848TIP3   OH236034   2.185   1.474  14.314  0.0501 -0.5080 -0.1547
 4848TIP3    H136035   2.166   1.559  14.353 -0.8496  0.1660 -1.9619
 4848TIP3    H236036   2.112   1.418  14.341  0.3746 -0.5690  0.6081
 4849TIP3   OH236037   5.242   3.891   5.429 -0.7104  0.7760 -0.2203
 4849TIP3    H136038   5.224   3.977   5.393 -0.0008  0.6385 -0.9468
 4849TIP3    H236039   5.333   3.873   5.404 -1.4921 -1.0886 -2.0057
 4850TIP3   OH236040   1.008   5.965   5.291  0.5482  0.0961 -0.6116
 4850TIP3    H136041   0.927   6.011   5.315  0.8056 -0.1990  0.9715
 4850TIP3    H236042   1.016   5.895   5.357  2.0495  0.0695 -0.7878
 4851TIP3   OH236043   6.747   0.632  13.515 -0.2480  0.0396 -0.0868
 4851TIP3    H136044   6.753   0.674  13.429 -2.1391 -1.1823 -0.8986
 4851TIP3    H236045   6.719   0.702  13.574 -1.6196  0.3501 -1.0508
 4852TIP3   OH236046   6.028   1.544  17.303  0.6124  0.4180 -0.2974
 4852TIP3    H136047   6.088   1.527  17.231 -0.9296  0.1959 -1.5752
 4852TIP3    H236048   5.958   1.481  17.292 -0.6117  1.6273  0.2741
 4853TIP3   OH236049   2.473   5.260   6.008 -0.3112 -0.5846 -0.0430
 4853TIP3    H136050   2.537   5.192   6.029 -0.0034 -0.0264  0.8833
 4853TIP3    H236051   2.477   5.320   6.082 -3.0404 -1.3381  0.8384
 4854TIP3   OH236052   5.101   1.411  11.114 -0.1169 -0.1926 -0.8303
 4854TIP3    H136053   5.129   1.502  11.116  2.4790 -0.8703  2.5164
 4854TIP3    H236054   5.153   1.371  11.044 -0.4385  0.6177 -1.5482
 4855TIP3   OH236055   1.056   3.419  11.188 -0.3360 -0.3794 -0.3564
 4855TIP3    H136056   1.107   3.367  11.250  1.2300 -1.5144 -2.4690
 4855TIP3    H236057   1.105   3.501  11.179 -0.3929 -0.3432 -0.3392
 4856TIP3   OH236058   6.453   3.847   1.082  0.2710  0.2331 -0.0923
 4856TIP3    H136059   6.500   3.923   1.117 -1.0239  0.6776  0.7505
 4856TIP3    H236060   6.374   3.885   1.043 -0.2043 -0.6469  0.0072
 4857TIP3   OH236061   1.644   4.243  13.999 -0.5164  0.1963  0.6387
 4857TIP3    H136062   1.654   4.308  14.068 -0.5108  2.0697 -1.0473
 4857TIP3    H236063   1.551   4.218  14.003 -0.5631  0.4413  1.1701
 4858TIP3   OH236064   5.221   4.635   5.849  0.4880 -0.2692 -0.0353
 4858TIP3    H136065   5.193   4.576   5.919  0.1015 -0.2600 -0.1781
 4858TIP3    H236066   5.140   4.675   5.817  0.8978  1.8925  1.4276
 4859TIP3   OH236067   3.287   3.416  13.408  0.2746 -0.8605  0.3095
 4859TIP3    H136068   3.275   3.395  13.315 -1.3464  1.7486 -0.1745
 4859TIP3    H236069   3.209   3.381  13.451 -1.4309  1.9784 -0.1910
 4860TIP3   OH236070   5.607   5.961  15.628  0.7697 -0.5531  0.0100
 4860TIP3    H136071   5.618   6.042  15.579 -0.4120 -1.0142 -1.0732
 4860TIP3    H236072   5.619   5.986  15.720  1.5122  0.6147 -0.3833
 4861TIP3   OH236073   0.865   6.564  11.868 -0.5917  0.2703 -0.0099
 4861TIP3    H136074   0.777   6.585  11.899 -1.2283 -0.1410 -1.4436
 4861TIP3    H236075   0.923   6.622  11.917 -1.6907  0.7898  0.7075
 4862TIP3   OH236076   1.550   4.200   0.627  0.1073  0.2759 -0.3184
 4862TIP3    H136077   1.489   4.251   0.573 -0.0795  0.3626 -0.0298
 4862TIP3    H236078   1.588   4.136   0.567 -0.1934  0.2871 -0.5206
 4863TIP3   OH236079   1.456   3.254   5.255  0.6609  0.2665  0.0410
 4863TIP3    H136080   1.513   3.207   5.194  0.6463 -0.8484  0.8670
 4863TIP3    H236081   1.385   3.289   5.199  0.5764 -0.8336 -0.5693
 4864TIP3   OH236082   0.113   5.786  16.813 -0.1982 -0.5972  0.3040
 4864TIP3    H136083   0.104   5.867  16.863 -1.8529 -1.4250  1.4299
 4864TIP3    H236084   0.208   5.776  16.801  0.1183  0.7113  1.4415
 4865TIP3   OH236085   2.127   3.739   5.277 -0.3266  0.0287 -0.2065
 4865TIP3    H136086   2.039   3.718   5.244 -0.8304  0.5727  0.7432
 4865TIP3    H236087   2.131   3.835   5.273 -0.0300  0.0425  0.3758
 4866TIP3   OH236088   2.254   6.238  14.334 -0.1917  0.1882 -0.2827
 4866TIP3    H136089   2.344   6.206  14.334 -0.0643  0.5351 -1.1479
 4866TIP3    H236090   2.263   6.333  14.348 -0.3997  0.2674 -0.6774
 4867TIP3   OH236091   2.112   5.205   2.649  0.3208 -0.0334 -1.0390
 4867TIP3    H136092   2.072   5.160   2.575 -0.1810 -1.2485 -0.0641
 4867TIP3    H236093   2.206   5.194   2.637  0.2081 -2.4490 -0.2197
 4868TIP3   OH236094   0.090   1.988  10.479  0.8561 -0.0183 -0.2505
 4868TIP3    H136095   0.179   1.998  10.444  0.6917 -0.2712 -0.7486
 4868TIP3    H236096   0.082   1.894  10.497  0.2167 -0.2236 -1.5074
 4869TIP3   OH236097   0.144   5.603  15.028 -0.8125 -0.0214 -0.5596
 4869TIP3    H136098   0.222   5.602  14.973 -0.1013  2.2798  0.2981
 4869TIP3    H236099   0.178   5.603  15.117 -1.7739  0.6801 -0.1722
 4870TIP3   OH236100   3.168   1.276   3.051 -0.3401  0.3514 -0.0302
 4870TIP3    H136101   3.229   1.275   2.977  0.3792 -0.5466  0.5585
 4870TIP3    H236102   3.163   1.368   3.076  0.2917  0.5203 -0.4894
 4871TIP3   OH236103   5.295   2.445   2.115 -0.3231  0.1715 -0.1184
 4871TIP3    H136104   5.381   2.485   2.104  0.0342 -0.8806 -1.4623
 4871TIP3    H236105   5.235   2.505   2.069 -0.0463  0.0701 -0.6292
 4872TIP3   OH236106   3.455   4.419   4.189 -0.4709 -0.1566 -0.3228
 4872TIP3    H136107   3.481   4.474   4.115  1.5918 -0.1574  0.3147
 4872TIP3    H236108   3.368   4.450   4.213  0.7847  3.2955  0.3434
 4873TIP3   OH236109   5.769   1.462   2.287  0.7452 -0.5696 -0.5377
 4873TIP3    H136110   5.735   1.480   2.374  1.9594 -1.3393  0.1282
 4873TIP3    H236111   5.750   1.370   2.272 -1.7932  0.1265 -2.2251
 4874TIP3   OH236112   4.420   4.809   0.785 -0.3008 -0.0660  0.4155
 4874TIP3    H136113   4.461   4.763   0.858  2.2093  0.3573 -0.6413
 4874TIP3    H236114   4.335   4.837   0.820 -0.7749 -3.0336  1.9410
 4875TIP3   OH236115   3.292   0.955   0.829 -0.0979 -0.4456  0.8183
 4875TIP3    H136116   3.200   0.974   0.807  0.8055  1.1119 -2.1358
 4875TIP3    H236117   3.325   1.036   0.866  0.7364 -0.0746 -0.6731
 4876TIP3   OH236118   0.359   2.978   1.534 -0.3897  0.0314  0.7347
 4876TIP3    H136119   0.386   2.890   1.560  3.4394 -0.3324 -3.2327
 4876TIP3    H236120   0.425   3.036   1.571  0.9720  0.2724 -1.8100
 4877TIP3   OH236121   5.011   6.280   6.584 -0.6845 -0.7354 -0.6905
 4877TIP3    H136122   4.974   6.206   6.633 -1.6876 -0.4191 -0.9342
 4877TIP3    H236123   5.030   6.346   6.651 -0.9621 -0.7419 -0.6052
 4878TIP3   OH236124   3.437   0.655  17.167  0.1328  0.1967  0.0216
 4878TIP3    H136125   3.489   0.576  17.181 -1.6358 -1.0245 -0.0723
 4878TIP3    H236126   3.408   0.649  17.076  0.7578  1.4672 -0.2879
 4879TIP3   OH236127   2.856   0.827  14.787 -0.0251 -0.1576  0.5149
 4879TIP3    H136128   2.866   0.883  14.710 -1.3040  0.4103  0.7337
 4879TIP3    H236129   2.809   0.750  14.754 -2.2689  0.9121  1.0244
 4880TIP3   OH236130   1.558   4.365   4.835 -0.7505 -0.4712  0.1932
 4880TIP3    H136131   1.642   4.393   4.800  0.1491 -1.0314  1.8112
 4880TIP3    H236132   1.556   4.400   4.924 -1.6102 -1.6487  0.6610
 4881TIP3   OH236133   1.040   2.025  11.390 -0.2440  0.3676  0.4160
 4881TIP3    H136134   1.035   2.080  11.313  0.0753 -0.1899 -0.0075
 4881TIP3    H236135   0.951   1.989  11.399 -0.4450  0.9178  0.6770
 4882TIP3   OH236136   3.672   2.372  13.491 -0.1403  0.5804 -0.7544
 4882TIP3    H136137   3.627   2.425  13.557  2.8350  1.1140  1.0078
 4882TIP3    H236138   3.609   2.304  13.468 -2.4199  2.1877  0.2968
 4883TIP3   OH236139   4.141   0.929  12.035  0.2239  0.3353 -0.1504
 4883TIP3    H136140   4.119   1.021  12.047 -2.4084 -0.4451  2.1720
 4883TIP3    H236141   4.205   0.910  12.103 -0.1570  0.1958  0.1722
 4884TIP3   OH236142   6.584   1.822   0.025 -0.0971 -0.1553 -0.7813
 4884TIP3    H136143   6.490   1.806   0.028 -0.2838  0.9783  0.3712
 4884TIP3    H236144   6.594   1.899  -0.030 -0.2604  1.9826  1.9741
 4885TIP3   OH236145   3.648   2.570  17.319 -0.2341  0.3032 -0.0176
 4885TIP3    H136146   3.645   2.631  17.246 -1.9664  2.9114  2.0282
 4885TIP3    H236147   3.739   2.540  17.322  0.3215  1.6126 -2.0439
 4886TIP3   OH236148   0.138   2.227  15.574 -0.0097 -0.1539  0.4563
 4886TIP3    H136149   0.107   2.156  15.517 -0.0237  1.2203 -1.3237
 4886TIP3    H236150   0.222   2.196  15.608  0.7244 -0.4315 -1.5048
 4887TIP3   OH236151   2.690   4.119   6.254 -0.1055 -0.3952  0.4464
 4887TIP3    H136152   2.690   4.206   6.215 -0.9108 -0.3819  0.4517
 4887TIP3    H236153   2.611   4.117   6.309 -1.2113 -1.7842 -1.0851
 4888TIP3   OH236154   4.724   1.779   5.947 -0.0231  0.1280  0.8621
 4888TIP3    H136155   4.814   1.756   5.969  0.7794  0.7153 -1.5055
 4888TIP3    H236156   4.725   1.875   5.940 -0.3076  0.0411 -0.9898
 4889TIP3   OH236157   6.778   2.579   5.210 -0.1050 -0.7435  0.0589
 4889TIP3    H136158   6.846   2.548   5.270 -0.2633 -0.9000  0.1622
 4889TIP3    H236159   6.794   2.672   5.200 -0.8044 -0.4612  1.3139
 4890TIP3   OH236160   0.362   0.970  13.032 -0.0087 -0.8113 -0.1129
 4890TIP3    H136161   0.316   0.974  13.116  0.2685 -1.9736  0.1026
 4890TIP3    H236162   0.427   0.901  13.043  1.2286  0.2093 -0.7003
 4891TIP3   OH236163   3.433   0.058   5.004 -0.1199  0.3143 -0.3970
 4891TIP3    H136164   3.345   0.021   5.005  0.8056 -2.1073  0.9792
 4891TIP3    H236165   3.425   0.143   5.047 -1.6870 -0.0773  0.1475
 4892TIP3   OH236166   1.127   2.800   1.472  0.0494  0.5325  0.5340
 4892TIP3    H136167   1.206   2.792   1.418 -0.7251 -0.2049 -0.5550
 4892TIP3    H236168   1.154   2.771   1.559  1.0696  0.6760  0.2782
 4893TIP3   OH236169   2.467   5.768  12.206 -0.5869 -0.3926 -0.0568
 4893TIP3    H136170   2.450   5.842  12.148  0.1142 -0.3166 -0.1727
 4893TIP3    H236171   2.559   5.747  12.192 -1.3139 -2.8381 -1.8168
 4894TIP3   OH236172   3.168   6.022  15.626 -0.0051  0.6481  0.2129
 4894TIP3    H136173   3.082   6.013  15.665 -0.4859 -0.1063 -0.9521
 4894TIP3    H236174   3.227   5.972  15.683 -0.5456  0.1970  0.3770
 4895TIP3   OH236175   3.231   1.669  17.221 -0.8063  0.3908 -0.1795
 4895TIP3    H136176   3.155   1.621  17.254 -0.8267  0.8287  0.4198
 4895TIP3    H236177   3.221   1.667  17.125 -0.3694 -1.5133 -0.2303
 4896TIP3   OH236178   2.889   5.295   4.279  0.5700  0.0483  0.1400
 4896TIP3    H136179   2.801   5.292   4.242  1.1179 -0.1997 -1.2226
 4896TIP3    H236180   2.930   5.371   4.238  0.2035  1.7782  2.7453
 4897TIP3   OH236181   1.989   0.041  13.677 -0.0613 -0.2903 -0.2797
 4897TIP3    H136182   1.962   0.126  13.710 -0.3521 -1.1369  1.8313
 4897TIP3    H236183   2.082   0.033  13.702 -0.1361 -0.7276 -0.1211
 4898TIP3   OH236184   5.569   6.708  10.337  0.4874 -0.1642  0.0617
 4898TIP3    H136185   5.534   6.624  10.308 -0.3532  0.7868 -1.8666
 4898TIP3    H236186   5.501   6.746  10.392  0.5566 -0.4188  0.3239
 4899TIP3   OH236187   3.800   0.494   6.537 -0.4339 -0.3550 -0.0453
 4899TIP3    H136188   3.841   0.562   6.589 -0.2855 -0.2782 -0.2606
 4899TIP3    H236189   3.793   0.419   6.596  2.0015 -1.1083 -0.5874
 4900TIP3   OH236190   1.350   4.072  10.780  0.3328 -0.6418 -0.0354
 4900TIP3    H136191   1.335   4.069  10.685 -0.3345  0.3245  0.0256
 4900TIP3    H236192   1.330   3.983  10.809 -2.7768 -0.1847 -0.3849
 4901TIP3   OH236193   0.928   0.421  16.154 -0.3499 -0.3965  0.0624
 4901TIP3    H136194   0.853   0.461  16.200 -0.3974  0.5669 -0.8177
 4901TIP3    H236195   0.973   0.372  16.222 -1.5642 -0.6789  0.7008
 4902TIP3   OH236196   1.424   2.867   0.579  0.2213  0.1527  0.0928
 4902TIP3    H136197   1.363   2.824   0.519  0.9767 -1.7376  0.6075
 4902TIP3    H236198   1.369   2.906   0.647 -0.6004  1.7273 -1.4119
 4903TIP3   OH236199   1.235   1.898   3.355 -0.1683  0.4317 -0.4609
 4903TIP3    H136200   1.191   1.821   3.320 -1.3486 -0.0835  1.8969
 4903TIP3    H236201   1.166   1.964   3.362 -0.3974  0.0175  2.1523
 4904TIP3   OH236202   2.007   3.881  17.175  0.1510 -0.2137 -0.0657
 4904TIP3    H136203   1.935   3.884  17.112 -0.8753  0.7330  1.1034
 4904TIP3    H236204   2.002   3.964  17.222  0.6176 -1.0567  1.5556
 4905TIP3   OH236205   5.627   2.675  13.860  0.2115 -0.6091  0.0025
 4905TIP3    H136206   5.639   2.588  13.822  0.1520 -0.9989  0.8477
 4905TIP3    H236207   5.654   2.665  13.952 -2.1480 -0.3700  0.7806
 4906TIP3   OH236208   4.823   6.545   2.956  0.4817 -0.4915 -0.1277
 4906TIP3    H136209   4.736   6.538   2.916  0.0977 -1.1885  0.8041
 4906TIP3    H236210   4.869   6.609   2.902 -1.4136  1.7612  0.7709
 4907TIP3   OH236211   0.597   0.932  14.942  0.2266 -0.6608  0.3251
 4907TIP3    H136212   0.585   0.950  14.849 -1.5539 -1.8305  0.2916
 4907TIP3    H236213   0.575   1.015  14.985  1.1586 -0.0834 -0.2727
 4908TIP3   OH236214   2.928   3.795   4.728 -0.1250 -0.5423 -0.2995
 4908TIP3    H136215   2.916   3.889   4.714 -0.8501 -0.3810  1.1981
 4908TIP3    H236216   2.990   3.768   4.660 -0.7371  0.7974 -1.4388
 4909TIP3   OH236217   1.305   1.491   4.968  0.2717  0.0624  0.0479
 4909TIP3    H136218   1.294   1.414   4.912 -1.9021 -0.5553  1.2187
 4909TIP3    H236219   1.232   1.548   4.944  0.9974  1.1092  0.2559
 4910TIP3   OH236220   0.826   2.685  15.772 -0.1333  0.2779 -0.2891
 4910TIP3    H136221   0.805   2.593  15.761  1.5841  0.0168 -2.0277
 4910TIP3    H236222   0.777   2.730  15.703 -0.9712  0.7036  0.5557
 4911TIP3   OH236223   5.388   0.270  16.721 -0.6907  0.2563 -0.4679
 4911TIP3    H136224   5.442   0.341  16.755 -0.7632 -0.4459  1.1580
 4911TIP3    H236225   5.446   0.223  16.660  0.3150 -0.0165  0.6575
 4912TIP3   OH236226   4.541   2.458  11.511 -0.1424  0.8987 -0.1566
 4912TIP3    H136227   4.543   2.541  11.559 -1.2216  0.5392  0.5601
 4912TIP3    H236228   4.557   2.391  11.578 -3.3396  0.2561  0.1403
 4913TIP3   OH236229   1.997   1.344  13.622 -0.0156 -0.5453 -0.5857
 4913TIP3    H136230   1.917   1.377  13.580  0.0059 -0.9039 -0.9229
 4913TIP3    H236231   1.969   1.261  13.661 -0.3017  0.2990  1.0585
 4914TIP3   OH236232   6.388   6.471   5.134 -0.4588 -0.4398 -0.2619
 4914TIP3    H136233   6.435   6.397   5.096 -1.0537 -0.5205 -0.8601
 4914TIP3    H236234   6.395   6.457   5.229 -1.3908 -1.7995 -0.3637
 4915TIP3   OH236235   3.048   6.123  11.051 -0.1341 -0.1536 -0.0088
 4915TIP3    H136236   3.123   6.163  11.095  0.0707 -0.1285 -0.3767
 4915TIP3    H236237   3.072   6.123  10.958 -1.3167  1.4557 -0.3400
 4916TIP3   OH236238   1.032   4.983  12.073  1.0937  0.3525 -0.4563
 4916TIP3    H136239   0.985   4.955  12.152  0.8026 -0.3540 -0.8645
 4916TIP3    H236240   0.982   4.944  12.001  2.0731 -0.0817 -0.9231
 4917TIP3   OH236241   4.045   2.601  15.026  0.0744 -0.3182  0.5907
 4917TIP3    H136242   3.990   2.590  15.104 -0.8566  0.3180  0.0470
 4917TIP3    H236243   4.134   2.602  15.060 -0.3622  1.8159  1.9028
 4918TIP3   OH236244   1.561   2.318  12.610 -0.3531 -0.0722 -0.8149
 4918TIP3    H136245   1.508   2.382  12.658 -0.0403 -0.7768  0.5215
 4918TIP3    H236246   1.502   2.243  12.598  0.4130 -1.0722  1.1439
 4919TIP3   OH236247   6.155   3.312   0.462 -0.2196 -0.5119  0.3320
 4919TIP3    H136248   6.139   3.301   0.368  0.4267 -2.8415  0.4383
 4919TIP3    H236249   6.078   3.272   0.504  0.3436 -1.1443  0.7831
 4920TIP3   OH236250   2.925   2.872   1.923 -0.3145 -0.1898  0.5733
 4920TIP3    H136251   2.938   2.853   1.830  1.6493 -0.0934  0.7894
 4920TIP3    H236252   2.888   2.960   1.925 -0.6678 -0.3140 -0.1037
 4921TIP3   OH236253   2.086   3.057   2.095 -0.2102 -0.7965  0.9616
 4921TIP3    H136254   2.124   3.047   2.008 -1.6632 -0.9902  0.3273
 4921TIP3    H236255   2.129   3.135   2.131 -0.8607  0.3673 -0.6439
 4922TIP3   OH236256   0.404   2.058  13.190 -0.6484 -0.4371 -0.2112
 4922TIP3    H136257   0.393   1.971  13.229 -1.9825  0.6674  2.1240
 4922TIP3    H236258   0.475   2.098  13.239 -0.9961  0.2766 -0.2733
 4923TIP3   OH236259   0.438   0.429   1.525  0.2707 -0.5815  0.7913
 4923TIP3    H136260   0.414   0.484   1.600 -0.4342  0.7922 -0.3777
 4923TIP3    H236261   0.532   0.444   1.514  0.2883 -0.4348  1.1161
 4924TIP3   OH236262   4.440   5.131   6.832 -0.2432 -0.2835  0.7443
 4924TIP3    H136263   4.373   5.171   6.887  0.4977 -0.1272  1.5541
 4924TIP3    H236264   4.449   5.191   6.758 -1.6546 -0.7812  0.1264
 4925TIP3   OH236265   1.223   2.405   4.133  0.4125 -0.0527 -0.5065
 4925TIP3    H136266   1.187   2.326   4.173 -0.6070  0.3648 -0.5676
 4925TIP3    H236267   1.240   2.463   4.206  1.1580 -0.3161 -0.4622
 4926TIP3   OH236268   1.786   3.570  13.878 -0.1215 -0.2547 -0.1273
 4926TIP3    H136269   1.785   3.477  13.855  1.5876 -0.0574 -1.1550
 4926TIP3    H236270   1.875   3.587  13.909 -0.7596  0.7956  1.2461
 4927TIP3   OH236271   5.531   5.979   2.173 -1.0703 -0.2670 -0.0693
 4927TIP3    H136272   5.498   6.001   2.260  1.0343  2.6050  0.1653
 4927TIP3    H236273   5.616   5.937   2.189 -1.0488 -0.4918 -0.7182
 4928TIP3   OH236274   0.960   1.269   1.313  0.2634 -0.3191  0.0632
 4928TIP3    H136275   1.038   1.230   1.273  0.7017  0.9201 -0.3419
 4928TIP3    H236276   0.955   1.229   1.400 -0.4674 -2.7503 -1.0103
 4929TIP3   OH236277   3.169   4.444   2.541  0.6567  0.1615  0.0352
 4929TIP3    H136278   3.090   4.443   2.486  1.2627  0.4224 -0.8599
 4929TIP3    H236279   3.138   4.476   2.626 -0.2157  0.2070 -0.2838
 4930TIP3   OH236280   6.170   6.060   5.449 -0.2975 -0.0158  0.1041
 4930TIP3    H136281   6.133   5.974   5.429 -0.3148  0.4335 -1.9816
 4930TIP3    H236282   6.229   6.078   5.376 -0.0715  1.6302  0.6513
 4931TIP3   OH236283   5.811   6.526  10.953 -0.4773 -0.1264  0.5447
 4931TIP3    H136284   5.888   6.470  10.968 -0.1066  0.0331 -0.6742
 4931TIP3    H236285   5.800   6.572  11.036  1.1435  0.3128  0.5592
 4932TIP3   OH236286   3.687   1.586  12.327 -0.7085  0.2853 -0.3000
 4932TIP3    H136287   3.686   1.676  12.293 -0.8770  0.0701 -0.8768
 4932TIP3    H236288   3.723   1.534  12.256  2.5565  0.3177  1.1605
 4933TIP3   OH236289   4.637   2.442  15.276  0.7118  0.5942  0.0692
 4933TIP3    H136290   4.634   2.407  15.365 -1.6987 -0.4709 -0.3515
 4933TIP3    H236291   4.595   2.528  15.282 -1.6475 -0.4418 -0.3331
 4934TIP3   OH236292   5.465   3.589  17.365  0.2674  0.2774  0.2369
 4934TIP3    H136293   5.490   3.580  17.457 -1.5640 -1.6150  0.6167
 4934TIP3    H236294   5.545   3.566  17.317  0.5644 -1.3277  1.3981
 4935TIP3   OH236295   1.093   4.374  14.649  0.1270 -0.3756 -0.0575
 4935TIP3    H136296   1.125   4.285  14.636 -0.3355 -0.3469 -1.5749
 4935TIP3    H236297   1.169   4.423  14.681  1.0021 -0.8235 -1.3778
 4936TIP3   OH236298   1.062   1.937   2.678 -0.5648 -0.4965 -0.1897
 4936TIP3    H136299   1.147   1.894   2.672 -0.2894  0.0661 -0.4161
 4936TIP3    H236300   1.063   2.002   2.608 -0.1393  1.3006  1.4000
 4937TIP3   OH236301   5.834   4.758  15.778 -0.1434  0.0635 -0.1595
 4937TIP3    H136302   5.923   4.782  15.804 -0.3503  0.3026  0.3352
 4937TIP3    H236303   5.794   4.840  15.751 -0.4971  0.0928  0.4617
 4938TIP3   OH236304   6.248   4.678  14.448 -0.1465  0.2555  0.3962
 4938TIP3    H136305   6.271   4.585  14.445 -1.2667 -0.0336  0.5434
 4938TIP3    H236306   6.315   4.717  14.505  0.0822 -0.5381  0.6871
 4939TIP3   OH236307   2.735   5.761   2.489 -0.5538 -0.1616 -0.7343
 4939TIP3    H136308   2.748   5.839   2.544 -0.6520  0.3897 -1.4693
 4939TIP3    H236309   2.822   5.741   2.455 -0.0459 -1.9116  1.4201
 4940TIP3   OH236310   5.067   6.088  11.119 -0.1356 -0.5901  0.3494
 4940TIP3    H136311   5.134   6.135  11.170 -0.5360  0.1336  0.2162
 4940TIP3    H236312   5.072   6.127  11.032 -1.0651 -0.1816  0.4680
 4941TIP3   OH236313   3.349   0.102  13.652  0.4189  0.2447 -0.5992
 4941TIP3    H136314   3.360   0.026  13.596  0.6498  0.3613 -0.7109
 4941TIP3    H236315   3.422   0.160  13.630  1.5196 -0.4593  1.0500
 4942TIP3   OH236316   6.377   2.884   6.108 -0.3660 -0.3738  0.0179
 4942TIP3    H136317   6.340   2.802   6.140  1.9605 -0.8202  1.8643
 4942TIP3    H236318   6.463   2.859   6.073 -0.1152  1.1064 -0.4889
 4943TIP3   OH236319   5.271   1.881  12.124  0.3419 -0.0762 -0.5882
 4943TIP3    H136320   5.207   1.829  12.174  0.2300  0.2144 -0.4278
 4943TIP3    H236321   5.355   1.855  12.161  0.1971  0.9376  0.5322
 4944TIP3   OH236322   0.901   1.677  16.243 -0.2883  0.5298  0.2108
 4944TIP3    H136323   0.821   1.725  16.222 -2.2129 -2.3839  0.2394
 4944TIP3    H236324   0.910   1.612  16.173  3.1721  1.8517 -0.7899
 4945TIP3   OH236325   0.964   2.501  15.550 -0.5562 -0.1125 -0.1044
 4945TIP3    H136326   0.889   2.471  15.498 -0.9262  0.2865  0.1833
 4945TIP3    H236327   0.987   2.425  15.604 -0.3409 -0.4408 -0.6527
 4946TIP3   OH236328   2.293   3.513  14.822 -0.0720 -0.3369  0.5742
 4946TIP3    H136329   2.283   3.438  14.880  0.0183 -1.2777 -0.5762
 4946TIP3    H236330   2.331   3.476  14.742  0.9127  1.1052  0.3349
 4947TIP3   OH236331   5.990   5.571   2.511  0.0741 -0.0630 -0.2681
 4947TIP3    H136332   6.036   5.634   2.456  0.9770  0.0097  0.5499
 4947TIP3    H236333   6.025   5.486   2.483  0.4117 -0.0386  0.0788
 4948TIP3   OH236334   0.884   2.696  14.155 -0.6072  0.6134  0.4667
 4948TIP3    H136335   0.946   2.738  14.096 -0.3733 -0.6186 -0.2021
 4948TIP3    H236336   0.889   2.603  14.133 -2.2334  0.4014  0.8304
 4949TIP3   OH236337   3.564   5.858  11.611 -0.4974  0.3622  0.6975
 4949TIP3    H136338   3.551   5.912  11.534 -2.1968 -0.4066  0.3820
 4949TIP3    H236339   3.658   5.860  11.627 -0.0078  0.0477 -1.7613
 4950TIP3   OH236340   5.352   1.838   5.483  0.7653  0.1765  0.4914
 4950TIP3    H136341   5.443   1.815   5.498  0.8239 -0.0613 -0.2167
 4950TIP3    H236342   5.347   1.932   5.499  1.2999  0.3328 -0.2217
 4951TIP3   OH236343   4.465   0.917   3.736  0.6053  0.3398 -0.3731
 4951TIP3    H136344   4.512   0.872   3.667  1.0078  0.7426 -0.3652
 4951TIP3    H236345   4.512   0.999   3.748 -0.1866  0.8224 -0.4736
 4952TIP3   OH236346   4.054   5.856   0.392  0.1938 -0.6898 -0.0084
 4952TIP3    H136347   4.047   5.761   0.390  0.2265 -0.7397  1.3805
 4952TIP3    H236348   4.020   5.881   0.478 -3.5207  0.8905 -1.7048
 4953TIP3   OH236349   3.666   5.099  16.927  0.1276 -0.2673 -0.3583
 4953TIP3    H136350   3.623   5.086  17.011  1.7892 -1.4866  0.3634
 4953TIP3    H236351   3.605   5.062  16.863 -0.6039 -0.4834  0.4434
 4954TIP3   OH236352   1.257   6.148  14.288 -0.3285  0.0241 -0.4860
 4954TIP3    H136353   1.284   6.232  14.325  1.1592 -0.7917  0.3697
 4954TIP3    H236354   1.329   6.123  14.229 -0.1199 -1.2469  0.2707
 4955TIP3   OH236355   0.184   3.205  15.549  0.0505  0.1907  0.6809
 4955TIP3    H136356   0.124   3.206  15.623  0.4649 -0.7857  1.0392
 4955TIP3    H236357   0.211   3.114  15.540  0.2450  0.3389 -0.4861
 4956TIP3   OH236358   1.011   1.751   0.686 -0.2674  0.1080  0.4318
 4956TIP3    H136359   0.927   1.706   0.693  0.3887 -1.0400  1.0980
 4956TIP3    H236360   0.992   1.827   0.631 -1.2271 -1.3972 -1.4446
 4957TIP3   OH236361   5.685   6.597  12.134 -0.4286  0.3388 -0.8368
 4957TIP3    H136362   5.616   6.535  12.109 -0.8081 -0.0376  1.0170
 4957TIP3    H236363   5.640   6.663  12.186  0.6209  0.0102  0.5218
 4958TIP3   OH236364   3.293   5.501  16.853  0.0258  0.2250 -0.6006
 4958TIP3    H136365   3.372   5.505  16.799  0.3933  0.0120 -0.0876
 4958TIP3    H236366   3.300   5.577  16.912 -1.0392  1.2527 -1.7286
 4959TIP3   OH236367   2.744   2.539  16.086 -0.0518  0.6298 -0.1479
 4959TIP3    H136368   2.789   2.468  16.132  1.5240  1.3997 -0.4382
 4959TIP3    H236369   2.659   2.545  16.129  0.5431 -0.1218  1.1997
 4960TIP3   OH236370   3.014   3.479  15.536  0.1244  0.0684 -0.0000
 4960TIP3    H136371   3.049   3.447  15.453 -0.9807  1.1131 -0.8936
 4960TIP3    H236372   2.970   3.561  15.514  0.5533  0.8275  1.7651
 4961TIP3   OH236373   5.065   6.579   6.056  0.1949 -0.3129  0.0525
 4961TIP3    H136374   5.030   6.582   6.145 -0.1592  2.5620 -0.0822
 4961TIP3    H236375   5.160   6.580   6.068  0.5256  6.4556  0.7804
 4962TIP3   OH236376   4.898   3.150  15.516  0.3506 -0.3312 -0.0494
 4962TIP3    H136377   4.984   3.146  15.557  0.2642 -0.8683  0.0888
 4962TIP3    H236378   4.886   3.063  15.477 -0.0426 -0.1926 -0.2444
 4963TIP3   OH236379   5.653   1.901  11.623  0.2144  0.7827  0.1280
 4963TIP3    H136380   5.692   1.904  11.535  1.2911 -0.3863  0.5278
 4963TIP3    H236381   5.670   1.811  11.654 -1.5857  0.6695  0.9051
 4964TIP3   OH236382   3.801   6.335  12.138 -0.3615 -0.3430  0.2111
 4964TIP3    H136383   3.779   6.425  12.161  2.6334  0.6116 -0.2649
 4964TIP3    H236384   3.732   6.309  12.077 -2.1110  1.0488  1.4914
 4965TIP3   OH236385   0.883   4.980  12.338  0.3721 -0.1382  0.9515
 4965TIP3    H136386   0.929   4.986  12.421 -0.3486 -0.2482  1.3647
 4965TIP3    H236387   0.860   5.071  12.317 -1.7465 -0.3152  2.2051
 4966TIP3   OH236388   5.618   6.222   0.589 -0.0146 -0.0658 -0.2192
 4966TIP3    H136389   5.531   6.262   0.590 -1.1100 -2.0579 -2.8061
 4966TIP3    H236390   5.614   6.155   0.656  0.3560  1.2664  1.1884
 4967TIP3   OH236391   6.305   5.719  11.935 -0.3530 -0.4075 -0.0416
 4967TIP3    H136392   6.264   5.783  11.878 -0.9991 -0.8427 -0.0768
 4967TIP3    H236393   6.371   5.768  11.984  0.4489 -0.1010 -1.4008
 4968TIP3   OH236394   1.706   2.294   2.131  0.0345  0.1143 -0.2854
 4968TIP3    H136395   1.680   2.377   2.171  1.2784  0.8873 -1.0160
 4968TIP3    H236396   1.795   2.309   2.100  0.4123 -1.6225 -0.1223
 4969TIP3   OH236397   2.094   3.849   2.345 -0.3661  0.5877  0.3931
 4969TIP3    H136398   2.024   3.907   2.374  0.0865  1.6006 -0.4491
 4969TIP3    H236399   2.174   3.891   2.377 -0.0360  0.4158 -0.1893
 4970TIP3   OH236400   1.780   2.644   3.864  0.3163 -0.0766 -0.4725
 4970TIP3    H136401   1.791   2.549   3.863 -1.0246 -0.2451 -1.9903
 4970TIP3    H236402   1.847   2.674   3.926 -0.4363 -2.1237  1.4746
 4971TIP3   OH236403   5.063   4.134   4.563  0.4000 -0.2703  0.4047
 4971TIP3    H136404   5.105   4.180   4.636  1.2492 -0.2533 -0.0797
 4971TIP3    H236405   4.970   4.154   4.572  0.6612  0.9096  0.6486
 4972TIP3   OH236406   5.264   6.490   5.830 -0.1004  0.0225 -0.4565
 4972TIP3    H136407   5.213   6.410   5.831  0.3989 -0.3051 -0.8120
 4972TIP3    H236408   5.331   6.476   5.898  0.2116 -0.0152 -0.7694
 4973TIP3   OH236409   3.927   6.680  10.976  0.5122 -0.6768  0.3710
 4973TIP3    H136410   3.975   6.598  10.972 -1.2233 -1.7207 -0.6545
 4973TIP3    H236411   3.860   6.666  11.044  0.1822 -0.1372  0.1711
 4974TIP3   OH236412   2.403   3.081  11.200  0.0188  0.2409 -0.3527
 4974TIP3    H136413   2.364   3.162  11.166  0.2417  0.0617 -1.0588
 4974TIP3    H236414   2.495   3.088  11.175  0.0914 -0.1009 -0.1665
 4975TIP3   OH236415   6.584   5.038  15.787 -0.3598 -0.4923  0.5063
 4975TIP3    H136416   6.632   4.976  15.733 -1.6693  0.1599 -1.4986
 4975TIP3    H236417   6.548   5.102  15.725  1.4918  2.7502  2.4579
 4976TIP3   OH236418   0.206   5.611  15.809  0.0499 -0.2529 -0.2397
 4976TIP3    H136419   0.120   5.627  15.849 -0.4051  0.6869 -1.5409
 4976TIP3    H236420   0.252   5.558  15.874 -1.6209 -1.0691  0.3651
 4977TIP3   OH236421   4.242   3.839  12.983  0.3504 -0.2921  0.3981
 4977TIP3    H136422   4.236   3.765  12.923  1.3141 -0.1808  0.1362
 4977TIP3    H236423   4.292   3.806  13.058  1.7060  0.3356 -0.1789
 4978TIP3   OH236424   2.911   3.358  15.811  0.1995  0.2973 -0.0320
 4978TIP3    H136425   2.872   3.399  15.889  1.0026  0.1459  0.4590
 4978TIP3    H236426   2.840   3.358  15.747 -1.0740 -1.2008  1.2692
 4979TIP3   OH236427   5.797   6.204  11.514  0.3618  0.0682  0.0229
 4979TIP3    H136428   5.881   6.192  11.559  1.4659 -1.3740 -2.2313
 4979TIP3    H236429   5.820   6.208  11.421 -1.8835  2.1143 -0.5416
 4980TIP3   OH236430   5.798   2.788  13.096  0.1677  0.2763  0.3186
 4980TIP3    H136431   5.780   2.779  13.190 -1.1691  2.5172  0.3439
 4980TIP3    H236432   5.893   2.802  13.091  0.3420 -0.4670  1.2643
 4981TIP3   OH236433   0.322   4.950   3.286  0.1573  0.7662  0.5205
 4981TIP3    H136434   0.287   4.864   3.263 -2.6963  2.2640 -1.2671
 4981TIP3    H236435   0.412   4.948   3.254  0.8216 -2.1140  2.2012
 4982TIP3   OH236436   5.522   3.950  11.424 -0.4920 -0.0991 -0.0564
 4982TIP3    H136437   5.553   3.911  11.343 -1.5520  1.2637 -1.1690
 4982TIP3    H236438   5.582   4.021  11.442 -1.7663  1.3242 -1.1725
 4983TIP3   OH236439   0.286   4.764  12.031 -0.5508  0.0117 -0.5482
 4983TIP3    H136440   0.215   4.788  11.971 -1.9223 -1.1079  0.5582
 4983TIP3    H236441   0.299   4.842  12.085 -0.3936  0.4873 -1.2657
 4984TIP3   OH236442   0.240   0.684  13.413  0.1210  0.0505  0.4036
 4984TIP3    H136443   0.144   0.681  13.420  0.0512 -0.8469 -0.6288
 4984TIP3    H236444   0.271   0.620  13.477  0.0393  0.4069  0.8023
 4985TIP3   OH236445   1.469   3.756   2.366 -0.1775 -0.0174  0.2045
 4985TIP3    H136446   1.426   3.781   2.448 -0.2858  0.6350 -0.0524
 4985TIP3    H236447   1.546   3.813   2.361 -0.3658  0.1901 -0.3303
 4986TIP3   OH236448   1.864   5.428  17.037 -0.2145 -0.0945 -0.0289
 4986TIP3    H136449   1.825   5.422  16.950  0.7902 -0.4454 -0.4745
 4986TIP3    H236450   1.884   5.521  17.048 -0.3355 -0.0504 -0.1843
 4987TIP3   OH236451   3.186   0.006   6.251 -0.6037 -0.3834 -0.1894
 4987TIP3    H136452   3.196  -0.077   6.204  0.0161 -0.6155  0.3245
 4987TIP3    H236453   3.273   0.045   6.247 -0.9195  0.2911 -0.5086
 4988TIP3   OH236454   3.037   4.368   4.814  0.0148 -0.4932 -0.5141
 4988TIP3    H136455   3.101   4.320   4.868 -1.8909 -2.9669 -0.2663
 4988TIP3    H236456   3.002   4.301   4.754 -2.4192  0.7205 -0.5464
 4989TIP3   OH236457   4.126   5.822  14.375 -0.3328 -0.5744 -0.2953
 4989TIP3    H136458   4.114   5.885  14.445 -0.5671 -0.8547 -0.0792
 4989TIP3    H236459   4.210   5.846  14.335  0.2269 -0.9391  0.6333
 4990TIP3   OH236460   4.761   3.394   2.311 -0.7403  0.1340  0.3656
 4990TIP3    H136461   4.800   3.416   2.396 -0.2238 -0.8114  0.3873
 4990TIP3    H236462   4.724   3.476   2.279 -0.8558  0.5201  1.4623
 4991TIP3   OH236463   2.088   2.153   2.630 -0.2781  0.7350 -0.0908
 4991TIP3    H136464   2.087   2.072   2.680 -1.1816  0.8752  0.1277
 4991TIP3    H236465   2.123   2.218   2.690  0.7836  0.4566 -0.3760
 4992TIP3   OH236466   2.654   0.750   4.620 -0.1300  0.2622 -0.1250
 4992TIP3    H136467   2.561   0.749   4.598 -0.8031 -0.2406  2.4143
 4992TIP3    H236468   2.661   0.698   4.700  2.4197 -0.0390 -0.4275
 4993TIP3   OH236469   4.808   0.023   3.050  0.7124  0.0970  0.4485
 4993TIP3    H136470   4.863  -0.013   3.120 -0.5465 -1.9850  0.4431
 4993TIP3    H236471   4.735  -0.039   3.042  0.6848  0.3667 -2.5689
 4994TIP3   OH236472   2.723   5.528   4.748 -0.0355 -0.6548 -0.2513
 4994TIP3    H136473   2.628   5.538   4.742 -0.0328 -1.1423 -1.2623
 4994TIP3    H236474   2.757   5.593   4.687  0.1830 -2.1763 -1.8251
 4995TIP3   OH236475   2.427   5.311   5.713  0.3931 -0.0551 -0.5672
 4995TIP3    H136476   2.476   5.320   5.794 -0.2727 -0.1995 -0.1344
 4995TIP3    H236477   2.335   5.319   5.740  0.2044  0.7877 -1.4352
 4996TIP3   OH236478   2.364   4.227  13.749 -0.5852  0.3559 -0.0174
 4996TIP3    H136479   2.382   4.244  13.841 -1.6250  0.5255  0.1692
 4996TIP3    H236480   2.440   4.262  13.703  1.2268 -2.1129  0.9056
 4997TIP3   OH236481   3.076   5.190   0.688  0.2919  0.5754 -0.1333
 4997TIP3    H136482   3.115   5.213   0.603 -0.2480 -1.0658 -0.8638
 4997TIP3    H236483   2.996   5.242   0.693  0.7804  1.3546 -0.2007
 4998TIP3   OH236484   1.649   3.044   5.161 -0.1965 -0.3481 -0.0646
 4998TIP3    H136485   1.708   2.973   5.137 -0.7073 -0.7633 -0.1208
 4998TIP3    H236486   1.698   3.097   5.224  0.2771 -0.6090 -0.2142
 4999TIP3   OH236487   2.774   1.006   4.512  0.4573 -0.3198 -0.2499
 4999TIP3    H136488   2.736   1.041   4.592 -0.5572  2.0953 -1.6616
 4999TIP3    H236489   2.730   0.922   4.500  0.5103 -0.6497  1.5925
 5000TIP3   OH236490   5.471   4.847  16.193  0.6262  0.4197 -0.3681
 5000TIP3    H136491   5.457   4.753  16.181 -0.4939  0.4786  0.3605
 5000TIP3    H236492   5.564   4.855  16.215  0.3038 -0.7339  1.5668
 5001TIP3   OH236493   2.638   3.124   0.672  0.0814 -0.4768  0.7812
 5001TIP3    H136494   2.617   3.167   0.755 -2.0166  0.0233  0.0537
 5001TIP3    H236495   2.685   3.190   0.622 -0.4173 -0.0840  0.8272
 5002TIP3   OH236496   4.674   4.544  16.902  0.5519 -0.3190  0.2964
 5002TIP3    H136497   4.684   4.537  16.997  0.9722  0.4602  0.3193
 5002TIP3    H236498   4.613   4.616  16.889  1.6869  0.6022 -0.0469
 5003TIP3   OH236499   6.784   1.457  16.109 -0.1818  0.1737 -0.0886
 5003TIP3    H136500   6.744   1.526  16.055  0.2887 -1.2907 -2.4679
 5003TIP3    H236501   6.732   1.456  16.189 -3.4764 -0.0431 -2.0238
 5004TIP3   OH236502   6.540   3.104  13.558  0.2918 -0.2657  0.1713
 5004TIP3    H136503   6.518   3.173  13.620 -0.6404 -0.4423  0.0504
 5004TIP3    H236504   6.577   3.150  13.483  0.5424  0.0243  0.4686
 5005TIP3   OH236505   5.217   5.914  15.698 -0.1025  0.1471  0.2069
 5005TIP3    H136506   5.221   5.960  15.782  2.0641 -2.5339  1.7277
 5005TIP3    H236507   5.287   5.849  15.703 -0.2226 -0.4807 -3.5132
 5006TIP3   OH236508   0.321   6.244  11.230 -0.4807 -0.3037  0.2455
 5006TIP3    H136509   0.285   6.317  11.281 -2.0724 -1.1356  0.3718
 5006TIP3    H236510   0.329   6.278  11.141  1.1554  0.7781  0.7572
 5007TIP3   OH236511   5.899   2.120   4.113 -0.0197 -0.1067 -0.7457
 5007TIP3    H136512   5.969   2.064   4.146  1.8080  2.3979 -0.0576
 5007TIP3    H236513   5.895   2.101   4.019 -0.2456 -2.1306 -0.3625
 5008TIP3   OH236514   0.053   5.956   5.369 -0.2193 -0.3547  0.5190
 5008TIP3    H136515   0.098   6.037   5.397 -0.5650 -0.0453  0.1839
 5008TIP3    H236516  -0.025   5.987   5.323  0.0061 -0.8757 -0.2193
 5009TIP3   OH236517   0.945   4.224  16.246  0.1155 -0.0303  0.3412
 5009TIP3    H136518   0.851   4.242  16.254  0.2641  1.6054 -1.1709
 5009TIP3    H236519   0.986   4.310  16.245  1.6886 -0.7274  1.1941
 5010TIP3   OH236520   5.315   0.545   1.563 -0.1688  0.1021 -0.2873
 5010TIP3    H136521   5.323   0.638   1.539  0.5198  0.3402  0.7982
 5010TIP3    H236522   5.285   0.547   1.654  0.8484 -0.7366  0.0713
 5011TIP3   OH236523   2.651   2.327   6.481  0.1251  0.3358 -0.4762
 5011TIP3    H136524   2.725   2.342   6.541  0.3813 -2.2016 -0.0126
 5011TIP3    H236525   2.574   2.333   6.537  0.0933  1.2598 -0.6047
 5012TIP3   OH236526   0.117   0.500  16.736 -1.0062  0.0213  0.0019
 5012TIP3    H136527   0.097   0.505  16.830  0.4037  0.3063  0.2974
 5012TIP3    H236528   0.091   0.411  16.711 -0.6937 -0.3097  0.8332
 5013TIP3   OH236529   6.609   4.486   1.245 -0.0319  0.5380 -0.1096
 5013TIP3    H136530   6.626   4.554   1.310  0.7714  0.4034 -0.1731
 5013TIP3    H236531   6.695   4.454   1.220 -0.3871 -0.2933 -0.3095
 5014TIP3   OH236532   4.213   0.426  14.190 -0.2849  0.3513 -0.1063
 5014TIP3    H136533   4.235   0.335  14.171  2.7874  1.3556 -1.9990
 5014TIP3    H236534   4.295   0.473  14.182 -1.6010  3.2399  1.6649
 5015TIP3   OH236535   5.729   5.032   1.318  0.4055 -0.0593  0.0799
 5015TIP3    H136536   5.770   5.118   1.326 -0.2502  0.1241  1.8113
 5015TIP3    H236537   5.672   5.040   1.242  0.2624  1.0866  0.2952
 5016TIP3   OH236538   5.916   0.588   5.373  0.3346 -0.5400  0.5138
 5016TIP3    H136539   5.912   0.641   5.293 -0.0483 -1.9818 -0.4675
 5016TIP3    H236540   5.970   0.639   5.433 -0.5274  1.2404 -0.1501
 5017TIP3   OH236541   0.635   4.455   4.298 -0.1941 -0.7312  0.3089
 5017TIP3    H136542   0.546   4.470   4.267  0.0263 -0.5602 -0.2469
 5017TIP3    H236543   0.634   4.486   4.389 -0.3684  0.4925 -0.0895
 5018TIP3   OH236544   6.031   6.062   4.661 -0.5494  0.4051 -0.0428
 5018TIP3    H136545   5.940   6.051   4.688  0.1388  1.7455  3.3471
 5018TIP3    H236546   6.052   6.152   4.686  2.2270 -0.4830  1.1658
 5019TIP3   OH236547   0.931   6.652   0.624 -0.2686 -0.3298  0.0043
 5019TIP3    H136548   0.946   6.557   0.630 -0.3160 -0.2664  1.2997
 5019TIP3    H236549   0.836   6.660   0.614 -0.4470 -0.3750  1.4969
 5020TIP3   OH236550   4.143   3.503  14.939 -0.0023  0.0872 -0.3240
 5020TIP3    H136551   4.130   3.435  14.872  1.4912 -1.3271  0.7413
 5020TIP3    H236552   4.127   3.458  15.022 -1.6070  1.7495  0.3275
 5021TIP3   OH236553   5.387   0.310   1.482  0.0192 -0.2139 -0.3210
 5021TIP3    H136554   5.322   0.322   1.412 -0.3028  0.0543  0.0164
 5021TIP3    H236555   5.383   0.392   1.532  1.1116  0.0788 -0.6965
 5022TIP3   OH236556   0.114   5.459   1.977 -0.0745 -0.1157 -0.2695
 5022TIP3    H136557   0.074   5.538   2.011  0.9764  0.2026  0.2854
 5022TIP3    H236558   0.044   5.413   1.931 -0.8459  0.8132 -0.0315
 5023TIP3   OH236559   1.712   4.974  13.048  0.1300 -0.7742 -0.8340
 5023TIP3    H136560   1.652   5.014  12.984  0.5688 -0.2962 -0.9470
 5023TIP3    H236561   1.663   4.975  13.130  0.0612 -0.1923 -0.8808
 5024TIP3   OH236562   5.797   2.963   5.978  0.3643 -0.3002  0.7260
 5024TIP3    H136563   5.840   2.941   6.060  3.0030 -1.2334 -0.7599
 5024TIP3    H236564   5.794   2.880   5.930  1.1589  0.6524 -1.0565
 5025TIP3   OH236565   6.160   0.134  11.845 -0.3462  0.1878  0.0130
 5025TIP3    H136566   6.219   0.122  11.771  0.4314 -0.4604  0.7185
 5025TIP3    H236567   6.218   0.141  11.921 -1.0874  1.5096  0.5003
 5026TIP3   OH236568   3.792   0.983   0.044  0.2264 -0.5270  0.1228
 5026TIP3    H136569   3.880   1.010   0.020 -0.1350  0.7398  0.1498
 5026TIP3    H236570   3.738   1.004  -0.033 -0.3780  0.5660  0.8114
 5027TIP3   OH236571   6.701   3.842   3.067  0.0900  0.2631 -0.7083
 5027TIP3    H136572   6.644   3.817   3.139  2.6116  0.6229  1.5661
 5027TIP3    H236573   6.666   3.925   3.035 -1.8490 -0.5696 -0.8525
 5028TIP3   OH236574   3.206   6.723   0.578  0.0348  0.9023 -0.7216
 5028TIP3    H136575   3.300   6.739   0.590  0.2894 -0.5170 -0.6509
 5028TIP3    H236576   3.177   6.687   0.662  0.0975 -1.4683 -1.6325
 5029TIP3   OH236577   5.440   2.604  13.658  0.7908  0.2201 -0.4684
 5029TIP3    H136578   5.354   2.577  13.691 -0.2428  0.7366 -2.5173
 5029TIP3    H236579   5.503   2.560  13.715 -0.8213 -0.2037  1.0781
 5030TIP3   OH236580   2.498   1.201   0.547 -0.5036 -0.1020 -0.0514
 5030TIP3    H136581   2.572   1.162   0.593 -0.8892  0.8689  1.4494
 5030TIP3    H236582   2.538   1.246   0.472  0.3693  0.0283  0.4788
 5031TIP3   OH236583   4.788   4.678   2.179  0.2922 -0.3148 -0.2251
 5031TIP3    H136584   4.824   4.699   2.093 -1.6428  3.5770 -0.3194
 5031TIP3    H236585   4.693   4.687   2.168 -0.0785 -0.8734  2.0570
 5032TIP3   OH236586   5.888   3.625   0.948 -0.0127 -0.0560  0.4328
 5032TIP3    H136587   5.796   3.646   0.929  0.1598  1.9474  1.5331
 5032TIP3    H236588   5.915   3.691   1.011  2.5838  0.1791 -0.8064
 5033TIP3   OH236589   5.547   4.566   3.579 -0.5492 -0.4610  0.1214
 5033TIP3    H136590   5.553   4.613   3.662  0.6845 -1.1581  0.4564
 5033TIP3    H236591   5.616   4.500   3.584 -0.5156 -0.5802 -1.4221
 5034TIP3   OH236592   5.927   3.751   5.101 -0.0923  0.0231  0.2151
 5034TIP3    H136593   6.021   3.739   5.085 -0.1976  0.4746 -0.8011
 5034TIP3    H236594   5.918   3.843   5.125 -0.0225 -0.4806  2.4814
 5035TIP3   OH236595   1.008   4.919  14.078  0.0441  0.0682  0.0411
 5035TIP3    H136596   1.081   4.857  14.066 -0.1952  0.0174 -1.2675
 5035TIP3    H236597   0.931   4.871  14.048 -0.0748  1.1377 -1.4647
 5036TIP3   OH236598   3.402   3.430   3.825  0.7495 -0.2397  0.4251
 5036TIP3    H136599   3.441   3.479   3.752 -0.9855 -1.0227 -1.1189
 5036TIP3    H236600   3.336   3.489   3.861  0.2619 -0.5521  0.0650
 5037TIP3   OH236601   5.346   2.475   6.079  0.9547  0.1611  0.2907
 5037TIP3    H136602   5.287   2.405   6.108  1.1996  0.4544  1.5419
 5037TIP3    H236603   5.433   2.435   6.078  1.1784  0.5935  1.5815
 5038TIP3   OH236604   1.562   0.058  15.266 -0.2094  1.0751  0.4804
 5038TIP3    H136605   1.512   0.034  15.189  0.0446 -0.9169  0.8765
 5038TIP3    H236606   1.518   0.013  15.338  2.4533 -1.3503  0.7484
 5039TIP3   OH236607   4.869   2.307   0.267 -0.4654 -0.5233 -0.2830
 5039TIP3    H136608   4.933   2.255   0.217 -2.4125 -3.1107 -0.2947
 5039TIP3    H236609   4.792   2.311   0.211 -1.0965  0.6302  0.6233
 5040TIP3   OH236610   6.085   1.757  16.927  0.6683  0.1721  0.3997
 5040TIP3    H136611   6.055   1.762  16.836  1.9454 -0.1293 -0.0575
 5040TIP3    H236612   6.038   1.681  16.963 -0.5084  0.8085  0.2728
 5041TIP3   OH236613   2.412   1.407   4.339 -0.0469  0.3440  0.0321
 5041TIP3    H136614   2.366   1.488   4.363  1.4087  0.7013  1.8327
 5041TIP3    H236615   2.469   1.389   4.413  0.0056 -2.1219 -0.5103
 5042TIP3   OH236616   3.390   1.019   3.316 -0.1355  0.2360  0.6154
 5042TIP3    H136617   3.345   1.051   3.394 -0.0294  0.9187  0.4025
 5042TIP3    H236618   3.459   0.962   3.350 -0.2880  0.2784  1.0035
 5043TIP3   OH236619   6.513   5.626  17.158 -0.0348  0.0420 -0.2961
 5043TIP3    H136620   6.496   5.635  17.064 -1.4165  1.3151  0.0396
 5043TIP3    H236621   6.605   5.601  17.163  0.5360  1.6050 -1.9320
 5044TIP3   OH236622   1.087   4.632   2.151  0.4295 -0.0482 -0.4682
 5044TIP3    H136623   1.045   4.718   2.139 -1.2231 -0.6900  0.3066
 5044TIP3    H236624   1.141   4.621   2.074  1.5999  2.1813 -0.0592
 5045TIP3   OH236625   3.387   6.103  16.737 -0.8239 -0.1629 -0.2816
 5045TIP3    H136626   3.292   6.113  16.734 -0.9987 -0.8616  1.5125
 5045TIP3    H236627   3.410   6.127  16.827  1.1037  2.8803 -1.4252
 5046TIP3   OH236628   6.207   3.378  11.403  0.7932  0.2004 -0.2552
 5046TIP3    H136629   6.285   3.345  11.359  0.8944 -1.1468  0.8558
 5046TIP3    H236630   6.240   3.428  11.478  0.5977  0.3774 -0.2843
 5047TIP3   OH236631   2.367   6.542   1.172  0.2261  0.1306  0.0206
 5047TIP3    H136632   2.397   6.458   1.138  2.6651  1.8498 -2.4304
 5047TIP3    H236633   2.444   6.598   1.172 -1.7443  3.0966 -0.7973
 5048TIP3   OH236634   5.174   6.506   3.180 -0.0246 -0.2268  0.1526
 5048TIP3    H136635   5.258   6.463   3.198 -1.3994 -2.4542  1.5984
 5048TIP3    H236636   5.109   6.437   3.189 -1.8990  0.8264 -3.4642
 5049TIP3   OH236637   6.768   6.711  12.123 -0.3104 -0.1588  0.3269
 5049TIP3    H136638   6.711   6.680  12.193  0.2393  0.8013  1.2144
 5049TIP3    H236639   6.766   6.806  12.130 -0.2623 -0.0418 -0.9835
 5050TIP3   OH236640   3.105   2.191  13.097 -0.4638  0.3311  0.7027
 5050TIP3    H136641   3.089   2.250  13.171 -2.3745 -1.2120  1.5773
 5050TIP3    H236642   3.019   2.175  13.059  0.1969 -0.7846 -0.4088
 5051TIP3   OH236643   6.165   3.847  12.469  0.1408 -0.5299 -0.3216
 5051TIP3    H136644   6.201   3.880  12.387 -0.1735  0.8983  0.0737
 5051TIP3    H236645   6.215   3.893  12.537  0.4304 -1.7218  0.2920
 5052TIP3   OH236646   4.000   4.545   0.780  0.1962  0.2988 -0.3329
 5052TIP3    H136647   4.014   4.598   0.858  0.7237 -1.1367  0.5875
 5052TIP3    H236648   4.034   4.458   0.803 -1.2336 -0.6298 -1.5448
 5053TIP3   OH236649   4.200   1.363   0.344  0.2869  0.2013  0.3038
 5053TIP3    H136650   4.217   1.284   0.395 -0.7921 -0.2659 -0.0245
 5053TIP3    H236651   4.142   1.334   0.273  1.7289  0.8300 -1.1987
 5054TIP3   OH236652   4.931   5.002  11.074 -0.2343 -0.1489  0.4655
 5054TIP3    H136653   4.966   5.089  11.056 -1.4119  0.2171 -0.0997
 5054TIP3    H236654   5.005   4.954  11.112  1.4764  0.0455 -2.3168
 5055TIP3   OH236655   5.725   1.544   3.583  0.1830 -0.0015  0.1950
 5055TIP3    H136656   5.768   1.560   3.667  0.3940 -0.3373  0.1527
 5055TIP3    H236657   5.668   1.469   3.599  2.2277 -1.8367 -0.6260
 5056TIP3   OH236658   3.834   0.799   4.411 -0.2576  0.1961 -0.1501
 5056TIP3    H136659   3.911   0.788   4.355  0.2731  4.0641 -0.4968
 5056TIP3    H236660   3.867   0.783   4.499  0.8786  1.2249 -0.3442
 5057TIP3   OH236661   3.924   1.343   1.757 -0.1604  0.4136 -1.0164
 5057TIP3    H136662   4.011   1.322   1.723  0.8840  1.5943  0.7410
 5057TIP3    H236663   3.909   1.279   1.825 -0.6842  0.2100 -1.3217
 5058TIP3   OH236664   2.820   1.705  12.670  0.8149 -0.7278 -0.1192
 5058TIP3    H136665   2.890   1.741  12.724 -0.1942  0.3534  0.5133
 5058TIP3    H236666   2.827   1.752  12.587  1.5560 -1.4677 -0.4914
 5059TIP3   OH236667   6.219   0.222   4.132  0.5871 -0.4033  0.2598
 5059TIP3    H136668   6.178   0.201   4.216 -0.0442 -1.0873 -0.2081
 5059TIP3    H236669   6.286   0.154   4.121  3.2862  1.7671  1.9246
 5060TIP3   OH236670   6.077   4.393   4.163  0.3151 -0.4163 -0.3234
 5060TIP3    H136671   6.059   4.387   4.069  1.5319 -1.9018 -0.4906
 5060TIP3    H236672   6.017   4.329   4.202 -0.2698  0.2800 -0.0473
 5061TIP3   OH236673   1.877   0.992   4.008  0.0336 -0.4408  0.7473
 5061TIP3    H136674   1.864   0.901   3.982 -0.2864  0.3896 -2.4073
 5061TIP3    H236675   1.917   1.033   3.931 -1.4690  2.4704  1.3822
 5062TIP3   OH236676   6.714   4.087  13.243  0.6338  0.2437  0.1184
 5062TIP3    H136677   6.790   4.121  13.291  0.1762  2.5202 -0.6270
 5062TIP3    H236678   6.702   4.149  13.171 -1.1044 -0.8489 -0.5958
 5063TIP3   OH236679   1.144   2.299  13.447 -0.2543  0.3002  0.3218
 5063TIP3    H136680   1.096   2.236  13.501  0.7122  0.4770  1.4103
 5063TIP3    H236681   1.152   2.256  13.362  0.1336 -0.9221  0.9603
 5064TIP3   OH236682   0.252   1.330  15.668 -0.6390 -0.2351  0.7166
 5064TIP3    H136683   0.287   1.419  15.660  1.6159 -1.2083 -1.3456
 5064TIP3    H236684   0.196   1.334  15.746  1.5699  2.2897  2.3704
 5065TIP3   OH236685   0.662   0.342  15.575  0.4385 -0.0913 -0.2367
 5065TIP3    H136686   0.736   0.393  15.607 -1.1375  0.8805  2.1767
 5065TIP3    H236687   0.654   0.269  15.636  1.8174 -2.6179 -2.8616
 5066TIP3   OH236688   6.262   5.919   1.740  0.5289  0.1939 -0.5526
 5066TIP3    H136689   6.341   5.972   1.739 -0.1138  1.1661 -1.3676
 5066TIP3    H236690   6.192   5.980   1.765 -0.0797 -0.4737 -0.5923
 5067TIP3   OH236691   1.884   2.450  14.116  0.1137  0.6715 -0.5363
 5067TIP3    H136692   1.813   2.478  14.058  1.8564  1.9426 -2.1618
 5067TIP3    H236693   1.839   2.409  14.190 -2.2685  0.7290 -1.8540
 5068TIP3   OH236694   1.237   0.259   0.612  0.0120 -0.1405  0.4237
 5068TIP3    H136695   1.318   0.259   0.662  0.3868 -1.6515 -0.1335
 5068TIP3    H236696   1.205   0.169   0.618 -1.4845  0.3548  0.3852
 5069TIP3   OH236697   3.104   1.702  14.882  0.0730  0.2599  0.0879
 5069TIP3    H136698   3.040   1.675  14.948  0.6635 -3.1263 -0.5544
 5069TIP3    H236699   3.052   1.731  14.807 -0.5948  2.0067  1.1581
 5070TIP3   OH236700   4.630   4.939  15.890 -0.1217  0.5921 -0.4243
 5070TIP3    H136701   4.632   5.035  15.896 -0.2789  0.5141  1.6313
 5070TIP3    H236702   4.540   4.919  15.863 -0.4906  0.9953  0.4678
 5071TIP3   OH236703   6.084   3.394  14.850 -0.8566  0.1603  0.4496
 5071TIP3    H136704   6.085   3.393  14.754 -2.7865 -1.3811  0.3879
 5071TIP3    H236705   6.169   3.357  14.874 -0.5660  0.0462 -0.6581
 5072TIP3   OH236706   3.953   0.150   6.165 -0.0973 -0.2659  0.4423
 5072TIP3    H136707   3.858   0.141   6.163 -0.0411 -0.9220  0.5453
 5072TIP3    H236708   3.971   0.191   6.250 -0.3567  0.9159 -0.0412
 5073TIP3   OH236709   3.596   6.323   3.800 -0.1357 -0.0949 -0.4354
 5073TIP3    H136710   3.513   6.347   3.759 -0.7944 -1.0997  0.2706
 5073TIP3    H236711   3.589   6.229   3.814 -0.1950  0.2632  2.4585
 5074TIP3   OH236712   0.661   1.546  12.167  0.3906 -0.4109  0.0243
 5074TIP3    H136713   0.724   1.476  12.182  0.4582 -0.3115  0.2071
 5074TIP3    H236714   0.664   1.599  12.247 -0.4906 -0.8408  0.3634
 5075TIP3   OH236715   2.559   5.353   3.867  0.3649  0.7001  0.7144
 5075TIP3    H136716   2.476   5.307   3.862  0.8257 -0.0217 -0.5330
 5075TIP3    H236717   2.553   5.422   3.801  0.9369  0.3480  0.2928
 5076TIP3   OH236718   6.112   6.707   4.715  0.1553  0.1897 -0.2058
 5076TIP3    H136719   6.037   6.694   4.657 -0.3341  3.2555 -0.4149
 5076TIP3    H236720   6.170   6.766   4.667  0.1827  2.0571  1.9296
 5077TIP3   OH236721   3.349   3.420  12.025 -0.2603 -0.6534  0.0765
 5077TIP3    H136722   3.336   3.363  12.101 -1.9164 -0.7156 -0.2161
 5077TIP3    H236723   3.286   3.390  11.961 -0.8830  1.2150 -0.2634
 5078TIP3   OH236724   4.229   0.884   5.382  0.2207  0.3350  0.2872
 5078TIP3    H136725   4.276   0.814   5.336 -0.4973 -0.9304  1.4155
 5078TIP3    H236726   4.266   0.964   5.346  1.8499 -0.6067 -0.2714
 5079TIP3   OH236727   6.701   3.315  13.871  0.0590 -0.2663 -0.1071
 5079TIP3    H136728   6.783   3.281  13.835  2.5172  1.6379  3.0968
 5079TIP3    H236729   6.675   3.250  13.936 -2.4797 -2.0382 -2.6784
 5080TIP3   OH236730   4.972   4.528  14.654 -0.0955 -0.1084 -0.2510
 5080TIP3    H136731   4.965   4.434  14.634 -0.8200 -0.0443 -0.3271
 5080TIP3    H236732   4.897   4.546  14.710 -1.0306  0.8024 -1.7237
 5081TIP3   OH236733   4.762   0.975  12.293  0.4937  0.0227  0.3519
 5081TIP3    H136734   4.837   1.034  12.303  0.4897  0.0934 -0.0035
 5081TIP3    H236735   4.753   0.964  12.198 -0.0317  0.1212  0.3899
 5082TIP3   OH236736   4.999   5.293  14.869 -0.4082  0.2195 -0.3500
 5082TIP3    H136737   4.950   5.233  14.812 -2.5447 -0.0007  1.5763
 5082TIP3    H236738   5.025   5.239  14.944 -1.0588  1.3359  0.7150
 5083TIP3   OH236739   3.389   2.027   2.096 -0.1343 -0.2380 -0.4700
 5083TIP3    H136740   3.364   2.063   2.011 -1.2957  0.8340  0.2938
 5083TIP3    H236741   3.430   1.943   2.076 -0.6629 -0.1388 -2.0613
 5084TIP3   OH236742   1.567   3.855  13.439  0.2157  0.5415 -0.3618
 5084TIP3    H136743   1.570   3.829  13.532 -3.7126  1.1848  0.1357
 5084TIP3    H236744   1.533   3.944  13.441  0.7283  0.8186 -2.4357
 5085TIP3   OH236745   2.638   2.437   3.438  0.1019  0.3096 -0.3525
 5085TIP3    H136746   2.724   2.395   3.440 -0.0905 -0.0986 -0.5444
 5085TIP3    H236747   2.649   2.517   3.488  0.3621 -0.1752  0.3759
 5086TIP3   OH236748   6.439   2.218  16.362  0.1846 -0.4225 -0.0006
 5086TIP3    H136749   6.505   2.149  16.354 -0.1971 -0.9375  1.0900
 5086TIP3    H236750   6.390   2.213  16.280  1.4776 -0.0254 -0.8426
 5087TIP3   OH236751   4.590   6.767  14.216 -0.0198 -0.3456  0.1644
 5087TIP3    H136752   4.580   6.686  14.266  1.5780  0.9669  2.8494
 5087TIP3    H236753   4.531   6.829  14.258  0.5686  0.5205 -0.2674
 5088TIP3   OH236754   2.235   4.681   4.798  0.0675  0.2214 -0.2150
 5088TIP3    H136755   2.301   4.657   4.733  0.0161  2.0689 -1.0126
 5088TIP3    H236756   2.284   4.725   4.867  0.1276 -1.7763  1.1054
 5089TIP3   OH236757   6.644   5.721   3.848  0.0980 -0.2252  0.0672
 5089TIP3    H136758   6.655   5.659   3.920 -0.6211 -0.7051 -0.2261
 5089TIP3    H236759   6.729   5.764   3.841  0.7080 -1.3884  0.0888
 5090TIP3   OH236760   5.408   3.304  11.593 -0.6054  0.1576 -0.4513
 5090TIP3    H136761   5.491   3.307  11.545  0.1033 -0.9485  0.6444
 5090TIP3    H236762   5.341   3.306  11.524  0.2514  2.2940 -1.3120
 5091TIP3   OH236763   0.925   5.479  15.958 -0.1074 -0.1986  0.6730
 5091TIP3    H136764   0.987   5.509  15.892 -1.2481 -0.5225 -0.6037
 5091TIP3    H236765   0.976   5.423  16.016  1.2339  1.2038  0.9134
 5092TIP3   OH236766   0.490   2.508   3.605  0.3288 -0.4686  0.0056
 5092TIP3    H136767   0.433   2.433   3.586  0.5229 -0.2751 -1.4515
 5092TIP3    H236768   0.510   2.545   3.519 -1.5069  2.5735  0.7444
 5093TIP3   OH236769   5.936   6.238   0.306  0.0768 -0.0717 -0.0048
 5093TIP3    H136770   5.997   6.268   0.373 -0.3667 -0.9813  0.8317
 5093TIP3    H236771   5.966   6.280   0.226  1.9576 -0.6973  0.3239
 5094TIP3   OH236772   0.544   4.593   0.571  0.0582 -0.2572 -0.7258
 5094TIP3    H136773   0.454   4.604   0.601 -0.0287 -0.8239 -0.7577
 5094TIP3    H236774   0.553   4.498   0.560  0.4575 -0.1487 -1.3440
 5095TIP3   OH236775   4.031   2.525   0.798  0.2921  0.4986 -0.4150
 5095TIP3    H136776   4.102   2.564   0.747  0.7807 -1.7085 -1.5256
 5095TIP3    H236777   3.988   2.464   0.738 -0.3030 -0.8084  1.2649
 5096TIP3   OH236778   2.566   0.152  17.040  0.1340  0.6246  0.3040
 5096TIP3    H136779   2.496   0.130  16.978  0.4899 -0.7501  0.3806
 5096TIP3    H236780   2.526   0.143  17.126  0.5313 -0.6635  0.3649
 5097TIP3   OH236781   1.815   2.720   3.205 -0.6649  0.3949  0.2269
 5097TIP3    H136782   1.907   2.746   3.211 -0.2769 -0.9753  0.6175
 5097TIP3    H236783   1.786   2.753   3.120  0.8115 -0.9566 -0.8749
 5098TIP3   OH236784   1.086   6.571   6.240 -0.2664  0.3860 -0.7360
 5098TIP3    H136785   1.154   6.511   6.272  0.0424  0.6695 -0.8546
 5098TIP3    H236786   1.133   6.651   6.218 -0.6345  0.5680 -0.8716
 5099TIP3   OH236787   1.218   2.795   2.127  0.2637  0.4570  0.2679
 5099TIP3    H136788   1.246   2.859   2.062 -0.2682 -0.2413 -0.6709
 5099TIP3    H236789   1.292   2.787   2.187  0.0472  2.5750  0.9294
 5100TIP3   OH236790   4.907   6.780   5.203 -0.3587  0.1869  0.1287
 5100TIP3    H136791   4.887   6.687   5.215  0.2290  0.1658  1.0067
 5100TIP3    H236792   4.963   6.803   5.277 -1.1199  1.4374  0.3553
 5101TIP3   OH236793   4.297   2.314   1.741 -0.2812 -0.3285  0.6223
 5101TIP3    H136794   4.365   2.250   1.761 -0.3087 -0.7270 -0.5358
 5101TIP3    H236795   4.219   2.280   1.784 -0.0965 -0.6092  0.7374
 5102TIP3   OH236796   4.830   6.524   5.191  0.2586 -0.1603  0.3423
 5102TIP3    H136797   4.808   6.436   5.159 -2.8371  0.6755 -0.1359
 5102TIP3    H236798   4.779   6.533   5.271  0.6855  1.1398  0.4844
 5103TIP3   OH236799   3.980   6.675  13.332  0.4515  0.3511 -0.3527
 5103TIP3    H136800   4.075   6.674  13.332  0.4762  1.6344 -0.2465
 5103TIP3    H236801   3.955   6.633  13.415  0.9375  0.7342 -0.0112
 5104TIP3   OH236802   2.456   0.588  12.552  0.5722 -0.2747  0.0520
 5104TIP3    H136803   2.508   0.577  12.632  0.3177 -0.8816  0.1406
 5104TIP3    H236804   2.430   0.499  12.528  1.2902 -0.1774 -1.1436
 5105TIP3   OH236805   1.955   6.146   1.797  0.8013 -0.9044 -0.2647
 5105TIP3    H136806   1.922   6.058   1.818  0.4893 -0.2193  2.4706
 5105TIP3    H236807   1.877   6.193   1.767  1.1509 -1.7505 -2.7447
 5106TIP3   OH236808   6.556   4.167  11.929  0.3634 -0.5884  0.3080
 5106TIP3    H136809   6.589   4.119  12.005 -1.3590  0.0525  1.5197
 5106TIP3    H236810   6.469   4.197  11.955  0.2611  0.8036 -1.4361
 5107TIP3   OH236811   5.433   2.600  14.090  0.5336 -0.1441 -0.1789
 5107TIP3    H136812   5.384   2.680  14.070 -0.0357 -0.6779 -0.9239
 5107TIP3    H236813   5.524   2.629  14.097  0.3199  0.5829 -0.3390
 5108TIP3   OH236814   6.612   1.758  12.136 -0.3031 -0.0950  0.0165
 5108TIP3    H136815   6.604   1.703  12.058  0.8584 -0.8241  0.3918
 5108TIP3    H236816   6.626   1.846  12.102  0.4199 -0.4442 -0.6010
 5109TIP3   OH236817   6.191   5.542  11.210  0.3335 -0.2319 -0.6342
 5109TIP3    H136818   6.251   5.473  11.181 -0.0302 -0.4749 -0.8297
 5109TIP3    H236819   6.107   5.497  11.219  0.4102 -0.1415  0.7131
 5110TIP3   OH236820   4.978   1.436   2.826  0.3309  0.0446 -0.3922
 5110TIP3    H136821   5.045   1.413   2.890  1.9379  0.7046 -1.7706
 5110TIP3    H236822   5.009   1.398   2.743  0.9475  3.3552 -1.8472
 5111TIP3   OH236823   2.602   6.202  15.812  0.8604  0.2359  0.6197
 5111TIP3    H136824   2.608   6.179  15.719  0.5796  0.9031  0.4284
 5111TIP3    H236825   2.551   6.131  15.851  0.4247  0.2788  0.1408
 5112TIP3   OH236826   4.851   5.365   3.649 -0.4509  0.1900 -0.1866
 5112TIP3    H136827   4.923   5.327   3.698 -0.9773 -0.1379  0.3413
 5112TIP3    H236828   4.789   5.395   3.715 -0.6427  0.7876 -0.6241
 5113TIP3   OH236829   4.826   4.241  12.988 -0.7111  0.2668  0.1622
 5113TIP3    H136830   4.767   4.287  13.048 -1.6130  0.0904 -0.5683
 5113TIP3    H236831   4.861   4.310  12.932 -0.0321  0.4031  0.7442
 5114TIP3   OH236832   5.485   3.705   5.155  0.0498  0.2294 -0.1818
 5114TIP3    H136833   5.462   3.679   5.065  0.0962  0.7545 -0.3472
 5114TIP3    H236834   5.467   3.799   5.159  2.5707  0.8141 -0.4823
 5115TIP3   OH236835   0.858   1.054  10.398  0.0847  0.2953  0.0815
 5115TIP3    H136836   0.803   1.086  10.326 -0.5130  0.5158  0.6290
 5115TIP3    H236837   0.846   0.959  10.396 -0.0991  0.3186  0.0268
 5116TIP3   OH236838   0.466   2.706   3.774 -0.0588 -0.2968  0.6475
 5116TIP3    H136839   0.398   2.672   3.832 -0.6208  1.0363  0.8147
 5116TIP3    H236840   0.488   2.632   3.716 -0.7582 -1.1095  1.3947
 5117TIP3   OH236841   4.950   3.468   1.812 -0.3021 -0.1187  0.0505
 5117TIP3    H136842   5.041   3.486   1.792  0.1915 -2.3199  0.0357
 5117TIP3    H236843   4.925   3.399   1.751 -2.3774  1.2770 -0.7758
 5118TIP3   OH236844   4.506   1.692   0.148 -0.2579 -0.3772  0.1414
 5118TIP3    H136845   4.531   1.641   0.224 -0.1970 -1.8680 -0.8379
 5118TIP3    H236846   4.434   1.747   0.178  0.1280 -0.5485  1.4002
 5119TIP3   OH236847   6.387   0.581  14.620 -0.0453 -0.5799  0.1264
 5119TIP3    H136848   6.416   0.541  14.538 -1.1856 -0.3466 -0.4090
 5119TIP3    H236849   6.456   0.560  14.682  1.2499 -0.0990 -1.0766
 5120TIP3   OH236850   2.475   0.132  12.018 -0.1779 -0.8776 -0.2040
 5120TIP3    H136851   2.434   0.189  11.952 -0.0611  0.7780  1.0985
 5120TIP3    H236852   2.569   0.142  12.003 -0.1449 -0.3146  0.3392
 5121TIP3   OH236853   2.177   2.189   0.048  0.0107 -0.0103 -0.0671
 5121TIP3    H136854   2.158   2.201   0.141  1.4595 -0.9148  0.3747
 5121TIP3    H236855   2.155   2.274   0.008 -1.5547  0.0903  0.8965
 5122TIP3   OH236856   0.080   4.831   4.493  0.0143  0.1900  0.0123
 5122TIP3    H136857   0.152   4.768   4.488 -0.5530 -0.4319 -0.5187
 5122TIP3    H236858   0.029   4.815   4.413 -1.3211 -0.1405  0.8975
 5123TIP3   OH236859   5.933   1.525  16.608 -0.6051 -0.5345 -0.2671
 5123TIP3    H136860   6.013   1.475  16.626 -1.4488 -1.7361  0.3187
 5123TIP3    H236861   5.863   1.466  16.634 -1.6724  0.7059 -0.2844
 5124TIP3   OH236862   5.559   1.146   5.057 -0.2856  0.4230 -0.0200
 5124TIP3    H136863   5.593   1.062   5.027  0.6339  0.2870  1.3142
 5124TIP3    H236864   5.468   1.146   5.028 -0.4399 -1.2361  0.3418
 5125TIP3   OH236865   0.805   1.302  11.230 -1.1711  0.3372  0.3326
 5125TIP3    H136866   0.811   1.369  11.163  0.4504 -1.2632 -1.2226
 5125TIP3    H236867   0.895   1.271  11.241 -1.5456 -0.1242  2.5695
 5126TIP3   OH236868   6.308   5.468   4.334 -0.3648 -0.4844 -0.7166
 5126TIP3    H136869   6.338   5.470   4.424  0.8296  0.4724 -1.1034
 5126TIP3    H236870   6.240   5.535   4.329 -1.8272 -1.8579 -0.1098
 5127TIP3   OH236871   0.678   0.924   2.867 -0.1143 -0.2673  0.2062
 5127TIP3    H136872   0.693   0.867   2.791  0.8992 -0.7616  0.7623
 5127TIP3    H236873   0.723   0.881   2.939 -0.6066  0.4799  0.9774
 5128TIP3   OH236874   3.167   4.192  15.729  0.5022 -0.7368 -0.0457
 5128TIP3    H136875   3.143   4.201  15.637  0.7050 -1.1191 -0.1386
 5128TIP3    H236876   3.259   4.166  15.728  0.9747  0.8186  0.3087
 5129TIP3   OH236877   6.173   5.243  14.874 -0.4347  0.3093 -0.5279
 5129TIP3    H136878   6.181   5.165  14.929 -1.0269  0.2533 -0.5205
 5129TIP3    H236879   6.132   5.308  14.930 -0.6093  0.3989 -0.7617
 5130TIP3   OH236880   2.880   0.596   1.795  0.2348  0.8102 -0.3010
 5130TIP3    H136881   2.959   0.629   1.753 -0.4984  1.2705 -1.3777
 5130TIP3    H236882   2.901   0.594   1.888  1.5696  0.7386 -0.5809
 5131TIP3   OH236883   3.532   0.355   2.964  0.1504  0.6030  0.4437
 5131TIP3    H136884   3.541   0.277   2.909 -0.7083 -0.6853  2.0721
 5131TIP3    H236885   3.536   0.323   3.053 -0.8581  2.3479  1.1676
 5132TIP3   OH236886   2.475   5.487   4.524 -0.6507 -0.3995  0.0262
 5132TIP3    H136887   2.413   5.497   4.452 -0.6903 -2.3967 -0.2775
 5132TIP3    H236888   2.447   5.551   4.590 -0.3130  1.8167 -1.8843
 5133TIP3   OH236889   1.128   0.978  16.791  0.2588 -0.0209 -0.3857
 5133TIP3    H136890   1.173   1.057  16.821 -1.7626  1.2004 -0.3680
 5133TIP3    H236891   1.166   0.960  16.705  0.8705  0.8734 -0.3158
 5134TIP3   OH236892   6.087   4.952   1.966  0.8043  0.4018  0.2944
 5134TIP3    H136893   6.106   4.980   1.876  1.9147  0.6366  0.5939
 5134TIP3    H236894   6.074   5.033   2.014 -1.5590  0.2595  0.0127
 5135TIP3   OH236895   0.802   0.898   2.074 -0.7838 -0.6521 -0.0285
 5135TIP3    H136896   0.854   0.880   1.996  0.2287 -0.1576  0.5092
 5135TIP3    H236897   0.766   0.813   2.098  0.8654 -1.3072  0.3201
 5136TIP3   OH236898   1.707   0.530  12.470 -0.7489 -0.0896  0.3154
 5136TIP3    H136899   1.647   0.548  12.398 -1.0507 -2.2991 -0.0448
 5136TIP3    H236900   1.775   0.597  12.463 -1.0023 -0.0104 -1.7488
 5137TIP3   OH236901   4.598   6.533  13.503 -0.2089 -0.0575  0.1521
 5137TIP3    H136902   4.680   6.512  13.457 -0.2685  0.6783 -0.2881
 5137TIP3    H236903   4.541   6.569  13.436 -0.2372  1.1840  0.8194
 5138TIP3   OH236904   1.271   1.692  11.438 -0.0526  0.2745  0.3982
 5138TIP3    H136905   1.231   1.646  11.364 -0.0216 -0.3493  0.7593
 5138TIP3    H236906   1.337   1.631  11.471 -0.4150  0.3300  1.2569
 5139TIP3   OH236907   4.413   3.012   1.687  0.2353  0.3981  0.1359
 5139TIP3    H136908   4.394   3.050   1.772  1.3593  0.7479  0.2577
 5139TIP3    H236909   4.399   3.084   1.625 -1.4812 -0.1111 -0.0978
 5140TIP3   OH236910   4.861   3.260  12.777 -0.7378  0.1760 -0.4151
 5140TIP3    H136911   4.932   3.247  12.714  0.4580  0.8329  0.7609
 5140TIP3    H236912   4.862   3.353  12.796 -0.5775 -0.1273  1.1431
 5141TIP3   OH236913   2.342   2.459   3.430  0.5119  0.3870 -0.5638
 5141TIP3    H136914   2.330   2.462   3.525 -0.5470 -1.2195 -0.5950
 5141TIP3    H236915   2.426   2.415   3.417  0.8662  1.0001 -0.3801
 5142TIP3   OH236916   6.105   0.391   5.025  0.0277 -0.0329 -0.3668
 5142TIP3    H136917   6.139   0.439   5.101 -0.9513 -2.0711  1.4558
 5142TIP3    H236918   6.183   0.359   4.980  0.6215  0.0282  0.5929
 5143TIP3   OH236919   2.357   3.017  16.668 -0.4061 -0.1645 -0.2276
 5143TIP3    H136920   2.365   2.991  16.577  0.2393  1.1017 -0.5516
 5143TIP3    H236921   2.265   3.041  16.678 -0.2843  0.5629 -0.7968
 5144TIP3   OH236922   2.485   2.550  12.692 -0.0757 -0.0297 -0.1640
 5144TIP3    H136923   2.396   2.554  12.729 -0.3883  0.4327 -0.9348
 5144TIP3    H236924   2.499   2.637  12.655  0.4985 -0.2677 -0.5156
 5145TIP3   OH236925   0.390   5.007  15.656  0.2319  0.5744  0.1430
 5145TIP3    H136926   0.365   4.922  15.621  0.6288  0.6710 -0.3867
 5145TIP3    H236927   0.456   5.040  15.595 -0.1894  1.4267  0.1307
 5146TIP3   OH236928   5.021   3.438   4.215  0.1058 -0.4312 -0.4266
 5146TIP3    H136929   5.080   3.455   4.288 -1.2085  0.7744  0.4064
 5146TIP3    H236930   5.040   3.507   4.152  0.5484 -0.8860 -0.8030
 5147TIP3   OH236931   3.294   2.118   5.618 -0.2534  0.0030  0.2841
 5147TIP3    H136932   3.218   2.061   5.619 -0.3787  0.1596  1.7722
 5147TIP3    H236933   3.369   2.059   5.633 -0.4097  0.2169  2.1230
 5148TIP3   OH236934   2.119   5.982   0.911 -0.0855 -0.0708  0.2809
 5148TIP3    H136935   2.065   6.056   0.939  0.0651  0.5765 -1.0598
 5148TIP3    H236936   2.206   6.001   0.947 -0.2981 -0.1686  0.8622
 5149TIP3   OH236937   2.005   5.849  16.048  0.3196  0.2214  0.2726
 5149TIP3    H136938   1.953   5.863  15.969  2.1243 -0.8949 -1.2007
 5149TIP3    H236939   2.072   5.916  16.045  0.8346 -0.2807  0.4682
 5150TIP3   OH236940   2.670   0.434   5.122  0.2686 -0.0088  0.1813
 5150TIP3    H136941   2.729   0.494   5.169  1.1045  0.0248 -0.8892
 5150TIP3    H236942   2.620   0.392   5.192  3.0075 -1.6295  1.3578
 5151TIP3   OH236943   3.736   3.387  12.942 -0.2177 -0.8785  0.1250
 5151TIP3    H136944   3.790   3.309  12.955 -0.6710 -1.5587 -1.6721
 5151TIP3    H236945   3.710   3.414  13.030 -0.3434 -2.9915  0.7915
 5152TIP3   OH236946   6.332   6.800   4.485  0.3060  0.7331  0.1152
 5152TIP3    H136947   6.428   6.797   4.480  0.2917 -1.0655  0.2160
 5152TIP3    H236948   6.303   6.743   4.414 -0.6531  0.2945  0.8330
 5153TIP3   OH236949   2.247   0.830  13.781 -0.3644  0.3359  0.3544
 5153TIP3    H136950   2.263   0.920  13.807 -1.0169  0.7589 -0.6622
 5153TIP3    H236951   2.326   0.783  13.808  0.2087  1.3077  0.4216
 5154TIP3   OH236952   5.770   4.828   4.203  0.4457  0.4399  0.6315
 5154TIP3    H136953   5.763   4.849   4.296  1.0267 -0.7882  0.9682
 5154TIP3    H236954   5.847   4.772   4.196 -0.5093 -0.8346 -0.3271
 5155TIP3   OH236955   5.934   2.484  13.820  0.6445  0.8543 -0.5607
 5155TIP3    H136956   5.957   2.394  13.796  2.5159  0.7441  1.3779
 5155TIP3    H236957   5.949   2.489  13.914  0.3894  3.1560 -0.5772
 5156TIP3   OH236958   1.705   0.454  16.725  0.6506 -0.0897  0.0564
 5156TIP3    H136959   1.792   0.489  16.746  0.2187  0.5410  0.8670
 5156TIP3    H236960   1.694   0.380  16.784  1.1219 -0.9493 -0.9044
 5157TIP3   OH236961   6.224   1.101  16.737  0.2925 -0.2839 -0.1309
 5157TIP3    H136962   6.212   1.007  16.732 -0.8233 -0.2516  1.2785
 5157TIP3    H236963   6.269   1.115  16.821  3.9124  0.2092 -1.9474
 5158TIP3   OH236964   4.670   1.624   1.841  0.5426  0.1074 -0.4460
 5158TIP3    H136965   4.724   1.677   1.900  0.3924  0.8814 -0.9858
 5158TIP3    H236966   4.706   1.536   1.849  1.7222  0.5480 -0.5649
 5159TIP3   OH236967   1.170   1.928   4.537 -0.6265  0.0364 -0.1772
 5159TIP3    H136968   1.265   1.929   4.537 -0.5899  2.1719  0.4863
 5159TIP3    H236969   1.146   1.849   4.488  1.4633 -0.4504 -0.4859
 5160TIP3   OH236970   3.885   1.097  15.858  0.1902 -0.2034 -0.1075
 5160TIP3    H136971   3.958   1.150  15.827 -1.1157  2.0067  0.4116
 5160TIP3    H236972   3.869   1.035  15.787  0.9485  0.9587 -1.3428
 5161TIP3   OH236973   1.677   3.299   6.877  0.2892  0.2655  0.2117
 5161TIP3    H136974   1.646   3.304   6.967  0.1181  0.6298  0.1334
 5161TIP3    H236975   1.644   3.379   6.835  1.5059  0.7718  0.1747
 5162TIP3   OH236976   6.142   2.762  14.996 -0.8406 -0.1351 -0.5209
 5162TIP3    H136977   6.165   2.831  15.059  0.0594  0.5563 -1.5638
 5162TIP3    H236978   6.146   2.681  15.047  0.3169  0.3550  0.2218
 5163TIP3   OH236979   2.977   3.583  12.583 -0.3004  0.2505  0.7856
 5163TIP3    H136980   3.056   3.528  12.588  2.3015  3.7779  3.7159
 5163TIP3    H236981   2.927   3.560  12.662  0.8658  1.9348  2.0969
 5164TIP3   OH236982   5.126   4.389   4.030  0.8263  0.3871 -0.2607
 5164TIP3    H136983   5.106   4.334   3.955 -2.2499  1.6186 -0.4943
 5164TIP3    H236984   5.103   4.336   4.106  1.2586  0.1334 -0.3027
 5165TIP3   OH236985   2.228   4.850   1.737 -0.2932 -0.0562  0.0498
 5165TIP3    H136986   2.185   4.905   1.671 -1.8045  0.4667  1.4074
 5165TIP3    H236987   2.258   4.774   1.688  0.3562  1.1808 -1.5770
 5166TIP3   OH236988   4.704   6.621   0.426  0.6807  0.1938 -0.0832
 5166TIP3    H136989   4.771   6.555   0.408  2.5950  2.1607 -0.6066
 5166TIP3    H236990   4.722   6.649   0.516 -0.4916 -0.3786  0.3442
 5167TIP3   OH236991   1.762   2.027   3.939 -0.3607  0.7959  0.6262
 5167TIP3    H136992   1.817   2.000   4.013 -0.7639  0.1813  0.7114
 5167TIP3    H236993   1.674   1.998   3.964 -0.3145 -0.5235 -0.6240
 5168TIP3   OH236994   1.786   3.476  14.307  0.2842  0.3552 -0.0268
 5168TIP3    H136995   1.772   3.385  14.279  0.4774  0.2951  0.0744
 5168TIP3    H236996   1.710   3.523  14.271 -0.6837 -0.1399  1.2821
 5169TIP3   OH236997   4.696   4.942   2.055 -0.0363  0.4838  0.1955
 5169TIP3    H136998   4.623   4.883   2.035  0.1325 -0.1824  1.4487
 5169TIP3    H236999   4.766   4.914   1.995 -0.2918  0.0904  0.0721
 5170TIP3   OH237000   5.211   5.276   6.643 -0.0047 -0.1485  0.0639
 5170TIP3    H137001   5.279   5.343   6.655 -1.0880  1.1041 -0.4912
 5170TIP3    H237002   5.149   5.291   6.714 -0.1052 -0.7529  0.1049
 5171TIP3   OH237003   1.753   5.633  13.562  0.5114  0.6856 -0.0877
 5171TIP3    H137004   1.794   5.548  13.581 -2.7107 -0.5118  2.5580
 5171TIP3    H237005   1.731   5.669  13.648 -1.9317  2.1820 -1.2220
 5172TIP3   OH237006   3.694   1.202  12.428  0.2542 -0.0511  0.9205
 5172TIP3    H137007   3.779   1.187  12.469  0.1399  0.5435  1.3777
 5172TIP3    H237008   3.713   1.204  12.334  0.6447 -0.5579  0.9821
 5173TIP3   OH237009   4.217   4.036   1.274 -0.4339 -0.2818  0.2721
 5173TIP3    H137010   4.281   3.997   1.214 -0.4584  1.8630 -1.2518
 5173TIP3    H237011   4.138   3.982   1.263 -0.5108  0.1852 -1.8409
 5174TIP3   OH237012   4.280   1.036   1.907 -0.3315 -0.8864 -0.2467
 5174TIP3    H137013   4.373   1.058   1.895 -0.8263  1.2062 -0.5957
 5174TIP3    H237014   4.277   0.942   1.896  1.7176 -0.9785 -0.5245
 5175TIP3   OH237015   3.496   1.957   5.713  0.0027 -0.0105 -0.2497
 5175TIP3    H137016   3.579   1.982   5.754  0.5588 -1.0824 -0.6923
 5175TIP3    H237017   3.503   1.862   5.701 -1.1768 -0.0691 -0.5388
 5176TIP3   OH237018   1.117   0.294  12.481 -0.0384  0.5713 -0.6709
 5176TIP3    H137019   1.057   0.262  12.414 -0.9268  1.4762 -0.3351
 5176TIP3    H237020   1.122   0.223  12.546 -0.3342  0.2883 -0.9569
 5177TIP3   OH237021   3.155   2.614  13.847  0.3974 -0.3870  0.6717
 5177TIP3    H137022   3.163   2.567  13.764 -0.2426  1.3267 -0.4388
 5177TIP3    H237023   3.061   2.629  13.857  0.5820  0.6642  0.9622
 5178TIP3   OH237024   4.875   3.770   4.998  0.0631 -0.1439 -1.0680
 5178TIP3    H137025   4.908   3.831   4.932  1.2428  0.2825 -0.1050
 5178TIP3    H237026   4.805   3.818   5.042 -0.7731 -0.4525 -2.0205
 5179TIP3   OH237027   1.228   4.222  15.488  0.0103  0.4117 -0.3923
 5179TIP3    H137028   1.178   4.256  15.563  1.0135  1.7930 -0.3202
 5179TIP3    H237029   1.220   4.290  15.421 -0.5138 -0.6170 -1.4160
 5180TIP3   OH237030   0.322   2.109  15.755  0.1789  0.2114 -0.3930
 5180TIP3    H137031   0.293   2.092  15.845  3.7278  0.7554  1.0187
 5180TIP3    H237032   0.367   2.029  15.728  0.8404  0.7389 -0.9058
 5181TIP3   OH237033   0.159   0.396  13.330 -0.6006 -0.1585  0.4933
 5181TIP3    H137034   0.078   0.362  13.293 -2.2008  1.9671  1.7969
 5181TIP3    H237035   0.207   0.430  13.254 -1.1602 -0.9748 -0.2447
 5182TIP3   OH237036   1.813   0.045  15.149 -0.4508 -0.0436 -0.2721
 5182TIP3    H137037   1.815   0.125  15.200  0.9262 -1.3460  1.8749
 5182TIP3    H237038   1.736  -0.002  15.179 -0.9861  0.2353 -1.1735
 5183TIP3   OH237039   1.393   1.212  16.313  0.1995  0.3386  0.4293
 5183TIP3    H137040   1.362   1.272  16.245  0.5136 -1.3369 -1.2857
 5183TIP3    H237041   1.313   1.168  16.343  0.1635  0.4795  0.5421
 5184TIP3   OH237042   6.403   5.936  17.261  0.3912 -0.6780 -0.0178
 5184TIP3    H137043   6.414   5.960  17.169  0.1884 -0.4389  0.0209
 5184TIP3    H237044   6.453   5.855  17.270 -1.6999 -2.1689 -0.9662
 5185TIP3   OH237045   3.249   4.364  14.024  0.0660 -0.5615 -0.3120
 5185TIP3    H137046   3.218   4.415  14.099 -2.2384 -1.5372 -0.5100
 5185TIP3    H237047   3.304   4.296  14.063  1.4393  0.7322  0.1389
 5186TIP3   OH237048   2.086   3.162   5.143  0.0438  0.4456 -0.1897
 5186TIP3    H137049   2.099   3.091   5.205 -0.6881  0.1847 -0.3247
 5186TIP3    H237050   2.120   3.240   5.188 -0.8312  0.3375  0.7097
 5187TIP3   OH237051   6.132   6.079  13.848 -0.1331  0.0262  0.3504
 5187TIP3    H137052   6.132   6.155  13.905 -2.3386 -0.3116  0.8965
 5187TIP3    H237053   6.115   6.114  13.760  0.3372  0.2680  0.3505
 5188TIP3   OH237054   4.948   0.653   2.967 -1.0482 -0.1895 -0.4007
 5188TIP3    H137055   5.039   0.648   2.936 -0.5148  2.1015  0.5653
 5188TIP3    H237056   4.923   0.562   2.981  2.1561 -0.9139  2.0880
 5189TIP3   OH237057   2.499   3.136   1.105 -0.0119  0.4801  0.4045
 5189TIP3    H137058   2.423   3.089   1.141  0.0878  0.7225  0.9502
 5189TIP3    H237059   2.573   3.105   1.157 -0.1175  2.1112  1.6352
 5190TIP3   OH237060   4.283   2.013  13.846  0.5730 -0.5968  0.2350
 5190TIP3    H137061   4.341   2.015  13.770  0.6010  0.1296  0.2706
 5190TIP3    H237062   4.245   1.925  13.845  0.0396 -0.3744 -1.0162
 5191TIP3   OH237063   4.758   1.854   5.124 -0.6535  0.1348  0.2618
 5191TIP3    H137064   4.851   1.867   5.103 -0.1305 -1.1360  1.5521
 5191TIP3    H237065   4.711   1.885   5.047  0.8340  0.9705 -0.3587
 5192TIP3   OH237066   4.853   6.641   1.175 -0.4323  0.9348  0.4511
 5192TIP3    H137067   4.763   6.636   1.143  0.2016 -1.8767 -1.2750
 5192TIP3    H237068   4.905   6.653   1.095  0.8789 -0.5168  1.0502
 5193TIP3   OH237069   6.443   4.810  13.575  0.3416 -0.2545  0.9221
 5193TIP3    H137070   6.383   4.748  13.535 -0.2379 -0.0310  1.4225
 5193TIP3    H237071   6.531   4.779  13.550  0.0149  0.6621 -1.6929
 5194TIP3   OH237072   3.761   5.568  14.217  0.1757  0.0848 -0.3484
 5194TIP3    H137073   3.711   5.507  14.272  0.0558 -0.0283 -0.5832
 5194TIP3    H237074   3.696   5.606  14.158  0.2924  0.2627 -0.3643
 5195TIP3   OH237075   3.041   6.433   2.762  0.4821  0.3254 -0.6223
 5195TIP3    H137076   3.101   6.441   2.689  0.2887 -0.3008 -0.8633
 5195TIP3    H237077   3.019   6.339   2.765 -1.0688  0.6385 -1.0329
 5196TIP3   OH237078   3.818   5.802   1.034 -0.1822 -1.0425  0.0667
 5196TIP3    H137079   3.880   5.814   1.106  0.0984  1.3803 -0.5029
 5196TIP3    H237080   3.733   5.822   1.073  0.0293  0.8239 -0.3337
 5197TIP3   OH237081   3.218   0.944  12.037 -0.4630  0.6181  0.4528
 5197TIP3    H137082   3.164   0.923  11.961  0.7683 -1.7862  0.1521
 5197TIP3    H237083   3.197   1.035  12.057 -1.9746  0.8319 -1.7879
 5198TIP3   OH237084   2.245   2.260  14.191 -0.4366  0.5188  0.3579
 5198TIP3    H137085   2.177   2.295  14.134  0.5825  0.2256 -1.0932
 5198TIP3    H237086   2.327   2.291  14.153  0.4110 -1.7614  0.1831
 5199TIP3   OH237087   5.093   0.033   1.711  0.3599 -0.0033  0.4172
 5199TIP3    H137088   5.174   0.071   1.677  0.6567 -0.9358  0.0279
 5199TIP3    H237089   5.023   0.079   1.664  0.7103 -0.0023 -0.1139
 5200TIP3   OH237090   3.097   2.710   1.090  0.2754 -0.4960 -0.6405
 5200TIP3    H137091   3.022   2.674   1.137  0.5158 -0.9999 -0.6259
 5200TIP3    H237092   3.173   2.683   1.142  0.3978  1.1808  0.0913
 5201TIP3   OH237093   1.932   0.703   0.969 -0.0545  0.4756  0.3948
 5201TIP3    H137094   1.883   0.669   1.045  0.3600  0.0781  0.4879
 5201TIP3    H237095   1.945   0.795   0.988  0.0339  0.3819  0.8050
 5202TIP3   OH237096   4.086   3.072  16.156 -0.0656  0.5273 -0.3954
 5202TIP3    H137097   4.036   3.152  16.170  0.9154  1.2452 -0.9148
 5202TIP3    H237098   4.049   3.035  16.076 -0.2619  0.6567 -0.3651
 5203TIP3   OH237099   6.178   2.003  12.053  0.0380 -0.2015  0.1025
 5203TIP3    H137100   6.192   1.938  12.122 -2.1257 -1.8475 -0.8827
 5203TIP3    H237101   6.083   2.014  12.049  0.1089  0.1092 -2.3561
 5204TIP3   OH237102   4.025   1.857  11.029  0.1177  0.5199 -0.1037
 5204TIP3    H137103   4.058   1.847  10.940 -0.4727 -0.6155 -0.2152
 5204TIP3    H237104   4.030   1.951  11.046 -2.0776  1.1267 -2.2645
 5205TIP3   OH237105   3.670   2.357   5.303  0.1421 -0.3424  0.4986
 5205TIP3    H137106   3.676   2.369   5.208  1.0207 -0.1584  0.5701
 5205TIP3    H237107   3.580   2.330   5.318  0.0553 -0.5898 -0.4156
 5206TIP3   OH237108   0.462   5.833  11.768  0.5833  0.1947  0.0645
 5206TIP3    H137109   0.514   5.865  11.694  0.7192  0.0528  0.0950
 5206TIP3    H237110   0.406   5.906  11.792  1.7050  0.8085  0.8851
 5207TIP3   OH237111   3.454   4.524  12.622  0.2626 -0.9115 -0.4365
 5207TIP3    H137112   3.362   4.497  12.616  0.5011 -1.5711 -1.6059
 5207TIP3    H237113   3.453   4.619  12.608 -0.2371 -0.9270 -0.5052
 5208TIP3   OH237114   0.833   2.525   4.740 -0.0411  0.0692 -0.2496
 5208TIP3    H137115   0.747   2.559   4.764 -0.3137 -0.2545 -0.7442
 5208TIP3    H237116   0.836   2.437   4.778  0.3740  0.3597  0.4083
 5209TIP3   OH237117   5.555   1.826   5.050 -1.2329  0.6102 -0.1684
 5209TIP3    H137118   5.517   1.741   5.070 -0.0521 -0.3399 -1.6790
 5209TIP3    H237119   5.510   1.854   4.970 -1.5972  1.4070  0.3072
 5210TIP3   OH237120   1.322   5.432   4.631 -0.3190  0.5976 -0.4081
 5210TIP3    H137121   1.270   5.353   4.613  0.4386 -0.0552  0.1889
 5210TIP3    H237122   1.409   5.411   4.599  0.1735  0.7505  0.7885
 5211TIP3   OH237123   1.663   1.649  12.882  0.0332 -0.3443 -0.2986
 5211TIP3    H137124   1.713   1.728  12.902 -0.1958 -0.8671  2.9658
 5211TIP3    H237125   1.608   1.673  12.808  1.0462  2.0658 -0.3580
 5212TIP3   OH237126   6.648   6.104  15.189 -0.0877 -0.6586  0.2615
 5212TIP3    H137127   6.567   6.101  15.138  0.6565  1.6341 -1.2070
 5212TIP3    H237128   6.713   6.143  15.130  1.2653  0.5413  2.3864
 5213TIP3   OH237129   1.056   4.972   3.003 -0.6917  0.0971  0.3425
 5213TIP3    H137130   1.023   5.062   3.007  1.3199  0.8713  0.7199
 5213TIP3    H237131   1.122   4.974   2.933 -0.9340 -1.1998  0.0642
 5214TIP3   OH237132   5.688   5.098  12.769  0.0495  0.7616 -0.3147
 5214TIP3    H137133   5.779   5.096  12.739  0.0468  0.9989 -0.3439
 5214TIP3    H237134   5.644   5.158  12.707  0.2089  1.8684  0.6168
 5215TIP3   OH237135   5.039   6.531  12.105 -0.8533 -0.2114  0.1328
 5215TIP3    H137136   5.039   6.523  12.009 -0.1297 -0.6984  0.1609
 5215TIP3    H237137   5.031   6.625  12.121  1.0995  0.1027 -0.4601
 5216TIP3   OH237138   0.862   5.298  13.123 -0.7118 -0.6713 -0.3122
 5216TIP3    H137139   0.901   5.213  13.141  0.3643 -0.2022 -0.3600
 5216TIP3    H237140   0.783   5.278  13.074 -0.3380 -1.6314 -0.5456
 5217TIP3   OH237141   3.870   2.372   0.660  0.7259 -0.2103  0.1992
 5217TIP3    H137142   3.782   2.342   0.685  0.3333  0.9546  0.3069
 5217TIP3    H237143   3.871   2.366   0.565  0.8927 -1.1693  0.2555
 5218TIP3   OH237144   6.305   1.433   5.419  0.8963 -0.2989 -0.3474
 5218TIP3    H137145   6.376   1.470   5.365  0.9747  0.0723  0.0037
 5218TIP3    H237146   6.296   1.343   5.389  0.1507  0.2237 -1.7938
 5219TIP3   OH237147   2.275   0.614   1.500  0.1514  0.0233  0.3674
 5219TIP3    H137148   2.265   0.684   1.436  1.0014  0.0592  0.2607
 5219TIP3    H237149   2.229   0.539   1.462  1.9136 -0.4136 -1.0126
 5220TIP3   OH237150   4.503   1.662   2.153 -0.1551  0.4233 -0.0164
 5220TIP3    H137151   4.461   1.712   2.223  1.2206  0.8225  0.5592
 5220TIP3    H237152   4.545   1.729   2.097  0.9331 -0.0067  0.2528
 5221TIP3   OH237153   5.265   6.498  14.978  0.1380  0.2397  0.2907
 5221TIP3    H137154   5.272   6.408  14.944 -2.5701 -0.2352  0.8035
 5221TIP3    H237155   5.281   6.489  15.072 -1.3302  0.0413  0.5470
 5222TIP3   OH237156   5.822   0.917   6.077 -0.7604  0.0483 -0.8224
 5222TIP3    H137157   5.782   0.942   6.160  1.7839 -0.3117  0.5968
 5222TIP3    H237158   5.872   0.838   6.097 -0.4879 -0.3408 -2.8407
 5223TIP3   OH237159   4.961   3.480  14.989 -0.1685  0.5565  0.4427
 5223TIP3    H137160   4.935   3.547  14.926 -0.9053  0.5502  0.7283
 5223TIP3    H237161   4.880   3.432  15.008  0.0545  0.5155  1.3373
 5224TIP3   OH237162   1.680   5.110   2.207  0.3754 -0.9753 -0.0222
 5224TIP3    H137163   1.635   5.138   2.287  0.1333 -0.0993 -0.4390
 5224TIP3    H237164   1.759   5.164   2.204  0.1111 -0.6016 -0.6360
 5225TIP3   OH237165   2.943   1.976  13.580  0.3340 -0.7334 -0.2025
 5225TIP3    H137166   3.030   1.947  13.552  0.4587 -0.6654  0.0995
 5225TIP3    H237167   2.890   1.896  13.580  0.1076 -0.5966 -1.4179
 5226TIP3   OH237168   4.454   5.227  16.108  0.1922  0.2851  0.0214
 5226TIP3    H137169   4.416   5.314  16.094  0.8742  0.1852 -3.3084
 5226TIP3    H237170   4.528   5.223  16.046  0.7332 -2.3418  0.7002
 5227TIP3   OH237171   1.383   5.435  12.017 -0.1940 -0.3699  0.0331
 5227TIP3    H137172   1.461   5.397  11.977  0.2567  0.6195 -0.0421
 5227TIP3    H237173   1.329   5.462  11.943  0.7570  1.7056  0.0197
 5228TIP3   OH237174   0.016   1.619  14.312  0.3030 -0.0335 -0.5927
 5228TIP3    H137175   0.088   1.678  14.289 -0.2953  0.6520 -0.7677
 5228TIP3    H237176   0.055   1.555  14.371  0.7876  1.0572  0.3039
 5229TIP3   OH237177   3.810   4.636  17.239 -0.2985 -0.3312 -0.1720
 5229TIP3    H137178   3.786   4.727  17.253 -0.3775 -0.6490  2.1199
 5229TIP3    H237179   3.726   4.589  17.237 -0.2912 -0.3495 -1.8256
 5230TIP3   OH237180   5.112   0.464  11.511 -0.5538  0.2255  0.1607
 5230TIP3    H137181   5.172   0.472  11.585 -0.4768  0.1367  0.1078
 5230TIP3    H237182   5.161   0.499  11.436 -0.0927 -0.9952 -0.1394
 5231TIP3   OH237183   5.260   0.899   5.460  0.2597  0.0294 -0.0916
 5231TIP3    H137184   5.272   0.806   5.442  0.5411  0.4488 -2.3708
 5231TIP3    H237185   5.334   0.942   5.417 -1.6909  1.5404 -2.1896
 5232TIP3   OH237186   0.228   4.039  11.839 -0.2202 -0.3050 -0.1042
 5232TIP3    H137187   0.220   4.125  11.880 -1.3319 -0.1060 -0.7125
 5232TIP3    H237188   0.149   3.992  11.864  0.0617 -0.9131 -0.3295
 5233TIP3   OH237189   2.967   4.038   6.266  0.3876  0.2135  0.1482
 5233TIP3    H137190   3.036   4.103   6.253 -1.0757  1.5088 -1.6592
 5233TIP3    H237191   2.885   4.088   6.264 -0.7835 -1.5983 -0.7550
 5234TIP3   OH237192   0.398   5.789  13.207 -0.9495  0.1933  0.2161
 5234TIP3    H137193   0.413   5.733  13.283 -1.1337 -1.8717 -1.1810
 5234TIP3    H237194   0.433   5.739  13.133 -1.4427  1.7976 -1.1632
 5235TIP3   OH237195   1.639   1.513  15.299  0.1018  0.1075 -0.1455
 5235TIP3    H137196   1.681   1.462  15.229  2.2629 -0.2586  1.3278
 5235TIP3    H237197   1.563   1.461  15.324  0.2802 -0.6204 -1.0294
 5236TIP3   OH237198   5.455   6.540   4.289  0.0872 -0.3342 -0.8014
 5236TIP3    H137199   5.434   6.467   4.231  2.6446 -0.0236 -2.2426
 5236TIP3    H237200   5.420   6.514   4.374 -2.3315 -1.5436 -2.0682
 5237TIP3   OH237201   5.628   3.612   3.764  1.0777  0.5196  0.0363
 5237TIP3    H137202   5.614   3.543   3.829  0.0476  0.7381  0.0710
 5237TIP3    H237203   5.607   3.571   3.681  2.1464  0.3147 -0.1450
 5238TIP3   OH237204   4.528   0.422  16.502 -0.5383  0.1173 -0.0040
 5238TIP3    H137205   4.557   0.486  16.567  2.8981 -0.9531 -0.3235
 5238TIP3    H237206   4.485   0.476  16.435 -0.2091  1.7451  1.0185
 5239TIP3   OH237207   0.449   1.800   1.527  0.0746  0.0332  0.0876
 5239TIP3    H137208   0.493   1.871   1.481  1.9488  0.2949  2.1347
 5239TIP3    H237209   0.415   1.744   1.457  0.6094  1.6906 -1.5767
 5240TIP3   OH237210   2.620   6.059   5.038  0.5216 -0.4558 -0.2336
 5240TIP3    H137211   2.622   6.016   4.952 -1.1953 -2.1183  0.4963
 5240TIP3    H237212   2.658   5.994   5.097 -0.3762 -0.2143  0.6174
 5241TIP3   OH237213   1.748   2.636  15.465  0.2853 -0.6441 -0.4619
 5241TIP3    H137214   1.796   2.716  15.484  0.1250 -0.7190  0.3001
 5241TIP3    H237215   1.733   2.596  15.551 -0.8784 -0.7588 -0.6998
 5242TIP3   OH237216   2.664   0.097   0.451  0.5148 -0.1862  0.1741
 5242TIP3    H137217   2.607   0.052   0.388  0.4660 -0.0573  0.1245
 5242TIP3    H237218   2.695   0.175   0.404 -0.3848  0.4929  0.6607
 5243TIP3   OH237219   2.376   2.147  17.228 -0.2512 -0.1791 -0.8907
 5243TIP3    H137220   2.409   2.068  17.272 -1.9763  1.1115  3.2331
 5243TIP3    H237221   2.284   2.151  17.252 -0.9226  1.6690 -3.3733
 5244TIP3   OH237222   1.298   4.278  12.759 -0.4247  0.3781 -1.0135
 5244TIP3    H137223   1.292   4.336  12.835 -0.1386 -0.6201 -0.1869
 5244TIP3    H237224   1.215   4.289  12.713 -0.9368  0.4159 -0.1011
 5245TIP3   OH237225   0.003   0.529   2.123 -0.4021 -0.2539 -0.3359
 5245TIP3    H137226  -0.064   0.508   2.058  0.3361 -0.3334 -1.0895
 5245TIP3    H237227   0.051   0.447   2.137  1.3224  0.3915 -1.9342
 5246TIP3   OH237228   1.867   4.764   0.707  0.2468  0.4290 -0.5055
 5246TIP3    H137229   1.817   4.734   0.631  0.8353  0.5124 -0.9306
 5246TIP3    H237230   1.958   4.758   0.680  0.6416 -2.1537  1.1565
 5247TIP3   OH237231   3.978   2.249  15.976 -0.1693  0.1780  0.1093
 5247TIP3    H137232   4.013   2.335  15.957  0.2123 -0.2646 -1.3176
 5247TIP3    H237233   3.891   2.266  16.014 -1.3827  1.1871 -2.8461
 5248TIP3   OH237234   3.359   3.851   3.218  0.3575 -0.1326  0.4181
 5248TIP3    H137235   3.311   3.878   3.296 -0.2281  1.5871 -0.4737
 5248TIP3    H237236   3.432   3.912   3.211 -1.1692  1.6170 -1.8238
 5249TIP3   OH237237   5.736   5.233   6.068  0.1585  0.3430  0.2032
 5249TIP3    H137238   5.829   5.213   6.059  0.2423  1.0708 -0.7130
 5249TIP3    H237239   5.733   5.329   6.070 -0.7044  0.3866 -1.5468
 5250TIP3   OH237240   0.586   4.016   2.990  0.1656  0.4679 -0.0423
 5250TIP3    H137241   0.681   4.005   2.987  0.3591 -0.2566  3.8644
 5250TIP3    H237242   0.551   3.927   2.994 -0.1954  0.6355  3.5853
 5251TIP3   OH237243   2.606   4.860  12.967 -0.0974 -0.8570  0.0698
 5251TIP3    H137244   2.632   4.950  12.947 -0.7956 -0.8380 -0.8293
 5251TIP3    H237245   2.687   4.817  12.994  0.5910 -0.4187 -1.2101
 5252TIP3   OH237246   3.427   6.441   0.779 -0.0108 -0.4394  0.5488
 5252TIP3    H137247   3.371   6.484   0.844 -0.7813  0.1462 -0.4682
 5252TIP3    H237248   3.510   6.488   0.785 -1.1754  2.0778 -1.3180
 5253TIP3   OH237249   1.765   6.763  16.191 -0.4726 -0.5841  0.0365
 5253TIP3    H137250   1.846   6.791  16.235  0.0602 -0.4961 -0.9664
 5253TIP3    H237251   1.749   6.675  16.225  0.1607 -0.6834  0.0984
 5254TIP3   OH237252   4.450   3.245  15.712  0.4313 -0.0667  0.4913
 5254TIP3    H137253   4.524   3.262  15.655 -0.0378 -1.9197 -0.7984
 5254TIP3    H237254   4.488   3.203  15.789  0.7077 -1.8119 -0.5405
 5255TIP3   OH237255   0.483   1.704   5.804  0.0560 -0.5308 -0.4671
 5255TIP3    H137256   0.450   1.661   5.726  1.0589 -2.0987 -0.0866
 5255TIP3    H237257   0.425   1.779   5.818 -0.9829 -1.0421 -1.8869
 5256TIP3   OH237258   4.315   5.016  14.411  0.2047  0.7570  0.0337
 5256TIP3    H137259   4.380   5.035  14.343 -0.4180 -0.1290 -0.8405
 5256TIP3    H237260   4.329   4.925  14.434 -1.9084 -0.0533 -1.5629
 5257TIP3   OH237261   3.605   1.034  16.389  0.3195  0.0327  0.3056
 5257TIP3    H137262   3.695   1.021  16.359  0.9783 -1.1028  2.5942
 5257TIP3    H237263   3.570   0.945  16.398 -0.8289  0.4473  0.1023
 5258TIP3   OH237264   2.817   1.266   1.836  0.6580  0.1904 -0.0114
 5258TIP3    H137265   2.897   1.312   1.860  0.8448 -0.3485  0.4357
 5258TIP3    H237266   2.823   1.255   1.741  1.9306 -1.2864  0.1927
 5259TIP3   OH237267   2.485   3.163  15.317  0.5910  0.0432  0.0189
 5259TIP3    H137268   2.476   3.253  15.347 -0.5982 -0.3751  1.0047
 5259TIP3    H237269   2.508   3.171  15.225  0.4493  1.3605  0.0760
 5260TIP3   OH237270   5.980   1.302  11.177 -0.2752  0.3597 -0.6427
 5260TIP3    H137271   5.959   1.282  11.086  1.0702  2.5157 -1.5077
 5260TIP3    H237272   5.900   1.344  11.211 -0.0703  1.5641 -1.5530
 5261TIP3   OH237273   2.545   1.991  12.076  0.1821  0.0294 -0.1126
 5261TIP3    H137274   2.537   1.913  12.021  1.3233 -1.0199  1.1140
 5261TIP3    H237275   2.576   2.059  12.016  0.9579 -0.9522 -0.8760
 5262TIP3   OH237276   0.574   1.987  16.364 -0.5358 -0.2214  0.0106
 5262TIP3    H137277   0.494   1.936  16.352  0.0558 -0.8771 -1.3351
 5262TIP3    H237278   0.553   2.074  16.331 -0.9637 -0.1264  0.5219
 5263TIP3   OH237279   6.080   4.307   1.501 -0.8564  0.2487  0.2664
 5263TIP3    H137280   6.018   4.274   1.436 -0.5782  1.7772 -0.8586
 5263TIP3    H237281   6.092   4.235   1.562 -0.3731 -1.6835 -1.9467
 5264TIP3   OH237282   3.943   6.552  16.091  0.1247  0.6478 -0.0533
 5264TIP3    H137283   3.922   6.510  16.008  1.2672  0.2457 -0.1550
 5264TIP3    H237284   3.871   6.527  16.149 -0.5469  0.7176 -0.8398
 5265TIP3   OH237285   0.205   1.421  11.632  0.0327  0.2397  0.2962
 5265TIP3    H137286   0.175   1.512  11.637  0.9152  0.6089 -0.7394
 5265TIP3    H237287   0.287   1.420  11.680  0.3155  0.1282 -0.1803
 5266TIP3   OH237288   0.671   1.013   1.432  0.1732 -0.5329  0.3778
 5266TIP3    H137289   0.656   0.970   1.516  0.0061  0.1131  0.6862
 5266TIP3    H237290   0.598   1.074   1.423 -0.1080 -0.9894 -0.5026
 5267TIP3   OH237291   1.590   4.756  11.882 -0.0836 -0.3184 -0.0688
 5267TIP3    H137292   1.639   4.708  11.816  0.4477  1.0614 -0.6883
 5267TIP3    H237293   1.522   4.803  11.833  0.0409  0.3751  0.4129
 5268TIP3   OH237294   3.054   0.551  16.000 -0.0470 -0.5465  0.0283
 5268TIP3    H137295   3.133   0.530  16.050  0.1093 -4.1694 -1.3940
 5268TIP3    H237296   2.998   0.474  16.011 -1.5385  0.0890 -2.3641
 5269TIP3   OH237297   5.967   2.528  12.322  0.2406  0.0075 -0.3379
 5269TIP3    H137298   6.016   2.603  12.354 -2.1970  0.9981  1.4078
 5269TIP3    H237299   5.978   2.530  12.227 -0.0502  2.8492 -0.3905
 5270TIP3   OH237300   3.418   6.780  14.200 -0.3948  0.0286 -0.0370
 5270TIP3    H137301   3.401   6.686  14.201 -1.2145  0.1663 -0.2457
 5270TIP3    H237302   3.354   6.816  14.139 -0.5792  0.8089  0.5941
 5271TIP3   OH237303   6.394   1.242   0.663  0.2359  0.3246  0.6337
 5271TIP3    H137304   6.439   1.165   0.630 -1.1672 -1.1755  2.0514
 5271TIP3    H237305   6.374   1.294   0.585  1.6016 -0.4966 -0.2952
 5272TIP3   OH237306   2.977   3.148  13.657 -0.0854  0.5134 -0.1685
 5272TIP3    H137307   2.941   3.204  13.726 -2.3824 -1.7110  0.5893
 5272TIP3    H237308   3.067   3.130  13.685 -0.1624  1.6936  0.9086
 5273TIP3   OH237309   2.602   2.107   4.446 -0.1764  0.3584  0.6386
 5273TIP3    H137310   2.674   2.047   4.465 -0.3753  0.7726  3.0210
 5273TIP3    H237311   2.638   2.194   4.463 -1.3030  0.5467  2.3526
 5274TIP3   OH237312   4.404   3.641  16.902 -0.0267 -0.0574  0.2810
 5274TIP3    H137313   4.487   3.628  16.857 -0.8706 -0.7465 -1.1848
 5274TIP3    H237314   4.369   3.723  16.866 -0.7023 -0.6032 -0.3423
 5275TIP3   OH237315   0.319   6.646  14.867 -0.3934  0.4860 -0.5112
 5275TIP3    H137316   0.234   6.640  14.910  0.8912 -0.9575  2.0684
 5275TIP3    H237317   0.360   6.724  14.904  0.5589 -0.5371  0.7053
 5276TIP3   OH237318   5.266   4.119  11.659 -0.1609  0.3316 -0.1921
 5276TIP3    H137319   5.211   4.094  11.733 -0.6475  1.0713 -0.2984
 5276TIP3    H237320   5.327   4.183  11.695  0.5881 -0.4191 -0.0943
 5277TIP3   OH237321   5.808   6.441   0.854  0.0584 -0.6355  0.1688
 5277TIP3    H137322   5.842   6.478   0.772  0.4140 -0.0384  0.5770
 5277TIP3    H237323   5.860   6.362   0.867  2.5550  1.1057  1.6409
 5278TIP3   OH237324   6.648   0.169  11.132 -0.4956  0.1742  0.1237
 5278TIP3    H137325   6.609   0.137  11.214  0.6513  0.0451  0.6463
 5278TIP3    H237326   6.675   0.259  11.151 -1.8352  0.7725 -0.6943
 5279TIP3   OH237327   2.507   6.706   2.971 -0.6905  0.0325 -0.1470
 5279TIP3    H137328   2.485   6.628   2.920 -1.0273  0.6455 -0.9536
 5279TIP3    H237329   2.598   6.725   2.948 -0.1792 -0.8718  1.0513
 5280TIP3   OH237330   6.103   4.896   6.201  0.1928  0.2725  0.1439
 5280TIP3    H137331   6.022   4.853   6.230  1.5823 -3.1783 -0.6493
 5280TIP3    H237332   6.102   4.888   6.106  0.3043  2.6222 -0.1170
 5281TIP3   OH237333   6.128   2.183  16.000 -0.4493  0.1762 -0.3588
 5281TIP3    H137334   6.118   2.113  16.064 -0.0151 -0.9441 -1.4648
 5281TIP3    H237335   6.177   2.251  16.045  0.2467 -0.7796  0.3607
 5282TIP3   OH237336   1.110   5.897  11.902 -0.2426  0.5675  0.0547
 5282TIP3    H137337   1.025   5.854  11.897  0.7650 -1.6436  0.7564
 5282TIP3    H237338   1.108   5.944  11.985 -1.1678  1.5388 -0.4828
 5283TIP3   OH237339   5.598   3.615   5.840  0.6367  0.3332 -0.5336
 5283TIP3    H137340   5.594   3.527   5.803 -1.6094  0.0442  0.2654
 5283TIP3    H237341   5.519   3.659   5.809  0.9783  1.5862  0.2626
 5284TIP3   OH237342   1.573   5.235   5.291 -0.3922 -0.0114  0.0941
 5284TIP3    H137343   1.483   5.226   5.260  0.3096 -0.4772 -1.9900
 5284TIP3    H237344   1.625   5.244   5.211  1.7344 -2.6201  1.0211
 5285TIP3   OH237345   5.656   0.856  14.136 -0.8563 -0.2957  0.0034
 5285TIP3    H137346   5.655   0.796  14.062 -2.7817 -0.8511  0.4230
 5285TIP3    H237347   5.675   0.942  14.096 -1.4580 -0.6440 -1.0788
 5286TIP3   OH237348   1.449   2.350  14.974 -1.1690  0.5639  0.3906
 5286TIP3    H137349   1.509   2.285  15.010 -1.2267  1.0598  1.4127
 5286TIP3    H237350   1.446   2.330  14.880 -0.6959 -0.5018  0.5829
 5287TIP3   OH237351   1.696   6.163  14.993  0.1535 -0.2900  0.2808
 5287TIP3    H137352   1.704   6.082  14.942 -1.9227  0.0671 -0.6988
 5287TIP3    H237353   1.784   6.176  15.030  0.6756 -2.7142  0.0974
 5288TIP3   OH237354   3.231   5.832   4.308 -0.1484 -0.2230 -0.1708
 5288TIP3    H137355   3.321   5.817   4.335  0.2655 -0.4392 -1.5715
 5288TIP3    H237356   3.180   5.766   4.354  0.4949 -0.4957  0.1556
 5289TIP3   OH237357   2.680   6.503  14.381 -0.0850 -0.2178  0.1460
 5289TIP3    H137358   2.731   6.458  14.313 -0.9746 -1.5328  0.3113
 5289TIP3    H237359   2.668   6.591  14.346 -0.9647 -0.9933 -1.6808
 5290TIP3   OH237360   5.772   0.990  15.465  0.3413  0.4306 -0.4662
 5290TIP3    H137361   5.734   0.905  15.444  0.0249 -0.0702  1.8781
 5290TIP3    H237362   5.745   1.047  15.392 -1.4897 -0.8909 -0.8922
 5291TIP3   OH237363   2.666   4.695  11.601 -0.5018  0.2813 -0.1829
 5291TIP3    H137364   2.708   4.666  11.682 -0.7591  1.1540  0.2835
 5291TIP3    H237365   2.657   4.790  11.612 -1.3131  0.2940 -0.8761
 5292TIP3   OH237366   0.004   3.676   1.762  0.5425 -0.9764 -0.0917
 5292TIP3    H137367   0.057   3.651   1.838  2.1624 -2.1224 -1.5361
 5292TIP3    H237368   0.061   3.732   1.709  0.1315 -1.7266 -1.3731
 5293TIP3   OH237369   2.922   6.527   1.147  0.4463  0.6849  0.2938
 5293TIP3    H137370   3.004   6.510   1.101  0.7274  2.0422  0.2524
 5293TIP3    H237371   2.950   6.564   1.231 -0.1165  1.8674 -0.0173
 5294TIP3   OH237372   2.110   4.563   1.866  0.2360 -0.3689 -0.0050
 5294TIP3    H137373   2.155   4.616   1.800 -0.7527 -0.0957 -0.4918
 5294TIP3    H237374   2.041   4.620   1.900  0.8750 -0.4424  1.4387
 5295TIP3   OH237375   5.539   4.468  12.685 -0.2431 -0.2598  0.0995
 5295TIP3    H137376   5.485   4.390  12.699  0.6876 -0.7091  1.3590
 5295TIP3    H237377   5.622   4.435  12.651 -0.2354  0.2961 -0.4479
 5296TIP3   OH237378   2.246   1.212  11.573  0.4570 -0.7018  0.2891
 5296TIP3    H137379   2.227   1.122  11.545 -0.1046 -0.8400  1.0930
 5296TIP3    H237380   2.270   1.257  11.492 -2.0612 -0.8318 -0.6014
 5297TIP3   OH237381   3.552   2.318  16.262  0.6060 -0.3345 -0.1159
 5297TIP3    H137382   3.498   2.397  16.263  1.8626  0.6157  2.5148
 5297TIP3    H237383   3.491   2.247  16.285 -0.0359  0.2971  0.1557
 5298TIP3   OH237384   1.645   2.873  11.136 -0.1059 -0.9220  0.1234
 5298TIP3    H137385   1.642   2.891  11.042  0.7522  0.2836  0.3174
 5298TIP3    H237386   1.565   2.822  11.152  0.1036 -1.8054 -1.3690
 5299TIP3   OH237387   2.959   6.081   5.201  0.0474 -0.0711 -1.0366
 5299TIP3    H137388   3.003   6.021   5.141  0.6009 -0.7044 -0.0251
 5299TIP3    H237389   2.992   6.057   5.288 -0.6705  0.8755 -0.4802
 5300TIP3   OH237390   1.324   3.039   3.677 -0.8126  0.0751 -0.7116
 5300TIP3    H137391   1.303   3.131   3.694  0.5395  0.2151  0.4122
 5300TIP3    H237392   1.398   3.042   3.617  0.5368 -0.1871  0.8721
 5301TIP3   OH237393   1.796   5.374   5.394 -0.1689 -0.0754  0.6779
 5301TIP3    H137394   1.786   5.458   5.349  0.6149 -0.3422 -0.0215
 5301TIP3    H237395   1.723   5.321   5.363  0.8887 -0.5852 -1.0860
 5302TIP3   OH237396   2.263   2.463  12.833  0.6342 -0.2405  0.0642
 5302TIP3    H137397   2.184   2.433  12.787  1.4658 -2.5458 -0.0173
 5302TIP3    H237398   2.254   2.428  12.922  0.0431  2.3728  1.1081
 5303TIP3   OH237399   6.393   0.822  12.735  0.2635  0.4234  0.1078
 5303TIP3    H137400   6.353   0.769  12.804  2.1429 -2.5948 -0.9313
 5303TIP3    H237401   6.482   0.840  12.767  1.2744 -1.2892 -1.4976
 5304TIP3   OH237402   3.650   2.216   2.910  0.1004  0.1509  0.1095
 5304TIP3    H137403   3.621   2.264   2.832 -0.0939  0.4113  0.3364
 5304TIP3    H237404   3.610   2.265   2.983 -0.5075 -0.6393  0.3177
 5305TIP3   OH237405   4.086   4.920   4.777 -0.1338 -0.7883 -0.0935
 5305TIP3    H137406   4.022   4.951   4.713  0.6468 -0.4628 -0.7351
 5305TIP3    H237407   4.168   4.913   4.728  0.2454 -1.5605  0.6219
 5306TIP3   OH237408   3.726   5.547  16.346  0.3212  0.0920 -0.2106
 5306TIP3    H137409   3.821   5.540  16.336  0.4159  0.0370  0.6359
 5306TIP3    H237410   3.694   5.571  16.259  1.0178 -0.7950 -0.7385
 5307TIP3   OH237411   1.273   3.050  12.286  0.3823  0.0528  0.0075
 5307TIP3    H137412   1.229   2.993  12.224 -1.1599  1.1561  0.0336
 5307TIP3    H237413   1.337   2.994  12.330 -0.5908 -1.4569 -0.4552
 5308TIP3   OH237414   0.878   1.455  13.858 -0.3362  0.0921 -0.4171
 5308TIP3    H137415   0.796   1.431  13.900  0.8590 -1.5341  1.1683
 5308TIP3    H237416   0.868   1.547  13.835 -1.5704  0.7368  2.3335
 5309TIP3   OH237417   5.176   1.160   0.023 -0.0681 -0.2040 -0.2077
 5309TIP3    H137418   5.215   1.205   0.099  0.9780 -1.1079 -0.1901
 5309TIP3    H237419   5.167   1.069   0.051 -0.0956 -0.4543 -1.0163
 5310TIP3   OH237420   4.718   0.883  11.772  0.2153  0.7015  0.9568
 5310TIP3    H137421   4.630   0.855  11.748  0.4178  1.9316 -1.5586
 5310TIP3    H237422   4.776   0.816  11.737  0.4947  2.3702 -2.1317
 5311TIP3   OH237423   2.118   6.248   2.408 -0.1018 -0.7070  0.2347
 5311TIP3    H137424   2.070   6.197   2.343 -0.6850 -0.2972  0.3349
 5311TIP3    H237425   2.147   6.184   2.473 -1.5799 -0.8198  0.8257
 5312TIP3   OH237426   3.437   0.563  14.384  0.2636 -0.2660  0.3720
 5312TIP3    H137427   3.462   0.550  14.476 -0.4319 -1.3244  0.4330
 5312TIP3    H237428   3.468   0.484  14.340  1.3328  0.5901 -0.4962
 5313TIP3   OH237429   3.895   2.069  16.595 -0.2197 -0.8659 -0.7015
 5313TIP3    H137430   3.914   2.129  16.523  0.3889 -1.7563 -1.2987
 5313TIP3    H237431   3.981   2.042  16.627 -0.4765 -1.9496 -0.8959
 5314TIP3   OH237432   4.577   2.534  16.691  0.0494  0.3499 -0.0750
 5314TIP3    H137433   4.632   2.473  16.740  0.1544  0.3760 -0.1603
 5314TIP3    H237434   4.505   2.481  16.658  1.8294 -0.4946 -2.9779
 5315TIP3   OH237435   2.601   3.149   4.256 -0.2838 -0.2233  0.1331
 5315TIP3    H137436   2.568   3.064   4.226  1.2534 -1.0056  0.5055
 5315TIP3    H237437   2.642   3.187   4.179  1.3843 -1.0755  0.5285
 5316TIP3   OH237438   6.682   2.754   2.881  0.3615  0.2810 -0.0691
 5316TIP3    H137439   6.628   2.833   2.883  0.5798  0.4748 -1.2118
 5316TIP3    H237440   6.636   2.695   2.822  0.2577 -0.4132  0.6929
 5317TIP3   OH237441   2.292   5.992  17.275  0.3781  0.1767 -0.4930
 5317TIP3    H137442   2.303   6.032  17.362 -1.6680 -2.4794  1.1625
 5317TIP3    H237443   2.217   6.038  17.237  0.3060  0.3286 -0.1751
 5318TIP3   OH237444   6.635   2.266  14.791 -0.1458  0.9908 -0.3267
 5318TIP3    H137445   6.699   2.333  14.816 -0.3179  1.0712 -0.0917
 5318TIP3    H237446   6.565   2.315  14.748 -1.6055  1.3785  2.2594
 5319TIP3   OH237447   0.008   3.611  17.173 -0.5872 -0.0290 -0.1340
 5319TIP3    H137448  -0.031   3.677  17.231  1.4308  0.5991  0.6170
 5319TIP3    H237449  -0.024   3.527  17.207 -0.9552  0.4369  0.6976
 5320TIP3   OH237450   0.445   4.102   1.191 -0.7389  0.3859 -0.2292
 5320TIP3    H137451   0.428   4.115   1.285 -3.1808  0.9082 -0.6787
 5320TIP3    H237452   0.450   4.007   1.181 -0.4375  0.3239  0.4244
 5321TIP3   OH237453   6.104   0.345   4.529  0.4948  0.5064 -0.2659
 5321TIP3    H137454   6.134   0.436   4.520  0.3635  0.7567  1.4635
 5321TIP3    H237455   6.158   0.309   4.599  1.3051 -1.1386 -1.6627
 5322TIP3   OH237456   1.033   2.190   3.964 -0.3365 -0.0805  0.2328
 5322TIP3    H137457   1.028   2.202   4.059 -0.4096  0.1037  0.2055
 5322TIP3    H237458   1.044   2.278   3.929 -0.1861 -0.1613  0.0769
 5323TIP3   OH237459   5.659   5.032   3.361  0.1374 -0.2688 -0.4647
 5323TIP3    H137460   5.708   5.057   3.283 -1.4762 -0.5857 -1.6318
 5323TIP3    H237461   5.575   5.079   3.353  0.7953  1.6910  2.3471
 5324TIP3   OH237462   6.229   6.011   0.505  0.1268  0.2089  0.4227
 5324TIP3    H137463   6.135   6.000   0.492  0.1275 -0.9364  1.2290
 5324TIP3    H237464   6.265   5.923   0.497  1.0859  0.5842  0.4874
 5325TIP3   OH237465   2.547   2.871  14.459  0.1937 -0.0278 -0.1580
 5325TIP3    H137466   2.517   2.857  14.549 -0.3327 -0.9611 -0.4654
 5325TIP3    H237467   2.589   2.957  14.461  2.2006 -0.9333  1.5071
 5326TIP3   OH237468   0.243   5.106   0.741  0.1758 -0.9817 -0.5793
 5326TIP3    H137469   0.256   5.190   0.697  2.2013 -0.6054  0.6073
 5326TIP3    H237470   0.287   5.042   0.686 -0.8949 -1.2136 -1.1982
 5327TIP3   OH237471   1.563   0.823   0.759  1.0696  0.3128  0.2879
 5327TIP3    H137472   1.526   0.768   0.828  0.7897  0.5096  0.2944
 5327TIP3    H237473   1.521   0.792   0.679  1.9428 -0.4200  0.0905
 5328TIP3   OH237474   3.051   4.619   0.893 -0.1162 -0.6089  0.2230
 5328TIP3    H137475   3.138   4.645   0.920 -0.7064  1.0426  0.6398
 5328TIP3    H237476   3.009   4.700   0.865 -1.5641 -1.3463  0.1454
 5329TIP3   OH237477   3.835   1.440   3.609 -0.0859 -0.5527 -0.5787
 5329TIP3    H137478   3.817   1.518   3.661 -1.4264 -1.0665 -0.2362
 5329TIP3    H237479   3.789   1.455   3.526  0.1526 -0.7226 -0.7444
 5330TIP3   OH237480   5.126   1.637  11.991 -0.4455  0.6378 -0.1365
 5330TIP3    H137481   5.107   1.719  11.946 -0.3955  0.9548  0.4061
 5330TIP3    H237482   5.103   1.654  12.083  1.8085  0.8521  0.4645
 5331TIP3   OH237483   1.480   2.058   1.470  0.4226 -0.5614 -0.0294
 5331TIP3    H137484   1.450   2.003   1.541 -0.5238  0.0099  0.0229
 5331TIP3    H237485   1.426   2.033   1.395 -0.1888  0.4612  0.0601
 5332TIP3   OH237486   4.319   1.958  15.500  1.0539 -0.1494 -0.1387
 5332TIP3    H137487   4.280   2.006  15.574 -0.2302  0.3493 -1.0874
 5332TIP3    H237488   4.411   1.950  15.522  1.1496  1.9928  0.4910
 5333TIP3   OH237489   4.587   5.538   3.794  0.1757 -0.3487 -0.3581
 5333TIP3    H137490   4.510   5.572   3.841  0.0268 -2.0174  0.6923
 5333TIP3    H237491   4.551   5.468   3.738  0.6650  0.2034 -1.3797
 5334TIP3   OH237492   2.797   0.707  17.220 -0.0026  0.4507 -0.3390
 5334TIP3    H137493   2.816   0.798  17.243  1.2979 -0.1247  0.9724
 5334TIP3    H237494   2.740   0.714  17.143  0.6221  2.3605 -0.6897
 5335TIP3   OH237495   2.139   3.620   1.080  0.0729 -0.1608  0.1923
 5335TIP3    H137496   2.075   3.629   1.151 -1.0392  0.8548 -0.9175
 5335TIP3    H237497   2.179   3.534   1.096 -0.5222 -0.1924  1.7356
 5336TIP3   OH237498   0.005   3.750  13.903 -0.1159  0.3747  0.4060
 5336TIP3    H137499   0.092   3.788  13.895  0.0754 -0.3411 -1.2568
 5336TIP3    H237500  -0.038   3.803  13.971  0.9517  1.9856 -0.1078
 5337TIP3   OH237501   2.253   6.620   0.090  0.5324  0.3018  0.2177
 5337TIP3    H137502   2.282   6.601   0.180 -1.5336  0.7696  1.0492
 5337TIP3    H237503   2.222   6.711   0.094  1.0006  0.5302 -1.1414
 5338TIP3   OH237504   4.241   3.232   1.001 -0.0917  0.2608  0.2475
 5338TIP3    H137505   4.171   3.174   0.971 -0.7195  0.0928  1.9422
 5338TIP3    H237506   4.217   3.256   1.090  1.6424  0.7977  0.6240
 5339TIP3   OH237507   1.719   0.714  16.016 -0.1355 -0.0338 -0.4857
 5339TIP3    H137508   1.764   0.629  16.020 -0.7129 -0.3123  0.7620
 5339TIP3    H237509   1.682   0.725  16.104 -0.1113  1.4971 -0.6411
 5340TIP3   OH237510   1.908   5.678  10.710 -0.5120 -0.2931 -0.0328
 5340TIP3    H137511   1.822   5.705  10.742 -0.2917 -1.4888  1.7369
 5340TIP3    H237512   1.895   5.588  10.680 -0.1692 -0.0018 -1.0854
 5341TIP3   OH237513   6.329   4.925  15.625  0.0270  0.2787 -0.2524
 5341TIP3    H137514   6.389   4.993  15.655 -0.3245 -0.2308  1.6969
 5341TIP3    H237515   6.385   4.848  15.613 -0.3137 -0.5458  2.7471
 5342TIP3   OH237516   4.888   5.889  13.578  0.2609  0.0713  0.3672
 5342TIP3    H137517   4.925   5.949  13.643  1.1954 -0.8667  0.7289
 5342TIP3    H237518   4.850   5.819  13.631  0.6601 -0.4899 -0.0845
 5343TIP3   OH237519   0.710   3.931  14.786 -0.0962  0.0211  0.2561
 5343TIP3    H137520   0.717   4.017  14.827  1.1003 -0.5100  1.2359
 5343TIP3    H237521   0.660   3.879  14.849  1.5725 -0.7429  1.0094
 5344TIP3   OH237522   2.603   4.525   2.099 -0.4688  0.8113  0.1653
 5344TIP3    H137523   2.643   4.605   2.133 -0.5209  0.6687  0.5777
 5344TIP3    H237524   2.677   4.473   2.067 -0.3795  0.8025  0.3825
 5345TIP3   OH237525   5.697   2.363   4.395 -0.5094 -0.4065  0.1208
 5345TIP3    H137526   5.625   2.354   4.457 -1.1584  2.7814 -0.0512
 5345TIP3    H237527   5.773   2.382   4.450  0.1795 -3.0083  0.2357
 5346TIP3   OH237528   6.764   4.648  15.846 -0.1019 -0.0137  0.3587
 5346TIP3    H137529   6.805   4.561  15.849  1.1237  0.5602  0.8014
 5346TIP3    H237530   6.830   4.704  15.807 -0.3083  1.0227  1.4411
 5347TIP3   OH237531   0.656   3.881  11.126 -0.3143 -0.1239 -0.2917
 5347TIP3    H137532   0.692   3.953  11.074  0.2814 -1.2898 -1.5535
 5347TIP3    H237533   0.622   3.924  11.205  2.4557  1.2296  0.3040
 5348TIP3   OH237534   5.727   0.448   4.115 -0.4130  0.0909  0.0934
 5348TIP3    H137535   5.641   0.470   4.079  0.4879  2.2262 -0.9833
 5348TIP3    H237536   5.777   0.419   4.038  0.4264  0.9653  0.2934
 5349TIP3   OH237537   3.356   4.042   0.246 -0.9816 -0.0533  0.0764
 5349TIP3    H137538   3.294   4.108   0.277 -2.7461 -1.5813 -0.0272
 5349TIP3    H237539   3.437   4.091   0.231 -1.9812  1.9304  0.7332
 5350TIP3   OH237540   2.013   5.320   6.117  0.0311 -0.0745 -0.7028
 5350TIP3    H137541   2.066   5.382   6.166 -0.8179  2.9898 -3.3179
 5350TIP3    H237542   1.923   5.337   6.144 -0.1306 -0.9885 -0.6271
 5351TIP3   OH237543   2.981   1.664   4.207 -0.0787 -0.3150 -0.2352
 5351TIP3    H137544   2.899   1.616   4.218  0.7609 -1.6765  0.2633
 5351TIP3    H237545   2.954   1.749   4.172 -1.6141 -1.1064 -1.0658
 5352TIP3   OH237546   5.327   0.421  12.785 -0.5761  0.7463 -0.1912
 5352TIP3    H137547   5.234   0.429  12.763 -0.9850 -2.0674  0.0474
 5352TIP3    H237548   5.328   0.412  12.881 -0.1030  0.5178 -0.2126
 5353TIP3   OH237549   3.698   1.758  13.753 -0.3627 -0.2316 -0.3519
 5353TIP3    H137550   3.698   1.756  13.657 -2.1106  1.4967 -0.4450
 5353TIP3    H237551   3.772   1.703  13.778  1.1733  0.6115 -2.7113
 5354TIP3   OH237552   3.501   5.041   0.040 -0.1898  0.0825 -0.2298
 5354TIP3    H137553   3.412   5.074   0.055 -0.2082  0.2505 -0.6651
 5354TIP3    H237554   3.537   5.027   0.127 -0.7028 -0.1451 -0.0516
 5355TIP3   OH237555   5.821   5.665  14.326 -0.4000 -0.0853  0.1095
 5355TIP3    H137556   5.753   5.623  14.378 -0.5476 -2.6183 -1.9175
 5355TIP3    H237557   5.902   5.622  14.352  0.2873  1.8565  1.4166
 5356TIP3   OH237558   1.219   3.199  14.926 -0.7143  0.1035  0.1959
 5356TIP3    H137559   1.160   3.274  14.916 -1.4288 -0.5289 -0.4998
 5356TIP3    H237560   1.183   3.151  15.001  0.0507  0.7147  0.9739
 5357TIP3   OH237561   6.249   2.700  11.704 -0.1760 -0.4526  0.2029
 5357TIP3    H137562   6.219   2.635  11.641  0.2558  0.5665 -1.1185
 5357TIP3    H237563   6.339   2.719  11.677  0.1268 -0.2081  1.3316
 5358TIP3   OH237564   3.046   3.922  15.889  0.4363  0.1515 -0.3949
 5358TIP3    H137565   3.033   3.864  15.814 -1.0474 -0.6330  0.4291
 5358TIP3    H237566   3.118   3.882  15.938 -1.1877 -1.6272  0.6821
 5359TIP3   OH237567   6.436   3.211   0.957  0.4903 -0.0812  0.6331
 5359TIP3    H137568   6.439   3.192   1.051  0.3963 -0.8003  0.4955
 5359TIP3    H237569   6.525   3.198   0.927  0.3215 -0.8418  0.4416
 5360TIP3   OH237570   2.033   6.462  16.980 -0.1334  0.0922 -0.1622
 5360TIP3    H137571   1.944   6.457  17.013  0.8662  0.4812  2.8795
 5360TIP3    H237572   2.081   6.395  17.029  1.5870  1.0264 -0.4938
 5361TIP3   OH237573   2.339   5.026  14.132  0.1601  0.6401  0.5085
 5361TIP3    H137574   2.244   5.027  14.115  0.5974  2.2191 -2.9644
 5361TIP3    H237575   2.374   4.964  14.068  1.5402  0.6668  1.2053
 5362TIP3   OH237576   1.332   4.295   1.012 -0.1833 -0.4999 -0.2977
 5362TIP3    H137577   1.404   4.233   1.012  1.7523  1.6180  0.6353
 5362TIP3    H237578   1.321   4.319   1.104 -0.7644  0.6649 -0.6548
 5363TIP3   OH237579   3.415   0.943   1.801 -0.0771 -0.0199  0.1811
 5363TIP3    H137580   3.421   0.866   1.859 -0.0893 -0.7319 -0.7414
 5363TIP3    H237581   3.341   0.924   1.744 -0.7686  1.1872  0.6346
 5364TIP3   OH237582   3.733   1.766   0.400 -0.1888 -0.5584  0.2852
 5364TIP3    H137583   3.768   1.829   0.463  1.6910 -2.6224  1.4720
 5364TIP3    H237584   3.704   1.819   0.326  1.3368  1.6845  1.1928
 5365TIP3   OH237585   4.103   1.216  12.035 -0.4545 -0.2899 -0.2597
 5365TIP3    H137586   4.119   1.255  11.950 -1.8974 -0.6515 -0.7115
 5365TIP3    H237587   4.092   1.290  12.095 -0.2187 -0.0345 -0.5323
 5366TIP3   OH237588   6.468   0.344  13.965 -0.3292 -0.5342 -0.5093
 5366TIP3    H137589   6.423   0.319  13.884 -2.8457 -0.8152  0.8675
 5366TIP3    H237590   6.505   0.263  13.999 -0.3431 -0.6387 -0.7443
 5367TIP3   OH237591   2.765   4.925   4.986  0.0814  0.2633  0.3891
 5367TIP3    H137592   2.807   4.961   4.908 -0.3190 -0.5284 -0.2060
 5367TIP3    H237593   2.739   4.836   4.960 -3.1400  1.1148  0.2835
 5368TIP3   OH237594   5.204   0.136   3.097  0.0027 -0.0015  0.4384
 5368TIP3    H137595   5.161   0.085   3.167  1.1056  0.3726  1.4248
 5368TIP3    H237596   5.197   0.227   3.126  3.2320 -0.0363  1.7646
 5369TIP3   OH237597   0.770   5.436   5.487 -0.0318 -0.2834 -0.1471
 5369TIP3    H137598   0.742   5.359   5.538  1.8928 -0.7654  0.2408
 5369TIP3    H237599   0.825   5.400   5.418 -0.9378  0.5754 -1.3622
 5370TIP3   OH237600   2.723   5.401  15.337  0.1832 -0.2888 -0.3211
 5370TIP3    H137601   2.812   5.434  15.351 -0.2222 -0.3052  3.1112
 5370TIP3    H237602   2.736   5.322  15.284  1.8947  1.1160 -2.1483
 5371TIP3   OH237603   4.708   6.416  17.130  0.3464  0.1447 -0.1592
 5371TIP3    H137604   4.682   6.324  17.119 -0.3707  0.2946  0.2278
 5371TIP3    H237605   4.796   6.420  17.092  1.5286 -1.3302  2.1756
 5372TIP3   OH237606   6.495   2.856   2.040  0.7135 -0.2542 -0.1182
 5372TIP3    H137607   6.498   2.818   2.128  1.0631  1.0175  0.4434
 5372TIP3    H237608   6.405   2.889   2.031  1.1550  1.1867  0.4792
 5373TIP3   OH237609   0.849   0.474   3.552 -0.1868  0.1410  0.0582
 5373TIP3    H137610   0.858   0.526   3.632  0.0453  1.5934 -0.8673
 5373TIP3    H237611   0.866   0.536   3.481  0.8665 -1.4024 -1.0955
 5374TIP3   OH237612   1.977   0.619   2.883 -0.0576  0.0931  0.0133
 5374TIP3    H137613   1.943   0.543   2.930 -0.5162 -0.3412 -0.9793
 5374TIP3    H237614   1.901   0.652   2.833 -0.3792  2.3442  1.8193
 5375TIP3   OH237615   0.354   0.315  12.479 -0.4726  0.2229 -0.5048
 5375TIP3    H137616   0.361   0.365  12.397  2.9612 -2.0137 -1.8379
 5375TIP3    H237617   0.317   0.231  12.452  0.2075 -0.3470  0.2897
 5376TIP3   OH237618   0.600   5.954  11.154 -0.3321 -0.4554 -0.1715
 5376TIP3    H137619   0.666   6.021  11.136  1.5497 -2.2295 -0.2227
 5376TIP3    H237620   0.591   5.955  11.249 -0.7267  0.2340 -0.2122
 5377TIP3   OH237621   0.276   4.824   0.627  0.0084  0.3883  0.0641
 5377TIP3    H137622   0.321   4.786   0.703  0.3572 -0.4734 -0.5629
 5377TIP3    H237623   0.208   4.761   0.605 -1.3523  1.5310  0.8058
 5378TIP3   OH237624   0.017   3.818   6.457  0.2467 -0.6977  0.1058
 5378TIP3    H137625   0.005   3.885   6.525  1.1513  0.3710 -0.7473
 5378TIP3    H237626  -0.044   3.748   6.482 -1.1727  0.6822  0.7173
 5379TIP3   OH237627   2.397   3.416  14.552 -0.0035  0.4039 -0.0123
 5379TIP3    H137628   2.356   3.349  14.497  2.2776 -0.9444 -0.2463
 5379TIP3    H237629   2.416   3.488  14.493 -0.2625  0.2100 -0.3314
 5380TIP3   OH237630   5.086   2.513   4.499  0.1914 -0.1412 -0.5630
 5380TIP3    H137631   5.022   2.584   4.509  0.0622 -0.1497 -1.2945
 5380TIP3    H237632   5.129   2.507   4.585  0.9335  1.5239 -0.7772
 5381TIP3   OH237633   0.953   0.524   1.811  0.5677  0.2616  0.3020
 5381TIP3    H137634   0.971   0.618   1.813 -1.2344  0.6516 -0.5626
 5381TIP3    H237635   0.898   0.508   1.887  0.1746  0.0668 -0.0195
 5382TIP3   OH237636   4.847   2.485   2.833  0.4177  0.6522 -0.5321
 5382TIP3    H137637   4.939   2.507   2.824  0.6716 -0.4205 -0.6869
 5382TIP3    H237638   4.834   2.410   2.775  0.0302 -0.7685  1.2907
 5383TIP3   OH237639   2.215   1.623  12.911  0.0200 -0.0014  0.1143
 5383TIP3    H137640   2.295   1.662  12.947  0.1945  0.4221 -0.7124
 5383TIP3    H237641   2.195   1.676  12.834 -1.6182  0.5307  0.8540
 5384TIP3   OH237642   4.128   1.502  13.068 -0.5895 -0.1551 -0.1654
 5384TIP3    H137643   4.039   1.474  13.089 -1.1048 -0.6755 -2.6770
 5384TIP3    H237644   4.124   1.598  13.071 -1.0343 -0.1824  0.3977
 5385TIP3   OH237645   5.343   5.148  15.303 -0.5215 -0.2160  0.1944
 5385TIP3    H137646   5.332   5.211  15.231 -1.3673 -1.3258 -0.6678
 5385TIP3    H237647   5.259   5.150  15.350 -0.1204  0.1879  0.9176
 5386TIP3   OH237648   2.331   3.565  16.941 -0.1727  0.4544 -0.1940
 5386TIP3    H137649   2.420   3.541  16.968 -0.0645  2.3728  1.4151
 5386TIP3    H237650   2.326   3.539  16.849  1.5650 -0.9188  0.0320
 5387TIP3   OH237651   5.803   2.908   1.415 -0.4957 -0.1049 -0.1285
 5387TIP3    H137652   5.718   2.931   1.452 -0.4547  0.9346 -0.6316
 5387TIP3    H237653   5.843   2.992   1.393 -0.7464 -0.6498 -3.0271
 5388TIP3   OH237654   5.126   3.646  12.415 -0.4096  0.4790 -0.1582
 5388TIP3    H137655   5.188   3.703  12.461  0.2275 -0.2117 -0.1398
 5388TIP3    H237656   5.052   3.637  12.475 -0.2839  0.8624  0.0562
 5389TIP3   OH237657   2.992   3.848  11.065 -0.1131 -0.4036 -0.5365
 5389TIP3    H137658   2.993   3.888  10.978  0.3124 -1.6779 -1.1401
 5389TIP3    H237659   2.968   3.920  11.124  1.4591  0.9524 -1.4583
 5390TIP3   OH237660   5.305   4.187   1.645  0.0455  0.3794 -0.1488
 5390TIP3    H137661   5.346   4.104   1.621 -0.9978 -0.3703  0.5616
 5390TIP3    H237662   5.362   4.224   1.712 -0.0663 -0.3101  0.3273
 5391TIP3   OH237663   1.585   5.800   5.647  0.7432  0.1908 -0.2778
 5391TIP3    H137664   1.586   5.779   5.740  0.0606  1.1045 -0.0598
 5391TIP3    H237665   1.674   5.830   5.628  0.3976  1.8371  0.5229
 5392TIP3   OH237666   1.622   3.646  14.163 -0.0383  0.2419  0.2242
 5392TIP3    H137667   1.577   3.730  14.156  1.0248  0.7681 -0.4866
 5392TIP3    H237668   1.715   3.669  14.172  0.2624 -0.8529  0.0286
 5393TIP3   OH237669   0.656   1.694  14.786  0.2108  0.2779  0.6855
 5393TIP3    H137670   0.716   1.688  14.860  1.3963  0.1363 -0.2471
 5393TIP3    H237671   0.623   1.783  14.788  0.3468  0.3152  1.3002
 5394TIP3   OH237672   1.781   2.998   6.204  0.0507 -0.3380 -0.2039
 5394TIP3    H137673   1.854   3.059   6.216  1.8779 -2.8104  2.4097
 5394TIP3    H237674   1.733   3.002   6.287  1.5483 -3.9059  1.0166
 5395TIP3   OH237675   0.432   3.322  13.063 -0.0314 -0.0605 -0.0308
 5395TIP3    H137676   0.403   3.410  13.038  0.0597 -0.3032 -1.0491
 5395TIP3    H237677   0.492   3.297  12.992 -0.1034 -0.9657  0.2270
 5396TIP3   OH237678   3.058   1.417   6.266 -0.8158 -0.4697  0.2164
 5396TIP3    H137679   3.124   1.461   6.319 -0.5282  0.3537 -0.7827
 5396TIP3    H237680   3.057   1.327   6.298  0.6757 -0.4542  0.3500
 5397TIP3   OH237681   1.173   0.073   3.329  0.4329 -0.0610  0.2704
 5397TIP3    H137682   1.255   0.123   3.329  0.4887 -0.0936  2.2084
 5397TIP3    H237683   1.122   0.110   3.402 -0.3950 -1.4428  0.4247
 5398TIP3   OH237684   3.541   1.041   2.783  0.8259 -0.5375 -0.7675
 5398TIP3    H137685   3.587   0.960   2.763  0.8529 -0.7897  0.2792
 5398TIP3    H237686   3.576   1.104   2.720  0.3310 -1.4792 -2.0294
 5399TIP3   OH237687   5.813   1.069  13.637  0.2122  0.4487  0.0612
 5399TIP3    H137688   5.771   1.109  13.713  0.7609  1.1002  0.0398
 5399TIP3    H237689   5.882   1.132  13.613 -0.3077  0.5122 -1.3102
 5400TIP3   OH237690   0.308   0.394   5.806  0.2320  0.3065 -0.3384
 5400TIP3    H137691   0.228   0.414   5.854  0.6710 -2.6530  1.9147
 5400TIP3    H237692   0.295   0.304   5.774  1.8276  0.5438 -1.7841
 5401TIP3   OH237693   3.857   6.039   0.874  0.0229 -0.0515 -0.1562
 5401TIP3    H137694   3.837   5.969   0.935 -1.8435  0.0553 -0.5939
 5401TIP3    H237695   3.818   6.117   0.912 -1.7772 -0.1080 -1.7492
 5402TIP3   OH237696   1.261   4.056  10.510 -0.0568 -0.5612  0.1691
 5402TIP3    H137697   1.252   3.997  10.435  1.6465 -0.4877 -0.1254
 5402TIP3    H237698   1.173   4.062  10.546 -0.6576 -1.6420 -1.0390
 5403TIP3   OH237699   6.687   3.199   2.525  0.0488 -0.0055  0.1739
 5403TIP3    H137700   6.733   3.282   2.511 -2.3384  1.1621 -1.5058
 5403TIP3    H237701   6.629   3.217   2.599 -0.1763 -0.3262  0.0733
 5404TIP3   OH237702   3.421   6.222   4.207  0.0285 -0.1282  0.1057
 5404TIP3    H137703   3.410   6.276   4.128 -0.6473 -1.7557 -0.9639
 5404TIP3    H237704   3.465   6.280   4.269 -0.3774  1.5510 -1.0823
 5405TIP3   OH237705   4.008   2.887   1.318 -0.2949 -0.4958 -0.0909
 5405TIP3    H137706   4.089   2.937   1.328  0.6791 -1.7244 -1.3568
 5405TIP3    H237707   3.982   2.900   1.227 -1.7388  0.1347  0.3773
 5406TIP3   OH237708   4.604   5.298  17.286 -0.6141 -0.2013  0.0812
 5406TIP3    H137709   4.578   5.235  17.219 -2.6922  1.8522 -1.1967
 5406TIP3    H237710   4.543   5.282  17.358 -1.2266  0.3702 -0.2942
 5407TIP3   OH237711   2.592   1.409   2.764 -0.0430  0.1403  0.1359
 5407TIP3    H137712   2.576   1.494   2.806  1.3777  0.5808 -0.1603
 5407TIP3    H237713   2.597   1.429   2.671  0.7540 -0.1901  0.1052
 5408TIP3   OH237714   6.513   5.104   3.097  0.2799 -0.3058 -0.0535
 5408TIP3    H137715   6.599   5.068   3.120 -0.3488 -1.8552 -0.0191
 5408TIP3    H237716   6.454   5.065   3.161 -0.9868 -2.0381 -2.1349
 5409TIP3   OH237717   4.410   2.578   1.229  0.4159 -0.4661 -0.3089
 5409TIP3    H137718   4.332   2.585   1.174 -0.0860  0.1238  0.4559
 5409TIP3    H237719   4.483   2.573   1.167 -0.0686  1.0755 -1.0368
 5410TIP3   OH237720   5.298   3.861   2.222 -0.6967  0.3581  0.5419
 5410TIP3    H137721   5.259   3.780   2.254  1.0253 -1.4904 -1.6842
 5410TIP3    H237722   5.282   3.860   2.128  2.6077  0.5892 -0.1338
 5411TIP3   OH237723   3.493   3.106   5.444 -0.3295 -0.1651  0.2706
 5411TIP3    H137724   3.469   3.013   5.444 -2.7445  0.3830 -0.5202
 5411TIP3    H237725   3.579   3.109   5.402  0.2254 -2.1068  1.1451
 5412TIP3   OH237726   2.370   1.795   3.686 -0.0566  0.1375 -0.5769
 5412TIP3    H137727   2.337   1.780   3.775  2.3636  1.4099  0.6392
 5412TIP3    H237728   2.436   1.727   3.674 -0.3023  0.0360 -1.4074
 5413TIP3   OH237729   4.665   0.731  16.388 -0.5317  0.7222  0.0242
 5413TIP3    H137730   4.682   0.710  16.297  1.6597 -1.0752  0.7703
 5413TIP3    H237731   4.576   0.698  16.404  0.2660 -1.9752 -0.6608
 5414TIP3   OH237732   2.820   4.851  13.719 -0.6718  0.1294  0.0931
 5414TIP3    H137733   2.894   4.836  13.778  0.0587 -0.8436 -1.0389
 5414TIP3    H237734   2.769   4.770  13.721 -4.2242  2.0557  4.1015
 5415TIP3   OH237735   6.571   0.299   4.604  0.3133 -0.3333 -0.1853
 5415TIP3    H137736   6.531   0.386   4.603 -0.2646 -0.5490  1.1322
 5415TIP3    H237737   6.614   0.294   4.690  2.3548 -0.4893 -1.1583
 5416TIP3   OH237738   5.554   1.841   4.177  0.5650 -0.0536 -0.0086
 5416TIP3    H137739   5.564   1.930   4.211  1.4834  0.0229 -0.4635
 5416TIP3    H237740   5.617   1.835   4.106 -0.6336 -0.5353 -1.0786
 5417TIP3   OH237741   4.329   3.365  12.250  0.1097 -0.4951 -0.1368
 5417TIP3    H137742   4.405   3.408  12.210 -1.2180  1.3865 -0.7544
 5417TIP3    H237743   4.308   3.420  12.326 -1.2847 -0.3571 -0.6047
 5418TIP3   OH237744   5.081   1.141  10.909  0.0529  0.1617  0.4415
 5418TIP3    H137745   5.132   1.076  10.958 -0.2048  1.0479  1.9489
 5418TIP3    H237746   5.147   1.202  10.876  0.2768 -0.7141 -0.8067
 5419TIP3   OH237747   1.711   1.904   2.460 -0.2745 -0.3828  0.2846
 5419TIP3    H137748   1.634   1.849   2.442  0.0101 -0.6250 -0.2072
 5419TIP3    H237749   1.782   1.842   2.475  0.3599 -0.1723 -1.6182
 5420TIP3   OH237750   1.217   2.582   0.763  0.4306 -0.1890 -0.0435
 5420TIP3    H137751   1.188   2.654   0.819 -0.4049 -0.0972 -0.5719
 5420TIP3    H237752   1.308   2.602   0.744  0.2090  0.7529 -0.2031
 5421TIP3   OH237753   5.118   4.110   3.581  0.1702  0.1561 -0.0120
 5421TIP3    H137754   5.086   4.182   3.527  0.2246  0.1492 -0.0535
 5421TIP3    H237755   5.106   4.032   3.525 -0.2082  0.0872  0.1588
 5422TIP3   OH237756   3.688   0.803   2.692 -0.2962 -0.9068 -0.2894
 5422TIP3    H137757   3.773   0.787   2.649  0.6536 -1.9071  1.8040
 5422TIP3    H237758   3.644   0.718   2.690 -0.4694 -0.8304  0.2358
 5423TIP3   OH237759   1.723   0.879  14.087 -0.5190 -0.3298 -0.4576
 5423TIP3    H137760   1.704   0.790  14.116  0.6722 -0.5385 -0.2763
 5423TIP3    H237761   1.711   0.877  13.992 -0.3608 -0.7141 -0.4677
 5424TIP3   OH237762   5.606   6.640   0.863 -0.0474 -0.4193  0.0684
 5424TIP3    H137763   5.668   6.708   0.886  0.0547 -0.7887  0.9038
 5424TIP3    H237764   5.659   6.571   0.822 -0.3567  0.6567 -2.2723
 5425TIP3   OH237765   2.748   4.001  11.374  0.4335 -0.0857  0.3317
 5425TIP3    H137766   2.793   3.918  11.389  0.5677  0.0035  0.4245
 5425TIP3    H237767   2.790   4.062  11.434 -0.4302 -0.2175  1.0905
 5426TIP3   OH237768   3.161   4.587  15.823  0.0237 -0.4726 -0.9645
 5426TIP3    H137769   3.141   4.495  15.840 -0.4930 -0.3286 -0.7848
 5426TIP3    H237770   3.210   4.615  15.900 -0.3353 -0.4387 -0.7454
 5427TIP3   OH237771   6.798   3.028   3.081 -0.4540  0.1699 -0.0895
 5427TIP3    H137772   6.825   3.043   2.990  0.3044 -1.7303 -0.2222
 5427TIP3    H237773   6.862   3.075   3.133 -0.4928  0.7205 -0.5318
 5428TIP3   OH237774   5.627   3.499  15.642  0.0940 -0.2858 -0.1082
 5428TIP3    H137775   5.622   3.429  15.707  0.7658 -1.5171 -1.3347
 5428TIP3    H237776   5.666   3.573  15.689  0.8070 -1.2290  0.8321
 5429TIP3   OH237777   1.861   4.090  13.907  0.1018  0.0630  0.0786
 5429TIP3    H137778   1.846   4.004  13.945  0.9483  0.5295  1.5296
 5429TIP3    H237779   1.787   4.143  13.936 -0.2194 -0.0536 -0.5003
 5430TIP3   OH237780   1.911   5.999   5.923  0.2395  0.3900  0.4658
 5430TIP3    H137781   1.897   5.993   6.017  0.3417  0.3589  0.4780
 5430TIP3    H237782   1.985   6.058   5.912 -1.6655  2.9273  0.2975
 5431TIP3   OH237783   5.479   2.356  17.309  0.1403  0.2867 -0.2338
 5431TIP3    H137784   5.526   2.329  17.388 -0.3820 -1.6436 -0.5514
 5431TIP3    H237785   5.548   2.366  17.243  0.3681 -0.0952 -0.0584
 5432TIP3   OH237786   3.844   2.176  14.047  0.7825 -0.0800  0.2921
 5432TIP3    H137787   3.905   2.220  14.106  0.4970  0.3530  0.2779
 5432TIP3    H237788   3.789   2.247  14.013  0.9813 -0.3182 -0.5389
 5433TIP3   OH237789   1.567   4.109  16.262 -0.3445 -0.2240  0.3200
 5433TIP3    H137790   1.497   4.169  16.238  2.0153  2.2755 -0.9596
 5433TIP3    H237791   1.578   4.122  16.357  1.3429  3.0606 -0.1724
 5434TIP3   OH237792   1.403   6.585   1.266  0.2519 -0.3433 -0.0187
 5434TIP3    H137793   1.360   6.640   1.201  0.9614  0.3604  0.0819
 5434TIP3    H237794   1.333   6.554   1.322 -0.3936 -1.1167 -1.2211
 5435TIP3   OH237795   0.606   1.469  12.552 -0.0232  0.6194 -0.5529
 5435TIP3    H137796   0.622   1.553  12.510 -0.9795  1.4622  0.7144
 5435TIP3    H237797   0.649   1.475  12.637 -0.4648 -0.0017 -0.2742
 5436TIP3   OH237798   2.486   4.081   2.984 -0.0596 -0.2915 -0.6020
 5436TIP3    H137799   2.468   4.165   3.027 -0.1107 -0.0872 -1.0243
 5436TIP3    H237800   2.534   4.104   2.905  2.3581 -0.8272  0.5972
 5437TIP3   OH237801   2.231   2.571  14.363 -0.0477  0.3417 -0.1948
 5437TIP3    H137802   2.280   2.547  14.284 -0.3009  0.5059 -0.4019
 5437TIP3    H237803   2.295   2.560  14.434  0.5331  1.3035 -0.5472
 5438TIP3   OH237804   3.178   4.163   1.540 -0.7474 -0.5736  0.0420
 5438TIP3    H137805   3.232   4.091   1.508  0.1825  0.2240 -0.2137
 5438TIP3    H237806   3.240   4.224   1.579 -1.3431  0.7961 -1.0833
 5439TIP3   OH237807   4.840   6.181   0.144 -0.2689  0.0852 -0.2230
 5439TIP3    H137808   4.911   6.126   0.111  0.9566 -0.2671  2.6544
 5439TIP3    H237809   4.772   6.119   0.171 -0.5613  0.2533 -0.5698
 5440TIP3   OH237810   5.255   5.026  15.727 -0.1966 -0.9571  0.1122
 5440TIP3    H137811   5.295   5.004  15.812  1.9133 -2.9952 -1.2902
 5440TIP3    H237812   5.292   5.111  15.705  2.3024 -2.1208 -0.4401
 5441TIP3   OH237813   2.851   2.297   1.962 -0.1059 -0.1382  0.4663
 5441TIP3    H137814   2.849   2.343   2.046  0.2628 -0.0567  0.4354
 5441TIP3    H237815   2.913   2.347   1.909 -0.3149 -0.2058  0.1538
 5442TIP3   OH237816   0.362   1.075  13.665 -0.1026  0.1368 -0.4907
 5442TIP3    H137817   0.290   1.136  13.679  0.0424  0.2486 -0.2275
 5442TIP3    H237818   0.421   1.121  13.604  0.7071  0.8519  0.7901
 5443TIP3   OH237819   3.810   2.813  11.903 -0.5008 -0.8703  0.4901
 5443TIP3    H137820   3.853   2.742  11.951 -1.9063 -0.6419  2.1871
 5443TIP3    H237821   3.845   2.806  11.814 -1.2636 -4.2724  0.3183
 5444TIP3   OH237822   3.176   4.822   1.466  0.1638 -0.0701  0.2236
 5444TIP3    H137823   3.138   4.747   1.511  0.2087 -1.8512 -2.4282
 5444TIP3    H237824   3.260   4.789   1.432  0.3619  1.2882 -0.6922
 5445TIP3   OH237825   3.704   1.802   1.471 -0.3750 -0.3964  0.2782
 5445TIP3    H137826   3.672   1.726   1.423  0.7078 -1.6443  1.4733
 5445TIP3    H237827   3.797   1.785   1.485 -0.4160  0.4523  1.8247
 5446TIP3   OH237828   4.890   0.760  17.310 -0.3734 -0.0782 -0.7715
 5446TIP3    H137829   4.975   0.744  17.352  0.4291  1.2020 -1.8546
 5446TIP3    H237830   4.855   0.673  17.295  0.6403 -0.6322 -0.0987
 5447TIP3   OH237831   0.683   0.882   4.976 -0.0319 -0.1423 -0.7701
 5447TIP3    H137832   0.598   0.924   4.969 -1.1693 -2.2734 -0.6153
 5447TIP3    H237833   0.687   0.824   4.900  0.6708 -1.0679 -0.0505
 5448TIP3   OH237834   2.273   3.058   1.802  0.1664  0.3229  0.4111
 5448TIP3    H137835   2.273   2.964   1.819  0.9552  0.2145 -0.1269
 5448TIP3    H237836   2.206   3.070   1.734 -0.0898  0.1845  0.6379
 5449TIP3   OH237837   5.987   5.853   3.562  0.4264 -0.0595  0.2928
 5449TIP3    H137838   6.072   5.853   3.516  1.5761  0.7672  2.2900
 5449TIP3    H237839   5.945   5.772   3.535  1.4241 -0.0346 -1.4928
 5450TIP3   OH237840   5.559   1.461   5.704 -0.5989  0.5283  0.0666
 5450TIP3    H137841   5.540   1.410   5.783 -0.6331 -0.7231 -0.7184
 5450TIP3    H237842   5.639   1.421   5.668 -0.2265  1.4850 -0.2032
 5451TIP3   OH237843   0.310   0.460  16.542 -0.2071  0.0991  0.2524
 5451TIP3    H137844   0.246   0.482  16.610 -0.8099 -1.0576  0.0875
 5451TIP3    H237845   0.270   0.387  16.495  1.2162 -0.6064  0.0911
 5452TIP3   OH237846   2.624   1.667  17.335 -0.2849 -0.1986  0.6194
 5452TIP3    H137847   2.564   1.597  17.362 -0.7735  0.3528  0.9789
 5452TIP3    H237848   2.698   1.621  17.295  0.4942 -1.0836  2.9107
 5453TIP3   OH237849   1.744   1.482   2.427 -0.0708 -0.2749 -0.0228
 5453TIP3    H137850   1.764   1.408   2.370 -0.6285 -0.4265 -0.0190
 5453TIP3    H237851   1.711   1.550   2.368 -0.2868 -0.2964  0.0752
 5454TIP3   OH237852   2.565   4.865   2.166 -0.7599 -0.2959 -0.7773
 5454TIP3    H137853   2.492   4.843   2.108  0.0061 -1.0065 -1.5083
 5454TIP3    H237854   2.632   4.900   2.107 -0.4799  0.2537 -0.1300
 5455TIP3   OH237855   5.569   3.242   1.497  0.3470  0.6219 -0.5879
 5455TIP3    H137856   5.651   3.206   1.462  0.1181 -0.1264 -0.3866
 5455TIP3    H237857   5.594   3.324   1.539  0.7261  1.2035 -1.9250
 5456TIP3   OH237858   3.052   2.511  12.448 -0.8269 -0.3971 -0.0209
 5456TIP3    H137859   3.011   2.580  12.395 -0.8974 -0.5343 -0.1462
 5456TIP3    H237860   3.095   2.454  12.384  1.8458  1.1756  0.2297
 5457TIP3   OH237861   5.651   0.809  15.763  0.5282 -0.0551  0.2779
 5457TIP3    H137862   5.578   0.760  15.802  2.1020 -2.2393  0.6631
 5457TIP3    H237863   5.700   0.744  15.713  1.6225  1.5877 -0.9014
 5458TIP3   OH237864   0.902   2.611  14.564 -0.2413  0.7120 -0.2547
 5458TIP3    H137865   0.814   2.646  14.554 -0.6144 -0.1045  0.1135
 5458TIP3    H237866   0.960   2.682  14.536 -1.0250  1.0949 -0.9266
 5459TIP3   OH237867   4.953   2.010   3.894  0.1175  0.7620 -0.1070
 5459TIP3    H137868   4.991   2.043   3.975  0.4493 -0.4467  0.2515
 5459TIP3    H237869   5.000   1.928   3.877  1.7748  2.1272 -2.8286
 5460TIP3   OH237870   5.447   4.195  17.368 -0.2688  0.2984  0.1145
 5460TIP3    H137871   5.409   4.275  17.334 -1.9623  0.5022  2.2532
 5460TIP3    H237872   5.478   4.218  17.456  0.7530 -0.9931  0.1290
 5461TIP3   OH237873   5.397   3.078   4.360  0.5723  0.6385  0.6359
 5461TIP3    H137874   5.312   3.107   4.329  0.7693 -0.5275 -1.1378
 5461TIP3    H237875   5.447   3.158   4.373  0.2833  1.2408 -1.6446
 5462TIP3   OH237876   1.438   0.749   4.233 -0.3954  0.5260  0.0437
 5462TIP3    H137877   1.356   0.775   4.191  0.0404  0.6150 -0.7694
 5462TIP3    H237878   1.488   0.830   4.240 -0.8553  0.6956  1.6555
 5463TIP3   OH237879   0.521   1.157   3.558  0.1442  0.0080  0.7611
 5463TIP3    H137880   0.609   1.122   3.546  0.4026  0.6525  0.7169
 5463TIP3    H237881   0.465   1.080   3.566  0.6289 -0.4117  0.1834
 5464TIP3   OH237882   1.623   1.734   3.487 -0.1016 -0.2337  0.1567
 5464TIP3    H137883   1.569   1.674   3.539  0.2398 -1.1013 -0.4659
 5464TIP3    H237884   1.576   1.817   3.490 -1.6756 -1.0512 -0.6387
 5465TIP3   OH237885   2.411   0.554   3.167  0.0737 -0.2953  0.1644
 5465TIP3    H137886   2.374   0.514   3.088  0.7814 -1.9903  0.6361
 5465TIP3    H237887   2.471   0.488   3.201 -0.3603  0.2995  2.2312
 5466TIP3   OH237888   4.214   1.215  13.681  0.0098  0.0097  0.4770
 5466TIP3    H137889   4.131   1.225  13.634 -0.8084 -0.9716  1.6560
 5466TIP3    H237890   4.272   1.279  13.640 -0.6898 -0.6991 -1.7583
 5467TIP3   OH237891   6.454   5.005  16.011 -0.1504  0.1473 -0.2046
 5467TIP3    H137892   6.393   5.079  16.001 -2.1498 -1.4615 -0.5787
 5467TIP3    H237893   6.514   5.012  15.937 -1.1832  0.6325 -1.0189
 5468TIP3   OH237894   5.547   4.790   5.437 -0.4527  0.0887  0.2453
 5468TIP3    H137895   5.469   4.789   5.493 -2.3193 -1.2513 -2.1484
 5468TIP3    H237896   5.535   4.715   5.378  1.4315  1.2631 -1.8056
 5469TIP3   OH237897   6.301   2.355  16.136  0.4215  0.5530  0.1008
 5469TIP3    H137898   6.391   2.389  16.134  0.3154  0.8190 -0.2869
 5469TIP3    H237899   6.251   2.423  16.181  0.7681 -0.4869  2.1593
 5470TIP3   OH237900   0.782   3.470  14.441 -0.0767 -0.0847 -0.2799
 5470TIP3    H137901   0.806   3.535  14.376 -0.2365  0.2620  0.0051
 5470TIP3    H237902   0.797   3.386  14.398  0.9016  0.1307 -0.3622
 5471TIP3   OH237903   2.134   5.240  12.324 -0.1103  0.5448  0.2117
 5471TIP3    H137904   2.103   5.153  12.297  1.7227 -0.6534  1.7805
 5471TIP3    H237905   2.054   5.288  12.345 -1.1087 -1.5377  1.5197
 5472TIP3   OH237906   3.068   5.269  17.158  0.1238  0.1012 -0.4540
 5472TIP3    H137907   3.022   5.328  17.217 -0.2761  0.8636 -1.4877
 5472TIP3    H237908   3.061   5.183  17.199  0.4320  0.7112  0.9160
 5473TIP3   OH237909   4.344   0.943  12.223 -0.2271 -0.0505 -0.0449
 5473TIP3    H137910   4.408   1.006  12.255  2.3447 -1.2233 -2.4667
 5473TIP3    H237911   4.368   0.861  12.265  0.4550 -0.6723 -1.5734
 5474TIP3   OH237912   0.740   4.846   4.269 -0.1630  0.2834  0.9647
 5474TIP3    H137913   0.718   4.753   4.259  0.7460  0.2582 -1.6523
 5474TIP3    H237914   0.659   4.892   4.247  0.0892  0.0910 -0.4997
 5475TIP3   OH237915   1.894   1.571  14.272 -0.0248 -0.1691 -0.4562
 5475TIP3    H137916   1.865   1.573  14.363 -0.5388  1.4032 -0.6364
 5475TIP3    H237917   1.873   1.657  14.238  2.3416  0.0979 -1.3970
 5476TIP3   OH237918   3.477   2.092  13.108 -0.4626  0.1134 -0.3532
 5476TIP3    H137919   3.409   2.148  13.145 -0.2669 -0.1089  0.3751
 5476TIP3    H237920   3.543   2.153  13.076 -0.6688  0.3165 -0.3938
 5477TIP3   OH237921   4.691   2.718   1.861 -0.1022  0.1498  0.4844
 5477TIP3    H137922   4.694   2.665   1.781  0.4872  1.2927 -0.2882
 5477TIP3    H237923   4.759   2.784   1.848  0.4857 -0.0562  2.2610
 5478TIP3   OH237924   2.790   4.009   2.272  0.4199 -0.0669 -0.5475
 5478TIP3    H137925   2.879   3.977   2.260  0.6053  0.0955  0.2995
 5478TIP3    H237926   2.759   4.030   2.184  2.3440  2.8116 -0.6904
 5479TIP3   OH237927   6.693   5.232  11.354 -0.4301 -0.1067 -0.2899
 5479TIP3    H137928   6.684   5.324  11.330 -0.1517 -0.3605 -1.4246
 5479TIP3    H237929   6.782   5.225  11.389 -1.3108  0.5566  2.3232
 5480TIP3   OH237930   4.364   1.329  16.836  0.2524  0.0200 -0.0502
 5480TIP3    H137931   4.422   1.374  16.775  2.1988 -1.8888  0.2855
 5480TIP3    H237932   4.419   1.309  16.912 -0.8766 -1.6409  0.3925
 5481TIP3   OH237933   0.848   4.346   0.124  0.1404  0.0859 -0.1703
 5481TIP3    H137934   0.870   4.337   0.031  0.3031 -1.7265  0.0084
 5481TIP3    H237935   0.928   4.381   0.164  0.1644  0.5973 -0.6441
 5482TIP3   OH237936   1.809   3.909  11.480 -0.1902  0.4306  0.1029
 5482TIP3    H137937   1.754   3.987  11.486 -1.0583 -0.1397 -0.3408
 5482TIP3    H237938   1.861   3.910  11.561  0.2100  1.7521 -0.1437
 5483TIP3   OH237939   0.532   3.908  14.416  0.4620 -0.5111 -0.3676
 5483TIP3    H137940   0.580   3.865  14.487 -0.3380 -0.1821  0.3899
 5483TIP3    H237941   0.596   3.916  14.345  1.4504 -0.3027  0.5237
 5484TIP3   OH237942   3.024   3.479   0.368 -0.5222  0.2250 -0.8266
 5484TIP3    H137943   3.062   3.433   0.442  2.9562  1.4013 -1.6664
 5484TIP3    H237944   3.011   3.569   0.400 -0.9679  0.2348 -1.0380
 5485TIP3   OH237945   6.593   0.114   2.323  0.2086  0.1536  0.1199
 5485TIP3    H137946   6.665   0.052   2.328  0.2917  0.2695  0.3482
 5485TIP3    H237947   6.614   0.181   2.388 -0.4648 -0.1891  0.7024
 5486TIP3   OH237948   3.281   0.598  16.956  0.4217  0.3097 -0.2817
 5486TIP3    H137949   3.287   0.506  16.934 -0.8138  0.6521 -2.4002
 5486TIP3    H237950   3.190   0.610  16.985  0.3124  0.9788 -0.8496
 5487TIP3   OH237951   0.864   1.190   1.838 -0.6404 -0.6273 -0.9037
 5487TIP3    H137952   0.916   1.199   1.918  0.0614  0.2704 -1.4464
 5487TIP3    H237953   0.875   1.098   1.813  1.5150 -0.2486 -1.5451
 5488TIP3   OH237954   4.824   6.620  14.479  0.1340  0.0350  0.0156
 5488TIP3    H137955   4.888   6.558  14.443  0.0519 -0.8928  1.4280
 5488TIP3    H237956   4.768   6.567  14.535 -0.8437  1.1468  0.1194
 5489TIP3   OH237957   0.466   3.889  10.923 -0.2325 -0.0371  0.3641
 5489TIP3    H137958   0.385   3.938  10.939 -0.7933 -1.1685  1.1290
 5489TIP3    H237959   0.513   3.893  11.006  1.1865  1.7595 -0.4511
 5490TIP3   OH237960   4.114   6.007  13.733  0.4253 -0.8016 -0.3245
 5490TIP3    H137961   4.050   5.994  13.803 -0.9326 -0.3812 -1.4328
 5490TIP3    H237962   4.185   6.057  13.774 -0.6830  0.0851  0.5805
 5491TIP3   OH237963   1.104   1.361   0.126  0.5115  0.6490  0.0032
 5491TIP3    H137964   1.160   1.349   0.048  1.6633  1.5966  0.6458
 5491TIP3    H237965   1.020   1.388   0.090  0.7403  0.1652 -0.9582
 5492TIP3   OH237966   1.075   4.815  13.476  0.2390 -0.3133  0.0092
 5492TIP3    H137967   1.068   4.910  13.487 -0.1145 -0.3739  0.2927
 5492TIP3    H237968   0.988   4.787  13.449  0.6494 -0.3977 -1.3317
 5493TIP3   OH237969   6.503   0.129   3.113 -0.0621 -0.1356  0.4056
 5493TIP3    H137970   6.589   0.090   3.098 -0.1423 -0.3385  0.4742
 5493TIP3    H237971   6.482   0.173   3.030  0.5950  0.8602  0.7449
 5494TIP3   OH237972   1.582   4.040   1.951 -0.1472  0.3523  0.4120
 5494TIP3    H137973   1.644   3.981   1.994  1.1761  0.8910 -0.6818
 5494TIP3    H237974   1.613   4.128   1.973 -0.1665  0.6329 -0.6102
 5495TIP3   OH237975   4.893   1.243  11.182 -0.1372 -0.0983 -0.3608
 5495TIP3    H137976   4.938   1.321  11.150 -0.3437  0.1621 -0.0162
 5495TIP3    H237977   4.958   1.198  11.236 -0.4101  0.5039  0.5002
 5496TIP3   OH237978   4.073   2.337  13.875  0.7322  0.1737 -0.0311
 5496TIP3    H137979   4.124   2.362  13.952 -0.3619  1.4125  0.3365
 5496TIP3    H237980   4.011   2.272  13.907  1.1233 -0.2777 -0.1705
 5497TIP3   OH237981   2.244   3.176  14.000  0.9016  0.7035  0.0061
 5497TIP3    H137982   2.313   3.194  14.064  1.8870 -0.8112 -0.5850
 5497TIP3    H237983   2.290   3.169  13.917  0.0753 -0.5978 -0.3635
 5498TIP3   OH237984   4.471   0.515   0.995  0.3017 -0.5291  0.0612
 5498TIP3    H137985   4.539   0.582   0.987  0.2637 -0.4117  0.6528
 5498TIP3    H237986   4.486   0.476   1.081  0.3437 -1.3120 -0.2950
 5499TIP3   OH237987   1.817   0.983   3.484 -0.3935 -0.1064 -0.0487
 5499TIP3    H137988   1.846   1.042   3.415  3.1632 -0.5030  0.8958
 5499TIP3    H237989   1.804   1.039   3.560 -1.6146 -0.0019 -0.3263
 5500TIP3   OH237990   4.095   3.009   3.145 -0.2915  0.0882 -0.1374
 5500TIP3    H137991   4.107   2.918   3.119  0.4943  0.1847 -0.1327
 5500TIP3    H237992   4.001   3.025   3.136 -0.2537 -0.3476 -1.3664
 5501TIP3   OH237993   3.471   2.347  16.621  0.3216  0.0009  0.4020
 5501TIP3    H137994   3.555   2.374  16.658 -0.1643 -0.1393  1.6529
 5501TIP3    H237995   3.477   2.252  16.614  0.4166  0.0276  0.0791
 5502TIP3   OH237996   4.671   2.484   5.024  0.2358 -0.2269  0.2318
 5502TIP3    H137997   4.577   2.470   5.019  0.2573 -0.2259 -0.1820
 5502TIP3    H237998   4.709   2.406   4.984  0.3652  0.7439 -1.6713
 5503TIP3   OH237999   6.031   1.001  10.874  0.4938 -0.2689  0.2662
 5503TIP3    H138000   6.126   1.010  10.880  0.3533  0.6954  1.4817
 5503TIP3    H238001   6.017   0.949  10.795  1.9877  0.3890 -0.4800
 5504TIP3   OH238002   0.050   3.853   2.055  0.6002  0.4455  0.7976
 5504TIP3    H138003   0.046   3.852   2.151 -1.5961 -1.8243  0.7756
 5504TIP3    H238004   0.133   3.808   2.035  1.0690  0.9195  1.5943
 5505TIP3   OH238005   0.996   3.404  14.913 -0.0217  0.5886 -0.6817
 5505TIP3    H138006   1.026   3.491  14.939  2.0454 -0.0085 -0.8428
 5505TIP3    H238007   0.962   3.415  14.824 -0.5410  1.3650 -0.3933
 5506TIP3   OH238008   4.374   1.851  16.797  0.4344 -0.5818  0.2998
 5506TIP3    H138009   4.360   1.784  16.863 -1.3522 -0.3412  0.2298
 5506TIP3    H238010   4.349   1.809  16.715  2.2036 -0.7367 -0.2003
 5507TIP3   OH238011   5.674   1.401   0.170 -0.8741  0.1122  0.6702
 5507TIP3    H138012   5.711   1.324   0.128 -1.4056  0.3869 -0.3467
 5507TIP3    H238013   5.750   1.451   0.200 -0.4880 -0.2433  0.2971
 5508TIP3   OH238014   2.601   2.683   3.625  0.0459 -0.5116 -0.1089
 5508TIP3    H138015   2.576   2.740   3.697 -1.1085  0.5718 -1.3133
 5508TIP3    H238016   2.602   2.740   3.548  0.0845 -1.8698 -1.1545
 5509TIP3   OH238017   4.081   3.607   3.828  0.2785 -0.1236  0.5881
 5509TIP3    H138018   4.118   3.520   3.844  1.8412  0.8054  2.4586
 5509TIP3    H238019   4.085   3.651   3.913  2.2083  2.7369 -0.8060
 5510TIP3   OH238020   0.645   1.000  14.297 -0.3807 -0.5619  0.1246
 5510TIP3    H138021   0.691   0.954  14.367 -0.5926 -0.1113  0.5647
 5510TIP3    H238022   0.708   1.000  14.224  0.9583  1.3358  1.1789
 5511TIP3   OH238023   5.233   0.432  12.167 -0.6590 -0.2681 -0.3446
 5511TIP3    H138024   5.139   0.422  12.150 -0.7740 -0.6001  0.4486
 5511TIP3    H238025   5.274   0.363  12.115 -0.8304  0.0066 -0.8559
 5512TIP3   OH238026   4.327   0.364   5.444  0.4974 -0.4096  0.2773
 5512TIP3    H138027   4.385   0.370   5.368 -0.1627  0.0214 -0.1958
 5512TIP3    H238028   4.334   0.450   5.486 -0.7410  0.0754 -0.4794
 5513TIP3   OH238029   4.060   2.637   2.813  0.0178 -0.7662  0.0610
 5513TIP3    H138030   4.027   2.646   2.724  0.1066 -0.5649  0.0496
 5513TIP3    H238031   4.153   2.659   2.807  0.2298 -1.6015  0.0381
 5514TIP3   OH238032   0.434   0.390  15.744  0.8534 -0.0580 -0.0358
 5514TIP3    H138033   0.483   0.363  15.667 -0.0875  1.4605 -1.2129
 5514TIP3    H238034   0.430   0.311  15.799 -1.1254 -2.1636 -2.9169
 5515TIP3   OH238035   6.333   4.166  14.764 -0.4706  0.4409  0.0460
 5515TIP3    H138036   6.361   4.184  14.853 -0.3242  1.3594 -0.1717
 5515TIP3    H238037   6.262   4.229  14.748  1.1837  2.0717 -1.3114
 5516TIP3   OH238038   5.925   3.159   1.146 -0.3593 -0.3596  0.3266
 5516TIP3    H138039   5.844   3.180   1.100 -0.1572 -1.4046 -0.5449
 5516TIP3    H238040   5.994   3.191   1.089 -0.1133 -1.3687  0.0366
 5517TIP3   OH238041   2.053   4.012  15.610  0.2346  0.0383 -0.2689
 5517TIP3    H138042   1.974   4.055  15.643 -0.5977 -1.1458 -0.6193
 5517TIP3    H238043   2.086   4.071  15.543 -0.5886  0.3791 -0.3884
 5518TIP3   OH238044   5.053   1.038  11.317 -0.0310  0.2393 -0.1666
 5518TIP3    H138045   5.130   0.994  11.353 -0.4474 -0.2597  0.1253
 5518TIP3    H238046   4.980   1.006  11.369 -0.2969  1.6670  0.3903
 5519TIP3   OH238047   3.918   6.447   0.042  0.0633 -0.3297 -0.0663
 5519TIP3    H138048   4.011   6.462   0.021 -0.0826 -1.0765 -1.3523
 5519TIP3    H238049   3.877   6.532   0.028  0.5433 -0.0097  0.4352
 5520TIP3   OH238050   1.164   6.172   5.289 -0.1915 -0.4290  0.3697
 5520TIP3    H138051   1.107   6.221   5.228  0.1784 -0.1440  0.2502
 5520TIP3    H238052   1.108   6.102   5.322 -1.2107  0.9464  1.6986
 5521TIP3   OH238053   4.342   0.929   0.013  0.2604  0.2646  0.3722
 5521TIP3    H138054   4.277   0.953   0.080 -0.6534 -0.7864 -0.1206
 5521TIP3    H238055   4.360   0.837   0.029  1.2305  0.4043  0.1387
 5522TIP3   OH238056   4.436   4.708  16.935  0.2083  0.5441  0.3103
 5522TIP3    H138057   4.342   4.700  16.953  0.3754 -0.8301  0.6968
 5522TIP3    H238058   4.469   4.765  17.004 -0.6444  2.8062 -1.0217
 5523TIP3   OH238059   6.469   1.860   0.927 -0.2083 -0.0747 -0.1213
 5523TIP3    H138060   6.525   1.926   0.967  2.7575  0.2182 -4.1833
 5523TIP3    H238061   6.530   1.795   0.892 -2.6818 -1.8697 -1.4049
 5524TIP3   OH238062   0.555   4.792   2.414  0.0340  0.2400  0.3532
 5524TIP3    H138063   0.560   4.794   2.319 -1.1462  1.9898  0.2775
 5524TIP3    H238064   0.581   4.703   2.438  1.3941  0.0817 -1.5171
 5525TIP3   OH238065   1.694   0.530   0.887  0.0170 -0.4182  0.2509
 5525TIP3    H138066   1.657   0.604   0.935 -1.1651 -1.5651  1.2166
 5525TIP3    H238067   1.784   0.524   0.918  0.6971  1.6261 -1.1432
 5526TIP3   OH238068   1.604   5.626   4.062  0.8151 -0.4747 -1.0817
 5526TIP3    H138069   1.625   5.628   3.969 -0.3462  0.1946 -1.3568
 5526TIP3    H238070   1.655   5.553   4.097  2.7488  0.4430 -1.8562
 5527TIP3   OH238071   5.777   1.762   5.954 -0.7142 -0.0332 -0.1908
 5527TIP3    H138072   5.843   1.763   5.885 -0.5533  1.4492 -0.0507
 5527TIP3    H238073   5.822   1.800   6.030 -0.8250 -1.8219  0.8257
 5528TIP3   OH238074   4.974   3.534   1.320 -0.0842  0.0351  0.4825
 5528TIP3    H138075   4.882   3.508   1.322  0.3928 -1.7413  0.7615
 5528TIP3    H238076   5.019   3.468   1.373  1.8103 -1.2591 -2.4540
 5529TIP3   OH238077   0.106   5.300  15.079  0.1377  0.3689 -0.3646
 5529TIP3    H138078   0.133   5.386  15.109  0.5211  0.2513 -0.3718
 5529TIP3    H238079   0.015   5.312  15.051 -1.4180 -0.2083  3.8107
 5530TIP3   OH238080   1.146   1.379  11.436  0.5391 -0.2587  0.3868
 5530TIP3    H138081   1.098   1.447  11.390 -1.0075 -1.0191  0.7995
 5530TIP3    H238082   1.213   1.351  11.375  0.7068  1.0906 -0.0737
 5531TIP3   OH238083   2.937   1.489  13.465 -0.4295  0.0878  0.1830
 5531TIP3    H138084   3.022   1.458  13.496 -0.0555  0.8066 -0.0951
 5531TIP3    H238085   2.875   1.460  13.532 -0.0088 -0.6753  0.2561
 5532TIP3   OH238086   5.339   1.234   1.194  0.0306  0.0006  0.2964
 5532TIP3    H138087   5.347   1.329   1.203  0.2517  0.1154 -0.9263
 5532TIP3    H238088   5.423   1.200   1.224  1.0645  0.4209 -1.9407
 5533TIP3   OH238089   0.899   6.150  15.354 -0.1986 -0.2463 -0.1311
 5533TIP3    H138090   0.832   6.093  15.392 -0.1746 -1.5274 -1.8769
 5533TIP3    H238091   0.980   6.123  15.397 -0.8876  2.4818  3.2746
 5534TIP3   OH238092   1.941   3.323  12.858 -0.1099  0.2200  0.2380
 5534TIP3    H138093   1.956   3.316  12.763 -0.6269 -1.9260  0.2694
 5534TIP3    H238094   2.018   3.369  12.891 -0.0473  1.2553 -1.2479
 5535TIP3   OH238095   1.760   0.894   2.346 -0.5970  0.2071 -0.2462
 5535TIP3    H138096   1.710   0.917   2.425 -1.5090  0.2771 -0.8237
 5535TIP3    H238097   1.755   0.972   2.291 -0.6730 -0.1200 -0.7138
 5536TIP3   OH238098   5.141   5.666   0.613 -0.1971 -0.1277  0.3029
 5536TIP3    H138099   5.138   5.573   0.594  2.2330 -0.5420  1.5260
 5536TIP3    H238100   5.059   5.684   0.660  0.6056 -2.3935  2.8258
 5537TIP3   OH238101   3.466   2.302   0.866 -0.0975  0.0349  0.0291
 5537TIP3    H138102   3.527   2.316   0.794  1.6797  1.2209  1.6924
 5537TIP3    H238103   3.380   2.325   0.830  0.7275  0.5108 -1.7049
 5538TIP3   OH238104   0.801   3.149  17.072  0.3963 -0.1336  0.0423
 5538TIP3    H138105   0.715   3.116  17.046  0.7100 -1.5097  0.6906
 5538TIP3    H238106   0.783   3.237  17.106 -1.0688 -1.0713  1.8866
 5539TIP3   OH238107   0.700   4.614  11.465  0.5562  0.3226 -0.4771
 5539TIP3    H138108   0.609   4.609  11.435  0.9479  0.9532 -1.8536
 5539TIP3    H238109   0.736   4.527  11.449  0.0454 -0.1005  0.6163
 5540TIP3   OH238110   3.618   5.791  15.661  0.3235 -0.5333  0.3495
 5540TIP3    H138111   3.587   5.700  15.662  1.9746 -1.1571 -0.4475
 5540TIP3    H238112   3.617   5.815  15.568  0.0203  0.2282  0.5472
 5541TIP3   OH238113   5.199   3.717  15.612  0.3390 -0.1577 -0.1435
 5541TIP3    H138114   5.239   3.633  15.634  2.1999  0.5042 -0.8031
 5541TIP3    H238115   5.214   3.727  15.518  0.8947  1.2613  0.0766
 5542TIP3   OH238116   5.396   3.759   5.712 -0.0433 -0.1592  0.2475
 5542TIP3    H138117   5.449   3.833   5.740  0.3875 -0.5103  0.3589
 5542TIP3    H238118   5.407   3.756   5.617  0.8750 -0.7872  0.3604
 5543TIP3   OH238119   1.372   2.663  13.730 -0.2697  0.1444 -0.2928
 5543TIP3    H138120   1.350   2.575  13.700 -2.0547  0.4459 -0.0030
 5543TIP3    H238121   1.433   2.649  13.802 -1.1920 -0.9067  0.3149
 5544TIP3   OH238122   6.575   5.410  15.396  0.0061 -0.3351 -0.1079
 5544TIP3    H138123   6.484   5.438  15.397 -0.3493 -1.3861 -0.7154
 5544TIP3    H238124   6.622   5.481  15.353 -0.9257 -0.7961 -1.9888
 5545TIP3   OH238125   2.864   6.246  13.826 -0.4730  0.2837 -0.4333
 5545TIP3    H138126   2.914   6.320  13.860 -0.2661  0.7721 -1.7183
 5545TIP3    H238127   2.913   6.218  13.748 -2.0368  0.6473 -1.6091
 5546TIP3   OH238128   6.444   5.107  13.603  0.5187 -0.1565  0.0884
 5546TIP3    H138129   6.479   5.167  13.537 -0.2332  1.7376  1.3119
 5546TIP3    H238130   6.440   5.022  13.559  0.4981  0.9274 -2.1263
 5547TIP3   OH238131   0.008   0.592   0.735  0.3644 -0.5979  0.3653
 5547TIP3    H138132  -0.012   0.508   0.695  1.1355 -1.1597  1.1378
 5547TIP3    H238133   0.014   0.574   0.829  0.1287  0.3984  0.5848
 5548TIP3   OH238134   4.175   4.997   3.599  0.3524  0.2213 -1.5419
 5548TIP3    H138135   4.198   5.090   3.586  1.2567 -0.0066 -1.6598
 5548TIP3    H238136   4.174   4.986   3.694 -1.1302  0.6626 -1.4765
 5549TIP3   OH238137   0.455   4.429  12.453  0.0601  0.4112  0.6001
 5549TIP3    H138138   0.366   4.450  12.425  1.0676  2.4846 -1.3609
 5549TIP3    H238139   0.449   4.422  12.549 -2.4991 -1.3885  0.4205
 5550TIP3   OH238140   5.018   1.168  12.032  0.0206  0.4978 -0.9331
 5550TIP3    H138141   5.041   1.076  12.043  1.4293  0.9120 -0.1754
 5550TIP3    H238142   4.978   1.173  11.945 -0.7274 -0.9369 -0.6909
 5551TIP3   OH238143   5.795   6.364  17.353  0.8125  0.4446 -0.1929
 5551TIP3    H138144   5.885   6.392  17.364  1.2506 -0.7199 -0.7243
 5551TIP3    H238145   5.745   6.421  17.412  1.5555  2.7307 -1.6317
 5552TIP3   OH238146   6.261   2.405   6.036 -0.1817  0.3414 -0.6033
 5552TIP3    H138147   6.278   2.432   5.945 -0.1866  2.0524 -0.1250
 5552TIP3    H238148   6.348   2.384   6.070  0.1137  1.7975 -0.3895
 5553TIP3   OH238149   5.743   0.315  11.661 -0.0799  0.3246  0.0683
 5553TIP3    H138150   5.709   0.344  11.746  0.0689  0.9971 -0.0944
 5553TIP3    H238151   5.837   0.335  11.665 -0.0872  0.4364 -0.2805
 5554TIP3   OH238152   5.304   6.407   1.897  0.1657  0.3045 -0.1129
 5554TIP3    H138153   5.305   6.339   1.964  1.1323  0.8839  0.4837
 5554TIP3    H238154   5.255   6.479   1.937  0.9344  0.7342  0.0709
 5555TIP3   OH238155   3.569   0.007  14.449 -0.1776 -0.2653 -0.0380
 5555TIP3    H138156   3.613   0.091  14.461  0.6622 -0.4487 -1.5406
 5555TIP3    H238157   3.541   0.007  14.357  0.5465 -1.9204 -0.3047
 5556TIP3   OH238158   1.635   2.166  14.548  0.6018 -0.3911  0.0112
 5556TIP3    H138159   1.708   2.109  14.573  0.3726 -1.4511 -1.6126
 5556TIP3    H238160   1.584   2.176  14.628  0.9208 -2.0761  0.4639
 5557TIP3   OH238161   2.610   1.067   2.770  0.1975 -0.2460 -0.3896
 5557TIP3    H138162   2.613   1.148   2.718  0.8831 -1.0561 -1.6637
 5557TIP3    H238163   2.583   1.000   2.709 -1.9548 -0.7642  1.0293
 5558TIP3   OH238164   3.382   6.356   5.270  0.7214 -0.2460  0.0364
 5558TIP3    H138165   3.411   6.440   5.305 -0.5162  0.9359 -1.6117
 5558TIP3    H238166   3.362   6.303   5.348  0.5599  1.3466  1.1192
 5559TIP3   OH238167   6.786   6.547  15.016  0.3171 -0.5932  0.5538
 5559TIP3    H138168   6.741   6.526  15.098 -0.0283  0.0575  0.5339
 5559TIP3    H238169   6.755   6.480  14.954 -1.6430  0.5645  0.1855
 5560TIP3   OH238170   5.615   1.433   3.905 -0.1042 -0.0678 -0.5804
 5560TIP3    H138171   5.708   1.445   3.925 -0.0532 -0.5300 -0.5377
 5560TIP3    H238172   5.612   1.350   3.857 -0.7875 -1.3173  1.5238
 5561TIP3   OH238173   3.459   3.841   5.595 -0.8306  0.9712 -0.9995
 5561TIP3    H138174   3.373   3.805   5.574 -0.5162 -1.1845  1.0441
 5561TIP3    H238175   3.442   3.901   5.667 -0.5440 -0.1869  0.0575
 5562TIP3   OH238176   1.416   0.122   2.008  0.8099 -0.2252 -0.6268
 5562TIP3    H138177   1.498   0.078   1.986  1.3039  0.9902 -1.3511
 5562TIP3    H238178   1.443   0.208   2.038 -0.0971 -0.5651  1.2665
 5563TIP3   OH238179   4.308   1.062   4.171 -0.2982  0.2874  0.1751
 5563TIP3    H138180   4.335   1.037   4.259  1.0816 -0.1358 -0.3491
 5563TIP3    H238181   4.216   1.086   4.180 -0.4114 -0.5797  1.5665
 5564TIP3   OH238182   0.946   5.340  14.410 -0.1586 -0.3236 -0.3925
 5564TIP3    H138183   0.974   5.397  14.482  3.9143 -1.7494 -0.5957
 5564TIP3    H238184   0.972   5.387  14.331  0.2072 -1.0049 -0.6862
 5565TIP3   OH238185   1.655   1.867   0.794 -0.1716 -0.1068 -0.1602
 5565TIP3    H138186   1.626   1.781   0.765  1.3255 -0.6742 -0.0988
 5565TIP3    H238187   1.646   1.865   0.889  0.4159 -0.4329 -0.1060
 5566TIP3   OH238188   2.072   3.924  12.423 -0.4055 -0.2993 -0.0398
 5566TIP3    H138189   2.020   4.004  12.434  1.3584  0.6827  1.8570
 5566TIP3    H238190   2.152   3.954  12.380 -0.0402 -1.2036  0.0024
 5567TIP3   OH238191   4.391   0.884   0.401 -0.4606  0.0772 -0.0848
 5567TIP3    H138192   4.404   0.803   0.353  0.2876  0.6523 -0.8863
 5567TIP3    H238193   4.479   0.911   0.427 -0.8415 -0.2525  1.7102
 5568TIP3   OH238194   1.815   5.840  13.420  0.3993 -0.3907  0.9108
 5568TIP3    H138195   1.721   5.841  13.404  0.6425 -0.7837 -0.6826
 5568TIP3    H238196   1.828   5.769  13.482 -0.2747 -0.8846  0.5098
 5569TIP3   OH238197   0.854   5.177  11.206  0.3534  0.4581 -0.2631
 5569TIP3    H138198   0.860   5.259  11.158 -2.2392  1.0938  0.3464
 5569TIP3    H238199   0.769   5.141  11.183  0.7076 -1.2225  0.7992
 5570TIP3   OH238200   6.794   5.282   3.516  0.0079  0.3247  0.0202
 5570TIP3    H138201   6.714   5.335   3.528 -1.3076 -1.0503 -2.0537
 5570TIP3    H238202   6.861   5.330   3.564 -2.1571  1.2215  2.4206
 5571TIP3   OH238203   0.986   4.436  10.910 -0.0853  0.0524 -0.0288
 5571TIP3    H138204   0.897   4.449  10.943  0.8576 -0.1777  2.8788
 5571TIP3    H238205   0.985   4.349  10.871 -1.2154  0.2485 -0.4928
 5572TIP3   OH238206   5.913   3.246   2.080 -0.3599  0.2611 -0.2023
 5572TIP3    H138207   5.992   3.301   2.080  0.0578 -0.2925 -1.4420
 5572TIP3    H238208   5.857   3.284   2.013 -0.6497 -0.0306 -0.1271
 5573TIP3   OH238209   3.957   2.984   0.619 -0.2193  0.6210 -0.4745
 5573TIP3    H138210   3.887   2.920   0.605 -0.4363  0.8886 -0.6170
 5573TIP3    H238211   4.038   2.933   0.613 -0.4187  0.1759  0.3915
 5574TIP3   OH238212   0.252   4.222  12.086 -0.0150  0.0109 -0.1503
 5574TIP3    H138213   0.318   4.291  12.085  0.4310 -0.4093  0.0383
 5574TIP3    H238214   0.212   4.228  12.173 -1.0992  1.0734 -0.6891
 5575TIP3   OH238215   6.418   4.689  16.980 -0.1151  0.2374  0.2639
 5575TIP3    H138216   6.396   4.667  17.070  2.1560  0.2781  0.8735
 5575TIP3    H238217   6.425   4.785  16.980 -1.3925  0.3576 -0.3090
 5576TIP3   OH238218   5.156   3.740  16.210  0.3530  0.2004 -0.4138
 5576TIP3    H138219   5.071   3.707  16.238  0.3759 -0.5800 -1.1961
 5576TIP3    H238220   5.140   3.829  16.181  0.3114  1.0224  1.9181
 5577TIP3   OH238221   0.185   4.465  15.086 -0.0774 -0.2555 -0.2798
 5577TIP3    H138222   0.196   4.398  15.019  0.2593  0.5355 -1.0229
 5577TIP3    H238223   0.177   4.547  15.038  0.2731  0.3388  0.6516
 5578TIP3   OH238224   2.607   1.804  17.001 -0.0729  0.4111 -0.0905
 5578TIP3    H138225   2.549   1.879  16.989 -1.1530 -0.5167 -0.8644
 5578TIP3    H238226   2.577   1.762  17.082 -0.4062  0.0057 -0.4194
 5579TIP3   OH238227   1.810   3.003  15.234  0.1680 -0.4291 -0.1919
 5579TIP3    H138228   1.868   2.934  15.202  0.1896  0.9376 -3.5861
 5579TIP3    H238229   1.733   2.957  15.266  0.6828 -2.1007 -1.2111
 5580TIP3   OH238230   5.254   5.799   2.230  0.8070 -0.3241 -0.5322
 5580TIP3    H138231   5.222   5.862   2.166 -1.9032 -1.9246 -0.9110
 5580TIP3    H238232   5.204   5.720   2.213 -0.6546 -0.6832  3.9552
 5581TIP3   OH238233   1.294   6.448   4.583 -0.0203 -0.0599 -0.4594
 5581TIP3    H138234   1.249   6.467   4.501 -0.1010 -0.7149 -0.5767
 5581TIP3    H238235   1.249   6.370   4.617  0.4213 -0.1686 -0.1140
 5582TIP3   OH238236   5.836   4.160  14.067  0.1731 -0.5894 -0.3878
 5582TIP3    H138237   5.787   4.084  14.099 -1.3309  0.4784 -0.0340
 5582TIP3    H238238   5.775   4.232  14.074  1.3053  0.5262 -1.4941
 5583TIP3   OH238239   3.218   3.900   1.930 -0.8608 -0.3877 -0.8748
 5583TIP3    H138240   3.292   3.961   1.928 -1.1017  0.0877  1.4940
 5583TIP3    H238241   3.255   3.819   1.963 -1.1074 -0.6236 -1.1769
 5584TIP3   OH238242   6.285   5.492   6.897 -0.0918  0.1047 -0.1996
 5584TIP3    H138243   6.318   5.564   6.843  1.0329  0.8652  1.4318
 5584TIP3    H238244   6.327   5.414   6.861  0.9452  0.6502 -0.2177
 5585TIP3   OH238245   2.274   1.830   3.981  0.2811  0.3954 -0.4000
 5585TIP3    H138246   2.191   1.815   4.025  0.1948 -2.6896 -1.4359
 5585TIP3    H238247   2.312   1.906   4.027 -1.8834  0.2563  1.8013
 5586TIP3   OH238248   6.412   5.726   2.843 -0.6498  0.2439 -0.4410
 5586TIP3    H138249   6.425   5.818   2.821 -0.9323  0.1898 -0.8367
 5586TIP3    H238250   6.371   5.688   2.766  0.7955 -0.5446 -0.8600
 5587TIP3   OH238251   6.555   2.070  13.381  0.3717  0.4224 -0.8857
 5587TIP3    H138252   6.499   1.999  13.411  1.5933  0.6126  2.1560
 5587TIP3    H238253   6.501   2.149  13.388 -0.4570  0.0821 -2.7216
 5588TIP3   OH238254   4.269   4.401   0.988  0.0150  0.2645  0.1423
 5588TIP3    H138255   4.307   4.445   1.064  0.1362 -0.6808  0.6300
 5588TIP3    H238256   4.189   4.361   1.020  0.5565 -0.9514  0.0076
 5589TIP3   OH238257   2.703   1.521   0.905  0.5289 -0.3192  0.8102
 5589TIP3    H138258   2.727   1.497   0.994  1.0815 -1.1827  0.4468
 5589TIP3    H238259   2.620   1.476   0.889  0.7492 -0.6792  0.6762
 5590TIP3   OH238260   3.500   4.345   3.802 -0.2573 -0.4889  0.1767
 5590TIP3    H138261   3.556   4.402   3.854  1.0600  0.7309 -2.3725
 5590TIP3    H238262   3.419   4.338   3.852  0.3159  1.8966  1.5888
 5591TIP3   OH238263   4.723   4.586   5.461 -0.3302  0.3132 -0.1945
 5591TIP3    H138264   4.636   4.548   5.471  0.2226 -0.9606 -0.0579
 5591TIP3    H238265   4.736   4.594   5.367 -0.3395 -0.0968 -0.2299
 5592TIP3   OH238266   2.064   3.065  13.486 -0.2412  0.0259 -0.2905
 5592TIP3    H138267   2.131   3.049  13.552 -1.2396  0.2101  0.7955
 5592TIP3    H238268   1.982   3.072  13.535 -1.1090 -0.4344 -1.5946
 5593TIP3   OH238269   0.080   5.107  15.269 -0.0439 -0.6679  0.1565
 5593TIP3    H138270   0.056   5.150  15.187 -0.8082 -1.9869 -0.3427
 5593TIP3    H238271   0.143   5.166  15.309 -0.6743  0.6629 -0.7271
 5594TIP3   OH238272   1.698   4.866  15.277 -0.1797 -0.1056  0.7621
 5594TIP3    H138273   1.791   4.846  15.287 -0.4203 -1.1888  0.9438
 5594TIP3    H238274   1.696   4.937  15.212  0.6758 -1.3583 -0.7007
 5595TIP3   OH238275   6.095   0.452  12.128 -0.2598  0.0161  0.2262
 5595TIP3    H138276   6.020   0.472  12.071  0.0858  1.7664  0.3280
 5595TIP3    H238277   6.110   0.533  12.177  0.6018 -0.8755  1.4945
 5596TIP3   OH238278   4.734   0.587  11.864  0.3351  0.4604 -0.4181
 5596TIP3    H138279   4.758   0.516  11.804  2.0089  0.1895  0.4968
 5596TIP3    H238280   4.639   0.588  11.863  0.3047 -0.3718 -2.0833
 5597TIP3   OH238281   2.242   4.158  13.443  0.5458  0.4833  0.9412
 5597TIP3    H138282   2.205   4.206  13.369  0.6930 -1.3454 -0.3744
 5597TIP3    H238283   2.333   4.143  13.419  0.2690 -1.2231  0.8902
 5598TIP3   OH238284   1.721   2.612   1.985 -0.3508  0.1088  0.1447
 5598TIP3    H138285   1.762   2.598   2.071  0.2760 -0.4903 -0.2460
 5598TIP3    H238286   1.630   2.584   1.998 -0.4171  0.5800  0.7674
 5599TIP3   OH238287   1.107   4.373   0.218  0.4073 -0.2079 -0.2159
 5599TIP3    H138288   1.117   4.432   0.292 -1.0389 -0.5633  0.2801
 5599TIP3    H238289   1.168   4.407   0.152  0.9468  0.7211  0.7319
 5600TIP3   OH238290   1.710   0.693   0.509  0.6536  0.0800 -0.2368
 5600TIP3    H138291   1.630   0.643   0.527  1.0503 -0.8134 -0.8901
 5600TIP3    H238292   1.686   0.753   0.439  0.2446  0.6484  0.3760
 5601TIP3   OH238293   2.295   2.495   4.841 -0.2322 -0.0135  0.0189
 5601TIP3    H138294   2.334   2.417   4.803 -2.0455 -0.5808 -0.7961
 5601TIP3    H238295   2.363   2.562   4.835  1.5580 -1.6270  1.2585
 5602TIP3   OH238296   5.615   4.593  17.314  0.2992  0.2375  0.3581
 5602TIP3    H138297   5.700   4.631  17.336 -0.3449  1.0339  1.6540
 5602TIP3    H238298   5.620   4.503  17.347  1.1764 -0.2593 -1.0368
 5603TIP3   OH238299   0.887   0.579  16.563  0.6767 -0.9654 -0.0353
 5603TIP3    H138300   0.964   0.633  16.580  1.0271 -1.1602 -0.9449
 5603TIP3    H238301   0.843   0.621  16.490 -0.3888 -0.5581  0.8182
 5604TIP3   OH238302   2.758   2.832   4.387 -0.0695  0.1902  0.7782
 5604TIP3    H138303   2.729   2.898   4.450 -0.9906  0.2287  0.3252
 5604TIP3    H238304   2.810   2.770   4.439 -2.0735 -0.6304  1.9137
 5605TIP3   OH238305   3.510   4.082   3.186  0.3939 -0.5366  0.0552
 5605TIP3    H138306   3.555   4.111   3.265  0.4270 -0.5642  0.0466
 5605TIP3    H238307   3.486   4.162   3.141 -0.2873 -0.4984  0.4633
 5606TIP3   OH238308   1.913   0.230   5.739  0.1228 -0.0015  0.0628
 5606TIP3    H138309   1.955   0.301   5.690 -2.8690  1.1924 -1.0036
 5606TIP3    H238310   1.871   0.273   5.813  1.5124 -1.2939  1.6848
 5607TIP3   OH238311   5.348   3.192   5.321  0.3843  0.5054  0.0596
 5607TIP3    H138312   5.338   3.266   5.261 -0.0767  1.6777  1.5426
 5607TIP3    H238313   5.264   3.185   5.365  0.2049 -1.3288 -0.4781
 5608TIP3   OH238314   4.675   5.513  12.734  0.7089 -0.4731  1.0973
 5608TIP3    H138315   4.585   5.540  12.749  1.0534  1.0747  0.5771
 5608TIP3    H238316   4.705   5.567  12.661  2.1615 -0.7145  1.4745
 5609TIP3   OH238317   6.424   5.075  14.499  0.5053 -0.0588 -0.4830
 5609TIP3    H138318   6.516   5.079  14.527  1.2956 -1.5519 -2.6248
 5609TIP3    H238319   6.396   4.986  14.519 -1.0646  0.8360  1.6317
 5610TIP3   OH238320   1.137   3.349  14.580  0.0241 -0.0311  0.6415
 5610TIP3    H138321   1.068   3.300  14.625 -0.1165  0.7717  1.3255
 5610TIP3    H238322   1.198   3.282  14.550  0.6654 -0.5647  2.9381
 5611TIP3   OH238323   0.527   5.993   5.914  0.1972 -0.5938  0.4198
 5611TIP3    H138324   0.554   5.961   6.000 -0.3878 -2.5920 -0.0930
 5611TIP3    H238325   0.600   5.974   5.856 -0.5536 -2.0896 -0.1014
 5612TIP3   OH238326   3.512   0.694   0.359  0.0770 -0.4141 -0.1264
 5612TIP3    H138327   3.501   0.645   0.277  0.7940 -0.0414 -0.4586
 5612TIP3    H238328   3.606   0.710   0.365 -0.0898  0.5299  0.2016
 5613TIP3   OH238329   0.901   0.274   5.271 -0.6934 -0.4126 -0.4582
 5613TIP3    H138330   0.813   0.264   5.308 -0.2746  1.2754  1.1643
 5613TIP3    H238331   0.928   0.362   5.298  2.0008 -1.3553  0.2147
 5614TIP3   OH238332   6.307   4.659   4.989 -0.6461  0.2402 -0.2384
 5614TIP3    H138333   6.228   4.626   5.033  1.3412 -1.7605  2.2315
 5614TIP3    H238334   6.326   4.742   5.033 -0.9734  0.3504 -0.3055
 5615TIP3   OH238335   4.164   2.068  12.237 -0.5379  0.0365  0.1031
 5615TIP3    H138336   4.216   1.988  12.234 -0.2019  0.2449  0.3524
 5615TIP3    H238337   4.109   2.064  12.159 -0.4179 -0.3656  0.0382
 5616TIP3   OH238338   3.921   4.469   5.068  0.4101  0.6042  0.8481
 5616TIP3    H138339   3.870   4.389   5.055 -1.5298  1.0660  4.4929
 5616TIP3    H238340   3.867   4.539   5.030  0.9293  0.5110 -0.0923
 5617TIP3   OH238341   3.796   6.281   5.535 -0.0403 -0.4277  0.2811
 5617TIP3    H138342   3.745   6.219   5.587  0.8851 -1.1145  0.3917
 5617TIP3    H238343   3.816   6.352   5.596  0.0747 -0.6887  0.5512
 5618TIP3   OH238344   5.115   1.512   0.118  0.5681  0.6188  0.2843
 5618TIP3    H138345   5.055   1.458   0.169  0.2901  0.0334 -0.6337
 5618TIP3    H238346   5.196   1.513   0.170  0.4224 -0.2895  0.5478
 5619TIP3   OH238347   4.265   0.553   2.457 -0.4179  0.0276 -0.2178
 5619TIP3    H138348   4.310   0.618   2.510 -0.1691 -0.8281  0.6442
 5619TIP3    H238349   4.181   0.539   2.502 -0.4300 -0.3124 -0.3426
 5620TIP3   OH238350   2.234   3.738   4.010  0.3472 -0.3236  0.0141
 5620TIP3    H138351   2.240   3.700   4.098 -0.8879 -0.5867  0.0048
 5620TIP3    H238352   2.192   3.822   4.023  1.2871  0.1953 -0.2002
 5621TIP3   OH238353   6.572   6.180  13.119 -0.4638 -0.2894 -0.1395
 5621TIP3    H138354   6.624   6.183  13.200 -3.4066  2.7865  1.9145
 5621TIP3    H238355   6.621   6.233  13.057 -0.2432  1.1851  1.2112
 5622TIP3   OH238356   5.792   3.446   5.523  0.0552 -0.4144 -0.3231
 5622TIP3    H138357   5.732   3.371   5.521 -1.9123  1.0565  0.2369
 5622TIP3    H238358   5.744   3.515   5.478  1.6178  0.6634 -0.3904
 5623TIP3   OH238359   5.165   0.234   0.865  0.1378  0.4589  0.0041
 5623TIP3    H138360   5.231   0.267   0.926 -0.0186 -1.3476  1.2359
 5623TIP3    H238361   5.100   0.191   0.921 -0.2878 -0.8148 -1.3986
 5624TIP3   OH238362   1.081   6.413  13.925  0.2928 -0.7618  0.1557
 5624TIP3    H138363   1.029   6.367  13.859  0.7915 -0.2296 -0.6244
 5624TIP3    H238364   1.171   6.383  13.909  0.4121 -0.6566  0.6244
 5625TIP3   OH238365   5.909   3.855  15.914 -0.0450 -0.9809 -0.3531
 5625TIP3    H138366   5.999   3.834  15.893 -0.1062 -1.2862 -0.3107
 5625TIP3    H238367   5.890   3.934  15.863 -0.9541 -3.0305 -3.4482
 5626TIP3   OH238368   0.496   2.715   1.980  0.3324 -0.0378  0.1975
 5626TIP3    H138369   0.485   2.687   2.070 -0.2590 -0.1471  0.0957
 5626TIP3    H238370   0.524   2.636   1.933 -1.8512 -0.6539 -0.1922
 5627TIP3   OH238371   6.759   5.694   2.842  0.5985  0.1905  0.2197
 5627TIP3    H138372   6.708   5.638   2.901 -0.9423  0.4510 -0.8369
 5627TIP3    H238373   6.774   5.640   2.765  0.5735  0.6613 -0.1151
 5628TIP3   OH238374   1.315   5.217   1.754  0.2063  0.2547 -0.1315
 5628TIP3    H138375   1.353   5.279   1.692  0.6032 -0.3170 -0.4691
 5628TIP3    H238376   1.390   5.176   1.797  0.1701 -2.5045 -2.3897
 5629TIP3   OH238377   0.465   5.641   5.523  0.5583 -0.1258  0.1731
 5629TIP3    H138378   0.413   5.713   5.560  2.0885  0.8812  0.4205
 5629TIP3    H238379   0.449   5.567   5.582  0.1484  0.4298  0.7701
 5630TIP3   OH238380   1.663   0.623  14.131  0.3770  0.6552 -0.1453
 5630TIP3    H138381   1.729   0.567  14.171 -0.5039  0.1499  0.6639
 5630TIP3    H238382   1.616   0.565  14.071  0.1930  0.8125 -0.1551
 5631TIP3   OH238383   2.481   6.403  14.192 -0.2674 -0.1721 -0.4057
 5631TIP3    H138384   2.541   6.466  14.151  2.6478 -1.0255  2.1715
 5631TIP3    H238385   2.440   6.452  14.264  0.5466 -0.6481  0.4049
 5632TIP3   OH238386   4.508   4.800  14.773 -0.0655  0.9767 -0.0183
 5632TIP3    H138387   4.535   4.750  14.850  0.9458  1.4255 -0.0695
 5632TIP3    H238388   4.413   4.805  14.780 -0.2806 -1.4691 -0.3299
 5633TIP3   OH238389   2.759   6.257   3.740 -0.1490  0.5500 -0.4457
 5633TIP3    H138390   2.674   6.217   3.759 -0.9802  2.8922  1.1238
 5633TIP3    H238391   2.784   6.218   3.656 -1.1868 -2.6149  0.5640
 5634TIP3   OH238392   1.470   5.069   2.425 -0.0167 -0.7039  0.5673
 5634TIP3    H138393   1.501   5.010   2.493  2.4576 -0.9500 -0.6427
 5634TIP3    H238394   1.513   5.152   2.444 -2.0797  0.2779  1.2424
 5635TIP3   OH238395   4.739   1.345  17.228 -0.5632 -0.6516 -0.2101
 5635TIP3    H138396   4.776   1.273  17.278  0.7365  0.4237  0.4541
 5635TIP3    H238397   4.800   1.356  17.154 -0.5979 -0.0829 -0.1595
 5636TIP3   OH238398   0.846   6.234  12.350  0.2919  0.5373  0.1333
 5636TIP3    H138399   0.759   6.220  12.387  0.0282 -2.1869 -1.2097
 5636TIP3    H238400   0.834   6.302  12.284 -0.9047  0.0657 -0.1657
 5637TIP3   OH238401   5.704   4.181  11.132  0.3104 -0.1000 -0.1587
 5637TIP3    H138402   5.690   4.086  11.129  0.6673 -0.1354 -1.6113
 5637TIP3    H238403   5.704   4.208  11.040  1.6175  1.1037  0.1639
 5638TIP3   OH238404   0.827   1.265   2.155 -0.5205  0.1477 -0.1105
 5638TIP3    H138405   0.773   1.198   2.197 -0.8738  1.0360  0.8941
 5638TIP3    H238406   0.904   1.217   2.122 -1.9341 -1.1673 -1.6879
 5639TIP3   OH238407   6.074   0.334  15.766  0.2208  0.2208  0.0008
 5639TIP3    H138408   6.117   0.386  15.699  0.9701 -0.1732  0.1578
 5639TIP3    H238409   6.145   0.283  15.806 -0.5490 -1.3760 -0.5551
 5640TIP3   OH238410   5.831   6.284  15.761  0.1266  0.4327 -0.0439
 5640TIP3    H138411   5.738   6.264  15.768  0.1765  0.5577  1.1678
 5640TIP3    H238412   5.858   6.244  15.678 -0.7319 -0.6585  0.1830
 5641TIP3   OH238413   2.259   1.007  11.773 -0.5379  0.3911 -0.4053
 5641TIP3    H138414   2.315   0.951  11.719 -1.7101 -1.1553 -0.1040
 5641TIP3    H238415   2.275   1.096  11.741  0.7991 -0.1973 -1.4460
 5642TIP3   OH238416   6.022   0.987  17.039 -0.0192 -0.0352  0.2897
 5642TIP3    H138417   6.101   1.041  17.040  0.8423 -1.2597  0.7234
 5642TIP3    H238418   5.994   0.987  16.947 -0.4590  1.7072  0.3949
 5643TIP3   OH238419   4.724   1.424  11.590  0.0842 -0.0490  0.1937
 5643TIP3    H138420   4.669   1.346  11.580  0.1152 -0.3250  1.8394
 5643TIP3    H238421   4.796   1.411  11.529 -1.1398 -0.1621 -1.2779
 5644TIP3   OH238422   3.430   4.818   2.024  0.1467 -0.3227 -0.0716
 5644TIP3    H138423   3.466   4.729   2.022 -0.4874 -0.5757 -1.1785
 5644TIP3    H238424   3.397   4.829   2.113  3.4804  0.1798  1.2449
 5645TIP3   OH238425   5.901   2.404  16.076  0.3378  0.2529  0.1168
 5645TIP3    H138426   5.897   2.380  16.169  1.4318 -0.6986 -0.0627
 5645TIP3    H238427   5.849   2.485  16.070 -0.5641 -0.2075  1.3662
 5646TIP3   OH238428   6.115   2.097  14.068  0.0624 -0.3482 -0.1639
 5646TIP3    H138429   6.193   2.097  14.013  1.5530 -1.3403  1.8614
 5646TIP3    H238430   6.077   2.009  14.056 -1.3543  0.4233 -1.8545
 5647TIP3   OH238431   6.676   6.041   4.885 -0.0551 -0.0196  0.1843
 5647TIP3    H138432   6.596   6.074   4.843  1.0085  0.3614 -1.6446
 5647TIP3    H238433   6.736   6.115   4.884  0.0605 -0.0347  2.3754
 5648TIP3   OH238434   5.599   4.499   4.926 -0.2875 -0.6529 -0.1270
 5648TIP3    H138435   5.520   4.516   4.874  0.7942  0.3183 -1.5388
 5648TIP3    H238436   5.647   4.582   4.924  1.4757 -1.6355 -0.5812
 5649TIP3   OH238437   1.075   0.698  12.937  0.4134 -0.0004 -0.0573
 5649TIP3    H138438   1.059   0.786  12.970 -2.7041 -1.5962  3.2364
 5649TIP3    H238439   1.161   0.675  12.972 -0.0177  0.7281  1.5710
 5650TIP3   OH238440   1.006   1.190  12.815  0.0827 -0.3872  0.4131
 5650TIP3    H138441   0.966   1.264  12.861 -0.8279  0.9741 -2.3362
 5650TIP3    H238442   1.080   1.229  12.768 -1.1226 -0.9083 -2.0347
 5651TIP3   OH238443   2.428   2.508  14.574  0.3283  0.5280 -0.5662
 5651TIP3    H138444   2.508   2.542  14.616  0.9637 -0.7225 -0.7101
 5651TIP3    H238445   2.459   2.437  14.518 -0.8991  0.0400 -0.6558
 5652TIP3   OH238446   0.700   5.210   5.680 -0.2497  0.1873  0.2379
 5652TIP3    H138447   0.608   5.218   5.707 -0.4125 -0.9986  0.0744
 5652TIP3    H238448   0.726   5.122   5.705  0.2313 -0.2205 -1.5027
 5653TIP3   OH238449   6.299   4.743  13.279 -0.2372  0.8926  0.4352
 5653TIP3    H138450   6.210   4.756  13.247 -0.4549 -1.8069 -0.2456
 5653TIP3    H238451   6.290   4.691  13.358  0.7334 -0.2938 -0.1969
 5654TIP3   OH238452   2.049   6.659  16.122  0.2977 -0.2082  0.4123
 5654TIP3    H138453   2.108   6.733  16.137  0.3917 -0.1406 -0.2659
 5654TIP3    H238454   2.007   6.678  16.038 -0.2547 -0.5484  0.6008
 5655TIP3   OH238455   0.996   4.210  10.717  0.3645 -0.3709  0.4673
 5655TIP3    H138456   0.982   4.128  10.670 -1.1119  1.4051 -2.4615
 5655TIP3    H238457   1.075   4.248  10.678 -0.6648  0.9634 -0.4187
 5656TIP3   OH238458   2.486   6.341   4.640 -0.4220 -0.0932  0.1366
 5656TIP3    H138459   2.464   6.415   4.583  1.4090  0.8080  0.4950
 5656TIP3    H238460   2.421   6.344   4.710  0.6187  2.3609  1.1276
 5657TIP3   OH238461   5.690   4.049  14.447  0.0329  0.4178 -0.0963
 5657TIP3    H138462   5.745   3.988  14.397  0.5843 -0.0753  1.0572
 5657TIP3    H238463   5.606   4.003  14.456  0.1229  0.2543 -0.0794
 5658TIP3   OH238464   2.722   4.301   3.051  0.3001 -0.0837  0.0092
 5658TIP3    H138465   2.672   4.221   3.065 -0.2378  0.1664 -0.4565
 5658TIP3    H238466   2.797   4.274   2.999  0.4034 -0.3735  0.3017
 5659TIP3   OH238467   6.344   0.881   3.862  0.2264 -0.2767  1.0449
 5659TIP3    H138468   6.261   0.876   3.813  0.6783  2.6443 -0.2044
 5659TIP3    H238469   6.411   0.868   3.795  0.8355 -1.2608  1.8230
 5660TIP3   OH238470   0.879   3.675  11.283  0.1348 -0.5173  0.1910
 5660TIP3    H138471   0.919   3.713  11.361  0.2079  0.1797 -0.1769
 5660TIP3    H238472   0.872   3.582  11.303 -1.1657 -0.1626  1.6136
 5661TIP3   OH238473   6.210   1.357  13.470  0.2451  0.0417 -0.2140
 5661TIP3    H138474   6.293   1.323  13.437 -0.3201 -0.2093 -1.4231
 5661TIP3    H238475   6.164   1.389  13.392 -0.4054  1.0459  0.5527
 5662TIP3   OH238476   5.992   3.314  13.027  0.1209  0.3150 -0.1332
 5662TIP3    H138477   5.983   3.246  13.093  0.5402 -0.2715 -0.6699
 5662TIP3    H238478   6.062   3.283  12.969 -0.7890  0.4333 -1.3288
 5663TIP3   OH238479   5.930   3.127   3.193 -0.3870  0.0359 -0.4536
 5663TIP3    H138480   6.013   3.086   3.218  1.6254  3.9522  0.0305
 5663TIP3    H238481   5.873   3.116   3.269  0.8772  0.0794  0.5362
 5664TIP3   OH238482   2.064   6.654  14.332 -0.4286 -0.4605  0.5180
 5664TIP3    H138483   2.074   6.619  14.244 -0.6839  1.3893 -0.2849
 5664TIP3    H238484   1.988   6.607  14.368  1.2778 -3.2198  0.8574
 5665TIP3   OH238485   4.763   3.277   4.393 -0.4217 -0.0767  0.0658
 5665TIP3    H138486   4.710   3.314   4.322  1.9839  0.5041 -1.5753
 5665TIP3    H238487   4.808   3.353   4.431  0.3672 -0.6969  0.3888
 5666TIP3   OH238488   0.908   4.008  11.287  0.2965 -0.4155  0.4912
 5666TIP3    H138489   0.900   3.921  11.248 -0.1315 -0.8183  1.4207
 5666TIP3    H238490   0.912   4.068  11.213 -0.8191 -1.1158 -0.1749
 5667TIP3   OH238491   6.233   1.027   6.201  0.3696 -0.1896 -0.7872
 5667TIP3    H138492   6.268   0.941   6.178  4.1971  0.1699  2.5560
 5667TIP3    H238493   6.303   1.089   6.181 -1.3912  1.8684 -0.9755
 5668TIP3   OH238494   1.736   1.687   1.967 -0.1278 -0.5210 -0.4298
 5668TIP3    H138495   1.729   1.664   1.875 -0.8892  0.5657 -0.6714
 5668TIP3    H238496   1.658   1.741   1.984  0.9179  0.8123  0.3706
 5669TIP3   OH238497   1.672   0.615   2.902 -0.1759  0.1038  0.5367
 5669TIP3    H138498   1.656   0.660   2.985  1.0978 -0.9125  1.3614
 5669TIP3    H238499   1.664   0.522   2.923  2.9357 -0.3284  0.1965
 5670TIP3   OH238500   1.663   4.860  11.282  0.3154  0.3835  0.3018
 5670TIP3    H138501   1.734   4.833  11.340  1.3581 -0.9114 -1.4809
 5670TIP3    H238502   1.586   4.815  11.315  1.5149 -3.0765 -1.1166
 5671TIP3   OH238503   0.265   5.274  15.439  0.1610  0.3760  0.8869
 5671TIP3    H138504   0.220   5.214  15.498 -0.6844  0.2112  0.1141
 5671TIP3    H238505   0.279   5.353  15.491  0.2816 -0.0919  1.5805
 5672TIP3   OH238506   1.930   3.499  13.177  0.1937 -0.6111  0.5332
 5672TIP3    H138507   1.879   3.425  13.211  1.5467 -0.4778  3.1238
 5672TIP3    H238508   1.955   3.548  13.255  3.0232  0.1401 -0.7233
 5673TIP3   OH238509   3.431   1.042   4.441 -0.9013  0.1966  0.1456
 5673TIP3    H138510   3.360   1.050   4.505  0.6432  1.6521  1.8056
 5673TIP3    H238511   3.511   1.042   4.494  0.4014 -0.2234 -1.7154
 5674TIP3   OH238512   6.102   3.190   3.512 -1.0107 -0.2595  0.4857
 5674TIP3    H138513   6.146   3.145   3.441 -2.2471  0.9996 -1.1591
 5674TIP3    H238514   6.040   3.126   3.547 -1.0086 -0.6193 -0.1599
 5675TIP3   OH238515   4.816   6.794   1.412 -0.4302  0.3235  0.1733
 5675TIP3    H138516   4.877   6.867   1.427 -0.0499 -0.0293  0.3620
 5675TIP3    H238517   4.859   6.741   1.345 -0.7795  0.3479 -0.0749
 5676TIP3   OH238518   6.311   4.056  11.742 -0.3726 -0.6166 -0.1226
 5676TIP3    H138519   6.288   4.094  11.826 -0.6690  0.1855 -0.5632
 5676TIP3    H238520   6.285   4.121  11.677  2.1327 -0.0994 -0.7292
 5677TIP3   OH238521   5.035   0.123   4.163  0.1417 -0.4599  0.3226
 5677TIP3    H138522   4.970   0.128   4.092 -0.3494 -0.2433  0.7870
 5677TIP3    H238523   4.984   0.130   4.243  0.4422 -2.9133  0.8070
 5678TIP3   OH238524   5.464   1.227   2.040 -0.0902 -0.2775  0.1413
 5678TIP3    H138525   5.499   1.172   1.970  2.2878 -0.3967  1.3205
 5678TIP3    H238526   5.473   1.316   2.006  0.8073 -0.3504  0.1604
 5679TIP3   OH238527   1.517   0.002  16.386  0.3408  0.2217  0.0338
 5679TIP3    H138528   1.571   0.073  16.421  1.8956 -1.6308  1.6612
 5679TIP3    H238529   1.579  -0.055  16.341 -0.5999 -0.8986  0.1231
 5680TIP3   OH238530   5.268   2.316  16.829  0.1325  0.4014 -0.1122
 5680TIP3    H138531   5.349   2.287  16.788 -1.0812 -0.0991 -2.2809
 5680TIP3    H238532   5.289   2.321  16.923  2.7115  0.5840 -0.6338
 5681TIP3   OH238533   2.893   6.216  14.385 -0.2957  0.3028 -0.3904
 5681TIP3    H138534   2.826   6.148  14.390 -0.1970  0.2420  0.1006
 5681TIP3    H238535   2.856   6.281  14.326 -0.2835 -0.2973 -1.0821
 5682TIP3   OH238536   0.691   0.395  14.608 -0.2609  0.2914  0.0628
 5682TIP3    H138537   0.665   0.304  14.596 -1.2029  0.6062 -0.3937
 5682TIP3    H238538   0.778   0.390  14.647 -0.8139 -0.8128  1.2599
 5683TIP3   OH238539   2.766   6.747  14.255  0.5081 -0.2936 -0.6310
 5683TIP3    H138540   2.712   6.703  14.189 -0.0786  1.5497 -1.4541
 5683TIP3    H238541   2.712   6.819  14.287  1.3037 -0.3245  0.8950
 5684TIP3   OH238542   3.502   1.690  16.192  0.2928  0.6900  0.1308
 5684TIP3    H138543   3.444   1.716  16.121 -0.1058 -1.5609 -0.4713
 5684TIP3    H238544   3.567   1.633  16.150 -1.1233 -2.3558  1.7582
 5685TIP3   OH238545   0.619   6.583   6.495 -0.9271 -0.0727  0.0092
 5685TIP3    H138546   0.598   6.581   6.401 -0.5639 -1.1467 -0.0683
 5685TIP3    H238547   0.706   6.623   6.499 -1.8293  1.9751  0.1000
 5686TIP3   OH238548   1.420   4.544  14.277  0.2014  0.5915  0.2649
 5686TIP3    H138549   1.334   4.562  14.316 -0.0944  0.0249 -0.1057
 5686TIP3    H238550   1.483   4.568  14.344 -0.2768  0.3716  0.7963
 5687TIP3   OH238551   2.708   1.088  13.983 -0.1428 -0.7240 -0.9777
 5687TIP3    H138552   2.752   1.115  14.064 -1.3243  2.0706 -1.1287
 5687TIP3    H238553   2.709   0.993  13.985  1.8764 -0.7408  1.1943
 5688TIP3   OH238554   1.334   4.274  17.328  0.1930 -0.1454 -0.3246
 5688TIP3    H138555   1.314   4.181  17.343  0.3072 -0.0324  0.5742
 5688TIP3    H238556   1.254   4.310  17.289  0.5279 -0.8543 -1.7282
 5689TIP3   OH238557   0.373   2.122  11.700 -0.1958  0.0351  0.5386
 5689TIP3    H138558   0.422   2.051  11.658 -1.8321 -0.5385 -0.4885
 5689TIP3    H238559   0.412   2.202  11.665 -0.1964 -0.4201 -0.5362
 5690TIP3   OH238560   2.072   6.304  15.985  0.3227 -0.5828  0.6578
 5690TIP3    H138561   1.977   6.307  15.975  0.2407 -1.4777  1.0339
 5690TIP3    H238562   2.097   6.394  16.006 -0.3077 -0.1212 -0.4766
 5691TIP3   OH238563   2.569   1.699   5.564  0.2593  0.3586 -0.0503
 5691TIP3    H138564   2.568   1.634   5.634  0.8449  0.1852 -0.1962
 5691TIP3    H238565   2.639   1.760   5.588  0.9983 -0.1407 -0.8592
 5692TIP3   OH238566   0.707   2.363  10.943  0.2313  0.1029 -0.1871
 5692TIP3    H138567   0.793   2.365  10.985  0.5925  0.9416 -0.9390
 5692TIP3    H238568   0.645   2.353  11.015  0.8840  0.8290  0.4844
 5693TIP3   OH238569   6.366   0.845   2.556  0.3518 -0.0001 -0.6251
 5693TIP3    H138570   6.347   0.844   2.650 -0.2213 -0.7956 -0.7375
 5693TIP3    H238571   6.349   0.756   2.528 -1.9117  0.7964 -1.9696
 5694TIP3   OH238572   0.401   2.239  14.093  0.4866 -0.0132  0.1489
 5694TIP3    H138573   0.397   2.260  14.000  0.3758  0.9959  0.3631
 5694TIP3    H238574   0.484   2.194  14.105  0.3846 -0.3779 -0.4770
 5695TIP3   OH238575   0.935   1.408  13.479 -0.1472  0.2143  0.3938
 5695TIP3    H138576   0.941   1.314  13.462 -1.2243  0.3153 -0.6606
 5695TIP3    H238577   1.008   1.426  13.538 -0.2993 -1.3962  1.1412
 5696TIP3   OH238578   1.340   4.641   1.995  0.1621 -0.0203 -0.1182
 5696TIP3    H138579   1.432   4.625   2.014  0.2754  1.3076  0.6116
 5696TIP3    H238580   1.326   4.604   1.907  0.8034 -2.2056  0.6492
 5697TIP3   OH238581   3.011   4.226   1.231  0.0940 -0.0383 -0.7529
 5697TIP3    H138582   2.962   4.168   1.291 -1.5753 -0.2655 -2.2624
 5697TIP3    H238583   2.952   4.239   1.157  1.7421  0.9903 -1.9426
 5698TIP3   OH238584   4.358   3.435   4.942  0.3388  0.5593 -0.1925
 5698TIP3    H138585   4.330   3.514   4.896  2.3155  0.2280 -2.1378
 5698TIP3    H238586   4.376   3.465   5.031  0.2596  2.1158 -0.6690
 5699TIP3   OH238587   4.119   4.417  11.299 -0.0089 -0.3918 -0.4725
 5699TIP3    H138588   4.095   4.327  11.275 -0.6039 -0.0907 -1.0316
 5699TIP3    H238589   4.215   4.417  11.299  0.0116 -0.6743 -1.8643
 5700TIP3   OH238590   0.981   2.147   1.680 -0.1792  0.6321  0.0736
 5700TIP3    H138591   1.031   2.092   1.741  1.5705  0.8301 -1.1100
 5700TIP3    H238592   0.963   2.227   1.729  1.1418  0.7604  0.3797
 5701TIP3   OH238593   4.841   2.784  12.429  0.2500  0.1600 -0.0151
 5701TIP3    H138594   4.857   2.857  12.489 -0.7440 -0.0890  0.5726
 5701TIP3    H238595   4.895   2.713  12.463 -0.4438 -0.0347  0.7050
 5702TIP3   OH238596   3.266   2.135  13.986 -0.2254 -0.0902  0.3302
 5702TIP3    H138597   3.231   2.143  14.075 -2.3598  1.2694 -0.5458
 5702TIP3    H238598   3.230   2.053  13.953  0.6148 -0.6247  0.7116
 5703TIP3   OH238599   1.205   3.976   1.332  0.5767  0.1660  0.0988
 5703TIP3    H138600   1.219   3.883   1.352 -3.3058 -0.4339  0.9236
 5703TIP3    H238601   1.190   3.977   1.237  0.6358 -0.0720  0.0844
 5704TIP3   OH238602   1.370   2.730   1.392 -0.5117 -0.2254 -0.1225
 5704TIP3    H138603   1.433   2.698   1.456 -2.0576 -2.9016  0.1902
 5704TIP3    H238604   1.423   2.783   1.332  1.9356 -1.7802  0.4779
 5705TIP3   OH238605   6.741   5.287   3.928  0.2043 -0.3643  0.3494
 5705TIP3    H138606   6.695   5.212   3.891 -1.9253  0.9686  0.1535
 5705TIP3    H238607   6.792   5.322   3.855 -0.4246 -0.4140 -0.1205
 5706TIP3   OH238608   6.595   0.980   4.863 -0.0572  0.8702 -0.0311
 5706TIP3    H138609   6.626   1.014   4.947  0.6354  0.8023 -0.2487
 5706TIP3    H238610   6.513   1.025   4.847 -0.0922  1.0304  0.5882
 5707TIP3   OH238611   4.706   0.906  17.184  0.3241 -0.4518 -0.1695
 5707TIP3    H138612   4.732   0.867  17.100 -0.4984 -1.6563  0.0991
 5707TIP3    H238613   4.780   0.890  17.242 -0.2502 -2.3385  0.1305
 5708TIP3   OH238614   6.553   2.518  13.658  0.1789  0.6897 -0.1795
 5708TIP3    H138615   6.606   2.521  13.578  1.3768  0.8290  0.6060
 5708TIP3    H238616   6.604   2.565  13.723 -1.4616  1.8600  0.3121
 5709TIP3   OH238617   3.938   4.962  15.707 -0.2192 -0.0616 -0.4792
 5709TIP3    H138618   4.005   5.003  15.652 -0.7701 -0.3211 -1.3638
 5709TIP3    H238619   3.873   4.929  15.645 -0.1785 -1.5915  0.2435
 5710TIP3   OH238620   3.895   2.293   0.378  0.8692  0.1547  0.9341
 5710TIP3    H138621   3.953   2.332   0.312  0.3565  0.2586  0.5457
 5710TIP3    H238622   3.937   2.210   0.400  1.2487  0.2968  0.7639
 5711TIP3   OH238623   5.833   3.392  15.440 -0.2093 -0.1428  0.3486
 5711TIP3    H138624   5.833   3.487  15.442  0.0027 -0.1490  1.8626
 5711TIP3    H238625   5.793   3.366  15.523 -1.1859 -1.3868 -0.4704
 5712TIP3   OH238626   3.394   0.147   4.023 -0.0521  0.8135  0.1507
 5712TIP3    H138627   3.355   0.107   4.100 -1.0174 -0.8217 -1.1176
 5712TIP3    H238628   3.326   0.206   3.990 -0.4368  0.0157 -0.5282
 5713TIP3   OH238629   5.662   4.481  13.245 -0.3801 -0.3714 -0.3814
 5713TIP3    H138630   5.719   4.545  13.201 -0.8924  0.3108 -0.0769
 5713TIP3    H238631   5.574   4.506  13.217 -0.7976  0.5711  1.5973
 5714TIP3   OH238632   0.796   5.192  14.582 -0.0065  0.1972 -0.4722
 5714TIP3    H138633   0.847   5.215  14.505 -0.2092  1.3938 -0.2651
 5714TIP3    H238634   0.838   5.112  14.615  0.2470 -0.1661 -1.6502
 5715TIP3   OH238635   5.818   0.400   5.746 -0.0238 -0.5147 -0.4631
 5715TIP3    H138636   5.785   0.377   5.659 -0.8951  0.2845 -0.3634
 5715TIP3    H238637   5.864   0.483   5.734  1.6670 -1.4126 -0.5164
 5716TIP3   OH238638   4.455   4.888   1.740 -0.0621  0.2398  0.2560
 5716TIP3    H138639   4.454   4.801   1.699 -2.3003  0.6053 -0.6105
 5716TIP3    H238640   4.494   4.945   1.673 -1.9107  0.4878 -0.6674
 5717TIP3   OH238641   5.709   5.276  14.815  0.2310  0.5549 -0.5709
 5717TIP3    H138642   5.770   5.332  14.767 -0.0721  1.8901  0.5137
 5717TIP3    H238643   5.758   5.196  14.831  2.5184  2.2502  1.9043
 5718TIP3   OH238644   0.949   3.216  16.250 -0.2835 -0.1726  0.0657
 5718TIP3    H138645   0.915   3.217  16.339  1.7034  3.2191  0.9594
 5718TIP3    H238646   1.038   3.183  16.259 -0.6389 -1.4953 -0.9943
 5719TIP3   OH238647   1.715   6.183   2.898  0.3322  0.6229  0.1390
 5719TIP3    H138648   1.724   6.165   2.992 -1.5748 -2.7352 -0.1359
 5719TIP3    H238649   1.630   6.227   2.891  0.1689  0.2831 -0.0375
 5720TIP3   OH238650   0.726   3.962  11.911 -0.5981 -1.0703  0.3345
 5720TIP3    H138651   0.687   4.044  11.878  0.4600 -0.2610  1.0089
 5720TIP3    H238652   0.755   3.916  11.832  1.0851  0.4162  0.0105
 5721TIP3   OH238653   3.597   2.484   3.757 -0.7350  0.0854  0.5803
 5721TIP3    H138654   3.598   2.473   3.662 -2.4697  1.7517  0.3025
 5721TIP3    H238655   3.690   2.482   3.782 -0.2278 -0.0476 -1.1827
 5722TIP3   OH238656   2.212   0.816   1.089  0.3891 -0.1025 -0.0740
 5722TIP3    H138657   2.222   0.748   1.022  0.5186 -1.1655  0.9979
 5722TIP3    H238658   2.207   0.898   1.039 -2.3874 -1.0565 -1.5963
 5723TIP3   OH238659   5.372   3.378   0.724 -0.6465  0.4429 -0.7142
 5723TIP3    H138660   5.284   3.414   0.723 -0.1749  1.8002  1.0286
 5723TIP3    H238661   5.387   3.347   0.635 -2.8574  0.1983 -1.0367
 5724TIP3   OH238662   0.406   0.742   6.034  0.0267  0.8094  0.1053
 5724TIP3    H138663   0.382   0.725   5.943  0.7109  2.6310 -0.4785
 5724TIP3    H238664   0.362   0.824   6.056  0.1857  0.6026  1.2944
 5725TIP3   OH238665   3.733   4.130   6.002  0.4318  0.1510  0.2468
 5725TIP3    H138666   3.809   4.072   6.008  0.1323 -0.1026  2.3393
 5725TIP3    H238667   3.660   4.076   6.031 -0.1747  1.0329  0.3942
 5726TIP3   OH238668   3.967   3.328  16.220 -0.5938 -0.2522 -0.0829
 5726TIP3    H138669   3.886   3.342  16.270 -0.6163 -0.0597 -0.1740
 5726TIP3    H238670   3.994   3.416  16.192  0.8178 -0.0390  1.7585
 5727TIP3   OH238671   3.214   0.820  15.843  0.4714 -0.2489  0.0182
 5727TIP3    H138672   3.161   0.897  15.862  0.1766 -0.2919 -0.6198
 5727TIP3    H238673   3.162   0.746  15.875  0.4688 -0.2342  0.0477
 5728TIP3   OH238674   6.304   3.152  16.220  0.1803  0.7532 -0.1315
 5728TIP3    H138675   6.278   3.238  16.187  1.0196  0.4680 -1.6469
 5728TIP3    H238676   6.396   3.143  16.194  1.2963  0.9037  3.2713
 5729TIP3   OH238677   6.573   2.008  13.110  0.5732 -0.0664  0.6877
 5729TIP3    H138678   6.627   2.081  13.080  0.3471  1.1370  3.0025
 5729TIP3    H238679   6.562   2.023  13.204 -1.6389 -1.6975  0.7674
 5730TIP3   OH238680   2.145   3.746   0.362 -0.4177 -0.3564  0.4075
 5730TIP3    H138681   2.117   3.738   0.271 -1.0405 -0.3247  0.5889
 5730TIP3    H238682   2.159   3.840   0.374 -1.2558 -0.2506  0.6027
 5731TIP3   OH238683   0.582   4.544   2.494 -0.1249 -0.2718  0.4936
 5731TIP3    H138684   0.534   4.463   2.476 -2.1339  0.4205  2.2595
 5731TIP3    H238685   0.665   4.516   2.533 -0.4045 -1.4905  0.2325
 5732TIP3   OH238686   4.643   3.244   5.987  0.4058  0.1174  0.0653
 5732TIP3    H138687   4.610   3.156   6.001  0.7815 -0.0089  0.1747
 5732TIP3    H238688   4.664   3.248   5.893  2.4052 -0.6265  0.4448
 5733TIP3   OH238689   0.859   4.912   2.375 -0.0012 -0.1092  0.1640
 5733TIP3    H138690   0.806   4.983   2.412  1.4223  0.5450  1.0301
 5733TIP3    H238691   0.872   4.851   2.447  1.2320  0.2467  0.2764
 5734TIP3   OH238692   2.347   4.041   3.888  0.0730 -0.0446  0.0110
 5734TIP3    H138693   2.380   4.008   3.971 -3.2492  1.4476  2.1539
 5734TIP3    H238694   2.353   4.136   3.896  1.1853  0.1351 -2.2108
 5735TIP3   OH238695   2.460   5.479  16.881  0.0098  0.3001  0.4129
 5735TIP3    H138696   2.379   5.501  16.836 -0.8269 -0.5879  1.4472
 5735TIP3    H238697   2.517   5.555  16.866 -1.1260  1.0900 -0.0273
 5736TIP3   OH238698   1.030   5.082   0.413  0.0148 -0.1636 -0.1280
 5736TIP3    H138699   1.075   5.135   0.478 -0.9738 -0.6252  0.9760
 5736TIP3    H238700   1.086   5.086   0.336  0.9866  0.7823  0.5910
 5737TIP3   OH238701   4.884   0.468  11.674  0.2957  0.5524  0.0600
 5737TIP3    H138702   4.961   0.467  11.618 -0.0376 -0.8771 -0.3944
 5737TIP3    H238703   4.874   0.378  11.704 -1.1820  0.7163  0.1307
 5738TIP3   OH238704   4.938   4.088   5.762 -0.0044  0.0698  0.0551
 5738TIP3    H138705   5.023   4.044   5.753 -0.4104 -0.9822  1.0033
 5738TIP3    H238706   4.904   4.055   5.846 -1.3663  0.4386 -0.3393
 5739TIP3   OH238707   6.611   6.168   6.388 -0.2528  0.5808 -0.3647
 5739TIP3    H138708   6.645   6.254   6.415  1.5095  0.1834 -1.1739
 5739TIP3    H238709   6.607   6.173   6.293 -0.5051 -0.1107 -0.3914
 5740TIP3   OH238710   5.657   1.965  14.345 -0.1224 -0.0408 -0.0586
 5740TIP3    H138711   5.708   1.984  14.424  0.6712  2.6310 -1.0845
 5740TIP3    H238712   5.566   1.984  14.369  0.4126  3.8069 -0.4427
 5741TIP3   OH238713   5.384   5.630  15.328 -0.3941  0.6603 -0.1213
 5741TIP3    H138714   5.344   5.717  15.325  0.9730  1.3528  0.5710
 5741TIP3    H238715   5.431   5.628  15.412 -1.1139 -1.0914  0.2897
 5742TIP3   OH238716   0.776   0.223  11.335  0.8480  0.0450  0.3964
 5742TIP3    H138717   0.763   0.131  11.359  0.4980  0.0481  0.2220
 5742TIP3    H238718   0.690   0.253  11.307  1.2666 -0.0391 -1.0797
 5743TIP3   OH238719   0.270   2.947  11.755  0.0147  0.4200  0.0885
 5743TIP3    H138720   0.343   2.929  11.697 -1.0514  2.0049 -1.8860
 5743TIP3    H238721   0.307   3.004  11.823  1.0158 -0.4309  0.2717
 5744TIP3   OH238722   0.792   4.541   1.007 -0.1507 -0.1994  0.1691
 5744TIP3    H138723   0.785   4.453   0.970  1.8494 -0.4162  0.2455
 5744TIP3    H238724   0.811   4.527   1.099  0.6454  0.3073  0.0842
 5745TIP3   OH238725   5.456   0.980   3.602 -0.4806 -0.3538  0.5341
 5745TIP3    H138726   5.535   0.940   3.638 -0.4246  1.6630  2.9626
 5745TIP3    H238727   5.485   1.025   3.523  0.9460  0.5612  1.5122
 5746TIP3   OH238728   2.440   0.771   1.288  0.1806  0.1386 -0.0403
 5746TIP3    H138729   2.388   0.764   1.207  1.2457  2.9020 -1.1152
 5746TIP3    H238730   2.511   0.709   1.277 -1.2001 -1.5290  0.0935
 5747TIP3   OH238731   3.204   0.184   0.352 -0.0443  0.1999  0.1498
 5747TIP3    H138732   3.254   0.102   0.345 -0.2081  0.1608 -0.8088
 5747TIP3    H238733   3.184   0.192   0.445 -1.4451 -1.7186  0.0816
 5748TIP3   OH238734   3.378   6.241  11.104 -0.2124  0.1162 -0.2564
 5748TIP3    H138735   3.402   6.318  11.154 -0.6132 -0.0819  0.2430
 5748TIP3    H238736   3.350   6.177  11.169 -0.9727 -0.0615 -0.7450
 5749TIP3   OH238737   0.724   2.130  11.504  0.1848  0.0865  0.1669
 5749TIP3    H138738   0.808   2.111  11.547  1.4373  0.4870 -1.9580
 5749TIP3    H238739   0.681   2.045  11.498  2.0143 -0.7914 -1.7561
 5750TIP3   OH238740   1.008   3.390  17.018 -0.5994 -0.2662  0.5579
 5750TIP3    H138741   1.079   3.392  17.083 -1.0966 -2.0009  1.1959
 5750TIP3    H238742   1.034   3.322  16.957  0.4164  2.0835 -1.8218
 5751TIP3   OH238743   2.067   3.446   5.045  0.1369  0.4806  0.7486
 5751TIP3    H138744   2.079   3.539   5.023  2.7344  0.0500 -0.0203
 5751TIP3    H238745   2.121   3.433   5.123 -2.1882  0.0940  2.3772
 5752TIP3   OH238746   1.083   4.351  15.668 -0.0614  0.2666  0.1688
 5752TIP3    H138747   1.041   4.274  15.705  2.0818 -1.0337  0.0807
 5752TIP3    H238748   1.011   4.407  15.639 -1.8037  0.0580  3.5980
 5753TIP3   OH238749   2.953   4.492  14.603  0.1212  0.3180  0.3713
 5753TIP3    H138750   3.030   4.532  14.563  1.3309 -1.5766  0.6800
 5753TIP3    H238751   2.927   4.423  14.542 -0.0137 -0.4382  1.2491
 5754TIP3   OH238752   1.146   3.064   5.661  0.1166 -0.1814 -0.2801
 5754TIP3    H138753   1.149   3.120   5.738  1.1586 -0.8646  0.1917
 5754TIP3    H238754   1.211   3.101   5.602 -1.0082  0.6298 -1.0760
 5755TIP3   OH238755   4.278   4.684  11.626  0.2377 -0.5167 -0.8107
 5755TIP3    H138756   4.194   4.704  11.584  1.1432  0.1292 -2.4243
 5755TIP3    H238757   4.317   4.617  11.570  0.7801 -0.8623 -0.0358
 5756TIP3   OH238758   1.675   0.372  13.437 -0.4902 -0.4748  0.2756
 5756TIP3    H138759   1.700   0.397  13.348  1.0147  0.5376  0.9517
 5756TIP3    H238760   1.710   0.283  13.448  0.4096 -0.1303  0.2621
 5757TIP3   OH238761   3.142   0.900   3.884 -0.4012  0.2052  0.8267
 5757TIP3    H138762   3.074   0.854   3.934 -1.8423  0.7139 -0.5865
 5757TIP3    H238763   3.095   0.969   3.838  1.1112  0.6663 -0.0886
 5758TIP3   OH238764   1.442   3.845   4.106 -0.5269 -0.2967 -0.1643
 5758TIP3    H138765   1.365   3.857   4.162 -0.1611 -1.8356  0.7351
 5758TIP3    H238766   1.516   3.851   4.166  0.1227  1.4588 -1.0644
 5759TIP3   OH238767   4.495   5.103  14.231 -0.0872 -0.4246 -0.3869
 5759TIP3    H138768   4.557   5.054  14.176 -0.3131 -0.9285 -0.2006
 5759TIP3    H238769   4.542   5.183  14.254  0.0722 -0.2892 -1.1662
 5760TIP3   OH238770   1.369   3.970  14.281 -0.4038  0.8974  0.2419
 5760TIP3    H138771   1.275   3.982  14.271 -0.9100 -1.4606  1.4292
 5760TIP3    H238772   1.402   3.964  14.191 -0.9974  3.7127 -0.2484
 5761TIP3   OH238773   6.401   4.717   2.928  0.2170  0.2895 -0.2988
 5761TIP3    H138774   6.469   4.652   2.949  0.0390  0.6422  1.4983
 5761TIP3    H238775   6.376   4.753   3.013 -2.7841 -0.3697 -0.8166
 5762TIP3   OH238776   0.267   0.179   5.599 -0.6888 -0.3290 -0.5074
 5762TIP3    H138777   0.295   0.089   5.614 -0.9886  0.0409  3.1589
 5762TIP3    H238778   0.180   0.184   5.639  0.1431  1.9972  1.2335
 5763TIP3   OH238779   4.535   0.744   4.919  0.2413  0.0708 -0.7931
 5763TIP3    H138780   4.465   0.708   4.974  0.3023  0.7824 -0.2329
 5763TIP3    H238781   4.537   0.837   4.941  2.3674 -0.1653  0.3574
 5764TIP3   OH238782   1.350   5.244   3.740  0.6694 -0.2713  0.0423
 5764TIP3    H138783   1.418   5.294   3.694  1.1931 -1.1866 -0.2022
 5764TIP3    H238784   1.393   5.212   3.819 -0.2221  1.2894  1.2226
 5765TIP3   OH238785   0.669   5.770   2.489  0.2155 -0.2707  0.1455
 5765TIP3    H138786   0.610   5.839   2.520  1.1959  0.6544 -0.0159
 5765TIP3    H238787   0.629   5.689   2.521 -0.9990  0.3524  0.2684
 5766TIP3   OH238788   2.109   6.232  13.922 -0.0381 -0.6495 -0.0242
 5766TIP3    H138789   2.205   6.237  13.918 -0.0270 -0.3430  0.5464
 5766TIP3    H238790   2.083   6.198  13.836  0.4689  1.0467 -0.8903
 5767TIP3   OH238791   5.184   3.043  16.159  0.4447 -0.4049 -0.2197
 5767TIP3    H138792   5.213   2.981  16.225  0.5608 -1.5546 -1.3230
 5767TIP3    H238793   5.216   3.128  16.189 -0.0904 -0.7982  1.5293
 5768TIP3   OH238794   2.794   0.191   2.961 -1.3402  0.1362 -0.1106
 5768TIP3    H138795   2.732   0.261   2.941 -1.0123  0.1702 -1.0564
 5768TIP3    H238796   2.846   0.181   2.881 -0.3588 -0.1330  0.5421
 5769TIP3   OH238797   0.330   5.814   5.678  0.1169 -0.5678  0.0876
 5769TIP3    H138798   0.272   5.890   5.678  1.8939  0.8731 -1.0751
 5769TIP3    H238799   0.332   5.785   5.770 -2.3036 -0.6527  0.1925
 5770TIP3   OH238800   1.936   5.799  11.548  0.1226  0.3796 -0.9408
 5770TIP3    H138801   1.867   5.734  11.565 -0.6497  1.1718 -0.9300
 5770TIP3    H238802   1.947   5.844  11.632 -0.3436  1.1740 -1.2953
 5771TIP3   OH238803   4.520   1.259  17.043 -0.6340  0.1869  0.1829
 5771TIP3    H138804   4.530   1.186  17.103  1.9048 -0.9886 -1.4874
 5771TIP3    H238805   4.502   1.334  17.100 -0.3826 -1.2027  2.2128
 5772TIP3   OH238806   2.966   3.804  16.763  0.3652 -0.1050 -0.0993
 5772TIP3    H138807   2.917   3.737  16.714  1.6953 -2.0197  1.0625
 5772TIP3    H238808   2.913   3.883  16.754 -0.9839 -1.1339 -2.0372
 5773TIP3   OH238809   2.119   3.476  12.107  0.2646 -0.8114  0.4428
 5773TIP3    H138810   2.195   3.483  12.050  0.2569 -1.1827  0.3870
 5773TIP3    H238811   2.141   3.406  12.168  0.0338 -0.8068  0.5327
 5774TIP3   OH238812   0.621   3.391   3.748  0.1858  0.0908  0.0306
 5774TIP3    H138813   0.529   3.363   3.747  0.0808  0.3077 -2.1733
 5774TIP3    H238814   0.671   3.312   3.728  0.3298  0.3032 -0.4745
 5775TIP3   OH238815   5.378   1.642   1.804 -0.0106 -0.0634  0.5544
 5775TIP3    H138816   5.325   1.645   1.883 -0.4213 -3.2696  0.5338
 5775TIP3    H238817   5.322   1.600   1.739  1.9336 -2.0041  0.0313
 5776TIP3   OH238818   4.469   1.234  16.172  0.3240 -0.5005  0.1881
 5776TIP3    H138819   4.538   1.250  16.236 -0.3148 -3.1563  1.6565
 5776TIP3    H238820   4.492   1.151  16.131 -1.6622 -1.1808  0.3283
 5777TIP3   OH238821   1.557   2.748  13.467 -0.0120  0.2608 -0.2278
 5777TIP3    H138822   1.488   2.720  13.527 -0.7189 -0.4188 -1.3355
 5777TIP3    H238823   1.616   2.673  13.461  0.8445  0.8205  0.6770
 5778TIP3   OH238824   1.996   6.756  10.977 -0.2661 -0.0677  0.4247
 5778TIP3    H138825   2.064   6.701  11.014  0.5430  1.1871  0.8398
 5778TIP3    H238826   1.920   6.741  11.033  0.0153 -0.5615  0.6809
 5779TIP3   OH238827   5.206   3.431  12.942  0.1619 -0.0678  0.5044
 5779TIP3    H138828   5.237   3.357  12.891  1.1509  1.6141 -1.5211
 5779TIP3    H238829   5.168   3.393  13.021 -2.9638 -3.0078 -2.1058
 5780TIP3   OH238830   1.526   3.617   5.299 -0.0617 -0.0740 -0.5388
 5780TIP3    H138831   1.598   3.596   5.359  0.9909  1.7780 -1.0605
 5780TIP3    H238832   1.531   3.549   5.232 -0.4962 -1.4731  0.7802
 5781TIP3   OH238833   3.645   6.172  15.453 -0.1576 -0.1341 -0.0130
 5781TIP3    H138834   3.553   6.147  15.460  0.0662 -1.0083 -0.0775
 5781TIP3    H238835   3.690   6.091  15.429  0.7939 -0.0260  1.2769
 5782TIP3   OH238836   1.571   1.964  16.873 -0.3474 -0.4929  0.2630
 5782TIP3    H138837   1.497   2.023  16.859  0.2456  0.2598  0.2165
 5782TIP3    H238838   1.619   1.966  16.790  0.7713  0.5396  0.9162
 5783TIP3   OH238839   5.930   4.204  15.394 -0.2205  0.4551  0.1763
 5783TIP3    H138840   5.863   4.252  15.443  0.1683  1.5398 -0.3078
 5783TIP3    H238841   5.915   4.228  15.302 -0.6723 -1.2069 -0.2224
 5784TIP3   OH238842   5.691   3.933  16.520 -0.1067 -0.0174  0.3360
 5784TIP3    H138843   5.705   3.981  16.601 -2.0749  0.4629  0.4447
 5784TIP3    H238844   5.645   3.853  16.547  0.4826 -0.5328 -0.1608
 5785TIP3   OH238845   2.801   3.651  11.052  0.7022 -0.1157  0.1538
 5785TIP3    H138846   2.880   3.608  11.021  1.4208 -1.5441  3.4789
 5785TIP3    H238847   2.828   3.741  11.071  0.9751 -0.0249 -0.6682
 5786TIP3   OH238848   0.793   0.830  14.437  0.6185  0.4697 -0.2824
 5786TIP3    H138849   0.800   0.788  14.522 -0.1838 -0.5558 -0.6972
 5786TIP3    H238850   0.819   0.762  14.374 -1.9989  0.0721 -1.0640
 5787TIP3   OH238851   4.812   4.532  13.027  0.4063 -0.5157  0.0401
 5787TIP3    H138852   4.720   4.542  13.002  0.6906 -0.9942 -1.2647
 5787TIP3    H238853   4.812   4.538  13.123 -0.9559 -0.3579  0.0422
 5788TIP3   OH238854   3.269   4.552   4.809 -0.7237 -0.0474  0.4936
 5788TIP3    H138855   3.216   4.572   4.732 -1.0299  0.2008  0.7677
 5788TIP3    H238856   3.231   4.470   4.843  0.7145 -1.2970 -0.7993
 5789TIP3   OH238857   2.585   1.704  16.144 -0.1989 -0.0351  0.2180
 5789TIP3    H138858   2.585   1.796  16.118  0.9758  0.4275  1.6684
 5789TIP3    H238859   2.677   1.686  16.166 -0.5982 -1.2407  1.0013
 5790TIP3   OH238860   0.044   2.011  15.405 -0.2651  0.3339  0.3974
 5790TIP3    H138861   0.071   1.954  15.333  0.1364  1.0815 -0.0551
 5790TIP3    H238862  -0.048   2.030  15.388 -0.6691 -0.9115  1.0584
 5791TIP3   OH238863   6.081   1.767  14.245  0.3542  0.0281 -0.1655
 5791TIP3    H138864   6.156   1.737  14.194  1.0139  0.4590  0.5354
 5791TIP3    H238865   6.017   1.795  14.180  0.3361 -1.4219 -0.8021
 5792TIP3   OH238866   5.949   3.131  15.684 -0.0494  0.2643 -0.2756
 5792TIP3    H138867   5.859   3.127  15.716  0.2371 -0.6699  0.4403
 5792TIP3    H238868   5.990   3.199  15.737 -0.2768  0.5677 -0.4834
 5793TIP3   OH238869   4.147   4.211   6.377  0.1563  0.4084  0.5117
 5793TIP3    H138870   4.064   4.180   6.339  0.0512 -0.0468  1.0925
 5793TIP3    H238871   4.191   4.256   6.305 -0.5283  0.5224  0.1530
 5794TIP3   OH238872   3.885   1.100  13.742  0.3116  0.0983 -0.8021
 5794TIP3    H138873   3.821   1.171  13.734 -0.2878 -0.3384  0.0414
 5794TIP3    H238874   3.945   1.130  13.810 -1.9653 -1.6537  2.1763
 5795TIP3   OH238875   3.051   4.221  11.982 -0.2931  0.4505  0.3620
 5795TIP3    H138876   2.989   4.201  11.912 -3.3638  1.6475  2.4921
 5795TIP3    H238877   3.086   4.136  12.009 -0.8563 -0.2501 -1.0434
 5796TIP3   OH238878   6.426   5.216   2.295 -0.2952 -0.3130  0.1226
 5796TIP3    H138879   6.471   5.291   2.256  1.9669 -1.5808  0.1430
 5796TIP3    H238880   6.423   5.152   2.224 -3.3288  0.1365 -0.2881
 5797TIP3   OH238881   2.566   4.279  17.208 -0.0329  0.0711 -1.2165
 5797TIP3    H138882   2.543   4.200  17.159  1.2417 -1.1258  0.0325
 5797TIP3    H238883   2.584   4.344  17.140  3.0048 -1.8859 -2.5227
 5798TIP3   OH238884   0.153   4.965   5.471  0.4970 -0.1211 -0.0804
 5798TIP3    H138885   0.241   5.002   5.463 -0.3867  1.6787 -2.4825
 5798TIP3    H238886   0.135   4.925   5.386 -1.3065  0.3053  0.0609
 5799TIP3   OH238887   3.296   5.893   1.711  0.2694  0.3154 -0.3828
 5799TIP3    H138888   3.290   5.895   1.615 -1.3952 -0.3087 -0.3114
 5799TIP3    H238889   3.323   5.982   1.734  3.5860 -0.2508 -1.5429
 5800TIP3   OH238890   0.465   1.808  13.831 -0.2580  0.3528  0.0978
 5800TIP3    H138891   0.399   1.759  13.880  0.2251 -0.3707  0.0310
 5800TIP3    H238892   0.533   1.744  13.810  0.2859  1.0001 -0.1709
 5801TIP3   OH238893   4.533   5.667  13.613  0.2310 -0.3576 -0.1288
 5801TIP3    H138894   4.509   5.726  13.541  2.7616 -0.2752 -1.0050
 5801TIP3    H238895   4.463   5.678  13.677 -0.4239  2.0952 -1.1276
 5802TIP3   OH238896   5.229   3.928   4.952  0.0200  0.1842  0.3350
 5802TIP3    H138897   5.212   3.839   4.922  1.2065  0.5259 -1.5852
 5802TIP3    H238898   5.239   3.979   4.871  0.1091  1.9058  1.3692
 5803TIP3   OH238899   5.642   0.398   0.606  0.0702  0.5268  0.4743
 5803TIP3    H138900   5.663   0.418   0.515 -0.5303 -0.3285  0.1339
 5803TIP3    H238901   5.605   0.480   0.641 -0.0712  0.7415 -0.1711
 5804TIP3   OH238902   3.238   2.277   2.555 -0.5252 -0.0737  0.1314
 5804TIP3    H138903   3.287   2.344   2.602 -0.7904 -0.9321  1.7315
 5804TIP3    H238904   3.305   2.215   2.526 -0.5124 -0.5404  1.1162
 5805TIP3   OH238905   0.376   2.473  13.297  0.4483 -0.5090 -0.4162
 5805TIP3    H138906   0.357   2.532  13.370  0.7525 -1.2503  0.2733
 5805TIP3    H238907   0.349   2.387  13.329  0.0087 -0.7489 -1.4120
 5806TIP3   OH238908   2.017   2.720  14.982 -0.1475 -0.3990 -0.4081
 5806TIP3    H138909   2.040   2.809  14.954  1.3242 -0.9465 -1.1010
 5806TIP3    H238910   2.061   2.709  15.066 -0.3332 -0.4646 -0.3191
 5807TIP3   OH238911   5.965   6.008  16.600  0.0626  0.5924  0.1515
 5807TIP3    H138912   5.921   5.934  16.560  1.7050 -0.3262 -0.0449
 5807TIP3    H238913   5.895   6.057  16.644 -1.0810 -0.9457  0.1215
 5808TIP3   OH238914   1.414   2.066  14.171  0.2856  0.2448  0.4245
 5808TIP3    H138915   1.446   2.057  14.261 -0.0870  0.2932  0.5632
 5808TIP3    H238916   1.459   1.997  14.122 -1.0795 -1.1736  1.0778
 5809TIP3   OH238917   1.267   5.806  16.115 -0.4867 -0.0579  0.6596
 5809TIP3    H138918   1.330   5.758  16.169 -1.4729 -1.3311  0.7176
 5809TIP3    H238919   1.302   5.799  16.026 -0.9177 -1.4231  0.5782
 5810TIP3   OH238920   6.799   5.845  14.062  0.2507  0.1924  0.3684
 5810TIP3    H138921   6.725   5.902  14.084  0.0237  0.4011 -0.8626
 5810TIP3    H238922   6.869   5.873  14.121 -0.7487 -0.2896  1.8444
 5811TIP3   OH238923   6.776   3.232  16.130  0.7925 -0.3434 -0.3676
 5811TIP3    H138924   6.689   3.268  16.109  0.6086  0.1820  1.1777
 5811TIP3    H238925   6.774   3.219  16.224  2.2692 -0.7058 -0.3689
 5812TIP3   OH238926   3.886   2.386  11.826 -0.2706 -0.0851 -0.3081
 5812TIP3    H138927   3.971   2.344  11.839  0.2585  0.8094 -0.7180
 5812TIP3    H238928   3.870   2.378  11.732 -0.3140  0.3193 -0.3390
 5813TIP3   OH238929   1.477   2.248  11.880 -0.0921 -0.2799 -1.0382
 5813TIP3    H138930   1.566   2.243  11.843  0.8792 -0.9022  1.2249
 5813TIP3    H238931   1.452   2.339  11.869  0.8955 -0.0556 -1.5699
 5814TIP3   OH238932   1.388   5.149  14.873  0.1272 -0.1411 -0.6352
 5814TIP3    H138933   1.357   5.064  14.843 -1.4556  0.4748 -0.8618
 5814TIP3    H238934   1.476   5.158  14.836  0.1558 -1.4951 -0.9330
 5815TIP3   OH238935   2.192   2.601  13.562 -0.1455  0.5911  0.2994
 5815TIP3    H138936   2.117   2.550  13.593  1.3527 -0.6615  2.1128
 5815TIP3    H238937   2.179   2.607  13.467 -1.2213 -1.8074  0.2098
 5816TIP3   OH238938   2.012   4.472  15.927 -0.0123 -0.0177  0.3615
 5816TIP3    H138939   1.924   4.492  15.895  0.1430 -0.2723 -0.2453
 5816TIP3    H238940   2.021   4.377  15.913  0.5481  0.0957 -0.0852
 5817TIP3   OH238941   5.276   4.546  16.146 -0.6362 -0.2394  0.2628
 5817TIP3    H138942   5.206   4.591  16.101 -0.6317 -0.1058  0.3899
 5817TIP3    H238943   5.248   4.541  16.237  0.7908  2.4431  0.9573
 5818TIP3   OH238944   5.279   3.868  11.556  0.4668 -0.6986  0.6762
 5818TIP3    H138945   5.234   3.944  11.594 -0.7201 -0.4418 -1.1190
 5818TIP3    H238946   5.366   3.899  11.533 -1.1441  1.4514 -3.5979
 5819TIP3   OH238947   1.275   2.774  16.118 -0.0201 -0.0058  0.0132
 5819TIP3    H138948   1.247   2.683  16.111  0.8160 -0.2499 -0.2519
 5819TIP3    H238949   1.198   2.825  16.094 -0.5149 -0.6402  0.2317
 5820TIP3   OH238950   1.617   5.099   4.053 -0.5218 -0.2918  0.5697
 5820TIP3    H138951   1.623   5.063   3.964 -0.2834  1.7679 -0.3092
 5820TIP3    H238952   1.703   5.138   4.068 -1.2039  1.1585  0.8685
 5821TIP3   OH238953   0.602   3.391   3.172  0.2676 -0.8303  0.3240
 5821TIP3    H138954   0.564   3.313   3.132 -2.1071 -0.7550  2.2124
 5821TIP3    H238955   0.599   3.374   3.266  2.0891  0.5393  0.6884
 5822TIP3   OH238956   1.959   2.708  11.603 -0.5766  0.0680  0.6843
 5822TIP3    H138957   1.999   2.791  11.631 -0.4638 -0.8877  3.7766
 5822TIP3    H238958   1.865   2.720  11.618 -0.5096 -0.4823  1.6425
 5823TIP3   OH238959   4.025   2.187   4.884  0.1558 -0.7802  0.5312
 5823TIP3    H138960   3.984   2.247   4.822  0.3037 -1.0969  0.1248
 5823TIP3    H238961   4.032   2.104   4.837  0.8748 -0.8474  0.7350
 5824TIP3   OH238962   2.157   0.357  12.223 -0.0965 -0.3559  0.0901
 5824TIP3    H138963   2.190   0.287  12.279 -0.4420  0.5304  1.4784
 5824TIP3    H238964   2.231   0.380  12.167  0.0634 -1.7003 -0.2860
 5825TIP3   OH238965   2.602   5.022  13.826 -0.8696 -0.6320  0.1806
 5825TIP3    H138966   2.568   4.940  13.861  0.6213 -0.8487  1.2084
 5825TIP3    H238967   2.688   5.000  13.790 -0.4427  0.4612  0.4733
 5826TIP3   OH238968   0.013   5.244   0.936 -0.3304  0.0657 -0.8435
 5826TIP3    H138969  -0.068   5.283   0.906  0.5203  1.9387 -0.8579
 5826TIP3    H238970   0.068   5.237   0.857 -0.3467 -0.8961 -0.7842
 5827TIP3   OH238971   0.970   3.960  16.293 -0.0583  0.1167  0.4987
 5827TIP3    H138972   0.926   3.965  16.378 -1.2250  0.1185 -0.0899
 5827TIP3    H238973   0.973   4.051  16.262 -1.6735 -0.0990 -0.4392
 5828TIP3   OH238974   6.396   2.315  13.419 -0.0064  0.6269 -0.2817
 5828TIP3    H138975   6.391   2.400  13.376  2.9169  1.5415  0.9262
 5828TIP3    H238976   6.313   2.307  13.467 -0.9449  2.0817 -1.5910
 5829TIP3   OH238977   2.127   4.291  13.636  0.1391 -0.3620 -0.2185
 5829TIP3    H138978   2.193   4.291  13.705 -0.5347 -0.6937  0.4449
 5829TIP3    H238979   2.163   4.235  13.568 -0.6169 -2.9054  1.3207
 5830TIP3   OH238980   2.482   5.150  15.269  0.5888  0.6435  0.2715
 5830TIP3    H138981   2.500   5.220  15.207 -0.5476  0.6552 -0.0706
 5830TIP3    H238982   2.470   5.072  15.215 -0.7834  0.7286  0.4094
 5831TIP3   OH238983   5.689   0.511   4.986 -0.2001  0.8218 -0.3911
 5831TIP3    H138984   5.635   0.450   4.935 -0.9016  0.0917  1.1344
 5831TIP3    H238985   5.707   0.463   5.067 -1.1009  2.7554  1.0323
 5832TIP3   OH238986   0.048   2.803   0.651  0.2087 -0.2176 -0.5385
 5832TIP3    H138987   0.020   2.784   0.740  1.7946 -2.5115 -0.4377
 5832TIP3    H238988   0.107   2.877   0.659 -0.9409  0.6579  0.0550
 5833TIP3   OH238989   5.883   3.599  16.128 -0.5735 -0.2735  0.2521
 5833TIP3    H138990   5.883   3.688  16.162  2.5979 -0.5405  1.2211
 5833TIP3    H238991   5.911   3.609  16.037 -1.0853 -0.2303  0.0953
 5834TIP3   OH238992   4.426   6.388   4.711  0.0054  0.5052  0.5410
 5834TIP3    H138993   4.475   6.452   4.660  1.9961 -2.0202 -0.9772
 5834TIP3    H238994   4.336   6.420   4.711  0.5715  2.3258 -1.7051
 5835TIP3   OH238995   6.131   6.259   0.486 -0.8985  0.0419 -0.2757
 5835TIP3    H138996   6.190   6.183   0.492 -1.0881 -0.3144 -2.2034
 5835TIP3    H238997   6.185   6.328   0.447 -1.1355  0.4600  0.1178
 5836TIP3   OH238998   2.333   4.249   1.973 -0.1374  0.4988  0.7127
 5836TIP3    H138999   2.268   4.283   1.912  1.2449  0.7673 -0.6793
 5836TIP3    H239000   2.414   4.245   1.922  0.6871 -0.9334  2.0416
 5837TIP3   OH239001   0.574   6.556  12.502 -0.3121  0.0867 -0.2585
 5837TIP3    H139002   0.596   6.497  12.429 -1.3585 -0.0570 -0.4679
 5837TIP3    H239003   0.621   6.637  12.482  0.1572 -0.2610 -0.6028
 5838TIP3   OH239004   4.455   0.759  11.722  0.3079 -0.0536  0.1574
 5838TIP3    H139005   4.451   0.748  11.817 -1.1143  0.5731  0.1933
 5838TIP3    H239006   4.376   0.717  11.689  0.9435 -0.5496 -0.7989
 5839TIP3   OH239007   1.093   1.695   4.932  0.2636 -0.3150  0.6559
 5839TIP3    H139008   1.019   1.727   4.880  0.6068 -0.9982 -0.2953
 5839TIP3    H239009   1.104   1.759   5.001 -0.8850  0.0732  0.4950
 5840TIP3   OH239010   6.195   3.745   1.658  0.6480  0.1842  0.0868
 5840TIP3    H139011   6.211   3.651   1.644  1.5641  0.3605 -0.0887
 5840TIP3    H239012   6.221   3.786   1.576 -0.5205  0.5290 -0.1373
 5841TIP3   OH239013   4.981   6.756  13.040  0.6434  0.3269  0.0390
 5841TIP3    H139014   4.889   6.757  13.065  0.6365 -0.8726  0.1056
 5841TIP3    H239015   5.012   6.669  13.063  2.1024  1.0728  1.0578
 5842TIP3   OH239016   4.338   2.615   2.735  0.3786 -0.0790 -0.2001
 5842TIP3    H139017   4.398   2.659   2.796 -0.4878 -0.2242  0.7936
 5842TIP3    H239018   4.393   2.551   2.690  1.1675  0.4311  0.0135
 5843TIP3   OH239019   3.737   4.591  10.511  0.3354 -0.0463 -0.3045
 5843TIP3    H139020   3.743   4.613  10.418  1.0391 -0.4070 -0.3453
 5843TIP3    H239021   3.827   4.597  10.544  0.0700  0.2552  0.3952
 5844TIP3   OH239022   2.107   0.360  16.616  0.3042  0.2058  0.7264
 5844TIP3    H139023   2.124   0.345  16.522  2.6059  1.7314  0.8212
 5844TIP3    H239024   2.063   0.445  16.619  0.6263  0.3614  1.0580
 5845TIP3   OH239025   0.948   5.040  13.167  0.3618  0.9668 -0.0532
 5845TIP3    H139026   1.041   5.064  13.167  0.3916  0.8695 -1.0948
 5845TIP3    H239027   0.943   4.959  13.117 -0.0836  0.0686  1.3718
 5846TIP3   OH239028   2.423   1.673   4.644 -0.5088  0.1369 -0.5648
 5846TIP3    H139029   2.349   1.671   4.583 -1.1445  1.1094  0.1228
 5846TIP3    H239030   2.412   1.594   4.697  0.3617 -1.0075 -2.0057
 5847TIP3   OH239031   4.212   6.537  16.120  0.2698  0.1389 -0.2916
 5847TIP3    H139032   4.118   6.548  16.106  0.4984  2.2113 -0.4684
 5847TIP3    H239033   4.245   6.508  16.035 -0.2691 -1.3355 -0.0346
 5848TIP3   OH239034   1.405   3.127   4.330 -0.3581 -0.5405 -0.1398
 5848TIP3    H139035   1.403   3.222   4.329  1.9270 -0.4325 -0.7319
 5848TIP3    H239036   1.339   3.101   4.266 -0.2092  0.7091 -0.8458
 5849TIP3   OH239037   2.167   0.996  12.256 -0.1429  0.0608  0.5773
 5849TIP3    H139038   2.205   1.028  12.174 -2.5127  1.5140 -0.0434
 5849TIP3    H239039   2.175   0.901  12.250 -1.1111  0.0495 -1.8686
 5850TIP3   OH239040   5.214   3.562  11.212 -0.1620 -0.1563 -0.2009
 5850TIP3    H139041   5.134   3.614  11.206  0.3081  0.5115 -0.8167
 5850TIP3    H239042   5.216   3.532  11.303 -0.5981  0.6549  0.0906
 5851TIP3   OH239043   5.673   6.150   0.944 -0.8105 -0.3362  0.3767
 5851TIP3    H139044   5.612   6.087   0.905  1.2305 -1.6023 -1.0065
 5851TIP3    H239045   5.623   6.231   0.953 -3.0751 -1.6924  0.7063
 5852TIP3   OH239046   5.238   1.848   3.358  0.4559 -0.0286  0.4206
 5852TIP3    H139047   5.237   1.762   3.317 -0.9424 -0.2326  0.8386
 5852TIP3    H239048   5.255   1.831   3.451 -1.3210 -0.0300  0.7870
 5853TIP3   OH239049   2.157   1.916   1.249 -0.5390 -0.3615 -0.0265
 5853TIP3    H139050   2.145   1.991   1.190  0.6116 -1.3152 -1.5405
 5853TIP3    H239051   2.175   1.956   1.334 -1.7957  1.0592 -0.3811
 5854TIP3   OH239052   0.904   0.493  16.821  0.5249  0.5485 -0.1710
 5854TIP3    H139053   0.826   0.447  16.851  1.2868 -0.7351 -0.1110
 5854TIP3    H239054   0.876   0.537  16.740 -0.3345  0.3594  0.0152
 5855TIP3   OH239055   6.756   3.001  15.981  0.6422 -0.3219  0.3407
 5855TIP3    H139056   6.776   3.092  16.004 -0.0058 -0.2369  0.5786
 5855TIP3    H239057   6.836   2.969  15.938  0.8115  0.4083  0.0994
 5856TIP3   OH239058   6.084   1.707   0.912 -0.3870  0.4037 -0.1493
 5856TIP3    H139059   6.075   1.650   0.989  0.4886  1.1874  0.5610
 5856TIP3    H239060   6.069   1.795   0.945 -2.4439  0.5911 -1.3771
 5857TIP3   OH239061   6.421   4.987   1.808  0.1415  0.2130  0.5076
 5857TIP3    H139062   6.501   4.967   1.759  0.9217  2.3722  0.7818
 5857TIP3    H239063   6.419   4.921   1.877 -0.0071 -1.7544 -1.2867
 5858TIP3   OH239064   0.774   1.047   4.108  0.7287  0.2019  0.2039
 5858TIP3    H139065   0.824   1.035   4.027  0.9576  2.0054  0.0279
 5858TIP3    H239066   0.840   1.072   4.173  0.5427 -1.2189  0.9766
 5859TIP3   OH239067   5.029   6.292   5.216  0.0007  0.2547  0.7616
 5859TIP3    H139068   4.937   6.302   5.191  0.4580  4.8962  0.2215
 5859TIP3    H239069   5.073   6.268   5.134 -0.5600 -1.4687  0.9161
 5860TIP3   OH239070   2.430   1.391   1.401 -0.2729  0.6434 -0.1744
 5860TIP3    H139071   2.413   1.479   1.433  0.0590  0.6991 -0.1511
 5860TIP3    H239072   2.405   1.334   1.474  0.5241  0.7717  0.2150
 5861TIP3   OH239073   1.410   1.489   4.075 -0.4879 -0.2002  0.4163
 5861TIP3    H139074   1.378   1.422   4.015 -1.7700 -1.2813  2.2341
 5861TIP3    H239075   1.457   1.441   4.143 -0.3579  0.8495  1.0975
 5862TIP3   OH239076   4.096   4.888   2.266 -0.0670  0.7031  0.1600
 5862TIP3    H139077   4.002   4.888   2.250  0.2020 -0.7878 -1.8758
 5862TIP3    H239078   4.115   4.976   2.298 -1.7462  2.0782 -2.2833
 5863TIP3   OH239079   0.869   3.922   2.927  0.9648  0.0228  0.2760
 5863TIP3    H139080   0.961   3.947   2.921  1.6633 -2.3867 -0.0348
 5863TIP3    H239081   0.847   3.892   2.839  0.6846 -1.8742  0.9516
 5864TIP3   OH239082   2.562   4.298   0.113 -0.5795 -0.6384  0.4194
 5864TIP3    H139083   2.586   4.283   0.022  1.4537 -3.4147  1.2465
 5864TIP3    H239084   2.466   4.291   0.115 -0.7360  0.4202 -1.5834
 5865TIP3   OH239085   1.230   4.730  14.069 -0.1099  0.2002 -0.2708
 5865TIP3    H139086   1.281   4.782  14.006  2.1593  0.0723  1.3511
 5865TIP3    H239087   1.236   4.640  14.035 -0.3866  0.3678 -0.7811
 5866TIP3   OH239088   3.183   3.912  11.404 -0.2033  0.5046 -0.0803
 5866TIP3    H139089   3.232   3.978  11.453  0.9059  0.6518 -1.3494
 5866TIP3    H239090   3.196   3.832  11.455  2.3838  0.2695 -0.9443
 5867TIP3   OH239091   4.237   0.621   3.590 -0.2173 -0.1491 -0.1639
 5867TIP3    H139092   4.174   0.580   3.649 -0.5422  0.3456 -0.1599
 5867TIP3    H239093   4.303   0.660   3.648 -0.2410 -0.1337 -0.1474
 5868TIP3   OH239094   5.260   1.953  14.727 -0.4473  0.4318  0.2115
 5868TIP3    H139095   5.232   1.870  14.689 -0.4702 -0.0500  1.2542
 5868TIP3    H239096   5.348   1.968  14.692 -0.9941  0.7188 -1.1286
 5869TIP3   OH239097   3.891   5.081  11.961  0.3206  0.0238  0.2042
 5869TIP3    H139098   3.967   5.056  12.014 -0.2095 -2.2128 -0.0068
 5869TIP3    H239099   3.815   5.060  12.016 -0.1972 -0.1165 -0.5523
 5870TIP3   OH239100   5.351   1.042  10.757 -0.3094  0.2469 -0.2791
 5870TIP3    H139101   5.294   1.089  10.696  1.4288  1.6463 -0.9178
 5870TIP3    H239102   5.294   1.022  10.832 -0.7668  5.7696  1.3390
 5871TIP3   OH239103   0.481   4.987   3.850 -0.4678 -0.2026 -0.4172
 5871TIP3    H139104   0.503   5.054   3.916 -1.4219 -0.6409  0.3634
 5871TIP3    H239105   0.545   5.001   3.780  0.9596 -0.1001  0.8477
 5872TIP3   OH239106   0.888   5.899  16.726  0.0085  0.2793  0.0475
 5872TIP3    H139107   0.944   5.821  16.720  0.9112  0.9161  0.1432
 5872TIP3    H239108   0.917   5.955  16.654 -1.7495 -0.1544 -1.0754
 5873TIP3   OH239109   1.139   6.794   4.668  0.1407  0.1422 -0.1963
 5873TIP3    H139110   1.173   6.868   4.718 -0.6941  0.3191  0.1237
 5873TIP3    H239111   1.162   6.814   4.577  3.1797 -0.9951  0.2038
 5874TIP3   OH239112   6.264   1.362  13.130 -0.3033 -0.2192 -0.2542
 5874TIP3    H139113   6.262   1.353  13.035 -0.1089 -2.4168 -0.1141
 5874TIP3    H239114   6.176   1.393  13.153 -0.1313  1.0204 -1.1696
 5875TIP3   OH239115   2.107   6.541  15.715  0.0645  0.0002 -0.0915
 5875TIP3    H139116   2.176   6.486  15.753 -2.3157 -2.4891  0.9346
 5875TIP3    H239117   2.042   6.479  15.682 -1.1574  2.2122 -2.1950
 5876TIP3   OH239118   5.935   2.807  12.489  0.4661  0.1801  0.0117
 5876TIP3    H139119   5.922   2.896  12.524  0.2260  0.9786 -1.9836
 5876TIP3    H239120   6.030   2.800  12.479  0.4626  0.3401 -0.1428
 5877TIP3   OH239121   5.663   1.054   3.388  0.2254 -0.1769 -0.5199
 5877TIP3    H139122   5.622   1.028   3.306 -1.1190 -0.2310  0.1383
 5877TIP3    H239123   5.756   1.060   3.368 -0.0959 -0.0428 -2.0766
 5878TIP3   OH239124   2.380   6.163   0.689 -0.0149 -0.5696 -0.5648
 5878TIP3    H139125   2.289   6.186   0.669 -0.2676 -2.6981 -2.2273
 5878TIP3    H239126   2.413   6.123   0.608  2.0412 -0.9330  0.3798
 5879TIP3   OH239127   6.688   3.626   2.056 -0.0821  0.3776  0.0546
 5879TIP3    H139128   6.597   3.657   2.054 -0.1663  0.1921  0.7724
 5879TIP3    H239129   6.739   3.700   2.025 -0.3128  1.1236  1.4030
 5880TIP3   OH239130   0.575   3.154   2.052 -0.0911  0.4549  0.4998
 5880TIP3    H139131   0.550   3.230   1.999  2.1270 -0.0755 -1.4670
 5880TIP3    H239132   0.497   3.099   2.054 -0.1956  0.3384 -2.6298
 5881TIP3   OH239133   2.983   0.763   2.001 -0.0626 -0.4024 -0.2112
 5881TIP3    H139134   2.954   0.854   2.008  4.2468  1.1316  2.2405
 5881TIP3    H239135   2.927   0.715   2.062  0.0278  1.4800  1.4506
 5882TIP3   OH239136   4.361   5.022   4.252 -0.1481 -0.2797 -0.0131
 5882TIP3    H139137   4.350   4.962   4.179  0.0481 -0.4287  0.0798
 5882TIP3    H239138   4.456   5.039   4.255 -0.2676  0.4901 -0.4088
 5883TIP3   OH239139   6.321   6.358   2.502  0.1405 -0.0024 -0.1464
 5883TIP3    H139140   6.281   6.324   2.582 -0.8326  0.4490 -0.4239
 5883TIP3    H239141   6.276   6.442   2.487  2.5364  1.5048  0.5885
 5884TIP3   OH239142   0.177   2.530  11.739  0.5080 -0.9829  0.2264
 5884TIP3    H139143   0.218   2.596  11.795 -0.8624 -1.5302  1.9722
 5884TIP3    H239144   0.172   2.571  11.653  0.2513  0.9677  1.1150
 5885TIP3   OH239145   0.196   1.691  14.536  0.1366  0.5851  0.3861
 5885TIP3    H139146   0.214   1.784  14.542 -0.4145  1.1194 -3.3511
 5885TIP3    H239147   0.264   1.657  14.478 -0.0793 -1.2123  1.1168
 5886TIP3   OH239148   1.870   1.625  13.706 -0.7629 -0.0707 -0.2186
 5886TIP3    H139149   1.948   1.617  13.761 -2.4672  1.2655  2.6202
 5886TIP3    H239150   1.889   1.570  13.630  1.4160 -2.9334  2.1204
 5887TIP3   OH239151   0.703   2.086   1.650  0.1535  0.2598 -0.4522
 5887TIP3    H139152   0.799   2.091   1.657  0.1108 -0.8012  1.6762
 5887TIP3    H239153   0.679   2.015   1.710 -2.0781  1.5269  0.2359
 5888TIP3   OH239154   1.317   4.712  16.774 -0.3985  0.0555  0.0530
 5888TIP3    H139155   1.404   4.720  16.813 -0.2807  1.2631 -0.4131
 5888TIP3    H239156   1.260   4.686  16.847  0.5508 -2.1989  0.0851
 5889TIP3   OH239157   1.767   3.133   0.282 -0.3063  0.1351  0.3661
 5889TIP3    H139158   1.679   3.098   0.289 -0.1193 -0.4929 -0.3662
 5889TIP3    H239159   1.824   3.056   0.286  0.1575  0.4416 -0.1750
 5890TIP3   OH239160   5.554   0.588  10.810  0.0503  0.2545  0.0646
 5890TIP3    H139161   5.550   0.663  10.751  1.7307 -0.1183 -0.5683
 5890TIP3    H239162   5.517   0.516  10.759 -0.3563  0.3543  0.2096
 5891TIP3   OH239163   4.699   5.712  14.020 -0.2802  0.5279  0.4337
 5891TIP3    H139164   4.652   5.720  13.937 -0.4529  1.9932  0.6346
 5891TIP3    H239165   4.788   5.689  13.996 -0.8243 -1.2394 -0.0158
 5892TIP3   OH239166   3.341   4.995  13.030  0.0775  0.3301  0.3444
 5892TIP3    H139167   3.367   4.956  13.114 -0.8458 -1.0739  0.0045
 5892TIP3    H239168   3.300   5.078  13.055  0.3512  0.2151  1.2389
 5893TIP3   OH239169   0.658   5.100  16.635  0.5032 -0.1298  0.6798
 5893TIP3    H139170   0.692   5.016  16.665  1.9122 -0.1704 -0.8633
 5893TIP3    H239171   0.668   5.159  16.710  1.0922 -0.9298  1.2459
 5894TIP3   OH239172   5.955   5.742  10.750  0.4480 -0.3608 -0.0609
 5894TIP3    H139173   5.938   5.706  10.837 -2.1985  2.4846  0.7573
 5894TIP3    H239174   5.869   5.759  10.712  1.5282  0.1861 -2.5249
 5895TIP3   OH239175   5.486   0.710   1.380  0.2342  0.4190  0.8943
 5895TIP3    H139176   5.520   0.623   1.402  1.4172  0.7799  0.5175
 5895TIP3    H239177   5.557   0.770   1.402  0.3784  1.0671 -1.1587
 5896TIP3   OH239178   5.226   4.459   4.474 -0.6560 -0.3617 -0.3268
 5896TIP3    H139179   5.311   4.422   4.448  0.6187  0.2638  2.5021
 5896TIP3    H239180   5.209   4.526   4.409  1.1380 -0.3852 -0.8908
 5897TIP3   OH239181   5.974   0.450   0.631  0.4298  0.2212 -0.2403
 5897TIP3    H139182   6.031   0.507   0.579 -0.0958  0.3260 -0.7021
 5897TIP3    H239183   5.895   0.440   0.578  0.8752 -1.7250 -0.6371
 5898TIP3   OH239184   3.880   2.948   4.675 -0.1063 -0.0019  0.7301
 5898TIP3    H139185   3.846   2.947   4.586  0.8343 -0.9605  0.3573
 5898TIP3    H239186   3.917   3.036   4.686  0.2353 -0.0468 -0.0248
 5899TIP3   OH239187   2.328   0.730  16.097  0.4001  0.2951 -0.6626
 5899TIP3    H139188   2.328   0.797  16.165  0.1863 -0.5532  0.2104
 5899TIP3    H239189   2.244   0.741  16.052  0.0630  0.1864 -0.0754
 5900TIP3   OH239190   1.478   2.948  16.083 -0.4187  0.8136 -0.7028
 5900TIP3    H139191   1.420   2.871  16.082  1.3103 -0.5724 -0.2692
 5900TIP3    H239192   1.530   2.937  16.162 -0.2925  2.5961 -0.5125
 5901TIP3   OH239193   2.954   6.501  13.542  0.1247 -0.1588  0.0283
 5901TIP3    H139194   2.929   6.586  13.507  0.1967 -0.5661 -1.0337
 5901TIP3    H239195   2.872   6.461  13.570 -0.1531 -0.4854 -1.1839
 5902TIP3   OH239196   4.918   3.660   3.517 -0.5273 -0.5110  0.0730
 5902TIP3    H139197   4.935   3.663   3.612 -2.5625 -0.8428  0.4861
 5902TIP3    H239198   4.945   3.747   3.486 -0.0488 -0.3139  0.9775
 5903TIP3   OH239199   1.249   3.874  16.279  0.5619  0.0095 -0.1108
 5903TIP3    H139200   1.165   3.911  16.305  0.2281  1.2967 -2.6811
 5903TIP3    H239201   1.280   3.931  16.209  1.3055 -3.0578 -2.5387
 5904TIP3   OH239202   1.709   0.336  13.938 -0.6600  0.1628  0.2515
 5904TIP3    H139203   1.773   0.396  13.899  0.4541 -0.5312  0.9597
 5904TIP3    H239204   1.721   0.347  14.032  1.5886 -3.1491  0.5187
 5905TIP3   OH239205   5.242   5.558  15.669 -0.6099  0.4961  0.4741
 5905TIP3    H139206   5.180   5.602  15.728  0.2096  1.9173  0.3321
 5905TIP3    H239207   5.303   5.628  15.643 -0.6572 -0.2174 -1.6671
 5906TIP3   OH239208   2.189   6.624  11.146 -0.0577 -0.0152  0.0778
 5906TIP3    H139209   2.161   6.549  11.199 -1.8948 -0.9376 -2.0735
 5906TIP3    H239210   2.248   6.586  11.081  0.4829  0.7552  0.1108
 5907TIP3   OH239211   3.179   4.580  17.365  0.1190  0.3151  0.2600
 5907TIP3    H139212   3.085   4.598  17.365 -0.1881 -0.9860 -1.5133
 5907TIP3    H239213   3.184   4.485  17.376  1.1493  0.2133 -0.9622
 5908TIP3   OH239214   3.289   0.605   4.766  0.3215  0.6053 -0.5306
 5908TIP3    H139215   3.232   0.675   4.797 -0.2990  0.1942 -0.7067
 5908TIP3    H239216   3.230   0.547   4.717  0.8567  0.0678 -0.5479
 5909TIP3   OH239217   5.407   0.921  16.389 -0.0952 -0.1442  0.0190
 5909TIP3    H139218   5.432   0.856  16.324  1.0689 -1.2533  1.5171
 5909TIP3    H239219   5.364   0.990  16.338  2.6386  0.0710 -2.2447
 5910TIP3   OH239220   2.518   1.942   1.853  0.0635  0.8435 -0.0604
 5910TIP3    H139221   2.549   2.022   1.811 -1.3640  1.6822  0.3873
 5910TIP3    H239222   2.427   1.934   1.824 -0.0123 -0.2622  0.4298
 5911TIP3   OH239223   1.647   5.163   4.797  0.0335  0.2823 -0.3817
 5911TIP3    H139224   1.701   5.089   4.771 -0.4372 -0.9076  1.8261
 5911TIP3    H239225   1.558   5.130   4.795 -0.1849  0.7540  0.6190
 5912TIP3   OH239226   1.681   0.223   3.261 -0.1377  0.0511 -0.5224
 5912TIP3    H139227   1.733   0.195   3.185 -0.4124 -0.0114 -0.6907
 5912TIP3    H239228   1.737   0.286   3.306  0.0884 -0.0216 -0.6956
 5913TIP3   OH239229   3.026   4.109  16.580  0.2170  0.1675 -0.2295
 5913TIP3    H139230   3.075   4.061  16.646  0.5222 -0.0318 -0.5933
 5913TIP3    H239231   3.083   4.183  16.557  0.3607 -0.0730 -0.6638
 5914TIP3   OH239232   0.993   6.132   3.352 -0.0364 -0.0573 -0.1460
 5914TIP3    H139233   0.931   6.148   3.281 -1.4324 -1.8917  0.5513
 5914TIP3    H239234   1.074   6.107   3.309  0.1766  2.0675 -1.0843
 5915TIP3   OH239235   4.822   3.930  14.385  0.0760 -0.0092  0.4448
 5915TIP3    H139236   4.819   3.931  14.481  1.6972 -0.6635  0.5380
 5915TIP3    H239237   4.893   3.869  14.364 -1.1229 -0.9285 -1.2119
 5916TIP3   OH239238   5.929   4.294   3.934 -0.1276  0.0385 -0.0173
 5916TIP3    H139239   5.990   4.244   3.879  0.2408 -0.0869  0.4975
 5916TIP3    H239240   5.860   4.231   3.956  0.2331 -0.1922  0.4672
 5917TIP3   OH239241   3.136   3.502  14.536  0.0285  0.4530 -0.5408
 5917TIP3    H139242   3.086   3.579  14.509  1.4613  1.2362 -1.0635
 5917TIP3    H239243   3.176   3.527  14.620 -0.9841 -0.4216  0.2320
 5918TIP3   OH239244   1.233   4.635  12.309  0.0904  0.0441 -0.4388
 5918TIP3    H139245   1.263   4.659  12.222  0.0940  1.4111 -0.0901
 5918TIP3    H239246   1.214   4.719  12.352  1.9158 -0.4218  1.5155
 5919TIP3   OH239247   0.296   0.161   0.490 -0.3843 -0.2722 -0.4612
 5919TIP3    H139248   0.369   0.223   0.483 -0.6212  0.3248  1.6296
 5919TIP3    H239249   0.314   0.112   0.570 -1.3582 -1.3930 -0.9022
 5920TIP3   OH239250   3.335   6.384   3.683 -0.3127 -0.3282  0.4576
 5920TIP3    H139251   3.372   6.472   3.682  0.5534 -0.6918 -0.5755
 5920TIP3    H239252   3.306   6.369   3.593 -2.3777 -0.3251  1.0652
 5921TIP3   OH239253   1.532   2.418   4.448  0.6382  0.1296 -0.0402
 5921TIP3    H139254   1.594   2.491   4.454 -1.1906  1.7253  0.5964
 5921TIP3    H239255   1.500   2.406   4.538 -0.8927  0.2260 -0.5404
 5922TIP3   OH239256   2.858   1.070  17.056 -0.2580 -0.1179 -0.0935
 5922TIP3    H139257   2.809   1.004  17.006  0.8352 -0.7461 -0.3456
 5922TIP3    H239258   2.867   1.032  17.143 -2.3654  1.0757  0.7380
 5923TIP3   OH239259   2.159   5.697   3.645 -0.0265  0.1458  0.1291
 5923TIP3    H139260   2.211   5.632   3.598  0.8105  0.6011  0.4006
 5923TIP3    H239261   2.112   5.744   3.577 -0.1153 -0.2982 -0.1181
 5924TIP3   OH239262   1.782   1.916  13.311  0.1752 -0.1489 -0.1267
 5924TIP3    H139263   1.839   1.874  13.375 -0.5663 -0.3433  0.4183
 5924TIP3    H239264   1.761   1.846  13.249  3.1417  0.6527 -2.2783
 5925TIP3   OH239265   5.378   5.435   5.533 -0.1674 -0.0452  0.1805
 5925TIP3    H139266   5.341   5.518   5.562 -1.4131 -0.8695  1.0337
 5925TIP3    H239267   5.473   5.449   5.538 -0.3430  1.3603  0.1618
 5926TIP3   OH239268   0.998   3.127  16.682 -0.1368  0.6673 -0.0824
 5926TIP3    H139269   0.999   3.221  16.663 -3.0376  0.6424 -0.8067
 5926TIP3    H239270   0.905   3.107  16.698  0.5792 -1.8245  1.4857
 5927TIP3   OH239271   5.794   3.612  16.934 -0.5448  0.3731  0.0432
 5927TIP3    H139272   5.870   3.564  16.968 -0.8401 -0.1256  0.0101
 5927TIP3    H239273   5.719   3.573  16.980 -1.0323 -0.7300 -1.5840
 5928TIP3   OH239274   4.514   4.311  15.589  0.0310 -0.5582 -0.1727
 5928TIP3    H139275   4.442   4.372  15.576 -1.0335 -1.1700  2.2426
 5928TIP3    H239276   4.503   4.246  15.520  0.8848  1.5855 -2.4620
 5929TIP3   OH239277   1.170   3.927   2.444 -0.4844  0.1555  0.1355
 5929TIP3    H139278   1.234   3.904   2.376 -1.2371 -0.1034 -0.5131
 5929TIP3    H239279   1.089   3.882   2.416 -1.3087  1.5268  0.2176
 5930TIP3   OH239280   0.476   1.153  14.151 -0.3974  0.7360 -0.4761
 5930TIP3    H139281   0.529   1.103  14.212 -1.8631 -3.5938 -2.3028
 5930TIP3    H239282   0.533   1.167  14.075 -0.2668  0.8359 -0.3574
 5931TIP3   OH239283   4.918   0.660  11.164 -0.2478 -0.0920  0.0134
 5931TIP3    H139284   4.912   0.628  11.074  1.8707  0.3457 -0.3333
 5931TIP3    H239285   4.921   0.580  11.217  2.2678 -0.5293 -0.6436
 5932TIP3   OH239286   4.367   0.095  15.977 -0.0857 -0.2941  0.2794
 5932TIP3    H139287   4.345   0.187  15.986  2.1789  0.5555 -1.7810
 5932TIP3    H239288   4.355   0.059  16.065  1.5826  2.5856  1.8400
 5933TIP3   OH239289   4.999   2.415  13.731 -0.2438  0.5094 -0.8957
 5933TIP3    H139290   4.973   2.507  13.718  1.8775  1.2141 -0.4781
 5933TIP3    H239291   5.018   2.384  13.642  0.7335  1.0255 -0.8755
 5934TIP3   OH239292   2.906   3.008   6.262 -0.2195 -0.6063  0.2422
 5934TIP3    H139293   2.861   2.941   6.313 -1.9861 -0.1233 -0.5890
 5934TIP3    H239294   2.996   3.005   6.292 -0.6182 -2.2074  1.4019
 5935TIP3   OH239295   3.610   6.657   4.985  0.0883  0.3628  0.3670
 5935TIP3    H139296   3.565   6.741   4.974 -1.6031 -0.6905 -1.3396
 5935TIP3    H239297   3.555   6.594   4.940  0.9424 -1.8365  2.1837
 5936TIP3   OH239298   0.688   6.441   1.091  0.4371 -0.2770  0.0531
 5936TIP3    H139299   0.609   6.391   1.071  0.6041 -1.2412  1.6194
 5936TIP3    H239300   0.756   6.374   1.103  1.5833  0.5354 -1.4794
 5937TIP3   OH239301   2.477   4.152  16.710  0.0157 -0.2208 -0.0764
 5937TIP3    H139302   2.386   4.139  16.682 -0.6503 -0.9406  2.1997
 5937TIP3    H239303   2.475   4.232  16.762  0.7604 -0.0516 -0.2995
 5938TIP3   OH239304   3.766   2.677  12.620  0.3417 -0.3195 -0.2248
 5938TIP3    H139305   3.846   2.663  12.671  1.1946  0.7709 -1.2032
 5938TIP3    H239306   3.796   2.683  12.529 -0.5849  1.9227 -0.4432
 5939TIP3   OH239307   4.783   6.264   5.121 -0.5029  0.2459 -0.6083
 5939TIP3    H139308   4.689   6.271   5.140 -0.1465 -0.7276  1.8174
 5939TIP3    H239309   4.789   6.192   5.058 -1.2423 -1.2976  1.0068
 5940TIP3   OH239310   2.653   2.209   5.545  0.2293 -0.7677  0.3415
 5940TIP3    H139311   2.674   2.162   5.465  0.2478 -1.6512  0.8530
 5940TIP3    H239312   2.677   2.149   5.616  1.5516  0.5367  1.0502
 5941TIP3   OH239313   0.906   4.272  11.182 -0.1084 -0.0328 -0.1615
 5941TIP3    H139314   0.827   4.310  11.143 -0.4910  0.5229  1.0976
 5941TIP3    H239315   0.968   4.345  11.186 -0.4349  0.1985  1.1755
 5942TIP3   OH239316   3.723   0.857  11.963  0.1165  0.0050 -0.1905
 5942TIP3    H139317   3.759   0.945  11.952 -0.2344  0.1552 -0.1699
 5942TIP3    H239318   3.642   0.858  11.912 -0.8390  0.2914  1.2536
 5943TIP3   OH239319   2.920   5.902   3.828 -0.1568 -0.3320  0.0707
 5943TIP3    H139320   2.968   5.905   3.911  0.0436  0.2430 -0.0584
 5943TIP3    H239321   2.835   5.864   3.850 -0.8364  1.5402  0.9144
 5944TIP3   OH239322   2.057   3.699   4.406  0.4236 -0.2554 -0.1034
 5944TIP3    H139323   2.146   3.734   4.402  0.2363  0.2362  0.0084
 5944TIP3    H239324   2.025   3.725   4.492  0.7869 -1.9479  0.5836
 5945TIP3   OH239325   0.275   1.687  16.856  0.1290 -0.6863  0.1285
 5945TIP3    H139326   0.327   1.617  16.818  0.7112 -0.0526 -0.2638
 5945TIP3    H239327   0.320   1.767  16.830  0.9108 -0.2150  2.6475
 5946TIP3   OH239328   5.485   0.581   3.465 -0.1793 -0.5456  0.1239
 5946TIP3    H139329   5.519   0.492   3.465 -1.0738 -0.9163 -1.0415
 5946TIP3    H239330   5.562   0.637   3.455  0.3469 -1.1986  0.5081
 5947TIP3   OH239331   5.366   6.425  15.287 -0.2056 -0.4052  0.3101
 5947TIP3    H139332   5.444   6.479  15.272 -0.5256 -0.2586 -0.8864
 5947TIP3    H239333   5.379   6.390  15.375  1.3881 -0.6706  0.0138
 5948TIP3   OH239334   2.634   2.037   4.057  0.3002  0.6592 -0.4495
 5948TIP3    H139335   2.704   2.102   4.068  2.1622 -1.2452 -0.3318
 5948TIP3    H239336   2.606   2.048   3.966  2.8662 -0.4097 -1.4781
 5949TIP3   OH239337   6.057   4.988   6.570  0.4376  0.1982 -0.5087
 5949TIP3    H139338   5.964   4.964   6.566  0.4649 -0.6428  2.1664
 5949TIP3    H239339   6.095   4.925   6.631  2.9631  0.0805 -2.0803
 5950TIP3   OH239340   0.066   5.717   2.382  0.3576 -0.1185 -0.5103
 5950TIP3    H139341   0.005   5.791   2.390  0.6782  0.2496 -1.3419
 5950TIP3    H239342   0.044   5.660   2.455 -1.0691 -0.0552 -0.8518
 5951TIP3   OH239343   4.892   6.097  11.374  0.3856  0.5789 -0.2379
 5951TIP3    H139344   4.806   6.138  11.369  0.0759  0.1309  1.0042
 5951TIP3    H239345   4.923   6.094  11.284 -0.1785  2.2587 -0.5194
 5952TIP3   OH239346   5.908   1.376  12.840  0.0451 -0.3409 -0.4239
 5952TIP3    H139347   5.994   1.395  12.803  1.4976  1.4500  3.3879
 5952TIP3    H239348   5.909   1.282  12.856  0.8604 -0.5022 -1.3264
 5953TIP3   OH239349   3.658   1.923  12.948  0.3355  0.1051 -0.0618
 5953TIP3    H139350   3.587   1.862  12.966  0.7791 -0.4891 -0.3146
 5953TIP3    H239351   3.727   1.870  12.908  0.9491  0.6584  0.2342
 5954TIP3   OH239352   6.768   4.491   3.563 -0.0887  0.4769 -1.0485
 5954TIP3    H139353   6.811   4.453   3.640 -0.6282  1.7495 -0.0802
 5954TIP3    H239354   6.760   4.418   3.502 -0.3677 -0.7745  0.4096
 5955TIP3   OH239355   0.798   1.291   4.545 -0.1453  0.1810 -0.1285
 5955TIP3    H139356   0.796   1.226   4.475  0.0159  0.6124 -0.5403
 5955TIP3    H239357   0.714   1.280   4.590 -0.4410  0.2007 -0.6679
 5956TIP3   OH239358   5.655   2.478  17.087  0.3114  0.3868 -0.2975
 5956TIP3    H139359   5.711   2.411  17.127  0.7546  1.0091  0.1411
 5956TIP3    H239360   5.716   2.540  17.048  0.3405  3.5557  3.9706
 5957TIP3   OH239361   4.720   4.789   4.410 -0.7708  0.1316 -0.1540
 5957TIP3    H139362   4.672   4.722   4.458  2.3331 -0.8152  1.8700
 5957TIP3    H239363   4.708   4.869   4.461 -2.2424  0.5840 -1.1165
 5958TIP3   OH239364   2.989   4.486   6.856  0.2526  0.0013 -0.0526
 5958TIP3    H139365   3.085   4.478   6.860  0.1466 -0.9824  1.1221
 5958TIP3    H239366   2.961   4.486   6.947 -0.7237  2.7906 -0.2638
 5959TIP3   OH239367   1.342   0.551  12.902 -0.4439 -0.5170  0.2928
 5959TIP3    H139368   1.381   0.635  12.878  2.0188 -1.5722  0.3169
 5959TIP3    H239369   1.316   0.512  12.819 -0.3317 -0.3056  0.1588
 5960TIP3   OH239370   0.324   1.050  11.493  0.1627 -0.7399  0.2570
 5960TIP3    H139371   0.378   0.987  11.541  2.1112  0.3767 -0.3385
 5960TIP3    H239372   0.286   1.000  11.421  0.4938 -1.5319  0.6213
 5961TIP3   OH239373   4.877   2.285   4.810  0.3047  0.7424  0.0851
 5961TIP3    H139374   4.813   2.314   4.745  0.8895 -1.6094 -1.6718
 5961TIP3    H239375   4.950   2.251   4.758  0.5418 -1.8220  1.9199
 5962TIP3   OH239376   3.499   6.142   1.361  0.0079  0.0323 -0.6102
 5962TIP3    H139377   3.416   6.158   1.406  0.6487  2.0576 -0.0337
 5962TIP3    H239378   3.493   6.193   1.281  0.6605  0.1470 -0.5920
 5963TIP3   OH239379   6.672   4.242   5.469 -0.0826 -0.3775  0.1813
 5963TIP3    H139380   6.699   4.325   5.431 -0.8703 -0.7591 -1.2682
 5963TIP3    H239381   6.597   4.264   5.524  1.1459  0.1935  1.7149
 5964TIP3   OH239382   3.787   3.353  11.558  0.3378 -0.1926  0.1807
 5964TIP3    H139383   3.814   3.261  11.559  1.4275  0.0730  3.1408
 5964TIP3    H239384   3.723   3.360  11.628  1.4464  1.5670  1.0859
 5965TIP3   OH239385   3.594   0.032   4.533 -0.9431 -0.3398 -0.3042
 5965TIP3    H139386   3.577   0.120   4.566  0.0465 -0.5522  0.8409
 5965TIP3    H239387   3.526  -0.023   4.572 -0.4137 -0.4034  0.5525
 5966TIP3   OH239388   4.642   3.708   3.573  0.2507  0.5994 -0.0084
 5966TIP3    H139389   4.598   3.725   3.490  1.7686  1.1782 -0.7352
 5966TIP3    H239390   4.733   3.690   3.549  0.3353 -1.1055  1.3881
 5967TIP3   OH239391   1.877   4.341  13.553 -0.9963  0.7348  0.3884
 5967TIP3    H139392   1.849   4.297  13.473  0.4210  1.3715 -0.4913
 5967TIP3    H239393   1.955   4.292  13.581 -0.8828  1.1515  0.8035
 5968TIP3   OH239394   6.751   1.903   1.961  0.1944  0.1961 -0.6013
 5968TIP3    H139395   6.682   1.946   1.910  0.5053  0.3739 -0.8769
 5968TIP3    H239396   6.746   1.944   2.047 -0.9186 -0.7201 -0.1928
 5969TIP3   OH239397   5.411   6.042   5.050  0.0057 -0.0367  0.0654
 5969TIP3    H139398   5.321   6.031   5.022  0.1499  0.1298 -0.4635
 5969TIP3    H239399   5.437   6.128   5.016 -0.1852  0.7098  1.6824
 5970TIP3   OH239400   6.103   6.693  12.575  0.0833  0.4796 -0.3414
 5970TIP3    H139401   6.032   6.747  12.608 -0.7342 -0.5670 -0.3286
 5970TIP3    H239402   6.066   6.648  12.499  0.1009 -1.4858  0.7504
 5971TIP3   OH239403   2.410   0.703  11.178 -0.1573 -0.5415  0.0343
 5971TIP3    H139404   2.460   0.714  11.258 -1.5356  0.2357  0.8221
 5971TIP3    H239405   2.319   0.708  11.205 -0.6666 -0.5162 -1.5488
 5972TIP3   OH239406   4.020   3.731   4.047 -0.1487  0.3802  0.1845
 5972TIP3    H139407   4.063   3.677   4.113  0.7645 -1.0884 -1.5359
 5972TIP3    H239408   3.949   3.774   4.094 -1.4046 -2.8776  1.5496
 5973TIP3   OH239409   6.705   2.561   0.515 -0.3540  0.1385  0.0415
 5973TIP3    H139410   6.766   2.632   0.535  0.9896 -1.2113  0.9055
 5973TIP3    H239411   6.685   2.573   0.422  1.9442  0.1159 -0.5023
 5974TIP3   OH239412   0.329   5.525   6.441  0.5786 -0.0140 -0.0692
 5974TIP3    H139413   0.383   5.539   6.363  0.8220  0.5300  0.1955
 5974TIP3    H239414   0.340   5.605   6.493 -0.4187  0.0817  0.0238
 5975TIP3   OH239415   1.261   4.696  15.242 -0.0054 -0.1764 -0.1168
 5975TIP3    H139416   1.350   4.664  15.226 -0.3118 -1.1248  0.0117
 5975TIP3    H239417   1.210   4.617  15.263 -0.7542  0.4174  0.3724
 5976TIP3   OH239418   0.511   3.533   4.735  0.2393 -0.3238  0.6231
 5976TIP3    H139419   0.481   3.448   4.703  0.4577 -0.3188  0.4028
 5976TIP3    H239420   0.528   3.584   4.655  1.1294 -0.4301  0.7394
 5977TIP3   OH239421   5.493   2.894   1.826 -0.2110 -0.2992 -0.4639
 5977TIP3    H139422   5.587   2.909   1.815 -0.4047  0.5936 -1.0119
 5977TIP3    H239423   5.475   2.814   1.777  0.2357 -0.3970 -0.4708
 5978TIP3   OH239424   4.577   2.910   4.776  0.5217  0.6698 -0.1626
 5978TIP3    H139425   4.559   2.961   4.697 -0.2764 -0.5298 -0.7950
 5978TIP3    H239426   4.490   2.891   4.813  0.7188 -0.9025 -0.4230
 5979TIP3   OH239427   0.758   4.191   5.273  0.9737  0.0714  0.0866
 5979TIP3    H139428   0.663   4.180   5.276  1.1637 -2.4845 -0.9190
 5979TIP3    H239429   0.790   4.154   5.356  1.1230  0.3725  0.1643
 5980TIP3   OH239430   0.757   0.243   5.551  0.3986  0.5032  0.4384
 5980TIP3    H139431   0.667   0.275   5.546 -0.1769 -1.1390 -0.3282
 5980TIP3    H239432   0.750   0.161   5.600  1.2686 -0.3443 -0.8148
 5981TIP3   OH239433   2.992   2.127  10.914 -0.3268 -0.0372 -0.4045
 5981TIP3    H139434   2.958   2.064  10.851 -1.6267  1.1379 -0.9443
 5981TIP3    H239435   3.084   2.138  10.891 -0.0665 -1.7309 -0.2694
 5982TIP3   OH239436   1.288   6.772   2.522 -0.4190  0.0453 -0.2481
 5982TIP3    H139437   1.251   6.740   2.440 -0.1721 -1.3045  0.1391
 5982TIP3    H239438   1.382   6.764   2.511 -0.4000 -2.8693  1.1285
 5983TIP3   OH239439   5.608   4.448  16.849  0.4042  0.1240 -0.4235
 5983TIP3    H139440   5.680   4.438  16.911 -1.5020 -0.6721  1.8304
 5983TIP3    H239441   5.545   4.505  16.894 -2.0460 -2.2574 -0.5157
 5984TIP3   OH239442   5.559   2.740  15.745 -0.3675 -0.3040 -0.2238
 5984TIP3    H139443   5.642   2.693  15.736 -0.7851 -1.0355 -0.3865
 5984TIP3    H239444   5.579   2.815  15.800  0.2129 -0.9631  0.4872
 5985TIP3   OH239445   5.959   3.484  12.311 -0.3628  0.6987 -0.5301
 5985TIP3    H139446   6.017   3.554  12.283 -1.4176  1.9660  0.3491
 5985TIP3    H239447   5.905   3.523  12.380 -0.2928 -1.2524  0.7299
 5986TIP3   OH239448   6.453   5.260  16.478  0.1619 -0.6934 -0.2002
 5986TIP3    H139449   6.392   5.320  16.434  3.4350  2.5069 -0.8598
 5986TIP3    H239450   6.461   5.186  16.419 -1.1150  0.0097 -1.3274
 5987TIP3   OH239451   2.565   2.087   0.131  0.1969 -0.1032  0.0301
 5987TIP3    H139452   2.478   2.086   0.091 -0.2741 -0.2688  1.0399
 5987TIP3    H239453   2.578   1.997   0.162  2.1454 -1.0713 -3.0308
 5988TIP3   OH239454   3.936   6.037  11.988 -0.4471  0.2534 -0.7547
 5988TIP3    H139455   3.948   6.113  11.932  0.6484 -0.7618 -1.9940
 5988TIP3    H239456   3.846   6.043  12.019 -1.0348  0.9838 -2.4707
 5989TIP3   OH239457   1.453   2.930  12.459  0.4820  0.0080 -0.0673
 5989TIP3    H139458   1.404   2.959  12.536 -1.0346  0.9526 -1.3193
 5989TIP3    H239459   1.544   2.953  12.478  0.1979 -0.1510  1.5868
 5990TIP3   OH239460   1.873   3.971   1.906  0.3161  0.2049 -0.1743
 5990TIP3    H139461   1.897   4.058   1.939 -0.6344 -0.1911  1.7262
 5990TIP3    H239462   1.902   3.910   1.975  1.1433 -1.0299 -1.5593
 5991TIP3   OH239463   4.995   0.888  11.917  0.1010 -0.9117  0.6700
 5991TIP3    H139464   4.962   0.843  11.840 -0.1773  1.1304 -0.4562
 5991TIP3    H239465   5.087   0.907  11.897 -0.6590  2.0932 -0.4631
 5992TIP3   OH239466   4.199   4.443  14.093  0.1016 -0.1152 -0.1922
 5992TIP3    H139467   4.180   4.352  14.071 -0.6587 -0.0845  0.2744
 5992TIP3    H239468   4.180   4.491  14.012  2.0887 -0.5338 -0.9490
 5993TIP3   OH239469   5.882   6.116   4.056 -0.3968 -0.1466  0.2214
 5993TIP3    H139470   5.860   6.024   4.039 -3.0594  0.2039  1.3871
 5993TIP3    H239471   5.896   6.154   3.969 -0.7711 -1.2983 -0.3584
 5994TIP3   OH239472   6.001   0.023  17.059 -0.1784  0.2203 -0.0746
 5994TIP3    H139473   5.966  -0.066  17.046  0.3829  0.0107 -0.2014
 5994TIP3    H239474   5.945   0.062  17.125 -1.9451  0.6308 -1.7216
 5995TIP3   OH239475   2.949   5.464  12.838  0.1316  0.9222  0.0996
 5995TIP3    H139476   2.854   5.470  12.832 -0.0042  0.2222  1.2207
 5995TIP3    H239477   2.966   5.376  12.874  1.2902  0.2957 -1.8035
 5996TIP3   OH239478   6.009   5.643  16.739  0.2869 -0.1423  0.2428
 5996TIP3    H139479   6.053   5.646  16.654  1.2504  0.7741  0.7427
 5996TIP3    H239480   6.071   5.598  16.796 -0.2135 -0.4545  0.5434
 5997TIP3   OH239481   2.610   0.317   1.545 -0.0929 -0.3413 -0.1425
 5997TIP3    H139482   2.680   0.253   1.528  0.7261  0.1547  1.1755
 5997TIP3    H239483   2.630   0.351   1.632 -1.2929  0.7266 -0.2598
 5998TIP3   OH239484   2.976   1.181  15.713 -0.2212  0.2180 -0.1345
 5998TIP3    H139485   3.025   1.133  15.781  0.7554  1.6939  0.2469
 5998TIP3    H239486   2.885   1.171  15.739 -0.0783 -1.5625 -0.1694
 5999TIP3   OH239487   0.045   5.044  13.171 -0.2625  0.1907  0.2074
 5999TIP3    H139488   0.052   5.012  13.260  1.3020  0.0659  0.0697
 5999TIP3    H239489   0.046   4.965  13.116 -2.1401  0.2029  0.0701
 6000TIP3   OH239490   0.674   2.028   3.061  0.0179  0.2574  0.5596
 6000TIP3    H139491   0.631   2.113   3.063 -0.9878 -0.2268 -0.0187
 6000TIP3    H239492   0.709   2.021   2.972 -0.4185 -0.1726  0.4138
 6001TIP3   OH239493   6.065   3.697   2.502 -0.2549  0.1284 -0.0500
 6001TIP3    H139494   6.007   3.641   2.553 -0.2711  0.1858 -0.0047
 6001TIP3    H239495   6.009   3.770   2.475 -0.1446  0.3089  0.2008
 6002TIP3   OH239496   4.423   2.873   1.091  0.1725  0.7008 -0.2809
 6002TIP3    H139497   4.367   2.836   1.023 -0.6341 -1.3966  1.4476
 6002TIP3    H239498   4.510   2.839   1.071 -0.2906 -0.9654  0.4121
 6003TIP3   OH239499   1.759   1.048  16.545  0.3249  1.0500 -0.5027
 6003TIP3    H139500   1.795   1.073  16.631 -0.4791 -0.2421  0.2480
 6003TIP3    H239501   1.680   0.998  16.566 -0.3914  1.4828 -2.0389
 6004TIP3   OH239502   4.721   1.019  12.011 -0.2920  0.1999 -0.1813
 6004TIP3    H139503   4.712   0.984  11.923  1.8410  0.8093 -0.7031
 6004TIP3    H239504   4.699   1.112  12.003  2.5612  0.9238 -0.7624
 6005TIP3   OH239505   3.138   0.786   1.022 -0.6623  0.1203 -0.0231
 6005TIP3    H139506   3.176   0.794   0.935  0.0386 -3.7263 -0.2635
 6005TIP3    H239507   3.212   0.774   1.081 -1.2200 -0.6509  0.5562
 6006TIP3   OH239508   2.676   0.747   3.771  0.5074 -0.1429 -0.2318
 6006TIP3    H139509   2.638   0.749   3.683 -1.8141 -3.0746  0.5585
 6006TIP3    H239510   2.632   0.819   3.816 -0.1359 -0.1479 -0.8175
 6007TIP3   OH239511   4.929   6.324   6.016 -0.0749  0.4370 -0.1685
 6007TIP3    H139512   4.928   6.420   6.020  0.4896  0.5580 -2.0067
 6007TIP3    H239513   4.992   6.298   6.084  0.0611  1.3866  0.0788
 6008TIP3   OH239514   1.508   2.947  17.062  0.5178  0.3553 -0.4624
 6008TIP3    H139515   1.527   3.040  17.071 -1.5633  0.8123 -0.3378
 6008TIP3    H239516   1.440   2.930  17.127 -1.4614 -0.4895 -2.6290
 6009TIP3   OH239517   0.028   6.474  16.317  0.5283 -0.0456 -0.1852
 6009TIP3    H139518  -0.046   6.509  16.267 -0.2031  0.2682  1.0816
 6009TIP3    H239519   0.102   6.527  16.289  0.1723  0.0023 -1.0747
 6010TIP3   OH239520   4.486   1.979   0.879  0.3523 -0.1032  0.2831
 6010TIP3    H139521   4.415   2.039   0.903  1.4303  1.2607  0.1933
 6010TIP3    H239522   4.560   2.008   0.933  0.9884 -1.1698 -0.0064
 6011TIP3   OH239523   5.756   4.850  12.097  0.4383 -1.0540  0.4001
 6011TIP3    H139524   5.712   4.792  12.160 -0.8559  0.4998  0.9960
 6011TIP3    H239525   5.706   4.839  12.016  0.1788 -0.7631  0.5200
 6012TIP3   OH239526   6.549   1.784  13.449 -0.1530  0.0927  0.0827
 6012TIP3    H139527   6.589   1.715  13.396 -0.5582 -0.4613  0.4963
 6012TIP3    H239528   6.618   1.809  13.511  0.3659  0.8299 -0.7682
 6013TIP3   OH239529   5.264   1.023   1.988 -0.0452  0.2845  0.3659
 6013TIP3    H139530   5.281   0.952   2.051  0.5448  0.7985  0.7942
 6013TIP3    H239531   5.329   1.090   2.009 -0.2226  0.7115 -0.4177
 6014TIP3   OH239532   3.830   4.206   1.408 -0.1839  0.0660 -0.0195
 6014TIP3    H139533   3.766   4.206   1.337  0.4408  0.4943 -0.5931
 6014TIP3    H239534   3.908   4.246   1.370  0.5564 -0.7855  0.5578
 6015TIP3   OH239535   3.746   3.042  12.495 -0.1572 -0.0421 -0.0017
 6015TIP3    H139536   3.773   3.032  12.586  0.6205  0.1182 -0.2137
 6015TIP3    H239537   3.779   2.964  12.451  0.7045  0.5457 -0.4281
 6016TIP3   OH239538   1.749   5.462  11.380  0.1038 -0.7107 -0.3270
 6016TIP3    H139539   1.770   5.370  11.364 -0.0158 -0.8812  0.4915
 6016TIP3    H239540   1.680   5.482  11.317 -0.0113 -1.2367 -0.3704
 6017TIP3   OH239541   6.658   1.299  11.557 -0.1220 -0.2222 -0.1923
 6017TIP3    H139542   6.579   1.353  11.549  0.5127  0.6906 -0.3933
 6017TIP3    H239543   6.626   1.217  11.595 -1.1475  0.1847 -0.1272
 6018TIP3   OH239544   4.614   2.204  14.285 -0.0615  0.4276  0.0635
 6018TIP3    H139545   4.655   2.147  14.221 -0.2323 -1.3229  1.4366
 6018TIP3    H239546   4.577   2.145  14.350 -1.0662  2.0876  1.0875
 6019TIP3   OH239547   2.934   0.916  12.843 -0.2458 -0.6361  0.3602
 6019TIP3    H139548   2.842   0.898  12.864 -0.9901  1.5777 -0.7187
 6019TIP3    H239549   2.932   0.949  12.753  1.3589  1.1777  0.9354
 6020TIP3   OH239550   1.638   1.540  16.243 -0.3738 -0.3214  0.4896
 6020TIP3    H139551   1.722   1.517  16.204  0.0358 -0.8703  1.6413
 6020TIP3    H239552   1.581   1.558  16.168  0.5154 -0.8071 -0.3336
 6021TIP3   OH239553   1.595   1.732  17.066 -0.0412 -0.9081  0.1239
 6021TIP3    H139554   1.594   1.775  17.151 -0.9352  1.3877 -0.9407
 6021TIP3    H239555   1.588   1.804  17.003  0.6876 -2.5038 -1.9107
 6022TIP3   OH239556   5.831   1.108   1.111  0.2330  0.2848 -0.2660
 6022TIP3    H139557   5.797   1.191   1.076  3.2346  1.4621 -0.6682
 6022TIP3    H239558   5.891   1.077   1.044 -0.7641 -2.2767 -0.0885
 6023TIP3   OH239559   6.261   2.128   0.180  0.4527  0.1945 -0.0405
 6023TIP3    H139560   6.326   2.067   0.216 -1.2813 -0.9049  1.3950
 6023TIP3    H239561   6.237   2.183   0.254 -0.1631  0.6744 -0.5888
 6024TIP3   OH239562   0.177   4.958  14.931 -0.3338 -0.1043 -0.3164
 6024TIP3    H139563   0.098   5.010  14.918  0.5352  1.5000  0.4355
 6024TIP3    H239564   0.224   5.004  15.001  1.3367 -0.9205 -0.8523
 6025TIP3   OH239565   2.574   4.394  12.171  0.2498 -0.2616 -0.4717
 6025TIP3    H139566   2.665   4.385  12.142  0.4783  1.6950 -0.5445
 6025TIP3    H239567   2.566   4.487  12.195 -1.1314 -0.8433  1.6159
 6026TIP3   OH239568   3.836   5.960  13.484  0.0866 -0.2907 -0.9064
 6026TIP3    H139569   3.781   6.017  13.430 -0.1146  0.7452  0.3370
 6026TIP3    H239570   3.890   6.020  13.535 -0.3203 -1.1873  0.6405
 6027TIP3   OH239571   2.127   6.417  13.313  1.0416  0.4540 -0.2520
 6027TIP3    H139572   2.147   6.510  13.329 -2.1851  1.5167 -1.4955
 6027TIP3    H239573   2.112   6.412  13.218 -0.3536 -0.9577  0.0064
 6028TIP3   OH239574   4.941   5.389   0.203 -0.0396 -0.2528 -0.6567
 6028TIP3    H139575   4.871   5.407   0.139 -1.2777  0.6691  0.8791
 6028TIP3    H239576   4.956   5.472   0.246 -0.0552 -1.0894  1.0411
 6029TIP3   OH239577   6.405   3.420   6.206  0.1329 -0.1042  0.0915
 6029TIP3    H139578   6.406   3.329   6.177 -1.4049  0.0453 -0.5446
 6029TIP3    H239579   6.329   3.426   6.264  0.1448  0.7844  0.0315
 6030TIP3   OH239580   2.751   0.607   2.906  0.0195  0.1225 -0.2669
 6030TIP3    H139581   2.757   0.546   2.832 -2.5019  0.9843 -1.2876
 6030TIP3    H239582   2.745   0.551   2.983  0.8939 -0.8248 -0.8559
 6031TIP3   OH239583   1.943   5.754  16.528 -0.0974 -0.1373 -0.5767
 6031TIP3    H139584   1.915   5.665  16.506 -0.4348  0.3181 -2.0764
 6031TIP3    H239585   2.017   5.771  16.470 -0.7042  0.9326 -1.0695
 6032TIP3   OH239586   0.848   5.418  11.057 -0.3257  0.1899 -0.0279
 6032TIP3    H139587   0.769   5.465  11.083  0.1818  0.8800  0.3226
 6032TIP3    H239588   0.844   5.415  10.961  1.0641  3.7092 -0.3674
 6033TIP3   OH239589   4.916   0.160   6.543  0.2487 -0.0180  0.2823
 6033TIP3    H139590   4.889   0.170   6.452  0.4509  0.4821  0.2699
 6033TIP3    H239591   4.924   0.250   6.576  3.2367 -0.0077 -0.1268
 6034TIP3   OH239592   3.522   6.202  14.065 -0.4257  0.0159 -0.0033
 6034TIP3    H139593   3.521   6.151  13.985 -1.4401 -0.5212  0.3350
 6034TIP3    H239594   3.510   6.138  14.135  0.4332  0.4792  0.5839
 6035TIP3   OH239595   1.202   1.090   2.423  0.3411 -0.3243  0.3181
 6035TIP3    H139596   1.144   1.034   2.371  0.8251 -0.1533 -0.4289
 6035TIP3    H239597   1.290   1.067   2.392  0.5390  1.0053 -0.1750
 6036TIP3   OH239598   2.885   3.296   1.162  0.2143 -0.0988 -0.1624
 6036TIP3    H139599   2.964   3.346   1.144  0.2522 -0.6314 -1.5380
 6036TIP3    H239600   2.913   3.205   1.160 -0.2484 -0.2577  0.3276
 6037TIP3   OH239601   2.340   6.024   1.881 -0.1259 -0.3182 -0.1038
 6037TIP3    H139602   2.411   6.049   1.822  0.1402  1.2160  0.8103
 6037TIP3    H239603   2.377   6.036   1.969 -1.2419 -0.3511  0.3821
 6038TIP3   OH239604   2.173   0.030   2.319  0.2350 -0.3069  0.1171
 6038TIP3    H139605   2.222   0.052   2.239 -1.7504  2.1182 -0.5956
 6038TIP3    H239606   2.141  -0.059   2.304  1.5861 -0.6594 -0.8600
 6039TIP3   OH239607   6.352   1.539  16.959 -0.2908  0.1482  0.2301
 6039TIP3    H139608   6.447   1.529  16.953 -0.3533 -1.6244  1.4099
 6039TIP3    H239609   6.324   1.560  16.869  1.2793  1.7303  0.0634
 6040TIP3   OH239610   3.397   5.042  13.675  0.0687  0.0720 -0.8019
 6040TIP3    H139611   3.487   5.012  13.658  0.0009  0.1645 -1.3358
 6040TIP3    H239612   3.400   5.079  13.763  0.5314 -0.0239 -0.7759
 6041TIP3   OH239613   1.232   6.397   1.099 -0.2534  0.4664 -0.1340
 6041TIP3    H139614   1.204   6.486   1.077  1.1599  0.6656 -1.3302
 6041TIP3    H239615   1.247   6.356   1.014 -2.8778 -1.6704  0.2736
 6042TIP3   OH239616   0.512   5.690  15.547 -0.1058 -0.5238  0.7034
 6042TIP3    H139617   0.605   5.667  15.551  0.3337  1.0548  0.4315
 6042TIP3    H239618   0.499   5.749  15.622 -0.5922  0.1964  0.0674
 6043TIP3   OH239619   3.934   5.258   1.263  0.6773 -0.1561 -0.4289
 6043TIP3    H139620   4.008   5.248   1.204  0.5911 -1.7731 -0.3138
 6043TIP3    H239621   3.958   5.208   1.341 -0.4869 -0.6435 -0.3620
 6044TIP3   OH239622   6.279   1.345   0.172 -0.2993 -0.1965  0.1327
 6044TIP3    H139623   6.355   1.401   0.158 -0.3753  0.2525  1.4231
 6044TIP3    H239624   6.314   1.256   0.169  0.1526 -0.0166  0.0257
 6045TIP3   OH239625   4.387   4.298  11.301 -0.0440 -0.1409  0.0948
 6045TIP3    H139626   4.425   4.370  11.251  3.4807 -1.7452  0.2117
 6045TIP3    H239627   4.407   4.220  11.250 -1.3926 -1.3284  1.2814
 6046TIP3   OH239628   6.412   2.265   0.375 -0.0099 -0.4968  0.0184
 6046TIP3    H139629   6.392   2.187   0.426 -0.6843  0.4418  1.2267
 6046TIP3    H239630   6.417   2.335   0.439  1.2107  0.3707 -0.9768
 6047TIP3   OH239631   5.701   4.447   0.292 -0.2722 -0.4262  0.4667
 6047TIP3    H139632   5.792   4.449   0.321  0.1457 -1.5350 -0.7345
 6047TIP3    H239633   5.650   4.441   0.374  0.7925 -1.2947  1.0886
 6048TIP3   OH239634   0.111   6.709  14.221 -0.2774 -0.2355  0.2449
 6048TIP3    H139635   0.108   6.798  14.255 -1.1714  1.0865 -2.8919
 6048TIP3    H239636   0.153   6.658  14.290  0.5180  2.6452  2.0691
 6049TIP3   OH239637   1.033   5.149   1.795  0.0355  0.7947  0.0257
 6049TIP3    H139638   1.127   5.143   1.809 -0.0184  0.7112  0.3754
 6049TIP3    H239639   1.018   5.239   1.768  0.1265  1.0304  0.7389
 6050TIP3   OH239640   6.433   2.486   4.748  0.2427  0.1814  0.0142
 6050TIP3    H139641   6.513   2.445   4.780  0.4594 -1.3816 -2.2947
 6050TIP3    H239642   6.461   2.541   4.675 -0.6041  0.9141  0.2267
 6051TIP3   OH239643   0.482   6.617   5.061 -0.0580  0.1867 -0.1612
 6051TIP3    H139644   0.514   6.687   5.118 -2.2219  0.9786  0.1435
 6051TIP3    H239645   0.390   6.608   5.083 -0.1958 -1.7234 -1.3004
 6052TIP3   OH239646   2.244   1.000   4.458 -0.6444  0.0756  0.4868
 6052TIP3    H139647   2.284   0.959   4.535  1.0097  0.1556 -0.3162
 6052TIP3    H239648   2.150   0.987   4.471 -0.3248 -1.0329  1.8898
 6053TIP3   OH239649   4.892   3.149  15.195 -0.3568 -0.3063  0.0229
 6053TIP3    H139650   4.822   3.186  15.140 -0.4438 -1.0984 -0.4092
 6053TIP3    H239651   4.885   3.197  15.277  0.8160  2.0969 -1.1581
 6054TIP3   OH239652   3.932   2.394   4.097  0.0135  0.1575  0.0314
 6054TIP3    H139653   3.856   2.424   4.145 -0.9268 -0.1509 -1.2072
 6054TIP3    H239654   3.960   2.470   4.045  0.8365  0.4013  0.8052
 6055TIP3   OH239655   3.631   4.232  11.005 -0.8318  0.2143 -0.5708
 6055TIP3    H139656   3.649   4.263  11.094 -3.1578  1.6758 -0.5040
 6055TIP3    H239657   3.688   4.285  10.949  0.3164 -0.3973 -0.0039
 6056TIP3   OH239658   3.973   0.720   4.663  0.0307  0.2349 -0.5192
 6056TIP3    H139659   4.048   0.702   4.606 -0.8274 -1.3364 -1.2017
 6056TIP3    H239660   4.005   0.787   4.724  1.2319  1.3373 -2.2758
 6057TIP3   OH239661   3.202   6.535  13.382 -0.0384  0.2512  0.1101
 6057TIP3    H139662   3.118   6.516  13.424  0.1707  0.4097  0.6060
 6057TIP3    H239663   3.229   6.451  13.344  0.2998 -0.1919  1.2593
 6058TIP3   OH239664   0.457   4.945   0.468  0.4242 -0.1136  0.1967
 6058TIP3    H139665   0.384   4.890   0.498  0.4788 -2.1268 -2.9594
 6058TIP3    H239666   0.521   4.939   0.538 -1.0096 -1.2113  1.4944
 6059TIP3   OH239667   6.133   6.727  14.233  0.3788  0.3091 -0.2325
 6059TIP3    H139668   6.142   6.693  14.322  1.0787 -1.1623 -0.8228
 6059TIP3    H239669   6.186   6.807  14.232  1.7376 -0.5435  0.2575
 6060TIP3   OH239670   3.312   1.666   2.346 -0.3912 -0.0764 -0.6152
 6060TIP3    H139671   3.276   1.751   2.369 -1.0211 -0.9872  2.1281
 6060TIP3    H239672   3.311   1.616   2.428  3.0942 -1.6327 -1.3337
 6061TIP3   OH239673   6.541   2.526  11.200  0.3397  0.1117 -0.1106
 6061TIP3    H139674   6.549   2.436  11.167 -0.9024 -0.1018  0.1003
 6061TIP3    H239675   6.609   2.533  11.267  1.3733 -0.2007 -1.0970
 6062TIP3   OH239676   2.660   0.907   0.466 -0.1223 -0.3574 -0.2931
 6062TIP3    H139677   2.700   0.831   0.507  1.5732  0.4620 -0.3778
 6062TIP3    H239678   2.671   0.978   0.529  0.4677  0.3765 -1.1890
 6063TIP3   OH239679   4.347   6.301   0.568 -0.1796 -0.2600 -0.1013
 6063TIP3    H139680   4.257   6.281   0.545 -0.2623  0.8532 -0.7948
 6063TIP3    H239681   4.400   6.255   0.502 -0.2488 -0.4977  0.0062
 6064TIP3   OH239682   1.645   5.503   5.861  0.3821 -0.5083 -0.3733
 6064TIP3    H139683   1.677   5.417   5.889  1.0271  0.5939  2.7219
 6064TIP3    H239684   1.549   5.495   5.864  0.4341 -1.2005 -0.3893
 6065TIP3   OH239685   5.822   0.322   0.824  0.3697  0.0897 -0.0687
 6065TIP3    H139686   5.879   0.349   0.752 -0.9237  1.0625 -0.7726
 6065TIP3    H239687   5.734   0.323   0.787 -0.3870  0.9900  1.6167
 6066TIP3   OH239688   1.650   4.405  14.758  0.2971 -0.2778 -0.1189
 6066TIP3    H139689   1.568   4.387  14.711 -0.0887  2.3388 -0.6211
 6066TIP3    H239690   1.718   4.367  14.702 -0.4748 -1.7124 -0.1372
 6067TIP3   OH239691   0.627   4.809   4.682 -0.1122  0.6910  0.4318
 6067TIP3    H139692   0.679   4.887   4.701  1.2059 -0.0502 -0.0762
 6067TIP3    H239693   0.556   4.841   4.625  1.8018  1.1533 -1.8440
 6068TIP3   OH239694   0.613   1.151   4.305  0.6080  0.0634  0.5382
 6068TIP3    H139695   0.663   1.232   4.314  0.9922 -0.2031  0.9356
 6068TIP3    H239696   0.634   1.119   4.217  0.4149  0.4211  0.3629
 6069TIP3   OH239697   3.922   6.207  12.622 -0.3762  0.4715 -0.5763
 6069TIP3    H139698   3.905   6.156  12.543 -0.1886 -0.6073  0.0586
 6069TIP3    H239699   4.017   6.207  12.631 -0.3594 -4.2300  2.5717
 6070TIP3   OH239700   2.559   2.011  15.775  0.0019  0.6277  0.2681
 6070TIP3    H139701   2.604   1.978  15.697 -0.9696  0.0917 -0.0882
 6070TIP3    H239702   2.468   1.986  15.761 -0.1902  0.5791  1.5664
 6071TIP3   OH239703   6.457   4.956   4.848  0.2858  0.0661 -0.2752
 6071TIP3    H139704   6.431   4.938   4.757  0.6142 -1.0201 -0.1743
 6071TIP3    H239705   6.544   4.916   4.855 -0.4537 -1.4372  0.9996
 6072TIP3   OH239706   2.976   2.897   3.973 -0.4946 -0.6040 -0.0826
 6072TIP3    H139707   3.019   2.944   4.044 -1.8236  1.6668 -0.6722
 6072TIP3    H239708   2.919   2.834   4.018  0.2033 -0.6313  0.7891
 6073TIP3   OH239709   1.439   1.220   6.175  0.0649  0.2943 -0.0348
 6073TIP3    H139710   1.468   1.269   6.098  0.6542  0.7573  0.4680
 6073TIP3    H239711   1.452   1.281   6.248 -1.0158  0.0624  0.3595
 6074TIP3   OH239712   6.033   6.009  13.290 -0.5936 -0.0360  0.0900
 6074TIP3    H139713   6.101   5.958  13.247  1.5102  0.7273  2.2667
 6074TIP3    H239714   6.024   5.969  13.377 -1.1126  1.3937  0.7314
 6075TIP3   OH239715   2.828   1.858  14.439  0.1188  0.9448  0.1880
 6075TIP3    H139716   2.792   1.943  14.466 -2.6434  0.6325 -2.1218
 6075TIP3    H239717   2.857   1.872  14.349  2.2341  0.0675  0.6692
 6076TIP3   OH239718   1.198   1.493  11.877  0.0297  0.2213 -0.0921
 6076TIP3    H139719   1.159   1.549  11.944 -0.5383 -0.3430  0.0606
 6076TIP3    H239720   1.197   1.405  11.915 -1.2160 -0.2875 -1.1817
 6077TIP3   OH239721   5.935   1.959   1.686 -0.3745 -0.1601 -0.1877
 6077TIP3    H139722   5.975   1.958   1.773  2.0620  0.8450 -1.2160
 6077TIP3    H239723   5.848   1.997   1.701  0.3901  1.0185  1.6657
 6078TIP3   OH239724   0.228   6.733   0.345 -1.1676  0.0012  0.0847
 6078TIP3    H139725   0.254   6.815   0.386  1.7877 -1.0124  0.4807
 6078TIP3    H239726   0.141   6.714   0.381  0.3351  0.2093  4.4255
 6079TIP3   OH239727   2.775   3.938   2.951  0.0504  0.2745  0.3402
 6079TIP3    H139728   2.824   4.007   2.905 -0.9661  1.5383  1.0807
 6079TIP3    H239729   2.706   3.913   2.889  1.1035 -0.9314 -0.3842
 6080TIP3   OH239730   3.366   1.378   3.446  0.1905 -0.1827 -0.3223
 6080TIP3    H139731   3.386   1.336   3.529 -1.1027 -0.4038 -0.0974
 6080TIP3    H239732   3.305   1.318   3.403  2.8360 -1.4410 -2.6595
 6081TIP3   OH239733   3.148   1.047   3.196 -0.0159  0.0871 -0.1527
 6081TIP3    H139734   3.125   1.106   3.124  0.2331 -1.3819 -1.4922
 6081TIP3    H239735   3.243   1.053   3.204 -0.1545  1.1292  0.8674
 6082TIP3   OH239736   4.849   6.738  12.723  0.2799  0.1869  0.2035
 6082TIP3    H139737   4.799   6.657  12.726  0.0513  0.3266  0.1477
 6082TIP3    H239738   4.885   6.747  12.811 -0.4423  0.4976  0.4688
 6083TIP3   OH239739   1.008   5.259   3.272  0.8349 -0.1500  0.1736
 6083TIP3    H139740   0.974   5.276   3.184  1.5401  0.0574 -0.0661
 6083TIP3    H239741   1.101   5.240   3.258  0.3884 -3.0774  0.5340
 6084TIP3   OH239742   4.362   3.667  12.339 -0.2001  0.0298  0.1032
 6084TIP3    H139743   4.294   3.675  12.406 -0.1267 -0.8697  0.3068
 6084TIP3    H239744   4.344   3.738  12.278 -0.3646  0.7737  0.9879
 6085TIP3   OH239745   2.166   2.854  12.783  0.4429  0.1174  0.1061
 6085TIP3    H139746   2.116   2.807  12.716 -1.4658 -2.0052  2.7558
 6085TIP3    H239747   2.114   2.932  12.801 -0.7727 -0.8944  1.1985
 6086TIP3   OH239748   5.305   4.659  14.890 -0.3488 -0.0429  0.4432
 6086TIP3    H139749   5.328   4.595  14.957 -1.1203  0.0851  0.8340
 6086TIP3    H239750   5.371   4.728  14.899  1.8011 -1.6844 -1.3495
 6087TIP3   OH239751   4.911   5.114  12.251  0.6342  0.8124 -0.1677
 6087TIP3    H139752   4.977   5.062  12.297  1.5233  1.0962 -1.0727
 6087TIP3    H239753   4.887   5.061  12.175 -0.7614  0.3834  0.5502
 6088TIP3   OH239754   4.699   0.648  14.741  0.0922  0.4960 -0.2212
 6088TIP3    H139755   4.643   0.577  14.710 -0.6298  1.4097 -1.0907
 6088TIP3    H239756   4.765   0.605  14.795  1.4464 -1.2303 -3.0195
 6089TIP3   OH239757   2.802   4.603   4.646  0.0090 -0.0496  0.2842
 6089TIP3    H139758   2.818   4.510   4.627  0.3845 -0.1212  0.8945
 6089TIP3    H239759   2.769   4.640   4.564 -1.0870 -0.9328  0.3021
 6090TIP3   OH239760   3.655   2.064  11.697  0.0393  0.2550 -0.0764
 6090TIP3    H139761   3.664   2.025  11.610 -1.2516  1.4101 -0.7495
 6090TIP3    H239762   3.625   2.153  11.681  0.6523  0.7903  1.5301
 6091TIP3   OH239763   0.608   1.952   0.405 -0.5416  0.0098  0.7816
 6091TIP3    H139764   0.564   1.932   0.323  0.3392  0.9256  0.0564
 6091TIP3    H239765   0.648   1.869   0.432  0.3401  0.0089 -0.4632
 6092TIP3   OH239766   0.215   0.538   4.645  0.4452 -0.0872 -0.1337
 6092TIP3    H139767   0.130   0.547   4.604  1.2909 -0.1106 -1.9825
 6092TIP3    H239768   0.243   0.449   4.626  0.7838 -0.1677  0.6761
 6093TIP3   OH239769   0.904   0.395  12.934 -0.0835 -0.5440  0.3943
 6093TIP3    H139770   0.961   0.461  12.974  1.6672 -2.2124  0.8018
 6093TIP3    H239771   0.868   0.439  12.857 -1.1051  1.7248  2.0400
 6094TIP3   OH239772   3.112   1.434  13.971 -0.3537 -0.2323 -0.1524
 6094TIP3    H139773   3.164   1.514  13.982 -1.3588  0.4240 -0.0620
 6094TIP3    H239774   3.061   1.428  14.051 -0.7849 -0.5909 -0.4523
 6095TIP3   OH239775   3.699   6.150  13.381 -0.1853 -0.1847 -0.5290
 6095TIP3    H139776   3.617   6.108  13.353  0.0769 -0.7800 -0.4289
 6095TIP3    H239777   3.721   6.210  13.311  0.2147 -1.3082 -1.3880
 6096TIP3   OH239778   4.512   0.968   4.513 -0.4827  0.0647 -0.4298
 6096TIP3    H139779   4.563   0.900   4.557  0.7097  1.6248  0.7344
 6096TIP3    H239780   4.568   1.046   4.518 -2.3304  1.4556 -0.5647
 6097TIP3   OH239781   5.384   3.064   3.935  0.4545 -0.0446  0.3550
 6097TIP3    H139782   5.361   3.130   3.870  0.5164 -1.3874 -1.0761
 6097TIP3    H239783   5.301   3.042   3.978  0.6726  2.1501  2.0901
 6098TIP3   OH239784   1.426   4.843  17.177 -0.1914  0.3301 -0.8414
 6098TIP3    H139785   1.365   4.909  17.209 -0.7586 -0.2392 -0.7294
 6098TIP3    H239786   1.481   4.889  17.113 -0.9397  0.7727 -1.1742
 6099TIP3   OH239787   5.197   1.482   2.432 -0.4694  0.2625 -0.4680
 6099TIP3    H139788   5.231   1.530   2.508 -0.0647 -0.0441 -0.4531
 6099TIP3    H239789   5.118   1.529   2.407 -0.3588  0.6289 -0.1287
 6100TIP3   OH239790   0.003   3.760   5.290  0.2942  0.5188 -0.1824
 6100TIP3    H139791   0.002   3.694   5.359 -0.5574  0.2640 -0.4293
 6100TIP3    H239792  -0.059   3.827   5.320  0.5625  0.8250 -0.3032
 6101TIP3   OH239793   4.222   4.598   4.196 -0.6297  0.2615 -0.2674
 6101TIP3    H139794   4.278   4.536   4.242 -0.9928  1.2892  1.6534
 6101TIP3    H239795   4.151   4.544   4.159 -1.4722 -0.4147  2.1655
 6102TIP3   OH239796   5.748   3.875   4.157  0.2918 -0.1801 -0.1618
 6102TIP3    H139797   5.798   3.846   4.081 -1.0004  0.6663 -1.3959
 6102TIP3    H239798   5.813   3.902   4.221  1.4131 -0.2111 -1.2608
 6103TIP3   OH239799   5.829   4.279  14.510  0.4950 -0.7544 -0.3518
 6103TIP3    H139800   5.779   4.199  14.490 -0.5815 -0.2625  0.2956
 6103TIP3    H239801   5.864   4.263  14.597  0.6901 -0.7175 -0.4241
 6104TIP3   OH239802   0.912   6.345   1.944  1.0202  0.3733  0.1139
 6104TIP3    H139803   0.945   6.284   2.009  2.0121 -0.0090 -0.7170
 6104TIP3    H239804   0.830   6.306   1.913  1.4863 -0.3808 -0.1825
 6105TIP3   OH239805   3.187   3.352   2.743 -0.0308  0.5911 -0.3646
 6105TIP3    H139806   3.180   3.399   2.660 -0.0373 -0.4642 -0.9770
 6105TIP3    H239807   3.238   3.274   2.723  0.1970  0.4528  0.6851
 6106TIP3   OH239808   6.015   0.471   2.530 -0.0595  0.4781 -0.4999
 6106TIP3    H139809   5.926   0.502   2.514 -0.1910  0.7177  0.6414
 6106TIP3    H239810   6.016   0.381   2.497 -1.1649 -0.0546  0.8367
 6107TIP3   OH239811   5.193   4.498  15.347  0.4001 -0.4657 -0.1506
 6107TIP3    H139812   5.111   4.484  15.300 -1.2334  1.5496  1.9022
 6107TIP3    H239813   5.234   4.411  15.351 -1.3101 -1.4128 -1.7251
 6108TIP3   OH239814   0.532   2.855  15.785 -0.6588  0.2129  0.2527
 6108TIP3    H139815   0.444   2.836  15.818 -0.7305 -1.6718 -0.8476
 6108TIP3    H239816   0.590   2.828  15.856 -0.8293 -3.2634 -0.7285
 6109TIP3   OH239817   0.532   6.380   3.680  0.2656 -0.3403  0.1849
 6109TIP3    H139818   0.586   6.304   3.702  1.7680 -0.1217 -2.3141
 6109TIP3    H239819   0.586   6.431   3.619 -1.1930  2.0989  0.7824
 6110TIP3   OH239820   4.764   4.009  16.946 -0.0135 -0.2573  0.5687
 6110TIP3    H139821   4.762   4.101  16.918  0.4597 -0.4856 -0.2448
 6110TIP3    H239822   4.846   3.975  16.910 -0.0826 -0.9447  1.0489
 6111TIP3   OH239823   1.699   2.788  17.264  0.2766 -0.1824  0.2855
 6111TIP3    H139824   1.635   2.722  17.239 -0.6954  0.9987 -0.4977
 6111TIP3    H239825   1.669   2.819  17.350  0.8327 -0.8526  0.7342
 6112TIP3   OH239826   1.199   4.879   4.640 -0.2106 -0.5765 -0.1193
 6112TIP3    H139827   1.177   4.877   4.547 -1.1940 -2.1310  0.1223
 6112TIP3    H239828   1.115   4.890   4.685  0.1906 -0.4486  0.6171
 6113TIP3   OH239829   0.345   1.868  16.273 -0.4261  0.0602 -0.0093
 6113TIP3    H139830   0.316   1.785  16.235 -0.1752  0.2645 -0.6710
 6113TIP3    H239831   0.268   1.924  16.269  0.1763  0.8555 -2.4857
 6114TIP3   OH239832   5.135   4.446  11.908  0.5901  0.1606 -0.5278
 6114TIP3    H139833   5.060   4.390  11.929  2.2762 -1.5713  1.2712
 6114TIP3    H239834   5.201   4.387  11.872  2.7846  0.6144  2.3228
 6115TIP3   OH239835   5.089   0.654   0.113  0.2155 -0.0219 -0.1750
 6115TIP3    H139836   5.062   0.636   0.203 -0.3201  1.2729 -0.0520
 6115TIP3    H239837   5.144   0.732   0.120  1.3773 -0.7682 -0.8106
 6116TIP3   OH239838   3.118   5.070   1.998 -0.2517  0.0185  0.4750
 6116TIP3    H139839   3.138   4.980   2.024  1.4130  0.7342  1.7925
 6116TIP3    H239840   3.202   5.107   1.969 -0.8975  1.1781 -0.0118
 6117TIP3   OH239841   5.563   5.232  17.240 -0.5429  0.0669 -0.5558
 6117TIP3    H139842   5.533   5.252  17.328 -2.3850  0.2953 -1.1871
 6117TIP3    H239843   5.511   5.290  17.183  0.8582  0.1932 -1.7718
 6118TIP3   OH239844   5.097   3.464  16.390 -0.1720 -0.4741  0.0074
 6118TIP3    H139845   5.035   3.525  16.429 -2.9752 -4.1172  1.8612
 6118TIP3    H239846   5.116   3.401  16.460  1.9032 -2.2216 -1.9565
 6119TIP3   OH239847   5.060   3.183   3.860  0.2938  0.3194  0.5254
 6119TIP3    H139848   5.014   3.266   3.845  1.5917  1.0488  0.4286
 6119TIP3    H239849   5.148   3.198   3.825  0.8363 -0.7871  1.3647
 6120TIP3   OH239850   2.055   5.351   0.963 -0.3195 -0.2620 -1.1926
 6120TIP3    H139851   2.051   5.417   1.033 -1.0694 -1.7194  0.1848
 6120TIP3    H239852   2.149   5.335   0.951 -0.2042 -0.8077  0.2830
 6121TIP3   OH239853   1.134   3.089  11.848  0.4129 -0.3806 -0.0842
 6121TIP3    H139854   1.169   3.102  11.760 -1.8293  2.2452 -0.7122
 6121TIP3    H239855   1.040   3.104  11.839  0.2399  1.0932  2.9301
 6122TIP3   OH239856   1.325   0.997  12.197 -0.4128  0.5534  0.0742
 6122TIP3    H139857   1.339   0.914  12.244 -0.8178  0.8816  0.7806
 6122TIP3    H239858   1.346   0.976  12.106 -1.0605 -0.4815  0.1465
 6123TIP3   OH239859   6.329   2.815  16.038  0.0825 -0.4117 -0.1720
 6123TIP3    H139860   6.253   2.795  16.092 -0.0825 -1.9561 -0.9096
 6123TIP3    H239861   6.296   2.812  15.948  0.9080 -0.6340 -0.4783
 6124TIP3   OH239862   6.192   2.968  15.177  0.1689  0.0885 -0.3875
 6124TIP3    H139863   6.182   3.053  15.222 -0.0439  0.3847 -0.9860
 6124TIP3    H239864   6.227   2.910  15.245  0.3600  0.6633  0.0226
 6125TIP3   OH239865   6.448   2.182  15.577 -0.0031 -0.1653 -0.2204
 6125TIP3    H139866   6.367   2.155  15.621 -0.1126 -0.5441 -0.6506
 6125TIP3    H239867   6.446   2.137  15.493  1.4466 -1.4894  0.4036
 6126TIP3   OH239868   1.990   1.377  15.327  0.1981 -0.1936 -0.3021
 6126TIP3    H139869   1.986   1.424  15.244 -0.3391  0.7652  0.2565
 6126TIP3    H239870   1.905   1.334  15.335 -0.9291  2.1223  1.1081
 6127TIP3   OH239871   2.820   6.548  13.129 -0.3970  0.7427 -0.2758
 6127TIP3    H139872   2.858   6.462  13.112 -0.5203  0.8039 -0.8858
 6127TIP3    H239873   2.828   6.595  13.046 -3.2047  0.2362 -0.9181
 6128TIP3   OH239874   1.258   1.107  15.715 -0.2350 -0.1468 -0.1582
 6128TIP3    H139875   1.244   1.145  15.801 -0.4750  1.0956 -0.7222
 6128TIP3    H239876   1.318   1.034  15.730  0.1606  0.3963  0.9797
 6129TIP3   OH239877   3.638   0.623   1.590  0.4437 -0.1987  0.7124
 6129TIP3    H139878   3.571   0.555   1.578  2.0228 -1.6916 -0.3285
 6129TIP3    H239879   3.651   0.628   1.684 -1.8940  0.9789  1.0371
 6130TIP3   OH239880   4.046   1.227   0.904  0.3157  0.3247  0.0606
 6130TIP3    H139881   4.095   1.167   0.848  0.6850  1.0677 -0.4268
 6130TIP3    H239882   4.105   1.302   0.916 -0.2635  0.7319  0.3900
 6131TIP3   OH239883   1.667   1.899   1.647  0.2824 -0.2791  0.4544
 6131TIP3    H139884   1.672   1.961   1.573  0.1317 -1.8979 -0.9726
 6131TIP3    H239885   1.573   1.881   1.656  0.3597 -0.6201  0.5773
 6132TIP3   OH239886   3.691   0.903  12.408  0.0040  0.2812 -0.3603
 6132TIP3    H139887   3.709   0.814  12.440 -0.9693  0.7165  1.5672
 6132TIP3    H239888   3.778   0.943  12.399  0.4672 -0.9638 -1.6329
 6133TIP3   OH239889   0.555   0.381  11.178  0.2760 -0.3909  0.1886
 6133TIP3    H139890   0.490   0.405  11.244 -0.1597 -2.7134  0.6937
 6133TIP3    H239891   0.527   0.429  11.099 -0.2755  0.9672  1.1656
 6134TIP3   OH239892   2.881   1.967  16.208 -0.2776  0.3385  0.1720
 6134TIP3    H139893   2.805   1.992  16.156 -1.5296 -2.3577  0.5605
 6134TIP3    H239894   2.846   1.916  16.280  1.7365  1.0533  1.7573
 6135TIP3   OH239895   5.668   6.213   5.223 -0.6443  0.3672 -0.0223
 6135TIP3    H139896   5.640   6.245   5.309 -1.5563  0.3260 -0.2875
 6135TIP3    H239897   5.664   6.118   5.230  0.3527  0.3327  0.2200
 6136TIP3   OH239898   5.483   3.337  13.058 -0.7917  0.3053  0.1080
 6136TIP3    H139899   5.565   3.307  13.021 -1.6800 -0.0572 -1.6800
 6136TIP3    H239900   5.440   3.384  12.986 -2.6264 -0.4971  0.6160
 6137TIP3   OH239901   4.710   3.664  14.579 -0.0091 -0.0026 -0.3216
 6137TIP3    H139902   4.625   3.620  14.576  0.1964 -0.4424  0.1335
 6137TIP3    H239903   4.757   3.630  14.503  0.2328 -0.7667  0.1537
 6138TIP3   OH239904   4.856   0.203   5.730  0.1763  0.2626 -0.4082
 6138TIP3    H139905   4.858   0.296   5.755  0.2662 -0.3738  2.2502
 6138TIP3    H239906   4.925   0.163   5.783  1.1840 -1.1227 -2.6509
 6139TIP3   OH239907   0.364   6.392   4.529  0.1299 -0.0640  1.1162
 6139TIP3    H139908   0.375   6.432   4.615  1.4370 -0.4645  1.1566
 6139TIP3    H239909   0.277   6.352   4.532 -0.5140  1.3103  1.6591
 6140TIP3   OH239910   5.770   5.225   0.576  0.1217  0.1202  0.0847
 6140TIP3    H139911   5.763   5.132   0.597 -1.6792  0.2939  0.4239
 6140TIP3    H239912   5.746   5.269   0.657 -1.0663  0.8550 -0.6453
 6141TIP3   OH239913   5.167   3.204   4.276 -0.0472  0.2434  0.7293
 6141TIP3    H139914   5.108   3.279   4.280 -0.4444 -0.0171 -0.1038
 6141TIP3    H239915   5.120   3.139   4.224  0.3411 -0.5426  1.3355
 6142TIP3   OH239916   6.139   5.102   2.207  0.3009 -0.1354 -0.1261
 6142TIP3    H139917   6.109   5.011   2.206 -0.0309 -0.0260 -1.6945
 6142TIP3    H239918   6.234   5.096   2.210  0.3909 -0.5965 -2.4785
 6143TIP3   OH239919   6.490   6.234  12.635  0.2822  0.1874  0.2053
 6143TIP3    H139920   6.467   6.272  12.550 -1.9139 -0.9834  0.1839
 6143TIP3    H239921   6.418   6.260  12.693  1.4949  0.5470  1.5938
 6144TIP3   OH239922   2.686   3.815   5.128 -0.3178 -0.0944 -0.5152
 6144TIP3    H139923   2.695   3.768   5.045  1.3892  1.0970 -1.0660
 6144TIP3    H239924   2.658   3.902   5.102 -0.2134  0.1507  0.1907
 6145TIP3   OH239925   0.067   4.634   1.230  0.2304 -0.3901  0.3252
 6145TIP3    H139926   0.038   4.702   1.290  1.3286  0.5785 -0.1995
 6145TIP3    H239927   0.102   4.565   1.287 -3.4822 -1.9207  1.0318
 6146TIP3   OH239928   3.795   5.758  12.977  0.4214  0.4553 -0.5126
 6146TIP3    H139929   3.862   5.807  13.024  0.9196 -0.0128 -0.7262
 6146TIP3    H239930   3.837   5.675  12.954  0.4150  0.9072 -2.3276
 6147TIP3   OH239931   5.510   0.451   5.845  0.2730  0.0629 -0.0176
 6147TIP3    H139932   5.539   0.363   5.868  0.5107 -0.0942 -0.8856
 6147TIP3    H239933   5.521   0.456   5.750 -3.1135 -0.2242 -0.5278
 6148TIP3   OH239934   2.222   0.730  15.263 -0.4352 -0.5516 -0.1075
 6148TIP3    H139935   2.216   0.798  15.330  1.6535  0.1107 -0.5371
 6148TIP3    H239936   2.314   0.731  15.235 -0.7791 -2.2620 -1.4735
 6149TIP3   OH239937   0.719   6.216  13.228  0.2431 -0.9017  0.0972
 6149TIP3    H139938   0.644   6.173  13.269 -1.5471  1.6590 -0.2511
 6149TIP3    H239939   0.681   6.267  13.157  2.3182  0.6168 -0.0131
 6150TIP3   OH239940   6.734   5.508   0.329 -0.3551 -0.1074  0.3858
 6150TIP3    H139941   6.761   5.418   0.348  0.0714 -0.0105  0.2551
 6150TIP3    H239942   6.708   5.507   0.237 -0.6154 -0.1582  0.4597
 6151TIP3   OH239943   1.550   1.646  15.988 -0.0242 -0.1628 -0.9949
 6151TIP3    H139944   1.638   1.673  15.964  0.6046 -0.5948  0.6522
 6151TIP3    H239945   1.514   1.605  15.910  1.1150  0.2985 -1.7744
 6152TIP3   OH239946   4.221   5.565  10.389  1.0945 -0.3945  0.2126
 6152TIP3    H139947   4.201   5.474  10.370  0.0612  0.1001 -1.2411
 6152TIP3    H239948   4.317   5.568  10.392  1.2092 -1.2397 -1.3845
 6153TIP3   OH239949   3.911   4.348   0.330 -0.2724  0.2376  0.2909
 6153TIP3    H139950   3.860   4.423   0.301 -1.0769 -0.3307  0.2162
 6153TIP3    H239951   3.968   4.384   0.398  0.2702  1.1770 -0.6187
 6154TIP3   OH239952   1.967   2.509   6.212 -0.2239 -0.1087  0.1647
 6154TIP3    H139953   1.884   2.467   6.232 -1.0055  1.0761 -0.5126
 6154TIP3    H239954   2.031   2.437   6.212 -1.2303 -1.0292  0.6635
 6155TIP3   OH239955   3.686   2.815  12.911 -0.3419  0.0988 -0.0664
 6155TIP3    H139956   3.626   2.741  12.920  0.0600 -0.3733 -1.1378
 6155TIP3    H239957   3.629   2.893  12.915 -0.9932 -0.3285 -0.7627
 6156TIP3   OH239958   1.837   0.025   4.628  0.3770  0.1751 -0.0806
 6156TIP3    H139959   1.860   0.104   4.676  0.4940 -0.3013  0.6615
 6156TIP3    H239960   1.802  -0.034   4.695  0.5913 -0.5167 -0.5712
 6157TIP3   OH239961   6.719   3.134   3.593 -0.2065 -0.1309  0.6140
 6157TIP3    H139962   6.713   3.065   3.527 -0.7473  1.4214 -1.0721
 6157TIP3    H239963   6.628   3.157   3.612 -0.0539  0.9181  0.1951
 6158TIP3   OH239964   6.064   4.527   1.011  0.0598  0.5212  0.2020
 6158TIP3    H139965   6.098   4.540   1.099  1.2968 -1.7523  0.1414
 6158TIP3    H239966   6.129   4.566   0.953 -1.5925  3.6062  0.2380
 6159TIP3   OH239967   1.541   3.879   5.125 -0.2294  0.2733 -0.5295
 6159TIP3    H139968   1.540   3.796   5.172  0.4735 -1.0369 -2.6643
 6159TIP3    H239969   1.453   3.916   5.139 -1.2056 -1.7342 -0.9906
 6160TIP3   OH239970   6.686   0.438   3.163  0.4136 -0.7475  0.0258
 6160TIP3    H139971   6.704   0.529   3.187  1.6668 -0.7760 -0.7309
 6160TIP3    H239972   6.630   0.444   3.085 -0.7473 -0.6480  0.8449
 6161TIP3   OH239973   4.341   2.134   5.853 -0.6485 -0.1159 -0.0891
 6161TIP3    H139974   4.376   2.068   5.793 -0.9837 -0.1048 -0.3046
 6161TIP3    H239975   4.417   2.167   5.900 -0.2958  0.2893 -0.9175
 6162TIP3   OH239976   0.890   2.354  13.800  0.0554  0.0457 -0.5067
 6162TIP3    H139977   0.946   2.278  13.813 -0.8454 -0.7140 -0.9892
 6162TIP3    H239978   0.842   2.336  13.719 -1.5488  0.2630  0.3567
 6163TIP3   OH239979   1.946   5.908  13.794 -0.2763  0.1998 -0.0428
 6163TIP3    H139980   1.874   5.944  13.742  1.0306  1.0688 -1.3019
 6163TIP3    H239981   1.944   5.958  13.875 -1.0361  0.2511 -0.0804
 6164TIP3   OH239982   3.101   6.371  11.863  0.5116  0.1942  0.0166
 6164TIP3    H139983   3.136   6.451  11.904 -0.0761  0.7738 -0.5735
 6164TIP3    H239984   3.016   6.398  11.827  0.6395 -0.5042 -0.8448
 6165TIP3   OH239985   6.654   5.717  10.410 -0.4029  0.2525  0.2806
 6165TIP3    H139986   6.737   5.734  10.454 -1.3786  1.5139  1.7595
 6165TIP3    H239987   6.591   5.774  10.455 -2.5473 -2.2916  0.7651
 6166TIP3   OH239988   4.721   3.534   3.311  0.3277 -0.6238 -0.9211
 6166TIP3    H139989   4.628   3.517   3.294 -0.0508 -1.1294  1.2993
 6166TIP3    H239990   4.747   3.465   3.372  0.8533  2.1528  2.2918
 6167TIP3   OH239991   3.427   3.939   4.608 -0.2152 -0.1127  0.0470
 6167TIP3    H139992   3.425   3.873   4.676  2.2758 -0.0877  0.2496
 6167TIP3    H239993   3.341   3.934   4.566 -0.9163 -1.8167  1.5777
 6168TIP3   OH239994   2.415   5.844   6.043  0.2565 -0.1041 -0.1460
 6168TIP3    H139995   2.437   5.886   5.960 -2.1608  0.9281 -0.3652
 6168TIP3    H239996   2.498   5.812   6.077  1.6529  1.5132 -1.8331
 6169TIP3   OH239997   3.600   3.220   6.053 -0.7942 -0.6439 -0.3049
 6169TIP3    H139998   3.541   3.202   6.126 -0.3216  0.5239  0.4015
 6169TIP3    H239999   3.685   3.235   6.095  0.0459 -2.3492 -1.3021
 6170TIP3   OH240000   3.493   5.113  16.477  0.3634 -0.3708 -0.0246
 6170TIP3    H140001   3.540   5.088  16.397  0.2436 -1.1166  0.1338
 6170TIP3    H240002   3.537   5.192  16.507  0.4704 -0.1396 -0.7779
 6171TIP3   OH240003   6.729   2.233   7.060 -0.0784 -0.4522 -0.0324
 6171TIP3    H140004   6.673   2.275   6.995  0.8544  0.2430 -0.4176
 6171TIP3    H240005   6.683   2.153   7.084 -0.6605 -0.4811 -1.2053
 6172TIP3   OH240006   0.293   1.364   3.635 -0.5934  0.6362  0.0258
 6172TIP3    H140007   0.209   1.317   3.626  0.1114 -0.2885 -2.6289
 6172TIP3    H240008   0.358   1.295   3.648  0.3064  0.8513 -2.7079
 6173TIP3   OH240009   1.750   2.999  13.831  0.4775  0.4188 -0.1450
 6173TIP3    H140010   1.704   2.960  13.756  1.6473  1.6747 -1.5806
 6173TIP3    H240011   1.842   2.976  13.816  0.6914  0.4268  1.1022
 6174TIP3   OH240012   3.074   4.343   2.074  0.2576  0.1889  0.3019
 6174TIP3    H140013   3.060   4.271   2.012  1.9056  0.9326 -1.0143
 6174TIP3    H240014   3.028   4.417   2.035 -0.9549  0.0117  1.3639
 6175TIP3   OH240015   5.268   2.644  14.540  0.1584  0.1754  0.8196
 6175TIP3    H140016   5.352   2.636  14.586  1.6885  2.0409 -1.4326
 6175TIP3    H240017   5.207   2.674  14.608  0.8416 -2.6097  2.8614
 6176TIP3   OH240018   2.106   6.511   4.938  0.1506 -0.1881 -0.4387
 6176TIP3    H140019   2.069   6.494   5.025 -2.0588 -0.2371 -1.3239
 6176TIP3    H240020   2.133   6.602   4.942  0.6137 -0.3476  0.4721
 6177TIP3   OH240021   2.143   3.862  16.095  0.1917  0.4205 -0.1850
 6177TIP3    H140022   2.127   3.767  16.092  2.1060  0.0449  0.4048
 6177TIP3    H240023   2.089   3.893  16.168 -1.6582  0.0968 -1.3333
 6178TIP3   OH240024   1.387   0.195  13.291  0.0483  0.2457  0.2111
 6178TIP3    H140025   1.359   0.256  13.223 -0.1729  0.4821  0.5112
 6178TIP3    H240026   1.462   0.149  13.253  0.3385  0.8388  0.0526
 6179TIP3   OH240027   5.644   3.144   4.675 -0.5035  0.9880 -0.0424
 6179TIP3    H140028   5.564   3.195   4.662  0.2664  2.6051  1.2391
 6179TIP3    H240029   5.633   3.103   4.761 -0.6995 -0.2844 -0.6474
 6180TIP3   OH240030   0.713   5.486   1.413 -0.0486  0.0924 -0.2043
 6180TIP3    H140031   0.694   5.448   1.498 -1.6791  0.0690 -0.5544
 6180TIP3    H240032   0.770   5.421   1.371 -4.1539 -3.1505 -1.4944
 6181TIP3   OH240033   1.566   0.360   4.962  0.3655  0.0589 -0.4034
 6181TIP3    H140034   1.477   0.375   4.996  0.4447  0.1462 -0.2301
 6181TIP3    H240035   1.620   0.352   5.041  0.1280 -2.5579 -0.4137
 6182TIP3   OH240036   4.329   3.140  15.003  1.2575  0.2211  0.4103
 6182TIP3    H140037   4.398   3.100  14.951  0.1893  1.4206 -2.1300
 6182TIP3    H240038   4.311   3.223  14.959 -1.3299  0.2653  1.3500
 6183TIP3   OH240039   2.309   3.937  12.272  0.3658  0.3101 -0.4510
 6183TIP3    H140040   2.273   3.919  12.185  0.5976 -0.6264 -0.3737
 6183TIP3    H240041   2.385   3.993  12.256 -0.2180  1.0319 -0.7461
 6184TIP3   OH240042   0.738   4.289  13.521  0.0095  0.2812 -0.4509
 6184TIP3    H140043   0.805   4.350  13.491  2.1375 -1.8704 -0.4074
 6184TIP3    H240044   0.758   4.274  13.613 -1.6117  0.8382  0.0282
 6185TIP3   OH240045   5.216   1.466  11.771 -0.2876 -0.7909  0.0989
 6185TIP3    H140046   5.186   1.376  11.787  0.2642 -0.7373  1.5956
 6185TIP3    H240047   5.163   1.520  11.830 -0.8430 -0.0611 -1.0211
 6186TIP3   OH240048   5.336   5.817  11.392  0.0070  0.0953 -0.4131
 6186TIP3    H140049   5.351   5.911  11.407  1.3877 -0.2556  0.6036
 6186TIP3    H240050   5.282   5.789  11.466  0.9551 -0.2327  0.1609
 6187TIP3   OH240051   3.303   5.687  15.455  0.3037  1.2222 -0.2300
 6187TIP3    H140052   3.364   5.654  15.389 -0.6390 -0.1247 -0.4701
 6187TIP3    H240053   3.223   5.705  15.406 -0.8158 -0.9480  0.6457
 6188TIP3   OH240054   2.018   3.344   3.735  0.4153 -0.3218 -0.7057
 6188TIP3    H140055   1.964   3.276   3.775  0.0652 -0.3497 -1.2133
 6188TIP3    H240056   2.048   3.305   3.652  0.9261 -0.1754 -0.5941
 6189TIP3   OH240057   5.062   4.750   1.177  0.1353 -0.1779 -0.3436
 6189TIP3    H140058   5.101   4.675   1.132 -1.5351 -0.4637 -1.3930
 6189TIP3    H240059   4.972   4.722   1.196 -0.4105  1.4210 -0.4417
 6190TIP3   OH240060   0.819   2.938   0.402 -0.3887 -0.0246  0.1765
 6190TIP3    H140061   0.800   2.923   0.495  1.0469 -0.0856  0.4764
 6190TIP3    H240062   0.870   3.018   0.400 -3.1386  1.8750 -0.9038
 6191TIP3   OH240063   4.123   5.709  14.663  0.8745  0.4185 -0.2307
 6191TIP3    H140064   4.056   5.717  14.596  0.4494 -0.9296  0.0034
 6191TIP3    H240065   4.183   5.781  14.646  0.9267 -0.0473 -2.2110
 6192TIP3   OH240066   5.836   0.361  16.812  0.1817  0.0229 -0.3360
 6192TIP3    H140067   5.846   0.426  16.882  2.6946 -0.4979 -0.1236
 6192TIP3    H240068   5.880   0.399  16.736  2.2961 -1.5781 -0.0255
 6193TIP3   OH240069   4.459   4.619  17.300 -0.0103  0.0446 -0.0688
 6193TIP3    H140070   4.373   4.590  17.333  0.7315 -1.6892  0.4476
 6193TIP3    H240071   4.508   4.642  17.379  0.3768 -0.0363 -0.2861
 6194TIP3   OH240072   3.647   5.324  12.861 -0.1890  0.2981 -0.4120
 6194TIP3    H140073   3.617   5.412  12.838  0.1717  0.8064  0.9615
 6194TIP3    H240074   3.742   5.330  12.860 -0.1616 -0.1220 -0.4862
 6195TIP3   OH240075   0.038   5.594   1.035 -0.3913  0.1597  0.2974
 6195TIP3    H140076   0.070   5.676   0.996  0.0607 -0.3494 -0.4394
 6195TIP3    H240077  -0.024   5.560   0.970 -0.2559 -0.2881  0.4001
 6196TIP3   OH240078   3.400   5.681  13.360  0.0229  0.0679  0.1864
 6196TIP3    H140079   3.362   5.597  13.384  1.1063 -0.4369  0.2184
 6196TIP3    H240080   3.432   5.718  13.443 -2.0748  1.3916  0.4638
 6197TIP3   OH240081   5.033   2.263   5.630  0.1468 -0.0567  0.4507
 6197TIP3    H140082   5.125   2.279   5.609  0.2897  1.1520  1.8244
 6197TIP3    H240083   4.985   2.321   5.571  0.3100 -0.0802  0.2938
 6198TIP3   OH240084   3.215   3.774   1.422 -0.3569  0.2540  0.2532
 6198TIP3    H140085   3.269   3.801   1.497  0.2490  0.7899 -0.3679
 6198TIP3    H240086   3.261   3.699   1.385 -0.5399  0.1293  0.2757
 6199TIP3   OH240087   3.089   6.021   3.425  0.1155 -0.4781 -0.5974
 6199TIP3    H140088   3.160   5.964   3.454 -0.3127  0.2022  2.0149
 6199TIP3    H240089   3.016   5.961   3.408  0.7026 -0.9903 -1.4121
 6200TIP3   OH240090   3.299   4.084   2.872 -0.5258  0.0436 -0.0330
 6200TIP3    H140091   3.262   4.100   2.959 -0.6659  0.8437 -0.2296
 6200TIP3    H240092   3.390   4.060   2.889 -0.5821  0.0854  0.3448
 6201TIP3   OH240093   1.732   3.290  16.446 -0.2532 -0.2105 -0.1868
 6201TIP3    H140094   1.659   3.348  16.426 -0.3849 -0.3469 -0.1071
 6201TIP3    H240095   1.797   3.307  16.377 -2.0978 -3.1853 -2.9442
 6202TIP3   OH240096   1.076   3.990   1.639  0.5951 -0.3001  0.5883
 6202TIP3    H140097   1.034   4.070   1.607  0.4014  0.4290  2.5451
 6202TIP3    H240098   1.150   4.021   1.691  0.9824 -1.4347  0.7293
 6203TIP3   OH240099   1.685   3.720   4.941  0.0648 -0.3601  0.4357
 6203TIP3    H140100   1.634   3.772   5.003  1.0119  0.8761  0.2158
 6203TIP3    H240101   1.672   3.764   4.857  1.8379  0.2903  0.4581
 6204TIP3   OH240102   5.720   4.449   4.104  0.1034 -0.3626  0.0228
 6204TIP3    H140103   5.646   4.430   4.046 -0.6014  2.8271 -0.2968
 6204TIP3    H240104   5.782   4.496   4.049  0.8153  0.0201  1.1340
 6205TIP3   OH240105   6.730   2.379   4.495  0.0294 -0.2314 -0.4456
 6205TIP3    H140106   6.677   2.456   4.517  0.1811 -0.0421 -0.7267
 6205TIP3    H240107   6.814   2.394   4.539  0.5556  0.4506 -1.6068
 6206TIP3   OH240108   3.427   0.748   4.366 -0.2387  0.2345  0.2760
 6206TIP3    H140109   3.388   0.835   4.365  0.3677  0.5250  0.8856
 6206TIP3    H240110   3.508   0.758   4.315 -0.3533 -0.0640  0.0342
 6207TIP3   OH240111   1.903   5.917  17.209  0.3322  0.0944 -0.6992
 6207TIP3    H140112   1.937   5.953  17.291  1.1328 -1.2429 -0.4298
 6207TIP3    H240113   1.889   5.994  17.153  0.9715  0.9085  0.2423
 6208TIP3   OH240114   4.660   5.779  16.430 -0.1292  0.2431  0.2743
 6208TIP3    H140115   4.567   5.757  16.436 -0.5189  2.1622  3.6335
 6208TIP3    H240116   4.706   5.701  16.461 -0.7251 -0.1077  0.2879
 6209TIP3   OH240117   3.144   6.761   3.591  0.1171  0.3227 -0.0008
 6209TIP3    H140118   3.195   6.736   3.513 -2.1465 -0.3329 -1.3536
 6209TIP3    H240119   3.125   6.678   3.634 -0.4910  0.4882  0.0481
 6210TIP3   OH240120   4.528   4.948  16.746 -0.6438 -0.0508  0.3333
 6210TIP3    H140121   4.440   4.928  16.778 -1.5726 -1.3624 -2.6733
 6210TIP3    H240122   4.586   4.918  16.816 -2.5092 -0.5743  1.7499
 6211TIP3   OH240123   0.108   3.785  15.977  0.4523 -0.3924  0.6902
 6211TIP3    H140124   0.144   3.699  15.996  0.5940 -0.0108  2.2947
 6211TIP3    H240125   0.183   3.844  15.979  0.5906 -0.3635 -1.7977
 6212TIP3   OH240126   0.650   4.229  16.250  0.1618  0.0954  0.3304
 6212TIP3    H140127   0.661   4.135  16.235  0.3297  0.0108  0.9315
 6212TIP3    H240128   0.577   4.234  16.312  0.0253  0.3725  0.1455
 6213TIP3   OH240129   3.391   3.078  16.349 -0.0629  0.4199 -0.1334
 6213TIP3    H140130   3.384   3.156  16.295  1.9067 -0.4841 -1.8727
 6213TIP3    H240131   3.379   3.109  16.438  1.2909  2.8617 -0.7013
 6214TIP3   OH240132   2.625   4.724   4.079  0.5434 -0.0621 -0.4549
 6214TIP3    H140133   2.580   4.730   3.994 -0.1086  0.5789 -0.0733
 6214TIP3    H240134   2.592   4.798   4.129  0.7024 -0.6078  0.4764
 6215TIP3   OH240135   0.348   0.141  16.137  0.1022  0.3945  0.0888
 6215TIP3    H140136   0.269   0.136  16.191  0.5629 -0.5868  0.6947
 6215TIP3    H240137   0.405   0.202  16.183 -0.0249  0.5735  0.0110
 6216TIP3   OH240138   1.346   2.359   1.906 -0.0156  0.1946  0.1319
 6216TIP3    H140139   1.277   2.330   1.965  0.5984 -0.4093  0.5648
 6216TIP3    H240140   1.404   2.284   1.897  0.5182  0.6476 -0.3347
 6217TIP3   OH240141   1.121   3.159   6.345  0.1322 -0.4106  0.3722
 6217TIP3    H140142   1.207   3.153   6.387 -0.6601 -0.3016  2.0824
 6217TIP3    H240143   1.072   3.222   6.399 -0.7184  0.2624 -1.1301
 6218TIP3   OH240144   6.750   6.313   4.920 -0.4166 -0.9113 -0.2168
 6218TIP3    H140145   6.813   6.356   4.978 -0.4516 -1.6068  0.3484
 6218TIP3    H240146   6.726   6.381   4.856 -1.9900  0.5564  1.8223
 6219TIP3   OH240147   6.237   1.650   3.605  0.2672 -0.0450 -0.0388
 6219TIP3    H140148   6.166   1.605   3.559 -1.1752  2.0692 -0.0468
 6219TIP3    H240149   6.288   1.692   3.535 -0.2845  0.8916  0.1015
 6220TIP3   OH240150   4.315   5.692   5.036 -0.2429 -0.3931 -0.3386
 6220TIP3    H140151   4.340   5.784   5.046 -1.0260 -0.1535 -0.4852
 6220TIP3    H240152   4.396   5.647   5.014  0.3230  0.1022  0.7081
 6221TIP3   OH240153   1.268   0.380   1.824  0.3657 -0.8975  0.9097
 6221TIP3    H140154   1.198   0.351   1.883  1.6088 -0.7191  2.5191
 6221TIP3    H240155   1.282   0.472   1.847 -0.7390 -0.0762 -1.3532
 6222TIP3   OH240156   6.360   6.453  14.121  0.0779 -0.0200  0.3712
 6222TIP3    H140157   6.342   6.486  14.033 -2.0751  0.6694  0.9971
 6222TIP3    H240158   6.430   6.509  14.155 -1.0386  1.5982  0.0994
 6223TIP3   OH240159   5.098   3.715   7.041 -0.7463 -0.1063  0.5234
 6223TIP3    H140160   5.146   3.736   6.960 -0.9123 -2.2622 -0.1967
 6223TIP3    H240161   5.031   3.783   7.047 -1.6264 -0.6411 -1.9530
 6224TIP3   OH240162   1.090   0.069   6.164 -0.4933  0.8827  0.6764
 6224TIP3    H140163   1.086   0.105   6.075 -2.3997  0.3763  0.5166
 6224TIP3    H240164   1.002   0.081   6.199 -0.6086 -1.5656  1.4355
 6225TIP3   OH240165   4.324   3.235   2.658  1.0092  0.0598 -0.5062
 6225TIP3    H140166   4.402   3.285   2.682 -0.1487  1.4036  0.6183
 6225TIP3    H240167   4.282   3.213   2.741 -1.0693  1.5075 -1.0716
 6226TIP3   OH240168   1.898   3.338   4.411 -0.1868 -0.3836  0.4961
 6226TIP3    H140169   1.842   3.352   4.487  2.0294  0.6972  2.0659
 6226TIP3    H240170   1.892   3.244   4.393 -2.7894 -0.2278  0.2661
 6227TIP3   OH240171   1.823   1.154   0.207 -0.0545  0.8304  0.0679
 6227TIP3    H140172   1.807   1.102   0.128 -2.1355  0.4678  0.6826
 6227TIP3    H240173   1.747   1.139   0.262  0.6137  2.3367  1.4918
 6228TIP3   OH240174   4.169   5.727  13.702  0.3042 -0.2601 -0.0230
 6228TIP3    H140175   4.195   5.701  13.790  0.0994 -1.8959 -0.4090
 6228TIP3    H240176   4.203   5.816  13.692  4.4259 -1.6041  0.0834
 6229TIP3   OH240177   3.383   0.309   1.683  0.2472 -0.2927  0.0850
 6229TIP3    H140178   3.314   0.347   1.630 -0.8864 -1.2226  0.8564
 6229TIP3    H240179   3.356   0.324   1.774  2.9198  2.7091  0.5909
 6230TIP3   OH240180   4.328   1.434  16.084  0.4241  0.0037  0.7213
 6230TIP3    H140181   4.242   1.413  16.121  0.2120 -1.6787 -0.6027
 6230TIP3    H240182   4.385   1.364  16.114  0.3581 -1.1459 -1.5759
 6231TIP3   OH240183   1.489   1.222   5.900 -0.2957  0.0459  0.0697
 6231TIP3    H140184   1.528   1.309   5.892 -0.8775  0.2170 -1.1033
 6231TIP3    H240185   1.535   1.169   5.836 -0.8547 -0.1699 -0.1574
 6232TIP3   OH240186   3.835   0.602   5.208 -0.3318 -0.0245 -0.5015
 6232TIP3    H140187   3.779   0.638   5.139  0.7334  3.2584  0.1824
 6232TIP3    H240188   3.776   0.586   5.281 -1.3028 -2.5932 -1.7398
 6233TIP3   OH240189   2.141   3.318  13.426  0.4129 -0.2483  0.0559
 6233TIP3    H140190   2.097   3.236  13.448 -1.1803  0.2677 -1.0033
 6233TIP3    H240191   2.086   3.357  13.358  3.0292  0.0048 -2.1166
 6234TIP3   OH240192   5.002   5.844  13.033 -0.0531  0.3218 -0.0082
 6234TIP3    H140193   5.076   5.815  12.980 -0.0187  1.0287 -0.3566
 6234TIP3    H240194   5.041   5.904  13.097 -0.4504  1.4605 -0.8097
 6235TIP3   OH240195   3.006   1.422   2.285  0.0874 -0.6226  0.0636
 6235TIP3    H140196   3.074   1.477   2.325  1.4401 -0.6035 -2.0852
 6235TIP3    H240197   3.054   1.349   2.246 -1.0535 -0.4587 -1.7774
 6236TIP3   OH240198   1.240   4.016   0.012 -0.4587 -0.7686 -0.1465
 6236TIP3    H140199   1.229   3.924  -0.012 -2.0743 -0.6440  0.0049
 6236TIP3    H240200   1.158   4.057  -0.013  0.7928  0.9840 -1.6601
 6237TIP3   OH240201   3.504   3.789   4.850  0.7888 -0.1274  0.0982
 6237TIP3    H140202   3.517   3.883   4.863  1.6676 -0.2477  0.1576
 6237TIP3    H240203   3.499   3.753   4.938  0.1299 -0.1068  0.0776
 6238TIP3   OH240204   0.675   1.402  14.992 -0.2275  0.3512 -0.1033
 6238TIP3    H140205   0.625   1.321  14.996 -2.2918  1.5330 -0.0709
 6238TIP3    H240206   0.759   1.378  14.953 -1.2473 -1.5811 -1.2517
 6239TIP3   OH240207   3.311   2.371  10.903  0.6772 -0.5357 -0.1281
 6239TIP3    H140208   3.302   2.452  10.852 -0.7750 -0.0437  0.8329
 6239TIP3    H240209   3.258   2.307  10.856 -0.3293 -0.1893  0.4822
 6240TIP3   OH240210   3.691   2.610   6.103  0.2281 -0.9013 -0.3771
 6240TIP3    H140211   3.758   2.609   6.172 -0.0433 -1.4761 -0.1156
 6240TIP3    H240212   3.698   2.524   6.062 -0.1091 -0.8289 -0.5877
 6241TIP3   OH240213   4.715   3.996   0.959 -0.5718  0.2074  0.4762
 6241TIP3    H140214   4.739   4.079   0.918 -1.4818  0.0386 -0.4570
 6241TIP3    H240215   4.660   3.952   0.893 -2.9406  0.3400  2.2410
 6242TIP3   OH240216   2.694   2.440  12.062 -0.2983 -0.1562 -0.1654
 6242TIP3    H140217   2.691   2.351  12.027  1.2435 -0.2560 -0.1106
 6242TIP3    H240218   2.668   2.430  12.154 -1.0003 -0.4137 -0.3914
 6243TIP3   OH240219   4.727   6.277  13.421  0.2492 -0.1419  0.5074
 6243TIP3    H140220   4.759   6.361  13.388 -0.8917 -0.1096 -0.6142
 6243TIP3    H240221   4.645   6.263  13.374 -0.8474 -0.7054  2.5060
 6244TIP3   OH240222   4.512   3.096   7.001 -0.3308  0.3354 -0.6929
 6244TIP3    H140223   4.600   3.132   7.006 -0.4151  0.9495 -2.6133
 6244TIP3    H240224   4.455   3.172   7.012 -0.5724  0.2256 -1.1405
 6245TIP3   OH240225   2.496   1.435   4.070  0.7095 -0.4002  0.0452
 6245TIP3    H140226   2.515   1.351   4.030 -1.0269 -0.8923  0.1646
 6245TIP3    H240227   2.450   1.413   4.151  1.6543  0.6438  0.9044
 6246TIP3   OH240228   0.220   0.110  14.747 -0.2146  0.0752 -0.3070
 6246TIP3    H140229   0.167   0.152  14.814  1.5180  0.8065  0.6813
 6246TIP3    H240230   0.306   0.100  14.787  0.1260 -2.1124 -1.4458
 6247TIP3   OH240231   1.890   1.417   4.344  0.3488  0.5821  0.4359
 6247TIP3    H140232   1.929   1.495   4.305 -0.0705 -0.7147 -2.8869
 6247TIP3    H240233   1.964   1.357   4.355  0.3411  0.6577  0.9042
 6248TIP3   OH240234   4.085   0.952   2.379 -0.2678 -0.2276 -0.0068
 6248TIP3    H140235   4.101   0.983   2.290 -0.8076  1.8293  0.5758
 6248TIP3    H240236   4.164   0.976   2.428 -0.6130  0.0699  0.4146
 6249TIP3   OH240237   6.279   5.563   1.202  0.2672  0.0724 -0.0950
 6249TIP3    H140238   6.367   5.550   1.168  0.9883  0.9556  1.3346
 6249TIP3    H240239   6.263   5.657   1.190  1.1699  0.7929  3.1918
 6250TIP3   OH240240   0.026   0.674  15.772 -0.2250 -0.2425  0.3462
 6250TIP3    H140241  -0.025   0.654  15.693 -0.3001  0.7442  0.1262
 6250TIP3    H240242   0.096   0.608  15.773  1.0381  0.9434 -1.7145
 6251TIP3   OH240243   1.976   0.437  12.777 -0.2356 -0.3995  0.4526
 6251TIP3    H140244   1.883   0.415  12.766 -0.0845 -0.6219 -0.4837
 6251TIP3    H240245   2.001   0.475  12.692  0.7448 -1.1193  0.4129
 6252TIP3   OH240246   4.550   3.376   2.748  0.2409  0.3943  0.3378
 6252TIP3    H140247   4.578   3.449   2.803  0.3358  0.2420  0.4947
 6252TIP3    H240248   4.623   3.314   2.752  0.6369  0.7860 -0.7080
 6253TIP3   OH240249   3.209   1.547  13.380  0.2742  0.2801  0.3777
 6253TIP3    H140250   3.167   1.491  13.315  0.7947 -2.2603  2.0693
 6253TIP3    H240251   3.296   1.508  13.393  0.0064  0.3342  2.8818
 6254TIP3   OH240252   0.763   3.798   2.218 -0.3494 -0.1285  0.4906
 6254TIP3    H140253   0.823   3.761   2.283 -0.3840 -2.1619 -0.5433
 6254TIP3    H240254   0.783   3.751   2.137 -0.2673  2.3577 -1.0400
 6255TIP3   OH240255   5.265   5.234   2.420 -0.4875  0.2689  0.0966
 6255TIP3    H140256   5.188   5.203   2.372 -1.7069  2.5554  0.4133
 6255TIP3    H240257   5.267   5.329   2.404  2.6393  0.2265 -0.3681
 6256TIP3   OH240258   1.938   0.856  16.198  0.0931  0.2752 -0.1510
 6256TIP3    H140259   1.967   0.898  16.279  0.2062 -2.5161  1.3922
 6256TIP3    H240260   1.844   0.873  16.195  0.2392  1.1848  0.0568
 6257TIP3   OH240261   3.464   3.584  16.978  0.5308  0.0630 -0.5421
 6257TIP3    H140262   3.372   3.563  16.963  1.0808 -1.2441 -2.5546
 6257TIP3    H240263   3.503   3.502  17.007  1.2049  0.4263 -0.4001
 6258TIP3   OH240264   5.571   3.847   4.661  0.5779 -0.5121 -0.2502
 6258TIP3    H140265   5.628   3.813   4.592  0.9304 -0.1938 -0.1224
 6258TIP3    H240266   5.518   3.914   4.617  2.6757  1.6651  0.3001
 6259TIP3   OH240267   3.002   0.368   3.064 -0.0382 -0.2602  0.0148
 6259TIP3    H140268   2.961   0.385   2.979 -3.4329 -0.8110  1.3588
 6259TIP3    H240269   3.093   0.395   3.053 -0.7075  1.1564 -3.2986
 6260TIP3   OH240270   1.342   1.217  15.955 -0.2257 -0.1592 -0.0217
 6260TIP3    H140271   1.333   1.303  15.997 -0.2129  0.1293 -0.5989
 6260TIP3    H240272   1.430   1.188  15.979 -0.5761 -0.4402  0.9560
 6261TIP3   OH240273   5.070   4.435   0.655  0.2502 -0.2382  0.1111
 6261TIP3    H140274   5.150   4.423   0.706 -0.0150  1.3820  0.9534
 6261TIP3    H240275   5.101   4.457   0.567  0.7389  0.5044  0.4624
 6262TIP3   OH240276   1.514   4.335   6.344  0.0290  0.4328  0.5198
 6262TIP3    H140277   1.579   4.404   6.361 -1.1823  1.5966  0.5304
 6262TIP3    H240278   1.505   4.290   6.429  1.5156 -0.4121  0.2834
 6263TIP3   OH240279   5.703   4.368   1.641 -0.3536  0.5240  0.3008
 6263TIP3    H140280   5.613   4.369   1.606 -0.7412  1.3825  1.2646
 6263TIP3    H240281   5.746   4.442   1.599 -0.0629  0.0591 -0.2279
 6264TIP3   OH240282   4.151   4.313  14.856  0.2052 -0.4960 -0.3630
 6264TIP3    H140283   4.075   4.370  14.842  0.2686 -0.3254 -0.0299
 6264TIP3    H240284   4.125   4.229  14.819 -0.8826 -0.9834  1.3535
 6265TIP3   OH240285   3.417   5.970  10.959 -0.1040 -0.2666  0.0083
 6265TIP3    H140286   3.351   5.907  10.929  0.7919 -0.0120 -2.7318
 6265TIP3    H240287   3.458   5.926  11.034 -2.2376 -1.1210  0.7628
 6266TIP3   OH240288   3.073   3.312   3.724  0.0222  0.2625 -0.5079
 6266TIP3    H140289   3.045   3.338   3.812 -0.6731  1.6769 -1.1040
 6266TIP3    H240290   3.136   3.242   3.738 -2.0737 -1.4483  1.0093
 6267TIP3   OH240291   4.407   1.592   1.006 -0.1609  1.2073 -0.3720
 6267TIP3    H140292   4.483   1.545   1.041 -0.3003  0.1939 -1.3879
 6267TIP3    H240293   4.443   1.652   0.941 -0.2603  0.3687 -1.2171
 6268TIP3   OH240294   4.406   3.245   0.608 -0.6198  0.1277 -0.7224
 6268TIP3    H140295   4.408   3.205   0.695 -0.3037  1.1625 -0.2385
 6268TIP3    H240296   4.450   3.181   0.551  0.0161 -0.1482  0.0660
 6269TIP3   OH240297   2.647   6.657   5.549 -0.2532 -0.0098  0.1071
 6269TIP3    H140298   2.670   6.608   5.627 -0.6804  0.0236  0.2563
 6269TIP3    H240299   2.729   6.698   5.521  0.0393 -0.5690  0.1492
 6270TIP3   OH240300   5.201   2.594   0.519  0.7319 -0.1720 -0.3433
 6270TIP3    H140301   5.263   2.667   0.527  0.5038 -0.1010  0.9490
 6270TIP3    H240302   5.233   2.529   0.582 -1.2994  0.4777  1.4942
 6271TIP3   OH240303   5.471   3.208  11.977  0.0723  0.2697 -0.7141
 6271TIP3    H140304   5.555   3.194  11.934  0.1570 -1.2968 -0.1173
 6271TIP3    H240305   5.406   3.178  11.914 -0.0543  1.3888 -1.1375
 6272TIP3   OH240306   2.544   4.056  11.899 -0.1686  0.6493  0.0646
 6272TIP3    H140307   2.525   3.972  11.857  2.9267  0.3255 -0.8987
 6272TIP3    H240308   2.521   4.042  11.991  3.5914 -2.6517  0.7557
 6273TIP3   OH240309   5.457   0.426  13.815  0.0613  0.0186 -0.3504
 6273TIP3    H140310   5.362   0.425  13.826 -0.2994 -1.1230 -2.7890
 6273TIP3    H240311   5.470   0.430  13.720  2.4258 -1.5207 -0.1872
 6274TIP3   OH240312   0.914   5.995  13.652  0.1239 -0.2728  0.4500
 6274TIP3    H140313   0.888   5.957  13.568 -0.6339  0.1936  0.4558
 6274TIP3    H240314   0.836   5.986  13.707  0.5839 -0.4840  1.0764
 6275TIP3   OH240315   4.485   6.362  16.290  0.2846 -0.2773  0.1869
 6275TIP3    H140316   4.564   6.318  16.321  1.0242  0.0052 -1.2162
 6275TIP3    H240317   4.515   6.446  16.255 -0.5477 -0.3596 -0.7896
 6276TIP3   OH240318   5.264   0.393   3.246  0.6131 -0.0195  0.2671
 6276TIP3    H140319   5.179   0.437   3.251  1.1510  1.4764 -2.1314
 6276TIP3    H240320   5.325   0.462   3.218  1.7168 -1.9869 -2.5561
 6277TIP3   OH240321   0.087   1.324   6.010 -0.0950  0.2331  0.5748
 6277TIP3    H140322  -0.007   1.305   6.009 -0.4662  1.8997  0.0917
 6277TIP3    H240323   0.102   1.377   5.932  1.4789 -0.8872  0.0564
 6278TIP3   OH240324   6.710   0.381  13.649  0.2444  0.1106 -0.2149
 6278TIP3    H140325   6.710   0.474  13.625  2.7111  0.5685  1.2119
 6278TIP3    H240326   6.793   0.347  13.615 -0.0094 -1.2404  0.4548
 6279TIP3   OH240327   1.419   2.218  17.278  0.5203 -0.1674  0.3923
 6279TIP3    H140328   1.392   2.135  17.317  0.0634 -0.8671 -1.3119
 6279TIP3    H240329   1.513   2.208  17.263  0.3230 -0.7413 -0.5685
 6280TIP3   OH240330   5.827   3.172  12.001  0.6654  0.3101  1.2593
 6280TIP3    H140331   5.763   3.101  11.997  1.4821 -0.4285  1.1041
 6280TIP3    H240332   5.776   3.247  12.033 -1.7273  1.4041 -3.9863
 6281TIP3   OH240333   5.459   5.473   4.801  0.1809  0.3511  0.3128
 6281TIP3    H140334   5.501   5.411   4.860  2.5960  0.7201 -0.9185
 6281TIP3    H240335   5.421   5.419   4.732  0.2704  0.1193  0.4452
 6282TIP3   OH240336   4.649   6.112   4.189 -0.1248  0.3252  0.3681
 6282TIP3    H140337   4.687   6.159   4.264 -0.4861  1.1105  0.0630
 6282TIP3    H240338   4.572   6.163   4.165 -0.6977 -0.5959  0.2150
 6283TIP3   OH240339   2.046   1.117   0.362 -0.1105  0.1316  0.5476
 6283TIP3    H140340   2.038   1.022   0.356 -0.5603  0.1999 -0.0779
 6283TIP3    H240341   1.982   1.150   0.298  0.3935  0.8431  0.4033
 6284TIP3   OH240342   3.766   4.487  16.753 -0.1671  0.0055 -0.6080
 6284TIP3    H140343   3.807   4.472  16.839 -0.2419 -0.5211 -0.6564
 6284TIP3    H240344   3.711   4.409  16.740  0.0583 -0.0481 -1.2617
 6285TIP3   OH240345   1.790   4.011  15.849 -0.2342  0.0522 -0.0612
 6285TIP3    H140346   1.842   3.931  15.842 -0.6009 -0.4213  2.0754
 6285TIP3    H240347   1.699   3.980  15.845 -0.3727  0.5437 -0.7860
 6286TIP3   OH240348   0.853   1.928   5.380  0.0894 -0.0467  0.3887
 6286TIP3    H140349   0.931   1.905   5.431  1.9994  0.5649 -2.0128
 6286TIP3    H240350   0.806   1.991   5.434  1.5380 -0.0623  1.7304
 6287TIP3   OH240351   0.412   0.330  11.989  0.5383  0.5329  0.5204
 6287TIP3    H140352   0.370   0.363  11.909  0.4482  0.3303  0.4834
 6287TIP3    H240353   0.496   0.375  11.992 -0.1107  1.7612  1.1660
 6288TIP3   OH240354   5.201   2.835   5.810  0.4261  0.4711  0.1127
 6288TIP3    H140355   5.241   2.874   5.888 -1.0220  1.2331  0.5064
 6288TIP3    H240356   5.131   2.780   5.844  1.1542 -0.9463 -0.5598
 6289TIP3   OH240357   2.218   0.170   0.747 -0.7970  0.0529 -0.5422
 6289TIP3    H140358   2.140   0.225   0.741 -1.0452 -0.3972 -1.8854
 6289TIP3    H240359   2.280   0.211   0.687  0.1078  0.5589  0.7188
 6290TIP3   OH240360   2.122   5.697   1.388  0.1697  0.5125  0.8621
 6290TIP3    H140361   2.073   5.620   1.358  0.5230  0.3316  0.7511
 6290TIP3    H240362   2.211   5.683   1.357 -0.3309  2.3433 -1.8385
 6291TIP3   OH240363   1.126   0.366   1.250 -0.1578 -0.1689  0.0054
 6291TIP3    H140364   1.184   0.375   1.325  0.5510 -2.1394 -0.2414
 6291TIP3    H240365   1.137   0.448   1.201  2.7356 -0.5660 -0.2178
 6292TIP3   OH240366   1.908   2.854   2.201 -0.9121  0.1165 -0.0076
 6292TIP3    H140367   1.937   2.814   2.283 -1.5149 -1.5753 -0.5684
 6292TIP3    H240368   1.960   2.933   2.193  0.6974 -0.7898  0.9427
 6293TIP3   OH240369   0.067   5.996   4.366  0.3286  1.0657 -0.6230
 6293TIP3    H140370   0.032   5.929   4.425  0.8286 -0.8855 -2.3946
 6293TIP3    H240371  -0.004   6.060   4.357 -0.1994  0.7674  1.0813
 6294TIP3   OH240372   1.254   5.476   6.411  0.5414  0.0733  0.3986
 6294TIP3    H140373   1.211   5.509   6.332 -0.6822 -1.3381  0.4103
 6294TIP3    H240374   1.347   5.489   6.395  0.2044  2.3666 -0.0515
 6295TIP3   OH240375   2.322   0.760   2.552 -0.9339 -0.1607 -0.5919
 6295TIP3    H140376   2.288   0.704   2.621 -0.8812  0.4972 -0.0194
 6295TIP3    H240377   2.305   0.849   2.582  1.0578  0.2019 -0.3859
 6296TIP3   OH240378   6.585   0.181  11.936  0.1733  0.4391  0.0446
 6296TIP3    H140379   6.527   0.133  11.995 -1.0885  0.1469 -1.3916
 6296TIP3    H240380   6.609   0.118  11.868  3.7918 -0.0626  1.5228
 6297TIP3   OH240381   0.417   5.452  12.025 -0.1842  0.2505 -0.4225
 6297TIP3    H140382   0.497   5.452  11.973  2.2695  1.9147  2.9220
 6297TIP3    H240383   0.419   5.369  12.073  0.8495  1.1761  1.2558
 6298TIP3   OH240384   6.476   0.294   5.771  0.0746 -0.4463 -1.0463
 6298TIP3    H140385   6.537   0.366   5.759  0.1879 -0.2666  0.4140
 6298TIP3    H240386   6.455   0.295   5.865 -1.6236 -0.9300 -1.3745
 6299TIP3   OH240387   2.034   4.372   5.209 -0.1982 -0.0358 -0.4861
 6299TIP3    H140388   2.043   4.463   5.236  0.7870 -0.3597  0.3458
 6299TIP3    H240389   1.946   4.346   5.237 -0.9981  1.0014 -1.8821
 6300TIP3   OH240390   2.525   0.769   3.514  0.0486 -0.9308 -0.5500
 6300TIP3    H140391   2.559   0.751   3.427  0.2542 -2.7730 -0.1393
 6300TIP3    H240392   2.515   0.864   3.517  1.6187 -0.6686 -1.9830
 6301TIP3   OH240393   4.325   3.619  13.577 -0.5400 -0.3618  0.1978
 6301TIP3    H140394   4.335   3.530  13.611  1.4999 -0.1386  0.2836
 6301TIP3    H240395   4.369   3.617  13.492 -2.1336  0.1100 -0.6721
 6302TIP3   OH240396   5.933   4.881   2.259  0.7052 -0.5418  0.2244
 6302TIP3    H140397   5.839   4.897   2.270  1.1529  1.7895  1.3348
 6302TIP3    H240398   5.955   4.821   2.330  0.2893  0.0358  0.8589
 6303TIP3   OH240399   0.196   3.302  17.128 -0.2430  0.6569  0.3005
 6303TIP3    H140400   0.207   3.262  17.041  1.2341  1.3006  0.1653
 6303TIP3    H240401   0.231   3.391  17.118  0.9574  0.3939  1.8235
 6304TIP3   OH240402   2.335   2.303   1.815  0.2754 -0.3097  0.3046
 6304TIP3    H140403   2.426   2.326   1.832  0.5801 -0.5259 -0.9855
 6304TIP3    H240404   2.340   2.227   1.757 -0.7273  0.0399 -0.2524
 6305TIP3   OH240405   6.676   0.242   4.891  0.0732 -0.0708  0.4052
 6305TIP3    H140406   6.727   0.322   4.878 -0.9914  0.8764  1.7132
 6305TIP3    H240407   6.635   0.253   4.977 -0.3529 -1.8959  0.4833
 6306TIP3   OH240408   1.375   1.357   4.350  0.1910  0.4111 -0.8118
 6306TIP3    H140409   1.426   1.402   4.417  2.1147 -0.0350 -1.9059
 6306TIP3    H240410   1.360   1.269   4.386  0.5805  0.4083 -0.6512
 6307TIP3   OH240411   4.400   4.664   3.531  0.4972  0.3270 -0.0737
 6307TIP3    H140412   4.402   4.706   3.445 -1.9585  0.3499 -0.1798
 6307TIP3    H240413   4.364   4.577   3.515 -1.0646  0.7291  1.0487
 6308TIP3   OH240414   0.956   0.487   5.754  1.3026  0.1009  0.5455
 6308TIP3    H140415   1.035   0.508   5.803  2.1497 -0.2755 -0.6305
 6308TIP3    H240416   0.977   0.405   5.709  0.6124  0.5210 -0.5748
 6309TIP3   OH240417   4.776   6.472  14.066 -0.0327  0.1361  0.5217
 6309TIP3    H140418   4.726   6.505  13.991  0.1076  1.1522  0.8568
 6309TIP3    H240419   4.709   6.456  14.133 -0.4571 -3.0305 -0.5389
 6310TIP3   OH240420   1.095   2.126   5.665  0.2588 -0.1774 -0.0870
 6310TIP3    H140421   1.167   2.146   5.726  0.9071 -0.5094 -0.7231
 6310TIP3    H240422   1.133   2.062   5.604 -0.4680 -0.0704 -0.6611
 6311TIP3   OH240423   0.582   1.327   2.322  0.1982  0.1964  0.0290
 6311TIP3    H140424   0.658   1.332   2.380  0.8566  0.5973 -0.8382
 6311TIP3    H240425   0.594   1.246   2.272 -0.7446 -0.5341  0.9283
 6312TIP3   OH240426   5.711   5.737   1.376  0.1982 -0.1145  0.2437
 6312TIP3    H140427   5.667   5.791   1.441  0.1146  0.6998 -0.4684
 6312TIP3    H240428   5.671   5.651   1.384 -1.9501  0.7370 -0.7787
 6313TIP3   OH240429   1.521   6.304  13.625 -0.2633  0.4113 -0.0474
 6313TIP3    H140430   1.508   6.280  13.533 -2.8736  2.7372 -0.4105
 6313TIP3    H240431   1.535   6.399  13.623  2.0447  0.2159  1.8555
 6314TIP3   OH240432   0.945   6.309  15.128  0.1995 -0.5203 -0.0453
 6314TIP3    H140433   0.957   6.265  15.213  0.0179  0.4961  0.5269
 6314TIP3    H240434   0.972   6.244  15.063 -2.3199 -2.3888  0.5927
 6315TIP3   OH240435   6.350   4.875  13.828 -0.1379  0.0788  0.0173
 6315TIP3    H140436   6.262   4.886  13.793 -0.0050  0.8665 -0.0769
 6315TIP3    H240437   6.405   4.859  13.751 -0.2535 -0.7966  0.1091
 6316TIP3   OH240438   3.436   6.398   3.989 -0.0588 -1.4318  0.6341
 6316TIP3    H140439   3.416   6.490   4.011 -0.2693 -1.6060  1.2077
 6316TIP3    H240440   3.518   6.402   3.941 -0.9325 -0.7838 -0.8943
 6317TIP3   OH240441   4.124   0.397   2.934 -0.7012  0.4565  0.2789
 6317TIP3    H140442   4.172   0.332   2.984 -1.2912 -0.7219 -0.6528
 6317TIP3    H240443   4.134   0.478   2.985  0.0886 -0.3280  1.4207
 6318TIP3   OH240444   5.000   4.311  15.606  0.1108 -0.0833  0.1310
 6318TIP3    H140445   4.980   4.268  15.689  1.9428 -0.1492  0.5993
 6318TIP3    H240446   5.092   4.337  15.616 -0.6519  3.1513 -0.4787
 6319TIP3   OH240447   5.803   6.550  11.864  0.0441 -0.3202  0.1578
 6319TIP3    H140448   5.857   6.624  11.890  1.1289 -0.8813 -0.4224
 6319TIP3    H240449   5.726   6.589  11.822  0.5012  0.4720  0.0487
 6320TIP3   OH240450   1.504   3.588   6.077 -0.5168 -0.5267 -0.6796
 6320TIP3    H140451   1.453   3.583   5.996  1.8634 -1.2745 -2.2114
 6320TIP3    H240452   1.590   3.619   6.049 -0.0090  0.5163  1.7918
 6321TIP3   OH240453   5.836   6.076  16.362 -0.0715 -0.1180 -0.7002
 6321TIP3    H140454   5.921   6.079  16.405  0.0195 -1.2502 -0.7643
 6321TIP3    H240455   5.788   6.150  16.398  0.5379 -0.1408  0.1999
 6322TIP3   OH240456   1.972   1.094  13.922 -0.0885  0.1135 -0.6049
 6322TIP3    H140457   2.066   1.087  13.907  0.0498  1.4841 -0.4835
 6322TIP3    H240458   1.960   1.074  14.015 -0.0999 -1.3653 -0.8946
 6323TIP3   OH240459   0.572   5.217  14.918 -0.2981 -0.3363  0.1435
 6323TIP3    H140460   0.557   5.151  14.850 -0.5475 -0.1731  0.0396
 6323TIP3    H240461   0.639   5.274  14.881 -1.6519  0.7724 -0.6997
 6324TIP3   OH240462   2.284   1.680  11.844 -0.5491 -0.7238  1.0584
 6324TIP3    H140463   2.239   1.638  11.917 -1.1482  0.3134  1.3087
 6324TIP3    H240464   2.233   1.760  11.827 -0.2655 -0.8149 -0.3213
 6325TIP3   OH240465   0.350   4.702  15.594 -0.3038 -0.5492 -0.4890
 6325TIP3    H140466   0.377   4.614  15.618 -0.0342 -0.8167 -1.7186
 6325TIP3    H240467   0.292   4.691  15.519 -2.6792  0.1365  1.1102
 6326TIP3   OH240468   5.299   5.010  14.381  0.6387 -0.6512  0.7083
 6326TIP3    H140469   5.266   5.041  14.297  3.0591 -0.2754 -0.1900
 6326TIP3    H240470   5.276   5.079  14.443 -0.4526 -0.5435  0.1964
 6327TIP3   OH240471   1.303   3.646   5.009 -0.5372 -0.6173 -0.0105
 6327TIP3    H140472   1.305   3.707   4.936 -1.8770 -1.2547 -0.6048
 6327TIP3    H240473   1.271   3.698   5.083 -0.4391 -0.2958 -0.1949
 6328TIP3   OH240474   0.912   3.664   0.537  0.4705 -0.0150  0.0654
 6328TIP3    H140475   1.007   3.654   0.547  0.4042  0.0010  0.6990
 6328TIP3    H240476   0.880   3.576   0.521  0.4798 -0.1593  0.8038
 6329TIP3   OH240477   2.133   4.590   4.486 -0.3654 -0.3404  0.3896
 6329TIP3    H140478   2.082   4.509   4.480 -2.1832  0.8476 -1.8965
 6329TIP3    H240479   2.085   4.643   4.550 -0.0838 -0.4492  0.6955
 6330TIP3   OH240480   0.078   0.798  16.077  0.5742  0.9970  0.2687
 6330TIP3    H140481   0.055   0.844  15.996 -0.0723  0.3546  0.0701
 6330TIP3    H240482   0.027   0.842  16.145 -0.8350 -0.0151 -0.0747
 6331TIP3   OH240483   2.051   6.231  11.038 -0.0689 -0.2768  0.1731
 6331TIP3    H140484   1.967   6.267  11.068  0.0972  0.9387 -0.7726
 6331TIP3    H240485   2.116   6.293  11.069  0.7405 -2.0975  2.4503
 6332TIP3   OH240486   4.363   5.677  11.271 -0.5451  0.2105 -0.0658
 6332TIP3    H140487   4.392   5.768  11.263 -1.8423  0.6918  0.3437
 6332TIP3    H240488   4.366   5.659  11.365  0.4204 -0.4429 -0.2016
 6333TIP3   OH240489   3.603   3.396   1.888  0.0127 -0.1537 -0.1120
 6333TIP3    H140490   3.642   3.406   1.974 -0.7612 -0.0055  0.2277
 6333TIP3    H240491   3.625   3.476   1.841  0.4171 -0.2267 -0.0469
 6334TIP3   OH240492   5.121   1.783   4.361  0.3448  0.1352  0.0908
 6334TIP3    H140493   5.070   1.706   4.336 -0.8567  0.8635  0.1935
 6334TIP3    H240494   5.056   1.843   4.399  1.0895  1.5531 -0.7819
 6335TIP3   OH240495   3.224   1.700   5.245 -0.4130  0.1911 -0.1843
 6335TIP3    H140496   3.301   1.727   5.195 -0.0462 -0.6269 -0.0802
 6335TIP3    H240497   3.169   1.779   5.249  1.0442  1.2088  0.9451
 6336TIP3   OH240498   5.395   0.538  14.423  0.0037 -0.3437  0.2864
 6336TIP3    H140499   5.311   0.561  14.462  0.7728 -0.2009  1.9679
 6336TIP3    H240500   5.386   0.560  14.331 -1.5760  0.2664  0.5553
 6337TIP3   OH240501   5.915   1.873  15.858  0.3473  0.3198 -0.0170
 6337TIP3    H140502   5.861   1.928  15.915 -1.0046 -1.0303  0.0661
 6337TIP3    H240503   5.858   1.851  15.784  2.1987  2.3939 -2.2142
 6338TIP3   OH240504   3.325   4.507   1.178  0.1052  0.3079 -0.4418
 6338TIP3    H140505   3.418   4.504   1.201 -0.2964  0.4742  1.3744
 6338TIP3    H240506   3.295   4.417   1.189  0.0167  0.2685 -0.9615
 6339TIP3   OH240507   4.317   4.428   4.490 -0.1920  0.1904  0.2325
 6339TIP3    H140508   4.290   4.517   4.471 -0.0480  0.2986  0.5272
 6339TIP3    H240509   4.344   4.430   4.582 -1.8059 -0.5476  0.7446
 6340TIP3   OH240510   3.573   6.099  16.989  0.5425 -0.6773  1.1877
 6340TIP3    H140511   3.582   6.030  17.055 -0.6579 -2.0229  0.0100
 6340TIP3    H240512   3.651   6.089  16.934 -0.1359 -1.8829  0.3764
 6341TIP3   OH240513   6.727   0.279   3.553  0.5947  0.0334 -0.3049
 6341TIP3    H140514   6.718   0.372   3.535  0.6192 -0.0319 -0.6821
 6341TIP3    H240515   6.637   0.247   3.560  0.4951  0.7104  3.4386
 6342TIP3   OH240516   3.537   2.150  12.788 -0.4599  0.6891 -0.6330
 6342TIP3    H140517   3.580   2.074  12.828  0.9490  0.9553 -1.6115
 6342TIP3    H240518   3.446   2.143  12.818 -0.0982 -0.7257  0.2501
 6343TIP3   OH240519   0.099   5.684  13.521 -0.0211 -0.1825  0.2299
 6343TIP3    H140520   0.020   5.735  13.536 -0.4343 -0.9925  0.9192
 6343TIP3    H240521   0.171   5.745  13.539 -0.4977  0.3790  0.2399
 6344TIP3   OH240522   0.913   2.597   2.297  0.5908 -0.2851 -0.1839
 6344TIP3    H140523   1.001   2.603   2.336 -0.7596 -0.0511  3.1128
 6344TIP3    H240524   0.859   2.560   2.366 -1.9740 -0.3344 -2.0934
 6345TIP3   OH240525   0.912   2.905  11.007 -0.0564 -0.1699 -0.2469
 6345TIP3    H140526   1.007   2.899  11.001  0.1106 -0.8346  2.0030
 6345TIP3    H240527   0.879   2.834  10.952  0.7199  0.1807 -1.1861
 6346TIP3   OH240528   0.427   4.902  15.158 -0.2923  0.0313  0.3164
 6346TIP3    H140529   0.454   4.860  15.076 -0.4855 -1.3016  0.9022
 6346TIP3    H240530   0.410   4.993  15.135 -0.3605 -0.3323 -1.1273
 6347TIP3   OH240531   3.389   3.317   4.221 -0.4021  0.1414  0.3546
 6347TIP3    H140532   3.345   3.344   4.141 -1.6153  0.6533  1.1573
 6347TIP3    H240533   3.457   3.256   4.192 -1.9829 -1.1161 -0.9166
 6348TIP3   OH240534   2.468   3.860   1.962  0.5025 -0.2964 -0.4221
 6348TIP3    H140535   2.398   3.863   1.897 -0.6428  0.0318  0.7906
 6348TIP3    H240536   2.462   3.943   2.008  0.8266 -0.7960  0.5592
 6349TIP3   OH240537   5.634   3.921  11.185 -0.3747  0.2195  0.1585
 6349TIP3    H140538   5.712   3.866  11.180 -1.0060 -0.6641 -0.1477
 6349TIP3    H240539   5.586   3.902  11.105 -0.4863  1.4139 -0.0746
 6350TIP3   OH240540   6.773   4.835   5.264  0.2193 -0.6693 -0.3043
 6350TIP3    H140541   6.726   4.811   5.184 -2.2859 -2.6316  1.6095
 6350TIP3    H240542   6.755   4.928   5.275  0.3598 -0.4375 -1.8299
 6351TIP3   OH240543   0.029   4.282  15.233 -0.2807 -0.1561  0.1005
 6351TIP3    H140544   0.029   4.208  15.171 -1.5325 -0.9500  1.0104
 6351TIP3    H240545   0.088   4.346  15.193 -1.1956 -0.5572 -2.0220
 6352TIP3   OH240546   4.203   4.977   0.891 -0.6824 -0.4945  0.2087
 6352TIP3    H140547   4.122   5.021   0.866 -0.4995 -0.8593 -1.1232
 6352TIP3    H240548   4.177   4.887   0.910 -0.6857 -0.4364  0.4892
 6353TIP3   OH240549   1.912   4.607  13.437 -0.5293  0.3477  0.0262
 6353TIP3    H140550   1.954   4.559  13.365 -0.3278 -0.4527  0.6617
 6353TIP3    H240551   1.904   4.543  13.507 -2.2444  0.6615  0.1565
 6354TIP3   OH240552   4.281   3.958  12.552  0.1792 -0.1295 -0.1838
 6354TIP3    H140553   4.285   4.019  12.626 -0.5264 -0.0383 -0.2155
 6354TIP3    H240554   4.318   3.877  12.585  0.2065  0.0213  0.1582
 6355TIP3   OH240555   2.181   2.376  13.089  0.6291  0.6016 -0.5030
 6355TIP3    H140556   2.254   2.350  13.144  0.6250  0.9636 -0.3213
 6355TIP3    H240557   2.111   2.398  13.151  0.7967  1.5225 -0.6295
 6356TIP3   OH240558   4.601   5.824  14.934 -0.7323 -0.5860 -0.1006
 6356TIP3    H140559   4.638   5.845  14.848 -0.2737 -0.8936  0.0155
 6356TIP3    H240560   4.565   5.736  14.923  1.4270 -1.6375  0.6395
 6357TIP3   OH240561   5.187   2.020   4.872  0.0272  0.0511  0.4631
 6357TIP3    H140562   5.244   2.055   4.940 -1.3306  0.0926  1.6239
 6357TIP3    H240563   5.125   2.090   4.853 -0.8234 -0.6302  0.6232
 6358TIP3   OH240564   2.856   0.563  11.882 -0.6592  0.4393 -0.2043
 6358TIP3    H140565   2.769   0.555  11.842 -1.0215  1.0045  0.4337
 6358TIP3    H240566   2.838   0.593  11.971  0.0300 -2.3465  0.9660
 6359TIP3   OH240567   4.372   4.767   6.088 -0.4150 -0.9287  0.4310
 6359TIP3    H140568   4.278   4.763   6.071 -0.9686  0.9344  2.5673
 6359TIP3    H240569   4.381   4.732   6.177 -0.0002  3.8681  2.5588
 6360TIP3   OH240570   3.031   6.634  12.055  0.1406  0.5320 -0.2877
 6360TIP3    H140571   3.054   6.722  12.085 -0.1644  0.5572 -0.1175
 6360TIP3    H240572   2.940   6.642  12.026 -0.4147 -0.0503  1.1578
 6361TIP3   OH240573   3.959   3.517  15.418 -0.1300 -0.5734  0.2495
 6361TIP3    H140574   3.882   3.461  15.432  0.4461 -1.3780  0.2888
 6361TIP3    H240575   3.932   3.603  15.449 -0.9904 -0.8633  0.3350
 6362TIP3   OH240576   4.814   2.682  13.704 -0.1032 -0.6636 -0.5352
 6362TIP3    H140577   4.749   2.619  13.674  0.6680 -1.2254 -1.0577
 6362TIP3    H240578   4.789   2.764  13.659  0.0917 -1.1055 -1.4787
 6363TIP3   OH240579   3.368   1.043   3.810  0.2305 -0.1213  0.5037
 6363TIP3    H140580   3.446   1.003   3.850  0.4513  2.7939  3.4447
 6363TIP3    H240581   3.295   1.010   3.862  0.0651  0.7577  0.8370
 6364TIP3   OH240582   4.072   3.054  14.506 -0.4591  0.1013  0.1320
 6364TIP3    H140583   4.137   3.052  14.576 -0.3603  2.3874  0.1928
 6364TIP3    H240584   3.995   3.093  14.546 -1.1206 -0.5175 -0.5143
 6365TIP3   OH240585   4.152   0.190   2.206  0.1246  0.6273  0.0723
 6365TIP3    H140586   4.246   0.205   2.198  0.1514 -0.1379 -1.6704
 6365TIP3    H240587   4.142   0.095   2.198 -0.7365  0.6074  1.1626
 6366TIP3   OH240588   5.108   3.318  13.991 -0.7095  1.0381  0.1853
 6366TIP3    H140589   5.093   3.336  13.898 -0.4701  1.9940  0.3150
 6366TIP3    H240590   5.185   3.261  13.991 -0.3336  1.5330 -0.1810
 6367TIP3   OH240591   4.291   1.993   4.019 -0.2390  0.1569 -0.1952
 6367TIP3    H140592   4.239   2.074   4.021 -0.5362 -0.0280 -0.3718
 6367TIP3    H240593   4.327   1.986   4.108 -1.8473 -0.5691  0.4370
 6368TIP3   OH240594   4.938   3.489   5.953 -0.4062  0.3395 -0.1018
 6368TIP3    H140595   4.968   3.509   5.864  0.7786 -0.3213  0.1287
 6368TIP3    H240596   4.954   3.396   5.963 -4.1870 -0.4843 -0.5412
 6369TIP3   OH240597   4.537   1.642   1.602  0.7916  0.0367  0.2382
 6369TIP3    H140598   4.593   1.632   1.679  0.1916 -0.8399  0.5805
 6369TIP3    H240599   4.458   1.591   1.622  0.8221 -0.6131 -1.1483
 6370TIP3   OH240600   3.876   3.363  14.880  0.5081 -0.0282  0.1713
 6370TIP3    H140601   3.868   3.281  14.927 -2.4898  0.4263  0.6722
 6370TIP3    H240602   3.844   3.429  14.941  0.3668  1.1346 -1.1062
 6371TIP3   OH240603   2.666   4.283  13.690  0.1894  0.8569 -0.1127
 6371TIP3    H140604   2.620   4.345  13.633 -1.3006 -0.4984 -0.4922
 6371TIP3    H240605   2.736   4.248  13.635 -0.4007  0.5449 -0.6830
 6372TIP3   OH240606   0.454   2.251  16.256  0.3684  0.0348 -0.0377
 6372TIP3    H140607   0.501   2.257  16.339  0.3933  0.5092 -0.0785
 6372TIP3    H240608   0.397   2.328  16.256  1.0098  0.5277 -0.8513
 6373TIP3   OH240609   1.442   1.829  15.566  0.1690  0.2050  0.0348
 6373TIP3    H140610   1.427   1.793  15.479  0.3131 -1.4190  0.6561
 6373TIP3    H240611   1.422   1.923  15.557  0.3950  0.1066 -1.7766
 6374TIP3   OH240612   4.852   1.314  15.497 -0.0640  0.0445  0.4730
 6374TIP3    H140613   4.800   1.293  15.575  0.1305 -0.5383  0.4455
 6374TIP3    H240614   4.825   1.249  15.432 -0.8000  1.0070 -0.2057
 6375TIP3   OH240615   5.815   5.605  17.268 -0.5453 -0.2031 -0.1048
 6375TIP3    H140616   5.824   5.678  17.330 -1.1441 -1.0795  1.0406
 6375TIP3    H240617   5.887   5.546  17.289 -0.4148 -0.2358 -0.6335
 6376TIP3   OH240618   1.184   4.159  14.507  0.1576 -0.0085 -0.9204
 6376TIP3    H140619   1.198   4.168  14.412  1.1765  0.1700 -0.7649
 6376TIP3    H240620   1.099   4.117  14.514 -0.1561  0.4138 -1.9106
 6377TIP3   OH240621   1.966   2.535   5.726  0.6674  0.0394 -0.2192
 6377TIP3    H140622   1.958   2.625   5.694 -0.1442 -0.0570 -0.2899
 6377TIP3    H240623   1.899   2.487   5.678  0.4431 -0.4070  0.5388
 6378TIP3   OH240624   5.589   5.907  16.430  0.0290  0.3101 -0.4671
 6378TIP3    H140625   5.666   5.944  16.388  0.7272  0.4974  0.9082
 6378TIP3    H240626   5.515   5.938  16.377  0.8322  0.8955 -1.2739
 6379TIP3   OH240627   2.890   4.342  14.133  0.3099 -0.2937  0.3427
 6379TIP3    H140628   2.850   4.325  14.048  2.0154 -0.3925 -0.4836
 6379TIP3    H240629   2.884   4.437  14.143 -0.5467 -0.3501  0.4739
 6380TIP3   OH240630   5.530   3.437  11.251  0.1992 -0.5649  0.3956
 6380TIP3    H140631   5.543   3.439  11.157 -0.1886 -2.4195  0.2579
 6380TIP3    H240632   5.435   3.433  11.263  0.1708  1.0794  0.9406
 6381TIP3   OH240633   0.686   3.156  11.377 -0.0886  0.6145  0.2453
 6381TIP3    H140634   0.694   3.116  11.463  3.4873 -3.3979 -1.5676
 6381TIP3    H240635   0.761   3.215  11.371 -1.1278  1.9782  0.2893
 6382TIP3   OH240636   6.159   1.447   3.410 -0.3091  0.2556  0.1833
 6382TIP3    H140637   6.195   1.369   3.452  0.0378 -0.2801 -1.0820
 6382TIP3    H240638   6.236   1.497   3.382 -0.5363  0.2032 -0.5417
 6383TIP3   OH240639   3.097   0.535  15.516  0.2253  0.5515 -0.8337
 6383TIP3    H140640   3.147   0.494  15.586  0.0458  0.4317 -0.7766
 6383TIP3    H240641   3.005   0.521  15.539  0.1633  0.9449 -0.8340
 6384TIP3   OH240642   2.178   1.521  13.776 -0.4362 -0.4636 -0.5543
 6384TIP3    H140643   2.130   1.463  13.718 -0.2771 -1.4870  0.3043
 6384TIP3    H240644   2.145   1.500  13.864  0.3887 -0.0141 -0.1176
 6385TIP3   OH240645   3.853   5.654   0.804 -0.0800  0.7253 -0.1318
 6385TIP3    H140646   3.780   5.614   0.757 -0.3461  0.1493  0.7391
 6385TIP3    H240647   3.810   5.712   0.867  0.2808  1.7826 -0.8358
 6386TIP3   OH240648   0.732   1.933  12.323  0.1870  0.7079  0.5072
 6386TIP3    H140649   0.802   1.902  12.266 -0.2993  1.5424 -0.5960
 6386TIP3    H240650   0.706   2.018  12.285 -0.5887  0.9832  1.5990
 6387TIP3   OH240651   1.459   0.531  13.704 -0.0301  0.1174 -0.3145
 6387TIP3    H140652   1.453   0.488  13.618  0.3551 -0.6472  0.0351
 6387TIP3    H240653   1.397   0.604  13.698 -0.3672 -0.2161 -1.0770
 6388TIP3   OH240654   4.681   2.165  13.057  0.3413  0.1176  0.5318
 6388TIP3    H140655   4.682   2.126  12.970 -3.4300 -1.0960  0.8548
 6388TIP3    H240656   4.733   2.245  13.048  2.2662 -1.2611 -2.0673
 6389TIP3   OH240657   1.546   1.751   1.198 -0.0291 -0.2177  0.1544
 6389TIP3    H140658   1.582   1.749   1.286 -0.4447 -0.8834  0.3206
 6389TIP3    H240659   1.554   1.842   1.170  3.0759 -0.5609 -0.3726
 6390TIP3   OH240660   4.349   1.559  12.921  0.3417 -0.0328 -0.0061
 6390TIP3    H140661   4.275   1.585  12.977  0.8693 -0.7216  1.0494
 6390TIP3    H240662   4.310   1.501  12.856 -0.3692  1.1586 -0.6714
 6391TIP3   OH240663   5.756   1.128   1.657  0.1395 -0.4546 -0.3023
 6391TIP3    H140664   5.809   1.151   1.580 -1.1664 -0.3303 -1.1908
 6391TIP3    H240665   5.819   1.087   1.717  1.1683 -0.6863 -1.4842
 6392TIP3   OH240666   3.093   0.956  15.238  0.0085  0.3525 -0.0092
 6392TIP3    H140667   3.123   0.886  15.296 -0.7436 -0.2890 -0.3715
 6392TIP3    H240668   3.156   1.027  15.250  0.5673 -0.2488  0.6444
 6393TIP3   OH240669   1.552   0.356   2.941 -0.2137 -0.4027 -0.5869
 6393TIP3    H140670   1.540   0.265   2.970 -0.1526 -0.3473 -0.3876
 6393TIP3    H240671   1.473   0.375   2.890 -0.4145 -0.4397 -0.2962
 6394TIP3   OH240672   4.594   5.131  11.119 -0.2559  0.0802  0.0592
 6394TIP3    H140673   4.560   5.049  11.084  1.2353 -1.1120  1.2656
 6394TIP3    H240674   4.672   5.149  11.067 -0.4913  0.6684 -0.0994
 6395TIP3   OH240675   1.492   1.605  13.602 -0.6144  0.0125 -0.4690
 6395TIP3    H140676   1.486   1.692  13.563 -1.2954 -0.8824 -2.4883
 6395TIP3    H240677   1.447   1.613  13.686 -0.6599  1.5913 -0.6107
 6396TIP3   OH240678   1.347   5.610  12.817 -0.2803 -1.0816  0.2591
 6396TIP3    H140679   1.253   5.626  12.808 -0.1408 -0.2665  0.0949
 6396TIP3    H240680   1.371   5.658  12.896 -0.1042 -1.7758  0.6321
 6397TIP3   OH240681   5.800   4.710   0.271 -0.0312  0.2964  0.0371
 6397TIP3    H140682   5.846   4.629   0.291  1.4225  0.9925 -0.3517
 6397TIP3    H240683   5.712   4.696   0.305  0.5704 -0.9174  1.2200
 6398TIP3   OH240684   2.187   6.783   1.281 -0.1305  0.2605 -0.2029
 6398TIP3    H140685   2.227   6.798   1.195 -0.6041 -0.0902 -0.4903
 6398TIP3    H240686   2.251   6.816   1.343  0.3673  0.2092 -0.6789
 6399TIP3   OH240687   4.391   6.485   3.705 -0.2752  0.0388  0.1555
 6399TIP3    H140688   4.439   6.563   3.681  2.2168 -1.4375  0.0087
 6399TIP3    H240689   4.385   6.434   3.624 -0.5133 -0.5954  0.5608
 6400TIP3   OH240690   5.804   1.632   3.097  0.0225 -0.1441 -0.1755
 6400TIP3    H140691   5.823   1.603   3.008  1.8419  3.8400 -1.2877
 6400TIP3    H240692   5.888   1.627   3.143 -0.0664  1.2400  0.1801
 6401TIP3   OH240693   5.744   5.340   6.878  0.2108 -0.4299 -0.3406
 6401TIP3    H140694   5.755   5.351   6.973 -0.3516  0.3075 -0.3527
 6401TIP3    H240695   5.808   5.400   6.840 -0.1148 -0.1308 -0.4210
 6402TIP3   OH240696   0.786   0.731  13.105 -0.1734 -0.0053 -0.2679
 6402TIP3    H140697   0.851   0.737  13.176 -1.0500  0.6108  0.5091
 6402TIP3    H240698   0.838   0.729  13.025  0.8191  0.0940  0.3525
 6403TIP3   OH240699   2.584   2.802   3.376 -0.1629  0.3440 -0.1113
 6403TIP3    H140700   2.560   2.885   3.336  0.1788  0.5028  0.0022
 6403TIP3    H240701   2.545   2.736   3.320 -1.6391  0.5986  0.5825
 6404TIP3   OH240702   3.427   3.216   2.863  0.3115 -0.0509 -0.2465
 6404TIP3    H140703   3.411   3.298   2.909  0.6815  0.7438 -1.4700
 6404TIP3    H240704   3.480   3.241   2.787 -0.3199 -1.2867 -1.1323
 6405TIP3   OH240705   0.932   3.812  14.895 -0.4472 -0.1216 -0.3954
 6405TIP3    H140706   0.908   3.897  14.930 -0.3585 -0.5348  0.7188
 6405TIP3    H240707   0.903   3.814  14.803 -1.1864  0.7961 -0.1538
 6406TIP3   OH240708   2.240   5.293  12.053 -0.4696 -0.5743 -0.4035
 6406TIP3    H140709   2.233   5.338  11.969  0.6205  1.9087  0.7392
 6406TIP3    H240710   2.236   5.363  12.119 -0.4425 -2.3374  1.5934
 6407TIP3   OH240711   4.458   3.368   2.234 -0.1414  0.1794  0.1740
 6407TIP3    H140712   4.495   3.437   2.180  4.3804 -1.4146  0.7798
 6407TIP3    H240713   4.461   3.403   2.323 -0.4563  0.1585  0.1942
 6408TIP3   OH240714   5.837   0.087   5.461  0.7439  0.0408 -0.0438
 6408TIP3    H140715   5.839   0.009   5.406  0.0157  0.0084 -0.0338
 6408TIP3    H240716   5.865   0.056   5.547 -0.9188 -0.5340  0.3285
 6409TIP3   OH240717   6.287   6.722   5.159 -0.1588 -0.6338  0.4168
 6409TIP3    H140718   6.322   6.635   5.140 -0.2816 -0.6377  0.1999
 6409TIP3    H240719   6.201   6.722   5.117 -0.2389 -0.4750  0.5805
 6410TIP3   OH240720   3.084   3.020   4.727 -0.5623  0.3699 -0.2863
 6410TIP3    H140721   3.079   3.110   4.694  0.8364  0.4618 -0.2999
 6410TIP3    H240722   3.085   3.030   4.822  2.5562  0.6449 -0.2386
 6411TIP3   OH240723   5.954   3.571   3.670  0.0558  0.3211 -0.1732
 6411TIP3    H140724   6.029   3.517   3.694  0.1680  0.7654  0.5108
 6411TIP3    H240725   5.891   3.557   3.741  0.9777  2.8042  1.2421
 6412TIP3   OH240726   4.392   5.518   0.293 -0.3076  0.2549  0.1321
 6412TIP3    H140727   4.379   5.584   0.362 -1.4837  1.4377 -1.1549
 6412TIP3    H240728   4.385   5.567   0.211  1.0134 -1.1224 -0.8709
 6413TIP3   OH240729   5.002   0.195  16.013  0.2274  0.2438 -0.6884
 6413TIP3    H140730   5.093   0.217  16.030  0.7088 -0.3358 -2.2946
 6413TIP3    H240731   4.960   0.194  16.099  2.2298 -1.6994  0.3739
 6414TIP3   OH240732   3.327   0.849  13.973  0.0047  0.1143 -0.0557
 6414TIP3    H140733   3.253   0.900  13.939  0.2695  0.3308 -0.3163
 6414TIP3    H240734   3.377   0.911  14.026 -0.1966 -0.1264  0.4222
 6415TIP3   OH240735   1.905   0.339   3.767 -0.0443  0.2575 -0.7175
 6415TIP3    H140736   1.954   0.371   3.843 -0.6812  1.7816 -0.9030
 6415TIP3    H240737   1.962   0.358   3.693  0.7096 -1.5081 -0.6404
 6416TIP3   OH240738   2.749   5.267  17.369 -0.4759  0.2765  0.1820
 6416TIP3    H140739   2.765   5.259  17.463  0.3758 -1.4302 -0.0693
 6416TIP3    H240740   2.657   5.292  17.362 -0.3382  1.2316  1.4716
 6417TIP3   OH240741   2.122   2.699  17.217  0.4635 -0.1413 -0.5066
 6417TIP3    H140742   2.055   2.735  17.159 -1.2152 -3.3725 -0.8081
 6417TIP3    H240743   2.110   2.745  17.300 -0.8205  0.7049 -1.1326
 6418TIP3   OH240744   1.913   6.131   3.517  0.3997 -0.7236 -0.3251
 6418TIP3    H140745   1.929   6.223   3.538 -2.9033 -0.1364  0.0772
 6418TIP3    H240746   1.925   6.125   3.422  0.2482  0.1934 -0.4059
 6419TIP3   OH240747   3.848   6.336   1.276 -0.3784 -0.1186  0.3191
 6419TIP3    H140748   3.942   6.335   1.295 -0.0895 -1.6541 -0.9457
 6419TIP3    H240749   3.830   6.424   1.244  0.9591 -0.2066 -0.7795
 6420TIP3   OH240750   0.540   6.448  17.021  0.0881  0.0133  0.6429
 6420TIP3    H140751   0.592   6.529  17.015  0.8423 -0.5380 -3.9578
 6420TIP3    H240752   0.604   6.381  17.043  0.0272  0.2180  1.4813
 6421TIP3   OH240753   6.246   2.654  12.879 -0.2051  0.2981  0.7885
 6421TIP3    H140754   6.322   2.650  12.937 -0.8993  0.4082  1.7318
 6421TIP3    H240755   6.262   2.730  12.823  0.5279  0.1199  0.7448
 6422TIP3   OH240756   4.461   4.684  13.289 -0.2556 -0.3449 -0.3257
 6422TIP3    H140757   4.515   4.662  13.364  0.7957  2.1242 -0.2858
 6422TIP3    H240758   4.522   4.717  13.224 -1.5613  1.4043 -0.7338
 6423TIP3   OH240759   0.402   6.133  14.307  0.3346  0.1365 -0.2300
 6423TIP3    H140760   0.427   6.195  14.239 -2.1061  1.5308  0.0191
 6423TIP3    H240761   0.474   6.135  14.369  0.1824  3.1304 -0.0112
 6424TIP3   OH240762   3.470   1.273  13.149 -0.3484  0.1813  0.0109
 6424TIP3    H140763   3.505   1.187  13.125 -0.4706 -0.0204  0.5474
 6424TIP3    H240764   3.400   1.289  13.085 -1.7488 -1.0710  1.1700
 6425TIP3   OH240765   3.189   4.828   5.954  0.4085  0.6332  0.3554
 6425TIP3    H140766   3.199   4.831   5.859 -0.5385  1.8751  0.2734
 6425TIP3    H240767   3.133   4.903   5.975 -0.4049 -0.3185  1.7700
 6426TIP3   OH240768   6.554   6.427   6.670  0.2183 -0.1499  0.1466
 6426TIP3    H140769   6.618   6.437   6.600  0.1314 -2.7416 -0.3771
 6426TIP3    H240770   6.540   6.333   6.677  0.1806 -0.0089  3.6207
 6427TIP3   OH240771   5.038   4.904  14.526 -0.7360 -0.2374 -0.2618
 6427TIP3    H140772   5.121   4.941  14.556 -1.6126  0.1607  1.8452
 6427TIP3    H240773   5.009   4.849  14.599 -2.3100 -0.3944 -0.9721
 6428TIP3   OH240774   0.356   5.676   3.304  0.6208  0.0900 -0.1449
 6428TIP3    H140775   0.312   5.599   3.339  0.1190  0.0944 -0.7576
 6428TIP3    H240776   0.341   5.673   3.210 -0.4301  1.5663 -0.0651
 6429TIP3   OH240777   1.845   4.048   0.908 -0.4597  0.0050  0.5424
 6429TIP3    H140778   1.903   4.097   0.966  0.4716 -1.1947  0.6772
 6429TIP3    H240779   1.774   4.109   0.887  0.9164  1.5720  0.2543
 6430TIP3   OH240780   5.427   5.391   1.722  0.1179  0.2858  0.1224
 6430TIP3    H140781   5.403   5.383   1.814 -3.2531 -0.2127 -0.6564
 6430TIP3    H240782   5.347   5.423   1.679  1.5090  0.3273 -2.6654
 6431TIP3   OH240783   6.724   2.934   2.492 -0.0578 -0.8665 -0.3467
 6431TIP3    H140784   6.630   2.939   2.476 -0.2931 -0.5217  1.0756
 6431TIP3    H240785   6.754   3.025   2.492  0.2097 -0.9529 -0.3623
 6432TIP3   OH240786   6.534   3.996   5.059 -0.4647  0.2502  0.0787
 6432TIP3    H140787   6.595   4.055   5.103  0.9141  0.0877 -1.5107
 6432TIP3    H240788   6.506   3.935   5.126  2.5100 -0.7634  0.5320
 6433TIP3   OH240789   4.473   2.646  12.325  0.2273 -0.4000  0.3890
 6433TIP3    H140790   4.535   2.667  12.255 -0.0201  1.4021  0.6784
 6433TIP3    H240791   4.397   2.702  12.308 -0.9678 -1.8901  0.5840
 6434TIP3   OH240792   2.696   6.694   3.670  0.1387  0.0387  0.1854
 6434TIP3    H140793   2.641   6.615   3.669  2.1754 -1.4577  0.1204
 6434TIP3    H240794   2.732   6.697   3.759 -0.1364  1.0800  0.2721
 6435TIP3   OH240795   0.565   5.252  16.446  0.3424  0.3562  0.3128
 6435TIP3    H140796   0.605   5.183  16.498 -0.3975  0.8519  1.6033
 6435TIP3    H240797   0.474   5.225  16.434 -0.1947  1.4705  1.5900
 6436TIP3   OH240798   5.266   2.435  12.494 -0.2624 -0.1123  0.0367
 6436TIP3    H140799   5.358   2.413  12.478 -0.1380 -1.3761  2.1401
 6436TIP3    H240800   5.226   2.352  12.520 -0.7742  1.2099  4.2074
 6437TIP3   OH240801   2.780   5.710  14.255  0.6850 -0.8004 -0.0640
 6437TIP3    H140802   2.723   5.659  14.313  0.8570  0.2616  1.0879
 6437TIP3    H240803   2.853   5.737  14.311  1.6876 -1.0695 -1.1916
 6438TIP3   OH240804   2.925   2.873  13.612  0.1560 -0.5436  0.2851
 6438TIP3    H140805   2.969   2.956  13.630  0.6286 -0.8227  0.4472
 6438TIP3    H240806   2.894   2.881  13.522 -2.0840  0.8118  1.0915
 6439TIP3   OH240807   3.829   5.871  11.690 -0.2063 -0.2014  0.3951
 6439TIP3    H140808   3.897   5.895  11.627 -0.3042  0.4493  0.5266
 6439TIP3    H240809   3.878   5.854  11.771 -0.0552 -1.2981  0.0910
 6440TIP3   OH240810   1.410   1.507  12.890  0.1360 -0.0796 -0.1554
 6440TIP3    H140811   1.493   1.542  12.922 -0.6921  1.9120 -0.0501
 6440TIP3    H240812   1.348   1.520  12.962 -0.4284 -0.9274 -0.4714
 6441TIP3   OH240813   6.398   6.169  13.857  0.3249  0.0662  0.0522
 6441TIP3    H140814   6.404   6.255  13.815  1.2910  0.4948  1.0199
 6441TIP3    H240815   6.404   6.107  13.785 -1.4028  0.7932 -0.7825
 6442TIP3   OH240816   5.069   3.523   5.053  0.0039 -0.1551 -0.3348
 6442TIP3    H140817   5.088   3.586   5.122  1.3574 -0.9763  0.0691
 6442TIP3    H240818   5.049   3.441   5.099 -0.1691 -0.4360 -0.8904
 6443TIP3   OH240819   5.240   1.360  13.291 -0.1544  0.3943  0.2001
 6443TIP3    H140820   5.178   1.371  13.363  0.3864 -2.2011  1.1497
 6443TIP3    H240821   5.185   1.347  13.214 -0.7831  0.0581  0.6966
 6444TIP3   OH240822   2.985   5.976   1.667 -0.1483  0.1529 -0.1525
 6444TIP3    H140823   3.002   5.885   1.642  0.9267  0.0886  0.7637
 6444TIP3    H240824   3.071   6.013   1.687 -0.4493  1.6793 -1.4283
 6445TIP3   OH240825   6.461   0.517  11.444 -0.1700 -0.7232  0.3835
 6445TIP3    H140826   6.418   0.468  11.514  0.0539 -0.5491  0.6475
 6445TIP3    H240827   6.546   0.541  11.481  0.0210 -0.7752 -0.0113
 6446TIP3   OH240828   0.712   3.599  11.910 -0.6748  0.6216 -0.4304
 6446TIP3    H140829   0.687   3.620  12.000  0.2219 -0.1923  0.0333
 6446TIP3    H240830   0.804   3.622  11.905 -0.6365  0.3460 -1.0383
 6447TIP3   OH240831   0.508   6.599  14.639 -0.1206  0.6528  0.2362
 6447TIP3    H140832   0.537   6.511  14.616  0.2835  0.4959  1.3052
 6447TIP3    H240833   0.439   6.586  14.704 -0.7071  1.1068 -0.2832
 6448TIP3   OH240834   3.630   1.419   5.897  0.0790  0.0473 -0.0863
 6448TIP3    H140835   3.700   1.356   5.876  0.2490  0.3644 -0.4711
 6448TIP3    H240836   3.560   1.398   5.836 -1.3776 -2.2167  2.1775
 6449TIP3   OH240837   4.744   6.256  16.342  0.1262  0.0923 -0.1693
 6449TIP3    H140838   4.822   6.308  16.357  0.4356 -0.1743 -0.8116
 6449TIP3    H240839   4.751   6.228  16.251 -0.8524  0.2894 -0.3175
 6450TIP3   OH240840   6.280   2.668   6.450  0.2387  0.0802  0.9047
 6450TIP3    H140841   6.204   2.695   6.502 -1.5454 -1.9928 -0.4590
 6450TIP3    H240842   6.246   2.657   6.362  1.9888 -1.4707  0.3647
 6451TIP3   OH240843   0.035   4.553   0.917  0.2059 -0.2512  0.3162
 6451TIP3    H140844  -0.060   4.561   0.914  0.1483 -0.8951  0.3879
 6451TIP3    H240845   0.055   4.544   1.010  0.4987  1.6933  0.4903
 6452TIP3   OH240846   0.654   5.339  12.413  0.0457 -0.4344  0.3738
 6452TIP3    H140847   0.632   5.304  12.327  0.3963 -0.6088  0.3514
 6452TIP3    H240848   0.641   5.433  12.405 -1.7419 -0.6245  0.6886
 6453TIP3   OH240849   0.992   1.855  14.108  0.2751 -0.2185 -0.0642
 6453TIP3    H140850   1.065   1.913  14.130  0.6309 -1.3990  2.1560
 6453TIP3    H240851   1.033   1.782  14.061  0.1471  0.2333 -0.8993
 6454TIP3   OH240852   0.897   0.178   1.871  0.1275  0.4393 -0.1573
 6454TIP3    H140853   0.943   0.094   1.874  0.4104  0.5887 -0.3354
 6454TIP3    H240854   0.923   0.217   1.788  2.1779  1.9420  1.0903
 6455TIP3   OH240855   1.024   1.122   5.578 -0.0728  0.4915  0.0042
 6455TIP3    H140856   1.063   1.092   5.496  0.8837  1.4280  0.0987
 6455TIP3    H240857   1.082   1.087   5.646 -1.3032 -0.9663  0.3640
 6456TIP3   OH240858   4.741   3.167   2.695 -0.4262  0.2066 -0.3961
 6456TIP3    H140859   4.834   3.162   2.676 -0.5325  0.2363 -0.9381
 6456TIP3    H240860   4.698   3.144   2.612 -0.8997 -0.8017  0.1110
 6457TIP3   OH240861   6.164   2.725   1.333 -0.2334  0.0323  0.2022
 6457TIP3    H140862   6.118   2.748   1.253  1.1500  1.8568 -0.1461
 6457TIP3    H240863   6.223   2.799   1.349  0.2574 -0.7322  2.3574
 6458TIP3   OH240864   6.565   3.871  12.057 -0.2251  0.1634 -0.5228
 6458TIP3    H140865   6.485   3.890  12.105  0.8160 -1.4050  2.0419
 6458TIP3    H240866   6.541   3.800  11.997 -0.4970 -1.4187  1.3524
 6459TIP3   OH240867   2.432   4.028  15.060 -0.2886  0.2035  0.0309
 6459TIP3    H140868   2.451   3.936  15.078 -1.0670  0.1256  0.4914
 6459TIP3    H240869   2.489   4.051  14.987 -0.3859 -0.7655 -0.3561
 6460TIP3   OH240870   3.477   5.778  13.962 -0.3662 -0.0646  0.3996
 6460TIP3    H140871   3.407   5.719  13.988  0.4518 -1.6954 -0.9172
 6460TIP3    H240872   3.544   5.721  13.923  0.6835  1.6690 -0.4680
 6461TIP3   OH240873   5.384   5.290  15.996  0.1018  0.3668 -0.2758
 6461TIP3    H140874   5.349   5.233  16.064  2.5980 -1.7893 -0.6011
 6461TIP3    H240875   5.422   5.364  16.044  0.0210 -0.0768  0.4893
 6462TIP3   OH240876   1.417   3.422   0.328  0.7377  0.4147 -0.0123
 6462TIP3    H140877   1.431   3.400   0.420  2.1013 -1.2082 -0.5660
 6462TIP3    H240878   1.322   3.411   0.315  0.7426 -0.8879  0.8510
 6463TIP3   OH240879   2.254   2.420  14.773 -0.1114  0.7260 -0.0645
 6463TIP3    H140880   2.311   2.450  14.702  0.5128 -0.7391 -0.2319
 6463TIP3    H240881   2.304   2.350  14.815 -0.8387  0.9954  1.2854
 6464TIP3   OH240882   2.466   6.125   5.448  0.6371 -0.6624  0.4064
 6464TIP3    H140883   2.558   6.151   5.458  0.3600  0.3305  0.4900
 6464TIP3    H240884   2.460   6.093   5.358  1.2787 -1.6996  0.7112
 6465TIP3   OH240885   5.700   3.250  11.514  0.0855  0.3232 -0.0857
 6465TIP3    H140886   5.792   3.266  11.531  0.1807  0.2129 -0.4846
 6465TIP3    H240887   5.699   3.173  11.456 -0.1987  0.9836 -0.9824
 6466TIP3   OH240888   5.666   3.933   1.881  0.0801 -0.2366 -1.0103
 6466TIP3    H140889   5.573   3.957   1.879  0.4343  2.3573  2.8247
 6466TIP3    H240890   5.706   3.984   1.811 -1.0355  0.5748 -1.0759
 6467TIP3   OH240891   0.050   4.198   6.324  0.0024  0.7680  0.0878
 6467TIP3    H140892   0.078   4.184   6.414  0.0179  0.2632  0.0031
 6467TIP3    H240893   0.125   4.241   6.281 -0.1697  1.4253  0.4249
 6468TIP3   OH240894   0.357   5.854  12.235  0.0212  0.2178 -0.9057
 6468TIP3    H140895   0.418   5.875  12.306 -1.6223 -0.5463  0.8220
 6468TIP3    H240896   0.329   5.765  12.254 -2.0338  0.7373 -1.3070
 6469TIP3   OH240897   5.154   2.602   0.227  0.0380 -0.1425 -0.0948
 6469TIP3    H140898   5.150   2.620   0.321  0.7934 -0.6338  0.0482
 6469TIP3    H240899   5.176   2.509   0.221  0.4092 -0.0248 -0.7485
 6470TIP3   OH240900   5.792   1.084  17.164 -0.3456 -0.1891 -0.4767
 6470TIP3    H140901   5.729   1.032  17.214  0.0898  1.5095  2.0576
 6470TIP3    H240902   5.859   1.022  17.137 -0.3005 -1.1508  1.6517
 6471TIP3   OH240903   1.457   0.186  14.427 -0.3067 -0.0232  0.0192
 6471TIP3    H140904   1.381   0.132  14.449  0.2469 -0.5929  0.5710
 6471TIP3    H240905   1.488   0.219  14.511 -0.4920  0.9792 -0.2878
 6472TIP3   OH240906   3.259   5.579   2.057  0.5826  0.0669 -0.3400
 6472TIP3    H140907   3.255   5.625   2.141  3.4840  0.8926 -0.5523
 6472TIP3    H240908   3.264   5.648   1.991 -3.0388 -0.5218 -1.4626
 6473TIP3   OH240909   3.013   2.816   5.209 -0.2770  0.1151 -0.3645
 6473TIP3    H140910   3.077   2.879   5.243 -0.8024 -0.0676  1.0391
 6473TIP3    H240911   3.060   2.768   5.141  0.3748  1.4820 -0.9051
 6474TIP3   OH240912   0.926   3.542   4.135  0.0013 -0.5613 -0.0413
 6474TIP3    H140913   0.882   3.627   4.137 -0.4880 -0.7921  2.4899
 6474TIP3    H240914   0.864   3.485   4.088 -0.6251  0.0282  0.0470
 6475TIP3   OH240915   0.840   6.533  16.924  0.1407 -0.6907  0.2340
 6475TIP3    H140916   0.921   6.583  16.935 -1.0648  1.3011  0.5764
 6475TIP3    H240917   0.815   6.548  16.833 -1.3449  1.2516  0.8793
 6476TIP3   OH240918   5.259   1.564  12.656 -0.1210  0.2156  0.0964
 6476TIP3    H140919   5.177   1.591  12.698 -0.5071 -0.3924 -0.2444
 6476TIP3    H240920   5.328   1.593  12.717 -0.5953  0.5883  0.4634
 6477TIP3   OH240921   0.638   5.418  11.895  0.1546 -0.1647 -0.3079
 6477TIP3    H140922   0.694   5.491  11.868  0.0821  0.6037  1.5032
 6477TIP3    H240923   0.699   5.347  11.916  0.5091  0.6542  1.6190
 6478TIP3   OH240924   5.368   2.377  11.373 -0.2786  0.2125 -0.1696
 6478TIP3    H140925   5.329   2.292  11.394 -0.3513 -0.1034 -1.4744
 6478TIP3    H240926   5.295   2.430  11.342  0.1376 -0.0919 -1.7658
 6479TIP3   OH240927   0.477   2.716   0.699 -0.2515 -0.4442  0.6887
 6479TIP3    H140928   0.506   2.807   0.707  1.2025 -0.9420  1.3084
 6479TIP3    H240929   0.426   2.700   0.779 -0.7075 -0.1187  0.4688
 6480TIP3   OH240930   5.289   2.892  17.224 -0.4477  0.2916  0.0278
 6480TIP3    H140931   5.272   2.816  17.280  0.5950 -0.1134 -0.1869
 6480TIP3    H240932   5.297   2.855  17.136 -0.6687  0.7502 -0.1839
 6481TIP3   OH240933   3.442   5.490   5.821  0.6835  0.1636  0.1139
 6481TIP3    H140934   3.422   5.468   5.912  0.8871 -0.9122 -0.0919
 6481TIP3    H240935   3.358   5.518   5.785  1.0414  3.1542  1.2859
 6482TIP3   OH240936   3.344   1.960   5.948 -0.0676 -0.0895 -0.1347
 6482TIP3    H140937   3.382   2.028   6.004  1.5064 -0.9653 -0.0649
 6482TIP3    H240938   3.380   1.978   5.861  1.4351 -1.5202  0.1255
 6483TIP3   OH240939   2.243   6.501  14.655  0.3920 -0.2455  0.4401
 6483TIP3    H140940   2.152   6.526  14.671  0.5004  0.5283 -0.1273
 6483TIP3    H240941   2.294   6.564  14.704  0.6802  1.0152 -1.4055
 6484TIP3   OH240942   1.360   4.391  16.426 -0.0469  0.0863 -0.4804
 6484TIP3    H140943   1.283   4.446  16.414 -1.4208 -1.7364 -0.5497
 6484TIP3    H240944   1.434   4.450  16.417 -1.3977  1.6647 -1.9124
 6485TIP3   OH240945   2.135   5.579  16.795 -0.7009 -0.4076 -0.4619
 6485TIP3    H140946   2.113   5.606  16.706 -1.6658 -0.3007 -0.2111
 6485TIP3    H240947   2.094   5.493  16.805 -0.3517 -0.5486 -0.2127
 6486TIP3   OH240948   2.112   2.766   0.106 -0.7929  0.5606  0.0577
 6486TIP3    H140949   2.106   2.849   0.153 -1.5481  0.5283  0.0401
 6486TIP3    H240950   2.143   2.703   0.171  0.9215  1.0644 -0.2138
 6487TIP3   OH240951   4.446   6.246  13.050 -0.0894  0.0903  0.6165
 6487TIP3    H140952   4.430   6.152  13.051 -0.0450  0.0829  1.4778
 6487TIP3    H240953   4.394   6.279  12.977  2.4716 -1.0190 -1.8663
 6488TIP3   OH240954   3.695   6.171  11.768  0.1140  0.0809 -0.0928
 6488TIP3    H140955   3.615   6.220  11.789 -0.1821  0.3450 -1.6535
 6488TIP3    H240956   3.668   6.080  11.765  0.1905  0.0265  0.7414
 6489TIP3   OH240957   1.304   6.399   6.300  0.0731 -0.0103  0.5470
 6489TIP3    H140958   1.247   6.383   6.375 -1.0146 -0.0513 -0.2618
 6489TIP3    H240959   1.378   6.341   6.314 -0.8827 -1.2196  0.7825
 6490TIP3   OH240960   1.317   6.202  14.569  0.3171 -0.1525  0.1502
 6490TIP3    H140961   1.272   6.127  14.529 -2.1284  1.0064  0.5185
 6490TIP3    H240962   1.363   6.166  14.644 -0.1278 -1.4060 -0.1560
 6491TIP3   OH240963   2.980   0.803  12.403  0.0843 -0.1454 -0.3891
 6491TIP3    H140964   3.021   0.766  12.325 -0.1966 -1.1838 -0.0567
 6491TIP3    H240965   2.924   0.733  12.437  0.8375 -0.0173  1.2194
 6492TIP3   OH240966   5.833   0.901   4.372  0.2098  0.4740  0.0438
 6492TIP3    H140967   5.739   0.917   4.374  0.1379  0.0407  0.2116
 6492TIP3    H240968   5.843   0.822   4.319  0.4863  0.5787 -0.0602
 6493TIP3   OH240969   4.900   1.158  17.357 -0.3730 -0.1395  0.3645
 6493TIP3    H140970   4.992   1.133  17.350  0.0206  1.0884  0.8702
 6493TIP3    H240971   4.901   1.238  17.410 -1.5532  1.0114 -1.2685
 6494TIP3   OH240972   5.732   3.311  12.382 -0.0954  0.3524 -0.5174
 6494TIP3    H140973   5.699   3.398  12.407  0.0710  0.4733 -0.7121
 6494TIP3    H240974   5.825   3.325  12.368  0.1736 -0.1387  0.7100
 6495TIP3   OH240975   5.600   6.603   4.781  0.2688 -0.5350 -0.0471
 6495TIP3    H140976   5.520   6.623   4.830 -0.5416 -1.3087 -0.9882
 6495TIP3    H240977   5.617   6.681   4.728  1.8050  0.7621  2.2324
 6496TIP3   OH240978   1.114   5.427  11.118 -0.0675  0.1562 -0.2394
 6496TIP3    H140979   1.022   5.424  11.090  0.1700 -0.2295 -0.9861
 6496TIP3    H240980   1.142   5.336  11.116  0.2555  0.2426  0.2641
 6497TIP3   OH240981   3.218   2.923   0.544 -0.1517  0.0991  0.0667
 6497TIP3    H140982   3.293   2.983   0.542 -1.9737  2.6216  1.2726
 6497TIP3    H240983   3.221   2.884   0.631 -0.1408  0.0659  0.0515
 6498TIP3   OH240984   0.904   1.336  13.027 -0.0125 -0.4815 -0.7230
 6498TIP3    H140985   0.915   1.400  13.097  0.0418  0.2685 -1.3952
 6498TIP3    H240986   0.814   1.305  13.036 -0.5276  0.7642 -1.2433
 6499TIP3   OH240987   4.123   0.082   3.356  0.4204  0.4703  0.0076
 6499TIP3    H140988   4.210   0.094   3.396  0.6937  0.7894 -0.6640
 6499TIP3    H240989   4.125  -0.007   3.322  0.5153  0.5018 -0.0719
 6500TIP3   OH240990   0.592   5.748   1.599  0.1229  0.4300 -0.8181
 6500TIP3    H140991   0.581   5.843   1.607 -2.4473  0.4036 -2.9310
 6500TIP3    H240992   0.534   5.712   1.666  1.3505  0.3129  0.2074
 6501TIP3   OH240993   0.658   4.486  13.103 -0.7250  0.1813 -0.0476
 6501TIP3    H140994   0.741   4.443  13.083 -0.3468  0.7036  0.3750
 6501TIP3    H240995   0.679   4.547  13.173 -1.4580  0.3622  0.0217
 6502TIP3   OH240996   0.491   1.918  14.614  0.0097  0.1590  0.2336
 6502TIP3    H140997   0.569   1.972  14.630 -0.4106  0.7082  0.4759
 6502TIP3    H240998   0.425   1.953  14.674 -0.6702  0.2350 -0.5382
 6503TIP3   OH240999   6.198   6.166   2.336  0.0061  0.0393 -0.2035
 6503TIP3    H141000   6.236   6.232   2.394 -1.1009  1.2011 -0.7728
 6503TIP3    H241001   6.144   6.112   2.394  1.9370 -1.2720  0.5088
 6504TIP3   OH241002   3.465   0.194  11.652  0.1113  0.0284  0.3495
 6504TIP3    H141003   3.383   0.170  11.695 -1.2984  1.4850 -1.3625
 6504TIP3    H241004   3.512   0.245  11.718 -1.1727  0.6724  0.8088
 6505TIP3   OH241005   0.442   6.627  13.336 -0.1530 -0.0987  0.0597
 6505TIP3    H141006   0.503   6.615  13.263 -0.6508 -1.9005 -0.0914
 6505TIP3    H241007   0.383   6.697  13.305  1.4634  1.3232  0.0155
 6506TIP3   OH241008   4.771   4.451  15.480  0.3113  0.2903 -0.2295
 6506TIP3    H141009   4.699   4.408  15.526  0.2792  0.8119  0.2227
 6506TIP3    H241010   4.850   4.423  15.527  0.4234 -0.3971 -0.8147
 6507TIP3   OH241011   0.519   2.962   2.597 -1.1450 -0.4517  0.0082
 6507TIP3    H141012   0.477   3.004   2.672 -1.9166 -2.0056  0.4871
 6507TIP3    H241013   0.477   2.877   2.591  0.5996 -1.3066 -0.7071
 6508TIP3   OH241014   3.374   1.611  15.220  0.5982  0.0269 -0.5126
 6508TIP3    H141015   3.382   1.697  15.178 -0.2459 -0.1741 -1.0900
 6508TIP3    H241016   3.334   1.629  15.305  1.6151  0.3447 -0.0832
 6509TIP3   OH241017   3.125   5.663   5.982 -0.2922  0.2736 -0.0406
 6509TIP3    H141018   3.156   5.576   5.956 -1.6703  0.1945 -1.6014
 6509TIP3    H241019   3.044   5.675   5.932 -0.4736  2.1941  0.6426
 6510TIP3   OH241020   3.826   0.169  11.692 -0.6986  0.0542  0.4724
 6510TIP3    H141021   3.787   0.204  11.772  1.3035  0.8049  1.1827
 6510TIP3    H241022   3.824   0.241  11.630  0.2649  0.3889  0.7996
 6511TIP3   OH241023   6.040   4.471   3.122 -0.8067  0.1766 -0.7029
 6511TIP3    H141024   5.967   4.409   3.115 -0.0680 -0.6462 -1.2885
 6511TIP3    H241025   6.103   4.442   3.057  0.3804  0.4366  0.2894
 6512TIP3   OH241026   6.368   5.325  13.872  0.1038 -0.6594 -0.4460
 6512TIP3    H141027   6.450   5.324  13.922 -0.6177 -0.6944  0.7755
 6512TIP3    H241028   6.339   5.234  13.872 -0.8073 -0.3898  0.6499
 6513TIP3   OH241029   3.615   0.640  15.954 -0.3801 -0.0715 -0.3138
 6513TIP3    H141030   3.558   0.627  15.878 -0.5731  1.0026 -0.3648
 6513TIP3    H241031   3.701   0.657  15.917 -0.5858  1.0087 -0.3227
 6514TIP3   OH241032   1.223   0.270  10.625  0.2086  0.2652 -0.4733
 6514TIP3    H141033   1.214   0.330  10.550 -1.6940 -0.3453 -0.7866
 6514TIP3    H241034   1.221   0.327  10.702 -0.8839  0.6999 -0.7970
 6515TIP3   OH241035   6.629   1.750  13.031 -0.5700  0.4105  0.3387
 6515TIP3    H141036   6.642   1.839  13.063  0.6361  0.1384  0.6701
 6515TIP3    H241037   6.556   1.716  13.081 -0.1719  0.7650  1.1769
 6516TIP3   OH241038   2.861   1.905   1.704 -0.0941 -0.0679  0.0639
 6516TIP3    H141039   2.819   1.926   1.621  1.8942 -0.6926 -1.1567
 6516TIP3    H241040   2.862   1.809   1.707 -0.6093 -0.0651  1.1010
 6517TIP3   OH241041   6.674   0.093   2.046 -0.0762 -0.0947  0.1834
 6517TIP3    H141042   6.655   0.010   2.000  0.6170 -0.3343  0.3254
 6517TIP3    H241043   6.634   0.082   2.132  0.1330 -0.3440  0.2519
 6518TIP3   OH241044   0.816   4.110   1.498 -0.2431 -0.2050 -0.4119
 6518TIP3    H141045   0.756   4.036   1.510 -1.7604  0.9489 -0.5488
 6518TIP3    H241046   0.808   4.133   1.406  0.4032 -0.0146 -0.4270
 6519TIP3   OH241047   3.830   4.205  13.725 -0.5814 -0.0272 -0.3521
 6519TIP3    H141048   3.860   4.138  13.785  0.1363  0.0176 -0.6532
 6519TIP3    H241049   3.743   4.175  13.697  0.7165 -2.1838 -2.4406
 6520TIP3   OH241050   1.827   4.239   6.101  0.0405 -0.1890  0.8314
 6520TIP3    H141051   1.828   4.158   6.153  0.2087 -2.1888 -2.0494
 6520TIP3    H241052   1.755   4.290   6.138 -1.0862 -2.3594  1.8223
 6521TIP3   OH241053   3.487   0.308  14.798  0.0916  0.4728  0.4396
 6521TIP3    H141054   3.571   0.263  14.784 -0.8073 -1.3348  0.5883
 6521TIP3    H241055   3.421   0.240  14.785 -1.3301  1.6545  1.2016
 6522TIP3   OH241056   4.664   2.620   2.642  0.5102  0.0106  0.2106
 6522TIP3    H141057   4.664   2.712   2.617  2.1946 -0.0596 -0.2045
 6522TIP3    H241058   4.715   2.617   2.723  0.8274 -0.6003 -0.0007
 6523TIP3   OH241059   2.949   5.028   2.298  0.0895  0.0750 -0.4441
 6523TIP3    H141060   2.989   5.115   2.293 -0.5996  0.3827 -0.5948
 6523TIP3    H241061   3.009   4.972   2.248  0.9244  0.3069  0.2664
 6524TIP3   OH241062   1.148   0.149  11.490  0.0490 -0.2626 -0.1619
 6524TIP3    H141063   1.096   0.081  11.446 -2.9430 -0.3472  2.9937
 6524TIP3    H241064   1.200   0.101  11.555 -1.9529  0.2459  1.9683
 6525TIP3   OH241065   6.105   6.565   6.739 -0.7599  0.1266  0.0246
 6525TIP3    H141066   6.151   6.502   6.685 -0.3848  1.0864 -0.7979
 6525TIP3    H241067   6.016   6.568   6.703 -0.6040  0.5186 -0.3316
 6526TIP3   OH241068   0.187   1.622  15.532  0.4104 -0.2305 -0.1805
 6526TIP3    H141069   0.229   1.590  15.612  0.5860  2.6062  1.0047
 6526TIP3    H241070   0.231   1.576  15.461 -0.0131 -3.1442  1.3007
 6527TIP3   OH241071   6.610   4.420   5.088 -0.2062 -0.3688  0.5115
 6527TIP3    H141072   6.638   4.494   5.035  0.6331 -1.0774 -0.0715
 6527TIP3    H241073   6.691   4.383   5.122 -0.7135 -0.0767  2.1187
 6528TIP3   OH241074   0.242   3.652   0.042  0.4079 -0.4439 -0.0340
 6528TIP3    H141075   0.159   3.622   0.003 -0.2936  0.0324  1.0298
 6528TIP3    H241076   0.219   3.671   0.133  1.0140  2.3274 -0.3698
 6529TIP3   OH241077   4.940   4.878  15.051  0.0843 -0.1227 -0.4547
 6529TIP3    H141078   5.031   4.883  15.020  0.2811 -0.7690 -0.0147
 6529TIP3    H241079   4.892   4.938  14.995  0.7587  0.1016 -0.8051
 6530TIP3   OH241080   0.573   1.486   5.083  0.0671 -0.0224 -0.2209
 6530TIP3    H141081   0.555   1.473   5.176  2.0263 -2.9359 -0.1183
 6530TIP3    H241082   0.493   1.459   5.039 -0.7298  0.9788  0.5608
 6531TIP3   OH241083   5.078   4.504   0.386 -0.0528  0.0381  0.4611
 6531TIP3    H141084   5.016   4.575   0.375  0.6537  0.9085  1.9018
 6531TIP3    H241085   5.128   4.503   0.304  0.4936  1.7757  0.7437
 6532TIP3   OH241086   3.670   5.540  11.530  0.4847 -0.1197  0.1902
 6532TIP3    H141087   3.674   5.476  11.601 -0.6476 -1.8324 -1.1977
 6532TIP3    H241088   3.578   5.539  11.502  0.6627  1.3751 -0.5306
 6533TIP3   OH241089   5.418   3.447   3.271 -0.4910  0.4876 -0.2092
 6533TIP3    H141090   5.386   3.358   3.286 -0.0256  0.4276  0.4908
 6533TIP3    H241091   5.346   3.491   3.225 -1.1938  0.0764  0.4571
 6534TIP3   OH241092   4.475   6.075   2.615  0.1708 -0.3465  0.3224
 6534TIP3    H141093   4.404   6.052   2.555 -0.2027 -0.7678  0.9162
 6534TIP3    H241094   4.551   6.029   2.581 -0.0964 -0.7892  0.3207
 6535TIP3   OH241095   6.095   2.218   5.890 -0.3501 -0.3411 -0.7979
 6535TIP3    H141096   6.147   2.252   5.817  0.0559  0.1880 -0.2760
 6535TIP3    H241097   6.126   2.267   5.966 -2.2074  0.6126 -0.5904
 6536TIP3   OH241098   5.421   5.306  13.765  0.0844  0.5655  0.3901
 6536TIP3    H141099   5.482   5.308  13.692  0.3301 -2.0895  0.4262
 6536TIP3    H241100   5.476   5.288  13.842 -0.4097  1.1341  0.8817
 6537TIP3   OH241101   3.711   0.032  16.275  0.1631 -0.6653 -0.6472
 6537TIP3    H141102   3.668   0.018  16.191  1.5980 -1.1889 -1.3175
 6537TIP3    H241103   3.803   0.046  16.254  0.2605  1.0483  0.7032
 6538TIP3   OH241104   1.768   4.998   2.505  0.3782  0.3499 -0.2096
 6538TIP3    H141105   1.783   5.078   2.556 -1.3780  0.4257  0.2267
 6538TIP3    H241106   1.784   4.927   2.568  0.4417  0.3848 -0.1853
 6539TIP3   OH241107   0.901   3.758   0.004  0.5125  0.2366  0.2604
 6539TIP3    H141108   0.986   3.729  -0.029 -0.2583 -0.2409 -1.4116
 6539TIP3    H241109   0.908   3.751   0.099  1.8016 -1.3341  0.0865
 6540TIP3   OH241110   4.716   5.408  15.719 -0.6138 -0.1868 -0.5977
 6540TIP3    H141111   4.735   5.494  15.756 -1.0362 -0.7342  0.9760
 6540TIP3    H241112   4.681   5.426  15.632 -0.5503  1.2141 -0.3568
 6541TIP3   OH241113   4.529   3.098   5.400 -0.2413 -0.0523 -0.0802
 6541TIP3    H141114   4.509   3.140   5.317 -1.9966 -2.9155 -1.2269
 6541TIP3    H241115   4.469   3.138   5.463  0.0149  1.0179 -0.5002
 6542TIP3   OH241116   2.281   1.954  16.243  0.2444 -0.2894  0.0866
 6542TIP3    H141117   2.321   2.005  16.313  1.9676  1.6518 -2.1464
 6542TIP3    H241118   2.218   2.013  16.202  2.1439  0.1833 -2.4453
 6543TIP3   OH241119   4.402   4.392  11.608  0.2799  0.3873 -0.1517
 6543TIP3    H141120   4.330   4.333  11.587  0.3014 -0.5522  2.1093
 6543TIP3    H241121   4.393   4.409  11.702  2.8495  0.4243  0.1676
 6544TIP3   OH241122   0.493   2.761  12.957  0.6809  0.1450 -0.7261
 6544TIP3    H141123   0.411   2.807  12.977  1.4664  1.5796 -0.7081
 6544TIP3    H241124   0.562   2.823  12.979  1.7322 -0.2214 -2.7641
 6545TIP3   OH241125   5.737   5.605  16.722  0.2028  0.6367  0.6990
 6545TIP3    H141126   5.832   5.601  16.716  0.2974 -0.0841  2.1768
 6545TIP3    H241127   5.720   5.616  16.816 -1.2038 -0.8118  0.6389
 6546TIP3   OH241128   5.574   0.304  15.516  0.2650  0.2845  0.3806
 6546TIP3    H141129   5.605   0.247  15.587 -0.6293 -1.2875 -0.4236
 6546TIP3    H241130   5.576   0.248  15.438 -2.7631  0.6212 -0.0474
 6547TIP3   OH241131   4.152   4.474   1.424  0.2914  0.3794  0.2130
 6547TIP3    H141132   4.109   4.486   1.509  1.6234  0.7244  0.8571
 6547TIP3    H241133   4.244   4.494   1.441  0.6753 -0.1389 -1.1842
 6548TIP3   OH241134   3.694   4.071  14.873  0.2188 -0.4138  0.2184
 6548TIP3    H141135   3.766   4.130  14.895  1.4387 -2.0258  0.7118
 6548TIP3    H241136   3.618   4.107  14.918  0.7469  1.1863 -0.1178
 6549TIP3   OH241137   0.854   4.345  11.477 -0.2249 -0.2958 -1.2322
 6549TIP3    H141138   0.945   4.316  11.469 -0.6129 -1.8784 -0.3381
 6549TIP3    H241139   0.806   4.290  11.415 -0.6979 -0.0524 -1.0888
 6550TIP3   OH241140   0.458   0.980   3.220  0.4340  0.2139  0.2446
 6550TIP3    H141141   0.465   0.960   3.127 -0.7395 -0.4473  0.2807
 6550TIP3    H241142   0.422   0.900   3.259 -1.3406  1.2635  0.8902
 6551TIP3   OH241143   2.104   0.867  15.016 -0.1733 -0.3850  0.1998
 6551TIP3    H141144   2.067   0.954  15.032 -0.8461 -0.5014 -0.6486
 6551TIP3    H241145   2.124   0.833  15.103 -1.0702  0.1081  0.6149
 6552TIP3   OH241146   6.684   1.723   0.774 -0.2434  0.5429  0.1063
 6552TIP3    H141147   6.665   1.755   0.686 -1.8745 -1.0090 -0.1559
 6552TIP3    H241148   6.652   1.632   0.774  1.9432 -0.3150  1.5514
 6553TIP3   OH241149   6.502   1.501  12.928  0.1939 -0.3340  0.3604
 6553TIP3    H141150   6.572   1.544  12.879 -0.6110  0.5512 -0.0447
 6553TIP3    H241151   6.433   1.566  12.934 -0.3076 -0.9305  1.4241
 6554TIP3   OH241152   2.063   1.226   4.050 -1.2113 -0.3191  0.0808
 6554TIP3    H141153   2.019   1.146   4.081 -1.0813 -0.4609 -0.1013
 6554TIP3    H241154   2.095   1.204   3.963  1.3296 -1.0530  1.1052
 6555TIP3   OH241155   5.776   5.289   1.199  0.1627  0.1932 -0.2063
 6555TIP3    H141156   5.839   5.361   1.192  1.7761 -0.8682  1.9808
 6555TIP3    H241157   5.762   5.261   1.109  0.9783  1.9821 -0.9497
 6556TIP3   OH241158   6.345   3.106   2.776 -0.7460  0.5694  0.4224
 6556TIP3    H141159   6.271   3.056   2.740  0.4828 -0.9832 -0.0553
 6556TIP3    H241160   6.314   3.136   2.862 -1.2855 -1.7723  1.1224
 6557TIP3   OH241161   1.588   1.815   0.485 -0.1831 -0.0384  0.3116
 6557TIP3    H141162   1.542   1.731   0.473  0.7926 -0.7680  1.4190
 6557TIP3    H241163   1.677   1.798   0.454 -0.2013  0.8607 -0.2582
 6558TIP3   OH241164   0.620   2.759  14.167 -0.6735 -0.2640  0.3468
 6558TIP3    H141165   0.623   2.808  14.249  1.2682  4.9381 -2.3742
 6558TIP3    H241166   0.710   2.729  14.153 -0.5880  0.3802 -0.5957
 6559TIP3   OH241167   0.818   1.612   0.205 -0.6511 -0.1624  0.1283
 6559TIP3    H141168   0.852   1.579   0.288  1.2987  2.3335  0.4414
 6559TIP3    H241169   0.733   1.569   0.195  0.7718 -3.5987  1.3611
 6560TIP3   OH241170   0.867   0.711   3.415  0.3654  0.0875  0.2357
 6560TIP3    H141171   0.786   0.761   3.428  0.4487 -0.3461  3.0186
 6560TIP3    H241172   0.929   0.776   3.383 -0.5148  0.9096  0.1170
 6561TIP3   OH241173   6.564   6.718  14.585  0.0155 -0.3017  0.1706
 6561TIP3    H141174   6.628   6.757  14.526  1.9480 -0.4442  2.0414
 6561TIP3    H241175   6.479   6.752  14.555  0.9106 -0.1731 -2.4491
 6562TIP3   OH241176   4.568   0.015   2.788  0.3329  0.5002  0.1190
 6562TIP3    H141177   4.539  -0.056   2.845  1.5581  0.0987  0.2771
 6562TIP3    H241178   4.642  -0.021   2.740 -0.2357  1.0562 -1.2496
 6563TIP3   OH241179   1.004   2.384   1.804  0.3970  0.4548 -0.1835
 6563TIP3    H141180   1.001   2.432   1.721 -0.1098 -0.5764 -0.7849
 6563TIP3    H241181   1.027   2.450   1.869  1.4724  1.1600 -1.2347
 6564TIP3   OH241182   1.204   3.713  16.616 -0.0733 -0.0013 -0.4767
 6564TIP3    H141183   1.287   3.713  16.569 -0.1488 -0.8802 -0.6169
 6564TIP3    H241184   1.172   3.803  16.609  0.5069  0.1591 -1.0598
 6565TIP3   OH241185   2.544   1.180  11.630 -0.0688  0.1091  0.3308
 6565TIP3    H141186   2.624   1.173  11.683  2.1142  2.1328 -2.3925
 6565TIP3    H241187   2.493   1.249  11.672  0.2650 -0.2344  1.3317
 6566TIP3   OH241188   4.477   2.804   4.473 -1.0637  0.4030 -0.2478
 6566TIP3    H141189   4.439   2.892   4.469 -0.5248  0.6013 -3.0364
 6566TIP3    H241190   4.520   2.793   4.388 -1.1525 -2.5860  0.0050
 6567TIP3   OH241191   3.601   2.944   2.716 -0.3908  0.4530  0.0065
 6567TIP3    H141192   3.506   2.950   2.723 -0.2975  2.0635  0.1319
 6567TIP3    H241193   3.618   2.850   2.716 -1.9228  0.1315  0.7176
 6568TIP3   OH241194   5.883   4.696  16.666 -0.5783  0.7553 -0.4248
 6568TIP3    H141195   5.790   4.712  16.686 -0.1380  0.6580  2.1426
 6568TIP3    H241196   5.896   4.732  16.579 -2.4279  3.2071  0.2009
 6569TIP3   OH241197   1.849   2.872   4.045 -0.0880 -0.1102 -0.0039
 6569TIP3    H141198   1.837   2.950   3.991 -0.4340  0.3835  0.7679
 6569TIP3    H241199   1.936   2.883   4.084 -0.3316  0.1287  0.4778
 6570TIP3   OH241200   1.985   4.332  14.046 -0.0957  0.2852  0.1762
 6570TIP3    H141201   1.972   4.381  13.965 -1.6147  0.2938  0.4077
 6570TIP3    H241202   2.014   4.245  14.018  0.7246  0.7015 -0.3022
 6571TIP3   OH241203   4.112   3.136   6.633  0.2301 -0.0717 -0.3161
 6571TIP3    H141204   4.076   3.213   6.677  0.8851 -0.6122  1.2631
 6571TIP3    H241205   4.046   3.111   6.568  0.8277  2.9218 -2.2716
 6572TIP3   OH241206   3.079   6.236   1.202  0.3492  0.1102 -0.5585
 6572TIP3    H141207   3.133   6.302   1.158 -0.5922  0.6804 -0.8758
 6572TIP3    H241208   3.013   6.212   1.137 -1.2077  1.1274  0.5939
 6573TIP3   OH241209   1.916   6.085  13.050  0.8163 -0.3136  0.7917
 6573TIP3    H141210   1.875   6.118  13.130 -0.0340  0.7308 -0.0455
 6573TIP3    H241211   2.009   6.105  13.061  0.4667  1.4608  0.7680
 6574TIP3   OH241212   1.580   0.072   6.096  0.1520 -0.5684  0.2385
 6574TIP3    H141213   1.639   0.015   6.145  0.8655  0.0592  0.1280
 6574TIP3    H241214   1.596   0.159   6.130 -1.2900 -0.4727  0.7450
 6575TIP3   OH241215   0.261   6.766   2.630  0.4606 -0.0323  0.1077
 6575TIP3    H141216   0.339   6.739   2.678 -0.4474  0.9102  2.2664
 6575TIP3    H241217   0.212   6.819   2.693 -2.4847 -1.5198 -0.7431
 6576TIP3   OH241218   0.086   5.224  17.208  0.3357 -0.1262  0.0458
 6576TIP3    H141219   0.178   5.238  17.232  0.5836 -2.2340  0.4714
 6576TIP3    H241220   0.062   5.142  17.250 -2.3824  1.3476  1.5953
 6577TIP3   OH241221   0.348   3.710  11.695 -0.3354 -0.5433  0.3104
 6577TIP3    H141222   0.391   3.795  11.695 -0.6907 -0.3508 -0.7986
 6577TIP3    H241223   0.315   3.700  11.784 -0.4052  0.5355  0.4222
 6578TIP3   OH241224   3.094   5.152   0.364 -0.2241  0.4230 -0.1150
 6578TIP3    H141225   3.078   5.077   0.307 -0.5426  1.3184 -1.2473
 6578TIP3    H241226   3.018   5.209   0.351 -0.6033  0.4090  1.6583
 6579TIP3   OH241227   3.068   2.956   2.638  0.4948 -0.7411  0.1646
 6579TIP3    H141228   3.136   2.924   2.580  0.8133  0.3086 -0.0557
 6579TIP3    H241229   3.114   2.984   2.717  0.2436 -0.6823  0.2924
 6580TIP3   OH241230   6.108   5.546  15.596  0.6112  0.3694  0.9762
 6580TIP3    H141231   6.093   5.565  15.688  1.1917 -0.7922  1.3250
 6580TIP3    H241232   6.047   5.475  15.576  0.9049  0.2121  0.6238
 6581TIP3   OH241233   1.016   6.755  17.278  0.4877  0.4926 -0.0342
 6581TIP3    H141234   1.105   6.727  17.257  1.2816  3.1940 -0.6528
 6581TIP3    H241235   1.027   6.823  17.345 -1.2054  0.1661  0.6273
 6582TIP3   OH241236   1.584   2.836  10.846  0.2526 -0.3654  0.0135
 6582TIP3    H141237   1.546   2.804  10.765 -0.1951  1.1713 -0.4243
 6582TIP3    H241238   1.627   2.918  10.822  0.0727  0.1469  1.3302
 6583TIP3   OH241239   3.101   1.298   1.557 -0.4890  0.5273 -0.4222
 6583TIP3    H141240   3.138   1.350   1.486  0.1299 -0.0481 -0.5291
 6583TIP3    H241241   3.077   1.215   1.516 -0.9588  0.5159 -0.1383
 6584TIP3   OH241242   3.784   2.473  14.038 -0.5998 -0.0484  0.2584
 6584TIP3    H141243   3.763   2.531  13.964 -0.0233  0.8440  0.7753
 6584TIP3    H241244   3.867   2.506  14.071 -1.7061  0.7189  2.4516
 6585TIP3   OH241245   4.074   5.922  12.490 -0.7039  0.7548  0.7726
 6585TIP3    H141246   4.112   5.852  12.437  0.9146 -0.6444  3.5087
 6585TIP3    H241247   4.016   5.970  12.431 -1.1116 -2.2873 -1.4931
 6586TIP3   OH241248   4.346   4.549  12.793 -0.1794  0.5512  0.0970
 6586TIP3    H141249   4.416   4.532  12.857 -0.2323  1.6375  0.4650
 6586TIP3    H241250   4.387   4.532  12.708  0.2375  0.2318  0.3560
 6587TIP3   OH241251   2.405   3.395  15.732 -0.2045 -0.2083 -0.0250
 6587TIP3    H141252   2.469   3.387  15.662 -0.4060  1.3110 -0.4343
 6587TIP3    H241253   2.326   3.429  15.688 -1.2524 -1.8609  0.4880
 6588TIP3   OH241254   3.890   3.785  11.280  0.6836  0.2173 -0.0229
 6588TIP3    H141255   3.918   3.806  11.369  0.5993  1.2069 -0.2204
 6588TIP3    H241256   3.893   3.689  11.276 -0.6220  0.0739  1.4587
 6589TIP3   OH241257   1.032   6.735  16.942  0.6995 -0.1410  0.2406
 6589TIP3    H141258   1.086   6.757  17.018 -1.0982  0.6274  1.3600
 6589TIP3    H241259   0.959   6.797  16.945 -0.2566 -1.1280 -1.1995
 6590TIP3   OH241260   1.370   4.145   1.501  0.3676 -0.0826  0.8081
 6590TIP3    H141261   1.299   4.084   1.479 -0.2934  1.4500 -1.7501
 6590TIP3    H241262   1.409   4.167   1.416  3.2321  0.0159  2.0301
 6591TIP3   OH241263   1.922   6.427   0.359 -0.2262 -0.0490  0.6484
 6591TIP3    H141264   1.979   6.442   0.434  2.0415 -0.1891 -0.9459
 6591TIP3    H241265   1.957   6.348   0.318 -0.7072  0.6221 -1.1393
 6592TIP3   OH241266   0.300   4.036   5.679 -0.5404 -0.9037  0.2098
 6592TIP3    H141267   0.329   3.954   5.719 -0.7094 -1.0959 -0.0554
 6592TIP3    H241268   0.352   4.103   5.722  0.2517 -1.2344 -0.2015
 6593TIP3   OH241269   2.877   4.853   2.876  0.2949  0.2738  0.3605
 6593TIP3    H141270   2.878   4.948   2.888 -2.3691  0.6037 -1.2083
 6593TIP3    H241271   2.917   4.840   2.790 -2.2250  0.3861 -0.9123
 6594TIP3   OH241272   6.196   0.736  15.533  0.7719 -0.4011  0.1197
 6594TIP3    H141273   6.118   0.731  15.590  1.5509  2.4538  1.6344
 6594TIP3    H241274   6.268   0.709  15.590  1.1062 -1.4761 -0.7950
 6595TIP3   OH241275   0.082   6.763   1.192  0.0447 -0.2921 -0.7427
 6595TIP3    H141276   0.073   6.834   1.128 -0.0048  0.0953 -0.3046
 6595TIP3    H241277   0.171   6.772   1.225  0.3527 -0.9978 -1.3478
 6596TIP3   OH241278   1.448   5.730  15.280  0.0784 -0.0987 -0.0838
 6596TIP3    H141279   1.535   5.760  15.254  0.3871 -0.6691  0.2758
 6596TIP3    H241280   1.458   5.637  15.297 -0.8279 -0.3921 -1.0102
 6597TIP3   OH241281   6.760   1.210   5.739 -0.4567  0.0098 -0.1160
 6597TIP3    H141282   6.714   1.200   5.823  1.8598 -2.4420  1.0454
 6597TIP3    H241283   6.820   1.135   5.737  1.1716  1.2558 -2.9658
 6598TIP3   OH241284   5.059   4.658  13.990 -0.0027 -0.2861  0.2946
 6598TIP3    H141285   4.995   4.717  13.950  0.1913 -0.0609  0.3178
 6598TIP3    H241286   5.141   4.676  13.944  0.3747  0.4383  1.2264
 6599TIP3   OH241287   1.773   1.146  14.898  0.3621 -0.1546  0.0539
 6599TIP3    H141288   1.830   1.093  14.954  0.5425  1.9817  2.0876
 6599TIP3    H241289   1.686   1.107  14.908  0.6900 -0.7731  0.5600
 6600TIP3   OH241290   3.490   3.743   1.947 -0.0285  0.2168  0.0711
 6600TIP3    H141291   3.485   3.752   2.043  2.9735 -2.4397  0.6282
 6600TIP3    H241292   3.558   3.805   1.921 -1.0718  1.1759 -0.4450
 6601TIP3   OH241293   0.944   4.128   0.886  0.6040  0.3036 -0.0493
 6601TIP3    H141294   0.866   4.183   0.896  0.3365 -0.2327  1.0035
 6601TIP3    H241295   0.917   4.057   0.827  0.2178 -0.0041  0.4915
 6602TIP3   OH241296   5.928   3.555  13.810 -0.3558  0.1641 -0.4090
 6602TIP3    H141297   5.841   3.565  13.847 -0.5625  1.9740 -1.2647
 6602TIP3    H241298   5.978   3.629  13.846 -0.1942  1.1920 -2.5872
 6603TIP3   OH241299   4.904   6.142  17.094  0.0169  0.1665  0.2491
 6603TIP3    H141300   4.908   6.070  17.032  1.2486 -1.1912  1.8072
 6603TIP3    H241301   4.812   6.147  17.120 -0.0790 -0.8527  0.1149
 6604TIP3   OH241302   3.955   1.992   3.096  0.4503  0.0755 -0.2104
 6604TIP3    H141303   3.973   2.077   3.136  0.1879 -0.0136  0.1030
 6604TIP3    H241304   3.936   2.012   3.004 -0.6945  0.4823  0.0999
 6605TIP3   OH241305   0.462   6.271   1.055 -0.0417 -0.5484  0.4427
 6605TIP3    H141306   0.376   6.258   1.016  0.6459 -2.2546 -0.6107
 6605TIP3    H241307   0.445   6.310   1.141 -1.7397  0.9404 -0.4994
 6606TIP3   OH241308   5.106   0.334  13.320 -0.3456  0.4804  0.4414
 6606TIP3    H141309   5.190   0.289  13.308 -0.5210  0.1739  0.3664
 6606TIP3    H241310   5.058   0.317  13.238 -0.3462  0.9407  0.3460
 6607TIP3   OH241311   1.054   1.368  11.692 -0.6224 -0.1752 -0.1952
 6607TIP3    H141312   1.115   1.416  11.747 -2.4650  0.6170  1.2426
 6607TIP3    H241313   1.104   1.348  11.613  1.2885  0.9539  0.6610
 6608TIP3   OH241314   5.370   0.317   3.744  0.3370  0.0691 -0.1384
 6608TIP3    H141315   5.438   0.275   3.692  1.7656  1.0849  0.8418
 6608TIP3    H241316   5.372   0.271   3.828  1.6338  1.7183  0.7970
 6609TIP3   OH241317   0.743   5.701  14.887  0.5413  0.9264  0.1427
 6609TIP3    H141318   0.716   5.681  14.976 -2.0878  0.4608 -0.6814
 6609TIP3    H241319   0.773   5.618  14.851  1.7040  1.1355  0.5875
 6610TIP3   OH241320   3.805   4.005  11.155  0.1188  0.4738 -0.2342
 6610TIP3    H141321   3.839   3.922  11.190  1.2229  0.2185 -1.7510
 6610TIP3    H241322   3.712   3.989  11.139 -0.0764  0.1376  1.1417
 6611TIP3   OH241323   2.312   2.302   4.563  0.2093  0.5064 -0.3695
 6611TIP3    H141324   2.301   2.350   4.481  2.2503  0.9117 -0.4565
 6611TIP3    H241325   2.374   2.355   4.613  0.8371 -0.9435  0.4273
 6612TIP3   OH241326   2.497   5.161   4.499  0.8226 -0.1209 -0.1646
 6612TIP3    H141327   2.453   5.180   4.416 -0.1109  0.3366  0.4042
 6612TIP3    H241328   2.562   5.231   4.508 -1.3875  1.9434  1.0670
 6613TIP3   OH241329   5.389   0.631  14.168 -0.1721  0.2112  0.2940
 6613TIP3    H141330   5.440   0.559  14.130  1.1393  0.7088  1.0747
 6613TIP3    H241331   5.414   0.708  14.116 -1.6394  0.1237 -0.5977
 6614TIP3   OH241332   5.325   5.745   5.915  0.0417 -0.0147 -0.1950
 6614TIP3    H141333   5.408   5.721   5.956  0.2723  1.2352  0.1010
 6614TIP3    H241334   5.336   5.838   5.892 -0.0183 -0.6566 -3.2043
 6615TIP3   OH241335   4.501   3.724  11.192 -0.0241  0.9088 -0.0495
 6615TIP3    H141336   4.507   3.745  11.098  0.6355 -0.2882 -0.3007
 6615TIP3    H241337   4.460   3.637  11.194 -0.9922  1.3698  0.8388
 6616TIP3   OH241338   0.923   0.790  12.494 -0.2119 -0.2323  0.3515
 6616TIP3    H141339   0.928   0.698  12.521  0.9043 -0.2818  0.0328
 6616TIP3    H241340   0.854   0.791  12.427 -0.1428 -0.8697  0.2580
 6617TIP3   OH241341   6.036   5.661  13.317  0.4228  0.2222 -0.2052
 6617TIP3    H141342   5.945   5.655  13.288  0.0178  0.2959  1.0230
 6617TIP3    H241343   6.034   5.719  13.392  1.2348 -1.1070  0.8922
 6618TIP3   OH241344   3.433   1.658  14.305 -0.0546  0.2323  0.5627
 6618TIP3    H141345   3.369   1.587  14.309  0.5940 -0.5467 -1.4737
 6618TIP3    H241346   3.430   1.689  14.214  1.7143  0.8538  0.6601
 6619TIP3   OH241347   4.834   1.846  16.205 -0.2876  0.2964 -0.2969
 6619TIP3    H141348   4.915   1.825  16.158 -0.6372  0.0927 -0.8263
 6619TIP3    H241349   4.792   1.913  16.150 -0.5154  0.3388 -0.0723
 6620TIP3   OH241350   4.147   2.978  16.735  0.4231 -0.1422  0.6434
 6620TIP3    H141351   4.183   3.034  16.666  0.5245 -0.4552  0.4392
 6620TIP3    H241352   4.197   3.001  16.813 -0.1817  0.7349  0.7879
 6621TIP3   OH241353   3.718   3.698   2.918 -0.6749  0.0040 -0.5572
 6621TIP3    H141354   3.725   3.606   2.940  1.6920 -0.0061 -1.0203
 6621TIP3    H241355   3.708   3.742   3.002  0.3042 -0.5619 -0.1245
 6622TIP3   OH241356   6.018   1.108   2.337 -0.0689  0.5434  0.4314
 6622TIP3    H141357   6.109   1.138   2.333  0.5404 -1.3434 -0.8647
 6622TIP3    H241358   6.020   1.036   2.400 -0.5318  0.0860 -0.0701
 6623TIP3   OH241359   6.419   6.447   5.398 -0.3532  0.0395  0.2527
 6623TIP3    H141360   6.489   6.389   5.427 -1.7489 -2.0430 -0.2655
 6623TIP3    H241361   6.355   6.445   5.469 -1.5628 -1.1633 -0.8163
 6624TIP3   OH241362   2.064   6.154   5.455 -0.1427  0.4325  0.2162
 6624TIP3    H141363   2.092   6.240   5.485  0.0614  0.5571 -0.3044
 6624TIP3    H241364   1.993   6.129   5.513  0.5136  0.4714  1.0605
 6625TIP3   OH241365   6.139   2.505   4.561 -0.1171  0.1757 -0.6981
 6625TIP3    H141366   6.218   2.535   4.515 -0.6409 -0.9150 -2.4020
 6625TIP3    H241367   6.167   2.427   4.608  0.1104  0.5249 -0.2502
 6626TIP3   OH241368   2.407   1.093  16.987 -0.0320  0.0079  0.1507
 6626TIP3    H141369   2.334   1.074  16.928 -0.7991 -0.8271  1.3530
 6626TIP3    H241370   2.473   1.132  16.929 -0.8739 -0.4895 -1.2082
 6627TIP3   OH241371   6.467   4.711  11.880 -0.1137 -0.2805  0.2387
 6627TIP3    H141372   6.547   4.697  11.931  0.8762 -1.1567 -1.4430
 6627TIP3    H241373   6.402   4.656  11.923 -0.1449  1.2120  2.2373
 6628TIP3   OH241374   3.101   6.406   5.140  0.2738 -0.1235 -0.2536
 6628TIP3    H141375   3.147   6.322   5.143  1.1792  0.3809  0.9243
 6628TIP3    H241376   3.168   6.471   5.161 -0.9388  0.6500  1.4927
 6629TIP3   OH241377   4.796   5.325  16.129 -0.4632 -0.3764 -0.3876
 6629TIP3    H141378   4.805   5.295  16.220 -0.7574 -2.8204 -1.0980
 6629TIP3    H241379   4.780   5.419  16.137  0.5830 -0.3119  2.0234
 6630TIP3   OH241380   5.451   1.577  13.295 -0.0810  0.7435  0.5796
 6630TIP3    H141381   5.397   1.498  13.301  0.4449  0.3727  0.4583
 6630TIP3    H241382   5.393   1.647  13.324 -0.9002  0.4737 -0.3478
 6631TIP3   OH241383   4.709   4.934  14.117  0.2394  0.0876  0.2074
 6631TIP3    H141384   4.733   4.866  14.179 -0.1258 -0.0508  0.1965
 6631TIP3    H241385   4.752   4.908  14.035 -1.0558 -0.9078 -0.1905
 6632TIP3   OH241386   0.618   2.740   0.279  0.5380 -0.1053  0.4867
 6632TIP3    H141387   0.679   2.803   0.318  0.1153  0.8694 -0.3886
 6632TIP3    H241388   0.655   2.720   0.193 -1.3105  2.0405 -0.9217
 6633TIP3   OH241389   3.020   2.647  16.614 -0.1892 -0.3499 -0.1510
 6633TIP3    H141390   3.076   2.571  16.626  0.0607 -0.2437 -0.6530
 6633TIP3    H241391   2.950   2.635  16.679  1.2268  0.3074  1.5876
 6634TIP3   OH241392   5.496   0.515   2.987  0.3155 -0.3592 -0.4005
 6634TIP3    H141393   5.549   0.570   2.929  1.0259  0.7813  1.2506
 6634TIP3    H241394   5.559   0.477   3.048 -0.6975  1.1581  1.7129
 6635TIP3   OH241395   3.011   3.358   6.051  0.5228  0.0140  0.4594
 6635TIP3    H141396   3.049   3.349   6.138  0.2236 -0.1689  0.5721
 6635TIP3    H241397   3.017   3.452   6.031 -1.7270  0.5012  1.7472
 6636TIP3   OH241398   5.938   5.001  14.404 -0.2045  0.2648 -0.1636
 6636TIP3    H141399   5.981   5.067  14.351 -0.1034  0.6822  0.4250
 6636TIP3    H241400   5.929   5.041  14.490  0.1724 -0.6024  0.3043
 6637TIP3   OH241401   2.389   4.430  11.525 -0.0106  0.0488  0.4466
 6637TIP3    H141402   2.327   4.372  11.482  0.0541  0.1115  0.2695
 6637TIP3    H241403   2.429   4.376  11.593 -1.5872  0.4992  1.8202
 6638TIP3   OH241404   1.171   3.935   2.924 -0.0384 -0.0143 -0.5418
 6638TIP3    H141405   1.254   3.899   2.952  0.4763  0.1167 -1.8372
 6638TIP3    H241406   1.193   3.996   2.853 -1.3889 -1.6630 -2.5052
 6639TIP3   OH241407   5.599   2.639   1.076 -0.1273 -0.0312  0.1480
 6639TIP3    H141408   5.543   2.603   1.144 -0.0770  1.0071  0.7765
 6639TIP3    H241409   5.644   2.564   1.039 -0.8152 -0.7109  0.6641
 6640TIP3   OH241410   4.693   0.801  12.537 -0.8614  0.2035  0.2095
 6640TIP3    H141411   4.736   0.873  12.492 -3.1429  1.0608 -0.7436
 6640TIP3    H241412   4.705   0.726  12.479  0.3373  0.1130  0.5435
 6641TIP3   OH241413   6.799   1.842   2.986  0.0481 -0.2501  0.1907
 6641TIP3    H141414   6.839   1.757   3.003 -2.3228 -1.2491  1.1716
 6641TIP3    H241415   6.705   1.827   2.992 -0.4754  2.3700  0.0114
 6642TIP3   OH241416   3.379   6.513  13.868  0.1590 -0.0036 -0.4498
 6642TIP3    H141417   3.441   6.467  13.811 -2.1693 -2.5598 -1.1196
 6642TIP3    H241418   3.344   6.583  13.813 -0.8192 -1.3931 -1.6807
 6643TIP3   OH241419   0.662   1.279  13.185  0.3603  0.4675 -0.0376
 6643TIP3    H141420   0.642   1.265  13.093 -0.5697 -0.4441  0.2785
 6643TIP3    H241421   0.599   1.347  13.212  2.1262  2.4158 -0.5808
 6644TIP3   OH241422   4.997   1.963  16.990  0.5606 -0.0564 -0.1059
 6644TIP3    H141423   5.080   1.954  16.943  0.8003 -0.5735  0.3986
 6644TIP3    H241424   5.023   1.980  17.081  0.1078  1.3883 -0.2218
 6645TIP3   OH241425   5.880   3.053   4.197 -0.0582  0.3936 -0.0473
 6645TIP3    H141426   5.803   3.048   4.141  0.9429 -1.6785 -1.3732
 6645TIP3    H241427   5.849   3.026   4.284 -1.6372  3.7059  0.5703
 6646TIP3   OH241428   1.035   4.570   0.862 -0.5296 -0.1345  0.0138
 6646TIP3    H141429   0.967   4.575   0.928 -2.4936 -0.7580 -1.8351
 6646TIP3    H241430   1.056   4.477   0.856  2.0243  0.2201  1.9389
 6647TIP3   OH241431   0.707   5.693  17.153  0.3982 -0.1076  0.0420
 6647TIP3    H141432   0.701   5.658  17.065  1.6877 -1.7352  0.5444
 6647TIP3    H241433   0.673   5.623  17.209  0.4993  0.5180  0.9130
 6648TIP3   OH241434   4.493   0.503  10.694  0.1697  0.0803  0.0278
 6648TIP3    H141435   4.438   0.479  10.768  0.0841 -1.6853 -0.5594
 6648TIP3    H241436   4.506   0.597  10.703 -2.1496  0.3811  0.7119
 6649TIP3   OH241437   0.904   3.767  10.939 -0.2132 -0.4278 -0.1292
 6649TIP3    H141438   0.847   3.841  10.921 -0.8181 -1.1406 -1.2119
 6649TIP3    H241439   0.984   3.786  10.891 -1.1089 -1.3967 -2.1178
 6650TIP3   OH241440   0.815   3.490   1.128 -0.5309 -0.2963 -0.0378
 6650TIP3    H141441   0.904   3.521   1.113 -1.1036  1.7498  0.4605
 6650TIP3    H241442   0.826   3.408   1.176  1.0766 -1.2587 -1.9113
 6651TIP3   OH241443   0.005   2.794   1.263  0.1013 -0.0853 -0.5328
 6651TIP3    H141444   0.055   2.736   1.321 -1.7451 -0.7886  0.4407
 6651TIP3    H241445  -0.080   2.751   1.254 -0.4620  1.2247 -1.8661
 6652TIP3   OH241446   3.912   3.418   5.611  0.2609 -0.1827  0.0634
 6652TIP3    H141447   3.921   3.499   5.561 -0.9932 -1.5366 -2.5731
 6652TIP3    H241448   3.817   3.403   5.615  0.4821 -1.8085 -0.0488
 6653TIP3   OH241449   3.705   5.416  12.033 -0.1092  0.9511 -0.6952
 6653TIP3    H141450   3.640   5.434  12.101  0.4148  1.4484 -0.3180
 6653TIP3    H241451   3.782   5.385  12.080  0.2094  1.1638 -1.0668
 6654TIP3   OH241452   5.785   2.021   6.353  0.1767 -0.9095 -0.0194
 6654TIP3    H141453   5.838   2.058   6.425  0.3051 -1.2385  0.0554
 6654TIP3    H241454   5.771   1.930   6.379  1.2319 -1.3659 -0.9853
 6655TIP3   OH241455   4.276   6.203   3.310 -0.2358  0.7018  0.0347
 6655TIP3    H141456   4.215   6.129   3.302  0.9625 -0.6662  2.3656
 6655TIP3    H241457   4.351   6.178   3.255 -0.4853  0.9603 -0.4318
 6656TIP3   OH241458   2.707   0.433  14.067 -0.5888 -0.6131  0.4645
 6656TIP3    H141459   2.668   0.420  13.981  0.1715  1.0904 -0.1845
 6656TIP3    H241460   2.636   0.471  14.119 -0.5813 -0.0476  0.0728
 6657TIP3   OH241461   2.143   2.667  13.290  0.3215  0.2414 -0.0623
 6657TIP3    H141462   2.092   2.587  13.279 -0.1877  0.5864 -0.2151
 6657TIP3    H241463   2.206   2.665  13.218  0.7657 -0.3626  0.3347
 6658TIP3   OH241464   1.664   5.621  17.127 -0.0649  0.2870 -0.1771
 6658TIP3    H141465   1.738   5.561  17.121 -0.6514 -0.6035  1.0220
 6658TIP3    H241466   1.666   5.653  17.218 -1.3525 -0.0571  0.0014
 6659TIP3   OH241467   1.705   2.805   2.662 -0.0297 -0.0659  0.4079
 6659TIP3    H141468   1.778   2.746   2.644  0.7229  0.6712  0.9286
 6659TIP3    H241469   1.679   2.839   2.577  0.4359 -0.1129  0.2458
 6660TIP3   OH241470   3.148   3.594  11.073  0.0145 -0.4170 -0.3392
 6660TIP3    H141471   3.175   3.582  10.982  2.7523 -0.2499  0.3724
 6660TIP3    H241472   3.153   3.688  11.087  3.6033 -0.6741  0.9858
 6661TIP3   OH241473   0.402   3.202   1.821 -0.1296  0.2834 -0.0990
 6661TIP3    H141474   0.408   3.115   1.862 -0.8859 -0.1424 -0.8722
 6661TIP3    H241475   0.450   3.193   1.739  2.0749  1.3597  0.9590
 6662TIP3   OH241476   2.281   0.117  10.865 -0.9325  0.1400  0.2773
 6662TIP3    H141477   2.303   0.087  10.777  0.3619  0.5097  0.4626
 6662TIP3    H241478   2.343   0.072  10.923  1.1481  3.0777  0.5629
 6663TIP3   OH241479   2.447   5.702   5.745  0.2610  0.3332  0.4196
 6663TIP3    H141480   2.480   5.677   5.658  0.6633  1.3226  0.2786
 6663TIP3    H241481   2.459   5.796   5.749 -1.4128  0.5635  0.8633
 6664TIP3   OH241482   2.256   2.826   2.186 -0.0775 -0.0931 -0.2483
 6664TIP3    H141483   2.185   2.888   2.171 -0.1540  0.0166  0.5432
 6664TIP3    H241484   2.283   2.799   2.098 -1.6700 -0.8001 -0.5523
 6665TIP3   OH241485   5.949   5.965  12.870 -0.7433 -0.0150  0.8120
 6665TIP3    H141486   5.880   5.954  12.804  0.0275  2.1852 -0.4721
 6665TIP3    H241487   5.902   5.985  12.951 -1.6578 -1.1422  0.5907
 6666TIP3   OH241488   6.455   4.193  17.103 -0.3106  0.6782 -0.2075
 6666TIP3    H141489   6.546   4.208  17.128  0.5794 -2.1527 -1.2851
 6666TIP3    H241490   6.456   4.196  17.008 -0.9197 -1.0688 -0.3045
 6667TIP3   OH241491   1.863   0.020  14.120  0.1316  0.0799 -0.6637
 6667TIP3    H141492   1.827  -0.008  14.205  0.0715 -1.0790 -1.0513
 6667TIP3    H241493   1.787   0.020  14.062  0.1090  1.2165 -0.6458
 6668TIP3   OH241494   1.422   3.222  11.131  0.0605  0.5287 -0.4299
 6668TIP3    H141495   1.433   3.227  11.036  0.9623  1.8451 -0.2758
 6668TIP3    H241496   1.407   3.129  11.148 -1.1906  0.3911 -1.9523
 6669TIP3   OH241497   5.589   4.373  11.513 -0.0723  0.0073 -0.1666
 6669TIP3    H141498   5.632   4.398  11.431 -1.6614  0.5118 -0.9070
 6669TIP3    H241499   5.644   4.305  11.550 -0.3995 -1.8310 -2.7877
 6670TIP3   OH241500   4.143   1.747   1.130 -0.3644 -0.3187 -0.1479
 6670TIP3    H141501   4.137   1.834   1.091 -2.0350 -0.3083  0.0613
 6670TIP3    H241502   4.192   1.695   1.066  1.7794  1.0558  0.3047
 6671TIP3   OH241503   1.794   5.007  16.437  0.2873  0.9078  0.1220
 6671TIP3    H141504   1.815   5.092  16.397 -1.9947  1.2455 -0.5323
 6671TIP3    H241505   1.701   5.014  16.458  0.7930 -0.1928  3.2889
 6672TIP3   OH241506   3.883   4.368  17.354  0.1103 -0.2830  0.4330
 6672TIP3    H141507   3.881   4.456  17.317 -1.3903 -0.7328 -0.6457
 6672TIP3    H241508   3.856   4.381  17.445 -1.4748  0.2448 -0.0749
 6673TIP3   OH241509   5.529   0.125   3.177  0.3594  0.1144 -0.1800
 6673TIP3    H141510   5.459   0.189   3.162  2.1249  2.1750 -0.1561
 6673TIP3    H241511   5.488   0.041   3.159 -1.7764  1.3113 -1.4410
 6674TIP3   OH241512   4.075   4.747   0.958 -0.0383 -0.2485 -0.1659
 6674TIP3    H141513   4.114   4.725   1.042 -0.1673  1.3006  0.3302
 6674TIP3    H241514   3.998   4.799   0.980  0.8503  1.6337 -1.2227
 6675TIP3   OH241515   6.127   5.708   1.871  0.8524 -0.3034 -0.1209
 6675TIP3    H141516   6.184   5.760   1.815  1.3004 -0.2625  0.3629
 6675TIP3    H241517   6.040   5.718   1.833  1.3110 -1.2102 -1.4886
 6676TIP3   OH241518   0.542   6.640   6.214  0.3324 -0.3164  0.1858
 6676TIP3    H141519   0.474   6.610   6.154 -1.5270 -0.8299  2.3975
 6676TIP3    H241520   0.623   6.631   6.164 -0.9031 -2.2657 -1.6825
 6677TIP3   OH241521   5.429   3.250   0.449 -0.4682  0.0015  0.2011
 6677TIP3    H141522   5.388   3.167   0.425 -1.4928  0.4357  0.4123
 6677TIP3    H241523   5.395   3.313   0.386  0.8543  0.1446 -0.4013
 6678TIP3   OH241524   3.568   6.390   2.891  0.6601  0.0766 -0.5843
 6678TIP3    H141525   3.500   6.350   2.944  2.6327 -1.3823  1.0372
 6678TIP3    H241526   3.523   6.454   2.836 -1.7189  0.5094  1.7221
 6679TIP3   OH241527   0.216   3.389  15.190  0.1217 -0.2802  0.0673
 6679TIP3    H141528   0.305   3.393  15.225 -0.5048 -0.8316  1.8378
 6679TIP3    H241529   0.170   3.462  15.233 -0.7431 -1.1386  0.6286
 6680TIP3   OH241530   6.603   6.026   5.266 -0.3103  0.2041 -0.1584
 6680TIP3    H141531   6.552   5.961   5.219  1.6541 -1.3243 -0.3071
 6680TIP3    H241532   6.577   6.016   5.358 -0.3383 -0.4757 -0.2399
 6681TIP3   OH241533   5.987   6.616  16.538 -0.3182 -0.5485 -0.1596
 6681TIP3    H141534   5.988   6.541  16.597  0.5772 -1.6253 -1.4923
 6681TIP3    H241535   6.062   6.603  16.480  0.8710  2.2055  0.5450
 6682TIP3   OH241536   3.441   6.645   1.930  0.1644  0.2114  0.5535
 6682TIP3    H141537   3.374   6.609   1.988 -0.2866  1.6108  0.9536
 6682TIP3    H241538   3.476   6.570   1.883 -2.0104 -0.5222  0.0073
 6683TIP3   OH241539   1.050   2.365  16.728 -0.8613  0.4672  0.5465
 6683TIP3    H141540   0.988   2.413  16.673 -0.6398 -0.0708 -0.1976
 6683TIP3    H241541   0.999   2.295  16.767 -0.9808  0.7397  0.8765
 6684TIP3   OH241542   1.321   3.480   2.613 -0.3247 -0.1950  0.6032
 6684TIP3    H141543   1.396   3.466   2.557 -0.4684 -1.1827  0.6335
 6684TIP3    H241544   1.302   3.573   2.606  0.9483  0.0810  0.6684
 6685TIP3   OH241545   4.753   0.828   2.125  0.0683  0.1651  0.2445
 6685TIP3    H141546   4.663   0.837   2.094  0.7537 -1.0419 -2.3629
 6685TIP3    H241547   4.752   0.745   2.174  0.0912 -0.8823 -1.4305
 6686TIP3   OH241548   3.756   5.955  15.834  0.0309  0.0462  0.3460
 6686TIP3    H141549   3.716   5.885  15.782  2.4362 -1.0968 -0.0861
 6686TIP3    H241550   3.686   5.982  15.895 -0.9979 -2.7571  0.5701
 6687TIP3   OH241551   3.097   0.616  13.766  0.1657  0.4497  0.1132
 6687TIP3    H141552   3.043   0.600  13.844 -0.5223  1.4667 -0.1271
 6687TIP3    H241553   3.058   0.693  13.726  0.9109  0.3204 -0.8976
 6688TIP3   OH241554   1.644   2.425   4.090 -0.1719 -0.0392 -0.0309
 6688TIP3    H141555   1.590   2.452   4.016 -0.6567 -0.6179  0.1103
 6688TIP3    H241556   1.721   2.386   4.050  0.2326  0.9205 -0.2334
 6689TIP3   OH241557   0.418   4.149  14.493  0.0996  0.0452  0.0281
 6689TIP3    H141558   0.457   4.186  14.414  0.9888 -0.1391  0.3716
 6689TIP3    H241559   0.439   4.056  14.488 -0.9320 -0.2001 -0.1352
 6690TIP3   OH241560   4.557   1.698  13.040 -0.4231  0.2953  0.1318
 6690TIP3    H141561   4.518   1.782  13.013 -0.2614 -0.3018 -2.2227
 6690TIP3    H241562   4.500   1.632  13.000 -0.0424 -0.7040  1.2131
 6691TIP3   OH241563   2.166   0.179  12.496 -0.5885  0.2067  0.3353
 6691TIP3    H141564   2.126   0.093  12.488  0.8679 -0.4077 -0.8252
 6691TIP3    H241565   2.169   0.196  12.590 -0.4264 -1.2507  0.6119
 6692TIP3   OH241566   6.455   2.623  16.716 -0.1129  0.8277 -0.2926
 6692TIP3    H141567   6.520   2.692  16.718 -0.8901  1.5683  0.2461
 6692TIP3    H241568   6.390   2.652  16.653 -1.9352  2.0484  1.9645
 6693TIP3   OH241569   4.620   0.211   6.673 -0.0846 -0.3618  0.2193
 6693TIP3    H141570   4.671   0.196   6.592  1.4219 -0.1764  1.0951
 6693TIP3    H241571   4.566   0.133   6.681  1.0716 -1.2256 -0.0510
 6694TIP3   OH241572   2.710   5.486   2.569  0.0604  0.0537  0.1220
 6694TIP3    H141573   2.622   5.448   2.573  0.0337 -0.1534 -1.5132
 6694TIP3    H241574   2.696   5.578   2.550  0.1933  0.1955  0.6931
 6695TIP3   OH241575   5.189   3.290   5.753 -0.3684  0.4156  0.0629
 6695TIP3    H141576   5.138   3.275   5.674 -0.7733 -2.3981  0.7807
 6695TIP3    H241577   5.280   3.286   5.724 -0.4889 -1.7606 -0.1597
 6696TIP3   OH241578   2.769   6.742   2.090 -0.4394 -0.3237  0.2307
 6696TIP3    H141579   2.694   6.682   2.091 -0.2353 -0.6223 -1.2462
 6696TIP3    H241580   2.741   6.815   2.035  0.8571 -1.1348 -1.5831
 6697TIP3   OH241581   4.150   4.111   5.130 -0.1711 -0.0250  0.0718
 6697TIP3    H141582   4.081   4.108   5.063  0.1510 -0.5089 -0.2458
 6697TIP3    H241583   4.102   4.114   5.213 -0.5745  0.0286 -0.1567
 6698TIP3   OH241584   2.894   1.174   0.883 -0.0505 -0.5181 -1.0899
 6698TIP3    H141585   2.881   1.248   0.824  2.3518  0.3005 -0.6824
 6698TIP3    H241586   2.948   1.113   0.834  2.6575  0.5211  0.3665
 6699TIP3   OH241587   0.758   3.702  15.680  0.0657 -0.1616 -0.3020
 6699TIP3    H141588   0.800   3.616  15.678  1.5160  0.5103 -0.7922
 6699TIP3    H241589   0.739   3.722  15.589 -1.5683 -0.5389 -0.0671
 6700TIP3   OH241590   2.736   3.235  11.328  0.3862  0.3164 -0.5851
 6700TIP3    H141591   2.671   3.265  11.264  1.0183  0.8478 -0.9804
 6700TIP3    H241592   2.704   3.149  11.355 -0.0496  0.2158 -1.3935
 6701TIP3   OH241593   4.606   4.126  16.421  0.0445 -0.3101  0.5084
 6701TIP3    H141594   4.638   4.203  16.373  1.5776 -0.6682  0.9309
 6701TIP3    H241595   4.540   4.088  16.363 -0.7180  1.2779  0.2681
 6702TIP3   OH241596   3.717   5.505   5.836  0.4764 -0.0715 -0.0623
 6702TIP3    H141597   3.710   5.444   5.909 -0.1725  0.8430  0.6613
 6702TIP3    H241598   3.627   5.531   5.817  0.8343  1.9509  0.7816
 6703TIP3   OH241599   1.983   0.072   6.035 -0.6147 -0.3496 -0.2709
 6703TIP3    H141600   2.035   0.150   6.056 -0.7652 -0.1152 -0.7424
 6703TIP3    H241601   1.925   0.061   6.110 -1.1573  0.4839 -0.5510
 6704TIP3   OH241602   3.601   2.091  16.707 -0.2077  0.0928  0.0414
 6704TIP3    H141603   3.607   1.995  16.707  0.1820  0.0943 -1.7723
 6704TIP3    H241604   3.682   2.120  16.666 -1.3261  1.1017 -1.5443
 6705TIP3   OH241605   0.318   1.510  14.753 -0.0237  0.6247 -0.3469
 6705TIP3    H141606   0.365   1.533  14.833 -0.0340  1.6488 -0.6270
 6705TIP3    H241607   0.257   1.582  14.739  0.8952  1.1271 -1.9929
 6706TIP3   OH241608   1.470   4.759   0.682  0.4202 -0.3937 -0.3577
 6706TIP3    H141609   1.545   4.708   0.653 -1.4986 -3.2347 -0.6497
 6706TIP3    H241610   1.402   4.742   0.617 -1.2200  0.2101  1.1152
 6707TIP3   OH241611   4.437   0.047   0.264  0.6870 -0.1662 -0.2231
 6707TIP3    H141612   4.418  -0.040   0.298 -0.8428  0.1481 -0.1724
 6707TIP3    H241613   4.453   0.033   0.171 -1.0546 -0.3762 -0.5360
 6708TIP3   OH241614   3.205   2.011   0.816 -0.4882  0.4964 -0.3135
 6708TIP3    H141615   3.245   2.099   0.818 -1.1517  0.7928  1.3243
 6708TIP3    H241616   3.248   1.964   0.888 -0.2318 -0.5021 -1.1003
 6709TIP3   OH241617   4.029   4.839  13.901 -0.5494 -0.3182 -0.1359
 6709TIP3    H141618   4.036   4.875  13.990  0.5718  0.3314 -0.4724
 6709TIP3    H241619   4.120   4.826  13.873 -0.8769  0.0766 -1.4253
 6710TIP3   OH241620   0.804   3.819   5.290 -0.4362 -0.1303 -1.0423
 6710TIP3    H141621   0.805   3.908   5.327  0.3108 -0.6199  0.1709
 6710TIP3    H241622   0.716   3.809   5.255 -0.8090  0.7843 -0.4243
 6711TIP3   OH241623   5.917   3.705   0.102 -0.1079 -0.2493 -0.0141
 6711TIP3    H141624   5.987   3.651   0.065  1.6880  1.6003  0.4394
 6711TIP3    H241625   5.882   3.654   0.175  0.6722 -1.2952 -0.3519
 6712TIP3   OH241626   5.559   5.463   4.416  0.5359 -0.1317  0.4847
 6712TIP3    H141627   5.509   5.464   4.335  0.5287  0.4128  0.4934
 6712TIP3    H241628   5.636   5.516   4.397  0.4792  0.0910  0.8707
 6713TIP3   OH241629   4.471   4.389   3.181  0.1468  0.6154  0.5038
 6713TIP3    H141630   4.418   4.402   3.259 -1.6342 -0.0432 -0.5366
 6713TIP3    H241631   4.530   4.464   3.179  0.5150  0.4527  2.6581
 6714TIP3   OH241632   3.204   2.571   0.510 -0.2207  0.1118  0.5254
 6714TIP3    H141633   3.151   2.634   0.557 -0.1007  1.0514 -0.5476
 6714TIP3    H241634   3.142   2.523   0.456 -0.1149  0.5630 -0.0127
 6715TIP3   OH241635   4.127   5.364  13.195  0.2816  0.0975  0.1802
 6715TIP3    H141636   4.159   5.289  13.145  0.1417  0.0302  0.1896
 6715TIP3    H241637   4.165   5.353  13.282  0.0990 -0.0724  0.2387
 6716TIP3   OH241638   5.570   5.194  11.018  0.6041 -0.0930  0.3469
 6716TIP3    H141639   5.516   5.122  11.050  1.0486 -0.2160  0.8285
 6716TIP3    H241640   5.565   5.260  11.087  2.6482 -0.8960  1.3513
 6717TIP3   OH241641   2.492   5.351   0.035  0.2897  0.0849  0.1378
 6717TIP3    H141642   2.418   5.365  -0.024  0.7746  1.0834 -0.2641
 6717TIP3    H241643   2.462   5.382   0.120 -0.1414 -0.6132  0.2468
 6718TIP3   OH241644   6.288   1.112  17.052 -0.3633 -0.0323 -0.1052
 6718TIP3    H141645   6.332   1.181  17.101 -0.7594 -0.7189  1.2534
 6718TIP3    H241646   6.313   1.031  17.096 -0.5072 -0.7104 -1.2210
 6719TIP3   OH241647   4.039   3.512   5.832 -0.0894  0.2901 -0.4912
 6719TIP3    H141648   4.000   3.470   5.756  0.6602 -0.8226 -0.2831
 6719TIP3    H241649   4.110   3.566   5.796 -0.7642  1.0500 -0.7137
 6720TIP3   OH241650   2.215   5.830  14.739 -0.2225  0.1027  0.6123
 6720TIP3    H141651   2.188   5.860  14.826 -2.6478  1.2002 -0.4177
 6720TIP3    H241652   2.238   5.910  14.692  0.6697 -0.4437  0.0965
 6721TIP3   OH241653   0.447   3.010  12.789  0.1643  0.3120  0.0857
 6721TIP3    H141654   0.490   3.088  12.825  1.1480 -0.3360  0.3474
 6721TIP3    H241655   0.516   2.943  12.787 -1.0991 -1.1165  1.6154
 6722TIP3   OH241656   4.767   3.630  13.746 -0.1417  0.0288  0.4460
 6722TIP3    H141657   4.842   3.580  13.714  1.0098  1.1628  1.2941
 6722TIP3    H241658   4.745   3.589  13.830 -0.8346 -0.6439 -0.0539
 6723TIP3   OH241659   3.925   0.534   3.952  0.2487  0.1546  0.0163
 6723TIP3    H141660   3.918   0.614   4.004 -0.2372  0.2318 -0.1592
 6723TIP3    H241661   3.840   0.527   3.907 -1.0272 -2.1667  2.4969
 6724TIP3   OH241662   2.071   4.860   4.679 -0.1001  0.3755  0.5113
 6724TIP3    H141663   2.096   4.802   4.751 -0.1144  1.3691  1.3429
 6724TIP3    H241664   1.984   4.892   4.703 -1.0628 -0.9338 -1.0230
 6725TIP3   OH241665   0.582   1.343   2.001  0.5384  0.5210 -0.1338
 6725TIP3    H141666   0.526   1.386   2.065  1.0166  0.1872  0.5356
 6725TIP3    H241667   0.665   1.329   2.048  0.7464 -0.1440 -0.6729
 6726TIP3   OH241668   1.277   4.941  11.935  0.7537  0.0459  0.4666
 6726TIP3    H141669   1.213   4.922  12.004  0.1620  1.2894  0.2758
 6726TIP3    H241670   1.262   5.033  11.913  0.9889 -0.3104 -1.2658
 6727TIP3   OH241671   2.646   3.226  17.236  0.1453  0.1777  0.1291
 6727TIP3    H141672   2.589   3.198  17.308 -1.8911  0.5786 -1.2535
 6727TIP3    H241673   2.702   3.293  17.275  1.2437 -1.7445  2.0770
 6728TIP3   OH241674   2.781   5.838   5.122 -0.4723 -0.2267  0.1084
 6728TIP3    H141675   2.867   5.877   5.109 -1.0611  1.0635 -0.0703
 6728TIP3    H241676   2.782   5.759   5.068  0.3912  0.0863 -0.3511
 6729TIP3   OH241677   5.472   5.721  12.320 -0.2420  0.0740 -0.4821
 6729TIP3    H141678   5.437   5.694  12.405 -0.8083  1.5663 -0.2205
 6729TIP3    H241679   5.405   5.696  12.257 -1.1709  1.5760 -0.1447
 6730TIP3   OH241680   0.999   4.557  14.070 -0.0610  0.2898  0.1030
 6730TIP3    H141681   0.960   4.493  14.130 -1.1517  0.5093 -0.3455
 6730TIP3    H241682   0.958   4.538  13.986 -1.6278  2.5576  0.2650
 6731TIP3   OH241683   1.593   1.341   5.420  0.2979  0.4509  0.3060
 6731TIP3    H141684   1.589   1.330   5.325  2.8039 -0.5135  0.2141
 6731TIP3    H241685   1.548   1.424   5.437 -1.8719 -0.2729 -1.4462
 6732TIP3   OH241686   2.722   2.116  13.489  0.4119 -0.5281  0.0527
 6732TIP3    H141687   2.682   2.034  13.461  0.6000 -0.6592  0.1594
 6732TIP3    H241688   2.808   2.090  13.524 -0.3645 -0.5563  2.0987
 6733TIP3   OH241689   3.263   3.875  12.027 -0.0411  0.1052  0.7880
 6733TIP3    H141690   3.329   3.860  12.096 -0.1936 -1.2677  0.6706
 6733TIP3    H241691   3.193   3.924  12.071  0.8296  1.1682  1.0374
 6734TIP3   OH241692   0.146   1.153   4.186 -0.1838  0.4274 -0.4362
 6734TIP3    H141693   0.183   1.084   4.132 -0.1806 -0.1967  0.3577
 6734TIP3    H241694   0.222   1.199   4.222 -0.0222 -1.8653  2.5196
 6735TIP3   OH241695   4.098   5.783  16.521  0.0929  0.1247 -0.2247
 6735TIP3    H141696   4.111   5.862  16.573 -0.9143  0.8426 -1.0107
 6735TIP3    H241697   4.185   5.746  16.512  0.4430  0.5872  1.0134
 6736TIP3   OH241698   3.011   1.578   1.415  0.1473 -0.0521  0.0974
 6736TIP3    H141699   3.044   1.664   1.387 -0.9412  0.3504 -0.0269
 6736TIP3    H241700   2.979   1.538   1.334 -2.1968  0.7469  0.5424
 6737TIP3   OH241701   2.570   1.322   3.622  0.7546 -0.5458  0.4632
 6737TIP3    H141702   2.621   1.357   3.695  0.3315 -0.5378  0.7607
 6737TIP3    H241703   2.488   1.292   3.663  1.9188 -3.8881  0.6327
 6738TIP3   OH241704   1.577   6.356   2.364  0.6826 -0.1575 -0.3746
 6738TIP3    H141705   1.657   6.402   2.338  1.1203 -1.8597 -2.3277
 6738TIP3    H241706   1.590   6.266   2.335 -0.9231 -1.1011  1.5892
 6739TIP3   OH241707   6.481   3.925   6.036 -0.0933  0.0502  0.1239
 6739TIP3    H141708   6.551   3.969   6.083  0.6674 -0.9033 -0.0913
 6739TIP3    H241709   6.498   3.832   6.048 -0.3465 -0.2187 -1.3300
 6740TIP3   OH241710   4.146   5.463  16.858 -0.2410  0.1058  0.4956
 6740TIP3    H141711   4.184   5.550  16.850 -1.1446  0.5139  0.4778
 6740TIP3    H241712   4.095   5.466  16.939 -1.0803 -0.0840 -0.0112
 6741TIP3   OH241713   6.472   2.649  11.541 -0.2007  0.1649  0.0586
 6741TIP3    H141714   6.512   2.735  11.532 -0.8723  0.8684  2.6987
 6741TIP3    H241715   6.543   2.587  11.527  1.4136  1.3226  2.3943
 6742TIP3   OH241716   6.457   5.296  13.399  0.1513 -0.1658  0.2155
 6742TIP3    H141717   6.375   5.343  13.392 -0.0446 -0.0965  2.2815
 6742TIP3    H241718   6.455   5.233  13.327 -2.2689 -0.9710  0.8816
 6743TIP3   OH241719   4.084   4.010   0.344  0.5142 -0.4748  0.4183
 6743TIP3    H141720   3.995   4.029   0.372 -0.3274 -2.3100 -0.8360
 6743TIP3    H241721   4.082   4.018   0.248  2.4792  2.3860  0.4910
 6744TIP3   OH241722   3.458   3.769  17.258  0.5019  0.3615 -0.2148
 6744TIP3    H141723   3.438   3.803  17.345 -0.3475  0.5793 -0.4862
 6744TIP3    H241724   3.383   3.714  17.235  0.6198  0.4666 -0.8874
 6745TIP3   OH241725   5.661   4.015  13.703 -0.1841 -0.5676 -0.2354
 6745TIP3    H141726   5.673   4.014  13.608 -0.0060 -0.0978 -0.2214
 6745TIP3    H241727   5.586   4.073  13.718 -0.1084 -0.5081 -0.0809
 6746TIP3   OH241728   1.797   0.637   1.230  0.1141  0.0967 -0.4950
 6746TIP3    H141729   1.775   0.597   1.315  2.0823 -1.0766 -0.4658
 6746TIP3    H241730   1.799   0.731   1.248  0.7113 -0.1461  0.8531
 6747TIP3   OH241731   5.049   1.916  13.327  0.1928  0.0270 -0.3666
 6747TIP3    H141732   4.958   1.891  13.309 -0.1572 -2.3024  3.6103
 6747TIP3    H241733   5.044   1.966  13.409  2.4556  0.7760 -0.6270
 6748TIP3   OH241734   5.808   1.877  11.393  0.1743 -0.2513 -0.3685
 6748TIP3    H141735   5.869   1.804  11.401  0.4180  0.0841  1.2940
 6748TIP3    H241736   5.847   1.947  11.445 -1.4204  0.0958  0.4338
 6749TIP3   OH241737   5.263   1.341  10.904 -0.1269 -0.4191 -0.1913
 6749TIP3    H141738   5.352   1.308  10.913  0.3687  1.3622  2.2792
 6749TIP3    H241739   5.271   1.420  10.850 -0.1042  0.1121  0.5863
 6750TIP3   OH241740   5.479   0.725   1.922 -0.0202 -0.4334 -0.6469
 6750TIP3    H141741   5.521   0.757   2.002 -0.2566  1.1797 -1.1473
 6750TIP3    H241742   5.537   0.754   1.851 -0.7524 -0.2703 -1.1812
 6751TIP3   OH241743   2.127   3.141   4.305 -0.0610  0.0653  0.0536
 6751TIP3    H141744   2.141   3.232   4.331  1.3125 -0.5918  1.8371
 6751TIP3    H241745   2.034   3.125   4.323 -0.0383  0.7757  0.8543
 6752TIP3   OH241746   0.533   1.400  11.718  0.0343  0.1667  0.2559
 6752TIP3    H141747   0.544   1.305  11.721 -1.8140 -0.0511  1.4190
 6752TIP3    H241748   0.573   1.431  11.800 -0.2358  0.2891  0.3419
 6753TIP3   OH241749   3.421   6.031  13.583 -0.5678  0.2064  0.0426
 6753TIP3    H141750   3.407   6.051  13.491 -0.5916 -0.3549 -0.0818
 6753TIP3    H241751   3.475   5.952  13.582  1.1898  1.3385  0.5096
 6754TIP3   OH241752   2.425   2.382  11.165 -0.0730  0.3800 -0.7027
 6754TIP3    H141753   2.387   2.436  11.096 -1.5116 -0.2956 -0.4765
 6754TIP3    H241754   2.497   2.335  11.122  1.4567  2.6903 -0.8093
 6755TIP3   OH241755   6.742   0.141   3.785  0.8139 -0.2735  0.3636
 6755TIP3    H141756   6.726   0.184   3.701 -0.2978  2.0014  1.6371
 6755TIP3    H241757   6.672   0.077   3.793  0.2504  0.2789  0.0084
 6756TIP3   OH241758   5.704   2.382   6.820  0.1007 -0.2805  0.4110
 6756TIP3    H141759   5.741   2.449   6.762 -0.6066 -0.2472 -0.0124
 6756TIP3    H241760   5.666   2.432   6.893  2.1382 -0.3888  1.5996
 6757TIP3   OH241761   0.839   3.006   6.729 -0.0927 -0.3263 -0.5515
 6757TIP3    H141762   0.823   3.100   6.726 -0.7829 -0.4294 -0.1428
 6757TIP3    H241763   0.774   2.968   6.670  0.7888 -0.4835 -1.4557
 6758TIP3   OH241764   5.266   4.705  13.408  0.3893 -0.2470 -0.0163
 6758TIP3    H141765   5.229   4.727  13.493 -1.7452  1.7452 -1.3314
 6758TIP3    H241766   5.260   4.786  13.357  0.4944 -1.6287 -2.4112
 6759TIP3   OH241767   4.709   0.406  14.089 -0.2839 -0.7615  0.2815
 6759TIP3    H141768   4.615   0.424  14.103  0.0084  0.3243  1.0225
 6759TIP3    H241769   4.715   0.383  13.996 -1.0402  1.0811 -0.2774
 6760TIP3   OH241770   1.185   1.660  16.233  0.5265  0.0830 -0.1046
 6760TIP3    H141771   1.089   1.661  16.240  0.5770 -2.1245  3.3526
 6760TIP3    H241772   1.205   1.731  16.172 -3.2133  2.0107  0.5880
 6761TIP3   OH241773   5.824   5.140  10.949  0.6298 -0.0043  0.1520
 6761TIP3    H141774   5.742   5.173  10.986 -0.2510 -0.7618 -1.0421
 6761TIP3    H241775   5.867   5.217  10.911  2.2856  1.1064  3.8361
 6762TIP3   OH241776   0.016   2.971   4.501  0.1408  0.0730  0.0024
 6762TIP3    H141777   0.072   3.011   4.567  0.9468  1.3853 -1.3971
 6762TIP3    H241778   0.033   2.877   4.508 -0.1963  0.1337  1.9655
 6763TIP3   OH241779   5.942   6.469   3.014 -0.3831 -0.2009 -0.1221
 6763TIP3    H141780   5.967   6.378   3.031 -0.3695  0.1574  2.0999
 6763TIP3    H241781   5.847   6.466   3.005 -0.2633 -0.5960 -1.4114
 6764TIP3   OH241782   1.048   3.026  14.274 -0.2290  0.3468  0.7575
 6764TIP3    H141783   1.127   3.036  14.327  1.7333 -0.5144 -1.7628
 6764TIP3    H241784   1.039   2.931  14.261  0.2400  0.5352 -1.4941
 6765TIP3   OH241785   5.636   2.870  17.141  0.4951  0.4902 -0.5395
 6765TIP3    H141786   5.573   2.855  17.211  1.5625  1.4929  0.6726
 6765TIP3    H241787   5.677   2.785  17.127 -1.8315 -0.5088 -2.1737
 6766TIP3   OH241788   5.848   0.215   4.964 -0.5234 -0.1732  0.4610
 6766TIP3    H141789   5.910   0.277   5.001  1.5315 -0.9431 -1.4521
 6766TIP3    H241790   5.844   0.237   4.871 -1.6131 -1.3872  0.1864
 6767TIP3   OH241791   2.015   6.771  15.848 -0.1697  0.1186 -0.7045
 6767TIP3    H141792   1.991   6.806  15.762 -0.5178 -0.5557 -0.8912
 6767TIP3    H241793   2.029   6.677  15.833  0.5269  0.1316 -0.1736
 6768TIP3   OH241794   4.202   5.270  14.095 -0.2960  0.3652 -0.0999
 6768TIP3    H141795   4.126   5.272  14.154  1.2330  1.2705  1.9807
 6768TIP3    H241796   4.254   5.195  14.124  0.8454  1.2529  0.2200
 6769TIP3   OH241797   0.360   5.771   4.070  0.6443  0.1961 -0.1459
 6769TIP3    H141798   0.444   5.735   4.042 -0.0385 -0.6955 -1.1208
 6769TIP3    H241799   0.368   5.778   4.166  1.4466 -0.8687 -0.1183
 6770TIP3   OH241800   4.321   1.391   3.728  0.2551  0.0741 -0.3334
 6770TIP3    H141801   4.352   1.345   3.650  0.1872 -0.7856  0.1392
 6770TIP3    H241802   4.326   1.326   3.798 -0.6837  0.5159  0.1649
 6771TIP3   OH241803   6.662   0.307  10.643  0.1802  0.1154 -0.2936
 6771TIP3    H141804   6.606   0.332  10.716 -0.9751 -1.2286 -0.6835
 6771TIP3    H241805   6.638   0.216  10.624  0.9768  0.2045 -1.8723
 6772TIP3   OH241806   5.931   6.782  11.950  0.5597 -0.0115  0.6068
 6772TIP3    H141807   6.003   6.809  11.894  0.0297 -0.4340 -0.3022
 6772TIP3    H241808   5.965   6.792  12.039  1.4334  0.6145  0.2162
 6773TIP3   OH241809   4.357   0.103   4.948 -0.2194 -0.1252  0.0206
 6773TIP3    H141810   4.316   0.148   5.023 -0.7158 -2.2352  1.0789
 6773TIP3    H241811   4.451   0.109   4.966 -0.3381 -0.6544  0.8511
 6774TIP3   OH241812   2.213   0.249  13.952 -0.0820  0.1556  0.0374
 6774TIP3    H141813   2.176   0.171  13.992 -0.0750 -0.2576 -0.7405
 6774TIP3    H241814   2.182   0.321  14.007 -0.5231 -0.3456  0.4587
 6775TIP3   OH241815   3.992   3.212  12.056  0.2905 -0.4748 -0.1007
 6775TIP3    H141816   3.905   3.236  12.026  1.1902  1.3826 -1.4531
 6775TIP3    H241817   4.015   3.281  12.118  0.4462 -1.4903  0.9993
 6776TIP3   OH241818   6.751   3.352  17.234 -0.2195  0.0891  0.3630
 6776TIP3    H141819   6.680   3.343  17.171 -0.3312  0.1340  0.4822
 6776TIP3    H241820   6.831   3.340  17.182 -0.3065  0.2868  0.1852
 6777TIP3   OH241821   0.284   2.587   0.551 -0.0215  0.4128 -0.0948
 6777TIP3    H141822   0.210   2.565   0.608  0.2102  1.4790  0.6479
 6777TIP3    H241823   0.355   2.609   0.611  0.7690 -0.1341 -0.8032
 6778TIP3   OH241824   2.946   5.214  12.981 -0.0635  0.6570  0.1044
 6778TIP3    H141825   2.989   5.211  13.067  0.5149 -2.0532 -0.1684
 6778TIP3    H241826   2.864   5.166  12.994  0.4475 -0.5716 -1.0116
 6779TIP3   OH241827   0.633   4.651   5.878 -0.1498 -0.1484  0.7182
 6779TIP3    H141828   0.601   4.661   5.968  0.8903  0.4972  1.0320
 6779TIP3    H241829   0.724   4.622   5.889  0.0033  0.0047 -0.1277
 6780TIP3   OH241830   1.933   4.427  11.782  0.5625 -0.2956 -0.1147
 6780TIP3    H141831   1.933   4.349  11.726 -0.3439  1.3184 -2.5135
 6780TIP3    H241832   2.020   4.464  11.773  0.2361  0.2843 -0.9715
 6781TIP3   OH241833   5.465   4.864   2.498  0.5760 -0.0505 -0.3064
 6781TIP3    H141834   5.459   4.950   2.540  0.3084 -0.6923  1.0279
 6781TIP3    H241835   5.386   4.818   2.527  1.6876 -1.4361  0.6488
 6782TIP3   OH241836   6.288   1.422   0.871  0.0582  0.0724 -0.1350
 6782TIP3    H141837   6.209   1.395   0.917  1.5599 -0.9235  2.0084
 6782TIP3    H241838   6.316   1.344   0.823  0.4448  0.0091  0.1863
 6783TIP3   OH241839   5.644   4.369   3.177  0.0827  0.6785  0.1734
 6783TIP3    H141840   5.714   4.319   3.134 -0.6891 -0.8222  0.6155
 6783TIP3    H241841   5.674   4.380   3.267  0.2091  0.9323  0.1008
 6784TIP3   OH241842   5.402   3.640   4.545  0.3117 -0.4987 -0.5749
 6784TIP3    H141843   5.384   3.732   4.567 -1.1297 -1.0055  0.5236
 6784TIP3    H241844   5.363   3.590   4.617  1.0536 -1.9833 -1.1638
 6785TIP3   OH241845   2.055   1.277  11.987 -0.6904  0.3037 -0.2220
 6785TIP3    H141846   2.069   1.191  12.027 -0.0474  1.3348  1.9018
 6785TIP3    H241847   1.977   1.311  12.031  0.0437  1.4766  0.2058
 6786TIP3   OH241848   2.309   5.295   0.449  0.0830 -0.4999 -0.4031
 6786TIP3    H141849   2.246   5.288   0.521  0.2357 -0.3401 -0.2519
 6786TIP3    H241850   2.303   5.386   0.420 -1.2193 -0.9790 -1.7385
 6787TIP3   OH241851   2.480   3.448  16.732 -0.3254  0.1708 -0.5805
 6787TIP3    H141852   2.407   3.403  16.688  0.2789 -0.9923 -0.4262
 6787TIP3    H241853   2.558   3.399  16.706  0.3484  1.0734 -0.3074
 6788TIP3   OH241854   2.783   4.607   5.270  0.0077  0.1765  0.2823
 6788TIP3    H141855   2.853   4.652   5.318  1.6755 -1.4779 -0.4685
 6788TIP3    H241856   2.815   4.603   5.180 -1.5651  0.3201 -0.3072
 6789TIP3   OH241857   3.609   1.748   5.425  0.2485  0.0086 -0.4803
 6789TIP3    H141858   3.632   1.692   5.350 -3.4096 -3.2233  0.4426
 6789TIP3    H241859   3.603   1.836   5.388  2.5740 -0.7483 -2.9788
 6790TIP3   OH241860   5.500   1.664   4.382  0.2910  0.5904  0.1421
 6790TIP3    H141861   5.505   1.739   4.323 -0.1408  1.4047  1.1157
 6790TIP3    H241862   5.581   1.667   4.433  1.3095 -0.9103 -1.3009
 6791TIP3   OH241863   2.330   1.898  12.295  0.5292  0.1370 -0.6712
 6791TIP3    H141864   2.385   1.833  12.252  1.0815  0.2800 -0.1926
 6791TIP3    H241865   2.380   1.925  12.372 -0.5500 -0.3300  0.2446
 6792TIP3   OH241866   5.863   5.161   3.523  0.1839  0.0805 -0.6931
 6792TIP3    H141867   5.801   5.108   3.473  0.1790 -0.3279 -0.2600
 6792TIP3    H241868   5.808   5.219   3.575  0.1549 -0.5154 -0.0550
 6793TIP3   OH241869   1.247   4.175  16.319  0.4526  0.3782  0.1864
 6793TIP3    H141870   1.152   4.188  16.321  0.2101 -1.2391  0.3631
 6793TIP3    H241871   1.282   4.252  16.362 -0.6043  2.3016 -2.1288
 6794TIP3   OH241872   2.129   3.595   1.609  0.7274 -0.1691 -0.0127
 6794TIP3    H141873   2.153   3.638   1.691 -0.6629  0.6214  0.0249
 6794TIP3    H241874   2.096   3.509   1.636 -3.1067  1.3130  0.7994
 6795TIP3   OH241875   6.643   0.580   0.988  0.2643 -0.4008  0.7050
 6795TIP3    H141876   6.570   0.635   0.959  0.2658  0.4621  2.1955
 6795TIP3    H241877   6.604   0.493   1.001  0.2232 -0.7792 -1.5110
 6796TIP3   OH241878   5.027   6.701   2.200 -0.0346  0.3280  0.6958
 6796TIP3    H141879   5.022   6.773   2.137 -0.5415 -0.8372 -0.6637
 6796TIP3    H241880   5.100   6.647   2.169 -1.3250 -1.1439  0.0651
 6797TIP3   OH241881   2.145   4.041  16.441  0.3216  0.2157 -0.3557
 6797TIP3    H141882   2.138   4.106  16.511  0.8765  0.6110 -0.6597
 6797TIP3    H241883   2.195   4.085  16.372 -1.3174  0.3082 -1.5512
 6798TIP3   OH241884   1.367   6.504  15.733 -0.0600 -0.0591 -0.1343
 6798TIP3    H141885   1.330   6.513  15.821  0.6275  1.0068  0.0672
 6798TIP3    H241886   1.456   6.539  15.741 -0.0430  0.1999 -1.2958
 6799TIP3   OH241887   1.126   6.466  12.098 -0.3425 -0.4913  0.6879
 6799TIP3    H141888   1.174   6.545  12.122 -1.3131 -0.4092  2.5354
 6799TIP3    H241889   1.173   6.396  12.143 -0.8158 -0.6628  0.9138
 6800TIP3   OH241890   3.952   1.111  14.449  0.4192  0.1097  0.2754
 6800TIP3    H141891   3.867   1.155  14.449  0.3681  0.0158  0.8769
 6800TIP3    H241892   4.016   1.180  14.466  0.2597 -0.1699  2.2116
 6801TIP3   OH241893   4.733   1.929   2.777 -0.0173  0.2744 -0.2806
 6801TIP3    H141894   4.800   1.922   2.845 -0.3845 -0.6114 -0.0009
 6801TIP3    H241895   4.651   1.943   2.825  0.2324  3.9256 -0.6774
 6802TIP3   OH241896   3.420   5.624  16.255  0.6707  0.1261 -0.2021
 6802TIP3    H141897   3.464   5.588  16.333 -0.6061  1.1110  1.0355
 6802TIP3    H241898   3.335   5.653  16.288 -0.9314 -1.6576 -2.5033
 6803TIP3   OH241899   1.737   2.497   0.457 -0.7394 -0.7616 -0.1081
 6803TIP3    H141900   1.746   2.503   0.552 -0.0445  0.2507 -0.2291
 6803TIP3    H241901   1.690   2.414   0.443 -2.2114 -0.2101  1.1957
 6804TIP3   OH241902   1.002   5.730   2.148  0.6112  0.3545 -0.4631
 6804TIP3    H141903   1.055   5.796   2.105  2.8438 -1.0749 -0.0592
 6804TIP3    H241904   1.024   5.648   2.104  0.8456 -0.7068  1.4930
 6805TIP3   OH241905   6.403   4.357  15.789  0.7512 -0.2160  0.5795
 6805TIP3    H141906   6.473   4.301  15.758  0.4666 -0.5098  0.4595
 6805TIP3    H241907   6.365   4.395  15.709  1.1062  0.3435  0.6760
 6806TIP3   OH241908   6.791   6.743   3.252 -0.4263  0.0619 -0.0044
 6806TIP3    H141909   6.861   6.690   3.216 -1.3853 -1.6193  0.4652
 6806TIP3    H241910   6.834   6.804   3.312  0.8378  0.7435 -1.5680
 6807TIP3   OH241911   4.215   0.619  11.628  0.1950 -0.2243  0.1875
 6807TIP3    H141912   4.194   0.544  11.573  2.0893 -0.9036  0.3374
 6807TIP3    H241913   4.143   0.623  11.691  0.1467 -2.0141  0.2882
 6808TIP3   OH241914   6.713   1.910  14.827 -0.0430 -0.4685  0.5471
 6808TIP3    H141915   6.715   1.965  14.749 -0.2887 -0.3477  0.6218
 6808TIP3    H241916   6.639   1.945  14.878  0.6402  0.0073  1.2320
 6809TIP3   OH241917   2.570   3.504  17.366 -0.3197 -0.7659 -0.4980
 6809TIP3    H141918   2.620   3.564  17.421 -2.0947 -0.5197  0.9323
 6809TIP3    H241919   2.525   3.561  17.303 -0.3938 -0.7840 -0.4622
 6810TIP3   OH241920   6.631   3.062  11.951 -0.1320  0.5423 -0.2117
 6810TIP3    H141921   6.683   3.122  12.004 -0.1910  0.4290 -0.0239
 6810TIP3    H241922   6.584   3.009  12.015  0.4127 -0.1364 -0.3602
 6811TIP3   OH241923   0.229   0.955  15.568  0.0151  0.0484 -0.2559
 6811TIP3    H141924   0.254   1.043  15.596  2.0063 -0.1799 -1.1312
 6811TIP3    H241925   0.310   0.904  15.575 -0.5370 -1.1346 -1.9565
 6812TIP3   OH241926   0.904   3.565  13.807 -0.1016 -0.0277 -0.4092
 6812TIP3    H141927   0.994   3.553  13.839  0.2351 -1.1680 -1.6809
 6812TIP3    H241928   0.898   3.508  13.730 -1.6752  0.6391 -0.8245
 6813TIP3   OH241929   3.924   1.335   4.109 -0.0473  0.1136 -0.2321
 6813TIP3    H141930   3.972   1.269   4.159  1.6321  1.4615  0.0537
 6813TIP3    H241931   3.847   1.355   4.162 -0.7852 -1.8286 -0.5078
 6814TIP3   OH241932   3.068   1.279  16.051 -0.4997  0.6274 -0.1283
 6814TIP3    H141933   3.118   1.284  16.133  1.1689 -0.9853 -0.9604
 6814TIP3    H241934   3.134   1.263  15.984 -1.8478  1.7453 -1.8038
 6815TIP3   OH241935   0.191   2.713   2.808  0.2746 -0.4170  0.1689
 6815TIP3    H141936   0.144   2.741   2.886  0.6337 -2.3088  1.1163
 6815TIP3    H241937   0.123   2.694   2.744 -0.1047 -0.2262  0.5118
 6816TIP3   OH241938   6.334   0.001   0.919  0.1572  0.5583 -0.8815
 6816TIP3    H141939   6.285   0.062   0.974  0.1909  1.3021 -1.6518
 6816TIP3    H241940   6.364  -0.067   0.979  0.0283  1.2465 -0.0200
 6817TIP3   OH241941   1.449   2.071  12.445  0.0847 -0.2799  0.4719
 6817TIP3    H141942   1.392   2.101  12.375 -0.1089 -0.6770  0.4581
 6817TIP3    H241943   1.538   2.080  12.409 -0.0462 -1.2313 -0.1304
 6818TIP3   OH241944   5.850   5.436   7.137 -0.0014  0.0334  0.6747
 6818TIP3    H141945   5.916   5.494   7.099  0.3550 -0.1509  1.0048
 6818TIP3    H241946   5.896   5.391   7.208  0.3319 -2.1835 -0.8658
 6819TIP3   OH241947   0.875   0.348  14.801  0.2716 -0.0344  0.1832
 6819TIP3    H141948   0.857   0.266  14.848  1.8714 -0.2030  0.5744
 6819TIP3    H241949   0.970   0.350  14.793  0.1620  1.0686 -1.1623
 6820TIP3   OH241950   6.056   2.867  17.014  0.3050 -0.0730 -0.1597
 6820TIP3    H141951   5.994   2.921  17.063 -0.3498 -1.5422  0.7013
 6820TIP3    H241952   6.015   2.855  16.928  0.0851  0.1280 -0.0827
 6821TIP3   OH241953   4.345   1.269  12.974  0.0479  0.4422  0.1356
 6821TIP3    H141954   4.304   1.352  12.998 -2.8108 -0.9399  0.4837
 6821TIP3    H241955   4.403   1.248  13.047  0.6469  1.9971  0.1364
 6822TIP3   OH241956   4.851   2.267   4.176  0.0480  0.3299 -0.3617
 6822TIP3    H141957   4.887   2.261   4.264 -0.1776  1.0197 -0.2218
 6822TIP3    H241958   4.913   2.217   4.122  0.0672 -0.2800  0.2153
 6823TIP3   OH241959   2.180   0.926   1.771  0.4137 -0.6128  0.7442
 6823TIP3    H141960   2.103   0.983   1.770  1.0786  0.2915  0.3346
 6823TIP3    H241961   2.143   0.837   1.769 -0.6022 -0.1973 -0.5656
 6824TIP3   OH241962   1.449   2.599  16.721 -0.1677  0.9027 -0.3543
 6824TIP3    H141963   1.440   2.622  16.629  2.2525 -1.9266 -1.4521
 6824TIP3    H241964   1.400   2.518  16.732 -0.5256  1.2548  0.9147
 6825TIP3   OH241965   4.793   6.733  11.055  0.0502 -0.6408 -0.6739
 6825TIP3    H141966   4.796   6.703  11.146  1.9944  0.0018 -0.4926
 6825TIP3    H241967   4.699   6.748  11.039 -0.2927 -0.1162  1.4520
 6826TIP3   OH241968   0.135   4.789  11.124  0.0793 -0.0668  0.1656
 6826TIP3    H141969   0.120   4.838  11.205 -1.0282 -1.8875  1.1309
 6826TIP3    H241970   0.224   4.812  11.099 -0.2097  2.0352  0.7954
 6827TIP3   OH241971   5.121   3.005   5.448 -0.3208 -0.1062  0.2542
 6827TIP3    H141972   5.199   2.958   5.478 -0.1035  0.2707  0.2869
 6827TIP3    H241973   5.086   2.951   5.377 -0.2147 -0.4426  0.4550
 6828TIP3   OH241974   5.837   1.520  13.058 -0.5563  0.3377 -0.1743
 6828TIP3    H141975   5.885   1.479  12.986 -1.2131  0.1109 -0.4919
 6828TIP3    H241976   5.877   1.606  13.069 -0.9196  0.6608 -1.2994
 6829TIP3   OH241977   2.747   1.385  12.310 -0.7377  0.5655  0.0483
 6829TIP3    H141978   2.802   1.325  12.360 -0.4457  1.4135  0.7616
 6829TIP3    H241979   2.798   1.465  12.302 -1.4055  0.9768 -0.2819
 6830TIP3   OH241980   0.999   4.182  11.705 -0.1193 -0.4295  0.3759
 6830TIP3    H141981   1.093   4.173  11.687 -0.1412  1.1657 -0.7757
 6830TIP3    H241982   0.957   4.120  11.645  0.2031 -1.6523  1.3827
 6831TIP3   OH241983   1.596   0.237  14.657 -0.0930  0.4714 -0.1804
 6831TIP3    H141984   1.684   0.199  14.658 -0.2990 -0.0153 -0.5614
 6831TIP3    H241985   1.610   0.330  14.677  0.5394  0.4553 -0.5319
 6832TIP3   OH241986   0.526   4.042   1.719 -0.5535 -0.3684 -0.5118
 6832TIP3    H141987   0.440   4.025   1.758  0.6709 -0.8528  2.2494
 6832TIP3    H241988   0.565   4.108   1.777  2.3496 -2.9318  0.6670
 6833TIP3   OH241989   3.811   1.686   3.747  0.6757 -0.4743  0.3800
 6833TIP3    H141990   3.874   1.756   3.765  0.7892 -0.4335 -0.1492
 6833TIP3    H241991   3.735   1.733   3.711  0.9221 -0.6621 -0.3955
 6834TIP3   OH241992   2.128   4.648   5.271  0.3469  0.0985  0.7780
 6834TIP3    H141993   2.139   4.742   5.288  0.3278  0.4996 -1.1623
 6834TIP3    H241994   2.173   4.605   5.343  3.1720  1.6223  0.0714
 6835TIP3   OH241995   5.561   0.303  10.725  0.0026  0.1483  0.5083
 6835TIP3    H141996   5.532   0.218  10.760  0.8468 -0.5961 -0.5566
 6835TIP3    H241997   5.655   0.304  10.741  0.3393 -0.0205 -1.3292
 6836TIP3   OH241998   5.118   1.293   1.492 -0.3335 -0.1398  0.1948
 6836TIP3    H141999   5.208   1.270   1.468  0.1138  0.0985  1.5531
 6836TIP3    H242000   5.070   1.210   1.489 -0.6227  0.0311 -2.6061
 6837TIP3   OH242001   2.124   2.911  16.956  0.7036  0.5185  0.0091
 6837TIP3    H142002   2.037   2.896  16.992  0.6158  1.3063  0.1396
 6837TIP3    H242003   2.134   3.006  16.955  0.5235  0.5827 -2.4771
 6838TIP3   OH242004   1.904   4.148  12.434  0.9141 -0.3773  0.0632
 6838TIP3    H142005   1.818   4.145  12.394  0.8862 -1.4047  0.1638
 6838TIP3    H242006   1.887   4.153  12.528  0.9137 -1.9255  0.1841
 6839TIP3   OH242007   1.904   4.059  13.064  0.2464 -0.0680  0.0225
 6839TIP3    H142008   1.810   4.055  13.049 -0.0535  0.5435  1.5733
 6839TIP3    H242009   1.918   4.013  13.147  1.1885  0.5957  0.2548
 6840TIP3   OH242010   4.094   1.238  15.733  0.4283 -1.0765 -0.3979
 6840TIP3    H142011   4.120   1.212  15.645  0.7974 -0.7166 -0.3991
 6840TIP3    H242012   4.115   1.331  15.738  2.0621 -1.4462  0.6383
 6841TIP3   OH242013   2.866   3.841  12.580 -0.2185 -0.3621  0.5871
 6841TIP3    H142014   2.890   3.751  12.555  0.3055 -0.1337  0.2293
 6841TIP3    H242015   2.843   3.835  12.672 -3.0620 -1.4064 -0.0752
 6842TIP3   OH242016   4.024   2.417   5.870 -0.6172  0.1973 -0.2447
 6842TIP3    H142017   3.945   2.367   5.849 -2.6529  1.9090  2.5309
 6842TIP3    H242018   3.996   2.509   5.862  1.6830  0.8991 -0.9216
 6843TIP3   OH242019   0.260   0.901  11.147 -0.3634 -0.0600 -0.2158
 6843TIP3    H142020   0.211   0.878  11.225 -0.2297 -3.0490 -0.8789
 6843TIP3    H242021   0.198   0.890  11.075  0.5437 -1.4370 -0.8346
 6844TIP3   OH242022   4.871   6.796  13.535  0.0216 -0.0804  0.2713
 6844TIP3    H142023   4.862   6.783  13.629 -2.2714  3.4764  0.7322
 6844TIP3    H242024   4.786   6.831  13.508  0.5527 -1.0908 -3.2001
 6845TIP3   OH242025   2.623   5.179  12.753  0.5493 -0.5261 -0.0483
 6845TIP3    H142026   2.644   5.153  12.843  2.4788  0.9429  0.0192
 6845TIP3    H242027   2.555   5.246  12.763 -0.6414 -1.7256  0.1367
 6846TIP3   OH242028   3.385   2.137  16.924  0.3300 -0.1526  0.0416
 6846TIP3    H142029   3.403   2.223  16.963 -0.2463 -0.4806  1.0914
 6846TIP3    H242030   3.458   2.122  16.865  0.6746  0.8653  0.1748
 6847TIP3   OH242031   0.059   4.647   0.655 -0.6916 -0.0853  0.4508
 6847TIP3    H142032  -0.023   4.689   0.632 -0.7806 -0.4687  0.0521
 6847TIP3    H242033   0.043   4.610   0.742 -0.6603  0.5641  0.7372
 6848TIP3   OH242034   4.097   4.651   2.631  0.2928  0.1672  0.1774
 6848TIP3    H142035   4.018   4.704   2.632  0.0650 -0.1765  0.2823
 6848TIP3    H242036   4.067   4.561   2.635  0.6899  0.0341  0.2970
 6849TIP3   OH242037   5.653   4.240  15.770  0.0042 -0.3298  0.1751
 6849TIP3    H142038   5.567   4.218  15.806 -0.2679  2.2979  1.3759
 6849TIP3    H242039   5.642   4.328  15.734  2.6994  1.0644  2.3771
 6850TIP3   OH242040   0.539   0.193   0.969 -0.6470  0.3051 -0.0105
 6850TIP3    H142041   0.584   0.139   0.904 -0.5599  1.0032 -0.5413
 6850TIP3    H242042   0.597   0.267   0.984 -1.3088  0.8777 -0.2033
 6851TIP3   OH242043   3.404   2.020  15.478 -0.0678 -0.1123  0.0763
 6851TIP3    H142044   3.327   2.075  15.465  0.1256  0.2304  0.3818
 6851TIP3    H242045   3.370   1.941  15.521 -0.5246 -0.7412 -1.3435
 6852TIP3   OH242046   3.444   4.770   1.396  0.1802 -0.1866  0.1020
 6852TIP3    H142047   3.469   4.704   1.332 -0.2493 -0.1793 -0.0773
 6852TIP3    H242048   3.447   4.853   1.348 -1.5820 -0.3317 -0.3465
 6853TIP3   OH242049   4.560   5.656   3.193 -0.3783  0.2703 -0.1903
 6853TIP3    H142050   4.604   5.598   3.256  0.4412  1.9357  0.8396
 6853TIP3    H242051   4.627   5.673   3.126 -0.4346  0.4527 -0.1996
 6854TIP3   OH242052   1.478   4.453   0.779  0.1022 -0.1786 -0.4240
 6854TIP3    H142053   1.388   4.438   0.806 -0.0610 -0.2031 -0.9558
 6854TIP3    H242054   1.476   4.445   0.683  1.2023 -3.0685 -0.3126
 6855TIP3   OH242055   2.321   2.505   3.733 -0.4274 -0.2244 -0.2578
 6855TIP3    H142056   2.362   2.589   3.752 -1.6761  0.4335 -0.3843
 6855TIP3    H242057   2.381   2.440   3.769 -0.0834  0.7653  1.0137
 6856TIP3   OH242058   1.418   0.542  13.312 -0.7289  0.2386  0.1100
 6856TIP3    H142059   1.490   0.508  13.366 -1.8199 -0.3855  1.2466
 6856TIP3    H242060   1.431   0.500  13.227  0.8167  0.9371 -0.0304
 6857TIP3   OH242061   0.900   3.425  15.290 -0.1017 -0.6018  0.5159
 6857TIP3    H142062   0.853   3.377  15.359 -1.6311  1.3943  0.9506
 6857TIP3    H242063   0.867   3.515  15.297 -0.7017 -0.4057 -3.1146
 6858TIP3   OH242064   0.082   4.992   2.328 -0.6048 -0.5974 -1.2579
 6858TIP3    H142065   0.139   4.919   2.304  0.1906 -0.0277 -1.1363
 6858TIP3    H242066  -0.000   4.950   2.356  1.2115 -1.8194  3.1285
 6859TIP3   OH242067   5.581   6.494   1.979 -0.0015  0.4052  0.1783
 6859TIP3    H142068   5.494   6.479   1.943  0.1477 -0.8666  0.2804
 6859TIP3    H242069   5.641   6.477   1.905  0.2031  0.0109  0.4290
 6860TIP3   OH242070   5.953   4.670  11.151  0.1865  0.5148 -0.0416
 6860TIP3    H142071   5.914   4.667  11.064 -1.0348  0.0990  0.4974
 6860TIP3    H242072   5.922   4.752  11.190  0.4055  0.5136  0.1407
 6861TIP3   OH242073   0.390   3.292   5.847  0.1029  0.2937  0.4512
 6861TIP3    H142074   0.416   3.200   5.838  0.1388  0.4049 -0.8866
 6861TIP3    H242075   0.456   3.339   5.796 -0.2355  1.0038  0.6662
 6862TIP3   OH242076   5.078   1.694  15.519  0.9649 -0.1186 -0.4745
 6862TIP3    H142077   5.077   1.672  15.426  0.9552  1.8221 -0.9757
 6862TIP3    H242078   5.135   1.627  15.559  0.9595 -0.9827 -1.8496
 6863TIP3   OH242079   6.236   6.618  11.817 -0.1226 -0.5304  0.3034
 6863TIP3    H142080   6.205   6.617  11.908 -3.3063 -0.6229 -0.6534
 6863TIP3    H242081   6.246   6.711  11.796  1.6142 -0.5222  0.9631
 6864TIP3   OH242082   1.767   3.500   2.606 -0.2620  0.1180  0.6606
 6864TIP3    H142083   1.753   3.412   2.639 -1.3457  0.8711  2.3176
 6864TIP3    H242084   1.731   3.498   2.517 -2.0730 -0.6109  1.3645
 6865TIP3   OH242085   6.036   0.125  12.189  0.0050  0.0980 -1.0578
 6865TIP3    H142086   5.979   0.195  12.156  1.6089  0.4457 -3.3751
 6865TIP3    H242087   6.099   0.171  12.245 -0.8803 -0.0234  0.0665
 6866TIP3   OH242088   4.396   5.082  12.078 -0.1119 -0.0208 -0.3558
 6866TIP3    H142089   4.422   5.147  12.143 -4.0787  0.9877  0.5221
 6866TIP3    H242090   4.431   4.999  12.112 -0.2287  0.7907  1.9794
 6867TIP3   OH242091   2.707   0.380   1.781 -0.3541 -0.1456 -0.0282
 6867TIP3    H142092   2.635   0.373   1.844 -0.7778  0.1955 -0.4670
 6867TIP3    H242093   2.767   0.444   1.820  1.1271 -2.4160  1.6746
 6868TIP3   OH242094   3.606   4.414   4.415 -1.5532 -0.6335 -0.5741
 6868TIP3    H142095   3.577   4.413   4.323 -2.0802 -1.0480 -0.4121
 6868TIP3    H242096   3.526   4.396   4.464 -1.3713  0.1141 -0.0034
 6869TIP3   OH242097   5.821   0.028   0.927  0.5422 -0.4588  0.1459
 6869TIP3    H142098   5.844   0.121   0.934 -0.3986 -0.1885 -0.1472
 6869TIP3    H242099   5.902  -0.018   0.948  1.5603  0.4276 -1.5218
 6870TIP3   OH242100   1.703   2.121   0.729 -1.0165  0.6732  0.1562
 6870TIP3    H142101   1.691   2.029   0.752  0.1870  1.1097  2.9396
 6870TIP3    H242102   1.774   2.120   0.664 -0.0364 -0.3124  1.1928
 6871TIP3   OH242103   6.315   1.609  13.607 -0.1231 -0.1189 -0.6605
 6871TIP3    H142104   6.303   1.550  13.533 -0.5350 -0.1275 -0.5915
 6871TIP3    H242105   6.346   1.691  13.567 -1.6753  0.3410 -1.0254
 6872TIP3   OH242106   5.088   0.496  15.696 -0.4666 -0.1644  0.1469
 6872TIP3    H142107   5.141   0.442  15.637  0.3450  0.3483  0.3846
 6872TIP3    H242108   5.148   0.518  15.768 -0.6620  1.3473 -0.1237
 6873TIP3   OH242109   3.405   6.023   3.993 -0.0015 -0.4513  0.3066
 6873TIP3    H142110   3.326   6.060   3.952 -0.8679 -0.1970  2.1039
 6873TIP3    H242111   3.428   6.087   4.060  2.0080 -0.3291 -0.4352
 6874TIP3   OH242112   1.718   0.586   5.714 -0.4509 -0.2292  0.4891
 6874TIP3    H142113   1.769   0.650   5.763  0.5053  0.7556 -1.6657
 6874TIP3    H242114   1.725   0.505   5.764  2.1683  0.2046  0.9462
 6875TIP3   OH242115   3.346   4.428   4.516 -0.5616 -0.1326  0.4487
 6875TIP3    H142116   3.280   4.423   4.447  0.4354  1.5805 -0.7177
 6875TIP3    H242117   3.309   4.379   4.589 -2.8883  0.3149 -0.3529
 6876TIP3   OH242118   4.864   3.725   3.190  0.8022 -0.1471  0.2382
 6876TIP3    H142119   4.819   3.655   3.239 -0.4950  0.0091 -0.6715
 6876TIP3    H242120   4.803   3.799   3.194  1.3698  0.3555 -0.3196
 6877TIP3   OH242121   3.601   2.389  11.834 -0.2237 -0.5276  0.6545
 6877TIP3    H142122   3.556   2.411  11.752 -0.5613 -0.4407  0.8608
 6877TIP3    H242123   3.673   2.451  11.840 -0.4720 -0.2367  0.6493
 6878TIP3   OH242124   4.910   6.611  17.102 -0.9344 -0.1243 -0.7400
 6878TIP3    H142125   4.977   6.664  17.059 -0.2658 -1.2327 -1.1019
 6878TIP3    H242126   4.901   6.650  17.189  0.5020 -0.2034 -0.5292
 6879TIP3   OH242127   2.684   0.489  16.491  0.2449 -0.2617 -0.0721
 6879TIP3    H142128   2.761   0.476  16.435  0.9671 -2.7882  1.3697
 6879TIP3    H242129   2.610   0.464  16.435  0.6248  0.2646 -0.8396
 6880TIP3   OH242130   0.898   0.663   2.211  0.2997  0.5949  0.6018
 6880TIP3    H142131   0.833   0.597   2.236 -1.2430  2.0219  0.4935
 6880TIP3    H242132   0.971   0.612   2.175 -1.5274 -0.9839 -1.0508
 6881TIP3   OH242133   5.805   4.396   3.397 -0.1567  0.5164  0.2282
 6881TIP3    H142134   5.858   4.355   3.465  1.8661  0.6650 -1.1621
 6881TIP3    H242135   5.846   4.482   3.383  1.8687 -0.7866 -3.5206
 6882TIP3   OH242136   4.716   0.246  13.137  0.1112 -0.4316  0.2289
 6882TIP3    H142137   4.747   0.156  13.129 -0.2666 -0.5483  0.0409
 6882TIP3    H242138   4.792   0.300  13.114  0.2271 -0.7112 -0.0516
 6883TIP3   OH242139   0.701   0.184  17.232 -0.0386 -0.0801  0.5896
 6883TIP3    H142140   0.615   0.164  17.270 -0.2322  0.1414  0.2704
 6883TIP3    H242141   0.747   0.233  17.301  0.4686 -1.6526  1.4108
 6884TIP3   OH242142   2.772   3.705  13.063  0.1049 -0.1314 -0.4311
 6884TIP3    H142143   2.866   3.711  13.080 -0.0248 -2.1424  1.5195
 6884TIP3    H242144   2.730   3.751  13.135 -0.4170 -0.5909 -0.4268
 6885TIP3   OH242145   4.684   6.508  12.780  0.5560  0.4507 -0.0320
 6885TIP3    H142146   4.590   6.499  12.762  0.6192  0.0492 -0.1749
 6885TIP3    H242147   4.698   6.454  12.859  0.3897  1.7257  0.8990
 6886TIP3   OH242148   4.448   2.561   3.904  0.3997 -0.3235  0.3842
 6886TIP3    H142149   4.454   2.472   3.871  0.3578  0.0672 -0.7248
 6886TIP3    H242150   4.536   2.597   3.894  0.6984 -0.5717  1.8749
 6887TIP3   OH242151   5.316   1.818   0.277 -0.0951  0.3081 -0.0298
 6887TIP3    H142152   5.336   1.733   0.237 -1.8555  0.1759 -0.6979
 6887TIP3    H242153   5.221   1.824   0.274 -0.0307  2.0489  0.5836
 6888TIP3   OH242154   0.496   5.595  11.340 -0.2993  0.1023  0.1900
 6888TIP3    H142155   0.585   5.632  11.342  0.2226 -0.8987 -1.7465
 6888TIP3    H242156   0.468   5.596  11.431  1.6977  0.4550  0.8633
 6889TIP3   OH242157   0.590   5.847   3.291 -0.0488 -0.0593 -0.3216
 6889TIP3    H142158   0.524   5.780   3.310  0.0830 -0.1094 -0.0304
 6889TIP3    H242159   0.636   5.814   3.214 -0.5539  0.1170 -0.7054
 6890TIP3   OH242160   0.156   0.299  16.378 -0.7774  0.2835  0.1422
 6890TIP3    H142161   0.130   0.227  16.321  0.1231  1.9349 -2.5807
 6890TIP3    H242162   0.102   0.373  16.349  0.9576  1.6277  0.1830
 6891TIP3   OH242163   2.839   1.279  13.243  0.0829 -0.1862 -0.4216
 6891TIP3    H142164   2.911   1.341  13.228 -0.6834  0.5298 -1.2495
 6891TIP3    H242165   2.760   1.328  13.220 -0.8211 -0.5345  1.6963
 6892TIP3   OH242166   6.022   4.252   6.550 -0.1586  0.6829 -0.0426
 6892TIP3    H142167   5.996   4.302   6.627 -0.6376 -0.3959  0.5215
 6892TIP3    H242168   5.945   4.253   6.493 -0.0909  0.7719 -0.1341
 6893TIP3   OH242169   2.076   0.792  15.976  0.1506  0.0696  0.2683
 6893TIP3    H142170   2.016   0.789  16.050 -1.8200 -1.6120 -1.2813
 6893TIP3    H242171   2.049   0.868  15.925 -0.8332 -0.7357 -0.4748
 6894TIP3   OH242172   3.694   1.240  11.174  0.1214 -0.5149 -0.9135
 6894TIP3    H142173   3.670   1.275  11.089  0.3425  0.0639 -0.7372
 6894TIP3    H242174   3.787   1.259  11.184  0.3657 -1.5933 -1.0294
 6895TIP3   OH242175   1.559   3.907  14.671 -0.3239 -0.3171  0.4798
 6895TIP3    H142176   1.487   3.955  14.712 -2.2751 -1.2476 -1.5820
 6895TIP3    H242177   1.619   3.974  14.640 -1.7016  0.6911 -0.1254
 6896TIP3   OH242178   4.484   4.009   6.009  0.2421 -0.2704  0.4513
 6896TIP3    H142179   4.484   4.022   6.103  1.1342 -1.3269  0.6221
 6896TIP3    H242180   4.513   3.919   5.997 -0.4741 -0.3645 -0.8160
 6897TIP3   OH242181   0.368   1.407   5.912  0.5592  0.5915  0.1399
 6897TIP3    H142182   0.337   1.450   5.991 -2.2971 -2.4264  0.8681
 6897TIP3    H242183   0.319   1.449   5.841 -2.1463 -1.1192  0.8332
 6898TIP3   OH242184   0.995   6.320   5.795 -0.7280  0.4514 -0.3811
 6898TIP3    H142185   1.087   6.311   5.821 -0.0821 -1.7090 -2.9534
 6898TIP3    H242186   0.949   6.340   5.876  1.7073 -0.8060  1.4375
 6899TIP3   OH242187   4.724   1.009   4.156  0.0528  0.2706 -0.2946
 6899TIP3    H142188   4.776   1.038   4.082 -1.0361 -1.4673 -1.8122
 6899TIP3    H242189   4.647   0.967   4.117  0.1109 -1.9762  1.7695
 6900TIP3   OH242190   6.752   3.733   0.311  0.7475 -0.0472  0.4719
 6900TIP3    H142191   6.823   3.672   0.332  1.1957  0.6667  1.0729
 6900TIP3    H242192   6.718   3.761   0.396  0.3834  0.3649  0.1965
 6901TIP3   OH242193   5.403   3.905   1.574  0.5088 -0.5383  0.1918
 6901TIP3    H142194   5.373   3.831   1.522  0.5057  0.4277 -1.2282
 6901TIP3    H242195   5.494   3.917   1.548  0.3042  0.3822 -0.1192
 6902TIP3   OH242196   0.020   1.854  11.945 -0.1517 -0.0736  0.1288
 6902TIP3    H142197  -0.009   1.800  11.872  0.0222  0.5458 -0.4110
 6902TIP3    H242198   0.074   1.922  11.904 -1.1390  1.0683  0.6654
 6903TIP3   OH242199   3.775   0.895   0.867 -0.1698  0.2662 -0.0923
 6903TIP3    H142200   3.780   0.888   0.772  0.0735 -0.1675 -0.0521
 6903TIP3    H242201   3.730   0.978   0.883 -0.6267  0.1183 -0.5865
 6904TIP3   OH242202   2.742   5.088   3.193 -0.0162  0.5327 -0.0365
 6904TIP3    H142203   2.768   5.088   3.285 -3.0444 -1.2714  0.9535
 6904TIP3    H242204   2.778   5.170   3.158  1.6927  1.0080  2.5538
 6905TIP3   OH242205   4.737   4.377  11.232  0.1631 -0.4305  0.1775
 6905TIP3    H142206   4.659   4.387  11.177  1.0672 -0.7267 -1.2065
 6905TIP3    H242207   4.759   4.467  11.258 -0.4181 -0.3085  0.2586
 6906TIP3   OH242208   6.292   0.004   6.023 -0.0311  0.3984  0.6135
 6906TIP3    H142209   6.241  -0.076   6.011  0.5207 -0.1097  1.5322
 6906TIP3    H242210   6.230   0.067   6.058  0.1530 -0.5181  2.7228
 6907TIP3   OH242211   3.219   2.073  17.285  0.0550  0.7228  0.1375
 6907TIP3    H142212   3.237   2.028  17.202 -1.3994 -2.0890  1.2182
 6907TIP3    H242213   3.200   2.163  17.259 -0.2824 -0.0423 -2.5957
 6908TIP3   OH242214   0.257   6.125  12.398 -0.3056 -0.4146 -0.0620
 6908TIP3    H142215   0.303   6.117  12.314  1.2466 -0.5671  0.7518
 6908TIP3    H242216   0.262   6.218  12.419 -3.1984  0.1455 -1.4188
 6909TIP3   OH242217   3.316   2.594   1.267  0.0282  0.0084  0.2048
 6909TIP3    H142218   3.384   2.657   1.287  0.5637 -0.7268  0.7691
 6909TIP3    H242219   3.348   2.511   1.304 -0.5866 -0.6266 -0.6231
 6910TIP3   OH242220   5.703   1.473   2.687 -0.1159 -0.7928 -0.6387
 6910TIP3    H142221   5.796   1.472   2.712 -0.3235 -0.6987  0.1531
 6910TIP3    H242222   5.683   1.566   2.676 -0.7294 -0.5965  1.6108
 6911TIP3   OH242223   2.221   4.304  14.521  0.8730  0.2325  0.1231
 6911TIP3    H142224   2.263   4.251  14.589  0.3619  0.4737  0.6325
 6911TIP3    H242225   2.233   4.394  14.550  2.7282  0.5132 -1.2966
 6912TIP3   OH242226   5.824   4.820   1.143 -0.3203 -0.1308 -0.1325
 6912TIP3    H142227   5.795   4.892   1.200  1.8028 -0.7976  1.9727
 6912TIP3    H242228   5.897   4.857   1.094 -1.7185  0.2343 -2.0555
 6913TIP3   OH242229   2.830   1.644   3.887 -0.7581 -0.0565 -0.1908
 6913TIP3    H142230   2.802   1.637   3.978 -2.0325  0.5404 -0.5193
 6913TIP3    H242231   2.905   1.704   3.889 -2.6002  2.3890  0.1662
 6914TIP3   OH242232   0.301   1.905   6.122  0.1992  0.2404  0.5382
 6914TIP3    H142233   0.298   1.994   6.087  0.3509  0.8538  2.0154
 6914TIP3    H242234   0.387   1.899   6.165  0.5359 -0.9067 -0.2390
 6915TIP3   OH242235   2.694   1.498   4.697 -0.4879 -0.4306  0.5852
 6915TIP3    H142236   2.741   1.556   4.638 -2.0863  1.0675  0.7062
 6915TIP3    H242237   2.750   1.491   4.774 -0.0337  0.5320  0.3541
 6916TIP3   OH242238   1.994   3.664  16.795 -0.1795  0.0082 -0.7683
 6916TIP3    H142239   1.924   3.604  16.768 -0.2762 -0.7798  1.1094
 6916TIP3    H242240   2.075   3.617  16.776 -0.2460 -0.5395  0.2693
 6917TIP3   OH242241   4.872   4.866   3.476 -0.4315  0.4482 -0.1566
 6917TIP3    H142242   4.856   4.961   3.480 -0.7052  0.4348 -0.8036
 6917TIP3    H242243   4.906   4.844   3.563  1.7591  1.5201 -0.6491
 6918TIP3   OH242244   6.210   5.009   3.411  0.1180 -0.1461 -0.4317
 6918TIP3    H142245   6.139   5.019   3.474 -2.2814  1.2200 -3.1279
 6918TIP3    H242246   6.245   4.921   3.428 -0.5430  0.0666  2.5491
 6919TIP3   OH242247   1.288   5.494  15.638  0.0790  0.5342 -0.3121
 6919TIP3    H142248   1.252   5.536  15.560  0.0597  0.3613 -0.3982
 6919TIP3    H242249   1.326   5.412  15.605 -1.2351 -0.2603  0.0611
 6920TIP3   OH242250   4.659   5.408  13.266 -0.0406 -0.5777 -0.6835
 6920TIP3    H142251   4.611   5.327  13.250  0.8769 -1.2276 -0.2824
 6920TIP3    H242252   4.716   5.418  13.189  1.2291 -1.3706  0.1105
 6921TIP3   OH242253   0.313   2.213  13.443  0.2002 -0.5366 -0.4209
 6921TIP3    H142254   0.238   2.183  13.391  0.6309 -0.7914 -0.8992
 6921TIP3    H242255   0.363   2.133  13.462  1.6583 -0.0897 -2.1780
 6922TIP3   OH242256   2.281   5.839   4.622 -0.4188 -0.3319  0.1121
 6922TIP3    H142257   2.196   5.831   4.579  0.3428  1.6109 -1.9553
 6922TIP3    H242258   2.272   5.915   4.679 -0.6943 -1.4849  1.6767
 6923TIP3   OH242259   1.897   3.149   3.141  0.0486  0.2487 -0.0368
 6923TIP3    H142260   1.907   3.137   3.046 -1.2825  0.9521 -0.2952
 6923TIP3    H242261   1.952   3.082   3.180  1.5782  0.7197 -1.3021
 6924TIP3   OH242262   0.340   2.132   4.794  0.7485  0.0981 -0.3865
 6924TIP3    H142263   0.409   2.076   4.831 -0.1488 -1.9885 -1.6794
 6924TIP3    H242264   0.384   2.183   4.726  1.1617 -0.6779 -0.7096
 6925TIP3   OH242265   4.213   5.195  17.108 -0.3490 -0.6539  0.1758
 6925TIP3    H142266   4.117   5.198  17.106 -0.3705 -1.0710  0.4806
 6925TIP3    H242267   4.234   5.120  17.164  0.1568 -0.5644  0.1139
 6926TIP3   OH242268   4.023   0.976  13.532 -0.2819 -0.9235 -0.5269
 6926TIP3    H142269   3.977   0.997  13.614  1.3774 -1.9149  0.7055
 6926TIP3    H242270   4.002   1.050  13.474 -0.9003  0.1815  1.0185
 6927TIP3   OH242271   1.420   0.462  16.903 -0.0170  0.4120 -0.0340
 6927TIP3    H142272   1.334   0.428  16.928 -0.3899  1.4044  0.1135
 6927TIP3    H242273   1.462   0.391  16.855  0.2146 -1.1145  2.2919
 6928TIP3   OH242274   2.585   5.139  14.468  0.0977  0.0651 -0.7986
 6928TIP3    H142275   2.537   5.222  14.470  0.0973  0.0498 -0.0085
 6928TIP3    H242276   2.535   5.080  14.524  1.5788  0.3737  0.9741
 6929TIP3   OH242277   1.872   6.706  11.661  0.1031  0.1054 -0.2979
 6929TIP3    H142278   1.891   6.671  11.574  3.7345  0.6865  0.0917
 6929TIP3    H242279   1.955   6.745  11.689 -1.6367  2.2274  2.3958
 6930TIP3   OH242280   6.733   4.347  11.485 -0.1660 -0.6252 -0.7104
 6930TIP3    H142281   6.683   4.280  11.532 -1.6509  1.1488  0.4020
 6930TIP3    H242282   6.678   4.425  11.490  2.5943  1.4044  0.3508
 6931TIP3   OH242283   6.018   4.983  13.009  0.4244 -0.1423  0.1013
 6931TIP3    H142284   5.948   4.938  12.961 -1.0644  1.3407  0.8143
 6931TIP3    H242285   5.991   5.074  13.012  0.6881 -0.0557  3.3125
 6932TIP3   OH242286   3.870   6.209   5.098  0.0829  0.1886 -0.0614
 6932TIP3    H142287   3.828   6.225   5.183  2.1495  0.2622  1.0159
 6932TIP3    H242288   3.803   6.167   5.045 -1.3209  0.3001  1.5616
 6933TIP3   OH242289   2.563   0.216   2.748  0.1504  0.0950  0.3923
 6933TIP3    H142290   2.483   0.232   2.798 -0.7253 -0.6774 -0.7211
 6933TIP3    H242291   2.568   0.289   2.686 -2.0901 -1.9325 -2.4649
 6934TIP3   OH242292   3.002   2.119   5.624 -0.1335  0.1347  0.9435
 6934TIP3    H142293   2.917   2.107   5.667 -0.0164 -1.0690  0.8711
 6934TIP3    H242294   3.027   2.209   5.647 -1.1864  0.3425  1.3781
 6935TIP3   OH242295   5.039   3.977  14.646 -0.5197 -0.3740 -0.2605
 6935TIP3    H142296   4.951   3.947  14.666  0.5900 -1.9989  2.9465
 6935TIP3    H242297   5.071   3.918  14.579 -0.6364 -2.3229  1.3120
 6936TIP3   OH242298   3.127   4.755  12.887  0.1057 -0.0604 -0.2201
 6936TIP3    H142299   3.155   4.844  12.908  2.6786 -0.5552 -1.1599
 6936TIP3    H242300   3.084   4.762  12.802  0.7404  0.2563 -0.5236
 6937TIP3   OH242301   2.246   2.503   0.467 -0.7102 -0.5707 -0.1063
 6937TIP3    H142302   2.243   2.597   0.450 -2.4318 -0.7828 -1.2505
 6937TIP3    H242303   2.201   2.492   0.551  0.9488 -0.2545  0.8643
 6938TIP3   OH242304   3.705   3.354  16.664 -0.3134 -0.2348  0.6897
 6938TIP3    H142305   3.689   3.419  16.732 -0.0564 -0.3805  0.8889
 6938TIP3    H242306   3.677   3.272  16.702 -1.7270 -0.0933  0.0297
 6939TIP3   OH242307   6.269   4.205  12.871 -0.1258 -0.2117 -0.4698
 6939TIP3    H142308   6.184   4.233  12.904  0.5536 -0.1901  1.4147
 6939TIP3    H242309   6.315   4.287  12.850 -0.0598 -0.1410 -0.0693
 6940TIP3   OH242310   6.317   1.018  15.578  0.7614 -0.2514 -0.3208
 6940TIP3    H142311   6.336   1.065  15.659 -0.8032 -0.7625  0.3809
 6940TIP3    H242312   6.328   0.926  15.601  2.2849 -0.3503 -1.2728
 6941TIP3   OH242313   3.607   5.755   0.650 -0.4338  0.0522  0.6727
 6941TIP3    H142314   3.529   5.809   0.640  0.2270  0.9675  0.3277
 6941TIP3    H242315   3.617   5.711   0.566  1.6595  3.0379 -0.7834
 6942TIP3   OH242316   1.059   3.898  15.249  0.2581 -0.2434  0.5477
 6942TIP3    H142317   0.990   3.921  15.187 -0.6851 -0.7766  1.3679
 6942TIP3    H242318   1.137   3.885  15.194 -0.9194 -2.3781 -0.7826
 6943TIP3   OH242319   3.626   4.063  16.907 -0.1907 -0.4819  0.3397
 6943TIP3    H142320   3.610   4.021  16.823  0.3719  0.9825 -0.5423
 6943TIP3    H242321   3.651   3.991  16.966  0.7167 -1.3802 -1.0866
 6944TIP3   OH242322   0.948   1.224  16.150 -0.0591  0.2320 -0.0893
 6944TIP3    H142323   0.961   1.135  16.118 -0.5634  0.5897 -1.4051
 6944TIP3    H242324   0.891   1.215  16.226  0.4895 -0.6133  0.2287
 6945TIP3   OH242325   1.241   3.058  14.490  0.2268 -0.6097 -0.0736
 6945TIP3    H142326   1.273   2.969  14.506  2.0352  0.1391  0.7635
 6945TIP3    H242327   1.314   3.102  14.449 -0.4483  0.6571  0.0488
 6946TIP3   OH242328   5.271   5.584   5.271  0.3921 -0.0233 -0.2266
 6946TIP3    H142329   5.243   5.534   5.348 -0.4733  0.9908  0.1440
 6946TIP3    H242330   5.348   5.631   5.301  0.3263  0.0147 -0.1134
 6947TIP3   OH242331   0.998   4.971  14.600 -0.5996 -0.2094  0.4745
 6947TIP3    H142332   1.029   5.055  14.634 -0.5643  0.3834 -0.9554
 6947TIP3    H242333   1.075   4.932  14.560 -1.1265  0.2025 -1.0057
 6948TIP3   OH242334   4.903   0.103  16.337  0.1981 -0.4001 -0.2671
 6948TIP3    H142335   4.866   0.191  16.324  1.6125  0.1958 -0.4550
 6948TIP3    H242336   4.994   0.119  16.360 -0.0520 -1.7362  1.9554
 6949TIP3   OH242337   3.086   0.204  13.290  0.1677  0.0301 -0.1915
 6949TIP3    H142338   3.165   0.167  13.250 -0.6803 -0.0255 -1.8745
 6949TIP3    H242339   3.114   0.229  13.378  2.1822  0.4567 -0.9029
 6950TIP3   OH242340   6.529   3.708   3.811  0.4708 -0.2570  0.0531
 6950TIP3    H142341   6.472   3.713   3.888 -1.4144 -1.1843 -1.2121
 6950TIP3    H242342   6.470   3.691   3.739  2.1478  0.9122 -1.6935
 6951TIP3   OH242343   5.874   5.619   3.513  0.0324  0.1453 -0.4528
 6951TIP3    H142344   5.942   5.552   3.503  0.2238  0.3614 -0.5803
 6951TIP3    H242345   5.804   5.573   3.559  0.6755  0.2034  0.6191
 6952TIP3   OH242346   4.680   2.427  13.363  0.3989  0.3276  0.6214
 6952TIP3    H142347   4.761   2.459  13.324 -0.5345  1.1408 -0.7084
 6952TIP3    H242348   4.658   2.492  13.430  1.6576 -0.7336  2.1379
 6953TIP3   OH242349   6.741   4.793   3.418 -0.4982 -0.4703  0.1734
 6953TIP3    H142350   6.646   4.802   3.421 -0.6786 -0.4634 -2.5030
 6953TIP3    H242351   6.773   4.884   3.412 -0.5497 -0.5148 -1.3138
 6954TIP3   OH242352   3.652   5.381  17.263  0.1031 -0.4477  0.0841
 6954TIP3    H142353   3.603   5.356  17.341  3.0690 -1.2772  1.8527
 6954TIP3    H242354   3.708   5.306  17.244  0.3486  0.2138 -2.1543
 6955TIP3   OH242355   6.705   4.176  12.216  0.0538  0.1487  0.0860
 6955TIP3    H142356   6.791   4.161  12.256  0.8817  2.4243 -0.6222
 6955TIP3    H242357   6.669   4.250  12.264  0.0215  1.3964 -1.7526
 6956TIP3   OH242358   6.429   6.349   0.963  0.3355 -0.3098 -0.1402
 6956TIP3    H142359   6.367   6.353   0.889  0.3779  0.5845 -0.1382
 6956TIP3    H242360   6.502   6.403   0.935 -0.5960  1.8780  1.4060
 6957TIP3   OH242361   2.048   0.798   2.021 -0.0461 -0.6818  0.4230
 6957TIP3    H142362   1.999   0.872   1.984 -0.1595 -0.1326  1.6347
 6957TIP3    H242363   2.140   0.824   2.011 -0.0393  1.4488  4.1662
 6958TIP3   OH242364   3.139   2.456  12.891 -0.0670  0.4173  0.9644
 6958TIP3    H142365   3.203   2.392  12.924  2.5610  0.7915 -2.6778
 6958TIP3    H242366   3.076   2.403  12.842 -0.5366  0.3295  1.6465
 6959TIP3   OH242367   3.334   6.579   3.334 -0.5222 -0.2343  0.1421
 6959TIP3    H142368   3.386   6.643   3.384 -1.4539  0.4127  0.3224
 6959TIP3    H242369   3.366   6.494   3.364  1.8362  0.0798 -1.2298
 6960TIP3   OH242370   5.482   1.941  13.277 -0.1024 -0.3612 -0.0654
 6960TIP3    H142371   5.478   1.875  13.208  0.1123  0.2664 -0.6922
 6960TIP3    H242372   5.564   1.924  13.322 -1.0270 -1.8338  1.1434
 6961TIP3   OH242373   1.342   3.022  10.715 -0.2362  0.2907 -0.1160
 6961TIP3    H142374   1.358   3.089  10.782  0.4202 -0.0259  0.0606
 6961TIP3    H242375   1.403   3.045  10.644  0.7628 -0.7061  0.3866
 6962TIP3   OH242376   5.293   5.719  16.080 -0.4540 -0.0754 -0.0322
 6962TIP3    H142377   5.344   5.734  16.000  1.5773  0.2676  1.2478
 6962TIP3    H242378   5.278   5.807  16.115 -1.3047 -0.2261  0.0084
 6963TIP3   OH242379   0.987   0.956  16.103  0.4962  0.5096  0.1293
 6963TIP3    H142380   1.068   0.978  16.057 -0.0489 -1.1781 -1.7712
 6963TIP3    H242381   0.976   0.862  16.090 -2.2837  0.8400 -0.5550
 6964TIP3   OH242382   2.639   0.721   3.267  0.0253  0.0536 -0.2771
 6964TIP3    H142383   2.572   0.709   3.200 -1.6192  0.7097  1.1804
 6964TIP3    H242384   2.680   0.805   3.245 -1.9740  1.3524  0.6751
 6965TIP3   OH242385   2.048   6.703   3.607  0.3271  0.5801 -0.3747
 6965TIP3    H142386   2.003   6.780   3.572 -0.1917  1.1107  1.3667
 6965TIP3    H242387   2.075   6.729   3.694 -0.2296 -1.3383  0.4191
 6966TIP3   OH242388   4.790   6.155  14.234 -0.3817 -0.8582 -0.3104
 6966TIP3    H142389   4.790   6.101  14.313  0.4535 -1.1350 -0.4833
 6966TIP3    H242390   4.729   6.111  14.175 -1.0063 -0.6516  0.1778
 6967TIP3   OH242391   4.466   0.141   4.536 -0.3450 -0.2621  0.3516
 6967TIP3    H142392   4.561   0.130   4.539 -0.4472 -1.8827 -0.9947
 6967TIP3    H242393   4.450   0.198   4.461 -0.4795 -0.9223 -0.1307
 6968TIP3   OH242394   2.810   3.085  10.828  0.4892  1.3459  1.2115
 6968TIP3    H142395   2.846   3.060  10.914 -0.8146  1.8896  1.9463
 6968TIP3    H242396   2.857   3.166  10.806  2.2540  0.1626  0.4429
 6969TIP3   OH242397   4.166   5.771  14.016 -0.8287  0.1131 -0.1241
 6969TIP3    H142398   4.197   5.721  14.091  1.2920 -0.2999 -1.1743
 6969TIP3    H242399   4.142   5.856  14.051 -1.9715 -0.7530  1.2998
 6970TIP3   OH242400   0.225   4.278  14.906  0.2427 -0.2149 -0.2832
 6970TIP3    H142401   0.212   4.264  14.812  3.0441 -3.3643 -0.4174
 6970TIP3    H242402   0.231   4.189  14.943  1.1372  0.8875  2.5391
 6971TIP3   OH242403   5.071   2.183   5.319  0.3866  0.0337 -0.1840
 6971TIP3    H142404   5.079   2.192   5.224  0.2252 -0.1228 -0.2122
 6971TIP3    H242405   5.003   2.117   5.331 -0.6749  1.1533  0.0616
 6972TIP3   OH242406   5.191   0.101   3.783  0.4344 -0.0645 -0.3190
 6972TIP3    H142407   5.208   0.044   3.708 -1.3483 -1.7713  0.4770
 6972TIP3    H242408   5.198   0.044   3.859 -0.4905  0.9969  0.5986
 6973TIP3   OH242409   3.313   2.453   1.586  0.1545 -0.1553  0.3041
 6973TIP3    H142410   3.330   2.394   1.512  0.0413  1.5299 -1.1205
 6973TIP3    H242411   3.370   2.421   1.655  1.2486 -1.0122 -0.9347
 6974TIP3   OH242412   0.274   1.579  15.795  0.3078 -0.0959  0.2542
 6974TIP3    H142413   0.191   1.539  15.817  0.3470  0.0037  0.5896
 6974TIP3    H242414   0.288   1.645  15.863  1.2356 -0.9277  0.9050
 6975TIP3   OH242415   5.186   4.989   1.237  0.4598 -0.6125 -0.3909
 6975TIP3    H142416   5.142   4.907   1.216  0.6502 -1.6854  2.7700
 6975TIP3    H242417   5.236   5.011   1.159  1.1831 -4.0488 -1.0401
 6976TIP3   OH242418   6.270   6.418  10.720 -0.7483 -0.2857 -0.6973
 6976TIP3    H142419   6.231   6.467  10.793  0.4594  0.1354 -0.3045
 6976TIP3    H242420   6.235   6.330  10.729 -0.4085 -0.3165  0.5913
 6977TIP3   OH242421   0.117   4.957   1.467 -0.2529 -0.2225  0.1702
 6977TIP3    H142422   0.113   5.003   1.551  2.1767  0.8101 -0.2058
 6977TIP3    H242423   0.115   5.026   1.401  0.4579 -0.8358 -0.5175
 6978TIP3   OH242424   3.007   2.083   4.355 -0.0194  0.6502 -0.8329
 6978TIP3    H142425   3.026   2.175   4.374 -1.7676  1.0209 -0.7598
 6978TIP3    H242426   2.986   2.044   4.440 -0.0015  0.3612 -0.9579
 6979TIP3   OH242427   1.439   4.964  14.581 -0.0658 -0.3296  0.1793
 6979TIP3    H142428   1.415   5.053  14.557 -0.0344 -0.6878 -1.2265
 6979TIP3    H242429   1.442   4.965  14.677  0.1979  1.2334  0.1657
 6980TIP3   OH242430   6.205   0.136  10.751 -0.0877  0.6360 -0.1266
 6980TIP3    H142431   6.184   0.192  10.676 -0.1861 -0.0471 -0.6153
 6980TIP3    H242432   6.130   0.146  10.810 -1.2947 -0.8403 -1.3164
 6981TIP3   OH242433   6.619   6.422  15.456  0.0994  0.4876 -0.1313
 6981TIP3    H142434   6.590   6.421  15.547  0.1069  1.5313 -0.1063
 6981TIP3    H242435   6.653   6.334  15.440 -1.2387 -0.1467  0.4350
 6982TIP3   OH242436   4.061   1.507   0.526 -0.4561 -0.0171 -0.4192
 6982TIP3    H142437   4.133   1.562   0.557 -0.6241 -0.7251  1.3495
 6982TIP3    H242438   4.094   1.468   0.445  0.6224  0.7378 -0.3608
 6983TIP3   OH242439   3.998   5.549  14.857  0.5977  0.1774 -0.4185
 6983TIP3    H142440   4.047   5.585  14.783 -1.5334  1.4676 -1.3187
 6983TIP3    H242441   4.024   5.603  14.932  0.8581  0.5726 -0.7868
 6984TIP3   OH242442   6.166   4.734  12.520  0.6193 -0.0566  0.0524
 6984TIP3    H142443   6.136   4.651  12.557  0.3168  0.2724  0.5786
 6984TIP3    H242444   6.261   4.727  12.518  0.5675 -0.7002 -0.6168
 6985TIP3   OH242445   5.394   6.288  13.541 -0.1800 -1.2545  0.0721
 6985TIP3    H142446   5.385   6.269  13.634  0.3714 -2.3979 -0.0907
 6985TIP3    H242447   5.374   6.204  13.498 -1.7294 -0.4258 -0.9186
 6986TIP3   OH242448   5.920   1.716  11.761 -0.0577  0.0836 -0.3991
 6986TIP3    H142449   5.863   1.746  11.831  0.0362  1.1978 -0.7843
 6986TIP3    H242450   6.005   1.756  11.781  0.0853  0.0276 -0.8917
 6987TIP3   OH242451   6.608   1.948   0.281 -0.1926  0.1493 -0.0398
 6987TIP3    H142452   6.543   1.884   0.309  1.2530 -1.2496  0.3060
 6987TIP3    H242453   6.617   1.933   0.187 -0.6073  0.5863 -0.1530
 6988TIP3   OH242454   1.399   6.299  15.356  0.0088  0.2575  0.6604
 6988TIP3    H142455   1.410   6.244  15.278 -1.2376 -2.4013  2.2133
 6988TIP3    H242456   1.483   6.293  15.401  0.2338  0.5598  0.2943
 6989TIP3   OH242457   2.385   6.555  17.191  0.4360  0.1753  0.0301
 6989TIP3    H142458   2.322   6.531  17.258 -0.5466  0.0919 -0.8976
 6989TIP3    H242459   2.455   6.600  17.238 -0.9446  1.4628  0.9193
 6990TIP3   OH242460   4.951   4.524  16.855  0.7386  0.1305 -0.0442
 6990TIP3    H142461   4.863   4.562  16.858  0.7065  0.1427 -0.8906
 6990TIP3    H242462   4.947   4.458  16.785  1.6569  0.7966 -0.7499
 6991TIP3   OH242463   4.161   1.068   0.718 -0.1740  0.4229  0.5419
 6991TIP3    H142464   4.230   1.077   0.653  0.2685  0.8657  1.0561
 6991TIP3    H242465   4.112   0.990   0.692  0.4854  0.1434  0.1417
 6992TIP3   OH242466   2.741   0.226  14.234 -0.3289 -0.2695  0.2290
 6992TIP3    H142467   2.826   0.230  14.278 -1.6160  0.4238  2.9389
 6992TIP3    H242468   2.737   0.306  14.181  0.9011 -0.5860 -0.3582
 6993TIP3   OH242469   0.417   3.704   4.945 -0.0343  0.0529 -0.2304
 6993TIP3    H142470   0.424   3.668   5.033 -1.6528  0.1161 -0.0437
 6993TIP3    H242471   0.435   3.630   4.886  1.1405  0.0347  0.1380
 6994TIP3   OH242472   3.325   0.613  12.512 -0.2969 -0.4515  0.2729
 6994TIP3    H142473   3.388   0.630  12.441  2.0422 -2.4594  1.7048
 6994TIP3    H242474   3.323   0.694  12.562 -0.8421  0.4857 -1.1922
 6995TIP3   OH242475   2.255   1.940  11.467  0.0255  0.7642  0.2392
 6995TIP3    H142476   2.298   1.954  11.383  1.4585  0.2194  0.8434
 6995TIP3    H242477   2.262   2.024  11.513 -0.6431  1.0239 -0.1227
 6996TIP3   OH242478   6.398   5.614  14.744 -0.1805 -0.2542  0.1629
 6996TIP3    H142479   6.309   5.642  14.721  0.2646 -0.9154 -2.7624
 6996TIP3    H242480   6.385   5.530  14.789 -1.0288 -1.8663 -2.8458
 6997TIP3   OH242481   5.776   3.823  16.270  0.2560 -0.0496 -0.2882
 6997TIP3    H142482   5.748   3.879  16.341  0.3658 -1.9504  1.3396
 6997TIP3    H242483   5.860   3.860  16.242 -0.5841  1.6946 -0.6266
 6998TIP3   OH242484   5.373   1.966  14.981 -0.1771 -0.7414 -0.2528
 6998TIP3    H142485   5.310   1.948  14.912 -1.0361  1.7995 -0.2284
 6998TIP3    H242486   5.348   1.908  15.053 -2.8735  0.5004 -0.0597
 6999TIP3   OH242487   5.730   4.828  14.891  0.6014  0.1053  0.3351
 6999TIP3    H142488   5.687   4.844  14.975 -1.6109  0.0433 -0.7237
 6999TIP3    H242489   5.814   4.788  14.915  0.4838  1.0173  2.5278
 7000TIP3   OH242490   3.784   6.537  15.835  0.1028  0.2301 -0.1443
 7000TIP3    H142491   3.718   6.483  15.790  0.0495 -0.3058  0.5551
 7000TIP3    H242492   3.865   6.485  15.829  0.0248  0.0034  0.6418
 7001TIP3   OH242493   1.650   5.641  15.794 -0.0224 -0.2704 -0.1781
 7001TIP3    H142494   1.616   5.566  15.843  0.5468 -0.1661  0.3981
 7001TIP3    H242495   1.744   5.641  15.813 -0.0962  0.8982  0.2772
 7002TIP3   OH242496   3.473   0.283  14.185 -0.6237 -0.5041  0.6835
 7002TIP3    H142497   3.468   0.197  14.144 -1.5054 -1.1672  2.0948
 7002TIP3    H242498   3.411   0.337  14.135  0.4351 -0.4545 -0.6399
 7003TIP3   OH242499   5.582   2.623   0.452  0.2053  0.8137 -0.0518
 7003TIP3    H142500   5.595   2.633   0.358  1.5067 -0.9509 -0.1020
 7003TIP3    H242501   5.496   2.662   0.468 -0.5373  0.1770 -2.1377
 7004TIP3   OH242502   0.760   1.393  16.810  0.7453 -0.0222  0.6553
 7004TIP3    H142503   0.735   1.451  16.882 -1.1338  1.2209 -0.8981
 7004TIP3    H242504   0.802   1.449  16.746 -2.1990  0.0727 -1.4274
 7005TIP3   OH242505   2.752   0.882   2.941  0.6813  0.2547  0.4171
 7005TIP3    H142506   2.688   0.916   2.878 -0.2683 -1.0821  0.6258
 7005TIP3    H242507   2.733   0.789   2.946 -0.2611  0.4929  3.7473
 7006TIP3   OH242508   2.488   3.986  15.427  0.9459  1.0335 -0.2811
 7006TIP3    H142509   2.421   4.004  15.492  0.2368 -1.8976 -0.0569
 7006TIP3    H242510   2.440   3.957  15.350  1.8796 -0.1072 -0.4659
 7007TIP3   OH242511   6.604   1.009   3.470 -0.1120  0.4570 -0.0659
 7007TIP3    H142512   6.639   1.089   3.430  0.1680  0.6854  0.6153
 7007TIP3    H242513   6.680   0.952   3.481 -0.2937  0.1348 -0.4476
 7008TIP3   OH242514   4.015   6.175   2.194  0.2966  0.4481 -0.5408
 7008TIP3    H142515   4.075   6.236   2.238  1.7799 -1.7724  0.6811
 7008TIP3    H242516   4.044   6.088   2.222 -3.1491 -0.7899 -0.3588
 7009TIP3   OH242517   1.471   0.788   1.385  0.0477 -0.4741  0.7778
 7009TIP3    H142518   1.468   0.702   1.341  1.6838 -0.8687  1.3830
 7009TIP3    H242519   1.446   0.850   1.317 -0.5631 -1.3757  0.1579
 7010TIP3   OH242520   6.215   4.488  17.193  0.4604  0.1903 -0.2306
 7010TIP3    H142521   6.172   4.569  17.165  1.8170  1.0725  0.1097
 7010TIP3    H242522   6.228   4.438  17.113 -0.7965  0.0928 -0.3819
 7011TIP3   OH242523   3.659   6.478   5.227 -0.1682 -0.2130 -0.0119
 7011TIP3    H142524   3.749   6.508   5.241  0.0117 -1.2310  1.2215
 7011TIP3    H242525   3.618   6.547   5.175  1.1670  0.5186 -0.1334
 7012TIP3   OH242526   2.184   1.697  15.538  0.0288  0.2245  0.7456
 7012TIP3    H142527   2.162   1.746  15.459  1.5461 -1.9451 -1.1390
 7012TIP3    H242528   2.103   1.651  15.561  0.0193 -0.4820 -0.6169
 7013TIP3   OH242529   6.804   3.569   3.744 -0.6335 -0.2172  0.1192
 7013TIP3    H142530   6.789   3.513   3.668 -2.1447 -0.4587  0.5473
 7013TIP3    H242531   6.723   3.620   3.753  0.6756  2.0882 -0.2498
 7014TIP3   OH242532   6.350   0.887  15.948 -0.1027 -0.0624 -0.1857
 7014TIP3    H142533   6.362   0.965  16.003 -0.8638  0.6172 -0.9409
 7014TIP3    H242534   6.261   0.896  15.914  0.1372 -0.7827 -1.0379
 7015TIP3   OH242535   0.913   2.180   6.191 -0.1563  0.4616 -0.1616
 7015TIP3    H142536   0.985   2.239   6.214  0.6665  0.7449 -3.0040
 7015TIP3    H242537   0.947   2.092   6.208 -0.2077  0.6724  1.1047
 7016TIP3   OH242538   1.663   6.043   1.843  0.4287  0.3573  0.0260
 7016TIP3    H142539   1.576   6.002   1.838  0.6566 -0.0257 -1.2973
 7016TIP3    H242540   1.649   6.133   1.812  0.5239  0.2560 -0.3126
 7017TIP3   OH242541   5.762   1.563   4.743 -0.2328 -0.0577  0.2708
 7017TIP3    H142542   5.742   1.623   4.671 -0.9283 -0.6012  0.0006
 7017TIP3    H242543   5.695   1.495   4.737 -0.3957 -0.0298  1.5300
 7018TIP3   OH242544   1.711   5.277  12.404 -0.4945 -0.6356  0.2362
 7018TIP3    H142545   1.660   5.240  12.331 -0.9302 -1.3629  0.8945
 7018TIP3    H242546   1.775   5.335  12.362 -1.4920 -0.1526 -0.6406
 7019TIP3   OH242547   3.890   0.220   0.678 -0.0618  0.1034 -0.6903
 7019TIP3    H142548   3.914   0.163   0.604 -1.3587  0.3524 -1.3325
 7019TIP3    H242549   3.890   0.162   0.754  1.1652 -0.1842 -0.8946
 7020TIP3   OH242550   0.303   3.826   4.718  0.2005 -0.1249  0.0776
 7020TIP3    H142551   0.333   3.781   4.797  1.5044  0.7843  0.1205
 7020TIP3    H242552   0.328   3.768   4.646 -1.7826 -1.3947  0.3133
 7021TIP3   OH242553   4.327   5.048  14.827  0.3908 -0.0317  0.2793
 7021TIP3    H142554   4.335   5.098  14.746 -1.4893  2.5365  1.5251
 7021TIP3    H242555   4.417   5.034  14.857  1.0385  0.7354 -1.2235
 7022TIP3   OH242556   4.097   1.302  15.008  0.4971 -0.1095  0.1479
 7022TIP3    H142557   4.122   1.217  14.972  1.9051  0.2039  0.3156
 7022TIP3    H242558   4.113   1.294  15.102 -0.7037 -0.0950  0.3671
 7023TIP3   OH242559   4.591   1.005  11.405  0.1987 -0.2952 -0.2192
 7023TIP3    H142560   4.570   0.912  11.418 -1.5481 -0.1030 -1.3304
 7023TIP3    H242561   4.540   1.030  11.328  0.3590  1.6805  0.2708
 7024TIP3   OH242562   0.174   6.021   0.465  0.7371 -0.3746  0.4775
 7024TIP3    H142563   0.122   6.014   0.545  0.0275 -0.6227 -0.0040
 7024TIP3    H242564   0.129   5.965   0.402 -1.2266  3.1126 -1.4542
 7025TIP3   OH242565   3.258   2.155  14.281  0.0335  0.2275 -0.3364
 7025TIP3    H142566   3.287   2.086  14.341 -1.8491  0.9563  1.5462
 7025TIP3    H242567   3.317   2.228  14.299  1.0520 -0.3531 -1.2201
 7026TIP3   OH242568   2.175   0.833  14.158  0.3559 -0.8661  0.1247
 7026TIP3    H142569   2.243   0.892  14.126  1.4675 -1.6370  0.9757
 7026TIP3    H242570   2.109   0.890  14.197  0.2204 -0.0733 -1.1953
 7027TIP3   OH242571   6.101   6.086   6.353 -0.0238 -0.0431  0.1718
 7027TIP3    H142572   6.186   6.050   6.328 -0.2459  0.9011 -2.1683
 7027TIP3    H242573   6.119   6.133   6.435  2.1883  1.7218 -1.2117
 7028TIP3   OH242574   5.899   3.281  15.971 -0.3915 -0.5217 -0.7368
 7028TIP3    H142575   5.809   3.254  15.990 -0.8379  0.4921 -1.2586
 7028TIP3    H242576   5.889   3.355  15.910  0.8062 -0.5606 -1.0151
 7029TIP3   OH242577   0.438   3.702  13.113 -0.1883 -0.0273  0.5391
 7029TIP3    H142578   0.479   3.670  13.193  1.3071 -0.2692 -0.2754
 7029TIP3    H242579   0.511   3.712  13.052 -1.2109  0.7446 -0.6003
 7030TIP3   OH242580   2.356   3.656  12.273  0.3938  0.5212  0.0100
 7030TIP3    H142581   2.261   3.657  12.284  0.1216  0.0025 -1.8838
 7030TIP3    H242582   2.374   3.730  12.214  1.0378  0.0672 -0.3757
 7031TIP3   OH242583   1.713   4.076   1.370  0.3061  0.3215 -0.0601
 7031TIP3    H142584   1.645   4.058   1.304  0.0460  1.7641 -0.2080
 7031TIP3    H242585   1.680   4.034   1.450  0.3228 -0.9013 -0.6709
 7032TIP3   OH242586   0.216   1.163  14.062 -0.1349  0.7798 -0.5965
 7032TIP3    H142587   0.176   1.248  14.047  0.8965  1.5513  0.7978
 7032TIP3    H242588   0.304   1.182  14.095  0.1872 -0.8217 -0.4132
 7033TIP3   OH242589   6.056   1.317  11.803  0.7660  0.1800  0.3784
 7033TIP3    H142590   5.979   1.295  11.750  0.1885  0.8081  0.9263
 7033TIP3    H242591   6.087   1.232  11.836 -0.8526  0.0296  1.7014
 7034TIP3   OH242592   1.385   5.632  13.898 -0.3336  0.5092  0.2404
 7034TIP3    H142593   1.324   5.703  13.918 -2.1883 -0.8682 -0.1866
 7034TIP3    H242594   1.394   5.634  13.803 -0.1019  0.4141  0.2607
 7035TIP3   OH242595   5.299   0.368  15.592  0.0393 -0.4048 -0.0603
 7035TIP3    H142596   5.354   0.315  15.535  0.8289  0.8050 -0.4512
 7035TIP3    H242597   5.349   0.377  15.673  0.7133  1.1467 -0.6056
 7036TIP3   OH242598   1.126   4.903   1.348 -0.2291  0.0248  0.4138
 7036TIP3    H142599   1.075   4.869   1.275 -3.0719  1.9862  1.2997
 7036TIP3    H242600   1.187   4.965   1.308  1.8837 -2.5999 -0.7078
 7037TIP3   OH242601   2.120   3.440  16.741 -0.1489  0.3607  0.7889
 7037TIP3    H142602   2.071   3.418  16.662  0.4390  1.8197 -0.0338
 7037TIP3    H242603   2.169   3.361  16.762 -2.2576 -0.9097  1.2339
 7038TIP3   OH242604   4.529   2.449  13.797 -0.2391  0.3784 -0.3512
 7038TIP3    H142605   4.449   2.499  13.814 -0.1980 -0.0027  1.1340
 7038TIP3    H242606   4.531   2.439  13.702 -0.7689  2.2989 -0.6069
 7039TIP3   OH242607   5.957   3.484   6.264 -0.1743 -0.1909  0.6126
 7039TIP3    H142608   5.927   3.441   6.184 -0.2226  1.0573 -0.0780
 7039TIP3    H242609   5.890   3.464   6.329 -0.6620 -0.3931  0.0565
 7040TIP3   OH242610   1.910   1.392  16.590  0.2179  0.3751  0.1638
 7040TIP3    H142611   1.969   1.378  16.516 -0.0634 -2.5484  0.3575
 7040TIP3    H242612   1.826   1.357  16.561 -0.4419  1.1045  1.1446
 7041TIP3   OH242613   5.914   5.296  12.511 -0.0314  0.2387 -0.1866
 7041TIP3    H142614   5.971   5.344  12.451  2.3038 -1.3154  0.6770
 7041TIP3    H242615   5.922   5.344  12.594  2.0692 -1.3326  0.5962
 7042TIP3   OH242616   3.696   4.870  11.463 -0.1373 -0.8744  0.3385
 7042TIP3    H142617   3.735   4.903  11.544  1.3294 -1.8107  0.0563
 7042TIP3    H242618   3.623   4.930  11.445  0.6278  0.4221  1.3837
 7043TIP3   OH242619   5.896   2.024  13.390  0.2700 -0.5827  0.0014
 7043TIP3    H142620   5.952   2.081  13.337  0.0327 -0.1085  0.2567
 7043TIP3    H242621   5.949   2.001  13.466  0.2326 -0.3877  0.0877
 7044TIP3   OH242622   3.968   2.308  14.808 -0.0595 -0.0190  0.6545
 7044TIP3    H142623   4.001   2.319  14.718  0.3317 -3.0124  0.3369
 7044TIP3    H242624   3.887   2.258  14.798 -0.7711  0.8355  1.9264
 7045TIP3   OH242625   4.955   3.226   5.287 -0.3887  0.2723 -0.6536
 7045TIP3    H142626   4.921   3.165   5.222 -2.2419  0.1476  0.3629
 7045TIP3    H242627   4.949   3.180   5.370 -1.5330  1.6693  0.0932
 7046TIP3   OH242628   4.812   5.021   4.922  0.2140  0.4073  0.4303
 7046TIP3    H142629   4.800   4.996   4.830 -0.9766  2.4884 -0.0428
 7046TIP3    H242630   4.885   5.083   4.920  0.9272 -0.3847  1.0864
 7047TIP3   OH242631   1.635   1.284   4.199 -0.0862 -0.0889  0.0528
 7047TIP3    H142632   1.562   1.302   4.258 -0.3006 -0.3891 -0.1154
 7047TIP3    H242633   1.711   1.321   4.242 -0.1384 -0.8530  0.8189
 7048TIP3   OH242634   4.681   5.986   5.333  0.6669 -0.1783  0.3004
 7048TIP3    H142635   4.632   5.971   5.414  0.6700  0.2984  0.3908
 7048TIP3    H242636   4.652   6.071   5.302 -0.5276 -1.0431 -1.0639
 7049TIP3   OH242637   6.556   3.276   2.748 -0.1222 -0.1731 -0.1874
 7049TIP3    H142638   6.482   3.215   2.757 -1.2598  1.0665 -0.7332
 7049TIP3    H242639   6.534   3.349   2.806 -0.0370  0.8560 -1.4064
 7050TIP3   OH242640   4.899   4.894  12.889  0.2351  0.4202 -0.2388
 7050TIP3    H142641   4.905   4.984  12.923  0.7947  0.9424 -1.6252
 7050TIP3    H242642   4.964   4.845  12.938  0.0241  0.7956  0.4353
 7051TIP3   OH242643   2.873   0.034  13.190  0.0706  0.5085  0.1400
 7051TIP3    H142644   2.927   0.105  13.226 -0.2911  1.4424 -1.0926
 7051TIP3    H242645   2.860  -0.025  13.264  0.7439  1.5028  1.0993
 7052TIP3   OH242646   4.111   5.984   3.269  0.8550  0.3021 -0.7475
 7052TIP3    H142647   4.071   5.936   3.196  1.2965 -0.1418 -0.7001
 7052TIP3    H242648   4.092   5.930   3.346  0.4880  0.7140 -0.5457
 7053TIP3   OH242649   4.067   6.734   4.067 -0.9833  0.3285 -0.2159
 7053TIP3    H142650   4.029   6.672   4.130 -2.0485  2.6181  1.5145
 7053TIP3    H242651   4.139   6.775   4.114  0.3780 -0.2687 -1.7100
 7054TIP3   OH242652   4.591   4.935   6.076 -0.0926 -0.4290 -0.4674
 7054TIP3    H142653   4.667   4.934   6.135  0.1034  1.8877 -0.5816
 7054TIP3    H242654   4.532   4.869   6.112  0.2477  0.5183  2.0611
 7055TIP3   OH242655   3.900   4.364  13.929  0.2901 -0.2471 -0.2383
 7055TIP3    H142656   3.959   4.434  13.899 -1.9235  1.4032 -1.0164
 7055TIP3    H242657   3.864   4.327  13.848 -2.5551  1.4139  0.1109
 7056TIP3   OH242658   6.434   1.784   0.536 -0.3352  0.4825 -0.0565
 7056TIP3    H142659   6.366   1.752   0.596  0.4577 -0.3477  0.4239
 7056TIP3    H242660   6.490   1.707   0.521 -0.2742  0.7963 -1.5222
 7057TIP3   OH242661   4.675   6.275   6.422 -0.0906 -0.0791 -0.2018
 7057TIP3    H142662   4.593   6.234   6.397 -0.9657  0.9888  0.8065
 7057TIP3    H242663   4.696   6.333   6.348  0.8910 -1.8844 -1.4005
 7058TIP3   OH242664   5.222   1.574   3.296  0.2156  0.0091  0.4290
 7058TIP3    H142665   5.284   1.544   3.229 -0.0304 -0.0098  0.2076
 7058TIP3    H242666   5.190   1.494   3.337  0.6027  0.0351  0.7847
 7059TIP3   OH242667   0.934   4.485  13.356 -0.2956 -0.6017  0.1329
 7059TIP3    H142668   0.923   4.569  13.313 -1.8138 -0.6544  0.3602
 7059TIP3    H242669   1.023   4.487  13.391 -0.4627  1.0922  0.5343
 7060TIP3   OH242670   6.804   3.296  11.469  0.7465 -0.1763  0.2718
 7060TIP3    H142671   6.881   3.346  11.497 -0.9140  3.0488 -0.3659
 7060TIP3    H242672   6.765   3.264  11.551  1.0994  0.8789  0.8702
 7061TIP3   OH242673   3.127   6.307   5.666  0.7972  0.5457 -0.5959
 7061TIP3    H142674   3.146   6.279   5.755  1.7605 -0.0412 -0.9719
 7061TIP3    H242675   3.138   6.228   5.613  0.8812  1.0353 -1.3240
 7062TIP3   OH242676   0.429   1.742   0.574 -0.0625 -0.1489  0.5328
 7062TIP3    H142677   0.461   1.701   0.655  0.8349 -3.0365 -1.1605
 7062TIP3    H242678   0.504   1.740   0.515 -1.2757 -0.0318 -1.0779
 7063TIP3   OH242679   0.898   3.394   0.547 -0.4689  0.0742  0.0861
 7063TIP3    H142680   0.935   3.305   0.548  1.9786  1.0134 -0.3462
 7063TIP3    H242681   0.905   3.423   0.638  1.4297  0.8192 -0.2670
 7064TIP3   OH242682   0.661   6.729   0.563 -0.1780  0.1319 -0.6212
 7064TIP3    H142683   0.599   6.682   0.508  0.3483  0.3816 -1.4373
 7064TIP3    H242684   0.689   6.804   0.510 -0.4017  0.9317  0.3555
 7065TIP3   OH242685   4.536   4.776   2.744  0.1848  0.3340 -0.7343
 7065TIP3    H142686   4.486   4.726   2.809  0.6710  0.8863  0.0917
 7065TIP3    H242687   4.552   4.860   2.787  2.5628 -0.1261 -0.6270
 7066TIP3   OH242688   1.819   5.625   4.900  0.4936  0.7174  0.2644
 7066TIP3    H142689   1.844   5.599   4.989  0.3216  1.1976  0.4534
 7066TIP3    H242690   1.800   5.542   4.856  0.0403  0.5069  0.8339
 7067TIP3   OH242691   5.302   2.444   1.815  0.0491  0.4293 -0.1802
 7067TIP3    H142692   5.219   2.397   1.809 -0.9331  1.7924  1.6063
 7067TIP3    H242693   5.281   2.525   1.862  2.4584  0.6542  0.7012
 7068TIP3   OH242694   5.342   6.281   4.135  0.5820 -0.2461 -0.1900
 7068TIP3    H142695   5.299   6.237   4.209 -1.6620  3.2924  0.8962
 7068TIP3    H242696   5.297   6.246   4.058 -0.8379 -0.2477  0.5863
 7069TIP3   OH242697   1.122   0.737   2.461  0.0040  0.2343 -0.3786
 7069TIP3    H142698   1.123   0.711   2.369  0.1214 -1.6880  0.1205
 7069TIP3    H242699   1.035   0.777   2.473 -0.2916 -0.1401 -1.1669
 7070TIP3   OH242700   3.349   1.605  14.757 -0.7548  0.3451  0.1349
 7070TIP3    H142701   3.275   1.636  14.810 -0.6301  0.7399  0.0802
 7070TIP3    H242702   3.311   1.587  14.671 -0.8641  0.1674  0.2203
 7071TIP3   OH242703   3.014   0.833   3.080  0.6471  0.4086 -0.2607
 7071TIP3    H142704   2.937   0.857   3.030 -0.3366 -0.7459  0.6518
 7071TIP3    H242705   3.052   0.917   3.108  0.0718  0.9942 -1.2014
 7072TIP3   OH242706   5.958   6.382   5.321  0.7007  0.1038  0.0576
 7072TIP3    H142707   5.928   6.434   5.246  2.0786 -0.7861 -1.1771
 7072TIP3    H242708   5.951   6.292   5.292 -0.9215 -0.4175  1.8966
 7073TIP3   OH242709   5.279   1.693   2.596  0.1502  0.8610  0.2720
 7073TIP3    H142710   5.269   1.761   2.663  0.0915  1.6934 -0.5510
 7073TIP3    H242711   5.351   1.639   2.627  1.1341  2.1292  0.2924
 7074TIP3   OH242712   6.122   5.814   0.262 -0.0143 -0.0043  0.2361
 7074TIP3    H142713   6.096   5.847   0.176 -0.2256  0.3570  0.4397
 7074TIP3    H242714   6.085   5.876   0.324 -1.4143 -1.2427  0.6841
 7075TIP3   OH242715   5.785   4.734  10.884 -0.2213  0.1137  0.0430
 7075TIP3    H142716   5.880   4.745  10.890 -0.1422 -0.5296  0.0445
 7075TIP3    H242717   5.753   4.819  10.855  0.3079  0.4802  0.4999
 7076TIP3   OH242718   1.267   1.825  12.307 -0.2686 -0.1350 -0.5294
 7076TIP3    H142719   1.362   1.835  12.294 -0.2287  0.7147  0.2461
 7076TIP3    H242720   1.233   1.914  12.298 -1.0277 -0.4657 -0.9899
 7077TIP3   OH242721   4.613   3.864  13.113 -0.3750  0.3649  0.0739
 7077TIP3    H142722   4.568   3.796  13.064 -1.3864  1.5306 -0.6773
 7077TIP3    H242723   4.551   3.936  13.117 -0.2376  0.4270  2.9024
 7078TIP3   OH242724   0.737   3.828   3.322  0.2324  0.0061 -0.5512
 7078TIP3    H142725   0.681   3.775   3.266  0.1787  0.7245 -1.1878
 7078TIP3    H242726   0.677   3.884   3.371  0.3761  1.6258 -2.0868
 7079TIP3   OH242727   0.500   1.195  15.008  0.4412 -0.2451  0.4859
 7079TIP3    H142728   0.438   1.212  15.079  1.2147 -2.6612  1.8606
 7079TIP3    H242729   0.446   1.180  14.931 -0.4582  1.4859  0.7231
 7080TIP3   OH242730   3.419   5.155  10.602 -0.1933  0.1432  0.4169
 7080TIP3    H142731   3.509   5.188  10.598 -0.1473  0.2497  1.8752
 7080TIP3    H242732   3.364   5.234  10.604 -0.3449  0.0785 -0.6524
 7081TIP3   OH242733   3.959   5.074   0.858 -0.3377 -0.1521 -0.1949
 7081TIP3    H142734   3.929   5.161   0.883 -1.7918 -0.9857  1.2591
 7081TIP3    H242735   3.882   5.033   0.819 -0.1316 -1.2384  0.4838
 7082TIP3   OH242736   4.506   5.486   2.227 -0.2341  0.4693 -0.0006
 7082TIP3    H142737   4.525   5.543   2.301  1.1731 -1.9540  1.6280
 7082TIP3    H242738   4.419   5.450   2.247  0.7317 -1.2708  1.3035
 7083TIP3   OH242739   5.087   5.245  15.420  0.6099  0.0490  0.2670
 7083TIP3    H142740   5.071   5.153  15.402 -3.3072  0.8131 -0.9126
 7083TIP3    H242741   5.043   5.262  15.504 -0.1554  1.1595 -0.3319
 7084TIP3   OH242742   0.517   1.153  15.742 -0.3562 -0.1859  0.1530
 7084TIP3    H142743   0.590   1.139  15.681  1.7292  3.3579  1.5534
 7084TIP3    H242744   0.454   1.205  15.692 -0.3072 -0.2975 -0.0264
 7085TIP3   OH242745   3.228   3.592  14.769  0.7435  0.3207  0.3187
 7085TIP3    H142746   3.316   3.586  14.805  0.5873  0.3489  0.7122
 7085TIP3    H242747   3.189   3.506  14.789  0.4464  0.5600  0.7799
 7086TIP3   OH242748   3.886   4.092   6.266  0.3515 -0.2984  0.2569
 7086TIP3    H142749   3.944   4.057   6.198  0.4195  0.2790  0.0206
 7086TIP3    H242750   3.819   4.023   6.278 -0.4756  0.1819 -1.3842
 7087TIP3   OH242751   2.350   1.568   5.393  0.3598  0.2700 -0.3791
 7087TIP3    H142752   2.404   1.490   5.403 -0.7452 -1.1513 -3.9255
 7087TIP3    H242753   2.410   1.636   5.361  0.7742 -0.0319 -0.2453
 7088TIP3   OH242754   1.916   0.845   0.568  0.1814 -0.7472 -0.2048
 7088TIP3    H142755   1.847   0.781   0.549  0.3467 -0.8885 -0.3324
 7088TIP3    H242756   1.965   0.852   0.486 -0.9783  0.9533 -0.8069
 7089TIP3   OH242757   4.272   1.892   3.691  0.0360 -0.1082 -0.0980
 7089TIP3    H142758   4.232   1.979   3.701 -1.6251 -0.9915  1.6219
 7089TIP3    H242759   4.364   1.905   3.713 -0.0060  1.3699 -0.7116
 7090TIP3   OH242760   5.118   0.741  14.936  0.7266 -0.0815 -0.2666
 7090TIP3    H142761   5.038   0.689  14.922  0.0372  0.1318  2.3763
 7090TIP3    H242762   5.141   0.773  14.849 -0.8819 -1.8456 -1.4290
 7091TIP3   OH242763   4.303   1.130  14.389  0.6539  0.6616  0.4411
 7091TIP3    H142764   4.297   1.144  14.484 -1.1434  1.1119  0.3113
 7091TIP3    H242765   4.263   1.044  14.375  1.1523  0.4798  0.1060
 7092TIP3   OH242766   6.344   4.122   5.332  0.7351 -0.1087  0.2372
 7092TIP3    H142767   6.331   4.172   5.252  1.0961  0.8425  0.7521
 7092TIP3    H242768   6.256   4.098   5.360  0.6813 -1.7127 -1.2016
 7093TIP3   OH242769   0.984   4.826   4.134  1.0215  0.0605  0.0661
 7093TIP3    H142770   0.937   4.758   4.086 -1.0302  3.0165 -2.5074
 7093TIP3    H242771   0.917   4.868   4.188  1.2773  2.3564 -1.2678
 7094TIP3   OH242772   3.472   4.220   1.687 -0.5421 -0.0040 -0.0450
 7094TIP3    H142773   3.566   4.227   1.669 -0.6845 -2.6856 -2.5131
 7094TIP3    H242774   3.431   4.279   1.623 -0.5828  0.2337  0.2003
 7095TIP3   OH242775   6.413   4.447   6.892  0.0363  0.0162  0.1615
 7095TIP3    H142776   6.341   4.430   6.952  1.2453 -2.4629  1.0490
 7095TIP3    H242777   6.397   4.536   6.859 -1.8969  0.5856  2.3843
 7096TIP3   OH242778   3.727   6.648  12.542  0.1475  0.4434  0.1391
 7096TIP3    H142779   3.649   6.603  12.511 -0.6708  1.9028 -0.0232
 7096TIP3    H242780   3.768   6.683  12.463  1.9836 -1.7778  0.0225
 7097TIP3   OH242781   5.127   1.969  17.282  0.0068  0.2045  0.6958
 7097TIP3    H142782   5.140   1.875  17.270 -1.2848  0.0240  0.5010
 7097TIP3    H242783   5.192   1.995  17.346  1.6652 -0.4382 -0.6531
 7098TIP3   OH242784   2.908   3.162   4.377 -0.2246  0.3459 -0.3735
 7098TIP3    H142785   2.938   3.096   4.316  0.6935 -0.6598  1.0975
 7098TIP3    H242786   2.812   3.154   4.377 -0.1566 -0.5071 -0.7260
 7099TIP3   OH242787   0.952   2.865   1.081  0.4558  0.2614 -0.1365
 7099TIP3    H142788   0.942   2.801   1.150  2.4244 -0.3997 -0.4119
 7099TIP3    H242789   0.887   2.839   1.015  1.1341 -1.3930 -0.1946
 7100TIP3   OH242790   3.638   5.866   2.585  0.3222 -0.1472 -0.2340
 7100TIP3    H142791   3.726   5.862   2.548  0.1056 -0.0361 -0.7670
 7100TIP3    H242792   3.631   5.954   2.622  1.5636 -1.1665  2.6753
 7101TIP3   OH242793   3.431   5.122  11.764  0.1368  0.4944  0.5176
 7101TIP3    H142794   3.508   5.074  11.794 -0.0190  0.3965  0.7617
 7101TIP3    H242795   3.376   5.056  11.721  0.2545  0.5912  0.2143
 7102TIP3   OH242796   4.799   1.668  12.937 -0.5245 -0.4030  0.1813
 7102TIP3    H142797   4.788   1.660  12.842 -0.2785  1.4869 -0.0454
 7102TIP3    H242798   4.711   1.679  12.971 -0.5447 -0.2609  0.0807
 7103TIP3   OH242799   6.620   6.280  10.956  0.3182  0.5142  0.6991
 7103TIP3    H142800   6.676   6.327  10.895 -0.4177  0.8449  0.2647
 7103TIP3    H242801   6.551   6.243  10.902  0.0874  0.1488  1.2299
 7104TIP3   OH242802   1.302   4.571  14.762 -0.3593  0.3779  0.1299
 7104TIP3    H142803   1.384   4.609  14.794 -1.1776  2.2313  0.1490
 7104TIP3    H242804   1.235   4.611  14.817 -1.5710  1.5490 -2.0545
 7105TIP3   OH242805   5.847   2.249   6.520 -0.5162 -0.2540 -0.5614
 7105TIP3    H142806   5.921   2.304   6.494 -1.0497  0.1580 -1.2287
 7105TIP3    H242807   5.814   2.289   6.600 -0.4803  0.0003 -0.6732
 7106TIP3   OH242808   3.758   0.127  13.754  0.1335 -0.0448 -0.2027
 7106TIP3    H142809   3.847   0.159  13.763  0.0353  0.1848 -0.0480
 7106TIP3    H242810   3.758   0.079  13.671  0.0616  1.1043 -0.8971
 7107TIP3   OH242811   6.538   0.321   0.901  0.4405  0.3349  0.2531
 7107TIP3    H142812   6.449   0.330   0.866  0.6954  0.9962 -0.2415
 7107TIP3    H242813   6.526   0.282   0.988 -0.2992  0.0284  0.0197
 7108TIP3   OH242814   1.653   6.757   5.829 -0.5415 -0.0706 -0.0597
 7108TIP3    H142815   1.625   6.833   5.880 -3.1483 -1.8336  1.3599
 7108TIP3    H242816   1.725   6.720   5.879 -0.2943  0.5763  0.0725
 7109TIP3   OH242817   6.603   1.070  14.433  0.1199 -0.3360 -0.1206
 7109TIP3    H142818   6.546   1.102  14.502 -1.0011  0.6481 -1.4644
 7109TIP3    H242819   6.583   0.976  14.427 -2.4629  0.2060 -1.4887
 7110TIP3   OH242820   5.008   0.208   2.367  0.1391  0.5963  0.1057
 7110TIP3    H142821   5.022   0.187   2.274  1.1642 -0.3441  0.4452
 7110TIP3    H242822   5.086   0.174   2.411 -2.0145 -2.6299  1.8182
 7111TIP3   OH242823   1.313   3.621   4.565  0.1419 -0.0443  0.3814
 7111TIP3    H142824   1.348   3.627   4.654 -2.6707  1.6820  1.5235
 7111TIP3    H242825   1.235   3.566   4.574 -0.0766  0.0063 -1.0458
 7112TIP3   OH242826   0.382   4.139   6.751  0.1610 -0.5099  0.1389
 7112TIP3    H142827   0.395   4.230   6.779  2.4326 -0.6988 -0.0945
 7112TIP3    H242828   0.445   4.127   6.680  1.5524 -2.8750  1.6372
 7113TIP3   OH242829   3.030   3.453   3.485  0.1402 -0.7920 -0.3167
 7113TIP3    H142830   3.044   3.398   3.562 -0.5632 -0.5023  0.0269
 7113TIP3    H242831   3.104   3.513   3.484  1.5480 -2.4194 -1.3240
 7114TIP3   OH242832   1.951   1.452   3.955  0.3571 -0.8311 -0.6012
 7114TIP3    H142833   1.861   1.432   3.929 -0.9120  1.2764  1.6941
 7114TIP3    H242834   1.978   1.376   4.007 -1.9127  0.2668  2.5080
 7115TIP3   OH242835   1.475   5.442   5.081 -0.2460  0.3967 -0.0802
 7115TIP3    H142836   1.419   5.436   5.159  0.1031 -0.3705  0.1257
 7115TIP3    H242837   1.436   5.512   5.029 -1.3761 -0.0893  0.0731
 7116TIP3   OH242838   5.360   4.578   5.623  0.5216  0.2673 -0.5251
 7116TIP3    H142839   5.326   4.568   5.712 -0.2039 -0.7264 -0.9012
 7116TIP3    H242840   5.334   4.666   5.597  0.7525  0.5731  0.2382
 7117TIP3   OH242841   3.803   6.221  13.859  0.1966  0.1463 -0.0196
 7117TIP3    H142842   3.712   6.233  13.887  0.1235  0.2167 -0.2869
 7117TIP3    H242843   3.808   6.264  13.774  0.0160 -1.3840 -0.8465
 7118TIP3   OH242844   3.014   0.234  14.334 -0.1825 -0.5329 -0.1765
 7118TIP3    H142845   3.050   0.308  14.384  0.8128 -0.1147 -1.4550
 7118TIP3    H242846   3.013   0.162  14.397 -0.6979  0.4265  0.9532
 7119TIP3   OH242847   4.625   1.327   5.320  0.0972 -0.0329 -0.0777
 7119TIP3    H142848   4.538   1.324   5.280  0.5124  0.9166 -1.1121
 7119TIP3    H242849   4.650   1.235   5.330 -1.6221 -0.3739  1.6662
 7120TIP3   OH242850   1.998   0.953  11.853  0.1008 -0.6735 -0.1604
 7120TIP3    H142851   2.090   0.978  11.840 -0.3391  1.2038  0.0879
 7120TIP3    H242852   1.960   0.960  11.765 -0.1919  0.3339  0.0341
 7121TIP3   OH242853   6.062   0.807  11.688  0.1117 -0.4384  0.1546
 7121TIP3    H142854   6.129   0.793  11.621 -0.0149  2.0657 -0.5860
 7121TIP3    H242855   6.006   0.730  11.682  2.0281 -1.8825 -0.2394
 7122TIP3   OH242856   6.703   6.778   0.350  0.2203  0.1638 -0.5907
 7122TIP3    H142857   6.689   6.693   0.308 -1.1224  0.8062 -1.5460
 7122TIP3    H242858   6.734   6.834   0.279  0.7663  0.5640 -0.0447
 7123TIP3   OH242859   3.884   4.916  16.529  0.5546 -0.1627 -0.5167
 7123TIP3    H142860   3.887   4.907  16.624 -0.6013  1.6217 -0.2622
 7123TIP3    H242861   3.802   4.875  16.503  2.1812 -3.3338 -1.1974
 7124TIP3   OH242862   0.782   5.739  15.400 -0.0735 -0.2659  0.0830
 7124TIP3    H142863   0.728   5.806  15.358 -4.2555 -1.7257  2.5357
 7124TIP3    H242864   0.867   5.781  15.413 -0.6325  2.4549 -3.5108
 7125TIP3   OH242865   5.403   3.044  17.010  0.4797  0.6251  0.5357
 7125TIP3    H142866   5.470   3.045  17.079  0.4220 -0.8302  0.6469
 7125TIP3    H242867   5.406   2.954  16.975 -1.6344  0.4150  0.7718
 7126TIP3   OH242868   4.340   3.738   1.358 -0.0905  0.1856 -0.6398
 7126TIP3    H142869   4.379   3.806   1.303 -0.8377  2.3758  1.3505
 7126TIP3    H242870   4.378   3.753   1.445 -0.1430 -2.1005 -0.1799
 7127TIP3   OH242871   0.927   6.357   2.323 -0.0117 -0.2531  0.2004
 7127TIP3    H142872   0.909   6.269   2.353 -1.7682  0.9899  3.2102
 7127TIP3    H242873   1.022   6.366   2.329  0.0109 -1.3152  1.9094
 7128TIP3   OH242874   6.621   3.026  15.385  0.3316 -0.0390 -0.7983
 7128TIP3    H142875   6.593   3.000  15.298 -2.6068  0.7965 -0.2095
 7128TIP3    H242876   6.677   3.103  15.371  0.3689 -0.2784 -1.9721
 7129TIP3   OH242877   3.990   2.083  11.697 -0.3914 -0.8545  0.0520
 7129TIP3    H142878   3.971   2.002  11.649  2.8701 -1.6094 -0.2049
 7129TIP3    H242879   3.987   2.152  11.630  1.6021 -1.5279 -0.7911
 7130TIP3   OH242880   4.856   3.458  11.839  0.0981  0.4260  0.1683
 7130TIP3    H142881   4.834   3.550  11.822 -1.8884  0.2113  1.3229
 7130TIP3    H242882   4.936   3.443  11.789  0.9172  2.9968  0.5848
 7131TIP3   OH242883   3.371   5.106   2.408  0.7071 -0.1084  0.1694
 7131TIP3    H142884   3.460   5.139   2.416 -0.2257  2.2517  2.3352
 7131TIP3    H242885   3.319   5.183   2.386 -0.9477 -1.2038  0.0556
 7132TIP3   OH242886   0.500   1.220  12.207  0.4529 -0.2741 -0.4112
 7132TIP3    H142887   0.574   1.164  12.182  1.0685  0.8727 -1.2311
 7132TIP3    H242888   0.442   1.219  12.131  1.2235  1.4143 -1.0496
 7133TIP3   OH242889   3.377   3.033   0.946 -0.1123  0.3866  0.2776
 7133TIP3    H142890   3.338   2.963   0.893  0.3590  1.1204 -1.0995
 7133TIP3    H242891   3.303   3.071   0.993 -0.4487 -0.7035  0.6551
 7134TIP3   OH242892   0.677   3.072   3.857 -0.0907  0.1215  0.0470
 7134TIP3    H142893   0.644   3.007   3.920 -0.2747  0.2831  0.1145
 7134TIP3    H242894   0.772   3.068   3.868 -0.1463  0.5045  0.6908
 7135TIP3   OH242895   1.155   4.116   6.019  0.2430  0.0261  0.3362
 7135TIP3    H142896   1.218   4.085   5.954 -0.2407  0.9984 -0.6271
 7135TIP3    H242897   1.209   4.144   6.093  0.8903  0.0903 -0.1518
 7136TIP3   OH242898   0.667   6.470   2.370 -0.0825 -0.1499  0.3449
 7136TIP3    H142899   0.659   6.546   2.312  0.7567  1.5677  2.3482
 7136TIP3    H242900   0.761   6.452   2.374 -0.2613 -1.2475  0.0042
 7137TIP3   OH242901   1.979   4.184  11.645 -0.4160 -0.1507 -0.0415
 7137TIP3    H142902   1.959   4.091  11.660  1.5617 -0.5529  0.3877
 7137TIP3    H242903   2.073   4.185  11.629  0.2056  2.1402  2.9958
 7138TIP3   OH242904   5.352   4.495   3.776  0.0742  0.5632 -0.0134
 7138TIP3    H142905   5.409   4.428   3.814  0.3374  0.1268 -1.1267
 7138TIP3    H242906   5.385   4.578   3.812  0.8050  0.2305  0.0958
 7139TIP3   OH242907   1.608   0.549   3.168  0.3719 -0.1861 -0.6991
 7139TIP3    H142908   1.581   0.489   3.099  0.4850 -0.8000 -0.2220
 7139TIP3    H242909   1.549   0.530   3.241  0.2287  0.4784 -0.6359
 7140TIP3   OH242910   1.162   3.596  16.271 -0.1132  0.1812  0.3707
 7140TIP3    H142911   1.163   3.571  16.178 -0.6291  1.3873  0.0250
 7140TIP3    H242912   1.197   3.685  16.272 -1.3489  0.6751  1.1618
 7141TIP3   OH242913   1.416   0.541   2.281 -0.0873  0.1024  0.0670
 7141TIP3    H142914   1.439   0.528   2.373  0.0723  0.9019  0.1458
 7141TIP3    H242915   1.382   0.631   2.277 -1.4690 -0.4117 -0.3908
 7142TIP3   OH242916   6.032   6.088  15.621 -0.2073  0.1524  0.2221
 7142TIP3    H142917   6.053   6.156  15.556  2.8720 -1.4005 -0.6233
 7142TIP3    H242918   6.006   6.012  15.569  4.4748 -1.8587  0.3012
 7143TIP3   OH242919   3.583   0.224   0.892 -0.1862 -0.0797  0.2117
 7143TIP3    H142920   3.676   0.220   0.916 -0.5003  0.0548  1.5212
 7143TIP3    H242921   3.543   0.275   0.961 -0.9679  1.3808 -1.2628
 7144TIP3   OH242922   1.528   3.929   3.850 -0.3986  0.3679  0.5207
 7144TIP3    H142923   1.578   3.860   3.807  0.7384  1.0987  0.6351
 7144TIP3    H242924   1.483   3.885   3.922 -1.3714 -0.6376 -0.6440
 7145TIP3   OH242925   6.745   0.862   2.599  0.1601 -0.2711 -0.9717
 7145TIP3    H142926   6.839   0.861   2.616  0.2170  0.8294 -1.1951
 7145TIP3    H242927   6.732   0.797   2.530  0.6216 -1.0603 -0.3452
 7146TIP3   OH242928   4.991   2.595   0.947 -0.0650  0.6301 -1.0294
 7146TIP3    H142929   5.086   2.583   0.944  0.2386  1.5331  1.9450
 7146TIP3    H242930   4.970   2.598   1.040 -3.0781  0.2356 -1.5987
 7147TIP3   OH242931   5.210   0.962   5.857  0.0924  0.0779  0.7241
 7147TIP3    H142932   5.142   0.907   5.817  1.4286 -1.8650  0.9889
 7147TIP3    H242933   5.224   1.032   5.793 -0.7339 -0.6162 -0.2635
 7148TIP3   OH242934   1.845   4.617  14.584 -0.4034  0.6546 -0.3747
 7148TIP3    H142935   1.819   4.640  14.673  0.3529 -0.8772  0.2738
 7148TIP3    H242936   1.940   4.614  14.587 -0.3804 -3.0562 -0.1707
 7149TIP3   OH242937   3.122   1.779   4.406 -0.2783  0.0953  0.2826
 7149TIP3    H142938   3.140   1.691   4.439  1.1313  0.4841  0.6073
 7149TIP3    H242939   3.078   1.764   4.322 -0.2308 -0.9277  0.4272
 7150TIP3   OH242940   3.586   5.268   0.258 -0.9050 -0.0508 -0.0241
 7150TIP3    H142941   3.513   5.205   0.267 -0.5661 -0.2569  1.5996
 7150TIP3    H242942   3.544   5.354   0.267 -1.3355 -0.0017 -2.0138
 7151TIP3   OH242943   0.356   3.630   2.812 -0.1780 -0.2557 -0.3688
 7151TIP3    H142944   0.391   3.611   2.900 -0.8715 -0.3074 -0.0951
 7151TIP3    H242945   0.349   3.725   2.809  3.0760  0.0623 -1.6541
 7152TIP3   OH242946   5.840   6.140   2.225  0.0294 -0.0516  0.7249
 7152TIP3    H142947   5.785   6.120   2.301  1.9422 -1.8189  1.7576
 7152TIP3    H242948   5.828   6.065   2.167 -0.2945  0.5959 -0.0591
 7153TIP3   OH242949   6.169   1.414  17.097  0.2090  0.5033  0.8073
 7153TIP3    H142950   6.252   1.439  17.056  0.4592 -0.0652  0.9619
 7153TIP3    H242951   6.118   1.376  17.026  1.0745 -1.5396  1.2104
 7154TIP3   OH242952   4.997   6.446   3.864 -0.6414 -0.4937  0.0829
 7154TIP3    H142953   4.997   6.379   3.933 -3.9737  0.1708  0.9222
 7154TIP3    H242954   5.061   6.511   3.894 -0.7890 -1.0360  1.7136
 7155TIP3   OH242955   2.747   4.112  16.468 -0.0216 -0.6881 -0.3629
 7155TIP3    H142956   2.720   4.022  16.447  1.0736 -1.2764  0.6166
 7155TIP3    H242957   2.839   4.104  16.493  0.1774  0.7702 -0.5301
 7156TIP3   OH242958   1.473   4.866   2.079 -0.2127  0.8068 -0.4252
 7156TIP3    H142959   1.409   4.821   2.024 -0.3146 -0.4416  0.6616
 7156TIP3    H242960   1.420   4.904   2.150  0.2740 -0.8508  0.8828
 7157TIP3   OH242961   4.910   1.205   5.499 -0.1280  0.3700 -0.1709
 7157TIP3    H142962   4.844   1.250   5.553  1.1495 -0.3056  2.0699
 7157TIP3    H242963   4.874   1.117   5.486 -1.0389  0.9145 -1.6294
 7158TIP3   OH242964   1.919   3.764   4.645  0.0640 -0.1604 -0.8173
 7158TIP3    H142965   1.824   3.765   4.656 -0.1012 -1.6856 -1.8880
 7158TIP3    H242966   1.943   3.857   4.646 -1.0765  0.2257  2.0129
 7159TIP3   OH242967   5.209   6.418   0.438 -0.6146 -0.3546  0.0127
 7159TIP3    H142968   5.189   6.326   0.458  0.3055 -0.4389  0.6183
 7159TIP3    H242969   5.298   6.430   0.471 -0.6481  0.7011 -0.2669
 7160TIP3   OH242970   2.311   2.696   6.051  0.2180 -0.0192 -0.2999
 7160TIP3    H142971   2.237   2.725   5.998  0.2668 -0.5228 -0.6521
 7160TIP3    H242972   2.388   2.729   6.003  0.2709 -0.6685 -0.6690
 7161TIP3   OH242973   4.449   0.333  13.184  0.2011 -0.8510  0.1391
 7161TIP3    H142974   4.437   0.391  13.109  0.4887  0.4326  1.0524
 7161TIP3    H242975   4.531   0.287  13.166  0.8889  0.3133  0.1777
 7162TIP3   OH242976   0.835   2.910  17.272  0.1271 -0.3774 -0.0044
 7162TIP3    H142977   0.799   2.935  17.188 -2.0492 -0.6833  0.7782
 7162TIP3    H242978   0.809   2.980  17.332 -0.3915 -1.2733  0.8659
 7163TIP3   OH242979   4.023   4.384   2.697  0.1570  0.1357  0.3636
 7163TIP3    H142980   3.929   4.369   2.707 -0.3180  1.0751 -1.9569
 7163TIP3    H242981   4.063   4.299   2.712 -1.4456 -1.1828 -2.0446
 7164TIP3   OH242982   6.291   2.446  11.404 -0.2137 -0.0502 -0.3782
 7164TIP3    H142983   6.363   2.506  11.423 -0.7184  0.1916  0.8875
 7164TIP3    H242984   6.220   2.476  11.460 -0.7979 -1.2166 -0.4665
 7165TIP3   OH242985   3.957   3.963   1.209 -0.8056  0.4929  0.0904
 7165TIP3    H142986   3.900   3.965   1.285 -1.7808 -0.6171 -0.5712
 7165TIP3    H242987   3.898   3.950   1.135  0.3172 -1.7742 -0.5183
 7166TIP3   OH242988   3.137   6.261  14.910  0.1316  0.1940  0.1817
 7166TIP3    H142989   3.164   6.277  15.000  2.2191 -1.9392  0.0447
 7166TIP3    H242990   3.218   6.267  14.859 -1.1482  2.5541 -1.8303
 7167TIP3   OH242991   4.221   0.334  10.937  0.2065  0.1476  0.2659
 7167TIP3    H142992   4.157   0.396  10.971  0.9458 -0.1631  2.4241
 7167TIP3    H242993   4.169   0.258  10.910 -0.3824 -0.1607  2.1172
 7168TIP3   OH242994   5.688   0.214   4.454 -0.1802  0.1885 -0.1481
 7168TIP3    H142995   5.702   0.308   4.449  2.2859 -0.0011  1.5558
 7168TIP3    H242996   5.748   0.177   4.389 -0.1615 -0.2695  0.1242
 7169TIP3   OH242997   5.024   0.200  12.341  0.3775  1.2000  0.4373
 7169TIP3    H142998   4.945   0.169  12.385  0.0222  1.7770  0.2171
 7169TIP3    H242999   5.043   0.133  12.275  1.4612 -0.1754  2.0406
 7170TIP3   OH243000   5.595   4.666   3.851  0.1976  0.1161  0.1749
 7170TIP3    H143001   5.690   4.653   3.861  0.3075  0.7431 -0.0316
 7170TIP3    H243002   5.575   4.739   3.908 -0.2251 -0.2207  0.4609
 7171TIP3   OH243003   0.035   4.240   0.435  0.2579 -0.6222  0.5400
 7171TIP3    H143004   0.021   4.333   0.456  0.0726 -0.7822  1.1604
 7171TIP3    H243005   0.131   4.232   0.429  0.2707 -0.3698  0.3836
 7172TIP3   OH243006   1.312   2.647  17.325  0.1291 -0.0031  0.0117
 7172TIP3    H143007   1.261   2.717  17.284 -0.4900 -0.0653  0.6653
 7172TIP3    H243008   1.354   2.690  17.400  0.8930  0.0000 -0.4046
 7173TIP3   OH243009   4.432   6.566   0.380 -0.3051  0.6027 -0.1703
 7173TIP3    H143010   4.516   6.578   0.425 -1.2135 -1.5291  2.3370
 7173TIP3    H243011   4.455   6.525   0.297  1.1127 -0.6510  0.7971
 7174TIP3   OH243012   6.028   2.965  11.870 -0.3557 -0.1559 -0.5097
 7174TIP3    H143013   5.962   2.999  11.931 -0.0780 -1.3645  0.5092
 7174TIP3    H243014   6.041   2.874  11.897  2.0540  0.1536 -0.3877
 7175TIP3   OH243015   3.239   1.643  16.513  0.7502  0.2316 -0.0230
 7175TIP3    H143016   3.156   1.595  16.514  0.2880  0.9398  2.2580
 7175TIP3    H243017   3.233   1.701  16.438 -0.2527 -0.6631 -0.6579
 7176TIP3   OH243018   3.065   5.084   0.929 -0.5468  0.0739 -0.3917
 7176TIP3    H143019   3.100   5.142   0.997  0.3378 -1.0728  0.1589
 7176TIP3    H243020   3.084   5.129   0.847  1.0654  0.1129 -0.0287
 7177TIP3   OH243021   3.853   1.733  12.930 -0.1371 -0.4647 -0.1282
 7177TIP3    H143022   3.928   1.723  12.872 -0.9446 -1.4074 -1.0425
 7177TIP3    H243023   3.816   1.645  12.937 -1.1402 -0.0209  0.3240
 7178TIP3   OH243024   0.512   3.019  12.177 -0.1293 -0.1916  0.4036
 7178TIP3    H143025   0.604   3.044  12.169  0.0802 -0.5522  1.4950
 7178TIP3    H243026   0.479   3.072  12.249 -0.5769 -0.6149  0.5158
 7179TIP3   OH243027   0.336   0.653   0.448 -0.0581  0.1716  0.0903
 7179TIP3    H143028   0.387   0.572   0.444 -1.0981 -0.4675 -2.3612
 7179TIP3    H243029   0.400   0.722   0.428  0.1277 -0.5259 -2.0577
 7180TIP3   OH243030   6.372   2.390   1.804  0.0822 -0.5207 -0.1819
 7180TIP3    H143031   6.422   2.334   1.745  0.2877  0.6177 -1.1263
 7180TIP3    H243032   6.285   2.350   1.808  0.3410 -1.1178 -0.5314
 7181TIP3   OH243033   3.798   1.310   2.213 -0.5262  0.2213  0.0384
 7181TIP3    H143034   3.793   1.258   2.293 -1.0217 -2.7650 -1.7712
 7181TIP3    H243035   3.888   1.298   2.183 -0.3786  1.2187  0.0496
 7182TIP3   OH243036   5.503   0.681  16.211  0.4805 -0.7272 -0.2740
 7182TIP3    H143037   5.548   0.601  16.239  1.1384 -0.1035  0.5122
 7182TIP3    H243038   5.550   0.709  16.133  0.3168 -1.0404 -0.4872
 7183TIP3   OH243039   3.657   2.973  16.390 -0.3031 -0.3586 -0.5291
 7183TIP3    H143040   3.592   3.039  16.365  0.8953  1.1495  0.1593
 7183TIP3    H243041   3.607   2.907  16.437 -2.1554 -1.8561 -4.1661
 7184TIP3   OH243042   2.217   5.982  11.362 -0.1776 -0.1554  0.3190
 7184TIP3    H143043   2.242   6.074  11.370  1.1495 -0.5429  1.0934
 7184TIP3    H243044   2.286   5.944  11.307  0.5969 -1.1210  1.8834
 7185TIP3   OH243045   6.556   2.098   1.405 -0.4645  0.0837  0.0670
 7185TIP3    H143046   6.610   2.072   1.330  0.4145  2.2188 -0.1319
 7185TIP3    H243047   6.554   2.021   1.461 -2.3934 -2.1221 -2.7417
 7186TIP3   OH243048   4.129   6.558   4.389  0.0012  0.4460 -0.7046
 7186TIP3    H143049   4.204   6.593   4.438  0.1626  0.0528 -0.6723
 7186TIP3    H243050   4.108   6.476   4.433 -1.0004  0.9692 -0.1661
 7187TIP3   OH243051   1.649   4.916  12.718 -0.6141  0.4057 -0.5030
 7187TIP3    H143052   1.706   4.959  12.655  1.3715 -0.7250  0.3963
 7187TIP3    H243053   1.610   4.988  12.768  0.2991  1.2263 -0.9318
 7188TIP3   OH243054   2.764   2.143   5.090  0.1731 -0.2684 -0.5511
 7188TIP3    H143055   2.757   2.120   5.183  1.5420  0.3945 -0.2664
 7188TIP3    H243056   2.688   2.101   5.050 -0.7400 -0.1379  0.9452
 7189TIP3   OH243057   4.429   0.821  13.081 -0.0502  0.0753 -0.0732
 7189TIP3    H143058   4.349   0.843  13.129  0.1134  0.6905 -0.0815
 7189TIP3    H243059   4.453   0.901  13.035  0.9318  0.0900  0.4403
 7190TIP3   OH243060   1.116   2.527  14.363 -0.2712 -0.3737  0.2232
 7190TIP3    H143061   1.032   2.526  14.317  0.0636 -0.5391 -0.4018
 7190TIP3    H243062   1.105   2.464  14.435 -1.3057  0.9913  1.3145
 7191TIP3   OH243063   1.281   1.247  11.919 -0.1968  0.2231  0.5712
 7191TIP3    H143064   1.370   1.280  11.934  0.0225  0.3446 -0.8213
 7191TIP3    H243065   1.292   1.154  11.902 -0.0986  0.5267 -1.2466
 7192TIP3   OH243066   5.017   0.787  16.803 -0.2904 -0.3093  0.2668
 7192TIP3    H143067   4.942   0.788  16.744 -0.4598  1.1955  0.4695
 7192TIP3    H243068   5.089   0.821  16.751  0.6970 -3.0997 -0.3882
 7193TIP3   OH243069   6.037   5.165   1.787 -0.9635  0.7046 -0.2185
 7193TIP3    H143070   6.100   5.238   1.783 -2.3430  1.9229 -0.4277
 7193TIP3    H243071   5.988   5.171   1.705  0.1744 -1.7215 -1.1844
 7194TIP3   OH243072   3.094   0.739   2.267 -0.6696  0.0469  0.6370
 7194TIP3    H143073   3.170   0.746   2.209 -1.3469 -0.0262 -0.2743
 7194TIP3    H243074   3.020   0.723   2.209 -1.1690 -1.4833  1.6080
 7195TIP3   OH243075   2.766   3.916  14.576 -0.3049 -0.1241  0.4942
 7195TIP3    H143076   2.850   3.954  14.551  1.2751 -2.4221  1.9383
 7195TIP3    H243077   2.733   3.972  14.646 -0.0745  0.8587 -0.1620
 7196TIP3   OH243078   0.237   6.619  12.192 -0.2447  0.1252 -0.6820
 7196TIP3    H143079   0.275   6.633  12.106 -0.7830  1.2379 -0.7506
 7196TIP3    H243080   0.170   6.686  12.200  0.8025  1.0267  1.2085
 7197TIP3   OH243081   0.617   5.699  13.644  0.1497  0.6860  0.6039
 7197TIP3    H143082   0.614   5.666  13.734 -1.6957 -2.0871 -0.3470
 7197TIP3    H243083   0.706   5.680  13.614 -0.7285 -3.5880  0.1869
 7198TIP3   OH243084   6.609   1.363  12.603  1.1463  0.2877  0.1863
 7198TIP3    H143085   6.684   1.421  12.614  1.4969 -0.3527  1.3364
 7198TIP3    H243086   6.635   1.282  12.645 -0.1334 -0.0007  0.4564
 7199TIP3   OH243087   1.052   0.270   5.621  0.8262  0.2874  0.0833
 7199TIP3    H143088   1.066   0.178   5.642  2.1229  0.1466 -1.2622
 7199TIP3    H243089   0.977   0.270   5.561  1.0841  0.0555 -0.2429
 7200TIP3   OH243090   6.105   3.398  15.734 -0.0252 -0.1614 -0.2758
 7200TIP3    H143091   6.192   3.372  15.703 -0.1917 -0.4796 -0.4817
 7200TIP3    H243092   6.069   3.450  15.663 -0.7313 -1.5707 -0.9944
 7201TIP3   OH243093   1.573   1.457   3.849 -0.3577 -0.3610  0.2900
 7201TIP3    H143094   1.494   1.432   3.897 -1.3724 -0.4222 -1.3110
 7201TIP3    H243095   1.607   1.532   3.896 -1.2348 -0.4884  1.1642
 7202TIP3   OH243096   1.756   2.891  15.975  0.2236  0.4607 -0.3148
 7202TIP3    H143097   1.812   2.916  16.049  1.3981 -0.2839 -0.9365
 7202TIP3    H243098   1.675   2.940  15.990 -0.5749 -1.4892  2.8358
 7203TIP3   OH243099   4.828   3.587   2.602  0.7932 -0.2050 -0.2139
 7203TIP3    H143100   4.850   3.504   2.644  0.9075 -0.1084 -0.0798
 7203TIP3    H243101   4.786   3.638   2.672  0.9675 -0.0492 -0.2238
 7204TIP3   OH243102   1.382   3.703  14.472 -0.1871  0.3458 -0.0889
 7204TIP3    H143103   1.430   3.720  14.552 -1.3496  1.3474  0.4368
 7204TIP3    H243104   1.392   3.783  14.420  0.5930 -0.3088 -0.9819
 7205TIP3   OH243105   2.357   0.151   5.085 -0.0877  0.4877  0.4255
 7205TIP3    H143106   2.400   0.098   5.018  2.9760  1.4378  1.4629
 7205TIP3    H243107   2.309   0.217   5.036  1.0432  0.3967 -0.8811
 7206TIP3   OH243108   2.589   0.826  13.035 -0.0314 -0.6415 -0.7210
 7206TIP3    H143109   2.581   0.922  13.042 -0.8551 -0.7822  0.9719
 7206TIP3    H243110   2.683   0.809  13.042  0.3641  0.1210 -3.2133
 7207TIP3   OH243111   6.106   1.392  15.438 -0.3660  0.4756 -0.5930
 7207TIP3    H143112   6.090   1.298  15.432  1.6806  0.0212  0.3139
 7207TIP3    H243113   6.113   1.409  15.532 -0.9351  1.5909 -0.7357
 7208TIP3   OH243114   6.030   0.657  11.391  0.3743  0.3841  0.3049
 7208TIP3    H143115   6.089   0.600  11.341 -0.4093 -0.1379 -0.0464
 7208TIP3    H243116   5.995   0.718  11.326  2.4764  2.4134  0.9582
 7209TIP3   OH243117   2.828   0.728  13.133  0.1546  0.3243  0.1289
 7209TIP3    H143118   2.891   0.792  13.165  0.5435  0.3549 -0.6799
 7209TIP3    H243119   2.826   0.661  13.201  1.2927  0.1606  0.0169
 7210TIP3   OH243120   6.648   6.751   6.522 -0.7301 -0.6341  0.3295
 7210TIP3    H143121   6.705   6.675   6.508  1.3055  0.5464  1.6989
 7210TIP3    H243122   6.572   6.715   6.569  1.1139 -1.6041  2.8100
 7211TIP3   OH243123   1.853   5.705   3.604 -0.3596  0.4837 -0.0398
 7211TIP3    H143124   1.908   5.745   3.537 -0.2579 -1.1263 -0.9525
 7211TIP3    H243125   1.834   5.617   3.572 -0.7694 -0.1512  1.7812
 7212TIP3   OH243126   0.890   5.849   3.662  0.0595  0.1467 -0.0695
 7212TIP3    H143127   0.892   5.825   3.755 -2.1860  0.4133  0.1112
 7212TIP3    H243128   0.977   5.884   3.645  1.5502 -2.6377  1.1278
 7213TIP3   OH243129   6.603   4.307   4.079  0.0095 -0.4648 -0.1489
 7213TIP3    H143130   6.512   4.324   4.055  0.0790  0.0885 -0.0384
 7213TIP3    H243131   6.597   4.243   4.150 -0.2711 -0.7913 -0.4659
 7214TIP3   OH243132   3.657   0.716   5.045  0.6345 -0.1519  0.6942
 7214TIP3    H143133   3.677   0.809   5.051 -1.2100  0.3625 -0.0849
 7214TIP3    H243134   3.668   0.695   4.952  0.6302 -0.6085  0.7912
 7215TIP3   OH243135   1.351   0.533  16.442  0.1005  0.0845 -0.2648
 7215TIP3    H143136   1.317   0.620  16.464  0.4577  0.0519  0.4385
 7215TIP3    H243137   1.316   0.475  16.509  0.3950 -0.1984 -0.3493
 7216TIP3   OH243138   2.042   3.137  12.229 -0.0947 -0.7164  0.1577
 7216TIP3    H143139   1.954   3.170  12.246 -0.5190 -0.6058 -1.9793
 7216TIP3    H243140   2.033   3.042  12.228 -0.3596 -0.6928 -0.7365
 7217TIP3   OH243141   3.561   3.119   1.911  0.1932 -0.1106  0.7960
 7217TIP3    H143142   3.537   3.210   1.893  1.4302 -0.1924 -1.9257
 7217TIP3    H243143   3.635   3.125   1.971  0.8654  0.7632 -0.0887
 7218TIP3   OH243144   5.982   2.942   0.709 -0.0445  0.1027  0.2145
 7218TIP3    H143145   5.965   2.863   0.658 -0.0852 -0.3497  0.9076
 7218TIP3    H243146   5.921   2.937   0.783 -0.6869  1.2538 -0.2165
 7219TIP3   OH243147   4.222   2.202   0.420  0.0601  0.4383 -0.3957
 7219TIP3    H143148   4.196   2.290   0.447  0.8026  0.3588  0.6147
 7219TIP3    H243149   4.141   2.151   0.422 -0.0733  0.6723  0.7673
 7220TIP3   OH243150   0.166   6.295   1.109  0.2376  0.8066  0.2603
 7220TIP3    H143151   0.154   6.319   1.017  0.9034  0.3108  0.0331
 7220TIP3    H243152   0.121   6.363   1.158 -1.3642  0.3210 -0.4544
 7221TIP3   OH243153   3.625   6.166   6.223 -0.9435 -0.5261 -0.0598
 7221TIP3    H143154   3.601   6.247   6.177 -0.1468 -0.3492 -0.1747
 7221TIP3    H243155   3.626   6.190   6.316 -1.9803 -0.7385  0.0221
 7222TIP3   OH243156   6.264   1.996  13.417  0.2641 -0.3406  0.3763
 7222TIP3    H143157   6.258   1.971  13.509 -1.8858 -1.2519  0.0472
 7222TIP3    H243158   6.221   2.081  13.411 -1.8133 -1.3473 -0.0880
 7223TIP3   OH243159   1.438   2.730  13.069 -0.5872  0.3036 -0.0877
 7223TIP3    H143160   1.465   2.819  13.049 -0.2799 -0.0258 -1.1911
 7223TIP3    H243161   1.520   2.684  13.090 -0.6517  0.0848 -0.3086
 7224TIP3   OH243162   5.194   4.276  16.074  0.0446  0.4099 -0.5757
 7224TIP3    H143163   5.263   4.239  16.130 -0.4962 -1.9485 -1.3741
 7224TIP3    H243164   5.120   4.287  16.133 -0.8387 -2.9815 -0.8624
 7225TIP3   OH243165   3.410   0.219  16.512 -0.1865 -0.2164  0.4827
 7225TIP3    H143166   3.505   0.219  16.524  0.0497  1.1096 -0.8738
 7225TIP3    H243167   3.376   0.158  16.576  1.5231 -0.0645  1.5783
 7226TIP3   OH243168   6.717   3.210   5.077 -0.1607  0.2814  0.3706
 7226TIP3    H143169   6.778   3.205   5.004  0.5082  1.4577  0.8352
 7226TIP3    H243170   6.641   3.255   5.042 -0.9941 -1.5577 -0.3284
 7227TIP3   OH243171   0.564   4.559   3.877  0.1277 -0.2091  0.1175
 7227TIP3    H143172   0.553   4.640   3.926  1.1719 -0.0939  0.1908
 7227TIP3    H243173   0.526   4.577   3.791  0.7203  0.5060 -0.0058
 7228TIP3   OH243174   5.642   1.684   1.172  0.4963  0.2761  0.1932
 7228TIP3    H143175   5.643   1.670   1.077  0.9644  0.1144  0.2222
 7228TIP3    H243176   5.607   1.602   1.207 -0.2347  0.5478  0.1303
 7229TIP3   OH243177   4.768   2.263  16.853 -0.6139 -0.0577  1.0044
 7229TIP3    H143178   4.719   2.181  16.861 -1.6135  0.4918  0.5767
 7229TIP3    H243179   4.850   2.237  16.811 -1.2949 -0.7089  0.0384
 7230TIP3   OH243180   5.079   4.154   6.512 -0.4834 -0.1262 -0.2917
 7230TIP3    H143181   5.007   4.093   6.500 -3.3801  2.5324  1.9131
 7230TIP3    H243182   5.128   4.119   6.587 -1.1839 -0.5649 -0.0336
 7231TIP3   OH243183   6.290   6.315  16.368  0.1125 -0.0132 -0.3074
 7231TIP3    H143184   6.248   6.268  16.440  1.7290 -1.4387 -0.2295
 7231TIP3    H243185   6.240   6.289  16.291  1.1100 -2.1537 -0.3038
 7232TIP3   OH243186   4.857   0.722   5.251  0.3744  0.5483  0.1329
 7232TIP3    H143187   4.793   0.665   5.293  0.3808  1.0760  0.8867
 7232TIP3    H243188   4.937   0.670   5.248 -0.2249 -0.3478 -1.3913
 7233TIP3   OH243189   6.688   3.195  12.894  0.1475 -0.0302  0.4611
 7233TIP3    H143190   6.625   3.156  12.833  0.6306  1.1045 -0.8335
 7233TIP3    H243191   6.753   3.126  12.907 -1.8029 -1.5980  2.6437
 7234TIP3   OH243192   1.057   1.973  16.412  0.5258  0.2456 -0.1613
 7234TIP3    H143193   1.106   1.913  16.356  1.5388  0.6371  0.2631
 7234TIP3    H243194   1.124   2.009  16.472 -0.0089  1.8987 -0.5003
 7235TIP3   OH243195   6.702   3.692   4.437  0.4853  0.2560  0.3766
 7235TIP3    H143196   6.736   3.659   4.353  0.7414  1.1765  0.1114
 7235TIP3    H243197   6.744   3.777   4.448 -2.8914  2.2860 -0.7939
 7236TIP3   OH243198   0.702   0.344   1.533  0.0885  0.4160 -0.2666
 7236TIP3    H143199   0.709   0.253   1.502  2.2124  0.3829  0.1803
 7236TIP3    H243200   0.742   0.396   1.463  2.3111  0.6078  1.0669
 7237TIP3   OH243201   3.919   5.570   4.845 -0.3002 -0.5681  0.5949
 7237TIP3    H143202   3.897   5.608   4.930 -0.4174  0.1143  0.2665
 7237TIP3    H243203   4.007   5.603   4.826 -0.1172 -1.0368  0.6363
 7238TIP3   OH243204   2.529   6.578   1.754  0.6296 -0.3475  0.5709
 7238TIP3    H143205   2.570   6.502   1.794 -0.0398 -1.2050 -0.3252
 7238TIP3    H243206   2.441   6.581   1.791  0.5253 -0.2359  0.3207
 7239TIP3   OH243207   5.110   1.121  14.183 -0.1728 -0.4244  0.9210
 7239TIP3    H143208   5.060   1.039  14.185  0.8883 -1.1068  0.3943
 7239TIP3    H243209   5.088   1.160  14.099 -2.1693  0.8366  1.9438
 7240TIP3   OH243210   3.193   6.120  11.970 -0.2543  0.6392 -0.2845
 7240TIP3    H143211   3.114   6.094  12.018 -0.3747  1.0456 -0.2571
 7240TIP3    H243212   3.171   6.206  11.933 -0.4602 -0.0252 -1.7562
 7241TIP3   OH243213   6.108   0.119   0.686  0.0651  0.4388 -0.4931
 7241TIP3    H143214   6.021   0.125   0.724 -0.1505  1.4382 -1.1063
 7241TIP3    H243215   6.120   0.026   0.666 -0.6363  0.2194  0.0873
 7242TIP3   OH243216   0.786   5.994  11.737  0.0857 -0.1331 -0.1278
 7242TIP3    H143217   0.729   6.021  11.665 -2.7860 -0.4908  1.8321
 7242TIP3    H243218   0.799   5.900  11.722 -0.0322 -0.0956 -0.4818
 7243TIP3   OH243219   1.025   3.128   1.145 -0.3321  0.2365 -0.4663
 7243TIP3    H143220   1.024   3.041   1.106  0.9018  0.3791 -0.8657
 7243TIP3    H243221   1.035   3.188   1.070 -1.1480  0.7350 -0.1974
 7244TIP3   OH243222   5.391   4.205  16.290  0.2410  0.3235 -0.3590
 7244TIP3    H143223   5.476   4.231  16.325  1.7603 -3.6086 -0.6133
 7244TIP3    H243224   5.352   4.152  16.360 -1.0785  0.3913 -1.0108
 7245TIP3   OH243225   3.394   5.978  14.152  0.1537 -0.2226 -0.1074
 7245TIP3    H143226   3.440   5.935  14.080  0.0678  0.1419 -0.3831
 7245TIP3    H243227   3.325   5.917  14.176 -0.5015  0.1237 -1.0587
 7246TIP3   OH243228   0.243   4.193   1.039  0.1623  0.5386  0.2160
 7246TIP3    H143229   0.304   4.246   0.988  0.4380  0.3818  0.3808
 7246TIP3    H243230   0.298   4.141   1.098 -0.1851  1.3551  1.3015
 7247TIP3   OH243231   2.440   4.010  14.468  0.1718 -0.4224  0.4094
 7247TIP3    H143232   2.519   3.981  14.421 -0.7488 -3.2301  0.3971
 7247TIP3    H243233   2.384   4.045  14.399  1.0565  0.8648  0.3056
 7248TIP3   OH243234   1.759   2.170   0.148 -0.0584  0.7753  0.0320
 7248TIP3    H143235   1.770   2.258   0.113  1.3138  1.1837  1.3401
 7248TIP3    H243236   1.820   2.116   0.098 -1.1194  0.4691 -0.9777
 7249TIP3   OH243237   0.222   3.068   3.385 -0.0683 -0.2229  0.2110
 7249TIP3    H143238   0.154   3.109   3.438 -1.4934  0.1122 -1.7651
 7249TIP3    H243239   0.178   2.997   3.339  1.0136 -0.3022 -0.7626
 7250TIP3   OH243240   3.200   2.051  11.716 -0.3265  0.0624 -0.4458
 7250TIP3    H143241   3.257   2.091  11.782 -1.6946  1.5407 -0.0846
 7250TIP3    H243242   3.189   1.961  11.746  0.1512  0.3334  0.6113
 7251TIP3   OH243243   6.091   2.504  11.575 -0.0679 -0.2132  0.6616
 7251TIP3    H143244   6.044   2.425  11.547 -0.6015  0.7651 -1.4194
 7251TIP3    H243245   6.021   2.568  11.590  0.4422  0.3248  0.7500
 7252TIP3   OH243246   0.532   1.686   5.488  0.4641 -0.6185  0.5244
 7252TIP3    H143247   0.619   1.705   5.524  0.6441  0.4908 -0.4316
 7252TIP3    H243248   0.507   1.767   5.443 -0.8531 -1.0974  0.3581
 7253TIP3   OH243249   0.284   3.653  14.168  0.0162  0.4367  0.6374
 7253TIP3    H143250   0.199   3.653  14.212 -0.0673  0.8452  0.4849
 7253TIP3    H243251   0.282   3.575  14.112 -0.2135  0.3819  0.7190
 7254TIP3   OH243252   3.178   5.374   1.809 -0.0286  0.7990 -0.3450
 7254TIP3    H143253   3.239   5.405   1.742  1.3196 -0.2051  0.3772
 7254TIP3    H243254   3.218   5.295   1.844 -1.0096  0.9353  1.2056
 7255TIP3   OH243255   6.133   5.671  14.819  0.1853  0.1172 -0.4919
 7255TIP3    H143256   6.173   5.618  14.888 -0.7277 -1.5152 -1.1323
 7255TIP3    H243257   6.041   5.642  14.818 -0.6674  2.5748 -0.1254
 7256TIP3   OH243258   2.046   2.462   6.772 -0.2659  0.1425 -0.2772
 7256TIP3    H143259   2.087   2.378   6.793 -0.6481 -0.1397 -0.6525
 7256TIP3    H243260   2.111   2.527   6.799  0.1804 -0.2828 -0.3109
 7257TIP3   OH243261   4.969   3.080   6.396  0.4310  0.3865  0.5166
 7257TIP3    H143262   4.931   3.007   6.446  0.3372 -0.0448 -0.1632
 7257TIP3    H243263   4.895   3.116   6.347  0.9126 -0.6888 -1.0951
 7258TIP3   OH243264   5.509   1.196  10.915  0.4036 -0.2965 -0.4939
 7258TIP3    H143265   5.494   1.130  10.847 -0.2947  0.0852 -0.7216
 7258TIP3    H243266   5.493   1.150  10.997 -1.2597 -0.1509 -0.6865
 7259TIP3   OH243267   3.631   3.705  13.384 -0.1479 -0.2456  0.0172
 7259TIP3    H143268   3.610   3.710  13.478  0.8269 -2.0187  0.3788
 7259TIP3    H243269   3.726   3.689  13.382 -0.2687 -0.8886 -1.2444
 7260TIP3   OH243270   4.331   2.726  14.977  0.1833 -0.2691 -0.2472
 7260TIP3    H143271   4.283   2.691  14.902 -0.1340  2.2299 -1.3246
 7260TIP3    H243272   4.411   2.763  14.940  0.1908  0.7032  0.6832
 7261TIP3   OH243273   5.805   2.812   6.842  0.1059  0.1457 -0.0362
 7261TIP3    H143274   5.725   2.769   6.811  0.4742  0.1472 -1.0283
 7261TIP3    H243275   5.837   2.861   6.766  0.1515  1.5156  0.8275
 7262TIP3   OH243276   1.062   6.731  14.565  0.2728 -0.1041 -0.0035
 7262TIP3    H143277   1.091   6.643  14.539 -0.0614 -0.3848  0.5559
 7262TIP3    H243278   0.977   6.742  14.521  1.3817  0.9135 -2.0476
 7263TIP3   OH243279   4.430   6.343   3.487 -0.2302 -0.8853  0.2821
 7263TIP3    H143280   4.496   6.275   3.500  0.3109 -0.5361 -0.5981
 7263TIP3    H243281   4.362   6.300   3.435 -0.0605 -0.8605  0.0389
 7264TIP3   OH243282   4.104   0.060   5.655 -0.2816 -0.0766 -0.3124
 7264TIP3    H143283   4.033   0.027   5.600 -0.2353  0.9658 -1.0274
 7264TIP3    H243284   4.113  -0.005   5.725 -1.7222 -0.3816 -0.3829
 7265TIP3   OH243285   4.833   5.788  12.456 -0.4407 -0.0203 -0.0874
 7265TIP3    H143286   4.767   5.788  12.525 -1.8082 -0.6900 -1.3470
 7265TIP3    H243287   4.828   5.875  12.417 -0.0254  0.1831  0.2945
 7266TIP3   OH243288   1.180   4.309  14.220 -0.1191  0.2454  0.3793
 7266TIP3    H143289   1.192   4.342  14.131 -1.7755 -0.1067  0.0011
 7266TIP3    H243290   1.176   4.387  14.274 -0.4897  0.5218 -0.0407
 7267TIP3   OH243291   3.921   2.142   5.678 -0.3489  0.0126 -0.4211
 7267TIP3    H143292   3.849   2.195   5.710  1.4764  2.2445  0.2952
 7267TIP3    H243293   3.914   2.146   5.583 -2.1995 -1.4292 -0.4050
 7268TIP3   OH243294   4.128   0.480  14.440  0.4337 -0.5374  0.5163
 7268TIP3    H143295   4.151   0.449  14.353 -0.0591 -0.5375  0.3853
 7268TIP3    H243296   4.200   0.538  14.465 -0.6602  1.6636 -1.0165
 7269TIP3   OH243297   4.043   2.632   1.451 -0.3281  0.0527  0.2035
 7269TIP3    H143298   4.064   2.706   1.395 -1.1756  0.0263 -0.1636
 7269TIP3    H243299   4.108   2.636   1.522  1.3497 -0.4440 -1.2308
 7270TIP3   OH243300   3.358   1.219   0.509 -0.3724 -0.0249 -0.8073
 7270TIP3    H143301   3.451   1.202   0.527 -0.6716 -0.3115  0.5912
 7270TIP3    H243302   3.331   1.145   0.455  0.3189  0.2999 -1.6153
 7271TIP3   OH243303   2.816   5.011  15.508  0.7766  0.0429 -0.0121
 7271TIP3    H143304   2.735   5.059  15.493  0.6350  0.2245  1.2671
 7271TIP3    H243305   2.863   5.060  15.575  0.5821 -1.6072  1.4107
 7272TIP3   OH243306   1.092   0.466  15.547 -0.1864  0.7744  0.4559
 7272TIP3    H143307   1.012   0.465  15.600 -0.3912 -3.6772  0.4244
 7272TIP3    H243308   1.163   0.453  15.609 -0.1728 -1.6280  0.0288
 7273TIP3   OH243309   4.028   3.490  12.688 -0.5375 -0.1219 -0.0150
 7273TIP3    H143310   4.048   3.506  12.780  0.1683 -0.0624 -0.1714
 7273TIP3    H243311   3.981   3.406  12.688  2.4399 -1.9432  0.1265
 7274TIP3   OH243312   0.440   1.856  15.815  0.6168 -0.3791 -0.4641
 7274TIP3    H143313   0.460   1.764  15.834 -0.1392 -0.5444 -0.4446
 7274TIP3    H243314   0.407   1.854  15.725  1.9551  0.0767 -0.9924
 7275TIP3   OH243315   6.057   6.374   1.732 -0.2052 -0.2525 -0.3403
 7275TIP3    H143316   6.006   6.448   1.698 -0.5455 -0.2480  0.1674
 7275TIP3    H243317   6.126   6.415   1.784 -0.3056 -0.2850 -0.1800
 7276TIP3   OH243318   1.770   4.931   4.681 -0.4154 -0.3380  0.0924
 7276TIP3    H143319   1.783   4.853   4.734 -2.5744 -1.1869 -0.5053
 7276TIP3    H243320   1.687   4.915   4.636 -0.0288  1.5466 -1.4026
 7277TIP3   OH243321   6.624   1.516  13.677  0.2250 -0.3328  0.1914
 7277TIP3    H143322   6.638   1.550  13.589  1.6341 -0.3094  0.3912
 7277TIP3    H243323   6.638   1.422  13.669  1.4056 -0.2087  0.5533
 7278TIP3   OH243324   2.495   4.885  11.050  0.1363  0.0666 -0.1911
 7278TIP3    H143325   2.503   4.912  11.141 -0.7885  1.9057 -0.6100
 7278TIP3    H243326   2.569   4.826  11.036  1.8268  1.7755  1.0461
 7279TIP3   OH243327   6.757   1.561  14.968 -0.3787  0.0921 -0.5555
 7279TIP3    H143328   6.719   1.643  15.000  0.4285  0.1465  0.2713
 7279TIP3    H243329   6.703   1.492  15.009  0.9337  0.1440  1.3730
 7280TIP3   OH243330   3.244   3.714   5.487 -0.5566 -0.4536 -0.0307
 7280TIP3    H143331   3.244   3.620   5.505 -1.2828 -0.7060 -1.2324
 7280TIP3    H243332   3.155   3.742   5.505 -0.8354 -0.3746 -1.3859
 7281TIP3   OH243333   4.846   0.168   2.817  0.7586  0.0829 -0.4500
 7281TIP3    H143334   4.804   0.113   2.883  2.2461  0.9343  1.2844
 7281TIP3    H243335   4.792   0.247   2.815  0.9870  0.2649  0.1567
 7282TIP3   OH243336   6.463   5.780  14.396  0.1188  0.0421 -0.1062
 7282TIP3    H143337   6.384   5.833  14.389  2.0043  3.2213  0.8903
 7282TIP3    H243338   6.505   5.787  14.310 -0.0677 -0.6468 -0.2611
 7283TIP3   OH243339   6.358   1.150   3.489 -0.1660  0.4509  0.3132
 7283TIP3    H143340   6.420   1.079   3.471 -0.2804  0.6141 -0.7971
 7283TIP3    H243341   6.309   1.160   3.407 -1.4105  0.5703  1.0458
 7284TIP3   OH243342   6.326   4.480  12.171  0.4424 -0.6069  1.0867
 7284TIP3    H143343   6.316   4.446  12.082 -0.6191 -1.0129  1.3439
 7284TIP3    H243344   6.420   4.479  12.187  0.5501 -2.1621  0.5740
 7285TIP3   OH243345   5.839   1.912  12.537  0.5471 -0.4769  0.3875
 7285TIP3    H143346   5.786   1.954  12.470  0.0290 -0.0445  1.0587
 7285TIP3    H243347   5.869   1.984  12.593  0.2836 -0.9084  1.1030
 7286TIP3   OH243348   1.479   1.573  16.618 -0.5348  0.4009  0.2649
 7286TIP3    H143349   1.483   1.571  16.714  1.0473 -0.6615  0.2005
 7286TIP3    H243350   1.536   1.502  16.590 -0.7166  0.9107 -1.4876
 7287TIP3   OH243351   5.239   2.394   1.429  0.1433  0.5452 -0.2013
 7287TIP3    H143352   5.207   2.334   1.362  0.2402  0.9051 -0.5672
 7287TIP3    H243353   5.215   2.352   1.512 -3.5693  1.9664 -0.3901
 7288TIP3   OH243354   1.664   6.048  16.624 -0.2955  0.5943 -0.0537
 7288TIP3    H143355   1.632   6.090  16.703  0.9796  0.9017  0.3162
 7288TIP3    H243356   1.754   6.023  16.644  0.4035  1.5737 -1.7282
 7289TIP3   OH243357   1.616   4.169  11.185  0.4506  0.2416 -0.6955
 7289TIP3    H143358   1.573   4.091  11.150 -0.8020  0.5280  0.1375
 7289TIP3    H243359   1.648   4.142  11.271 -1.8748  1.1514  0.5564
 7290TIP3   OH243360   1.394   3.347   3.127 -0.3137 -0.4945 -0.3863
 7290TIP3    H143361   1.405   3.371   3.035  2.9164 -0.5248 -0.1333
 7290TIP3    H243362   1.400   3.252   3.128  0.3096 -0.4558 -0.0964
 7291TIP3   OH243363   2.685   4.181   0.336  0.5469 -0.4541 -1.0462
 7291TIP3    H143364   2.617   4.208   0.275 -1.0111 -0.7763  0.4741
 7291TIP3    H243365   2.714   4.096   0.303  0.6365 -0.0568 -2.0224
 7292TIP3   OH243366   6.306   0.912  11.818  0.1023  0.3945  0.4794
 7292TIP3    H143367   6.212   0.897  11.807  0.3020 -1.1089  0.6091
 7292TIP3    H243368   6.346   0.864  11.746  0.7425  2.0018 -0.2824
 7293TIP3   OH243369   4.375   1.265   3.492  1.0723  0.6199 -0.3512
 7293TIP3    H143370   4.411   1.181   3.464  2.0754  0.0567  2.3444
 7293TIP3    H243371   4.419   1.330   3.437  1.8479 -0.4709 -1.0564
 7294TIP3   OH243372   0.537   1.277  11.171 -0.6277 -0.0622 -0.8619
 7294TIP3    H143373   0.631   1.288  11.189 -0.8553  0.6228 -0.0119
 7294TIP3    H243374   0.494   1.326  11.240 -1.6245 -0.2803 -1.3134
 7295TIP3   OH243375   0.283   6.488  13.504 -0.5846 -0.6715 -0.2684
 7295TIP3    H143376   0.348   6.540  13.457 -0.6152 -0.7231 -0.3695
 7295TIP3    H243377   0.327   6.403  13.519  0.0224 -0.1348  1.2196
 7296TIP3   OH243378   4.221   2.839   0.507  0.0664  0.3856 -0.6306
 7296TIP3    H143379   4.306   2.874   0.483  1.7197 -1.4379  1.9800
 7296TIP3    H243380   4.213   2.759   0.455  1.7101 -1.3268  1.5403
 7297TIP3   OH243381   2.978   0.968  13.198  0.6064 -0.3036 -0.3268
 7297TIP3    H143382   2.988   1.029  13.272  1.9145 -1.0182  0.1039
 7297TIP3    H243383   3.066   0.959  13.162  0.1747 -0.8491 -1.2779
 7298TIP3   OH243384   5.225   3.417   3.492  0.4394 -0.7574  0.2023
 7298TIP3    H143385   5.277   3.394   3.569 -1.0863 -2.7886  0.7021
 7298TIP3    H243386   5.204   3.509   3.503  2.0739 -0.4483  1.0673
 7299TIP3   OH243387   5.463   0.191   5.007 -0.2394 -0.6704 -0.1504
 7299TIP3    H143388   5.515   0.246   4.948 -2.3960  1.0314 -0.6137
 7299TIP3    H243389   5.523   0.123   5.037  1.5649 -0.2392 -2.5083
 7300TIP3   OH243390   2.650   4.487  15.317 -0.2783  0.0341  0.2914
 7300TIP3    H143391   2.728   4.483  15.372  0.1632 -1.2801 -0.3830
 7300TIP3    H243392   2.681   4.465  15.229 -0.9284  2.2942 -0.5818
 7301TIP3   OH243393   5.958   4.466   0.356 -0.1655 -0.3165 -0.1290
 7301TIP3    H143394   6.029   4.526   0.376 -0.8277  0.8477 -1.1090
 7301TIP3    H243395   6.000   4.393   0.311  0.4850  0.0653 -0.1534
 7302TIP3   OH243396   1.831   0.738   3.983 -0.2452 -1.0387 -0.0642
 7302TIP3    H143397   1.839   0.675   4.054  3.4065 -1.8124 -0.9261
 7302TIP3    H243398   1.814   0.684   3.905 -2.2443 -0.3903 -0.1190
 7303TIP3   OH243399   5.732   3.850   3.725  0.6592 -0.4869 -0.2683
 7303TIP3    H143400   5.720   3.902   3.645 -0.6252  1.1421  0.9169
 7303TIP3    H243401   5.686   3.768   3.707 -0.2930  0.1699 -0.9171
 7304TIP3   OH243402   1.856   1.011  11.625 -0.1312 -0.2299  0.4809
 7304TIP3    H143403   1.853   1.107  11.631 -0.6129 -0.2431  0.5064
 7304TIP3    H243404   1.908   0.994  11.546 -2.6143  0.1298 -1.3522
 7305TIP3   OH243405   2.630   1.162   5.061 -0.2253 -0.0124  0.1813
 7305TIP3    H143406   2.567   1.235   5.061 -0.2708  0.0118 -1.9998
 7305TIP3    H243407   2.623   1.125   5.149 -0.2735  2.5369  1.3359
 7306TIP3   OH243408   4.612   4.054   4.462 -0.2880  0.2405 -0.4522
 7306TIP3    H143409   4.564   3.978   4.428  1.5930 -0.3619 -1.8718
 7306TIP3    H243410   4.695   4.019   4.492  0.1252  1.5742  0.0492
 7307TIP3   OH243411   6.354   0.953   1.663  0.3025 -0.1892  0.3523
 7307TIP3    H143412   6.377   0.889   1.731 -0.3214 -0.0256  0.7220
 7307TIP3    H243413   6.425   1.016   1.664  0.0241  0.1121  1.2329
 7308TIP3   OH243414   6.538   0.148  15.271  0.3839  0.7976 -0.6399
 7308TIP3    H143415   6.574   0.099  15.197  0.0614  1.3299 -1.1547
 7308TIP3    H243416   6.529   0.237  15.240 -1.0634  0.7512 -0.4322
 7309TIP3   OH243417   3.128   3.811   1.160 -0.4959  0.0569 -0.6649
 7309TIP3    H143418   3.129   3.837   1.252 -1.1717 -2.3677  0.1084
 7309TIP3    H243419   3.216   3.832   1.129  0.0425  0.1043  0.7979
 7310TIP3   OH243420   6.063   6.278   0.045  0.4696  0.8547  0.1682
 7310TIP3    H143421   6.117   6.352   0.018  1.1687  0.6574  0.9866
 7310TIP3    H243422   6.125   6.205   0.056  0.1665  0.8233  1.8577
 7311TIP3   OH243423   1.340   0.411  16.192  0.1339  0.0443  1.0977
 7311TIP3    H143424   1.434   0.428  16.196  0.8137 -2.7376 -0.3656
 7311TIP3    H243425   1.310   0.420  16.283  1.8933  0.5633  1.6551
 7312TIP3   OH243426   6.732   0.655  14.004 -0.2785  0.0212  0.4017
 7312TIP3    H143427   6.772   0.698  13.929  1.5313 -1.2786  0.5606
 7312TIP3    H243428   6.732   0.562  13.982 -0.8670 -0.2569  1.4894
 7313TIP3   OH243429   5.720   3.133   1.779 -0.7709 -0.2845 -0.4593
 7313TIP3    H143430   5.678   3.186   1.712 -1.7349 -1.1590 -0.5741
 7313TIP3    H243431   5.792   3.089   1.733  0.4930  1.3967 -0.2060
 7314TIP3   OH243432   1.044   3.015   5.949  0.5321  0.0396 -0.4712
 7314TIP3    H143433   0.949   3.014   5.937 -0.1038  1.0146  3.3713
 7314TIP3    H243434   1.059   2.972   6.033  3.2675  2.0448  0.2122
 7315TIP3   OH243435   6.099   3.417   2.011 -0.1501 -0.5417 -0.4584
 7315TIP3    H143436   6.187   3.385   1.990 -0.6724 -1.5814 -1.1953
 7315TIP3    H243437   6.113   3.484   2.078  1.2578 -0.1796 -1.0645
 7316TIP3   OH243438   5.326   3.474  14.161  0.5304 -0.1360  0.0521
 7316TIP3    H143439   5.278   3.394  14.142 -1.3368  0.4576  1.9232
 7316TIP3    H243440   5.403   3.445  14.211 -0.3265 -0.7792  1.0478
 7317TIP3   OH243441   6.024   2.441   3.006  0.1753  0.4731 -0.0940
 7317TIP3    H143442   5.948   2.438   3.064  1.8381 -0.1692  2.1902
 7317TIP3    H243443   6.016   2.525   2.961 -1.3178  0.8944  0.8874
 7318TIP3   OH243444   5.428   6.140   5.515 -0.7131 -0.5411 -0.4199
 7318TIP3    H143445   5.460   6.230   5.506  0.5183 -0.9953 -0.8855
 7318TIP3    H243446   5.342   6.141   5.474 -0.0100  0.0638 -1.9671
 7319TIP3   OH243447   0.372   6.786  15.937 -0.4647  0.0644  0.0443
 7319TIP3    H143448   0.391   6.693  15.953 -0.1964  0.0284 -0.4669
 7319TIP3    H243449   0.350   6.821  16.024  1.8094  0.0834  0.6868
 7320TIP3   OH243450   1.676   5.211  14.125  1.0802  0.2185 -0.5827
 7320TIP3    H143451   1.630   5.153  14.064  1.5230 -0.8590  0.0943
 7320TIP3    H243452   1.609   5.274  14.152 -0.9420 -2.9092  2.5295
 7321TIP3   OH243453   1.869   6.409  11.476 -0.1845  0.6373 -0.1752
 7321TIP3    H143454   1.872   6.400  11.572  0.2925  1.8729 -0.0588
 7321TIP3    H243455   1.901   6.325  11.444 -1.6025 -0.2968  0.7119
 7322TIP3   OH243456   3.961   5.305   0.483  0.0274  0.4307 -0.1033
 7322TIP3    H143457   3.965   5.363   0.559  0.6275 -0.3170  0.4559
 7322TIP3    H243458   4.051   5.304   0.449 -0.0388  0.0483 -0.2751
 7323TIP3   OH243459   1.625   3.745  11.360 -0.0600  0.0452  0.2559
 7323TIP3    H143460   1.685   3.800  11.411 -0.6450 -0.3589  1.4221
 7323TIP3    H243461   1.597   3.801  11.288 -1.8136  1.8912  2.2248
 7324TIP3   OH243462   4.237   6.729  13.362  0.1428 -0.5609 -0.4688
 7324TIP3    H143463   4.272   6.818  13.354 -1.8422  0.2459 -0.8319
 7324TIP3    H243464   4.314   6.672  13.357  1.6512  1.1811  1.5051
 7325TIP3   OH243465   5.658   3.705  12.274  0.0024 -0.3211 -0.0972
 7325TIP3    H143466   5.612   3.623  12.294  1.9674 -1.8223 -1.3421
 7325TIP3    H243467   5.729   3.709  12.337 -1.4134  1.7173  1.4834
 7326TIP3   OH243468   6.761   0.661  14.359 -0.1666 -0.0802  0.4237
 7326TIP3    H143469   6.854   0.642  14.346 -0.1285 -0.8397  1.6166
 7326TIP3    H243470   6.724   0.659  14.271  0.6697 -1.4241  0.0635
 7327TIP3   OH243471   5.532   3.462   4.797 -0.2071 -0.1823  0.2689
 7327TIP3    H143472   5.596   3.466   4.726  1.0626 -0.2366  1.3699
 7327TIP3    H243473   5.584   3.451   4.876 -1.6225 -0.9899  1.1458
 7328TIP3   OH243474   6.104   1.719   3.848  0.4253 -0.3471  0.2389
 7328TIP3    H143475   6.155   1.723   3.929 -0.0723 -0.3290  0.5590
 7328TIP3    H243476   6.165   1.688   3.782  0.3257 -2.4192  1.0589
 7329TIP3   OH243477   6.616   6.593  16.177 -0.0067  0.7701  0.2717
 7329TIP3    H143478   6.532   6.636  16.196  0.1328  1.5050 -0.7222
 7329TIP3    H243479   6.653   6.644  16.105  0.8919 -0.0839  0.1184
 7330TIP3   OH243480   6.052   6.084   3.794  0.2462  0.7514 -0.2622
 7330TIP3    H143481   6.025   5.993   3.784 -0.4522  1.0155 -0.9686
 7330TIP3    H243482   6.147   6.080   3.808 -0.0166 -0.1662  1.5501
 7331TIP3   OH243483   2.244   5.344  15.988  0.1886  0.0101 -0.3828
 7331TIP3    H143484   2.234   5.354  15.894 -0.7771  0.4500 -0.2540
 7331TIP3    H243485   2.222   5.253  16.006 -2.1982  0.5363 -0.3179
 7332TIP3   OH243486   1.076   3.441   6.351  0.2452 -0.0866  0.0762
 7332TIP3    H143487   1.137   3.441   6.425 -0.3340  0.0070  0.5656
 7332TIP3    H243488   1.090   3.525   6.308 -0.7921  0.7361  1.2628
 7333TIP3   OH243489   4.666   6.448  16.544 -0.0704 -0.2750  0.3070
 7333TIP3    H143490   4.745   6.502  16.546 -0.2070  0.1414 -2.3915
 7333TIP3    H243491   4.696   6.360  16.568  0.9494  0.1290  0.5717
 7334TIP3   OH243492   4.001   4.178   5.356 -0.0889 -0.2177 -0.4476
 7334TIP3    H143493   4.013   4.108   5.420  0.2079 -0.5691 -0.8787
 7334TIP3    H243494   3.934   4.234   5.394 -0.5832 -0.9213 -0.2510
 7335TIP3   OH243495   1.077   1.732  11.667  0.8477  0.0244 -0.3169
 7335TIP3    H143496   1.026   1.659  11.631  1.6668 -2.2686  2.7214
 7335TIP3    H243497   1.153   1.739  11.610 -0.5198  0.3147 -2.1711
 7336TIP3   OH243498   0.037   1.135  16.287  0.0335 -0.6491  0.0100
 7336TIP3    H143499   0.119   1.173  16.257 -0.3778  1.7745  1.5582
 7336TIP3    H243500   0.048   1.126  16.382 -1.7745  0.7555  0.4270
 7337TIP3   OH243501   2.295   4.833  14.842 -0.3018 -0.4996  0.0352
 7337TIP3    H143502   2.321   4.880  14.922 -1.8588  1.0150 -0.2870
 7337TIP3    H243503   2.335   4.883  14.771  1.0708 -1.8382 -0.1926
 7338TIP3   OH243504   0.461   6.225   4.956 -0.2851  0.2089  0.2857
 7338TIP3    H143505   0.387   6.193   5.009 -0.8503  0.4573 -0.3363
 7338TIP3    H243506   0.534   6.230   5.018 -0.0309 -2.6366  0.3686
 7339TIP3   OH243507   3.329   4.143  11.447 -0.0660 -0.3163 -0.0158
 7339TIP3    H143508   3.423   4.139  11.462 -0.2510  0.2799  1.4407
 7339TIP3    H243509   3.317   4.217  11.387  0.5222 -1.5212 -1.6843
 7340TIP3   OH243510   4.217   3.866   0.748  0.2830  0.1233  0.9124
 7340TIP3    H143511   4.186   3.944   0.702 -0.1139 -1.4684 -1.7643
 7340TIP3    H243512   4.185   3.793   0.695  0.5489 -1.9069  3.3401
 7341TIP3   OH243513   3.446   3.364   2.204  0.0963 -0.6909  0.1450
 7341TIP3    H143514   3.396   3.363   2.122  1.0748 -0.4430 -0.4766
 7341TIP3    H243515   3.530   3.405   2.180 -0.4044  1.4598  1.7559
 7342TIP3   OH243516   3.707   1.344  14.444 -0.5669 -0.4874  0.0958
 7342TIP3    H143517   3.701   1.439  14.436 -3.5091 -0.3727  1.8898
 7342TIP3    H243518   3.648   1.310  14.377  1.1593 -1.1554 -1.1448
 7343TIP3   OH243519   1.405   2.050  16.267  0.4993 -0.1659  0.5456
 7343TIP3    H143520   1.345   2.028  16.339  0.4679 -0.7959  0.3350
 7343TIP3    H243521   1.424   2.143  16.279 -1.5268  0.3845 -0.1351
 7344TIP3   OH243522   2.923   3.134  16.700  0.6311  1.1928 -0.3277
 7344TIP3    H143523   3.012   3.151  16.668  1.2579 -1.5120 -0.2061
 7344TIP3    H243524   2.886   3.073  16.637 -0.0220 -0.0688  1.2074
 7345TIP3   OH243525   0.965   6.290  17.125 -0.0261  0.1318 -0.4789
 7345TIP3    H143526   0.983   6.199  17.150  0.5038  0.3506 -0.0441
 7345TIP3    H243527   0.910   6.282  17.047  0.9916 -0.5862 -1.1636
 7346TIP3   OH243528   2.971   0.270  16.009  0.1300 -0.2949 -0.8337
 7346TIP3    H143529   2.922   0.193  16.037 -0.0481  0.5594  1.4787
 7346TIP3    H243530   3.055   0.262  16.055  0.4517  0.4472 -1.2753
 7347TIP3   OH243531   2.586   4.534  17.043 -0.1255  0.0169 -0.0796
 7347TIP3    H143532   2.682   4.538  17.042 -0.0169 -1.4777  0.9156
 7347TIP3    H243533   2.561   4.586  17.120  0.0410 -1.3052  0.9008
 7348TIP3   OH243534   4.423   1.703  14.261  0.3017 -0.3722  0.1875
 7348TIP3    H143535   4.439   1.732  14.171 -0.3614 -0.7808 -0.0702
 7348TIP3    H243536   4.387   1.780  14.305  0.8767 -0.0945  0.1780
 7349TIP3   OH243537   4.661   3.727  13.491 -0.1997  0.1127 -0.1470
 7349TIP3    H143538   4.670   3.680  13.574 -1.5339  1.5342  0.8372
 7349TIP3    H243539   4.752   3.738  13.461  0.4513  0.9804  1.9407
 7350TIP3   OH243540   3.459   0.543  11.672 -0.0417 -0.0241  0.1716
 7350TIP3    H143541   3.457   0.448  11.660  3.9419 -0.5410  1.9957
 7350TIP3    H243542   3.408   0.558  11.752 -0.0923 -0.7001  0.2698
 7351TIP3   OH243543   5.912   2.394   5.635  0.2302  0.9331  0.0568
 7351TIP3    H143544   5.822   2.364   5.646  0.5141  0.4844  1.2443
 7351TIP3    H243545   5.953   2.327   5.579  0.4058 -0.0565  1.3201
 7352TIP3   OH243546   2.945   4.505  11.596  0.1775  0.1001  0.4462
 7352TIP3    H143547   2.916   4.558  11.521  0.3574 -0.7462 -0.2420
 7352TIP3    H243548   3.039   4.496  11.584  0.4232  1.0262  1.4934
 7353TIP3   OH243549   2.883   1.330   4.095  0.3590 -0.3745 -0.3503
 7353TIP3    H143550   2.833   1.264   4.142 -0.7590  0.5790 -0.1467
 7353TIP3    H243551   2.827   1.407   4.095  1.5454  0.5305 -0.7296
 7354TIP3   OH243552   2.546   2.031   2.330 -0.0699 -0.1669  0.6431
 7354TIP3    H143553   2.464   2.027   2.280  0.3623  0.4735 -0.1385
 7354TIP3    H243554   2.615   2.036   2.264  0.3536  5.4934  1.0202
 7355TIP3   OH243555   0.047   2.670  15.777 -1.3888  0.4559 -0.4770
 7355TIP3    H143556  -0.044   2.699  15.782 -1.6448 -0.4513  0.5840
 7355TIP3    H243557   0.042   2.579  15.747 -0.8255  0.4348 -0.5187
 7356TIP3   OH243558   2.920   0.636   1.122  0.4642  0.2341 -0.2718
 7356TIP3    H143559   2.998   0.689   1.108  1.5238 -1.4093 -0.8696
 7356TIP3    H243560   2.868   0.648   1.043 -1.1519  3.1866  1.0442
 7357TIP3   OH243561   2.140   2.100   4.639 -0.3927  0.2392  0.0526
 7357TIP3    H143562   2.121   2.106   4.732 -0.7302 -0.0245  0.0037
 7357TIP3    H243563   2.216   2.157   4.626 -1.3012  1.5191  0.2042
 7358TIP3   OH243564   6.287   3.338  12.858 -0.4893  0.3716 -0.0520
 7358TIP3    H143565   6.365   3.368  12.812 -0.1537 -1.5573 -0.8529
 7358TIP3    H243566   6.319   3.271  12.918 -1.5860 -1.3573 -1.2712
 7359TIP3   OH243567   2.916   3.897   0.527 -0.3556 -0.5163 -0.0163
 7359TIP3    H143568   2.931   3.805   0.548 -3.0075 -0.8155  0.9128
 7359TIP3    H243569   2.899   3.899   0.433  2.1538 -0.5539 -0.5283
 7360TIP3   OH243570   5.532   3.521  12.844 -0.2566 -0.1502 -0.0496
 7360TIP3    H143571   5.445   3.559  12.853  0.2936  1.3390 -0.5929
 7360TIP3    H243572   5.590   3.597  12.833  0.9833 -1.1404 -0.6378
 7361TIP3   OH243573   5.883   2.431   5.899 -0.4154  0.0924  0.3101
 7361TIP3    H143574   5.857   2.443   5.807 -1.3219  0.6282  0.6161
 7361TIP3    H243575   5.961   2.376   5.895 -0.7603 -0.3541 -0.7522
 7362TIP3   OH243576   0.628   5.081  11.043  0.0677  0.7636 -0.2003
 7362TIP3    H143577   0.652   5.107  10.954  2.5136  0.1525  0.2032
 7362TIP3    H243578   0.667   4.994  11.054  1.3976  1.5641  2.0440
 7363TIP3   OH243579   5.462   2.814  13.121 -0.5758  0.4411  0.0312
 7363TIP3    H143580   5.536   2.834  13.063 -1.9290  0.9109 -1.5992
 7363TIP3    H243581   5.414   2.896  13.127 -0.5332  0.3765  1.7976
 7364TIP3   OH243582   4.401   6.049  16.379 -0.2451  0.0147 -0.3962
 7364TIP3    H143583   4.450   6.010  16.307 -0.4713  0.9993 -1.0966
 7364TIP3    H243584   4.343   6.113  16.337  0.7674  1.7825  0.7890
 7365TIP3   OH243585   2.360   3.736  12.864  0.0692 -0.4921  0.1912
 7365TIP3    H143586   2.284   3.748  12.806  1.1162  1.3507 -0.8891
 7365TIP3    H243587   2.325   3.752  12.952 -1.0493 -0.9241 -0.1522
 7366TIP3   OH243588   1.732   5.408   4.160  0.3526  0.5071  0.1410
 7366TIP3    H143589   1.732   5.369   4.248 -0.8620  0.3128  0.0696
 7366TIP3    H243590   1.811   5.374   4.119  0.8222  0.4215  1.0739
 7367TIP3   OH243591   5.447   1.729  17.183  0.3543  0.0144 -0.9266
 7367TIP3    H143592   5.453   1.778  17.266  0.3332  3.1717 -2.6128
 7367TIP3    H243593   5.423   1.640  17.209  0.0446  0.9369  2.4261
 7368TIP3   OH243594   3.201   3.113   3.151  0.0175 -0.2509 -0.2884
 7368TIP3    H143595   3.273   3.060   3.187  0.0877  0.0904  0.0768
 7368TIP3    H243596   3.240   3.199   3.136  0.4552 -0.7756 -2.7153
 7369TIP3   OH243597   0.914   1.568   4.722 -0.2343 -0.1912 -0.4432
 7369TIP3    H143598   0.832   1.557   4.674 -1.4423  0.7565  1.3006
 7369TIP3    H243599   0.943   1.656   4.700 -0.1443 -0.2060 -0.3864
 7370TIP3   OH243600   4.625   1.168  14.652 -0.1045 -0.1053  0.0549
 7370TIP3    H143601   4.630   1.241  14.714  1.3021 -0.8601  0.8868
 7370TIP3    H243602   4.595   1.208  14.570  0.9413  1.4695  0.3906
 7371TIP3   OH243603   4.852   6.051   3.460  0.2095  0.0160 -0.0093
 7371TIP3    H143604   4.787   6.115   3.490 -0.5348 -0.5052 -0.4662
 7371TIP3    H243605   4.800   5.977   3.429  0.8171  0.8691 -3.5105
 7372TIP3   OH243606   6.226   3.262  15.285 -0.5924  0.3153  0.6195
 7372TIP3    H143607   6.188   3.313  15.213 -2.3167  0.4885  1.5942
 7372TIP3    H243608   6.321   3.272  15.274 -0.8194  0.9405 -1.1765
 7373TIP3   OH243609   0.300   0.119  17.198  0.1148  0.2411 -0.1708
 7373TIP3    H143610   0.205   0.121  17.209 -0.0139  0.9504 -1.2595
 7373TIP3    H243611   0.313   0.133  17.104  1.1748 -2.8871 -0.6346
 7374TIP3   OH243612   5.678   2.406  15.643  0.8812 -0.3988 -0.3709
 7374TIP3    H143613   5.635   2.397  15.728 -2.8044  1.6650 -1.8025
 7374TIP3    H243614   5.760   2.451  15.664  0.3282 -0.3729  2.1269
 7375TIP3   OH243615   1.823   3.805  14.925  0.3748  0.6586 -0.2932
 7375TIP3    H143616   1.752   3.824  14.987 -0.3964 -1.4055 -0.4499
 7375TIP3    H243617   1.779   3.758  14.854  1.8820 -0.7321 -0.3550
 7376TIP3   OH243618   3.336   5.296   4.288 -0.3865 -0.1196  0.2352
 7376TIP3    H143619   3.431   5.293   4.297 -0.5447  0.2665  2.9295
 7376TIP3    H243620   3.321   5.338   4.203  1.8227 -0.1536 -0.2300
 7377TIP3   OH243621   5.765   6.273  13.754 -0.4273 -0.8851  0.2106
 7377TIP3    H143622   5.745   6.205  13.690 -0.6422 -0.2393 -0.4309
 7377TIP3    H243623   5.762   6.354  13.703 -3.2112 -0.0452  1.4734
 7378TIP3   OH243624   2.855   2.895   0.724 -0.2719 -0.4049  0.2515
 7378TIP3    H143625   2.767   2.915   0.757  0.1772 -1.7300  2.4507
 7378TIP3    H243626   2.879   2.973   0.674 -2.2951  0.4049  0.4156
 7379TIP3   OH243627   0.245   3.824  15.551 -0.4408 -0.0027  0.3047
 7379TIP3    H143628   0.158   3.794  15.577 -1.3457 -0.4438 -2.8523
 7379TIP3    H243629   0.232   3.916  15.528 -0.3650 -0.3166 -1.1081
 7380TIP3   OH243630   5.447   5.486  10.609  0.5290  0.2313  0.0564
 7380TIP3    H143631   5.374   5.508  10.551  0.4123  1.5682  0.6786
 7380TIP3    H243632   5.516   5.548  10.586  0.7068  0.3676  0.8998
 7381TIP3   OH243633   1.044   6.063  13.015  0.1604 -0.1618 -0.2537
 7381TIP3    H143634   1.036   6.057  13.110  1.4881  1.3318 -0.0044
 7381TIP3    H243635   1.136   6.087  13.000 -0.4476  1.3666 -1.8130
 7382TIP3   OH243636   4.279   4.901   5.445 -0.3073 -0.3003  0.4282
 7382TIP3    H143637   4.298   4.814   5.410 -1.3049 -0.2463 -0.3075
 7382TIP3    H243638   4.183   4.905   5.447 -0.2716  0.5423  1.0703
 7383TIP3   OH243639   6.669   6.136  13.968  0.7270  0.2537  0.1797
 7383TIP3    H143640   6.598   6.134  13.904 -0.3963 -0.9685  1.4003
 7383TIP3    H243641   6.733   6.196  13.931 -0.3781  0.4252 -1.5559
 7384TIP3   OH243642   6.412   2.220  12.559  0.4256  0.2516 -0.5067
 7384TIP3    H143643   6.320   2.222  12.534  0.4666 -2.9737 -1.4025
 7384TIP3    H243644   6.424   2.299  12.612 -1.7471  3.0627 -3.7197
 7385TIP3   OH243645   4.881   2.274  11.847 -1.0397  0.2577  0.6635
 7385TIP3    H143646   4.941   2.267  11.772 -2.7038  0.1562 -0.7248
 7385TIP3    H243647   4.902   2.198  11.901 -1.3674 -0.9981 -0.9146
 7386TIP3   OH243648   2.414   1.909  15.393  0.3998 -0.5095  0.4027
 7386TIP3    H143649   2.403   1.993  15.348 -0.1210 -0.3189  0.8692
 7386TIP3    H243650   2.508   1.890  15.386  0.3679 -0.3670 -0.5378
 7387TIP3   OH243651   5.338   0.881  17.179 -0.2397 -0.0225 -0.2512
 7387TIP3    H143652   5.269   0.850  17.121 -0.5031  0.8245 -0.3909
 7387TIP3    H243653   5.375   0.957  17.134 -0.5631  0.7541  0.7640
 7388TIP3   OH243654   0.727   0.151   3.114 -0.0651 -0.3572 -0.2177
 7388TIP3    H143655   0.729   0.064   3.074 -0.0049 -1.3368  1.8091
 7388TIP3    H243656   0.819   0.176   3.123 -0.0343 -0.7740  0.6272
 7389TIP3   OH243657   1.773   4.482  17.094  0.0332 -0.3601 -0.5574
 7389TIP3    H143658   1.791   4.390  17.072  1.8592  0.0427 -0.8966
 7389TIP3    H243659   1.857   4.526  17.083 -0.7034  1.2768  0.0822
 7390TIP3   OH243660   1.999   5.276   2.889 -0.1504 -0.3607 -0.1203
 7390TIP3    H143661   2.068   5.302   2.951 -0.2091  2.3264 -1.0420
 7390TIP3    H243662   2.039   5.286   2.803 -1.4079  0.4814 -0.6401
 7391TIP3   OH243663   0.150   1.738   3.316  0.3729 -0.6629 -0.0464
 7391TIP3    H143664   0.105   1.731   3.232  0.6938  1.9328 -0.5002
 7391TIP3    H243665   0.237   1.703   3.300  0.2042 -0.8364 -0.6008
 7392TIP3   OH243666   0.133   1.640   6.201 -0.2901  0.2226  0.1520
 7392TIP3    H143667   0.112   1.727   6.235 -1.5559 -0.1034  0.2676
 7392TIP3    H243668   0.101   1.640   6.111  0.6865  0.2230 -0.2018
 7393TIP3   OH243669   6.701   2.075  12.196  0.8343  0.4158  0.3569
 7393TIP3    H143670   6.646   2.061  12.273  0.2291  0.8970  0.0197
 7393TIP3    H243671   6.782   2.027  12.215 -0.2425 -1.5562  0.2349
 7394TIP3   OH243672   0.439   2.065  14.370 -0.0994  0.3268  0.1550
 7394TIP3    H143673   0.516   2.120  14.380 -0.7208  1.0458  1.2203
 7394TIP3    H243674   0.437   2.012  14.450 -0.2576 -0.2724 -0.2414
 7395TIP3   OH243675   5.895   0.775   5.143  0.0817  0.6267 -0.3821
 7395TIP3    H143676   5.923   0.866   5.142  0.5557  0.4805 -0.6998
 7395TIP3    H243677   5.874   0.756   5.052 -2.0476  1.0277 -0.0342
 7396TIP3   OH243678   5.002   2.934   6.012 -0.1901  0.3823 -0.3506
 7396TIP3    H143679   4.970   2.896   5.931  2.4851 -0.5274 -1.0984
 7396TIP3    H243680   4.935   2.913   6.077 -2.4273  1.1934 -2.2641
 7397TIP3   OH243681   1.058   0.650   1.287 -0.0991 -0.2370  0.0968
 7397TIP3    H143682   1.084   0.714   1.221 -1.4952  1.0029  0.6969
 7397TIP3    H243683   1.084   0.691   1.370 -1.2833 -0.2947  0.5068
 7398TIP3   OH243684   6.719   0.839  13.033 -0.4066  0.0988  0.1268
 7398TIP3    H143685   6.700   0.820  12.941  0.0873  2.2842 -0.4861
 7398TIP3    H243686   6.743   0.932  13.034 -2.0604  0.6245  2.7100
 7399TIP3   OH243687   0.038   5.097   6.060 -0.2258 -0.4919  0.0237
 7399TIP3    H143688  -0.034   5.129   6.114  0.4662  0.2307  0.5351
 7399TIP3    H243689   0.052   5.007   6.089  0.4256  0.0198  1.3811
 7400TIP3   OH243690   3.470   3.160  12.493 -0.0636 -0.2263 -0.0962
 7400TIP3    H143691   3.414   3.082  12.495  0.4562 -0.6205 -0.5555
 7400TIP3    H243692   3.552   3.132  12.534 -0.7729  0.8458  2.2502
 7401TIP3   OH243693   2.055   1.486  14.039 -1.0991 -0.2784 -0.7372
 7401TIP3    H143694   2.054   1.523  14.128 -0.1511 -1.4107 -0.2308
 7401TIP3    H243695   2.135   1.433  14.036 -2.3922 -2.2793 -1.4246
 7402TIP3   OH243696   1.985   5.743  12.222 -0.4406  0.6921  0.1843
 7402TIP3    H143697   1.900   5.787  12.220 -0.7910  0.0175  0.1605
 7402TIP3    H243698   2.026   5.774  12.302 -0.5490  1.3082  0.0096
 7403TIP3   OH243699   5.923   2.861  16.772  0.1660  0.5985 -0.2334
 7403TIP3    H143700   5.835   2.899  16.785 -0.9600 -1.5732 -1.0982
 7403TIP3    H243701   5.943   2.878  16.680  0.2927  0.3793 -0.2469
 7404TIP3   OH243702   3.054   6.770  11.699 -0.0386 -0.0204  0.0366
 7404TIP3    H143703   3.100   6.845  11.736 -2.1516  0.8256  1.1272
 7404TIP3    H243704   2.965   6.776  11.734 -1.4925 -0.6339 -3.1741
 7405TIP3   OH243705   0.375   1.228  12.964  0.6866  0.4802 -0.5365
 7405TIP3    H143706   0.457   1.271  12.942  1.1013  0.1323  0.3001
 7405TIP3    H243707   0.400   1.142  12.997  0.0966  0.9028  1.0977
 7406TIP3   OH243708   5.359   1.898  11.704  0.2976  0.3113  0.2570
 7406TIP3    H143709   5.348   1.837  11.632 -3.3652  0.2009  0.7341
 7406TIP3    H243710   5.388   1.843  11.777 -1.1561 -0.5892  0.1974
 7407TIP3   OH243711   6.274   2.999   5.800 -0.7143  0.4130  0.5463
 7407TIP3    H143712   6.184   2.989   5.768 -0.4989  0.4683 -0.1029
 7407TIP3    H243713   6.269   2.981   5.894 -1.6043  1.5483  0.7358
 7408TIP3   OH243714   1.619   1.355   1.267  0.3321  0.2194  0.2205
 7408TIP3    H143715   1.595   1.422   1.203  0.1562 -0.6766 -0.6780
 7408TIP3    H243716   1.713   1.343   1.254  0.4028  0.4264  0.5225
 7409TIP3   OH243717   5.312   6.215  11.215  0.0112  0.5250  0.0485
 7409TIP3    H143718   5.301   6.291  11.272 -0.7106  0.3538  0.1579
 7409TIP3    H243719   5.395   6.177  11.241  1.5133  2.5072 -1.4865
 7410TIP3   OH243720   1.200   0.020   3.931 -0.1969  0.0737 -0.5809
 7410TIP3    H143721   1.263   0.051   3.997 -1.3250  1.3164 -0.0388
 7410TIP3    H243722   1.237   0.048   3.847  0.1609  0.4597 -0.3019
 7411TIP3   OH243723   5.704   6.614  15.845 -0.1885  0.5646  0.1995
 7411TIP3    H143724   5.663   6.527  15.848  2.2105 -0.7436 -1.6235
 7411TIP3    H243725   5.782   6.602  15.792  0.3480  3.8476  0.0436
 7412TIP3   OH243726   2.877   5.189   1.971 -0.4166 -0.1427 -0.1152
 7412TIP3    H143727   2.887   5.284   1.980  0.1208 -0.1917 -0.1233
 7412TIP3    H243728   2.966   5.155   1.985 -0.4995 -0.5987 -0.6713
 7413TIP3   OH243729   6.433   0.665   3.243 -0.5150  0.4612  0.2286
 7413TIP3    H143730   6.367   0.729   3.271 -0.0994  0.6601  0.7758
 7413TIP3    H243731   6.490   0.714   3.183 -0.9608  0.2421 -0.3800
 7414TIP3   OH243732   2.400   5.949   1.531  0.0272 -0.5937 -0.3339
 7414TIP3    H143733   2.307   5.959   1.550  0.5641  2.8308  1.4555
 7414TIP3    H243734   2.431   5.882   1.592 -0.6818  0.9342  1.8246
 7415TIP3   OH243735   6.614   5.476   0.072 -0.2265  0.0142 -0.1798
 7415TIP3    H143736   6.552   5.547   0.086  0.4559  0.5266  0.3243
 7415TIP3    H243737   6.609   5.457  -0.021 -1.2752 -0.0902 -0.1135
 7416TIP3   OH243738   1.862   1.393   4.765 -0.3044 -0.1598  0.3171
 7416TIP3    H143739   1.945   1.362   4.729 -0.1079 -0.6524  1.1831
 7416TIP3    H243740   1.804   1.396   4.689  1.3136  3.3438 -1.0318
 7417TIP3   OH243741   4.384   6.772   1.461  0.3069  0.1358  0.1700
 7417TIP3    H143742   4.424   6.796   1.545  2.0019 -0.2704 -0.4886
 7417TIP3    H243743   4.318   6.707   1.485 -0.7458  1.5690  1.3949
 7418TIP3   OH243744   3.619   6.340  15.727 -0.5349 -0.2733 -0.2474
 7418TIP3    H143745   3.582   6.277  15.665 -1.0006  0.5828 -0.8621
 7418TIP3    H243746   3.544   6.389  15.758 -0.2747 -0.5404  0.8487
 7419TIP3   OH243747   4.245   0.367  17.137  0.3359  0.1052 -0.2502
 7419TIP3    H143748   4.175   0.400  17.193 -0.1039  0.1910 -0.8405
 7419TIP3    H243749   4.325   0.396  17.180 -0.0138  0.8826 -0.0980
 7420TIP3   OH243750   3.098   0.156  13.567 -0.8632 -0.0278 -0.0914
 7420TIP3    H143751   3.058   0.141  13.652  0.6848  1.9748  1.0700
 7420TIP3    H243752   3.192   0.151  13.583 -0.5013  1.6850 -1.3762
 7421TIP3   OH243753   0.110   1.371  14.439 -0.2664 -0.0390 -0.4744
 7421TIP3    H143754   0.087   1.282  14.415  0.7495 -0.0977 -1.2890
 7421TIP3    H243755   0.058   1.389  14.518 -0.9316 -1.1209 -0.6483
 7422TIP3   OH243756   4.481   3.479  14.470 -0.4330  0.4520 -0.5256
 7422TIP3    H143757   4.500   3.386  14.469 -1.9216  0.1204 -1.3220
 7422TIP3    H243758   4.399   3.486  14.519 -1.1209  1.1485 -1.7195
 7423TIP3   OH243759   4.200   5.933   5.641 -0.3754  0.2123 -0.6748
 7423TIP3    H143760   4.161   5.862   5.691  1.2438 -0.5878 -0.4795
 7423TIP3    H243761   4.126   5.974   5.596 -1.3027 -1.9539 -1.2488
 7424TIP3   OH243762   1.244   1.382  16.169 -0.4657  0.0938 -0.0509
 7424TIP3    H143763   1.155   1.348  16.172 -0.7564 -0.3351 -4.9703
 7424TIP3    H243764   1.235   1.473  16.142  0.5608 -0.1431 -1.2614
 7425TIP3   OH243765   5.440   3.713  13.244  0.1259  0.0269  0.0369
 7425TIP3    H143766   5.449   3.706  13.149  0.3662 -0.1572  0.0715
 7425TIP3    H243767   5.419   3.806  13.260 -2.7700 -0.4550 -0.4077
 7426TIP3   OH243768   5.558   2.351  10.471  0.7294  0.0821 -0.4826
 7426TIP3    H143769   5.534   2.295  10.545 -0.2685 -0.5142 -1.2340
 7426TIP3    H243770   5.654   2.350  10.471  0.7722 -2.4860 -1.0740
 7427TIP3   OH243771   3.222   5.220   5.896 -0.1537 -0.2420 -0.3677
 7427TIP3    H143772   3.164   5.159   5.942 -0.3004  0.1563 -0.0179
 7427TIP3    H243773   3.269   5.166   5.833 -0.4169 -0.6848 -0.1865
 7428TIP3   OH243774   4.298   0.266   4.125  0.1633  0.5755 -0.2676
 7428TIP3    H143775   4.208   0.268   4.158  0.9171  0.3985  2.0083
 7428TIP3    H243776   4.331   0.355   4.139  0.3536  0.6287 -1.0451
 7429TIP3   OH243777   5.402   3.765  16.375 -0.2484 -0.0102  0.3583
 7429TIP3    H143778   5.432   3.767  16.285 -0.1966  0.7275  0.3874
 7429TIP3    H243779   5.396   3.857  16.401  0.2863 -0.2182  1.2892
 7430TIP3   OH243780   2.449   2.387   6.644 -0.0377  0.2581  0.3166
 7430TIP3    H143781   2.462   2.479   6.622  1.2159 -0.1687 -0.7793
 7430TIP3    H243782   2.362   2.366   6.610  0.0407  0.7952 -0.2136
 7431TIP3   OH243783   1.122   0.898  14.117 -0.1781  0.9573  0.0387
 7431TIP3    H143784   1.161   0.875  14.202 -0.1487 -0.2332 -0.2826
 7431TIP3    H243785   1.192   0.882  14.054 -1.0627 -0.9768 -0.5199
 7432TIP3   OH243786   5.161   4.824  13.686 -0.1308  0.2290 -0.7238
 7432TIP3    H143787   5.069   4.831  13.711 -1.2016 -1.5115 -3.7321
 7432TIP3    H243788   5.186   4.913  13.663 -2.0463  0.3476 -2.7008
 7433TIP3   OH243789   2.944   0.299   3.366 -0.1413 -0.1148 -0.1124
 7433TIP3    H143790   2.984   0.301   3.453  0.6712  0.6080 -0.4809
 7433TIP3    H243791   2.904   0.386   3.357  0.3455  0.0549 -0.7007
 7434TIP3   OH243792   4.525   4.513  13.010 -0.2713  0.2476 -0.1981
 7434TIP3    H143793   4.439   4.546  13.037 -0.4589 -0.4170  0.0532
 7434TIP3    H243794   4.543   4.441  13.071 -0.4770 -0.9653 -1.5289
 7435TIP3   OH243795   4.580   3.524  12.217  0.0902  0.5019 -0.0257
 7435TIP3    H143796   4.534   3.565  12.291  1.1897  2.4869 -0.3855
 7435TIP3    H243797   4.665   3.499  12.253 -0.8258 -2.3414  0.3991
 7436TIP3   OH243798   0.687   2.333  16.407 -0.2726  0.4532  0.3890
 7436TIP3    H143799   0.776   2.301  16.392 -0.7720 -0.2323 -1.4278
 7436TIP3    H243800   0.690   2.426  16.383  0.2526  0.7995  1.7237
 7437TIP3   OH243801   6.336   6.715   3.231  0.0024 -0.5221 -0.7252
 7437TIP3    H143802   6.395   6.790   3.220 -0.9044  0.5264  1.1363
 7437TIP3    H243803   6.260   6.736   3.177 -0.1840 -0.1554 -0.3269
 7438TIP3   OH243804   2.457   5.438  13.572 -0.2599 -0.8191  0.4009
 7438TIP3    H143805   2.369   5.472  13.588  0.2948 -0.3089  2.7515
 7438TIP3    H243806   2.444   5.360  13.518 -1.8762  0.8185 -1.7624
 7439TIP3   OH243807   4.393   0.731   3.122 -0.1728 -0.1599 -0.4790
 7439TIP3    H143808   4.379   0.824   3.105 -1.3992 -0.3652 -0.6311
 7439TIP3    H243809   4.421   0.695   3.038  0.6841  0.1340 -0.3283
 7440TIP3   OH243810   0.566   5.041  11.884 -0.0104 -0.9301 -0.7127
 7440TIP3    H143811   0.583   5.106  11.816  0.3794 -0.3915 -0.1072
 7440TIP3    H243812   0.471   5.026  11.880 -0.1247 -0.2145 -0.7540
 7441TIP3   OH243813   0.517   3.252   5.466  0.5207  0.0774 -0.0066
 7441TIP3    H143814   0.590   3.313   5.463 -0.0464  0.8209  0.8866
 7441TIP3    H243815   0.533   3.199   5.544  0.9958 -0.9248 -0.7597
 7442TIP3   OH243816   0.839   5.244  11.940 -0.0112  0.0895 -0.7806
 7442TIP3    H143817   0.900   5.299  11.892  0.0499  0.0954 -0.6954
 7442TIP3    H243818   0.890   5.166  11.963  0.4134  0.7740  0.6463
 7443TIP3   OH243819   6.376   0.609   1.971  0.4144 -0.0249 -0.3826
 7443TIP3    H143820   6.430   0.573   2.041  0.5817 -0.2652 -0.6338
 7443TIP3    H243821   6.402   0.701   1.967  0.2252  0.0480  0.0361
 7444TIP3   OH243822   3.243   3.690  12.853 -0.0948  0.2873 -0.3217
 7444TIP3    H143823   3.239   3.630  12.779 -1.8853 -3.3998  2.4468
 7444TIP3    H243824   3.311   3.653  12.910 -0.2545  1.7496  0.8802
 7445TIP3   OH243825   3.487   2.739  12.667  0.9398  0.2730  0.3906
 7445TIP3    H143826   3.567   2.713  12.621  1.1074 -1.4468  1.5440
 7445TIP3    H243827   3.482   2.679  12.741 -1.7590 -0.0952  0.0074
 7446TIP3   OH243828   3.790   0.941   4.998  0.4235  0.6553 -0.3794
 7446TIP3    H143829   3.852   1.014   5.003  3.1860 -1.5603  2.2535
 7446TIP3    H243830   3.836   0.874   4.947  0.8562 -1.4107  2.4257
 7447TIP3   OH243831   6.291   2.924   0.699 -0.0755  0.1924 -0.0964
 7447TIP3    H143832   6.196   2.931   0.692 -0.1568  0.6004  1.2771
 7447TIP3    H243833   6.325   2.994   0.644 -0.5354 -0.4201 -1.1962
 7448TIP3   OH243834   6.603   1.083   0.570 -0.1356  0.0455 -0.1561
 7448TIP3    H143835   6.662   1.024   0.617 -2.1274 -0.8906  1.2901
 7448TIP3    H243836   6.557   1.027   0.508 -1.2599  0.2372  0.4694
 7449TIP3   OH243837   5.820   0.405  14.382  0.2915 -0.0685 -0.1939
 7449TIP3    H143838   5.760   0.471  14.349 -1.2058 -0.4253  1.6777
 7449TIP3    H243839   5.904   0.425  14.339 -0.6156  1.7429 -1.2227
 7450TIP3   OH243840   2.872   2.846   6.622 -0.0978 -0.1830  0.5327
 7450TIP3    H143841   2.807   2.911   6.649 -0.7928 -0.5399 -0.2493
 7450TIP3    H243842   2.956   2.891   6.632 -0.4787  0.3858  1.2599
 7451TIP3   OH243843   4.509   5.706   0.989  0.5109  0.3795 -0.7567
 7451TIP3    H143844   4.438   5.644   1.003  0.0779  0.7932 -1.0835
 7451TIP3    H243845   4.587   5.662   1.023  0.0720 -0.0100 -0.2527
 7452TIP3   OH243846   2.194   6.217  17.077  0.4141 -0.6305  0.4251
 7452TIP3    H143847   2.259   6.216  17.007  0.1080 -0.4249  0.1319
 7452TIP3    H243848   2.118   6.174  17.040  0.7088 -1.7618  1.0967
 7453TIP3   OH243849   4.184   4.540   2.885  0.0969  0.6664 -0.1144
 7453TIP3    H143850   4.175   4.525   2.791  2.3428  0.9110 -0.4220
 7453TIP3    H243851   4.224   4.459   2.919 -0.0269  0.8572  0.5095
 7454TIP3   OH243852   5.290   2.933  16.410  0.1039 -0.1917  0.0272
 7454TIP3    H143853   5.227   2.990  16.455  0.8099  0.1827  0.5672
 7454TIP3    H243854   5.376   2.970  16.432  0.4777  0.9659 -2.9281
 7455TIP3   OH243855   6.561   2.136   5.988 -0.1636 -0.0848 -0.1325
 7455TIP3    H143856   6.569   2.057   6.041  1.0721  0.0755 -0.0385
 7455TIP3    H243857   6.567   2.208   6.051  0.9336  0.1012 -0.4341
 7456TIP3   OH243858   1.427   3.871   3.025  0.0881 -0.4896  0.2408
 7456TIP3    H143859   1.498   3.810   3.004 -0.4379 -1.9752  2.4165
 7456TIP3    H243860   1.420   3.868   3.120 -1.9104  0.7879  0.1946
 7457TIP3   OH243861   5.456   5.657   0.071 -0.4158  0.1050 -0.5384
 7457TIP3    H143862   5.384   5.595   0.085  0.4278 -1.0270 -1.0601
 7457TIP3    H243863   5.424   5.717   0.004 -1.5084  0.6906  0.4793
 7458TIP3   OH243864   1.029   5.819   0.606 -0.1788  0.0502  0.0819
 7458TIP3    H143865   1.046   5.741   0.555  1.3998  0.9897 -0.9285
 7458TIP3    H243866   0.934   5.831   0.602 -0.2284 -0.6686 -1.4610
 7459TIP3   OH243867   1.386   0.552  14.919 -0.1796 -0.4339 -0.3578
 7459TIP3    H143868   1.467   0.502  14.928 -0.4941 -0.9446 -0.3646
 7459TIP3    H243869   1.397   0.600  14.837 -0.1460 -0.9900 -0.6828
 7460TIP3   OH243870   3.692   3.356  13.526  0.1205 -0.6295  0.2047
 7460TIP3    H143871   3.633   3.415  13.572 -0.0593 -0.3722 -0.3412
 7460TIP3    H243872   3.648   3.271  13.528  0.0723 -0.5997  0.4236
 7461TIP3   OH243873   6.435   6.519   6.375 -0.4968 -0.0956  0.5978
 7461TIP3    H143874   6.511   6.489   6.424 -0.7083 -1.8102 -0.0348
 7461TIP3    H243875   6.457   6.500   6.283 -1.5326 -0.3104  0.3825
 7462TIP3   OH243876   0.103   1.276   2.260  0.4724  0.6974  0.3685
 7462TIP3    H143877   0.161   1.223   2.314  0.3428 -0.5804 -0.6874
 7462TIP3    H243878   0.152   1.356   2.243  0.4856  1.1614  2.3843
 7463TIP3   OH243879   5.561   4.022  14.174 -0.1817  0.5786 -0.1724
 7463TIP3    H143880   5.536   3.938  14.212 -1.4456  1.2562  0.5456
 7463TIP3    H243881   5.479   4.059  14.141  0.2538  1.8018  0.0787
 7464TIP3   OH243882   3.437   6.030  11.786  0.5291 -0.4776 -0.2959
 7464TIP3    H143883   3.350   6.008  11.752  0.2159 -0.5698  0.5285
 7464TIP3    H243884   3.497   5.972  11.740  0.2571  0.1316 -1.4553
 7465TIP3   OH243885   6.741   4.700  12.312 -0.0173  0.0163 -0.1051
 7465TIP3    H143886   6.683   4.750  12.370 -0.0663 -1.5808  1.3057
 7465TIP3    H243887   6.816   4.679  12.367  0.9331  0.2617 -1.2889
 7466TIP3   OH243888   3.964   0.888   1.739  0.6027  0.2748 -0.4829
 7466TIP3    H143889   3.926   0.807   1.772  1.0578  0.2738  0.0539
 7466TIP3    H243890   3.904   0.917   1.671  1.5346 -1.6561 -2.2317
 7467TIP3   OH243891   1.045   2.175   4.506  0.1579  0.3448  0.1345
 7467TIP3    H143892   1.070   2.083   4.492 -0.8375 -0.0867  1.0530
 7467TIP3    H243893   0.980   2.193   4.438  0.8943  0.6083 -0.5100
 7468TIP3   OH243894   1.793   3.592   2.092 -0.2809 -0.1077 -0.2842
 7468TIP3    H143895   1.796   3.524   2.025  0.9577 -1.4978  1.0839
 7468TIP3    H243896   1.701   3.598   2.116 -0.6502 -0.0300 -1.6376
 7469TIP3   OH243897   0.171   6.143   0.821 -0.4422  0.1981 -0.0651
 7469TIP3    H143898   0.180   6.076   0.889 -1.1465 -1.4195 -1.4865
 7469TIP3    H243899   0.078   6.168   0.825  0.1582  2.4890  1.6375
 7470TIP3   OH243900   5.073   4.239   4.841  0.5203  0.2625 -0.4836
 7470TIP3    H143901   5.011   4.312   4.836  0.8418  0.6014  0.2758
 7470TIP3    H243902   5.085   4.224   4.935  2.0465  0.6093 -0.5847
 7471TIP3   OH243903   6.502   5.941  11.944 -0.3316  0.0091  0.2662
 7471TIP3    H143904   6.523   6.021  11.895 -1.0210 -1.4804 -2.7256
 7471TIP3    H243905   6.585   5.895  11.950  0.2985  1.3222  2.9682
 7472TIP3   OH243906   2.818   0.812  15.660  0.6085 -0.0752 -0.3248
 7472TIP3    H143907   2.753   0.858  15.713 -0.7860 -0.7646 -1.3815
 7472TIP3    H243908   2.893   0.871  15.657  1.1522 -0.3783  3.1612
 7473TIP3   OH243909   3.211   1.220  12.002  0.1506 -0.0568 -0.3486
 7473TIP3    H143910   3.176   1.301  12.039  1.5653  1.3913 -1.9315
 7473TIP3    H243911   3.306   1.227  12.016  0.3630 -1.0776 -1.1544
 7474TIP3   OH243912   5.431   5.749  15.605  0.6270  0.1473 -0.6116
 7474TIP3    H143913   5.468   5.836  15.595  0.5923  0.5873  2.2260
 7474TIP3    H243914   5.507   5.690  15.608  0.8726  0.4927  0.5386
 7475TIP3   OH243915   5.957   5.980   0.434 -0.1658 -0.1659  0.0684
 7475TIP3    H143916   5.874   5.935   0.452 -1.1675  0.3178 -2.8806
 7475TIP3    H243917   5.931   6.068   0.408  1.0463 -0.5489 -2.7819
 7476TIP3   OH243918   2.001   1.050   5.816 -0.1828 -0.2820 -0.2813
 7476TIP3    H143919   1.916   1.075   5.780  0.8758  2.0277 -1.4322
 7476TIP3    H243920   2.022   1.121   5.877  0.8639 -0.8519  0.0329
 7477TIP3   OH243921   2.797   3.869   2.520  0.4654 -0.4426 -0.8771
 7477TIP3    H143922   2.737   3.877   2.595 -0.2351 -0.7190 -1.3924
 7477TIP3    H243923   2.741   3.880   2.443  0.9280 -1.5080 -1.3946
 7478TIP3   OH243924   2.019   3.902  14.593 -0.2895 -0.3761 -0.4490
 7478TIP3    H143925   2.056   3.917  14.506 -0.4855 -0.1826 -0.5011
 7478TIP3    H243926   2.076   3.836  14.633 -0.7769 -1.2128 -1.0971
 7479TIP3   OH243927   1.992   6.239   0.903  0.0443 -0.4769 -0.0712
 7479TIP3    H143928   1.905   6.251   0.942  0.6952 -0.9824  1.6010
 7479TIP3    H243929   2.045   6.309   0.941  0.9961 -1.7120  0.9407
 7480TIP3   OH243930   0.958   6.312   4.332 -0.7185  0.0360  0.5522
 7480TIP3    H143931   1.033   6.252   4.339  0.7789  1.7416  0.0347
 7480TIP3    H243932   0.953   6.353   4.419  1.1996  2.3470 -0.3007
 7481TIP3   OH243933   4.025   0.012  16.092 -0.0565 -0.1606 -0.2029
 7481TIP3    H143934   3.972  -0.069  16.089 -0.0942 -0.1168 -0.9479
 7481TIP3    H243935   4.065   0.017  16.005  1.8446 -0.6202  0.6007
 7482TIP3   OH243936   5.185   5.233  12.446 -0.1541 -0.1066  0.4294
 7482TIP3    H143937   5.130   5.292  12.395  1.1439  3.1688  2.5018
 7482TIP3    H243938   5.262   5.218  12.391 -1.6867 -2.4025 -1.2929
 7483TIP3   OH243939   1.507   5.444  16.626 -0.9064  0.3342  0.2155
 7483TIP3    H143940   1.448   5.429  16.552 -0.9573  1.5621 -0.0047
 7483TIP3    H243941   1.500   5.538  16.644 -0.7740  0.0855  1.6803
 7484TIP3   OH243942   6.481   0.088   6.233  0.2520  0.3000  0.0044
 7484TIP3    H143943   6.433   0.103   6.314 -0.6158  3.5928 -0.9633
 7484TIP3    H243944   6.425   0.029   6.183 -0.3181  0.0641  0.8894
 7485TIP3   OH243945   6.141   2.033  16.436  0.1637  0.3107 -0.3192
 7485TIP3    H143946   6.197   2.098  16.480 -0.6628  0.2571  0.8499
 7485TIP3    H243947   6.116   1.972  16.505  0.8285 -1.2131 -1.3852
 7486TIP3   OH243948   3.016   1.661   0.556 -1.2228  0.0975 -0.0879
 7486TIP3    H143949   3.043   1.574   0.528  0.1505  1.3226 -3.0114
 7486TIP3    H243950   3.058   1.674   0.641 -1.0521 -1.8636  0.1653
 7487TIP3   OH243951   4.266   6.636  13.891 -0.3084 -0.3559  0.2699
 7487TIP3    H143952   4.178   6.619  13.856 -1.2927  1.3383  1.7211
 7487TIP3    H243953   4.325   6.594  13.829 -2.1530 -2.2816 -0.3267
 7488TIP3   OH243954   6.353   0.830   1.412  0.0650  0.2366  0.0140
 7488TIP3    H143955   6.262   0.858   1.400  0.5016  1.1635 -1.4511
 7488TIP3    H243956   6.376   0.861   1.499 -0.8937  0.3819  0.2258
 7489TIP3   OH243957   6.278   1.192  11.143 -0.7682 -0.2042 -0.4460
 7489TIP3    H143958   6.194   1.209  11.184  0.4090 -1.0019  2.5532
 7489TIP3    H243959   6.299   1.102  11.167  1.1609  0.1393 -0.6910
 7490TIP3   OH243960   4.306   3.952  16.484 -0.2348  0.0127  0.6185
 7490TIP3    H143961   4.352   3.915  16.560  1.5160 -0.8153 -0.7498
 7490TIP3    H243962   4.275   3.875  16.436  0.0177  0.4547 -0.2690
 7491TIP3   OH243963   6.052   5.816   5.399 -0.5503 -0.0462  0.4864
 7491TIP3    H143964   6.028   5.741   5.453  1.2342  0.0763  1.5245
 7491TIP3    H243965   6.106   5.779   5.329 -2.4039 -0.1273 -1.0169
 7492TIP3   OH243966   2.524   6.039  12.946  0.0863 -0.0278  0.1621
 7492TIP3    H143967   2.599   6.011  12.894  1.0416 -0.9557  1.9572
 7492TIP3    H243968   2.498   6.123  12.908  0.1056 -1.0768 -2.4087
 7493TIP3   OH243969   0.079   4.691   5.008  0.4259 -0.7986 -0.3910
 7493TIP3    H143970  -0.015   4.693   4.991  0.1442  1.2323  1.1148
 7493TIP3    H243971   0.115   4.758   4.950  0.6293 -0.0072  0.6322
 7494TIP3   OH243972   2.504   1.679  12.770 -0.2098 -0.0645 -0.4399
 7494TIP3    H143973   2.521   1.681  12.864 -1.9552  0.1327 -0.1075
 7494TIP3    H243974   2.591   1.668  12.731  0.6058  0.3627  1.1566
 7495TIP3   OH243975   2.472   0.197  15.336 -0.1543  0.0250  0.2235
 7495TIP3    H143976   2.453   0.104  15.345  1.7994 -0.3569  1.0499
 7495TIP3    H243977   2.538   0.214  15.405  0.4841  1.7052 -0.7488
 7496TIP3   OH243978   0.996   6.070   0.972  0.3149 -0.1522  0.1529
 7496TIP3    H143979   1.067   6.015   0.940  1.3025  0.5688  1.0421
 7496TIP3    H243980   0.928   6.008   0.998  0.3443 -0.8285 -1.3028
 7497TIP3   OH243981   4.754   0.607  12.328  0.3307 -0.0559 -0.1008
 7497TIP3    H143982   4.799   0.662  12.264  0.6004 -0.4583 -0.2679
 7497TIP3    H243983   4.825   0.560  12.372  0.1909  0.6095  0.8750
 7498TIP3   OH243984   4.106   6.611  16.786  0.0497  0.3800 -0.3010
 7498TIP3    H143985   4.195   6.608  16.752 -0.5341 -1.4050 -1.8497
 7498TIP3    H243986   4.053   6.645  16.714 -0.9542 -1.7595 -0.6570
 7499TIP3   OH243987   5.965   0.988  14.483 -0.1938  0.3116  0.5809
 7499TIP3    H143988   5.932   0.905  14.518 -1.5339  0.1078 -1.0287
 7499TIP3    H243989   5.921   1.055  14.534  2.3136  0.1460  3.1935
 7500TIP3   OH243990   3.252   5.248  13.109 -0.3865 -0.3233  0.4975
 7500TIP3    H143991   3.235   5.273  13.200  0.1808 -2.2303  1.1746
 7500TIP3    H243992   3.340   5.283  13.091 -1.2544  1.7248 -0.0037
 7501TIP3   OH243993   3.341   2.927  15.266 -0.4102 -0.2083  0.3158
 7501TIP3    H143994   3.431   2.935  15.299 -0.3915 -1.3629  0.5951
 7501TIP3    H243995   3.303   2.857  15.320 -1.2228 -0.2718 -0.3400
 7502TIP3   OH243996   5.612   4.015   6.055 -0.2695  0.8994 -0.1173
 7502TIP3    H143997   5.678   3.971   6.001 -2.2441 -0.3849 -1.6202
 7502TIP3    H243998   5.654   4.024   6.141  1.1425 -1.7894 -0.4079
 7503TIP3   OH243999   6.248   0.565  16.432  0.0652  0.1214  0.2867
 7503TIP3    H144000   6.312   0.527  16.371 -0.3947 -1.6401  0.8449
 7503TIP3    H244001   6.282   0.544  16.519  0.8875  2.9000  0.7232
 7504TIP3   OH244002   3.652   6.209   5.311  0.2210  0.6393 -0.0440
 7504TIP3    H144003   3.619   6.290   5.274  1.8889  1.5380  0.3167
 7504TIP3    H244004   3.700   6.237   5.390  3.7682 -0.2053 -1.7119
 7505TIP3   OH244005   4.041   3.552   4.814  0.1968 -0.1133  0.9395
 7505TIP3    H144006   4.107   3.568   4.746  0.0361 -0.5986  0.6638
 7505TIP3    H244007   3.979   3.625   4.805  1.0495  0.7314  1.6548
 7506TIP3   OH244008   0.307   2.791  14.628 -0.0698 -0.2553  0.3648
 7506TIP3    H144009   0.316   2.701  14.596 -0.1297  0.4187 -1.6715
 7506TIP3    H244010   0.269   2.839  14.555  1.1845  1.7259  0.9463
 7507TIP3   OH244011   2.070   3.359   1.737  0.5737 -0.1874 -0.9257
 7507TIP3    H144012   2.006   3.375   1.806  0.6133 -2.0532 -0.3824
 7507TIP3    H244013   2.046   3.272   1.703  1.2425  0.2164 -2.4990
 7508TIP3   OH244014   2.874   1.631  12.301  0.6275  0.2521  0.0675
 7508TIP3    H144015   2.948   1.665  12.350  1.4431  0.3004 -1.1630
 7508TIP3    H244016   2.874   1.680  12.219  0.3012 -0.9419 -0.6773
 7509TIP3   OH244017   4.149   0.997   0.183 -0.2638 -0.0569  0.1719
 7509TIP3    H144018   4.086   0.935   0.220 -0.3587 -0.9237 -1.3587
 7509TIP3    H244019   4.105   1.082   0.187 -0.8888 -0.3951  0.5757
 7510TIP3   OH244020   4.068   3.268  16.551 -0.0558  0.6463  0.1704
 7510TIP3    H144021   4.009   3.211  16.501  1.8532 -2.4466  1.2043
 7510TIP3    H244022   4.084   3.342  16.493 -2.1121 -0.1439 -1.5563
 7511TIP3   OH244023   2.328   0.826   6.248 -0.2579 -0.3494  0.6636
 7511TIP3    H144024   2.391   0.897   6.254 -0.4700 -0.2372  1.8827
 7511TIP3    H244025   2.244   0.869   6.231 -0.1782 -0.4138  0.1026
 7512TIP3   OH244026   4.164   2.572  16.781 -0.2261 -0.0920 -0.0182
 7512TIP3    H144027   4.111   2.647  16.752 -0.9352  0.5022  2.5991
 7512TIP3    H244028   4.229   2.610  16.840  0.6232 -1.3451 -0.1071
 7513TIP3   OH244029   0.835   5.638   1.671  0.2435  0.0737 -0.0971
 7513TIP3    H144030   0.754   5.645   1.622 -2.0147  0.6283  3.3396
 7513TIP3    H244031   0.849   5.726   1.706  1.0162 -0.5315  1.2044
 7514TIP3   OH244032   3.149   6.579  10.817  0.6231 -0.3448  0.3047
 7514TIP3    H144033   3.214   6.638  10.857  0.8364 -0.3872  0.0284
 7514TIP3    H244034   3.066   6.605  10.855  0.7987 -0.2594  0.6338
 7515TIP3   OH244035   3.664   3.690  13.828  0.0341 -0.3343 -0.4146
 7515TIP3    H144036   3.575   3.720  13.811 -0.2642  0.6257  2.4199
 7515TIP3    H244037   3.686   3.725  13.914  2.7346 -1.5514 -0.4940
 7516TIP3   OH244038   6.113   1.700  16.311  0.4566 -0.8640  0.7046
 7516TIP3    H144039   6.178   1.670  16.248  0.8660 -0.8007  1.0931
 7516TIP3    H244040   6.164   1.744  16.379  0.1421 -1.9476  1.6858
 7517TIP3   OH244041   6.166   5.973   5.873 -0.0694 -0.3017 -0.3592
 7517TIP3    H144042   6.072   5.959   5.880  0.0013 -1.2676 -1.2423
 7517TIP3    H244043   6.204   5.885   5.874  0.8229  0.0715 -0.0967
 7518TIP3   OH244044   4.298   2.034   6.109  0.0679 -0.3510  0.5799
 7518TIP3    H144045   4.370   1.971   6.113  0.8581  0.5350  0.7423
 7518TIP3    H244046   4.264   2.025   6.021  0.8675 -0.2733  0.2494
 7519TIP3   OH244047   6.245   3.888   2.784  0.9051 -0.2058 -0.2081
 7519TIP3    H144048   6.227   3.908   2.876 -0.6611 -0.2506 -0.4682
 7519TIP3    H244049   6.171   3.928   2.736  0.7914 -1.6188 -1.2824
 7520TIP3   OH244050   2.072   3.947  16.830  0.1179 -0.3738  0.1257
 7520TIP3    H144051   2.165   3.928  16.822 -0.0501 -0.4277 -4.6156
 7520TIP3    H244052   2.029   3.862  16.823 -0.2777 -0.1365 -0.4606
 7521TIP3   OH244053   3.188   0.037   4.310  0.4862  0.0722  0.4642
 7521TIP3    H144054   3.165   0.004   4.397  1.5732  0.5711  0.9691
 7521TIP3    H244055   3.192  -0.042   4.255 -1.7512 -0.0916  0.4602
 7522TIP3   OH244056   2.951   4.733  13.260  0.1730  0.2217 -0.3339
 7522TIP3    H144057   3.018   4.723  13.328 -0.0783  2.1668  0.2740
 7522TIP3    H244058   2.892   4.659  13.274 -0.4582  1.1068  2.3347
 7523TIP3   OH244059   4.976   3.885  15.292  0.4710 -0.5080 -0.4820
 7523TIP3    H144060   4.965   3.851  15.381 -0.0341 -0.1145 -0.3941
 7523TIP3    H244061   5.065   3.921  15.292  0.2648  0.0175  0.0400
 7524TIP3   OH244062   5.431   5.863  14.192  0.1439  0.0050 -0.5109
 7524TIP3    H144063   5.346   5.846  14.151 -0.0655  0.3253 -0.2199
 7524TIP3    H244064   5.495   5.822  14.134 -0.3054 -1.5247  0.0226
 7525TIP3   OH244065   3.381   0.230   0.650 -0.2612 -0.5174  0.1688
 7525TIP3    H144066   3.423   0.253   0.733 -3.4078  0.0150  1.7516
 7525TIP3    H244067   3.379   0.312   0.601 -0.6725 -0.2206  0.6734
 7526TIP3   OH244068   0.843   1.739   2.666  0.4920  0.1913  0.3454
 7526TIP3    H144069   0.842   1.744   2.570  1.8986  0.2110  0.3108
 7526TIP3    H244070   0.891   1.818   2.693  0.4361 -0.0111  1.0487
 7527TIP3   OH244071   5.633   4.514   5.821  0.3208 -0.1888 -0.5590
 7527TIP3    H144072   5.682   4.593   5.799  0.5990 -0.1323  0.2171
 7527TIP3    H244073   5.550   4.523   5.775  0.9429 -0.1843 -1.7215
 7528TIP3   OH244074   0.275   4.830   2.207 -1.2909  0.5204  0.5308
 7528TIP3    H144075   0.228   4.813   2.125 -1.0399 -3.0870  0.9530
 7528TIP3    H244076   0.360   4.862   2.180 -1.2816 -0.4279 -0.6679
 7529TIP3   OH244077   1.342   1.619   4.662  0.5120 -0.5439 -0.1229
 7529TIP3    H144078   1.357   1.630   4.568  1.2894 -0.3586  0.0173
 7529TIP3    H244079   1.371   1.702   4.701  1.8845 -1.2634  0.4585
 7530TIP3   OH244080   0.240   1.719   5.188 -0.3287 -0.3094 -0.0041
 7530TIP3    H144081   0.253   1.723   5.283  0.0019 -1.6990  0.0335
 7530TIP3    H244082   0.180   1.645   5.175 -2.0437  1.1445 -0.7556
 7531TIP3   OH244083   2.134   5.985  15.299 -0.1261  0.2042  0.2637
 7531TIP3    H144084   2.183   6.032  15.366  0.8577  1.4177 -1.2392
 7531TIP3    H244085   2.175   5.898  15.296 -0.1099  0.1777  1.1347
 7532TIP3   OH244086   2.998   0.103  13.814  0.2288 -0.2525  0.7072
 7532TIP3    H144087   2.974   0.064  13.898  0.9377  0.1058  1.0780
 7532TIP3    H244088   2.950   0.186  13.812  0.5907 -0.0334  0.9790
 7533TIP3   OH244089   0.427   4.256  10.552 -0.5102  0.0189 -0.1665
 7533TIP3    H144090   0.523   4.258  10.545 -0.4533  2.0101  0.3829
 7533TIP3    H244091   0.396   4.307  10.477 -0.7940  3.8564  2.2491
 7534TIP3   OH244092   0.658   2.423  11.477  0.0148 -0.1799 -0.0453
 7534TIP3    H144093   0.605   2.439  11.555 -0.2287  2.1353 -0.6296
 7534TIP3    H244094   0.701   2.339  11.494 -2.6449 -1.4217  1.0975
 7535TIP3   OH244095   1.442   3.206  14.359  0.0675 -0.0847 -0.1608
 7535TIP3    H144096   1.481   3.262  14.425  0.7920 -0.6464 -0.0952
 7535TIP3    H244097   1.405   3.266  14.294 -3.2553  0.5891  2.1257
 7536TIP3   OH244098   1.196   5.030   0.126  0.0304  0.0089 -0.5116
 7536TIP3    H144099   1.209   5.116   0.166 -1.3938 -0.0999  0.2611
 7536TIP3    H244100   1.186   5.047   0.033 -0.7921  0.7412 -0.2938
 7537TIP3   OH244101   3.856   3.809   3.843  0.5645 -0.1973 -0.2838
 7537TIP3    H144102   3.934   3.754   3.839  2.9965  2.8366  1.2767
 7537TIP3    H244103   3.809   3.778   3.920 -0.2143 -2.4252 -1.5609
 7538TIP3   OH244104   1.322   0.406  15.747  0.5952 -0.2189  0.5576
 7538TIP3    H144105   1.368   0.429  15.666 -1.3556 -3.7821 -1.8183
 7538TIP3    H244106   1.389   0.362  15.800  1.0354 -1.4244 -0.9256
 7539TIP3   OH244107   6.802   0.984   4.672  0.0238  0.4702  0.5000
 7539TIP3    H144108   6.800   1.012   4.763  0.0615 -0.6816  0.8640
 7539TIP3    H244109   6.739   1.041   4.628 -1.4511 -0.2532  1.6160
 7540TIP3   OH244110   1.340   5.920  12.512  0.2583 -0.0080 -0.5723
 7540TIP3    H144111   1.304   5.959  12.592  0.4593  0.2199 -0.5896
 7540TIP3    H244112   1.266   5.878  12.470 -0.4211  2.1157 -1.6083
 7541TIP3   OH244113   3.734   2.641  13.827  0.0023 -0.0728 -0.3282
 7541TIP3    H144114   3.693   2.708  13.772  0.9807  1.6497  0.9263
 7541TIP3    H244115   3.828   2.652  13.812  0.1733 -2.1530 -1.1419
 7542TIP3   OH244116   1.797   5.392  15.038 -0.3145 -0.3482 -0.6586
 7542TIP3    H144117   1.754   5.334  14.975 -0.7423  0.0692 -0.7588
 7542TIP3    H244118   1.727   5.416  15.099 -0.3572  0.7273 -1.1032
 7543TIP3   OH244119   5.754   3.779  12.022 -0.3440  0.0013 -0.3931
 7543TIP3    H144120   5.838   3.818  12.049 -1.8352  3.1477  0.1291
 7543TIP3    H244121   5.703   3.774  12.103 -1.0045 -1.0522 -0.8542
 7544TIP3   OH244122   6.692   5.084   4.202  0.3423  0.2439  0.1426
 7544TIP3    H144123   6.755   5.152   4.227  0.5107 -0.0343  0.4727
 7544TIP3    H244124   6.681   5.096   4.107 -0.7078  1.6550  0.4157
 7545TIP3   OH244125   2.687   5.440   3.475  0.7993 -0.4348 -0.4768
 7545TIP3    H144126   2.778   5.428   3.449  1.4233 -2.4910  2.2429
 7545TIP3    H244127   2.654   5.352   3.490 -1.5603  0.2814 -0.9781
 7546TIP3   OH244128   6.760   5.971  11.873 -0.7961  0.6846 -0.2223
 7546TIP3    H144129   6.794   5.927  11.794 -2.8892 -0.1383 -0.7370
 7546TIP3    H244130   6.756   6.063  11.848 -0.5628  0.5636 -0.7367
 7547TIP3   OH244131   4.813   5.280   4.437 -0.2119  0.2531 -0.2410
 7547TIP3    H144132   4.768   5.263   4.520  1.1229 -1.1576  0.2414
 7547TIP3    H244133   4.867   5.202   4.422 -0.9324  0.1552 -2.8102
 7548TIP3   OH244134   5.902   0.853   2.968  0.2980 -0.2665 -0.3081
 7548TIP3    H144135   5.845   0.927   2.992  3.8433  2.0748  1.6940
 7548TIP3    H244136   5.930   0.873   2.878 -2.0205 -1.6199 -1.4530
 7549TIP3   OH244137   0.629   5.796  14.023 -0.2335 -0.0396 -0.2711
 7549TIP3    H144138   0.587   5.840  13.949 -0.9958 -1.1362 -0.5278
 7549TIP3    H244139   0.640   5.864  14.089 -1.2631  0.5569 -0.6894
 7550TIP3   OH244140   2.485   2.388   0.499 -0.2944  0.1334 -0.5629
 7550TIP3    H144141   2.408   2.444   0.494  1.4873  2.9952  1.3913
 7550TIP3    H244142   2.495   2.370   0.592  1.6667  0.2134 -0.7343
 7551TIP3   OH244143   0.575   2.710  15.096  0.7216  0.2872 -0.1440
 7551TIP3    H144144   0.649   2.726  15.039  1.9756 -1.5232  0.8570
 7551TIP3    H244145   0.580   2.779  15.163  0.1659  1.4657 -1.2806
 7552TIP3   OH244146   3.719   1.315   4.377  0.3202  0.2117  0.1044
 7552TIP3    H144147   3.643   1.374   4.370  0.6273  0.7700  1.2635
 7552TIP3    H244148   3.793   1.374   4.390  0.5573 -0.4354  1.8921
 7553TIP3   OH244149   0.373   4.716   3.748  0.0296 -0.0596 -0.1412
 7553TIP3    H144150   0.293   4.717   3.695  0.6880  0.5965 -1.1719
 7553TIP3    H244151   0.406   4.806   3.742  0.4397 -0.1314  0.9173
 7554TIP3   OH244152   0.196   0.156   6.480 -0.3216  0.2923 -0.7530
 7554TIP3    H144153   0.131   0.158   6.409 -0.1546  0.6556 -0.9024
 7554TIP3    H244154   0.241   0.072   6.469 -1.7242 -0.6263  0.2458
 7555TIP3   OH244155   3.912   0.694   6.682  0.5860  0.1428  0.0617
 7555TIP3    H144156   4.005   0.693   6.661  0.1495 -1.4174 -2.2230
 7555TIP3    H244157   3.878   0.772   6.639  0.7695  0.5644  0.6672
 7556TIP3   OH244158   0.421   5.099   1.612 -0.4343 -0.4856 -0.1255
 7556TIP3    H144159   0.396   5.176   1.560 -0.7600 -0.0312  0.6817
 7556TIP3    H244160   0.514   5.086   1.591 -0.8269 -0.9876 -1.6491
 7557TIP3   OH244161   6.257   1.103   2.817  0.5671 -0.3259 -1.0688
 7557TIP3    H144162   6.341   1.082   2.858 -0.3207 -0.3096  0.8912
 7557TIP3    H244163   6.206   1.023   2.824 -1.2131  0.9025  2.2228
 7558TIP3   OH244164   3.480   0.011  16.930 -0.1115  0.7938  0.0326
 7558TIP3    H144165   3.488  -0.082  16.912  0.0133  0.8296 -0.0944
 7558TIP3    H244166   3.466   0.016  17.025  1.0525  0.7117  0.2181
 7559TIP3   OH244167   1.423   1.230  14.223  0.7148 -0.6670  0.2429
 7559TIP3    H144168   1.392   1.201  14.137 -0.1591 -0.8545  0.6111
 7559TIP3    H244169   1.505   1.183  14.236  0.7568 -0.7834 -0.4062
 7560TIP3   OH244170   4.647   5.710   3.594 -0.5251 -0.3912 -0.0112
 7560TIP3    H144171   4.622   5.794   3.633  1.0907  0.2700 -0.3252
 7560TIP3    H244172   4.676   5.657   3.668 -0.0648 -0.1129  0.0095
 7561TIP3   OH244173   5.731   2.072  10.735 -0.0737  0.0356  0.5162
 7561TIP3    H144174   5.805   2.050  10.679  0.4015 -1.5471  1.6554
 7561TIP3    H244175   5.761   2.147  10.787  0.2436  0.2190  0.0676
 7562TIP3   OH244176   0.164   6.736  14.525  0.1650 -0.3492 -0.3848
 7562TIP3    H144177   0.188   6.796  14.596 -0.5298  0.8646 -1.1380
 7562TIP3    H244178   0.239   6.736  14.467 -0.5184  1.3001 -1.3367
 7563TIP3   OH244179   1.850   3.299   4.997 -0.3001 -0.2046 -0.3980
 7563TIP3    H144180   1.926   3.353   5.019  1.2576 -2.0408 -1.0787
 7563TIP3    H244181   1.842   3.238   5.070 -0.6684 -0.5083 -0.6909
 7564TIP3   OH244182   0.541   1.196   4.683 -0.7485  0.3050 -0.3096
 7564TIP3    H144183   0.539   1.172   4.775 -0.8856 -0.8559 -0.6057
 7564TIP3    H244184   0.452   1.182   4.652 -0.4069 -0.5802 -0.9289
 7565TIP3   OH244185   5.604   1.809   0.071 -0.0913  0.5591  0.8994
 7565TIP3    H144186   5.603   1.904   0.073  1.4589  0.5925  1.1582
 7565TIP3    H244187   5.583   1.783   0.161  2.5620  0.7492  1.6335
 7566TIP3   OH244188   5.764   2.782   4.772 -0.1223 -0.5042 -0.2542
 7566TIP3    H144189   5.849   2.822   4.789 -1.0817  0.4732  3.1518
 7566TIP3    H244190   5.758   2.710   4.834 -1.8307 -0.4237 -0.2606
 7567TIP3   OH244191   6.410   4.714  17.276  0.1313 -0.2661  0.4542
 7567TIP3    H144192   6.411   4.621  17.297  0.3907  0.0998  2.2108
 7567TIP3    H244193   6.497   4.745  17.301  0.1578  0.3971 -0.4208
 7568TIP3   OH244194   2.064   5.014   0.706  0.1819  0.7694 -0.5518
 7568TIP3    H144195   2.152   5.001   0.673 -0.3568 -2.7156 -0.9480
 7568TIP3    H244196   2.064   4.975   0.793 -0.4300  2.8958  0.4850
 7569TIP3   OH244197   3.575   6.024  13.847 -0.3746  0.2399  0.0661
 7569TIP3    H144198   3.553   5.941  13.889  0.7007 -0.0988 -0.0172
 7569TIP3    H244199   3.538   6.017  13.759 -0.2646 -0.1618  0.0523
 7570TIP3   OH244200   3.125   5.590  17.087 -0.3002  0.2683  0.4650
 7570TIP3    H144201   3.060   5.557  17.149 -0.7211  0.6706  0.2477
 7570TIP3    H244202   3.171   5.659  17.134  0.0980 -0.1326  0.6772
 7571TIP3   OH244203   4.265   2.866  14.442 -0.1133 -0.0791  0.4570
 7571TIP3    H144204   4.172   2.886  14.452 -0.9238 -3.1609  0.2288
 7571TIP3    H244205   4.276   2.853  14.347  0.0145 -1.7164  0.6703
 7572TIP3   OH244206   0.569   3.228  15.191  0.2189 -0.1561 -0.2578
 7572TIP3    H144207   0.522   3.238  15.108 -0.4844 -0.7821  0.0444
 7572TIP3    H244208   0.657   3.259  15.173 -0.6668  2.4493 -0.4718
 7573TIP3   OH244209   3.600   5.285   1.711 -0.2703  0.3170 -0.6973
 7573TIP3    H144210   3.574   5.196   1.735 -0.7823  0.6015 -0.1765
 7573TIP3    H244211   3.518   5.329   1.687 -0.1528  0.9239 -0.0184
 7574TIP3   OH244212   0.763   0.618   5.634  0.7088 -0.0106  0.1841
 7574TIP3    H144213   0.834   0.572   5.678  0.2621 -2.4784 -1.4335
 7574TIP3    H244214   0.683   0.583   5.675  0.3692 -0.2900 -0.6908
 7575TIP3   OH244215   4.650   1.272   5.639 -0.1527 -0.2330  0.2461
 7575TIP3    H144216   4.596   1.342   5.602 -0.1714 -0.7694 -0.7713
 7575TIP3    H244217   4.590   1.223   5.696 -0.8065 -0.9197 -0.9944
 7576TIP3   OH244218   3.077   4.486  13.856  0.0869  0.0033  0.2277
 7576TIP3    H144219   3.159   4.454  13.895  0.2174  0.7454  0.6052
 7576TIP3    H244220   3.070   4.440  13.773  0.3503 -0.8459  0.6691
 7577TIP3   OH244221   5.371   3.705   0.728 -0.0615  0.6740 -0.1427
 7577TIP3    H144222   5.331   3.728   0.644 -1.4281 -1.9209 -0.3074
 7577TIP3    H244223   5.463   3.688   0.707 -1.0046 -3.3968 -2.0351
 7578TIP3   OH244224   3.261   3.635  10.789  0.2206  0.2952  0.5152
 7578TIP3    H144225   3.269   3.727  10.763 -1.7328  0.4231  0.2126
 7578TIP3    H244226   3.186   3.603  10.740  0.5513 -1.3323  1.0218
 7579TIP3   OH244227   1.266   5.151   4.052 -0.3752 -0.6360  0.1174
 7579TIP3    H144228   1.293   5.091   3.983  0.3147 -1.4500  1.0790
 7579TIP3    H244229   1.317   5.231   4.036  0.2077 -1.0255  0.0309
 7580TIP3   OH244230   1.811   1.008  12.503  0.4312 -0.3499 -0.0293
 7580TIP3    H144231   1.854   1.090  12.525 -0.3489 -0.1414  0.7467
 7580TIP3    H244232   1.718   1.025  12.513  0.0129 -0.4791 -2.7472
 7581TIP3   OH244233   4.403   2.409  13.535  0.2143 -0.4614  0.1474
 7581TIP3    H144234   4.362   2.332  13.575 -0.3902 -0.8011 -1.0642
 7581TIP3    H244235   4.345   2.431  13.462  1.4389 -0.0678 -0.7299
 7582TIP3   OH244236   3.242   6.672  15.243 -0.3185 -0.2999  0.3334
 7582TIP3    H144237   3.226   6.720  15.324  0.5897  1.2276 -0.3413
 7582TIP3    H244238   3.175   6.704  15.182  0.6329  0.5715 -0.2894
 7583TIP3   OH244239   5.027   2.359   1.894  0.7054  0.5111  0.1734
 7583TIP3    H144240   5.000   2.381   1.983 -1.7763 -0.9942 -0.1408
 7583TIP3    H244241   4.959   2.302   1.860  3.8453 -2.9155 -1.0799
 7584TIP3   OH244242   1.687   5.574   5.239  0.3772 -0.6395 -0.4823
 7584TIP3    H144243   1.626   5.642   5.267 -0.1503 -1.1902 -0.2670
 7584TIP3    H244244   1.632   5.504   5.204  0.7186 -1.9611  1.4175
 7585TIP3   OH244245   5.707   0.883   2.385 -0.2798 -0.4419 -0.5938
 7585TIP3    H144246   5.618   0.911   2.360 -1.5513 -4.0117 -0.6228
 7585TIP3    H244247   5.724   0.930   2.467 -1.8047  0.9888 -1.0159
 7586TIP3   OH244248   1.081   2.501  12.671  0.0911 -0.5322 -0.2456
 7586TIP3    H144249   1.036   2.485  12.754  0.2879  0.4398  0.0603
 7586TIP3    H244250   1.019   2.552  12.619  0.6662  0.4691  0.0249
 7587TIP3   OH244251   2.039   1.554  14.674 -0.4846 -0.2931 -0.1285
 7587TIP3    H144252   2.057   1.550  14.580 -1.4303  1.7399 -0.4561
 7587TIP3    H244253   1.964   1.495  14.687 -1.0691  0.2636 -0.8749
 7588TIP3   OH244254   5.089   5.020   0.520 -0.4135  0.0864  0.1636
 7588TIP3    H144255   5.117   5.083   0.453 -0.7242 -0.1915 -0.2291
 7588TIP3    H244256   5.020   4.969   0.478  0.5988 -1.2759  0.0940
 7589TIP3   OH244257   2.479   3.237   4.482  0.3531 -0.1601 -0.2116
 7589TIP3    H144258   2.541   3.209   4.415  2.5188  1.1180  1.1445
 7589TIP3    H244259   2.475   3.164   4.543 -1.6774 -1.3567 -1.6468
 7590TIP3   OH244260   6.070   0.125   3.111  0.1777  0.0399  0.2776
 7590TIP3    H144261   6.072   0.031   3.092  0.3918  0.0209  0.3947
 7590TIP3    H244262   5.978   0.143   3.132 -0.2207  0.2130 -1.4837
 7591TIP3   OH244263   3.247   3.436   5.499 -0.2102 -0.4573  0.1182
 7591TIP3    H144264   3.339   3.423   5.479 -0.1582  1.0095 -0.6981
 7591TIP3    H244265   3.208   3.349   5.489  0.8970 -0.9037 -0.4652
 7592TIP3   OH244266   5.295   3.017   3.047 -0.9351  0.1762 -0.3928
 7592TIP3    H144267   5.388   3.020   3.023 -1.0906  0.1332 -1.0004
 7592TIP3    H244268   5.294   2.965   3.128 -0.4302  0.1666 -0.3866
 7593TIP3   OH244269   4.765   3.433  15.790 -0.4691 -0.1382 -0.0049
 7593TIP3    H144270   4.738   3.472  15.873  2.4923  0.5991  0.7432
 7593TIP3    H244271   4.833   3.492  15.757 -1.0318 -0.7988 -2.6376
 7594TIP3   OH244272   2.676   6.489   4.845  0.2223  0.8542  0.3246
 7594TIP3    H144273   2.718   6.424   4.901  0.3616 -0.0595 -0.8137
 7594TIP3    H244274   2.589   6.501   4.884 -1.0166 -2.3025 -1.0434
 7595TIP3   OH244275   4.774   2.927   2.945  0.3520  0.1010  0.3199
 7595TIP3    H144276   4.820   2.897   2.867  0.1284  0.7928 -0.0861
 7595TIP3    H244277   4.778   3.022   2.940 -1.1714  0.1909  0.2315
 7596TIP3   OH244278   0.730   6.188   3.636 -0.3396  0.2605  0.6663
 7596TIP3    H144279   0.760   6.109   3.591  1.6392  1.7590 -0.8226
 7596TIP3    H244280   0.790   6.256   3.607 -1.4912  2.1753  2.5207
 7597TIP3   OH244281   4.908   5.953  14.411 -0.3373  0.0492  0.0035
 7597TIP3    H144282   4.986   5.956  14.466 -0.2169  0.6745 -0.1931
 7597TIP3    H244283   4.888   5.859  14.403 -0.3968 -0.0482  1.1461
 7598TIP3   OH244284   1.439   3.987   3.501  0.1007  0.5263  0.2713
 7598TIP3    H144285   1.505   4.039   3.547  0.4780  0.3050 -0.0169
 7598TIP3    H244286   1.465   3.896   3.516 -0.2584  0.4282  0.3294
 7599TIP3   OH244287   1.287   4.969  12.969  0.0113  0.1032 -0.1443
 7599TIP3    H144288   1.270   4.880  12.937 -1.4310 -0.2718  1.5574
 7599TIP3    H244289   1.277   4.963  13.064 -0.6458  2.1964 -0.0381
 7600TIP3   OH244290   6.038   2.376  14.809 -0.2638 -0.5474  0.1553
 7600TIP3    H144291   6.040   2.445  14.877 -1.9648  0.2790 -0.5679
 7600TIP3    H244292   5.953   2.334  14.821  0.1309 -1.5243 -0.4044
 7601TIP3   OH244293   3.869   0.845  14.428 -0.5302 -0.1346  0.0959
 7601TIP3    H144294   3.908   0.932  14.419 -0.0478 -0.5388 -2.7307
 7601TIP3    H244295   3.783   0.853  14.385  0.0466 -1.2855 -1.3752
 7602TIP3   OH244296   2.262   5.204   4.669  0.0655 -0.2573 -0.1252
 7602TIP3    H144297   2.341   5.209   4.615  0.8084  0.7569  0.9923
 7602TIP3    H244298   2.193   5.177   4.608  0.8956  0.6606 -1.5317
 7603TIP3   OH244299   2.221   5.512  15.449 -0.4767  0.0603  0.5878
 7603TIP3    H144300   2.311   5.485  15.468 -0.7799 -1.1978  0.3084
 7603TIP3    H244301   2.170   5.431  15.451 -1.6314  0.7658  0.8292
 7604TIP3   OH244302   0.307   5.126   1.044 -0.0835 -0.4274 -0.3376
 7604TIP3    H144303   0.216   5.110   1.066 -0.5740  0.7337 -1.4502
 7604TIP3    H244304   0.305   5.162   0.955  1.5536 -1.6379 -0.9275
 7605TIP3   OH244305   1.384   4.915  13.818  0.6746 -0.6748 -0.1411
 7605TIP3    H144306   1.344   4.850  13.761  1.7266 -0.9733 -0.5597
 7605TIP3    H244307   1.312   4.974  13.841 -0.0455 -1.3229 -0.6851
 7606TIP3   OH244308   1.409   0.211   3.350 -0.0492  0.1198 -0.9812
 7606TIP3    H144309   1.499   0.200   3.317 -0.1971  1.3147 -1.8424
 7606TIP3    H244310   1.416   0.281   3.416  0.0384 -1.4425  0.7365
 7607TIP3   OH244311   4.047   4.488   5.338 -0.3808 -0.3496  0.2279
 7607TIP3    H144312   4.064   4.395   5.330  1.1616 -0.3158  2.3810
 7607TIP3    H244313   3.971   4.503   5.282 -1.3943 -3.0966  0.7233
 7608TIP3   OH244314   0.424   3.863   3.943 -0.5926 -0.0910  0.2990
 7608TIP3    H144315   0.470   3.809   3.878  0.6788 -0.5635  1.5377
 7608TIP3    H244316   0.489   3.929   3.969 -1.5179  0.8948  0.1749
 7609TIP3   OH244317   6.002   3.135   5.194  0.3518  0.1024  0.1542
 7609TIP3    H144318   6.050   3.162   5.115  0.2724 -1.4596 -0.4473
 7609TIP3    H244319   6.039   3.189   5.264  0.6312  1.3067 -0.8814
 7610TIP3   OH244320   5.145   4.797   1.802  0.1899  0.2937 -0.3735
 7610TIP3    H144321   5.191   4.714   1.793 -0.6201 -0.1918 -0.1221
 7610TIP3    H244322   5.141   4.832   1.713  0.0972 -0.1781 -0.5562
 7611TIP3   OH244323   6.647   6.278   5.458  0.8153  0.0090  0.5629
 7611TIP3    H144324   6.719   6.304   5.516 -0.4737 -0.0790  2.2691
 7611TIP3    H244325   6.643   6.183   5.467  0.9263 -0.0611 -0.0904
 7612TIP3   OH244326   2.327   1.864   5.547 -0.1315  0.3237  0.4642
 7612TIP3    H144327   2.418   1.836   5.535 -0.4093 -1.2664  1.7046
 7612TIP3    H244328   2.275   1.789   5.518 -0.9509  0.1954  2.1126
 7613TIP3   OH244329   1.426   1.711  14.466  0.4673  0.3223  0.4104
 7613TIP3    H144330   1.349   1.767  14.461 -1.2222 -1.9712 -0.6676
 7613TIP3    H244331   1.465   1.717  14.378 -0.9553 -1.7172 -0.4443
 7614TIP3   OH244332   0.997   3.237  12.103 -0.6124 -0.0265 -0.2385
 7614TIP3    H144333   0.984   3.321  12.148 -1.1280  0.3630 -1.0749
 7614TIP3    H244334   1.088   3.214  12.122 -1.2745 -0.7978  2.4701
 7615TIP3   OH244335   5.599   2.407  11.209  0.1932  0.2126  0.5700
 7615TIP3    H144336   5.577   2.485  11.159  0.4760 -0.8288 -1.2693
 7615TIP3    H244337   5.527   2.397  11.271 -1.3803  0.3262 -1.1451
 7616TIP3   OH244338   5.606   5.099  15.987  0.0988 -0.3425 -0.1033
 7616TIP3    H144339   5.523   5.087  15.942  0.5070 -0.6784 -0.7814
 7616TIP3    H244340   5.581   5.116  16.078 -0.6982 -2.8408  0.2512
 7617TIP3   OH244341   6.297   3.533   4.580  0.5059  0.2886  0.7155
 7617TIP3    H144342   6.388   3.516   4.553  0.2735  0.8676 -0.4861
 7617TIP3    H244343   6.290   3.628   4.581 -0.8895  0.3215 -2.1954
 7618TIP3   OH244344   3.312   5.325   3.168  0.1610  0.2955 -0.8131
 7618TIP3    H144345   3.331   5.393   3.103 -2.0008  2.3564  0.5458
 7618TIP3    H244346   3.221   5.300   3.151 -0.2239  0.3788  0.9251
 7619TIP3   OH244347   6.476   3.595   5.744  0.2692 -0.5298 -0.2052
 7619TIP3    H144348   6.428   3.533   5.689  0.4275 -1.1601  0.3597
 7619TIP3    H244349   6.517   3.541   5.811 -0.2113  0.2561  0.7521
 7620TIP3   OH244350   0.981   3.668   3.782  0.8946  0.4276  0.1488
 7620TIP3    H144351   1.066   3.689   3.744 -0.0270 -0.1932 -2.4934
 7620TIP3    H244352   1.001   3.608   3.854  2.6399 -0.9799 -1.4115
 7621TIP3   OH244353   2.243   0.739   5.921  0.2752 -0.2893  0.4495
 7621TIP3    H144354   2.150   0.742   5.898  0.3575 -0.6775  0.0412
 7621TIP3    H244355   2.253   0.654   5.964  0.3624 -0.0754  0.8516
 7622TIP3   OH244356   1.475   1.202  12.957 -0.0227  0.2980  0.0909
 7622TIP3    H144357   1.529   1.276  12.930  0.0596 -0.0081 -0.6233
 7622TIP3    H244358   1.404   1.241  13.008 -0.4584  0.9778 -0.9976
 7623TIP3   OH244359   5.068   4.565  13.584  0.2664 -0.0568  0.0331
 7623TIP3    H144360   5.104   4.652  13.599  1.4798 -0.1278 -2.0537
 7623TIP3    H244361   4.978   4.571  13.614 -0.2881  2.5349 -1.7836
 7624TIP3   OH244362   5.743   2.853  13.379  0.0612  0.5297 -0.2080
 7624TIP3    H144363   5.660   2.899  13.371 -0.8050 -0.9373  0.0055
 7624TIP3    H244364   5.770   2.866  13.470 -0.1580  0.6372 -0.1594
 7625TIP3   OH244365   1.802   1.895  12.959 -0.2272 -0.1306  0.3806
 7625TIP3    H144366   1.790   1.964  12.894 -0.6379  0.2476  0.8538
 7625TIP3    H244367   1.892   1.909  12.991  0.2798 -0.8362 -0.6907
 7626TIP3   OH244368   0.076   5.321   5.846  0.4750  0.5767  0.0717
 7626TIP3    H144369   0.040   5.261   5.911 -1.0952  2.2100  0.8140
 7626TIP3    H244370   0.079   5.271   5.765 -1.0913 -0.4058  0.5844
 7627TIP3   OH244371   0.224   1.038   4.941  0.5994 -0.2817 -0.1828
 7627TIP3    H144372   0.157   1.106   4.936 -0.0578 -0.9345 -0.5139
 7627TIP3    H244373   0.275   1.048   4.861  2.1901  1.4742  0.9484
 7628TIP3   OH244374   1.664   1.658  11.195 -0.5485  0.6069 -0.5325
 7628TIP3    H144375   1.633   1.743  11.225 -0.4974  0.2997  0.4105
 7628TIP3    H244376   1.697   1.615  11.274 -0.0558 -0.0680 -1.0908
 7629TIP3   OH244377   4.378   1.924  13.010  0.3633 -0.2422 -0.4953
 7629TIP3    H144378   4.325   2.002  13.030  2.3513  1.2200 -0.6482
 7629TIP3    H244379   4.339   1.888  12.930 -0.9974  0.1658 -0.0489
 7630TIP3   OH244380   1.503   0.717   6.343 -0.3569  0.1884 -0.1137
 7630TIP3    H144381   1.565   0.755   6.405 -0.0390  2.2386 -1.5595
 7630TIP3    H244382   1.556   0.703   6.264 -1.1924 -0.3721 -0.5798
 7631TIP3   OH244383   0.800   1.745   2.387  0.7626 -0.6453 -0.8160
 7631TIP3    H144384   0.892   1.758   2.363  0.6780  2.0145 -0.0394
 7631TIP3    H244385   0.756   1.823   2.352 -0.1080  1.2290  3.8180
 7632TIP3   OH244386   6.321   3.558  11.118 -0.2060 -0.1657 -0.8176
 7632TIP3    H144387   6.384   3.486  11.114  0.6271  0.5187 -0.3346
 7632TIP3    H244388   6.332   3.594  11.207 -0.4728  0.6705 -1.1132
 7633TIP3   OH244389   4.794   5.466  13.045  0.1512  0.5286  0.3249
 7633TIP3    H144390   4.776   5.425  12.960  0.5050  0.6381  0.1966
 7633TIP3    H244391   4.825   5.554  13.023 -0.4015  0.7946  0.5911
 7634TIP3   OH244392   2.397   4.250   3.467  0.3163 -0.6014  0.4200
 7634TIP3    H144393   2.322   4.237   3.409 -0.9633  0.9327  1.6218
 7634TIP3    H244394   2.445   4.324   3.428 -0.3758  0.2302  1.0920
 7635TIP3   OH244395   0.664   0.419   4.264  0.5749  0.1056  0.0453
 7635TIP3    H144396   0.623   0.337   4.291 -1.1344  0.3407 -1.5614
 7635TIP3    H244397   0.596   0.464   4.213  1.6114  2.3126  0.4629
 7636TIP3   OH244398   6.269   3.620  14.278  0.5549  0.0038  0.2815
 7636TIP3    H144399   6.260   3.562  14.202 -2.0214  1.2492 -0.4688
 7636TIP3    H244400   6.292   3.705  14.240 -0.4878  0.5762  0.8978
 7637TIP3   OH244401   5.888   1.582  15.588 -0.0115  0.4921  0.4925
 7637TIP3    H144402   5.936   1.664  15.582 -1.1080  1.0519 -1.5610
 7637TIP3    H244403   5.806   1.605  15.633 -0.6856  0.7667 -0.8089
 7638TIP3   OH244404   3.231   4.245   5.520  0.2714 -0.3529 -0.3571
 7638TIP3    H144405   3.163   4.309   5.538  0.0648 -0.4377 -0.8293
 7638TIP3    H244406   3.202   4.165   5.563  0.2865 -0.2697 -0.1915
 7639TIP3   OH244407   4.924   6.783  17.347  0.0167  0.0595 -0.1788
 7639TIP3    H144408   4.864   6.766  17.419 -0.1806  1.0572 -0.1038
 7639TIP3    H244409   5.011   6.786  17.388  0.1002 -1.0141 -0.2361
 7640TIP3   OH244410   2.025   5.383  13.000  0.0961 -0.1218  0.7009
 7640TIP3    H144411   2.102   5.335  12.969 -0.8704 -0.7421 -0.8495
 7640TIP3    H244412   2.038   5.473  12.970  1.5968  0.5260  3.0414
 7641TIP3   OH244413   1.510   1.136   3.072  0.0631 -0.0120  0.2259
 7641TIP3    H144414   1.511   1.109   3.164  0.5886  0.5121  0.3783
 7641TIP3    H244415   1.543   1.225   3.073 -0.0491  0.0416 -0.4637
 7642TIP3   OH244416   6.410   3.196  13.074  0.3341  0.5479  0.0359
 7642TIP3    H144417   6.503   3.219  13.084 -0.0558  2.5182 -0.3340
 7642TIP3    H244418   6.367   3.239  13.148 -0.3633  0.1399 -0.1254
 7643TIP3   OH244419   2.453   3.745  16.169 -0.2383  0.1206  0.0497
 7643TIP3    H144420   2.412   3.678  16.115  0.4464  0.3318 -0.7452
 7643TIP3    H244421   2.386   3.812  16.179  0.1392  0.8535 -1.9332
 7644TIP3   OH244422   5.209   0.846   4.342  0.3512  0.0981 -0.0777
 7644TIP3    H144423   5.246   0.927   4.307 -1.6955  1.6306  1.1158
 7644TIP3    H244424   5.157   0.811   4.270 -0.4201  0.9772  0.0285
 7645TIP3   OH244425   0.495   0.549  10.932  0.0194 -0.2073  0.1972
 7645TIP3    H144426   0.586   0.578  10.926 -0.1953  0.3379 -0.5846
 7645TIP3    H244427   0.444   0.626  10.907 -0.5724 -1.1922 -1.8266
 7646TIP3   OH244428   5.100   4.067   4.093  0.2043 -0.6015  0.3074
 7646TIP3    H144429   5.078   4.108   4.010  0.3836 -0.7425  0.1892
 7646TIP3    H244430   5.187   4.031   4.080  0.0997 -0.9106  0.4498
 7647TIP3   OH244431   6.669   1.617   2.757  0.0096  0.2424 -0.1682
 7647TIP3    H144432   6.736   1.551   2.744  1.0265  1.0636  0.7267
 7647TIP3    H244433   6.671   1.669   2.676 -0.4675 -0.5009 -0.6754
 7648TIP3   OH244434   3.729   2.809  15.691  0.1652 -0.6104 -0.2609
 7648TIP3    H144435   3.692   2.837  15.774  0.7166 -2.1614  0.5502
 7648TIP3    H244436   3.708   2.716  15.685  1.1173 -0.7856 -1.3154
 7649TIP3   OH244437   4.254   6.343  11.541 -0.1601  0.5760 -0.3171
 7649TIP3    H144438   4.227   6.307  11.625 -0.7459 -1.1966 -1.2079
 7649TIP3    H244439   4.176   6.385  11.506  0.1032  1.3779  0.0480
 7650TIP3   OH244440   3.472   2.379   1.360  0.2834  0.3255  0.6561
 7650TIP3    H144441   3.540   2.420   1.306  0.7548 -1.4489 -0.1594
 7650TIP3    H244442   3.506   2.292   1.380 -2.3763 -1.2263 -1.0408
 7651TIP3   OH244443   2.743   1.013   2.500 -0.4043 -0.3245 -0.1883
 7651TIP3    H144444   2.697   0.968   2.571  0.0247 -1.8137 -0.8117
 7651TIP3    H244445   2.824   0.964   2.490  0.3558  0.9776 -0.5142
 7652TIP3   OH244446   0.536   5.939   6.586  0.6824 -0.4691 -0.1107
 7652TIP3    H144447   0.460   5.997   6.596  0.5010 -0.9123  1.3609
 7652TIP3    H244448   0.505   5.871   6.526  0.6711  0.5603 -1.2964
 7653TIP3   OH244449   3.825   1.943   2.356 -0.3810 -0.7420 -0.1557
 7653TIP3    H144450   3.808   1.990   2.437  1.2614  0.9886 -0.7277
 7653TIP3    H244451   3.918   1.922   2.360 -0.5001 -1.5359 -1.1584
 7654TIP3   OH244452   5.084   1.087  17.064  0.4827  0.7017 -0.3367
 7654TIP3    H144453   5.075   0.991  17.068  0.0512  0.7094 -1.0260
 7654TIP3    H244454   5.178   1.101  17.065  0.7506  0.0553 -3.7977
 7655TIP3   OH244455   1.699   0.324  17.350 -0.1503 -0.0341  0.1604
 7655TIP3    H144456   1.646   0.364  17.281  1.5698 -0.8136 -1.6965
 7655TIP3    H244457   1.764   0.391  17.372 -0.7020  0.2205  1.1085
 7656TIP3   OH244458   0.569   2.810   1.301 -0.4307  0.0288  0.5809
 7656TIP3    H144459   0.534   2.898   1.318 -0.6677 -0.1618  1.1049
 7656TIP3    H244460   0.657   2.811   1.337  0.2819  0.6353 -1.0944
 7657TIP3   OH244461   4.371   1.483   2.003 -0.0843  0.3186  0.8072
 7657TIP3    H144462   4.424   1.548   2.049  0.6680 -0.5859  1.2474
 7657TIP3    H244463   4.429   1.407   1.993 -0.3649  0.3203 -1.2483
 7658TIP3   OH244464   4.564   3.008   0.028 -0.3968  0.0264  0.4214
 7658TIP3    H144465   4.525   3.032   0.112  2.0505  0.9467  1.4027
 7658TIP3    H244466   4.601   3.089  -0.006  0.5730 -0.7464 -0.4590
 7659TIP3   OH244467   5.081   2.292   3.808 -0.1129  0.3050 -0.0698
 7659TIP3    H144468   5.084   2.373   3.758  0.5013  0.4992  0.2638
 7659TIP3    H244469   5.034   2.230   3.753 -1.8532  1.2840  0.2479
 7660TIP3   OH244470   0.324   6.722   6.391 -0.2074  0.0257  0.3087
 7660TIP3    H144471   0.270   6.643   6.404  1.9296 -1.4786  0.6619
 7660TIP3    H244472   0.404   6.689   6.350  0.8192  2.0245  0.6040
 7661TIP3   OH244473   3.765   0.179  12.986 -0.6276  0.7357 -0.0437
 7661TIP3    H144474   3.836   0.182  12.921  0.9021 -1.3030  1.4112
 7661TIP3    H244475   3.686   0.200  12.936  0.5468 -0.2213 -2.4605
 7662TIP3   OH244476   0.370   4.865   1.078 -0.3741  0.3979 -0.1211
 7662TIP3    H144477   0.392   4.954   1.105  0.8699 -0.9517  4.0168
 7662TIP3    H244478   0.342   4.821   1.158  0.6995 -3.4028 -1.6086
 7663TIP3   OH244479   0.127   5.788  12.912 -0.5553  0.3329  0.2130
 7663TIP3    H144480   0.163   5.711  12.958  0.3278 -0.1936 -1.3023
 7663TIP3    H244481   0.197   5.854  12.918  0.6994 -0.6109 -2.5291
 7664TIP3   OH244482   0.633   0.636   6.431 -0.6368 -0.1904  0.4070
 7664TIP3    H144483   0.703   0.624   6.367 -0.4716 -1.9141  0.8680
 7664TIP3    H244484   0.676   0.629   6.516 -1.0891  0.5738  0.7042
 7665TIP3   OH244485   4.720   2.007  16.903 -0.2562 -0.1108 -0.1019
 7665TIP3    H144486   4.655   1.982  16.968 -0.7872  1.0888 -0.1458
 7665TIP3    H244487   4.803   1.972  16.936 -0.7797 -0.9101  0.3835
 7666TIP3   OH244488   3.133   1.978   5.150  0.2144  0.0392  0.0019
 7666TIP3    H144489   3.159   1.972   5.059 -3.0936  1.1602 -1.1656
 7666TIP3    H244490   3.127   2.072   5.168  0.7076 -0.1580  1.3593
 7667TIP3   OH244491   0.630   0.474  11.988 -0.7093  0.0096  0.4048
 7667TIP3    H144492   0.668   0.426  11.914 -2.0961  1.1364 -1.1048
 7667TIP3    H244493   0.662   0.563  11.978 -2.5455  0.6579 -0.1044
 7668TIP3   OH244494   2.147   3.698   0.804  0.3650 -0.6209 -0.6000
 7668TIP3    H144495   2.134   3.635   0.875  0.9477 -0.1875 -0.0991
 7668TIP3    H244496   2.241   3.717   0.805  0.3908 -0.6434 -1.5247
 7669TIP3   OH244497   6.596   3.265   0.555 -0.5443 -0.0558 -0.9549
 7669TIP3    H144498   6.653   3.256   0.478  0.5240 -0.9215 -0.0986
 7669TIP3    H244499   6.577   3.175   0.581  1.9569  0.0490  1.7860
 7670TIP3   OH244500   5.044   4.585  12.864  0.0412 -0.6250 -0.4878
 7670TIP3    H144501   5.110   4.613  12.927  0.9388 -1.3453 -1.0832
 7670TIP3    H244502   4.962   4.584  12.913  0.3532  0.8586  0.1138
 7671TIP3   OH244503   3.818   0.117  12.506 -0.0600 -0.6507  0.1426
 7671TIP3    H144504   3.801   0.058  12.579 -0.4357 -1.7244 -0.7739
 7671TIP3    H244505   3.913   0.114  12.494  0.2243  0.9272  1.6844
 7672TIP3   OH244506   4.699   1.162   4.422  0.1222 -0.0539  0.0290
 7672TIP3    H144507   4.775   1.219   4.418 -1.6407  2.4192 -0.6577
 7672TIP3    H244508   4.702   1.111   4.341  1.0939 -0.1330  0.0990
 7673TIP3   OH244509   4.783   4.673  11.718 -0.0821 -0.4685 -0.1619
 7673TIP3    H144510   4.789   4.768  11.704 -2.6325  0.0611  1.6728
 7673TIP3    H244511   4.874   4.644  11.727  0.7927  1.6578 -1.4321
 7674TIP3   OH244512   3.461   3.287  16.912 -0.0721  0.2082 -0.3360
 7674TIP3    H144513   3.415   3.341  16.848 -0.4482  0.0304 -0.2210
 7674TIP3    H244514   3.510   3.224  16.858  0.3090  0.6106 -0.4661
 7675TIP3   OH244515   6.488   2.560   1.999  0.2949 -0.0666 -0.1025
 7675TIP3    H144516   6.469   2.483   1.946  1.0741  0.5528 -1.3027
 7675TIP3    H244517   6.462   2.635   1.944 -1.1199  0.5495  1.3011
 7676TIP3   OH244518   0.917   5.167   6.218 -0.2933  0.2324 -0.2621
 7676TIP3    H144519   0.894   5.259   6.231  0.0967  0.2894  0.0109
 7676TIP3    H244520   0.981   5.148   6.286 -1.0573 -0.4957  0.2680
 7677TIP3   OH244521   5.195   2.324   0.213  0.0423  0.2366  0.0052
 7677TIP3    H144522   5.178   2.231   0.225  0.0001  0.4155  1.6244
 7677TIP3    H244523   5.272   2.341   0.266  0.6966  0.9350 -1.1317
 7678TIP3   OH244524   4.532   2.653  14.182  0.5011 -0.2313  0.3845
 7678TIP3    H144525   4.477   2.611  14.248  0.8935  0.3254  1.0812
 7678TIP3    H244526   4.470   2.700  14.126  0.2277  0.0704  0.9266
 7679TIP3   OH244527   2.728   3.893  16.066 -0.2078  0.2895 -0.0866
 7679TIP3    H144528   2.644   3.903  16.024 -0.8336  1.5354  1.3703
 7679TIP3    H244529   2.712   3.831  16.138 -0.1849  1.3569  0.8738
 7680TIP3   OH244530   2.417   2.901   1.464 -0.0565  0.0454 -0.0148
 7680TIP3    H144531   2.479   2.870   1.397 -0.4651  0.3189 -0.5302
 7680TIP3    H244532   2.444   2.991   1.481  1.0095 -0.4964  1.3398
 7681TIP3   OH244533   4.706   3.782   4.188  0.0919  0.2101  0.6178
 7681TIP3    H144534   4.746   3.805   4.104  0.2147  1.0392  0.8990
 7681TIP3    H244535   4.689   3.688   4.181 -0.5365  0.3957 -0.5954
 7682TIP3   OH244536   1.759   0.751   0.120  0.5950  0.1397  0.4525
 7682TIP3    H144537   1.678   0.720   0.079  0.3587 -0.3643  1.2714
 7682TIP3    H244538   1.764   0.844   0.097  0.3551 -0.0691 -0.5110
 7683TIP3   OH244539   5.867   4.736   2.925  1.0733 -0.2725 -0.2697
 7683TIP3    H144540   5.871   4.697   3.012 -0.4405  1.8782  0.8363
 7683TIP3    H244541   5.953   4.779   2.914  0.4170  1.5746  1.2888
 7684TIP3   OH244542   6.660   6.233  11.222  0.4112 -0.1119 -0.1131
 7684TIP3    H144543   6.664   6.267  11.132 -0.3113 -1.2053 -0.5816
 7684TIP3    H244544   6.574   6.192  11.228  0.3270  0.2249  1.1943
 7685TIP3   OH244545   4.473   1.032   5.595  0.2587 -0.2218 -0.1061
 7685TIP3    H144546   4.402   1.089   5.625 -1.0085 -0.7513 -1.9393
 7685TIP3    H244547   4.478   0.963   5.661 -1.7007 -0.7737 -0.4834
 7686TIP3   OH244548   0.384   0.112  11.317  0.2031  0.3868 -0.1857
 7686TIP3    H144549   0.292   0.139  11.323  0.7710  2.6487 -0.8409
 7686TIP3    H244550   0.403   0.113  11.223  0.3057 -2.4570 -0.2900
 7687TIP3   OH244551   4.454   0.764   2.144 -0.4655 -0.3404 -0.1529
 7687TIP3    H144552   4.474   0.672   2.156 -0.8934 -0.1894  2.1414
 7687TIP3    H244553   4.360   0.770   2.157 -0.4850  0.3902 -0.5778
 7688TIP3   OH244554   4.974   0.878   0.380  0.2849 -0.2342  0.2952
 7688TIP3    H144555   4.889   0.864   0.339  0.8435 -0.1031 -0.9574
 7688TIP3    H244556   4.984   0.805   0.442 -1.2868  0.4708  1.4618
 7689TIP3   OH244557   1.006   5.433  14.939 -0.5453  0.0473 -0.5954
 7689TIP3    H144558   1.030   5.355  14.989  0.6548  0.8951  0.2022
 7689TIP3    H244559   1.088   5.463  14.900 -0.7240  1.6779  0.2255
 7690TIP3   OH244560   3.299   6.410  15.102 -0.3362 -0.5083  0.2003
 7690TIP3    H144561   3.258   6.497  15.094 -1.1061 -0.9904 -2.0277
 7690TIP3    H244562   3.390   6.425  15.077 -0.4794 -0.3283 -0.2355
 7691TIP3   OH244563   1.348   6.758  15.101 -0.0237 -0.4175 -0.4777
 7691TIP3    H144564   1.344   6.765  15.006 -1.7753 -0.7708 -0.4624
 7691TIP3    H244565   1.318   6.669  15.120 -1.0041  0.0787  0.4487
 7692TIP3   OH244566   6.074   5.396   2.734  0.3623  0.0139 -0.6617
 7692TIP3    H144567   6.039   5.462   2.674 -0.4777  0.0747 -0.1184
 7692TIP3    H244568   6.041   5.313   2.699  0.4162 -0.0083 -0.6590
 7693TIP3   OH244569   6.692   1.642   3.398  0.3443  0.1770 -0.4070
 7693TIP3    H144570   6.652   1.709   3.343  0.5998 -0.0152 -0.8337
 7693TIP3    H244571   6.729   1.579   3.336 -0.6064 -0.7986 -0.0353
 7694TIP3   OH244572   2.648   2.628   6.006 -0.5342  0.2676  0.0424
 7694TIP3    H144573   2.648   2.600   6.097  1.3003  0.0368  0.0195
 7694TIP3    H244574   2.620   2.551   5.956 -5.3707  1.3914  0.5174
 7695TIP3   OH244575   1.203   5.600   3.243  0.0370  0.3071 -0.0656
 7695TIP3    H144576   1.172   5.689   3.224 -2.1231 -0.3225  0.2972
 7695TIP3    H244577   1.222   5.601   3.337  2.7694  1.1024 -0.5221
 7696TIP3   OH244578   0.410   1.555  16.310 -0.1414 -0.2374  0.2705
 7696TIP3    H144579   0.445   1.474  16.273 -0.9032 -1.1102  1.3662
 7696TIP3    H244580   0.482   1.592  16.359  0.1111 -0.4468  0.0603
 7697TIP3   OH244581   3.693   4.475  13.420 -0.0377 -0.4451  0.1548
 7697TIP3    H144582   3.621   4.415  13.438 -0.4877 -0.0720 -0.3845
 7697TIP3    H244583   3.691   4.487  13.325 -0.8918  1.5700  0.3918
 7698TIP3   OH244584   2.523   4.849  17.318 -0.1786 -0.3968  0.1289
 7698TIP3    H144585   2.465   4.885  17.251 -1.4614 -1.5786  0.5676
 7698TIP3    H244586   2.487   4.763  17.338  1.3971 -0.9175  0.8550
 7699TIP3   OH244587   2.113   3.947   0.113 -0.0937 -0.1444 -0.1978
 7699TIP3    H144588   2.121   4.003   0.036  0.8546 -2.1266 -1.6520
 7699TIP3    H244589   2.113   3.858   0.077 -1.6307 -1.0976  1.9849
 7700TIP3   OH244590   5.735   4.095   2.751 -0.6195 -0.3490 -0.4930
 7700TIP3    H144591   5.740   4.185   2.719 -2.5879  0.0032  0.1072
 7700TIP3    H244592   5.678   4.050   2.689 -1.1299 -0.7080  0.2206
 7701TIP3   OH244593   1.180   6.372  10.648 -0.4743 -0.0062 -0.3451
 7701TIP3    H144594   1.201   6.457  10.609 -0.1400  0.1136  0.0903
 7701TIP3    H244595   1.168   6.314  10.573 -1.1385  0.5191 -0.6567
 7702TIP3   OH244596   2.078   3.659  16.467  0.1539  0.3804  0.3011
 7702TIP3    H144597   2.171   3.655  16.445 -0.4765 -1.2821 -2.6879
 7702TIP3    H244598   2.046   3.740  16.427  0.0837  0.2480  0.0830
 7703TIP3   OH244599   4.058   3.728   2.657 -0.0022  0.1596 -0.4206
 7703TIP3    H144600   4.078   3.693   2.570  0.8041  1.4719 -0.7996
 7703TIP3    H244601   4.047   3.651   2.712  0.5285 -0.6898 -1.4659
 7704TIP3   OH244602   1.255   1.198   2.921 -0.2782 -0.7486 -0.0838
 7704TIP3    H144603   1.310   1.136   2.968  1.7147 -0.3219 -1.7034
 7704TIP3    H244604   1.257   1.167   2.830 -2.0672 -0.2248 -0.3343
 7705TIP3   OH244605   0.512   3.013  17.122  0.0047 -0.6630  0.4174
 7705TIP3    H144606   0.435   2.975  17.164 -1.2199 -0.3452 -1.4105
 7705TIP3    H244607   0.510   2.979  17.033 -0.7102  2.9115 -1.1241
 7706TIP3   OH244608   1.128   3.834   4.763  0.2359 -0.2371 -0.4213
 7706TIP3    H144609   1.106   3.902   4.700  0.6279  0.0326 -0.2683
 7706TIP3    H244610   1.215   3.857   4.794  0.6320 -1.1437 -0.8169
 7707TIP3   OH244611   6.646   4.883   2.355 -0.2633 -0.1638 -0.4028
 7707TIP3    H144612   6.645   4.789   2.336 -1.3949  0.0471 -1.5780
 7707TIP3    H244613   6.558   4.913   2.331 -0.1977  1.0526  0.7679
 7708TIP3   OH244614   2.560   4.458   5.452  0.1463  0.3080  0.2402
 7708TIP3    H144615   2.613   4.474   5.530  1.5105  0.5323 -0.6826
 7708TIP3    H244616   2.595   4.519   5.387  0.4287 -1.2599 -1.1484
 7709TIP3   OH244617   3.926   6.773  15.735 -0.5225 -0.7133  0.1616
 7709TIP3    H144618   3.854   6.714  15.759  0.2168 -1.9326 -0.5296
 7709TIP3    H244619   3.942   6.756  15.642 -0.4323  0.7617 -0.1204
 7710TIP3   OH244620   6.360   1.679  14.084  0.2552  0.2104 -0.6338
 7710TIP3    H144621   6.339   1.734  14.008 -0.4182  0.4593 -0.2826
 7710TIP3    H244622   6.394   1.598  14.046  0.0070  0.3620 -1.2030
 7711TIP3   OH244623   0.468   6.087  15.479  0.7238 -0.1549 -0.5694
 7711TIP3    H144624   0.374   6.073  15.473  0.8795 -0.9964 -1.1282
 7711TIP3    H244625   0.500   6.077  15.389  1.3093  0.4153 -0.4364
 7712TIP3   OH244626   2.756   5.697   4.510  0.0501 -0.0093  0.1091
 7712TIP3    H144627   2.664   5.721   4.501  0.1994  0.4293 -0.3027
 7712TIP3    H244628   2.804   5.772   4.473  0.5485 -0.5331 -0.3250
 7713TIP3   OH244629   2.824   4.800   5.917 -0.7611  0.1810  0.1493
 7713TIP3    H144630   2.761   4.872   5.913 -2.2286 -1.0026  1.0372
 7713TIP3    H244631   2.776   4.727   5.955  1.6869 -0.1974  2.8920
 7714TIP3   OH244632   4.811   1.382   1.872  1.1083  0.0923 -0.0453
 7714TIP3    H144633   4.902   1.389   1.846  1.1256 -1.1804 -0.3523
 7714TIP3    H244634   4.813   1.336   1.956  0.8021  0.8804  0.4082
 7715TIP3   OH244635   4.306   3.398  16.999 -0.3275 -0.4548  0.2599
 7715TIP3    H144636   4.364   3.470  16.972  0.7473 -0.8293  1.4826
 7715TIP3    H244637   4.271   3.363  16.916  0.1766  0.6154 -0.4225
 7716TIP3   OH244638   1.841   0.428   3.398 -0.4468  0.1358  0.3277
 7716TIP3    H144639   1.834   0.523   3.390  0.8990  0.1309 -1.6463
 7716TIP3    H244640   1.929   0.414   3.434  0.5447 -0.3762 -2.1235
 7717TIP3   OH244641   5.936   6.628   2.332  0.0793  0.0896 -0.1069
 7717TIP3    H144642   5.914   6.571   2.405  0.2539 -1.4699 -1.2367
 7717TIP3    H244643   5.857   6.629   2.278  0.4956 -0.0869 -0.7219
 7718TIP3   OH244644   4.148   6.306   3.683  0.7609 -0.4058 -0.0752
 7718TIP3    H144645   4.073   6.355   3.650  0.4280  0.1116  1.4070
 7718TIP3    H244646   4.215   6.372   3.699  1.3630 -0.8033 -0.8648
 7719TIP3   OH244647   5.780   6.294  11.862  0.6225  0.0472 -0.3864
 7719TIP3    H144648   5.792   6.389  11.875  0.3710 -0.0287  0.4734
 7719TIP3    H244649   5.830   6.274  11.783  0.6486  0.9074 -0.5985
 7720TIP3   OH244650   5.880   6.467  14.025 -0.1106 -0.5109 -0.0666
 7720TIP3    H144651   5.791   6.449  13.995 -0.3626  0.3232  0.1396
 7720TIP3    H244652   5.879   6.443  14.118 -0.1702 -0.3337 -0.0223
 7721TIP3   OH244653   0.071   5.608  16.069  0.2577 -0.4318 -0.2708
 7721TIP3    H144654   0.034   5.553  16.138 -1.0344 -0.9897 -1.3561
 7721TIP3    H244655   0.155   5.637  16.104 -0.0459 -1.2565  1.2435
 7722TIP3   OH244656   1.400   5.894   0.445 -0.2883 -0.7190 -0.5416
 7722TIP3    H144657   1.435   5.807   0.463  3.3516  0.4374 -1.3122
 7722TIP3    H244658   1.352   5.917   0.525  0.6503 -2.4865  0.6043
 7723TIP3   OH244659   4.406   4.642  11.345 -0.1102 -0.3605  0.5024
 7723TIP3    H144660   4.449   4.581  11.405  1.4382  0.6139  0.4402
 7723TIP3    H244661   4.449   4.627  11.261  1.2610  1.6435  0.7574
 7724TIP3   OH244662   2.105   2.433   5.936  0.3273 -0.1078 -0.3064
 7724TIP3    H144663   2.040   2.382   5.984 -0.8686 -1.6680 -3.3125
 7724TIP3    H244664   2.059   2.464   5.858  1.8559  3.2130 -0.0386
 7725TIP3   OH244665   3.325   2.207   6.088  0.6897  0.2915 -0.0310
 7725TIP3    H144666   3.270   2.282   6.064  0.9690  0.0382 -1.5053
 7725TIP3    H244667   3.364   2.233   6.171  0.7988  1.7977 -0.5195
 7726TIP3   OH244668   3.392   5.689  12.392  0.3884 -0.3798 -0.1710
 7726TIP3    H144669   3.344   5.659  12.470  0.1337 -1.3742 -0.6893
 7726TIP3    H244670   3.326   5.692  12.323  1.0774 -2.0789 -0.9767
 7727TIP3   OH244671   0.101   0.992   3.298 -0.0207  0.3173 -0.2599
 7727TIP3    H144672   0.117   0.976   3.206 -0.3863 -0.6841 -0.1591
 7727TIP3    H244673   0.057   0.913   3.330  1.5125 -0.0266  1.1356
 7728TIP3   OH244674   0.038   4.327   1.182  0.3196  0.2989 -0.2862
 7728TIP3    H144675   0.107   4.296   1.240 -0.0219  1.1959  0.6389
 7728TIP3    H244676   0.037   4.264   1.110 -0.2334 -1.7150  1.3889
 7729TIP3   OH244677   0.531   3.699   5.455  0.6532 -0.2012 -0.5488
 7729TIP3    H144678   0.548   3.781   5.502 -1.4268 -0.5283  0.8859
 7729TIP3    H244679   0.438   3.702   5.434  1.1682 -0.8149 -3.3578
 7730TIP3   OH244680   1.919   5.412  12.288  0.3969 -0.3735 -0.0546
 7730TIP3    H144681   1.853   5.479  12.303 -0.0389 -1.0777  1.2704
 7730TIP3    H244682   1.953   5.431  12.200  1.8083  2.8997  1.0485
 7731TIP3   OH244683   4.804   2.964   6.841  0.0600  0.0161 -0.4765
 7731TIP3    H144684   4.770   2.906   6.909 -1.3653  1.0166 -0.3148
 7731TIP3    H244685   4.880   2.917   6.806  1.4116 -0.1403  2.4003
 7732TIP3   OH244686   3.168   6.547   5.540  0.1997 -0.3773 -0.0684
 7732TIP3    H144687   3.145   6.468   5.589  0.5939 -1.0961 -1.0215
 7732TIP3    H244688   3.101   6.554   5.472  0.6515 -0.3768 -0.5193
 7733TIP3   OH244689   2.041   3.701   4.901  0.2917 -0.0445  0.3593
 7733TIP3    H144690   1.977   3.703   4.830  1.0936 -1.6395 -0.4571
 7733TIP3    H244691   2.117   3.746   4.865 -0.7208  3.0803  1.8016
 7734TIP3   OH244692   4.938   1.615  15.993 -0.2227 -0.3303  0.1587
 7734TIP3    H144693   4.920   1.522  15.980  0.1281 -0.4032  0.1840
 7734TIP3    H244694   4.992   1.618  16.071  0.1454 -0.1411 -0.1027
 7735TIP3   OH244695   1.280   5.205   3.296 -0.3440 -0.3497 -0.1718
 7735TIP3    H144696   1.267   5.117   3.330 -1.0858  0.0144  0.5349
 7735TIP3    H244697   1.340   5.246   3.359  1.8608 -1.0257 -1.7135
 7736TIP3   OH244698   1.038   1.980  15.013  0.1314  0.2127 -0.4764
 7736TIP3    H144699   1.043   1.935  15.097  1.2114  2.5384  0.7820
 7736TIP3    H244700   1.123   2.022  15.002 -0.2120  0.5162 -2.4356
 7737TIP3   OH244701   4.588   3.159   2.476  0.1471 -0.4993  0.5948
 7737TIP3    H144702   4.492   3.162   2.482  0.0561 -1.5873 -0.0182
 7737TIP3    H244703   4.607   3.190   2.388  0.1740 -2.5899 -0.1761
 7738TIP3   OH244704   3.973   1.273  16.082  0.0594 -0.1895 -0.0677
 7738TIP3    H144705   3.946   1.201  16.025  0.1757  1.4660 -2.3628
 7738TIP3    H244706   3.952   1.352  16.032 -1.2228  1.4558  2.8692
 7739TIP3   OH244707   5.286   2.286   3.998 -0.1011 -0.5760  0.1319
 7739TIP3    H144708   5.208   2.286   3.943  1.3525 -0.2532 -2.0232
 7739TIP3    H244709   5.291   2.376   4.032  0.3963 -0.0137 -1.3554
 7740TIP3   OH244710   6.266   5.578   2.673 -0.2915 -0.1254 -0.9023
 7740TIP3    H144711   6.295   5.580   2.582 -0.1809  0.7306 -0.8509
 7740TIP3    H244712   6.211   5.499   2.678 -1.0321  0.2926 -1.9365
 7741TIP3   OH244713   3.367   6.343  17.347  0.3465  0.0842  0.2043
 7741TIP3    H144714   3.383   6.390  17.265  1.8265 -1.0084 -0.1785
 7741TIP3    H244715   3.410   6.396  17.414 -0.5659  0.7958  0.2579
 7742TIP3   OH244716   3.032   3.718   3.673  0.4277  0.2252  0.0224
 7742TIP3    H144717   3.044   3.725   3.579 -0.3741  1.0750 -0.0303
 7742TIP3    H244718   3.075   3.796   3.709 -1.0745  1.0120  0.1730
 7743TIP3   OH244719   4.952   6.469   3.424 -0.3299 -0.5090 -0.3160
 7743TIP3    H144720   4.907   6.554   3.419 -0.0581 -0.3167  0.3421
 7743TIP3    H244721   4.933   6.438   3.512  0.2815 -0.7372 -0.2653
 7744TIP3   OH244722   1.263   3.388   5.116  0.6077 -0.2499 -0.2049
 7744TIP3    H144723   1.208   3.339   5.056  1.8000 -0.7447 -0.9223
 7744TIP3    H244724   1.274   3.474   5.075  0.8737 -0.3613 -0.3684
 7745TIP3   OH244725   3.248   1.009  14.632 -0.3514 -0.2481  0.2718
 7745TIP3    H144726   3.237   1.063  14.554  0.2908 -0.6613 -0.1155
 7745TIP3    H244727   3.257   0.920  14.598 -0.4072 -0.4725  0.8429
 7746TIP3   OH244728   5.553   3.406  15.138 -0.2261  0.0934  0.0254
 7746TIP3    H144729   5.615   3.334  15.150  0.1271  0.2519 -0.7609
 7746TIP3    H244730   5.567   3.463  15.213  1.1063  0.4965 -0.4859
 7747TIP3   OH244731   6.050   2.421   1.428  0.4353 -0.4562 -0.3871
 7747TIP3    H144732   6.129   2.467   1.456 -0.5034  1.4239 -0.6989
 7747TIP3    H244733   6.053   2.424   1.333  0.5114 -1.3311 -0.4177
 7748TIP3   OH244734   5.940   6.539   5.548 -0.3604 -0.0000 -0.0192
 7748TIP3    H144735   5.937   6.471   5.481  0.1158  1.6566 -1.8271
 7748TIP3    H244736   5.999   6.605   5.512 -1.1975  1.6046  1.4094
 7749TIP3   OH244737   4.047   1.091  13.226 -0.2511  0.6472  0.2874
 7749TIP3    H144738   4.117   1.155  13.239 -0.6186  1.1812 -0.3083
 7749TIP3    H244739   3.972   1.128  13.273 -0.6481  0.9709 -0.5926
 7750TIP3   OH244740   5.407   1.097   3.082  0.0857  0.0531  0.2444
 7750TIP3    H144741   5.422   1.179   3.129 -1.4679  1.9942 -2.4146
 7750TIP3    H244742   5.380   1.035   3.150  1.2974  1.6865  2.3371
 7751TIP3   OH244743   3.998   5.356  12.831 -0.2530 -0.2427  0.1430
 7751TIP3    H144744   3.953   5.395  12.756  0.9933  0.4463 -0.2885
 7751TIP3    H244745   4.091   5.367  12.811  0.1385  0.9191  2.2428
 7752TIP3   OH244746   4.459   0.552  14.232  0.1949 -0.0382  0.4956
 7752TIP3    H144747   4.494   0.622  14.177 -1.0424 -0.8411 -1.4418
 7752TIP3    H244748   4.416   0.597  14.304  0.6511  1.1386  0.0511
 7753TIP3   OH244749   3.157   0.326  13.813  0.0494 -0.0421 -0.1116
 7753TIP3    H144750   3.085   0.372  13.857 -0.1532  0.4759 -0.9403
 7753TIP3    H244751   3.124   0.311  13.724 -0.1928 -2.5354  0.3455
 7754TIP3   OH244752   0.385   2.936   1.852 -0.0900 -0.1306 -0.0263
 7754TIP3    H144753   0.427   2.874   1.912  1.0493  1.5854  1.0434
 7754TIP3    H244754   0.384   2.891   1.768  0.0964 -1.8358  0.8412
 7755TIP3   OH244755   3.028   3.978  12.120 -0.0621 -0.3083 -0.0828
 7755TIP3    H144756   3.032   3.943  12.210 -0.0998  0.1021  0.0818
 7755TIP3    H244757   2.945   4.026  12.118 -0.2428 -0.6366 -0.4573
 7756TIP3   OH244758   2.181   1.751  12.679 -0.2628 -0.1616  0.2430
 7756TIP3    H144759   2.110   1.772  12.618  1.2627  0.8740 -1.2818
 7756TIP3    H244760   2.248   1.709  12.624  0.9659  0.3874  1.2828
 7757TIP3   OH244761   5.071   2.090   4.142 -0.0580  0.4737  0.0063
 7757TIP3    H144762   5.148   2.146   4.133  0.0249  0.3911  0.1953
 7757TIP3    H244763   5.081   2.050   4.228  0.2332 -0.3761 -0.4145
 7758TIP3   OH244764   6.258   4.824   2.692  0.1091 -0.3733  0.3200
 7758TIP3    H144765   6.271   4.820   2.786  0.3437  0.2072  0.3148
 7758TIP3    H244766   6.345   4.847   2.656  0.4466 -2.2591 -0.1752
 7759TIP3   OH244767   6.610   5.260   1.368 -0.6092  0.5968 -0.0178
 7759TIP3    H144768   6.538   5.224   1.419  0.1803  1.0499  1.4647
 7759TIP3    H244769   6.593   5.231   1.278 -2.3009  0.2159  0.4051
 7760TIP3   OH244770   1.137   0.512   2.137  0.1637  0.3238 -0.6496
 7760TIP3    H144771   1.098   0.436   2.094  0.4424 -0.0872 -0.1985
 7760TIP3    H244772   1.219   0.527   2.090  1.6577 -1.5924  1.1241
 7761TIP3   OH244773   5.433   1.473  11.606 -0.4509  0.1292 -0.2808
 7761TIP3    H144774   5.433   1.551  11.550 -2.0661 -0.8453 -1.7130
 7761TIP3    H244775   5.355   1.483  11.661 -0.0213  0.0654  0.3511
 7762TIP3   OH244776   0.370   5.852  14.945  0.2724 -0.0021 -0.2357
 7762TIP3    H144777   0.278   5.879  14.937 -0.1122 -1.5692 -1.7725
 7762TIP3    H244778   0.366   5.758  14.964  1.5762  0.2370  1.4387
 7763TIP3   OH244779   2.222   1.117  16.139 -0.3062  0.1909  0.5593
 7763TIP3    H144780   2.308   1.114  16.098  0.1083  1.8144  1.2285
 7763TIP3    H244781   2.163   1.142  16.068 -0.1904 -0.6042  0.1710
 7764TIP3   OH244782   5.824   4.327  10.789 -0.0681  0.3840 -0.0533
 7764TIP3    H144783   5.763   4.265  10.828  0.6064  0.4427  1.1437
 7764TIP3    H244784   5.877   4.274  10.729  0.4653 -0.2106  0.9144
 7765TIP3   OH244785   2.438   4.141   6.388  0.1079 -0.7889  0.9160
 7765TIP3    H144786   2.343   4.139   6.378  0.0168 -1.3350  1.7499
 7765TIP3    H244787   2.452   4.199   6.463  0.5385  0.5452 -0.1605
 7766TIP3   OH244788   5.334   0.473  10.671  0.6650  0.5771 -0.4267
 7766TIP3    H144789   5.267   0.499  10.608 -0.5659  1.2804  1.0911
 7766TIP3    H244790   5.357   0.384  10.647 -3.2963 -1.0338  0.9057
 7767TIP3   OH244791   2.718   2.526   2.844 -0.1843  0.5180  0.1075
 7767TIP3    H144792   2.738   2.528   2.750  0.7904  2.7030  0.2995
 7767TIP3    H244793   2.792   2.570   2.885 -1.3286  0.9883  1.7645
 7768TIP3   OH244794   3.168   5.624   5.683 -0.0143 -0.2860  0.2838
 7768TIP3    H144795   3.182   5.707   5.729  1.2164 -0.5675  0.4535
 7768TIP3    H244796   3.166   5.647   5.590 -1.9651  0.2135  0.4037
 7769TIP3   OH244797   4.102   6.234   0.520  0.2539  0.1506 -0.0906
 7769TIP3    H144798   4.054   6.318   0.521  0.8380  0.4868  0.1320
 7769TIP3    H244799   4.068   6.189   0.443 -1.3201 -0.1491  0.7359
 7770TIP3   OH244800   5.880   4.323   2.000 -0.2112 -0.3503 -0.1130
 7770TIP3    H144801   5.834   4.270   1.934 -0.6845  0.1502 -0.1912
 7770TIP3    H244802   5.873   4.412   1.967 -0.9344 -0.0242  0.8849
 7771TIP3   OH244803   2.042   1.239   2.577  0.1284 -0.0628 -0.6418
 7771TIP3    H144804   2.027   1.245   2.482 -0.9990  0.0149 -0.4743
 7771TIP3    H244805   2.006   1.153   2.601  0.5345 -0.1408 -0.3031
 7772TIP3   OH244806   2.564   2.881  14.736 -0.4379  0.0968 -0.6881
 7772TIP3    H144807   2.506   2.854  14.807  0.7178 -0.7522 -0.0363
 7772TIP3    H244808   2.544   2.973  14.722 -0.7643  0.2524  0.6667
 7773TIP3   OH244809   2.150   0.441  13.516  0.4514 -0.1190  0.0620
 7773TIP3    H144810   2.100   0.395  13.584  0.7207 -1.5297 -0.6457
 7773TIP3    H244811   2.096   0.433  13.437  0.8551  0.1220 -0.2420
 7774TIP3   OH244812   6.558   5.391  12.518 -0.0503 -0.2798 -0.6731
 7774TIP3    H144813   6.500   5.466  12.507  0.5831  0.3242  0.0272
 7774TIP3    H244814   6.502   5.322  12.553 -0.8145 -0.4140 -2.0699
 7775TIP3   OH244815   4.596   5.462  15.487 -0.0902  0.1250 -0.1725
 7775TIP3    H144816   4.535   5.535  15.473  0.4320  0.7727  0.8028
 7775TIP3    H244817   4.563   5.392  15.431 -1.4963  0.5980  0.0264
 7776TIP3   OH244818   4.926   0.099  15.079 -0.1241  0.0573 -0.2924
 7776TIP3    H144819   4.850   0.103  15.136 -0.8869 -3.0511 -0.9189
 7776TIP3    H244820   4.893   0.062  14.997  2.1358 -2.2299 -0.2926
 7777TIP3   OH244821   3.169   1.285  16.309 -0.2574  0.2946  0.3558
 7777TIP3    H144822   3.179   1.295  16.403  0.7009 -2.7154  0.6735
 7777TIP3    H244823   3.258   1.289  16.274 -0.5768  1.0690 -0.3917
 7778TIP3   OH244824   6.156   3.226   6.098  0.8895  0.0686  0.0782
 7778TIP3    H144825   6.170   3.248   6.190 -2.6756 -0.8316  1.0124
 7778TIP3    H244826   6.181   3.134   6.091 -1.7737 -0.8308  1.1010
 7779TIP3   OH244827   5.550   5.629  13.724  0.4103 -0.1755  0.3743
 7779TIP3    H144828   5.548   5.693  13.653  1.2822 -0.1442  0.3711
 7779TIP3    H244829   5.638   5.635  13.760  1.0580 -2.4693 -0.6339
 7780TIP3   OH244830   3.833   4.136   2.068  0.0685  0.4945  0.3187
 7780TIP3    H144831   3.851   4.208   2.129  0.4744 -0.0690  0.8830
 7780TIP3    H244832   3.741   4.114   2.084  0.1490  0.4061  0.6784
 7781TIP3   OH244833   4.786   0.989   2.688 -0.2326  0.6223  0.3107
 7781TIP3    H144834   4.818   0.901   2.707 -0.8615  0.1234 -0.8602
 7781TIP3    H244835   4.851   1.047   2.729  1.9511 -0.3486 -1.5279
 7782TIP3   OH244836   2.920   5.113   1.631 -0.2534  0.2522 -0.1686
 7782TIP3    H144837   3.012   5.090   1.647  0.0208  1.5870  0.3369
 7782TIP3    H244838   2.911   5.111   1.536  0.0537 -0.7620 -0.1874
 7783TIP3   OH244839   6.185   1.809  11.817 -0.0157 -0.0468  0.1178
 7783TIP3    H144840   6.230   1.726  11.800  0.6173  0.3198 -0.0252
 7783TIP3    H244841   6.255   1.874  11.822 -0.4435  0.3649  0.9947
 7784TIP3   OH244842   5.870   1.577  14.738  0.2762  0.3432  0.4283
 7784TIP3    H144843   5.794   1.616  14.782  2.5194  1.9784  3.2296
 7784TIP3    H244844   5.879   1.628  14.657 -1.0051  0.7676  0.5211
 7785TIP3   OH244845   1.943   3.134   3.495  0.0163  0.2869 -0.0566
 7785TIP3    H144846   2.025   3.099   3.531 -0.2097  0.7591  0.9512
 7785TIP3    H244847   1.949   3.117   3.401  0.3736 -1.4927  0.2657
 7786TIP3   OH244848   0.205   2.162   3.315  0.3573 -0.3707  0.5173
 7786TIP3    H144849   0.185   2.194   3.227  0.3382  1.3373  1.1099
 7786TIP3    H244850   0.242   2.075   3.300 -0.5949 -0.5540 -1.0951
 7787TIP3   OH244851   2.522   0.639  12.228  0.1688 -0.4607  0.3295
 7787TIP3    H144852   2.567   0.599  12.303  0.9995  2.6483  1.6787
 7787TIP3    H244853   2.429   0.624  12.245  0.3819 -0.4780  1.5842
 7788TIP3   OH244854   1.224   1.015   2.690  0.6744 -0.0502  0.2319
 7788TIP3    H144855   1.139   1.014   2.735  0.7886  0.4697  0.4700
 7788TIP3    H244856   1.204   1.040   2.600  0.7960  2.4413  0.8272
 7789TIP3   OH244857   2.720   6.432   1.515  0.0812  0.0510 -0.1304
 7789TIP3    H144858   2.624   6.424   1.518  0.0564  0.2314 -0.3505
 7789TIP3    H244859   2.752   6.347   1.543 -0.1356  0.2266  0.6750
 7790TIP3   OH244860   5.600   4.718   1.442  0.7155  0.3387  0.3407
 7790TIP3    H144861   5.645   4.713   1.358 -4.0878 -0.2427 -2.5748
 7790TIP3    H244862   5.578   4.628   1.463 -0.4323  0.6980  0.7615
 7791TIP3   OH244863   6.215   0.320   2.979  0.2383 -0.2331  0.6899
 7791TIP3    H144864   6.160   0.248   3.012 -3.7391  2.1798 -0.0392
 7791TIP3    H244865   6.224   0.379   3.054 -0.0556  0.4307  0.2102
 7792TIP3   OH244866   3.168   5.075  12.588  0.3658  0.0122 -0.4818
 7792TIP3    H144867   3.252   5.100  12.550  0.3583 -1.8289 -1.8333
 7792TIP3    H244868   3.166   5.119  12.673  1.2750  2.6460 -1.7224
 7793TIP3   OH244869   4.122   4.041   2.205  0.1547 -0.1648 -0.0080
 7793TIP3    H144870   4.162   3.954   2.198 -0.0487 -0.3485  0.9225
 7793TIP3    H244871   4.037   4.025   2.246  0.2283  0.5034  0.4260
 7794TIP3   OH244872   2.316   2.946   4.431 -0.0782  0.1626 -0.0043
 7794TIP3    H144873   2.343   2.963   4.521 -1.5799 -1.3965  0.8018
 7794TIP3    H244874   2.255   3.016   4.410 -0.5616 -0.0715  0.5992
 7795TIP3   OH244875   3.723   5.321  13.811  0.9453  0.1974 -0.0474
 7795TIP3    H144876   3.728   5.349  13.720  2.1365 -0.3379 -0.1688
 7795TIP3    H244877   3.813   5.299  13.834  0.1833 -3.6983 -0.0552
 7796TIP3   OH244878   1.750   5.926  14.840 -0.3633 -0.3826 -0.0222
 7796TIP3    H144879   1.788   5.982  14.773 -1.7957  1.1687  0.3885
 7796TIP3    H244880   1.825   5.894  14.890  0.8614 -2.5153 -2.9428
 7797TIP3   OH244881   2.671   4.097  15.685  0.2979  0.0419  0.0576
 7797TIP3    H144882   2.723   4.080  15.763  0.4376 -1.3823 -0.3247
 7797TIP3    H244883   2.716   4.170  15.642  1.0524 -0.1141  0.5650
 7798TIP3   OH244884   1.750   2.877  12.818  0.0728 -0.1375 -0.2794
 7798TIP3    H144885   1.772   2.905  12.907  0.6129 -0.2742 -0.3681
 7798TIP3    H244886   1.801   2.934  12.761 -0.1966 -0.1151 -0.5013
 7799TIP3   OH244887   0.172   6.220  10.911 -0.2881 -0.3419 -0.2691
 7799TIP3    H144888   0.233   6.282  10.951  0.0937  0.1094 -1.5061
 7799TIP3    H244889   0.227   6.147  10.883 -0.6278 -0.8966  0.4712
 7800TIP3   OH244890   0.028   3.532  12.548  0.1584 -0.8517  0.1485
 7800TIP3    H144891  -0.003   3.589  12.478  0.0226 -1.8633 -0.6370
 7800TIP3    H244892   0.000   3.575  12.629 -1.1037 -0.4761 -0.4656
 7801TIP3   OH244893   5.006   2.118   6.429  0.7804 -0.0535  0.0841
 7801TIP3    H144894   4.984   2.140   6.519 -0.1578 -0.3292 -0.0666
 7801TIP3    H244895   4.947   2.046   6.407  1.4089 -0.3823 -0.5589
 7802TIP3   OH244896   3.291   2.602  10.760 -0.1861 -0.6289 -0.3110
 7802TIP3    H144897   3.205   2.582  10.724 -0.3624 -1.0762  0.3439
 7802TIP3    H244898   3.309   2.692  10.732 -0.8630 -0.5343 -0.4491
 7803TIP3   OH244899   5.670   2.122  13.482 -0.8327 -0.3120  0.1189
 7803TIP3    H144900   5.753   2.092  13.443  0.2235  0.2273  1.8290
 7803TIP3    H244901   5.620   2.155  13.408  0.3017 -1.0362 -1.0268
 7804TIP3   OH244902   5.032   2.271   5.061  0.2769 -0.3136  0.2486
 7804TIP3    H144903   4.967   2.262   4.992  1.4181 -0.0202 -0.9114
 7804TIP3    H244904   5.112   2.298   5.015  1.6173 -2.0983  1.4158
 7805TIP3   OH244905   3.051   6.754  10.559 -0.1754  0.1332  0.1320
 7805TIP3    H144906   3.045   6.741  10.654 -0.6449  0.6002  0.1688
 7805TIP3    H244907   3.139   6.790  10.546 -1.4859  4.0111  0.8830
 7806TIP3   OH244908   3.560   1.661   0.036  0.0673  0.3115  0.2716
 7806TIP3    H144909   3.554   1.751   0.069  0.7222  0.5900 -0.3299
 7806TIP3    H244910   3.529   1.667  -0.055  2.3927  0.4309 -0.5858
 7807TIP3   OH244911   2.284   0.556  12.853 -0.0558 -0.1070 -0.3127
 7807TIP3    H144912   2.219   0.555  12.782 -0.3018  0.4417 -0.1059
 7807TIP3    H244913   2.279   0.645  12.888  0.9301 -0.0162 -0.3958
 7808TIP3   OH244914   6.408   6.576  13.334  0.1924  0.3516 -0.0484
 7808TIP3    H144915   6.336   6.611  13.388  1.1512  0.1606  1.4185
 7808TIP3    H244916   6.475   6.644  13.337 -0.4003  1.1641 -2.5971
 7809TIP3   OH244917   0.240   5.568  13.063  0.7195  0.8215  0.5439
 7809TIP3    H144918   0.331   5.542  13.079  0.4756  1.1883  2.8420
 7809TIP3    H244919   0.188   5.493  13.092  0.2679  0.4173 -1.2184
 7810TIP3   OH244920   4.605   4.435   2.090 -0.0063 -0.2261 -0.6056
 7810TIP3    H144921   4.700   4.438   2.081 -0.0189 -1.8005 -1.7950
 7810TIP3    H244922   4.590   4.421   2.184  0.9008  0.5223 -0.3358
 7811TIP3   OH244923   5.336   0.621  16.890 -0.7195 -0.2285  0.5528
 7811TIP3    H144924   5.383   0.541  16.866 -2.9610 -1.5607  0.2658
 7811TIP3    H244925   5.298   0.602  16.976 -2.1526  0.0795  0.0210
 7812TIP3   OH244926   5.329   6.733   5.316 -0.1479  0.5533  0.6215
 7812TIP3    H144927   5.298   6.646   5.291  0.9319  0.7265 -1.5394
 7812TIP3    H244928   5.410   6.717   5.364 -0.9314  0.3169  1.9036
 7813TIP3   OH244929   1.653   4.202   2.336 -0.2113  0.0143 -0.6575
 7813TIP3    H144930   1.574   4.197   2.282  1.0512  0.1099 -2.5921
 7813TIP3    H244931   1.706   4.270   2.295  1.2909 -0.6862  0.0555
 7814TIP3   OH244932   5.736   5.272   5.313  0.5023 -0.1699  0.0728
 7814TIP3    H144933   5.769   5.274   5.223 -0.7308 -1.4247 -0.4404
 7814TIP3    H244934   5.676   5.197   5.315  0.9675 -0.5467  2.1125
 7815TIP3   OH244935   2.828   5.098  11.463  0.1437 -0.0912 -0.1744
 7815TIP3    H144936   2.918   5.124  11.447  0.5150 -1.2735 -0.1097
 7815TIP3    H244937   2.812   5.027  11.400 -0.7332  0.0958 -0.1715
 7816TIP3   OH244938   5.577   1.035  14.351  1.0281  0.2785  0.3817
 7816TIP3    H144939   5.656   1.085  14.337  1.5547 -0.7571 -0.5037
 7816TIP3    H244940   5.572   0.975  14.276 -0.1250 -0.2661  0.8579
 7817TIP3   OH244941   1.636   5.049  16.040  0.1083  0.4324  0.6585
 7817TIP3    H144942   1.683   5.121  15.997  1.5442 -0.6741  0.2982
 7817TIP3    H244943   1.593   5.090  16.115 -1.2694  2.1526 -0.9486
 7818TIP3   OH244944   2.647   2.801   1.642  0.4906 -0.0502 -0.2916
 7818TIP3    H144945   2.592   2.730   1.612  0.8250 -0.2967 -0.3251
 7818TIP3    H244946   2.729   2.791   1.594  0.3454  0.6909 -0.7189
 7819TIP3   OH244947   2.168   2.933  10.946 -0.0480 -0.0245 -0.4431
 7819TIP3    H144948   2.089   2.988  10.954  0.4238  0.5468  0.4037
 7819TIP3    H244949   2.241   2.994  10.956  0.5324 -1.0802  3.3108
 7820TIP3   OH244950   2.912   5.947  17.150  0.5685 -0.1946  0.0323
 7820TIP3    H144951   2.863   5.961  17.232 -0.5286  1.7647 -0.8805
 7820TIP3    H244952   2.990   6.002  17.159  0.2895  0.2723 -0.3400
 7821TIP3   OH244953   1.995   5.173  10.280  0.5559 -0.1620  0.2246
 7821TIP3    H144954   1.927   5.215  10.331  0.3091 -0.2542 -0.0259
 7821TIP3    H244955   1.965   5.082  10.269  1.5292 -0.6721  1.5736
 7822TIP3   OH244956   6.320   2.971   1.224  0.6322  0.1982 -0.1191
 7822TIP3    H144957   6.362   2.914   1.159  2.8553  0.2103  1.1973
 7822TIP3    H244958   6.391   3.028   1.255 -0.4561  0.5168  1.9440
 7823TIP3   OH244959   2.146   3.107  13.017  0.5878 -0.4367  0.3220
 7823TIP3    H144960   2.235   3.142  13.015  0.4263 -0.0205  0.2858
 7823TIP3    H244961   2.150   3.036  13.081  1.4909 -1.9277 -1.2948
 7824TIP3   OH244962   1.134   3.021   0.305  0.0663  0.3042  0.6072
 7824TIP3    H144963   1.202   2.976   0.256 -0.8367 -0.1964 -0.2277
 7824TIP3    H244964   1.167   3.110   0.317  0.5513  0.2714 -0.4200
 7825TIP3   OH244965   2.243   2.935   3.194  0.3900 -0.2177 -0.1010
 7825TIP3    H144966   2.327   2.945   3.238  0.3614 -1.9546  0.4264
 7825TIP3    H244967   2.264   2.940   3.101  1.0624 -0.5244  0.0289
 7826TIP3   OH244968   4.496   0.357  11.629  0.0901 -0.0211  0.3342
 7826TIP3    H144969   4.556   0.293  11.591 -0.8922 -0.9308  0.2791
 7826TIP3    H244970   4.410   0.335  11.593 -0.0401  2.4468 -1.1308
 7827TIP3   OH244971   0.085   1.549  12.570 -0.6068 -0.4518 -0.1421
 7827TIP3    H144972   0.172   1.585  12.583 -0.7838 -0.3295  0.7888
 7827TIP3    H244973   0.037   1.616  12.522 -0.1229 -0.6235 -0.8790
 7828TIP3   OH244974   0.649   5.567   4.417 -0.3870  0.5305  0.1498
 7828TIP3    H144975   0.677   5.656   4.397  1.5423 -0.1799 -0.4800
 7828TIP3    H244976   0.643   5.564   4.513  0.9777  0.9314  0.2589
 7829TIP3   OH244977   1.117   5.029  13.754  0.4405  0.2511  0.4314
 7829TIP3    H144978   1.121   5.087  13.831  0.9009 -0.0442  0.6390
 7829TIP3    H244979   1.026   5.032  13.726 -0.0268 -0.5835  1.7339
 7830TIP3   OH244980   3.124   2.757   4.931  0.2158  0.4506 -0.4908
 7830TIP3    H144981   3.121   2.756   4.835  0.0334  1.3913 -0.5069
 7830TIP3    H244982   3.057   2.694   4.957 -0.2324  0.7085 -0.9890
 7831TIP3   OH244983   3.812   2.020   0.852  0.1525 -0.1237  0.3212
 7831TIP3    H144984   3.899   2.001   0.818  0.3068 -1.3322  1.3027
 7831TIP3    H244985   3.827   2.040   0.945 -0.7667 -2.4851  1.0696
 7832TIP3   OH244986   5.586   1.070  12.723 -0.0172 -0.0558 -0.5634
 7832TIP3    H144987   5.501   1.114  12.716  0.1700  0.1540 -1.7762
 7832TIP3    H244988   5.645   1.123  12.670  0.5816 -0.8786 -0.7436
 7833TIP3   OH244989   6.633   4.499  12.983  0.1841 -0.4783  0.7623
 7833TIP3    H144990   6.591   4.474  13.065 -0.1102 -2.1292  0.1502
 7833TIP3    H244991   6.609   4.591  12.971 -0.9241 -0.5986  1.8228
 7834TIP3   OH244992   3.064   2.238  14.970  0.7718  0.2334 -0.0556
 7834TIP3    H144993   3.050   2.320  14.922 -0.6255 -1.0279 -1.9673
 7834TIP3    H244994   2.993   2.180  14.939 -0.4751 -0.6047  3.8497
 7835TIP3   OH244995   1.284   3.693  17.081 -0.5862 -0.2279 -0.4444
 7835TIP3    H144996   1.375   3.695  17.052 -0.6165  1.0588 -0.5071
 7835TIP3    H244997   1.233   3.687  17.000 -0.5799 -0.6923 -0.4207
 7836TIP3   OH244998   2.938   6.516  12.493  0.5701 -0.5397  0.5514
 7836TIP3    H144999   2.998   6.520  12.419 -0.9574  0.3537 -0.7214
 7836TIP3    H245000   2.974   6.577  12.557 -0.5867  2.5665 -1.5401
 7837TIP3   OH245001   1.518   3.859  12.284 -0.5359 -0.4826 -0.1281
 7837TIP3    H145002   1.477   3.779  12.253 -1.4376  0.0487 -0.3300
 7837TIP3    H245003   1.501   3.860  12.379  0.2319 -0.9521  0.0267
 7838TIP3   OH245004   0.408   3.242   2.383 -0.5954 -0.0923 -0.0518
 7838TIP3    H145005   0.487   3.297   2.388 -0.7258  0.0459  0.6298
 7838TIP3    H245006   0.433   3.169   2.328 -0.0291  0.0259  0.0421
 7839TIP3   OH245007   0.607   6.626  13.587  0.4838 -0.3422 -0.4501
 7839TIP3    H145008   0.699   6.638  13.566  0.3946  0.1685 -0.5465
 7839TIP3    H245009   0.563   6.623  13.502  0.1958  1.1634 -0.3788
 7840TIP3   OH245010   0.086   2.477  13.235  0.2042  0.1278 -0.8741
 7840TIP3    H145011   0.074   2.553  13.178  1.2392  0.9570 -0.0249
 7840TIP3    H245012   0.158   2.428  13.194  0.0964  0.0431 -0.9645
 7841TIP3   OH245013   1.996   5.445  13.457  0.2359  0.3612 -0.6623
 7841TIP3    H145014   1.939   5.424  13.382 -0.7469 -0.4816  0.2937
 7841TIP3    H245015   2.061   5.375  13.458 -0.8553 -0.6790  0.3410
 7842TIP3   OH245016   4.165   3.618   6.223  0.1910  0.8981 -0.3636
 7842TIP3    H145017   4.221   3.601   6.298 -1.4534  1.4409  1.0582
 7842TIP3    H245018   4.117   3.536   6.209 -0.0717  1.0395 -0.3080
 7843TIP3   OH245019   4.646   0.918   1.681  0.3126  0.3858 -0.3876
 7843TIP3    H145020   4.739   0.929   1.658  0.9273 -1.6054  0.8769
 7843TIP3    H245021   4.636   0.967   1.763  0.2142  0.6413 -0.5493
 7844TIP3   OH245022   5.314   4.585   5.200  0.4700 -0.1141  1.0353
 7844TIP3    H145023   5.245   4.520   5.189  1.4613 -1.0182 -0.2562
 7844TIP3    H245024   5.368   4.551   5.272  1.0453 -0.8220  0.2942
 7845TIP3   OH245025   1.946   1.319   5.618 -0.0130 -0.0144 -0.0631
 7845TIP3    H145026   1.949   1.250   5.552 -1.4878  0.4656 -0.6756
 7845TIP3    H245027   2.021   1.375   5.599  1.3631 -1.5541  0.6101
 7846TIP3   OH245028   2.966   5.507   4.544  0.4641 -0.0433  0.2215
 7846TIP3    H145029   3.058   5.521   4.522  0.3692 -1.7406 -1.5934
 7846TIP3    H245030   2.918   5.570   4.490  0.5021 -0.3998 -0.2392
 7847TIP3   OH245031   6.093   5.793   4.574 -0.5560  0.0303  0.2943
 7847TIP3    H145032   6.071   5.778   4.482  1.5423 -0.3710 -0.1856
 7847TIP3    H245033   6.055   5.879   4.594  1.6158  1.6174 -1.9022
 7848TIP3   OH245034   3.933   5.801   2.078 -0.3691 -0.4946  0.0820
 7848TIP3    H145035   4.005   5.756   2.121 -0.4859  0.6232  1.5059
 7848TIP3    H245036   3.975   5.871   2.027 -0.3009 -1.2297 -0.8888
 7849TIP3   OH245037   0.624   2.464  15.564 -0.3346 -0.6055  0.0946
 7849TIP3    H145038   0.685   2.414  15.509 -0.3602  0.5860 -1.0660
 7849TIP3    H245039   0.608   2.407  15.639  0.0289 -2.1283 -0.9269
 7850TIP3   OH245040   4.525   2.326   2.984  0.2205  0.0687 -0.0518
 7850TIP3    H145041   4.540   2.238   3.019 -1.3741  0.4325  1.7372
 7850TIP3    H245042   4.601   2.376   3.013  1.3694 -0.7662 -1.4718
 7851TIP3   OH245043   1.122   2.331   2.086 -0.0405 -0.5078  0.3793
 7851TIP3    H145044   1.112   2.424   2.065  0.3762 -0.6415 -0.4538
 7851TIP3    H245045   1.117   2.327   2.182 -1.0292  0.2484  0.3717
 7852TIP3   OH245046   4.477   5.382   2.765  0.1589 -0.3362  0.3930
 7852TIP3    H145047   4.456   5.347   2.851  0.3199  1.0657  1.0108
 7852TIP3    H245048   4.499   5.473   2.780 -0.9956  0.2755 -1.2804
 7853TIP3   OH245049   6.408   4.991  17.039 -0.2685 -0.3444  0.6226
 7853TIP3    H145050   6.354   5.047  16.984  0.6046 -0.5031 -0.4552
 7853TIP3    H245051   6.369   4.996  17.126 -1.6591 -0.0297  0.0015
 7854TIP3   OH245052   0.612   6.684  16.331  0.5672  0.8901 -0.0656
 7854TIP3    H145053   0.546   6.685  16.400 -0.3648  0.4410 -0.9351
 7854TIP3    H245054   0.613   6.774  16.297 -0.6033  0.5831 -0.9697
 7855TIP3   OH245055   6.601   0.833  13.675  0.0824 -0.5263  0.0991
 7855TIP3    H145056   6.654   0.828  13.754 -1.6845  3.4839  1.8209
 7855TIP3    H245057   6.531   0.769  13.689  0.3314 -0.5461  1.3402
 7856TIP3   OH245058   4.372   5.939   1.309 -0.0088 -0.0232 -0.0041
 7856TIP3    H145059   4.307   6.007   1.324  0.6254  0.6219 -0.1659
 7856TIP3    H245060   4.323   5.869   1.266 -0.4960  0.6543 -0.5672
 7857TIP3   OH245061   3.631   1.766  16.868 -0.2714  0.8042 -0.6538
 7857TIP3    H145062   3.710   1.716  16.848 -0.0362  0.6369  0.5860
 7857TIP3    H245063   3.570   1.745  16.798 -0.0064 -0.8348 -0.4143
 7858TIP3   OH245064   2.750   5.531  16.882 -0.3417 -0.7307 -0.2537
 7858TIP3    H145065   2.714   5.529  16.793 -1.4733  0.7728  0.1254
 7858TIP3    H245066   2.843   5.510  16.871 -0.1939  0.5708 -1.9481
 7859TIP3   OH245067   1.382   0.877   2.480  0.0470  0.5063 -0.5559
 7859TIP3    H145068   1.308   0.826   2.514  1.0166 -0.6460 -0.0948
 7859TIP3    H245069   1.402   0.836   2.396  0.7782  0.1628 -0.2233
 7860TIP3   OH245070   0.792   5.731  12.259  0.4707  0.4465 -0.0644
 7860TIP3    H145071   0.841   5.776  12.328 -0.0119  2.1472 -0.7934
 7860TIP3    H245072   0.714   5.698  12.303  1.3100 -0.5981  0.6911
 7861TIP3   OH245073   6.512   0.571  12.276 -0.2364  0.2090  0.3522
 7861TIP3    H145074   6.434   0.604  12.320 -1.3928 -0.0567 -1.4428
 7861TIP3    H245075   6.480   0.520  12.202  1.6364  0.4939 -0.7333
 7862TIP3   OH245076   0.380   4.977   4.582 -0.2436 -0.2232 -0.3421
 7862TIP3    H145077   0.404   5.036   4.510 -0.3530  0.1485 -0.0757
 7862TIP3    H245078   0.351   4.897   4.539  0.8924 -0.4678 -0.6915
 7863TIP3   OH245079   0.906   6.641  15.671 -0.1843 -0.2546 -0.5014
 7863TIP3    H145080   0.884   6.681  15.755 -0.2751 -0.1706 -0.5647
 7863TIP3    H245081   0.834   6.666  15.613  1.1246  1.8517 -1.3183
 7864TIP3   OH245082   0.881   6.416   4.647  0.4226  0.5681  0.6981
 7864TIP3    H145083   0.883   6.511   4.654  0.8269  0.5112  1.4806
 7864TIP3    H245084   0.792   6.396   4.619  0.7168  1.2452 -0.7899
 7865TIP3   OH245085   0.888   6.692   4.602 -0.3930 -0.3535 -0.4698
 7865TIP3    H145086   0.965   6.741   4.633  0.3346 -0.8625 -1.4235
 7865TIP3    H245087   0.920   6.641   4.528 -2.0217  0.7026 -1.9912
 7866TIP3   OH245088   2.055   4.499   3.397 -0.1989 -0.3307  0.2897
 7866TIP3    H145089   2.076   4.528   3.308 -0.0684  0.2362  0.5050
 7866TIP3    H245090   2.101   4.560   3.454 -0.3583 -0.6376  0.7519
 7867TIP3   OH245091   4.604   6.515   4.567  0.0891 -0.1649  0.2279
 7867TIP3    H145092   4.576   6.584   4.507 -0.9839 -1.3941 -0.7378
 7867TIP3    H245093   4.659   6.560   4.631  0.0050  1.4518 -0.7799
 7868TIP3   OH245094   1.307   0.903   0.148  0.0587  0.5830  0.2575
 7868TIP3    H145095   1.290   0.867   0.235  2.2495 -0.7378  0.2393
 7868TIP3    H245096   1.235   0.963   0.131 -1.9049 -1.1994  1.8230
 7869TIP3   OH245097   0.050   5.846   0.734 -0.0283  0.4919 -0.2306
 7869TIP3    H145098   0.008   5.892   0.807 -0.9025  1.5803 -1.3754
 7869TIP3    H245099   0.140   5.831   0.763 -0.5282  0.2836  1.3249
 7870TIP3   OH245100   3.408   0.403  12.650  0.1310  0.0106  0.0215
 7870TIP3    H145101   3.478   0.359  12.602 -1.5608 -2.3078 -0.4570
 7870TIP3    H245102   3.374   0.469  12.589  0.7995  0.0209 -0.3434
 7871TIP3   OH245103   0.134   1.379  12.354 -0.4483 -0.1016 -0.4766
 7871TIP3    H145104   0.127   1.398  12.447 -0.0577 -1.0786 -0.2417
 7871TIP3    H245105   0.044   1.382  12.322 -0.7062 -0.8865  0.1629
 7872TIP3   OH245106   2.027   1.173   2.312 -0.0468 -0.2880 -0.0123
 7872TIP3    H145107   2.028   1.266   2.291 -1.0360 -0.0581  0.8778
 7872TIP3    H245108   2.119   1.152   2.333 -0.1608  1.0630  2.0877
 7873TIP3   OH245109   5.490   4.423   4.341 -0.1507 -0.4184  0.4511
 7873TIP3    H145110   5.501   4.342   4.290  0.2319 -0.1437  0.0828
 7873TIP3    H245111   5.580   4.453   4.356 -0.2292 -0.8122  1.8183
 7874TIP3   OH245112   0.201   1.508  12.979 -0.4186  0.4752 -0.1143
 7874TIP3    H145113   0.148   1.447  12.929 -0.6884 -0.1207  0.8672
 7874TIP3    H245114   0.281   1.518  12.927  0.7710 -2.7364  0.8419
 7875TIP3   OH245115   3.043   5.067   6.034 -0.1561  0.0740  0.0333
 7875TIP3    H145116   2.959   5.055   5.991  0.2239 -0.3581 -0.6050
 7875TIP3    H245117   3.021   5.098   6.122 -0.9480  0.8235 -0.4140
 7876TIP3   OH245118   1.248   4.205   3.581  0.1773  0.2329  0.3450
 7876TIP3    H145119   1.245   4.113   3.608 -0.6906  0.0253 -0.4250
 7876TIP3    H245120   1.277   4.202   3.490  0.3061  0.7417  0.3664
 7877TIP3   OH245121   1.910   3.666  13.386 -0.7209  0.0269 -0.0336
 7877TIP3    H145122   1.862   3.594  13.426  1.0506 -0.8071  0.7404
 7877TIP3    H245123   1.981   3.685  13.449  1.6106 -0.6917 -2.2767
 7878TIP3   OH245124   0.448   1.252  15.296 -0.1988  0.3330  0.2666
 7878TIP3    H145125   0.373   1.201  15.266  0.3733  0.2198 -1.0654
 7878TIP3    H245126   0.524   1.195  15.281  0.1506  0.3493  1.8103
 7879TIP3   OH245127   6.371   5.936   0.978  0.0158  0.0379 -1.0727
 7879TIP3    H145128   6.317   5.933   1.057  0.3240 -1.3388 -0.8857
 7879TIP3    H245129   6.346   6.018   0.935  1.0518  1.6959  1.2784
 7880TIP3   OH245130   1.007   6.076   5.031  0.0306 -0.1991  0.1015
 7880TIP3    H145131   0.912   6.068   5.016  0.0781 -1.6380  0.4402
 7880TIP3    H245132   1.028   6.004   5.090  1.4359 -0.1870 -0.3600
 7881TIP3   OH245133   3.068   5.131   4.873 -0.6363  0.0511  0.1545
 7881TIP3    H145134   3.063   5.043   4.912 -1.1840 -0.1071 -0.2626
 7881TIP3    H245135   2.986   5.140   4.824  0.3816 -0.0740 -1.6579
 7882TIP3   OH245136   2.276   6.305   3.311  0.4075 -0.3061  0.3575
 7882TIP3    H145137   2.335   6.255   3.255 -1.1952 -0.1137 -1.5766
 7882TIP3    H245138   2.234   6.240   3.367 -0.0702 -0.8755 -0.6514
 7883TIP3   OH245139   0.283   1.960   0.236 -0.6845 -0.6817  0.1727
 7883TIP3    H145140   0.222   1.908   0.184  0.5546 -1.2223 -0.7867
 7883TIP3    H245141   0.234   2.040   0.257 -1.3926 -0.6306 -1.4761
 7884TIP3   OH245142   3.221   6.397   2.551  0.0755 -0.3642  0.3611
 7884TIP3    H145143   3.249   6.308   2.575  5.0477  1.0256  0.8368
 7884TIP3    H245144   3.184   6.388   2.463 -0.0682 -2.9380  0.6079
 7885TIP3   OH245145   3.822   0.406  17.024 -0.1387 -0.0057 -0.1100
 7885TIP3    H145146   3.877   0.415  17.102 -2.6080  1.3829  1.6120
 7885TIP3    H245147   3.856   0.473  16.964  0.8710 -0.0658  0.3763
 7886TIP3   OH245148   6.687   3.990   5.345 -0.0487  0.4571  0.0128
 7886TIP3    H145149   6.695   4.074   5.391  0.2336  0.1945  0.4533
 7886TIP3    H245150   6.602   3.955   5.372  0.5046 -0.1211  1.0756
 7887TIP3   OH245151   2.344   2.600   5.522 -0.2751 -0.2685  0.2352
 7887TIP3    H145152   2.351   2.505   5.514  3.3663 -0.0516 -0.9757
 7887TIP3    H245153   2.286   2.625   5.449 -1.6768 -1.5051  0.8582
 7888TIP3   OH245154   4.939   5.964   2.810  0.4448 -0.1034 -0.2992
 7888TIP3    H145155   4.993   6.002   2.878  0.2582  1.0082 -0.7445
 7888TIP3    H245156   4.889   6.038   2.775 -0.2396 -0.8365 -0.9193
 7889TIP3   OH245157   1.861   5.456   1.577 -0.1137 -0.3847  0.2412
 7889TIP3    H145158   1.787   5.507   1.610 -1.4263 -2.0010 -0.0544
 7889TIP3    H245159   1.837   5.434   1.487  1.4636  0.3766 -0.3927
 7890TIP3   OH245160   5.559   2.012  11.304 -0.2158 -0.3293 -0.1086
 7890TIP3    H145161   5.640   1.975  11.341 -0.1220 -0.4126 -0.3943
 7890TIP3    H245162   5.587   2.057  11.225 -0.1971  1.1401  0.7007
 7891TIP3   OH245163   6.349   1.775   3.391 -0.1701  0.3593  0.2355
 7891TIP3    H145164   6.403   1.791   3.313 -0.5111 -1.4809 -0.4304
 7891TIP3    H245165   6.289   1.849   3.394 -0.7507  0.0436 -1.7985
 7892TIP3   OH245166   4.940   1.540  16.499  0.1793 -0.0058 -0.0339
 7892TIP3    H145167   4.855   1.495  16.497 -0.2438  0.7697  0.2109
 7892TIP3    H245168   4.918   1.633  16.494  1.1284  0.1659 -2.9178
 7893TIP3   OH245169   2.277   4.881  16.598  0.3513  0.0289 -0.1336
 7893TIP3    H145170   2.286   4.793  16.563 -0.2332 -0.5535  1.1148
 7893TIP3    H245171   2.337   4.884  16.672 -1.0515  0.0046  1.0314
 7894TIP3   OH245172   5.908   2.037  11.924  0.1419 -0.7828  0.0046
 7894TIP3    H145173   5.947   2.080  11.847  0.8812  1.2681  1.4465
 7894TIP3    H245174   5.825   2.002  11.891 -0.1353  1.0795 -1.4966
 7895TIP3   OH245175   0.359   6.530  14.367 -0.2151  0.2561 -0.0110
 7895TIP3    H145176   0.302   6.456  14.345 -1.5002  1.5535 -1.2012
 7895TIP3    H245177   0.448   6.496  14.353 -0.6296 -1.6738  1.4778
 7896TIP3   OH245178   0.750   1.184  16.640 -0.3927  0.1552 -0.1649
 7896TIP3    H145179   0.749   1.259  16.699 -1.8788  1.0928 -1.2862
 7896TIP3    H245180   0.683   1.126  16.674 -2.4784  1.4717 -1.7407
 7897TIP3   OH245181   5.660   4.770   2.335 -0.1679 -0.1790 -0.1244
 7897TIP3    H145182   5.620   4.806   2.415  0.1769  0.0309 -0.0446
 7897TIP3    H245183   5.601   4.699   2.309 -0.8438  0.4338 -0.2731
 7898TIP3   OH245184   5.420   2.316   0.394  0.5706 -0.1693 -0.3682
 7898TIP3    H145185   5.490   2.375   0.423 -1.3791  1.7065  0.8070
 7898TIP3    H245186   5.420   2.245   0.459  0.6378  0.4347  0.2990
 7899TIP3   OH245187   5.811   2.294  17.205  0.4076 -0.4897 -0.1965
 7899TIP3    H145188   5.902   2.269  17.188 -0.0155 -0.6860 -2.3826
 7899TIP3    H245189   5.765   2.211  17.215  0.1438 -0.4347 -0.9515
 7900TIP3   OH245190   5.759   0.791   1.744 -0.6291 -0.1354  0.4543
 7900TIP3    H145191   5.738   0.805   1.652 -0.1107 -0.9962  0.1901
 7900TIP3    H245192   5.802   0.705   1.746  1.3413  0.8009  1.1929
 7901TIP3   OH245193   4.155   4.742   1.211 -0.4883  0.2388 -0.3294
 7901TIP3    H145194   4.223   4.677   1.190  0.7689  1.1555  0.7215
 7901TIP3    H245195   4.159   4.750   1.306  0.0700  2.5237 -0.4790
 7902TIP3   OH245196   5.181   1.016   3.654 -0.4514 -0.1955 -0.4455
 7902TIP3    H145197   5.276   1.024   3.646 -0.1995 -0.5132  1.6761
 7902TIP3    H245198   5.168   0.940   3.711 -1.9209  0.4902  0.1890
 7903TIP3   OH245199   4.139   0.598  16.412 -0.1528 -0.0557 -0.7277
 7903TIP3    H145200   4.147   0.518  16.358  1.8140 -0.2869 -0.1927
 7903TIP3    H245201   4.100   0.662  16.353 -0.7990 -1.1205 -1.5057
 7904TIP3   OH245202   3.575   5.263   4.596 -0.3326 -0.3514  0.5150
 7904TIP3    H145203   3.629   5.187   4.574  0.5432  0.2239  0.6337
 7904TIP3    H245204   3.637   5.336   4.600 -1.4748  0.8378 -1.9155
 7905TIP3   OH245205   3.230   6.017   5.651  0.2224  0.3985 -0.3640
 7905TIP3    H145206   3.298   5.951   5.636  0.3233  0.3482  0.2920
 7905TIP3    H245207   3.232   6.033   5.745 -0.6744  0.4003 -0.3315
 7906TIP3   OH245208   3.547   1.138  14.966 -0.6113 -0.3424 -0.1243
 7906TIP3    H145209   3.490   1.062  14.951 -0.1435 -0.6075 -0.6126
 7906TIP3    H245210   3.489   1.214  14.959 -0.6913 -0.5308 -1.8989
 7907TIP3   OH245211   1.559   6.537  15.016  0.3689  0.2363 -0.0882
 7907TIP3    H145212   1.559   6.535  15.112  0.6771  2.0347 -0.0029
 7907TIP3    H245213   1.473   6.573  14.994  1.2845  2.4568 -0.3127
 7908TIP3   OH245214   3.520   6.665  15.260 -0.2161 -0.1000  0.2135
 7908TIP3    H145215   3.560   6.747  15.230  0.3572  0.6323  2.7372
 7908TIP3    H245216   3.426   6.679  15.251 -0.0916 -0.0534 -1.3921
 7909TIP3   OH245217   3.895   6.741   0.838 -0.4914 -0.0101  0.3148
 7909TIP3    H145218   3.979   6.695   0.831  0.9414  2.5758 -0.8937
 7909TIP3    H245219   3.843   6.705   0.766  0.1294 -0.6196  0.1555
 7910TIP3   OH245220   2.823   4.751  16.709 -0.5797 -0.2546  0.3738
 7910TIP3    H145221   2.883   4.813  16.667 -1.2503 -0.2531 -0.6163
 7910TIP3    H245222   2.846   4.755  16.802 -0.8778  1.7877  0.3895
 7911TIP3   OH245223   6.107   5.237  13.964  0.2042  0.2142  0.3542
 7911TIP3    H145224   6.096   5.189  13.883  1.2055  1.1882 -0.3919
 7911TIP3    H245225   6.184   5.292  13.950  2.4040 -1.8696  3.0491
 7912TIP3   OH245226   5.289   4.288   3.203 -0.5103 -0.2083  0.2541
 7912TIP3    H145227   5.353   4.225   3.237  0.9149  0.9871 -0.1375
 7912TIP3    H245228   5.272   4.347   3.277  1.2937  1.3656 -0.5120
 7913TIP3   OH245229   1.722   2.499  14.684 -0.2832  0.3648  0.1968
 7913TIP3    H145230   1.683   2.542  14.759 -0.1335 -0.9277  1.0421
 7913TIP3    H245231   1.815   2.494  14.705 -0.3101 -0.4368  0.1541
 7914TIP3   OH245232   4.980   5.164  10.392 -0.0841 -0.5561  0.2983
 7914TIP3    H145233   4.961   5.244  10.343  3.1919 -0.4491 -1.0752
 7914TIP3    H245234   5.001   5.195  10.480  1.2775  0.2012 -0.2540
 7915TIP3   OH245235   2.329   5.831  15.920 -0.8976  0.3248  1.3627
 7915TIP3    H145236   2.366   5.751  15.958 -0.0792  0.0801  0.0969
 7915TIP3    H245237   2.296   5.880  15.996 -2.1895 -1.5624  2.1200
 7916TIP3   OH245238   5.059   2.722  15.049 -0.1554  0.0764 -0.3276
 7916TIP3    H145239   5.073   2.805  15.094 -0.2414 -0.5011  0.7750
 7916TIP3    H245240   5.060   2.656  15.118  1.8136 -1.0720 -1.3562
 7917TIP3   OH245241   3.428   4.535   2.859 -0.0892  0.2099  0.1115
 7917TIP3    H145242   3.440   4.602   2.926  2.4131  1.9721 -1.9101
 7917TIP3    H245243   3.482   4.564   2.786 -0.5793 -2.9746 -1.6972
 7918TIP3   OH245244   3.344   6.251  12.847 -0.0613 -0.4378  0.0632
 7918TIP3    H145245   3.293   6.179  12.883  0.3059 -0.3229  0.8361
 7918TIP3    H245246   3.310   6.329  12.890  1.2742 -0.4432  1.2092
 7919TIP3   OH245247   2.377   5.850   4.067  0.2543 -0.1895 -0.2865
 7919TIP3    H145248   2.294   5.819   4.032 -0.1761 -0.9114  1.2917
 7919TIP3    H245249   2.360   5.939   4.097  0.0543 -0.3293  0.0150
 7920TIP3   OH245250   3.727   2.355  14.267 -0.0261 -0.5444  0.2227
 7920TIP3    H145251   3.736   2.415  14.193  1.1187  0.8876  1.4813
 7920TIP3    H245252   3.753   2.270  14.231 -0.8131 -0.1511 -1.3604
 7921TIP3   OH245253   0.550   3.542  13.789  0.2735 -0.1346 -0.3802
 7921TIP3    H145254   0.463   3.511  13.766  0.4211 -1.0474  0.2305
 7921TIP3    H245255   0.554   3.631  13.754 -1.2901  0.3257  0.5160
 7922TIP3   OH245256   5.612   4.933  14.400 -0.0487  0.1868 -0.4841
 7922TIP3    H145257   5.590   5.006  14.457  1.6016  1.1166 -0.9694
 7922TIP3    H245258   5.695   4.900  14.434 -0.5219 -1.1556 -0.5777
 7923TIP3   OH245259   3.677   3.362   0.291 -0.1435 -0.3961 -0.2486
 7923TIP3    H145260   3.742   3.431   0.278  1.0562 -1.2006  1.1747
 7923TIP3    H245261   3.674   3.316   0.207  1.5643 -0.6767 -0.1956
 7924TIP3   OH245262   3.559   2.758  13.215  0.3034 -0.3501 -0.1368
 7924TIP3    H145263   3.632   2.696  13.217 -0.5477 -1.3629  1.6134
 7924TIP3    H245264   3.601   2.844  13.224  1.2655 -0.9966  2.7304
 7925TIP3   OH245265   1.285   0.381  14.685  0.7480 -0.0285 -0.5475
 7925TIP3    H145266   1.279   0.311  14.620 -2.3936  0.6766 -1.1660
 7925TIP3    H245267   1.230   0.351  14.757 -0.9178  1.8727 -0.9478
 7926TIP3   OH245268   4.232   2.361   5.227  0.0876 -0.2767 -0.7907
 7926TIP3    H145269   4.185   2.287   5.188 -0.4805 -0.7966  0.8130
 7926TIP3    H245270   4.178   2.387   5.302 -0.0575  2.2015 -1.6711
 7927TIP3   OH245271   1.733   4.479   6.383 -0.2122 -0.2228 -0.8463
 7927TIP3    H145272   1.828   4.486   6.383  0.0020 -1.9229  1.3499
 7927TIP3    H245273   1.703   4.556   6.431 -0.0132  0.6462 -2.0892
 7928TIP3   OH245274   4.778   0.307   0.906 -0.5865  0.4959  0.1325
 7928TIP3    H145275   4.793   0.316   1.000  0.0652 -0.9342  0.1923
 7928TIP3    H245276   4.752   0.216   0.894  0.0480  0.4585 -1.1685
 7929TIP3   OH245277   0.899   1.030   0.760  0.5136 -0.4816  0.4500
 7929TIP3    H145278   0.862   1.104   0.713 -1.0818 -0.3063  1.8648
 7929TIP3    H245279   0.837   0.958   0.744 -0.0331 -0.4359  2.1047
 7930TIP3   OH245280   6.416   1.696  11.250  0.3764  0.2368 -0.0992
 7930TIP3    H145281   6.479   1.649  11.195  1.6931  1.4066  0.3660
 7930TIP3    H245282   6.339   1.639  11.251  0.9509 -0.6399 -1.7091
 7931TIP3   OH245283   5.090   3.057  11.465  0.7453  0.2178 -0.6445
 7931TIP3    H145284   5.037   3.012  11.398  0.7376 -1.2355  0.2825
 7931TIP3    H245285   5.152   2.990  11.494  0.8065  0.8517  0.7363
 7932TIP3   OH245286   2.336   2.859  14.911  1.0965  0.1768 -0.3858
 7932TIP3    H145287   2.281   2.781  14.913 -1.0782  1.6498  0.6793
 7932TIP3    H245288   2.294   2.916  14.846  1.1523  1.4611  0.6666
 7933TIP3   OH245289   1.426   3.427   3.595 -0.3626  0.0305  0.4490
 7933TIP3    H145290   1.411   3.520   3.611 -1.6660 -0.1092  0.1216
 7933TIP3    H245291   1.520   3.415   3.610 -0.4017  1.1318  1.7851
 7934TIP3   OH245292   5.009   2.101   2.800  0.0754 -0.2483 -0.6359
 7934TIP3    H145293   5.077   2.167   2.789  0.4180 -0.2900  0.9741
 7934TIP3    H245294   4.948   2.117   2.728  1.4796  0.1496 -1.7779
 7935TIP3   OH245295   4.514   4.298   6.647  0.0317  0.2564  0.3877
 7935TIP3    H145296   4.608   4.306   6.665  0.8015 -3.3727 -1.0735
 7935TIP3    H245297   4.504   4.332   6.558 -0.0637  0.7555  0.5887
 7936TIP3   OH245298   2.959   2.184   6.451 -0.2155 -0.0967 -0.4200
 7936TIP3    H145299   2.926   2.199   6.540 -0.2943 -0.4710 -0.3829
 7936TIP3    H245300   3.052   2.168   6.462  0.2336  2.0538 -0.6344
 7937TIP3   OH245301   2.600   0.916   5.225 -0.0757 -0.0133  0.3202
 7937TIP3    H145302   2.685   0.876   5.211 -0.2040 -0.3131  0.4043
 7937TIP3    H245303   2.563   0.870   5.300 -1.3503 -1.5650 -1.1830
 7938TIP3   OH245304   0.931   5.648   2.398  0.3249  0.2197 -0.0542
 7938TIP3    H145305   0.952   5.683   2.312 -1.2687 -0.0089 -0.5532
 7938TIP3    H245306   0.842   5.678   2.416 -0.6080 -2.4331  0.0859
 7939TIP3   OH245307   1.914   1.917   2.063  0.2989  0.2559 -0.1259
 7939TIP3    H145308   1.852   1.845   2.072 -0.8207  1.0500 -1.1357
 7939TIP3    H245309   1.973   1.908   2.138 -2.2136  0.6252  2.0360
 7940TIP3   OH245310   1.038   1.224  17.223 -0.0583  0.0901 -0.5689
 7940TIP3    H145311   0.970   1.262  17.278 -0.3036 -0.4136 -0.5136
 7940TIP3    H245312   1.110   1.287  17.226  0.6253 -0.6869  1.7305
 7941TIP3   OH245313   1.936   6.298  15.053  0.0182  0.1841  0.3184
 7941TIP3    H145314   2.008   6.253  15.008 -1.5107  0.7402 -2.9768
 7941TIP3    H245315   1.945   6.390  15.028 -0.0750  0.8169  2.4506
 7942TIP3   OH245316   2.101   6.738   0.631 -0.1470  0.4900  0.4705
 7942TIP3    H145317   2.158   6.810   0.657 -1.8405  1.8257  0.6666
 7942TIP3    H245318   2.026   6.745   0.690  0.2481 -2.3389  1.4483
 7943TIP3   OH245319   6.141   2.537  15.596 -0.4380  0.6664  0.4753
 7943TIP3    H145320   6.132   2.614  15.653 -1.9042  0.4380  0.5911
 7943TIP3    H245321   6.097   2.562  15.515 -0.9693 -0.0551  0.5325
 7944TIP3   OH245322   4.143   6.339  17.199 -0.1604  0.3235 -0.1730
 7944TIP3    H145323   4.047   6.343  17.200 -0.1183  1.4437 -0.2993
 7944TIP3    H245324   4.166   6.338  17.106  0.0270  2.3629 -0.1772
 7945TIP3   OH245325   3.800   0.878   5.526 -0.1347 -0.3401 -0.7149
 7945TIP3    H145326   3.892   0.900   5.513 -0.0615  0.8430  1.3513
 7945TIP3    H245327   3.772   0.838   5.444  1.9675  0.1302 -1.7031
 7946TIP3   OH245328   6.395   1.232  14.972 -0.0605 -0.1846 -0.1371
 7946TIP3    H145329   6.311   1.185  14.972 -0.6733  0.8216 -1.6499
 7946TIP3    H245330   6.385   1.298  14.903  2.7815 -1.4994 -2.0222
 7947TIP3   OH245331   0.075   4.342   5.124  0.0134  0.4027  0.2039
 7947TIP3    H145332   0.069   4.248   5.108  1.1676  0.4372 -0.5489
 7947TIP3    H245333   0.136   4.350   5.197 -0.3143  0.5612  0.4633
 7948TIP3   OH245334   6.421   3.277  11.298  0.0328 -0.2181  0.0994
 7948TIP3    H145335   6.462   3.205  11.250  0.0099 -0.5226  0.5281
 7948TIP3    H245336   6.470   3.355  11.271  1.6846 -0.7212  1.4588
 7949TIP3   OH245337   6.252   4.594   4.564  0.2417  0.3722 -0.0804
 7949TIP3    H145338   6.279   4.539   4.637  2.4986 -0.2721 -1.3124
 7949TIP3    H245339   6.300   4.676   4.577  1.3419 -0.0481 -1.2187
 7950TIP3   OH245340   3.135   2.642   1.630 -0.2435 -0.7072  0.2060
 7950TIP3    H145341   3.197   2.579   1.593 -1.2338 -1.1077 -0.8345
 7950TIP3    H245342   3.141   2.630   1.725  0.3121 -1.6637  0.0550
 7951TIP3   OH245343   2.840   6.191   1.045 -0.0858  0.2648  0.0865
 7951TIP3    H145344   2.775   6.129   1.011  0.2203 -0.8532  1.4366
 7951TIP3    H245345   2.800   6.227   1.124  0.7039 -0.0487  0.6458
 7952TIP3   OH245346   1.270   3.969   2.048  0.4728 -0.0649 -0.1965
 7952TIP3    H145347   1.266   3.892   2.105  1.4080  0.2661  0.3414
 7952TIP3    H245348   1.182   3.976   2.012  0.1873 -0.9899  0.2756
 7953TIP3   OH245349   1.562   3.417  13.659  0.0637 -0.2930 -0.1486
 7953TIP3    H145350   1.561   3.390  13.568 -1.9286  2.7136 -1.1931
 7953TIP3    H245351   1.544   3.337  13.709  0.0511 -1.8068 -2.4444
 7954TIP3   OH245352   3.409   1.872  13.666 -0.1787  0.7245  0.2816
 7954TIP3    H145353   3.457   1.826  13.597  0.8471  1.6772  0.3386
 7954TIP3    H245354   3.474   1.930  13.706 -1.3809  2.0690  0.3523
 7955TIP3   OH245355   5.531   3.593   3.490  0.6950 -0.3628 -0.2039
 7955TIP3    H145356   5.479   3.526   3.446  0.9694  0.0623 -1.1954
 7955TIP3    H245357   5.622   3.563   3.481  0.6435 -1.3668  1.9634
 7956TIP3   OH245358   3.752   2.623   5.715 -0.0569  0.0188  0.6446
 7956TIP3    H145359   3.668   2.595   5.752 -0.0405  0.3523  0.9396
 7956TIP3    H245360   3.796   2.668   5.787  0.9902 -1.3836  0.9156
 7957TIP3   OH245361   1.273   4.555   2.629  0.0527  0.3610 -0.5164
 7957TIP3    H145362   1.280   4.606   2.548  0.5067  1.9746  0.4848
 7957TIP3    H245363   1.217   4.609   2.686 -1.1294 -1.2420 -0.1013
 7958TIP3   OH245364   2.934   0.136  14.954  0.6102  0.4784 -0.2449
 7958TIP3    H145365   2.983   0.208  14.993  0.0071  0.2325  1.0351
 7958TIP3    H245366   2.857   0.177  14.916  0.5236  0.5739  0.0320
 7959TIP3   OH245367   4.460   2.886   6.765  0.2247 -0.3096  0.3821
 7959TIP3    H145368   4.543   2.841   6.783  0.6001 -0.7560 -2.0498
 7959TIP3    H245369   4.459   2.960   6.825  2.5776 -0.0955  0.2546
 7960TIP3   OH245370   1.347   5.380   2.208  0.7318 -0.0269  0.1524
 7960TIP3    H145371   1.442   5.382   2.198  0.6275  1.5478 -0.9083
 7960TIP3    H245372   1.320   5.296   2.173  1.5792  0.2801 -1.2965
 7961TIP3   OH245373   4.684   6.138   5.657 -0.5787  0.0960  0.7464
 7961TIP3    H145374   4.597   6.101   5.672 -0.7800  0.6130  0.9016
 7961TIP3    H245375   4.670   6.205   5.590 -0.4457  0.6932  1.2957
 7962TIP3   OH245376   1.439   4.670   1.713 -0.0717  0.0919 -0.1614
 7962TIP3    H145377   1.433   4.687   1.619  3.0888 -0.0102 -0.4624
 7962TIP3    H245378   1.420   4.577   1.722  1.6791 -0.3854 -1.0294
 7963TIP3   OH245379   1.309   5.567  11.280 -0.0402  0.2052  0.3575
 7963TIP3    H145380   1.250   5.525  11.217 -0.2976 -1.0160  1.3938
 7963TIP3    H245381   1.255   5.579  11.359 -0.3328  3.5171 -0.1904
 7964TIP3   OH245382   3.115   0.006   1.993 -0.0182 -1.4277  0.3064
 7964TIP3    H145383   3.164   0.025   1.913  2.3936 -0.7346  1.8202
 7964TIP3    H245384   3.055   0.080   2.003 -0.5489 -1.6698 -0.9956
 7965TIP3   OH245385   4.058   3.954  13.189 -0.5284  0.2278  0.1470
 7965TIP3    H145386   4.111   3.936  13.112 -0.7164  0.1342  0.0386
 7965TIP3    H245387   4.112   4.013  13.242  0.5849 -1.5051  1.0475
 7966TIP3   OH245388   1.752   6.280   2.052 -0.3222 -0.2621 -0.4022
 7966TIP3    H145389   1.748   6.257   1.959 -2.1628  0.7852 -0.6346
 7966TIP3    H245390   1.708   6.208   2.096 -1.0019  0.0491 -0.5496
 7967TIP3   OH245391   3.275   2.444  12.608 -0.3316  0.1860 -0.2337
 7967TIP3    H145392   3.279   2.447  12.703  1.0714  1.2412 -0.2983
 7967TIP3    H245393   3.236   2.528  12.583  1.2015  0.8210 -0.6299
 7968TIP3   OH245394   1.836   0.525   2.446  0.1717  0.6498 -0.3326
 7968TIP3    H145395   1.898   0.480   2.503  0.7392  3.3033  1.3350
 7968TIP3    H245396   1.766   0.554   2.504  0.1183  2.3441 -1.1759
 7969TIP3   OH245397   3.926   4.149   3.236 -0.0124 -0.8105 -0.5257
 7969TIP3    H145398   3.885   4.090   3.299 -0.7385 -1.1065 -1.2379
 7969TIP3    H245399   3.963   4.220   3.288 -0.7801 -0.9388  0.2109
 7970TIP3   OH245400   3.310   0.661   2.688  0.0853 -0.2766  0.5872
 7970TIP3    H145401   3.216   0.652   2.705  0.1244 -1.5330  0.2372
 7970TIP3    H245402   3.342   0.715   2.760 -0.6257 -1.1731  1.6042
 7971TIP3   OH245403   1.287   5.664  16.988 -0.2182 -0.5157 -0.3412
 7971TIP3    H145404   1.329   5.701  17.066 -0.8154 -0.4330 -0.0462
 7971TIP3    H245405   1.209   5.718  16.976 -0.0405 -0.4298 -1.0988
 7972TIP3   OH245406   3.980   5.637   2.373  0.0141 -0.1922  0.0012
 7972TIP3    H145407   3.997   5.586   2.452 -0.9330 -0.9442 -0.2715
 7972TIP3    H245408   3.891   5.615   2.348  0.7926 -1.2084 -2.1775
 7973TIP3   OH245409   1.458   1.943   3.520 -0.1524 -0.2807  0.4619
 7973TIP3    H145410   1.436   1.963   3.611  0.3295  0.9456  0.3364
 7973TIP3    H245411   1.373   1.940   3.475 -0.3584 -0.3710  0.8494
 7974TIP3   OH245412   3.319   4.104   5.291 -0.0541  0.5574  0.1217
 7974TIP3    H145413   3.256   4.037   5.264 -0.5218  1.6966 -1.7784
 7974TIP3    H245414   3.272   4.156   5.357  0.1962 -0.7206  1.3538
 7975TIP3   OH245415   0.703   1.844  13.390  0.8246 -0.5290  0.2775
 7975TIP3    H145416   0.785   1.851  13.341  1.1553  3.8880  1.0562
 7975TIP3    H245417   0.724   1.789  13.465  1.9110 -2.5609 -1.3996
 7976TIP3   OH245418   1.185   5.488  12.193 -0.1644 -0.0440 -0.0227
 7976TIP3    H145419   1.264   5.502  12.140 -0.2717 -0.3406 -0.2627
 7976TIP3    H245420   1.163   5.396  12.179  0.3197 -0.3659  1.2442
 7977TIP3   OH245421   3.454   4.938  15.254 -0.3529 -0.5139  0.3839
 7977TIP3    H145422   3.421   4.946  15.165  0.8236  1.2901  0.0525
 7977TIP3    H245423   3.510   4.860  15.252  0.7557  0.2649 -0.8645
 7978TIP3   OH245424   1.170   3.790   5.706 -0.3439  0.1595 -0.0137
 7978TIP3    H145425   1.231   3.744   5.648 -1.9573 -0.6270 -1.1797
 7978TIP3    H245426   1.223   3.856   5.749  1.2076 -0.1012 -1.4215
 7979TIP3   OH245427   1.755   4.802  14.791  0.0189  0.5494 -0.7886
 7979TIP3    H145428   1.774   4.853  14.712  0.1818  1.5568 -0.1226
 7979TIP3    H245429   1.841   4.779  14.827 -0.0542 -0.1094 -1.0259
 7980TIP3   OH245430   2.504   1.286   6.321  0.0963 -0.2790  0.3535
 7980TIP3    H145431   2.411   1.292   6.339  0.2791 -0.7777  1.5911
 7980TIP3    H245432   2.543   1.263   6.406  1.4226  0.7207  0.0463
 7981TIP3   OH245433   0.195   6.212  14.030  0.0032  0.3546  0.2979
 7981TIP3    H145434   0.231   6.299  14.010  0.7005  0.3588  1.4634
 7981TIP3    H245435   0.178   6.173  13.944  1.7905  0.7861 -0.2981
 7982TIP3   OH245436   3.993   0.505  17.259 -0.2552  0.3025 -0.0062
 7982TIP3    H145437   3.937   0.445  17.307  0.6535 -1.2829 -0.8617
 7982TIP3    H245438   4.011   0.576  17.321 -2.1717  0.2455  0.6787
 7983TIP3   OH245439   2.817   6.439  16.242  0.0942 -0.2688 -0.0726
 7983TIP3    H145440   2.844   6.436  16.334 -0.8258 -0.5482  0.1963
 7983TIP3    H245441   2.851   6.523  16.210  0.8681 -0.4005  0.3733
 7984TIP3   OH245442   6.223   2.764   3.712 -0.0388 -0.1319 -0.2132
 7984TIP3    H145443   6.228   2.819   3.790  0.1152 -2.1165  1.2588
 7984TIP3    H245444   6.131   2.768   3.686  0.0872  1.2720 -0.5172
 7985TIP3   OH245445   4.356   6.765   6.031  0.5658  0.4377 -0.2646
 7985TIP3    H145446   4.434   6.811   6.001  1.0399  0.5450  1.0419
 7985TIP3    H245447   4.384   6.674   6.043  0.7289  0.6216  0.9267
 7986TIP3   OH245448   3.450   1.562   3.156  0.4953  0.0183 -0.4445
 7986TIP3    H145449   3.482   1.473   3.144 -0.6947 -0.6093  0.7782
 7986TIP3    H245450   3.529   1.614   3.171  1.0862 -1.3081  1.4758
 7987TIP3   OH245451   3.049   3.661  15.764 -0.0287 -0.8429  0.1979
 7987TIP3    H145452   3.007   3.590  15.714 -1.1909 -0.8374  1.1315
 7987TIP3    H245453   3.062   3.624  15.851  0.9646 -0.4783  0.2165
 7988TIP3   OH245454   6.005   0.561  11.877  0.1180 -0.0805  0.2283
 7988TIP3    H145455   5.922   0.596  11.844 -0.8610 -1.7866  0.7313
 7988TIP3    H245456   6.015   0.477  11.832  1.2768 -0.1583  0.6125
 7989TIP3   OH245457   4.403   2.361  16.593 -0.0993  0.3776 -0.4351
 7989TIP3    H145458   4.309   2.348  16.582  0.0801 -0.4628 -1.1615
 7989TIP3    H245459   4.437   2.365  16.504  0.9479 -2.6568 -0.2864
 7990TIP3   OH245460   4.476   6.676   2.557 -0.2316  0.1553 -0.0586
 7990TIP3    H145461   4.471   6.591   2.601 -4.0441 -0.1885 -0.7344
 7990TIP3    H245462   4.451   6.739   2.624 -1.2090  0.2275 -0.4720
 7991TIP3   OH245463   6.503   2.024  12.381  0.1771 -0.1880  0.4448
 7991TIP3    H145464   6.443   2.062  12.316  0.9763  0.9551  0.3539
 7991TIP3    H245465   6.498   2.083  12.456  0.3346 -0.7296  0.8950
 7992TIP3   OH245466   5.069   1.813  11.800 -0.0622 -0.9660 -0.4533
 7992TIP3    H145467   5.135   1.872  11.763  0.7870 -0.6540  1.4669
 7992TIP3    H245468   5.049   1.752  11.729 -0.0679  0.8608 -2.1061
 7993TIP3   OH245469   4.983   6.697   4.426  0.2636  0.1450  0.7333
 7993TIP3    H145470   4.947   6.610   4.410 -0.2904  0.1400  1.8729
 7993TIP3    H245471   5.073   6.692   4.396 -0.2342 -0.3113 -0.7472
 7994TIP3   OH245472   0.646   1.069   2.215 -0.0047  0.0992  0.1870
 7994TIP3    H145473   0.692   0.996   2.174 -1.5736 -1.4226  0.9955
 7994TIP3    H245474   0.559   1.034   2.236 -0.9436  2.3089  0.3043
 7995TIP3   OH245475   6.267   5.727   5.267  0.3804  0.2271  0.5357
 7995TIP3    H145476   6.335   5.768   5.213  2.1011 -3.2968 -0.2593
 7995TIP3    H245477   6.311   5.705   5.349 -0.9042  1.1852  1.5300
 7996TIP3   OH245478   5.734   6.746  16.597 -0.1968  0.2913  0.0670
 7996TIP3    H145479   5.803   6.684  16.571  0.3534  0.8221  0.2372
 7996TIP3    H245480   5.757   6.771  16.687 -1.5450 -0.7915  0.7416
 7997TIP3   OH245481   0.264   0.640  12.607  0.2279  0.4949 -0.3051
 7997TIP3    H145482   0.341   0.679  12.565  0.1146 -0.5183 -1.4969
 7997TIP3    H245483   0.294   0.555  12.638  0.0585  0.8539  0.8896
 7998TIP3   OH245484   1.172   3.752  17.337  0.0505  0.2690 -0.0435
 7998TIP3    H145485   1.205   3.695  17.406 -0.2886  0.5852  0.3881
 7998TIP3    H245486   1.212   3.719  17.257  1.1607  0.4521  0.4141
 7999TIP3   OH245487   6.221   3.916   4.380 -0.1815 -0.0589  0.2329
 7999TIP3    H145488   6.271   3.872   4.448  1.2898  0.7110 -0.3261
 7999TIP3    H245489   6.195   3.846   4.320 -1.3462 -0.7167  1.4505
 8000TIP3   OH245490   4.866   4.409   4.875 -0.1901 -0.3326 -0.1148
 8000TIP3    H145491   4.780   4.413   4.833  0.5356 -0.1431 -1.6561
 8000TIP3    H245492   4.880   4.497   4.910  0.4075  0.4177 -2.0975
 8001TIP3   OH245493   6.601   0.841   3.781  0.4061  0.4485  0.0638
 8001TIP3    H145494   6.682   0.853   3.732  0.4723  1.2534  0.3510
 8001TIP3    H245495   6.609   0.902   3.854  0.1979 -0.5361  0.9373
 8002TIP3   OH245496   3.832   1.238   1.070  0.7250  0.2502  0.1690
 8002TIP3    H145497   3.916   1.232   1.026  0.0021 -0.5375 -1.1474
 8002TIP3    H245498   3.770   1.265   1.002 -0.5663 -1.7504  0.4553
 8003TIP3   OH245499   3.650   3.625  16.250  0.2588 -0.2998  0.3558
 8003TIP3    H145500   3.606   3.702  16.286 -1.2787 -0.4749 -0.9919
 8003TIP3    H245501   3.733   3.658  16.217  0.0269  0.5934  0.6224
 8004TIP3   OH245502   1.961   6.513   2.521 -0.2135 -0.0456 -0.4930
 8004TIP3    H145503   1.977   6.450   2.450  0.1336 -1.9749  1.2251
 8004TIP3    H245504   2.045   6.559   2.531  0.8016 -2.0567  0.7831
 8005TIP3   OH245505   0.087   1.312  13.622  0.0676  0.3575 -0.1960
 8005TIP3    H145506   0.120   1.260  13.548 -0.3210 -0.8706  0.4675
 8005TIP3    H245507   0.022   1.255  13.663  0.4799  0.9168  1.2668
 8006TIP3   OH245508   5.533   4.599  15.525 -0.0785  0.3580 -0.1867
 8006TIP3    H145509   5.567   4.598  15.615  0.3785  1.1642 -0.3395
 8006TIP3    H245510   5.568   4.680  15.487 -1.9712  1.0911 -0.4496
 8007TIP3   OH245511   6.213   0.909  14.364  0.4306 -0.4031 -0.1094
 8007TIP3    H145512   6.137   0.939  14.414  1.2637  1.3065  0.2031
 8007TIP3    H245513   6.177   0.852  14.296 -1.1494  0.5259 -0.0848
 8008TIP3   OH245514   5.893   4.507  11.533 -0.2660  0.2235 -0.4734
 8008TIP3    H145515   5.927   4.596  11.523 -0.3518  0.3423  0.2336
 8008TIP3    H245516   5.878   4.477  11.443 -1.5936  1.4477 -0.7053
 8009TIP3   OH245517   3.020   3.499  11.642 -0.3307  0.4342 -0.2444
 8009TIP3    H145518   3.083   3.431  11.616 -0.8831 -0.0433 -0.3481
 8009TIP3    H245519   2.935   3.456  11.637 -0.6835  1.1227 -0.2500
 8010TIP3   OH245520   5.283   4.104  12.437  0.4539 -0.2884  0.1439
 8010TIP3    H145521   5.328   4.022  12.419  1.4134  0.1581  0.4606
 8010TIP3    H245522   5.343   4.172  12.406 -1.3488  0.2790 -2.3995
 8011TIP3   OH245523   5.336   0.228  12.359  0.2373  0.0426 -0.6746
 8011TIP3    H145524   5.253   0.272  12.379  0.3432  0.2422 -0.6667
 8011TIP3    H245525   5.401   0.298  12.360  0.3893 -0.0958 -0.7955
 8012TIP3   OH245526   4.470   5.767  11.521  0.8524 -0.8583  0.0345
 8012TIP3    H145527   4.554   5.723  11.531  1.4140  0.1771  0.0156
 8012TIP3    H245528   4.466   5.828  11.595  0.6532 -0.0793 -0.5992
 8013TIP3   OH245529   3.801   5.095  11.117 -0.0450 -0.1217  0.1561
 8013TIP3    H145530   3.884   5.127  11.082 -1.6177  0.9115 -3.0319
 8013TIP3    H245531   3.789   5.143  11.199  1.6053  1.1220 -0.2806
 8014TIP3   OH245532   5.337   4.031  16.499  0.4634 -0.1498  0.0726
 8014TIP3    H145533   5.370   3.991  16.579 -0.5400 -1.5104 -0.1733
 8014TIP3    H245534   5.249   3.996  16.489  0.0718  1.0600 -0.9109
 8015TIP3   OH245535   3.301   1.230   0.903  0.0984  0.5858  0.2130
 8015TIP3    H145536   3.284   1.275   0.986 -0.8168  0.6668 -0.0060
 8015TIP3    H245537   3.233   1.262   0.844 -0.0813 -0.4706 -0.1799
 8016TIP3   OH245538   1.614   5.313  11.669  0.0734  0.2487  0.0525
 8016TIP3    H145539   1.525   5.322  11.635  0.9233  1.9465 -2.0119
 8016TIP3    H245540   1.644   5.228  11.636 -0.0882  0.6196 -1.0950
 8017TIP3   OH245541   1.300   1.976  11.438  0.4171  0.3109 -0.0595
 8017TIP3    H145542   1.275   1.884  11.423 -0.4043  0.4989  0.0838
 8017TIP3    H245543   1.217   2.020  11.457  0.7420  1.1815 -0.6034
 8018TIP3   OH245544   3.869   3.319   1.740  0.2044  0.0244  0.0042
 8018TIP3    H145545   3.773   3.319   1.738  0.0692 -3.3143  0.9814
 8018TIP3    H245546   3.892   3.321   1.833  1.1232  1.1315 -0.2256
 8019TIP3   OH245547   5.885   1.143   4.783  0.0627 -0.6914  0.5617
 8019TIP3    H145548   5.941   1.068   4.806 -1.1633 -0.7018  4.2210
 8019TIP3    H245549   5.797   1.106   4.776 -0.0146 -0.1757 -1.9914
 8020TIP3   OH245550   3.387   5.087   5.741 -0.1783 -0.5046  1.0506
 8020TIP3    H145551   3.427   5.030   5.676  1.5729  1.0431  0.6829
 8020TIP3    H245552   3.454   5.099   5.808 -0.4182  1.2122  1.0345
 8021TIP3   OH245553   5.502   3.977  16.166 -0.1963 -0.3184  0.3686
 8021TIP3    H145554   5.419   4.015  16.137 -0.2561 -0.7680 -0.0717
 8021TIP3    H245555   5.544   4.046  16.218  0.3121  0.8779 -1.4986
 8022TIP3   OH245556   5.406   3.952   5.149 -0.0109 -0.1115  0.3710
 8022TIP3    H145557   5.347   3.941   5.074 -1.4751  0.7329  1.3566
 8022TIP3    H245558   5.463   4.025   5.124 -0.1656 -0.1463 -0.0979
 8023TIP3   OH245559   4.396   4.400  14.771  0.8923 -0.9660  0.5737
 8023TIP3    H145560   4.314   4.368  14.809 -0.5904  2.8429  1.0226
 8023TIP3    H245561   4.461   4.385  14.840 -0.2511 -0.7766  1.7419
 8024TIP3   OH245562   5.436   5.035   1.352  0.0293  0.1122 -0.1228
 8024TIP3    H145563   5.501   5.076   1.295  0.9370 -1.0393  0.0597
 8024TIP3    H245564   5.355   5.037   1.301  0.3500  0.9712 -0.6139
 8025TIP3   OH245565   1.625   3.259   6.205 -0.2946  0.1823  0.4777
 8025TIP3    H145566   1.689   3.198   6.170  0.4747  1.1810  0.0886
 8025TIP3    H245567   1.540   3.227   6.173  0.3540  1.0160 -2.3193
 8026TIP3   OH245568   4.198   0.200   0.891 -0.2901 -0.6390  0.2828
 8026TIP3    H145569   4.193   0.162   0.979  0.7415  0.9216  1.0353
 8026TIP3    H245570   4.213   0.124   0.834 -1.1839 -1.7038  1.3896
 8027TIP3   OH245571   2.234   0.388  15.457 -0.3673  0.1031 -0.3537
 8027TIP3    H145572   2.188   0.368  15.376  0.0974 -0.1688 -0.5585
 8027TIP3    H245573   2.322   0.413  15.428 -0.5486  1.1667 -0.0132
 8028TIP3   OH245574   6.615   0.745  11.956  0.8917 -0.7499 -0.2776
 8028TIP3    H145575   6.639   0.677  12.020  2.0241  0.6592  0.8787
 8028TIP3    H245576   6.589   0.820  12.010 -2.3269 -0.8448 -1.5072
 8029TIP3   OH245577   1.579   3.482   0.080 -0.1128  0.1161  0.1731
 8029TIP3    H145578   1.533   3.463   0.162  0.2877  2.0637  0.9171
 8029TIP3    H245579   1.668   3.451   0.095  0.0652  0.8369  0.6491
 8030TIP3   OH245580   1.340   3.119  16.858 -0.1464 -0.3765  0.4366
 8030TIP3    H145581   1.254   3.127  16.898 -1.1551 -0.0195 -1.6489
 8030TIP3    H245582   1.349   3.025  16.840 -1.5296 -0.1156 -2.0977
 8031TIP3   OH245583   1.606   0.932   4.120 -0.1723  0.4746 -0.1307
 8031TIP3    H145584   1.552   0.942   4.042  0.0119 -0.3945 -0.3742
 8031TIP3    H245585   1.679   0.876   4.093 -0.1469  0.0988  0.6843
 8032TIP3   OH245586   1.661   1.409   3.389 -0.3339 -0.1700  0.2709
 8032TIP3    H145587   1.675   1.423   3.483  1.3928 -1.1738  0.1948
 8032TIP3    H245588   1.723   1.467   3.346 -2.0622  1.3306 -0.3508
 8033TIP3   OH245589   3.213   4.671   5.127  0.1705  0.2989 -0.1407
 8033TIP3    H145590   3.252   4.756   5.145 -0.2691  0.3301  0.7217
 8033TIP3    H245591   3.130   4.672   5.175 -0.9638  0.2857 -2.0160
 8034TIP3   OH245592   1.864   6.122  16.139  0.2717 -0.2972  0.2681
 8034TIP3    H145593   1.918   6.046  16.160  1.7449  0.7075  0.2304
 8034TIP3    H245594   1.876   6.181  16.213  0.1511  0.4361 -0.2936
 8035TIP3   OH245595   3.890   0.894  15.693  0.0586 -0.2322  0.2805
 8035TIP3    H145596   3.980   0.876  15.666  0.5197  2.4327 -0.1950
 8035TIP3    H245597   3.837   0.867  15.617  0.7210  0.7105 -0.5348
 8036TIP3   OH245598   0.930   3.600   4.822  0.0761 -0.1574  0.1238
 8036TIP3    H145599   0.865   3.659   4.859  0.5758  0.2019  0.4573
 8036TIP3    H245600   0.998   3.658   4.787 -0.0701 -0.5115 -0.7623
 8037TIP3   OH245601   6.038   6.354   4.339 -0.1794 -0.0768 -0.4411
 8037TIP3    H145602   5.984   6.283   4.305 -0.8906  1.1984 -2.1708
 8037TIP3    H245603   6.053   6.411   4.263  0.7247  1.3854  0.7678
 8038TIP3   OH245604   6.263   0.172   4.693  0.4195  0.1653  0.3068
 8038TIP3    H145605   6.301   0.132   4.615  1.5417  2.4804 -0.4227
 8038TIP3    H245606   6.324   0.150   4.763  1.1278  0.7023 -0.1241
 8039TIP3   OH245607   5.531   6.507  16.550 -0.2077  0.1959  0.4381
 8039TIP3    H145608   5.606   6.449  16.536 -0.2490  0.0972  0.6357
 8039TIP3    H245609   5.570   6.592  16.570 -0.1497  0.1650  0.4559
 8040TIP3   OH245610   5.858   1.213  14.962  0.4498 -0.2501 -0.1420
 8040TIP3    H145611   5.878   1.197  15.054  0.0801 -0.9910 -0.1778
 8040TIP3    H245612   5.772   1.256  14.962  0.1147 -0.8950 -0.1563
 8041TIP3   OH245613   4.411   6.175   1.661  0.5092 -0.3616 -0.1376
 8041TIP3    H145614   4.396   6.170   1.567 -2.8621 -2.1447  0.3489
 8041TIP3    H245615   4.428   6.085   1.688 -2.7945 -0.6602  1.4001
 8042TIP3   OH245616   6.657   1.161  13.686  0.3411  0.0233  0.0774
 8042TIP3    H145617   6.706   1.107  13.747  0.1250  2.0224  2.1750
 8042TIP3    H245618   6.574   1.179  13.731  0.3348  1.8953 -0.5722
 8043TIP3   OH245619   3.485   1.131  15.695  0.3898 -0.1248 -0.2065
 8043TIP3    H145620   3.502   1.052  15.746 -0.3769  0.0645  0.3534
 8043TIP3    H245621   3.566   1.146  15.646  0.8036 -0.8283  0.2527
 8044TIP3   OH245622   3.453   3.721   2.735 -0.3181 -0.0819  0.3230
 8044TIP3    H145623   3.379   3.703   2.794 -0.2603 -0.0583  0.4036
 8044TIP3    H245624   3.503   3.640   2.735 -2.0591 -1.2861 -2.2822
 8045TIP3   OH245625   2.586   2.937  13.995  0.3675 -0.2893  0.2769
 8045TIP3    H145626   2.668   2.914  13.952 -0.5219  0.0904 -1.7228
 8045TIP3    H245627   2.532   2.859  13.988  1.0240 -1.0786  2.9618
 8046TIP3   OH245628   0.996   4.127   5.613  0.2120 -0.2766 -0.1941
 8046TIP3    H145629   1.084   4.128   5.577  0.5221 -0.0444  0.5458
 8046TIP3    H245630   1.008   4.106   5.706 -0.3844  1.0160  0.2077
 8047TIP3   OH245631   5.259   6.461   5.293 -0.1203 -0.0269 -0.2761
 8047TIP3    H145632   5.188   6.397   5.293 -1.6094  1.4703  1.7954
 8047TIP3    H245633   5.290   6.462   5.384  0.6992  1.2657 -0.5463
 8048TIP3   OH245634   1.844   4.614   1.180 -0.2114 -0.0794 -0.1917
 8048TIP3    H145635   1.783   4.544   1.156 -0.3963  0.4459 -1.3304
 8048TIP3    H245636   1.844   4.673   1.104  1.9690 -0.2319 -0.3893
 8049TIP3   OH245637   3.215   2.307  11.350 -0.4960  0.2052 -0.3601
 8049TIP3    H145638   3.213   2.354  11.433 -0.7292  1.6320 -1.1521
 8049TIP3    H245639   3.288   2.346  11.302 -1.0940  0.2103 -1.2878
 8050TIP3   OH245640   5.957   3.881  12.212  0.8678  0.1514  0.4665
 8050TIP3    H145641   6.048   3.907  12.203  0.8508  0.5826  1.4268
 8050TIP3    H245642   5.951   3.840  12.299 -0.2539  2.0379  1.3492
 8051TIP3   OH245643   1.047   5.858  15.081 -0.5449  0.1979 -0.6666
 8051TIP3    H145644   1.027   5.773  15.121  1.7097 -0.0391  0.0850
 8051TIP3    H245645   1.119   5.893  15.134  0.2166  1.4629 -2.4441
 8052TIP3   OH245646   1.561   0.882  16.634 -0.2504  0.3602 -0.2154
 8052TIP3    H145647   1.517   0.899  16.717  2.1293  1.4147  0.9186
 8052TIP3    H245648   1.572   0.786  16.632 -0.2906  0.3272  0.7076
 8053TIP3   OH245649   6.313   0.683  16.142 -0.7579  0.0818 -0.2141
 8053TIP3    H145650   6.332   0.767  16.100  1.1538 -0.2930 -0.1855
 8053TIP3    H245651   6.398   0.640  16.149 -1.5020 -1.2664  1.0676
 8054TIP3   OH245652   5.154   1.089  15.412  0.4503  0.3407  0.1075
 8054TIP3    H145653   5.147   1.149  15.338  2.6542  2.3281  1.3474
 8054TIP3    H245654   5.148   1.002  15.373 -0.0275  1.3170 -2.1762
 8055TIP3   OH245655   4.793   5.188   2.746  0.0300 -0.3521 -0.0374
 8055TIP3    H145656   4.868   5.173   2.689  0.9913  0.8899  0.8528
 8055TIP3    H245657   4.733   5.242   2.693 -1.0031 -2.6008 -1.3022
 8056TIP3   OH245658   3.209   3.305  16.168  0.5663  0.0653 -0.1040
 8056TIP3    H145659   3.194   3.285  16.261  0.5427  0.9990  0.1109
 8056TIP3    H245660   3.124   3.289  16.127  0.9305 -1.6736 -0.2278
 8057TIP3   OH245661   1.336   1.887  14.812  0.2946 -0.0034 -0.7251
 8057TIP3    H145662   1.267   1.824  14.790 -0.3531  0.3141  0.3219
 8057TIP3    H245663   1.299   1.972  14.788 -0.6022  0.4097  1.7333
 8058TIP3   OH245664   2.273   4.650   3.590 -0.6218  0.0090 -0.1009
 8058TIP3    H145665   2.340   4.582   3.593  0.3031  0.8031 -1.3849
 8058TIP3    H245666   2.321   4.728   3.560 -1.6568  1.2016  1.2314
 8059TIP3   OH245667   3.625   5.265   0.865 -0.4352  0.1321  0.7183
 8059TIP3    H145668   3.720   5.270   0.870 -0.4571  1.7332  0.1335
 8059TIP3    H245669   3.606   5.267   0.771 -1.0347 -0.6081  0.8157
 8060TIP3   OH245670   6.058   2.474   6.631 -0.3229  0.0128  0.5488
 8060TIP3    H145671   5.966   2.489   6.652 -0.1037  0.6791  1.1171
 8060TIP3    H245672   6.090   2.560   6.604  0.4320  0.0971  1.6225
 8061TIP3   OH245673   1.448   4.464  11.914  0.3304 -0.0821 -0.2678
 8061TIP3    H145674   1.514   4.395  11.912 -0.9140 -1.3498  0.0691
 8061TIP3    H245675   1.452   4.505  11.828  0.3780 -1.3201 -0.8758
 8062TIP3   OH245676   1.849   0.125  14.659 -0.1805  0.3026  0.2122
 8062TIP3    H145677   1.918   0.093  14.600  1.5132  2.5451  0.8668
 8062TIP3    H245678   1.873   0.090  14.745 -1.5682 -1.3286  0.0018
 8063TIP3   OH245679   3.167   5.285  14.433  0.9124  0.0047  0.4829
 8063TIP3    H145680   3.238   5.279  14.369  0.6154  3.2773 -0.3643
 8063TIP3    H245681   3.090   5.252  14.387  1.1782 -0.0066  0.0412
 8064TIP3   OH245682   5.459   0.635   0.947  0.5311  0.2669  0.1155
 8064TIP3    H145683   5.364   0.639   0.949  0.5409  0.6265  1.8285
 8064TIP3    H245684   5.481   0.612   0.857 -1.2246 -1.5809  0.0979
 8065TIP3   OH245685   5.675   1.368  14.090 -0.0383  0.6635 -0.5244
 8065TIP3    H145686   5.724   1.338  14.167 -1.0614  0.1582 -0.0579
 8065TIP3    H245687   5.643   1.455  14.114 -2.0569 -0.3051  0.4286
 8066TIP3   OH245688   6.566   1.945   6.187 -0.6445  0.3247 -0.5167
 8066TIP3    H145689   6.654   1.940   6.223 -0.3915  1.4278 -0.9377
 8066TIP3    H245690   6.512   1.974   6.261 -0.4087  0.9722 -0.5875
 8067TIP3   OH245691   4.520   5.254  15.330  0.0032 -0.1241 -0.0113
 8067TIP3    H145692   4.488   5.252  15.240 -1.6216  1.5758  0.4732
 8067TIP3    H245693   4.570   5.173  15.340  0.0067 -0.4625 -2.3487
 8068TIP3   OH245694   1.686   1.919  11.288 -0.0389  0.0162  0.5677
 8068TIP3    H145695   1.689   1.928  11.383  1.0982 -2.3337  0.8398
 8068TIP3    H245696   1.745   1.987  11.256 -1.7673  1.9947  1.3549
 8069TIP3   OH245697   3.592   2.373   5.626  0.8187  0.0055  0.6995
 8069TIP3    H145698   3.579   2.325   5.544  0.5338  0.7217  0.3200
 8069TIP3    H245699   3.512   2.423   5.637  1.2517  0.6587  0.9140
 8070TIP3   OH245700   2.384   3.207   6.107 -0.0373 -0.4255  0.2261
 8070TIP3    H145701   2.438   3.284   6.088 -0.1827 -0.2270  0.6064
 8070TIP3    H245702   2.314   3.241   6.162 -2.3760 -0.0271 -2.7448
 8071TIP3   OH245703   2.649   6.026   0.931  0.5478  0.7042  0.7058
 8071TIP3    H145704   2.667   6.031   0.837  0.5307  1.0492  0.7188
 8071TIP3    H245705   2.688   5.943   0.959  2.0712  1.3895  0.7213
 8072TIP3   OH245706   5.214   1.758   4.743  0.6572  0.2170  0.3298
 8072TIP3    H145707   5.126   1.727   4.762  0.7194 -0.7504 -0.8212
 8072TIP3    H245708   5.218   1.845   4.783 -0.1090 -0.5327  2.1546
 8073TIP3   OH245709   6.348   4.468  12.880 -0.4360 -0.6328  0.7968
 8073TIP3    H145710   6.442   4.471  12.901 -0.2047 -0.5324 -0.1657
 8073TIP3    H245711   6.346   4.463  12.784 -1.4519  1.2059  0.6813
 8074TIP3   OH245712   4.679   3.316  15.563 -0.0734  0.8991  0.2028
 8074TIP3    H145713   4.749   3.257  15.533 -1.1579 -0.5504  0.4236
 8074TIP3    H245714   4.724   3.376  15.623  1.1431  0.5466 -0.3139
 8075TIP3   OH245715   2.798   1.252  15.958  0.1645 -0.0099 -0.0341
 8075TIP3    H145716   2.876   1.274  16.009 -0.7618  1.6158  0.7521
 8075TIP3    H245717   2.740   1.327  15.970 -0.7956 -0.3719 -2.0874
 8076TIP3   OH245718   1.778   2.933  11.367  0.6049 -0.7801  0.3706
 8076TIP3    H145719   1.714   2.982  11.419  0.7173  0.1573 -0.3608
 8076TIP3    H245720   1.731   2.908  11.288  1.4783  1.1400 -0.8361
 8077TIP3   OH245721   3.452   4.804  17.062 -0.3899  0.3217 -0.0290
 8077TIP3    H145722   3.462   4.761  16.977  0.7898  0.8418 -0.1669
 8077TIP3    H245723   3.407   4.740  17.116 -1.3390  0.0520 -1.0892
 8078TIP3   OH245724   5.709   2.820  11.796 -0.0491  0.3075 -0.5847
 8078TIP3    H145725   5.617   2.813  11.773 -0.3059  0.8141  0.2331
 8078TIP3    H245726   5.754   2.758  11.739 -1.0526 -0.8933 -0.0975
 8079TIP3   OH245727   2.716   4.461   0.644 -0.2790  0.3574 -0.4675
 8079TIP3    H145728   2.718   4.460   0.740  1.2441 -0.3959 -0.4743
 8079TIP3    H245729   2.708   4.553   0.621 -1.8817  0.4552  0.3729
 8080TIP3   OH245730   0.500   2.755  16.337 -0.1350  0.0157 -0.3251
 8080TIP3    H145731   0.494   2.796  16.423  0.1432 -0.8093  0.1097
 8080TIP3    H245732   0.429   2.793  16.286 -0.8570 -0.1175  0.5544
 8081TIP3   OH245733   0.497   2.604   2.217 -0.4233 -0.2177 -0.0214
 8081TIP3    H145734   0.519   2.516   2.248  0.2327 -0.6078 -1.5200
 8081TIP3    H245735   0.414   2.624   2.259 -0.6631 -1.6150  0.2166
 8082TIP3   OH245736   3.900   0.979   1.317 -0.2389  0.3033  0.2118
 8082TIP3    H145737   3.898   0.918   1.242 -0.8602 -0.8891  1.1676
 8082TIP3    H245738   3.853   0.933   1.386  0.7161  1.1942  1.4927
 8083TIP3   OH245739   0.382   0.930   0.354 -0.0112 -0.0308 -0.4362
 8083TIP3    H145740   0.294   0.958   0.380  0.5310  0.7858  0.5707
 8083TIP3    H245741   0.441   0.993   0.394  1.0889 -0.9878 -0.4769
 8084TIP3   OH245742   3.344   2.169  15.026  0.2754  0.5761  0.3412
 8084TIP3    H145743   3.251   2.186  15.010  0.1474  1.9893  2.1950
 8084TIP3    H245744   3.387   2.194  14.944 -0.9082  0.5869 -0.3012
 8085TIP3   OH245745   6.693   0.144   2.769 -0.2871  0.3186  0.4916
 8085TIP3    H145746   6.657   0.213   2.824 -1.2172  0.0239  0.2644
 8085TIP3    H245747   6.693   0.181   2.681 -1.2697 -0.1341  0.2860
 8086TIP3   OH245748   3.512   1.874   1.677 -0.0374  1.0425  0.5981
 8086TIP3    H145749   3.569   1.862   1.601 -0.8998 -1.7968  0.3170
 8086TIP3    H245750   3.554   1.824   1.747 -1.0256  0.7974  1.0307
 8087TIP3   OH245751   4.491   3.939  11.704 -0.3368 -0.5367 -0.0497
 8087TIP3    H145752   4.438   4.018  11.694 -1.5908 -1.1337  1.4930
 8087TIP3    H245753   4.546   3.937  11.626 -1.8672  0.6523 -1.2259
 8088TIP3   OH245754   0.728   2.910  13.006 -0.7828  0.1125 -0.3264
 8088TIP3    H145755   0.812   2.897  12.962 -0.2102  1.6443  0.2427
 8088TIP3    H245756   0.748   2.902  13.099 -1.8418 -2.3116 -0.2160
 8089TIP3   OH245757   5.159   3.253  14.301 -0.0428  0.3963 -0.0263
 8089TIP3    H145758   5.242   3.213  14.328 -0.3730 -0.2427  0.0747
 8089TIP3    H245759   5.098   3.179  14.295 -0.8330  0.9629  0.7729
 8090TIP3   OH245760   4.436   5.098  12.515  0.4678 -0.1638 -0.6989
 8090TIP3    H145761   4.514   5.127  12.468  0.1735  0.4264 -0.8339
 8090TIP3    H245762   4.364   5.145  12.473  0.1326 -0.0547 -0.0172
 8091TIP3   OH245763   4.627   2.529   6.723 -0.2501 -0.3819 -0.3723
 8091TIP3    H145764   4.567   2.522   6.649 -1.9156 -2.4042  1.0425
 8091TIP3    H245765   4.606   2.453   6.778  0.2075  1.5394  2.6788
 8092TIP3   OH245766   0.046   0.835   0.962  0.0691 -0.1350 -0.2133
 8092TIP3    H145767   0.106   0.770   0.924  1.2717  0.6014  0.3324
 8092TIP3    H245768   0.053   0.820   1.057 -0.6437 -0.0561 -0.1458
 8093TIP3   OH245769   4.746   5.751  12.990 -0.2656 -0.1045 -0.4751
 8093TIP3    H145770   4.676   5.794  13.038 -0.0897 -0.5658  0.1969
 8093TIP3    H245771   4.826   5.797  13.017 -0.1200 -0.6169 -0.0215
 8094TIP3   OH245772   4.623   0.815   3.970 -0.1137 -0.1006  0.9316
 8094TIP3    H145773   4.558   0.772   4.025 -0.2791  0.6907  1.3777
 8094TIP3    H245774   4.576   0.836   3.889 -0.0975 -0.5332  0.8082
 8095TIP3   OH245775   5.758   1.415   1.574  0.0428  0.1908 -0.0145
 8095TIP3    H145776   5.674   1.424   1.529 -0.3957 -0.2031  0.7020
 8095TIP3    H245777   5.751   1.333   1.623 -0.2147  1.4352  2.1917
 8096TIP3   OH245778   5.291   2.560   4.336  0.1093  0.5314  0.0937
 8096TIP3    H145779   5.323   2.473   4.359  1.6503  1.0302 -0.0020
 8096TIP3    H245780   5.223   2.579   4.401  0.5964 -0.2630  0.8592
 8097TIP3   OH245781   2.020   2.719  14.151 -0.0395  0.7627 -0.2057
 8097TIP3    H145782   2.004   2.626  14.167 -0.1816  0.7236 -0.5787
 8097TIP3    H245783   1.971   2.764  14.220 -1.7497  0.6494 -1.2929
 8098TIP3   OH245784   5.285   5.437  14.663 -0.0092  1.5714  0.5182
 8098TIP3    H145785   5.217   5.464  14.724  0.7858  1.6415  1.3947
 8098TIP3    H245786   5.363   5.426  14.717  0.5716  1.0599 -0.3947
 8099TIP3   OH245787   5.725   1.814   3.518 -0.3571 -0.1741  0.4553
 8099TIP3    H145788   5.638   1.852   3.519 -0.3014  0.0408 -0.7610
 8099TIP3    H245789   5.711   1.720   3.532 -1.0047 -0.4523 -1.6987
 8100TIP3   OH245790   4.938   1.471  16.768 -0.1128  0.1910  0.0189
 8100TIP3    H145791   4.944   1.489  16.674  1.7762 -0.3349  0.0101
 8100TIP3    H245792   4.931   1.557  16.809 -1.7131  0.3990 -0.6095
 8101TIP3   OH245793   4.237   4.258  13.077  0.1576 -0.3007 -0.1249
 8101TIP3    H145794   4.229   4.225  13.167 -0.8843  0.4784  0.0843
 8101TIP3    H245795   4.215   4.351  13.083  0.3341 -0.1807 -1.1499
 8102TIP3   OH245796   1.015   0.668   5.485 -0.1794 -0.8041  0.6076
 8102TIP3    H145797   0.933   0.671   5.533  0.0194  1.4980  0.9200
 8102TIP3    H245798   1.082   0.691   5.549  0.3429  0.1920 -0.2523
 8103TIP3   OH245799   2.499   2.321   3.853  0.3857 -0.2626  0.8801
 8103TIP3    H145800   2.511   2.228   3.835  0.0098  0.2056 -2.5725
 8103TIP3    H245801   2.586   2.354   3.874  0.8322 -1.0788  0.3442
 8104TIP3   OH245802   1.085   5.990  16.159 -0.2184  0.0252 -0.4088
 8104TIP3    H145803   1.062   6.001  16.252  1.0984  1.0426 -0.1728
 8104TIP3    H245804   1.153   5.923  16.160  0.7646  0.9926 -0.4626
 8105TIP3   OH245805   5.060   4.462  17.289  0.1690 -0.0236  0.2279
 8105TIP3    H145806   5.040   4.547  17.250  2.4854  0.5052  0.0336
 8105TIP3    H245807   5.105   4.414  17.219 -1.0450 -1.4135  0.3579
 8106TIP3   OH245808   2.509   0.743  16.536 -0.2342  0.1459  0.2900
 8106TIP3    H145809   2.528   0.815  16.474 -1.2252  0.2824  0.1228
 8106TIP3    H245810   2.595   0.707  16.558  0.2160  0.8096 -0.3215
 8107TIP3   OH245811   2.263   2.140   5.585 -0.1941 -0.5181  0.3479
 8107TIP3    H145812   2.327   2.191   5.535  0.8650  0.3538  2.4926
 8107TIP3    H245813   2.299   2.051   5.586 -0.3154 -0.5843 -0.5639
 8108TIP3   OH245814   2.113   5.561   1.678 -0.4274 -0.3378 -0.3344
 8108TIP3    H145815   2.047   5.530   1.616  1.3162  1.2151 -3.2115
 8108TIP3    H245816   2.125   5.653   1.656  2.8539 -0.6158 -0.1713
 8109TIP3   OH245817   5.157   4.900   1.515  0.1972 -0.1124 -0.1069
 8109TIP3    H145818   5.173   4.964   1.446 -0.7955 -1.0781 -1.2839
 8109TIP3    H245819   5.208   4.823   1.490 -1.0751 -0.8873 -0.4264
 8110TIP3   OH245820   2.784   6.575  15.838  0.1471 -0.7204  0.0227
 8110TIP3    H145821   2.717   6.571  15.907  0.8103 -1.8545  0.6403
 8110TIP3    H245822   2.815   6.485  15.831  0.3680 -0.5434 -1.5069
 8111TIP3   OH245823   2.812   1.704  15.027  0.3517 -0.0368 -0.0119
 8111TIP3    H145824   2.804   1.770  15.096  0.7045  0.7760 -0.7394
 8111TIP3    H245825   2.779   1.624  15.067  1.8790  0.0735  1.5890
 8112TIP3   OH245826   2.371   2.831  11.994  0.0877  0.4459  0.5486
 8112TIP3    H145827   2.280   2.836  11.963  0.1667 -0.5102  0.1366
 8112TIP3    H245828   2.370   2.762  12.060  0.9639 -1.3467 -1.2011
 8113TIP3   OH245829   6.521   0.870  15.352  0.5483  0.1976  0.1713
 8113TIP3    H145830   6.459   0.852  15.422  0.2079  0.0874 -0.1553
 8113TIP3    H245831   6.467   0.898  15.278  0.9309  0.7059  0.0762
 8114TIP3   OH245832   1.445   5.162  11.389  0.1615 -0.0069 -0.1248
 8114TIP3    H145833   1.486   5.137  11.306  0.3141  2.1322 -0.7669
 8114TIP3    H245834   1.502   5.125  11.456  0.7095 -0.7537 -0.9711
 8115TIP3   OH245835   1.781   1.253  16.029  0.0991 -0.3877  0.4248
 8115TIP3    H145836   1.711   1.236  15.965  0.1965  0.8256 -0.0356
 8115TIP3    H245837   1.776   1.180  16.090 -3.0275  0.7184  1.6797
 8116TIP3   OH245838   4.765   3.513  16.322  0.0436 -0.5977  0.0450
 8116TIP3    H145839   4.798   3.461  16.395 -0.1259  0.6647  1.0469
 8116TIP3    H245840   4.778   3.604  16.349  0.0373 -0.0962 -1.5289
 8117TIP3   OH245841   5.757   5.033   4.570 -0.1042 -0.4756 -0.6213
 8117TIP3    H145842   5.732   4.989   4.652 -0.5682  0.9932  0.0478
 8117TIP3    H245843   5.737   5.125   4.585  2.5673  0.3078 -1.2943
 8118TIP3   OH245844   6.094   1.309   6.460 -0.2089 -0.2991  0.2114
 8118TIP3    H145845   6.095   1.383   6.399 -1.1310  1.8794  2.6297
 8118TIP3    H245846   6.075   1.233   6.405 -2.1715  1.6537 -2.0734
 8119TIP3   OH245847   3.961   4.073  12.889 -0.4076  0.6674 -0.5128
 8119TIP3    H145848   4.035   4.130  12.867 -0.4813  1.1510  0.4181
 8119TIP3    H245849   3.992   3.985  12.870  1.4656  0.5453  2.3330
 8120TIP3   OH245850   3.186   4.806  12.144 -0.6815  0.4344 -0.0205
 8120TIP3    H145851   3.102   4.762  12.134 -1.5717  2.1091 -0.2251
 8120TIP3    H245852   3.195   4.820  12.239 -0.5671  0.1385  0.0133
 8121TIP3   OH245853   5.286   5.297  11.722  0.6625  0.3370  0.5861
 8121TIP3    H145854   5.244   5.239  11.659  1.1717  0.7066 -0.1043
 8121TIP3    H245855   5.215   5.326  11.779 -0.3102  1.9813 -1.3311
 8122TIP3   OH245856   1.509   6.035  12.727  0.1359  0.7434 -0.1961
 8122TIP3    H145857   1.448   6.009  12.658  0.4732  0.3952 -0.3618
 8122TIP3    H245858   1.559   6.107  12.688 -1.3848  2.2845  0.5564
 8123TIP3   OH245859   5.889   0.619   0.241 -0.7617 -0.0244 -0.4553
 8123TIP3    H145860   5.899   0.540   0.188  1.2078 -0.3413  0.2839
 8123TIP3    H245861   5.907   0.691   0.181 -0.2478 -0.2818 -0.6168
 8124TIP3   OH245862   4.073   4.233   1.675 -0.1755 -0.1461 -0.1650
 8124TIP3    H145863   4.054   4.195   1.761  1.4523  0.7128  0.6146
 8124TIP3    H245864   4.108   4.160   1.625 -1.6054 -0.7741 -0.2973
 8125TIP3   OH245865   4.488   6.759   6.596 -0.0205 -0.5795  0.1604
 8125TIP3    H145866   4.513   6.668   6.584 -0.8485 -0.8657  0.5289
 8125TIP3    H245867   4.404   6.755   6.642 -0.4637  0.3501 -0.5402
 8126TIP3   OH245868   5.140   0.116   3.390 -0.0125 -0.0502 -0.7800
 8126TIP3    H145869   5.065   0.066   3.359  0.3131 -0.0853 -1.5324
 8126TIP3    H245870   5.214   0.055   3.382  0.0800 -0.0770  0.1196
 8127TIP3   OH245871   2.741   1.843  10.885  0.5082  0.2891 -0.0596
 8127TIP3    H145872   2.722   1.763  10.836  0.3317  1.0349 -1.2771
 8127TIP3    H245873   2.658   1.890  10.886  0.7121  0.6423  0.2841
 8128TIP3   OH245874   4.909   0.857   3.624  0.7058 -0.1649 -0.3371
 8128TIP3    H145875   4.974   0.921   3.653 -0.2027 -0.1478  1.8764
 8128TIP3    H245876   4.952   0.772   3.637  0.2752 -0.1661  1.3668
 8129TIP3   OH245877   6.310   0.859   4.587 -0.0628 -0.1804 -0.0112
 8129TIP3    H145878   6.335   0.935   4.639  1.6136 -0.2685 -0.6158
 8129TIP3    H245879   6.394   0.823   4.556 -0.8920 -1.4893 -0.8273
 8130TIP3   OH245880   2.137   5.727   4.935  0.1743  0.3311 -0.2367
 8130TIP3    H145881   2.095   5.745   5.018 -1.6587 -3.0564 -0.2729
 8130TIP3    H245882   2.077   5.762   4.869  0.4736  0.9179 -0.2061
 8131TIP3   OH245883   4.650   6.284   6.042 -0.1313 -0.5419  0.4706
 8131TIP3    H145884   4.726   6.280   5.983 -1.3668 -0.2210 -1.2261
 8131TIP3    H245885   4.596   6.210   6.016 -0.9152 -0.1261  0.9000
 8132TIP3   OH245886   4.412   5.295   3.019  0.1530  0.1151 -0.2124
 8132TIP3    H145887   4.449   5.308   3.106 -0.0363 -0.1146 -0.0929
 8132TIP3    H245888   4.318   5.281   3.035  0.2236 -0.6228 -0.3834
 8133TIP3   OH245889   2.018   1.198  12.567  0.3344 -0.2817  0.1903
 8133TIP3    H145890   2.078   1.168  12.499  1.5967  1.2564  0.5361
 8133TIP3    H245891   2.032   1.138  12.640 -0.1149 -1.1968 -0.4655
 8134TIP3   OH245892   4.776   0.132  16.941  0.9748  0.4274  0.1757
 8134TIP3    H145893   4.748   0.210  16.892 -0.6563 -0.7737 -0.9022
 8134TIP3    H245894   4.797   0.068  16.873  0.6123 -0.6229  1.0323
 8135TIP3   OH245895   4.703   1.525  14.904 -0.3218  0.0119  0.3502
 8135TIP3    H145896   4.712   1.431  14.889 -0.0852 -0.2743  2.1166
 8135TIP3    H245897   4.639   1.533  14.975 -0.0634  1.1591  0.4843
 8136TIP3   OH245898   4.455   1.249  15.800 -0.1430 -0.7965  0.3193
 8136TIP3    H145899   4.388   1.211  15.857  1.2031 -1.4115  1.5601
 8136TIP3    H245900   4.447   1.343  15.814 -1.6354 -0.7570 -0.6145
 8137TIP3   OH245901   6.217   5.231   5.351  0.1900 -0.1563 -0.5139
 8137TIP3    H145902   6.289   5.214   5.291 -0.0276 -0.2705 -0.7456
 8137TIP3    H245903   6.259   5.254   5.433  0.5233  2.1987 -1.2844
 8138TIP3   OH245904   3.392   3.804   3.512 -0.3107  0.1629  0.5518
 8138TIP3    H145905   3.431   3.867   3.452 -1.0212 -1.0033 -1.1905
 8138TIP3    H245906   3.304   3.837   3.529 -0.8825 -0.5733 -0.7962
 8139TIP3   OH245907   5.931   6.054  11.989 -0.4230  0.1723  0.0782
 8139TIP3    H145908   5.951   6.103  11.910  0.0811 -0.2873 -0.0885
 8139TIP3    H245909   5.962   5.965  11.971  0.1755  0.1821  0.9774
 8140TIP3   OH245910   1.753   3.282  15.508  0.4108 -0.5370  0.0555
 8140TIP3    H145911   1.692   3.221  15.467 -0.3244  0.9972 -1.2423
 8140TIP3    H245912   1.756   3.357  15.449  1.9676  0.3212  1.1439
 8141TIP3   OH245913   1.865   1.348  11.214  0.0338 -0.2262  0.0698
 8141TIP3    H145914   1.937   1.325  11.155  1.7759  0.4661  1.8121
 8141TIP3    H245915   1.897   1.323  11.301 -2.2786 -0.8470  0.8177
 8142TIP3   OH245916   1.053   3.071   0.039 -0.8942  0.2452 -0.7179
 8142TIP3    H145917   1.116   3.047   0.108 -1.2684  1.5181  0.1081
 8142TIP3    H245918   0.968   3.052   0.078 -1.1074 -2.9963 -2.4077
 8143TIP3   OH245919   0.364   3.681  11.973 -0.4425  0.2645  0.3280
 8143TIP3    H145920   0.459   3.688  11.989  0.1166 -2.3093 -1.3107
 8143TIP3    H245921   0.328   3.655  12.057  0.8548 -2.1536  0.2251
 8144TIP3   OH245922   3.686   4.610  15.531  0.3573  0.2869  0.3762
 8144TIP3    H145923   3.733   4.576  15.607 -0.5725  0.4809  1.0508
 8144TIP3    H245924   3.727   4.694  15.512  0.5680  0.2518  0.6728
 8145TIP3   OH245925   4.574   6.101   3.502  0.0115  0.2823  0.2693
 8145TIP3    H145926   4.528   6.043   3.442 -0.6098  1.7711 -0.7408
 8145TIP3    H245927   4.592   6.046   3.579 -1.4406 -0.9590 -0.2288
 8146TIP3   OH245928   5.237   1.684  14.665 -0.5576  0.5730 -0.5969
 8146TIP3    H145929   5.204   1.594  14.673  0.7280  0.2193  1.0179
 8146TIP3    H245930   5.243   1.698  14.570 -0.1702 -1.2793 -0.8813
 8147TIP3   OH245931   0.097   5.099  12.619  0.2188  0.2123  0.2806
 8147TIP3    H145932   0.187   5.116  12.647  0.7440 -0.7402 -0.7551
 8147TIP3    H245933   0.050   5.180  12.638  1.1349  0.4864  1.4634
 8148TIP3   OH245934   2.185   5.346  13.815  0.2004 -0.0713  0.0609
 8148TIP3    H145935   2.104   5.345  13.765 -0.0768  0.6733  0.4794
 8148TIP3    H245936   2.214   5.437  13.813  1.2602 -0.3954 -0.4379
 8149TIP3   OH245937   2.885   5.099   1.367 -0.1439  0.2562 -0.2207
 8149TIP3    H145938   2.892   5.005   1.352 -1.4357 -0.0218  0.7145
 8149TIP3    H245939   2.921   5.139   1.288 -0.4996 -1.0313 -1.0696
 8150TIP3   OH245940   0.548   5.896   3.820 -0.1120  0.4476 -0.3893
 8150TIP3    H145941   0.584   5.940   3.743 -0.3343  0.0025 -0.7539
 8150TIP3    H245942   0.602   5.927   3.893 -1.5286  2.9783 -0.2790
 8151TIP3   OH245943   5.612   5.861  13.430 -0.2676 -0.3597  0.1407
 8151TIP3    H145944   5.638   5.769  13.430 -1.1397 -0.6170  0.3694
 8151TIP3    H245945   5.585   5.878  13.339  1.4796  0.1556 -0.3175
 8152TIP3   OH245946   0.805   4.268   0.631 -0.5257  0.2587 -0.7781
 8152TIP3    H145947   0.870   4.200   0.612  1.4423  1.5039  1.0279
 8152TIP3    H245948   0.832   4.343   0.579 -1.1122  0.5101 -0.7325
 8153TIP3   OH245949   0.536   3.578   1.102 -0.0687  0.1537  0.9528
 8153TIP3    H145950   0.629   3.564   1.119  0.3732 -0.9494 -1.8535
 8153TIP3    H245951   0.496   3.492   1.112  0.2395 -0.6023 -2.9248
 8154TIP3   OH245952   6.693   5.781  12.694  0.0943  0.0645  0.3504
 8154TIP3    H145953   6.778   5.792  12.737  0.2121  0.0453  0.1232
 8154TIP3    H245954   6.709   5.717  12.625 -0.2061 -0.2603  0.5799
 8155TIP3   OH245955   3.711   4.267   5.029  0.1572  0.2758  0.6620
 8155TIP3    H145956   3.640   4.331   5.027 -1.0670 -1.0514 -0.2833
 8155TIP3    H245957   3.695   4.215   5.108  1.2248  1.1640  1.5004
 8156TIP3   OH245958   4.590   4.998  13.093  0.0439 -0.0590  1.1115
 8156TIP3    H145959   4.599   4.909  13.060 -2.2534 -0.6306  1.8192
 8156TIP3    H245960   4.642   5.000  13.173 -0.8049 -1.1631  1.7222
 8157TIP3   OH245961   5.303   5.664   4.385  0.3252 -0.7376  0.4995
 8157TIP3    H145962   5.384   5.623   4.415 -1.2690 -3.2173  1.7064
 8157TIP3    H245963   5.264   5.702   4.463  1.3912  2.7535 -0.4625
 8158TIP3   OH245964   5.219   3.014   0.741 -0.6697 -0.4330 -0.5279
 8158TIP3    H145965   5.137   2.983   0.702 -2.3521  1.9425  0.8896
 8158TIP3    H245966   5.210   2.995   0.834  0.9903 -1.2559 -0.4981
 8159TIP3   OH245967   0.116   2.035  11.765 -0.1066  0.0507  0.4497
 8159TIP3    H145968   0.070   2.113  11.733 -0.1917 -0.4361 -0.6446
 8159TIP3    H245969   0.206   2.045  11.735  0.4801  0.8410  2.3137
 8160TIP3   OH245970   3.675   2.347   4.395  0.0466 -0.0672  0.2467
 8160TIP3    H145971   3.735   2.413   4.359 -1.4032  1.2090  0.0594
 8160TIP3    H245972   3.709   2.329   4.482  0.5154  0.9133  0.2876
 8161TIP3   OH245973   0.512   3.811   6.278  0.1966 -0.4997  0.0337
 8161TIP3    H145974   0.424   3.827   6.243  0.4127 -1.4697 -1.0234
 8161TIP3    H245975   0.499   3.794   6.371 -0.4916  1.3522  0.3293
 8162TIP3   OH245976   1.608   0.942  15.399 -0.0555 -0.5199  0.0418
 8162TIP3    H145977   1.670   0.902  15.460  1.2608  0.3804 -0.6639
 8162TIP3    H245978   1.527   0.892  15.412  0.2696 -0.6040  2.2454
 8163TIP3   OH245979   0.752   0.218   2.229 -0.1304  0.5296  0.0658
 8163TIP3    H145980   0.826   0.160   2.245  0.2725  1.5502  2.2895
 8163TIP3    H245981   0.736   0.211   2.135 -0.9439 -4.0847  0.3311
 8164TIP3   OH245982   2.649   0.328  14.483  0.1417  0.1201 -0.0309
 8164TIP3    H145983   2.689   0.249  14.519 -0.8301 -0.4523 -0.1593
 8164TIP3    H245984   2.617   0.301  14.397  0.8110  0.9755 -0.5679
 8165TIP3   OH245985   4.930   3.481   4.566 -0.4935  0.1172 -0.0129
 8165TIP3    H145986   5.008   3.502   4.515 -1.4835 -1.8953 -2.6035
 8165TIP3    H245987   4.951   3.397   4.608 -0.4539  0.7431  1.2719
 8166TIP3   OH245988   2.601   5.622   5.233  0.0765  0.0851  0.0740
 8166TIP3    H145989   2.653   5.700   5.211 -0.5411  0.4161 -0.2426
 8166TIP3    H245990   2.510   5.652   5.230 -0.1943 -0.7444 -0.4603
 8167TIP3   OH245991   4.703   0.734  15.374  0.2605 -0.5640  0.6022
 8167TIP3    H145992   4.692   0.729  15.469 -0.1667 -1.8658  0.5031
 8167TIP3    H245993   4.623   0.695  15.339  0.3804 -0.0211 -0.2985
 8168TIP3   OH245994   5.140   6.353  16.145  0.3802 -0.5456 -0.1174
 8168TIP3    H145995   5.083   6.392  16.078  1.0658 -0.3333 -0.5934
 8168TIP3    H245996   5.226   6.391  16.127 -0.0132  2.4383  3.1216
 8169TIP3   OH245997   2.735   4.472   0.239 -0.3529  0.3710  0.0249
 8169TIP3    H145998   2.679   4.528   0.291 -0.8802  0.0765 -0.2185
 8169TIP3    H245999   2.675   4.412   0.194  0.1620 -0.0759 -0.0868
 8170TIP3   OH246000   1.505   3.466  12.974  0.3015 -0.5512 -0.1168
 8170TIP3    H146001   1.563   3.542  12.972 -1.1169  0.5780  0.0168
 8170TIP3    H246002   1.486   3.452  13.067 -1.7765  0.8461 -0.2586
 8171TIP3   OH246003   6.245   1.128   1.436  0.4101  0.3783 -0.1971
 8171TIP3    H146004   6.219   1.044   1.475  1.3923 -0.3413 -1.0356
 8171TIP3    H246005   6.214   1.194   1.498  0.4022 -0.6530  0.9281
 8172TIP3   OH246006   6.260   3.833   4.663  0.1105  0.2862 -0.0940
 8172TIP3    H146007   6.197   3.850   4.732  0.7400  1.7181  0.1781
 8172TIP3    H246008   6.337   3.884   4.688  1.4598 -1.5239 -0.3267
 8173TIP3   OH246009   1.898   4.983   0.504 -0.1095  0.3423 -0.0947
 8173TIP3    H146010   1.956   5.045   0.460 -0.1847  0.9830  0.6773
 8173TIP3    H246011   1.943   4.963   0.586 -1.0917  1.0915  0.6597
 8174TIP3   OH246012   3.134   0.307   2.180 -0.4006  0.4082 -0.3526
 8174TIP3    H146013   3.181   0.276   2.257 -2.7603  0.8774  1.4157
 8174TIP3    H246014   3.173   0.393   2.161  0.4279  0.1430  0.1177
 8175TIP3   OH246015   1.283   2.450   0.340  0.6643 -0.0321 -0.0251
 8175TIP3    H146016   1.269   2.380   0.404  0.9546 -1.1776 -1.1700
 8175TIP3    H246017   1.220   2.517   0.364 -0.7134 -1.3443  0.1781
 8176TIP3   OH246018   3.107   4.496   5.642 -0.1617 -0.6276  0.0937
 8176TIP3    H146019   3.112   4.470   5.734 -2.2705  0.9580  0.7130
 8176TIP3    H246020   3.114   4.591   5.643  1.2861 -0.6571 -1.5813
 8177TIP3   OH246021   4.466   6.737  14.905 -0.1604  0.4617 -0.4117
 8177TIP3    H146022   4.427   6.762  14.989 -1.0064 -0.0909 -0.6336
 8177TIP3    H246023   4.393   6.706  14.852  0.5129 -0.1941 -0.9903
 8178TIP3   OH246024   3.780   2.205  12.412 -0.2655  0.3885 -0.6709
 8178TIP3    H146025   3.857   2.247  12.451 -0.3013  0.2049 -0.3988
 8178TIP3    H246026   3.753   2.140  12.477 -1.4261  1.3279 -0.1929
 8179TIP3   OH246027   3.580   4.054   2.118  0.1191 -0.0031 -0.3750
 8179TIP3    H146028   3.505   4.051   2.059  0.6000 -1.1553 -0.9621
 8179TIP3    H246029   3.542   4.069   2.205 -0.7068  0.3444 -0.7864
 8180TIP3   OH246030   4.835   6.727   2.424 -0.1583 -0.0987 -0.3306
 8180TIP3    H146031   4.821   6.822   2.420  0.0527 -0.0657 -0.2940
 8180TIP3    H246032   4.893   6.708   2.351  1.7636  0.1626  1.0460
 8181TIP3   OH246033   6.410   1.184  11.713 -0.3088  0.1743  0.1771
 8181TIP3    H146034   6.427   1.099  11.754  0.4883  0.8804  1.3479
 8181TIP3    H246035   6.417   1.247  11.784  2.0116  1.5375 -1.1497
 8182TIP3   OH246036   2.570   4.108  10.606 -0.1321 -0.1434 -0.3583
 8182TIP3    H146037   2.500   4.049  10.633  0.2190 -0.0742  0.7487
 8182TIP3    H246038   2.564   4.110  10.510 -1.7425  0.0019 -0.2780
 8183TIP3   OH246039   1.025   2.793   3.222  0.0416 -0.1955  0.0251
 8183TIP3    H146040   1.026   2.786   3.318 -0.7312  1.0730  0.1392
 8183TIP3    H246041   0.934   2.812   3.200  0.2676 -0.2165 -0.9432
 8184TIP3   OH246042   0.525   5.218   1.197  0.2121  0.0536 -0.4242
 8184TIP3    H146043   0.514   5.268   1.278  1.5920  1.2264 -0.9260
 8184TIP3    H246044   0.439   5.220   1.156 -0.2088  0.4515  0.4547
 8185TIP3   OH246045   3.028   5.422   4.041 -0.0169  0.1083  0.0490
 8185TIP3    H146046   3.033   5.515   4.021  0.1039 -0.3769 -2.5310
 8185TIP3    H246047   3.109   5.385   4.004 -1.0162 -1.2874 -0.8510
 8186TIP3   OH246048   3.109   4.228   2.315 -0.0292  0.2525 -0.0564
 8186TIP3    H146049   3.055   4.266   2.384  0.4083 -0.3850  0.6529
 8186TIP3    H246050   3.091   4.281   2.237  0.6281  1.9513  0.9043
 8187TIP3   OH246051   3.158   3.971  14.455  0.5305 -0.4523 -0.2307
 8187TIP3    H146052   3.236   3.919  14.471 -0.2719 -0.8754  3.0271
 8187TIP3    H246053   3.189   4.061  14.448  1.3497 -0.5692  1.4148
 8188TIP3   OH246054   6.054   1.244  16.065 -0.2975 -0.8454  0.3263
 8188TIP3    H146055   5.985   1.212  16.122  0.9832 -0.1845  2.3392
 8188TIP3    H246056   6.129   1.260  16.123  0.0897  2.9666 -0.9401
 8189TIP3   OH246057   6.129   5.912  17.354 -0.4527  0.1784 -0.1121
 8189TIP3    H146058   6.128   5.974  17.281 -0.9655  1.0859  0.6419
 8189TIP3    H246059   6.183   5.839  17.324  0.7137  1.2880 -0.7685
 8190TIP3   OH246060   6.063   0.046   3.723 -0.0532 -0.5458  0.3323
 8190TIP3    H146061   5.985   0.090   3.758  1.0648 -0.6505  3.2017
 8190TIP3    H246062   6.031  -0.038   3.690 -1.0461 -1.1095  2.5707
 8191TIP3   OH246063   2.714   2.786  13.803 -0.2591 -0.5738  0.5049
 8191TIP3    H146064   2.760   2.808  13.722 -1.8859 -3.7786 -1.4739
 8191TIP3    H246065   2.776   2.731  13.851  0.1162  0.0173  0.7114
 8192TIP3   OH246066   0.402   2.164   1.081 -0.3348  0.7095  0.4012
 8192TIP3    H146067   0.495   2.182   1.096  0.0067 -0.1074 -0.6709
 8192TIP3    H246068   0.359   2.250   1.090  0.9755  1.7976 -2.6128
 8193TIP3   OH246069   0.233   3.638   1.997  0.1154  0.2180  0.1824
 8193TIP3    H146070   0.264   3.565   1.943  0.3395 -1.3722  2.3563
 8193TIP3    H246071   0.233   3.605   2.086 -1.1408  2.4509  1.1132
 8194TIP3   OH246072   4.941   1.893   2.600  0.4170 -0.0842  0.2165
 8194TIP3    H146073   4.868   1.875   2.659 -0.5650  1.3011 -0.5323
 8194TIP3    H246074   4.902   1.939   2.526  1.6534 -1.5755 -1.4582
 8195TIP3   OH246075   1.614   4.170  12.989  0.5054  0.1862  0.2165
 8195TIP3    H146076   1.591   4.084  13.026  1.3997  0.5329  1.6563
 8195TIP3    H246077   1.612   4.156  12.894  1.9042 -1.7906  0.4120
 8196TIP3   OH246078   0.489   4.531   5.683 -0.6601  0.2682 -0.2256
 8196TIP3    H146079   0.422   4.477   5.725  2.3516 -2.7113  1.1434
 8196TIP3    H246080   0.534   4.574   5.755  1.4737 -1.0891 -0.6562
 8197TIP3   OH246081   5.769   5.807  16.118  0.5838 -0.0513 -0.2477
 8197TIP3    H146082   5.812   5.848  16.194 -0.1265 -0.7476  0.5574
 8197TIP3    H246083   5.793   5.715  16.124  2.9836  0.3048 -2.5988
 8198TIP3   OH246084   5.713   2.044   3.198 -0.2012 -0.4017  0.3772
 8198TIP3    H146085   5.758   1.969   3.237 -0.1586  0.4787  2.1171
 8198TIP3    H246086   5.783   2.099   3.162  0.0496  0.2217  1.7398
 8199TIP3   OH246087   5.556   2.836  10.764 -0.1697  0.1812  0.0511
 8199TIP3    H146088   5.516   2.888  10.834  0.6154  1.5079 -0.4597
 8199TIP3    H246089   5.641   2.877  10.749 -0.4825  0.1894 -1.9641
 8200TIP3   OH246090   2.196   6.621  13.040 -0.2798  0.3053  0.1269
 8200TIP3    H146091   2.283   6.659  13.052 -0.3581  1.1645 -1.6714
 8200TIP3    H246092   2.210   6.527  13.045  0.5614  0.4474  0.8819
 8201TIP3   OH246093   5.697   5.943  11.554 -0.6370  0.3509 -0.1851
 8201TIP3    H146094   5.715   5.925  11.462 -2.4483  2.2226 -1.0017
 8201TIP3    H246095   5.730   6.031  11.568 -3.6563  1.6078 -0.1968
 8202TIP3   OH246096   5.433   5.489  16.163  0.4202  0.2847  0.0449
 8202TIP3    H146097   5.415   5.472  16.255 -1.7259 -0.6114 -0.4753
 8202TIP3    H246098   5.416   5.582  16.152 -0.8689  0.0907  0.2637
 8203TIP3   OH246099   0.371   1.729   3.766 -0.0827 -0.0225  0.1732
 8203TIP3    H146100   0.325   1.744   3.849 -1.3044 -0.3327 -0.4378
 8203TIP3    H246101   0.318   1.664   3.720 -0.6971  1.7870 -1.8440
 8204TIP3   OH246102   6.581   1.425  15.772 -0.1977  0.0322 -0.3913
 8204TIP3    H146103   6.635   1.353  15.738 -0.0779 -0.0708  0.0182
 8204TIP3    H246104   6.593   1.496  15.708  1.0739  0.3026  0.1213
 8205TIP3   OH246105   4.634   0.168   5.024 -0.3699  0.5456  0.4344
 8205TIP3    H146106   4.693   0.182   4.950 -1.2628  3.1022  0.1003
 8205TIP3    H246107   4.690   0.181   5.101  0.2685 -0.8139  0.2375
 8206TIP3   OH246108   1.021   4.292   1.608  0.5674 -0.0857  0.0568
 8206TIP3    H146109   0.941   4.269   1.560  1.3904 -1.5981 -0.6593
 8206TIP3    H246110   1.089   4.295   1.540  1.2610  0.4736  0.7582
 8207TIP3   OH246111   2.798   6.250  11.115 -0.3319  0.0117 -0.5134
 8207TIP3    H146112   2.874   6.196  11.094  0.0607  0.9710 -1.7221
 8207TIP3    H246113   2.834   6.338  11.127 -1.3071  0.6186 -1.8052
 8208TIP3   OH246114   6.431   1.229  16.500  0.1186 -0.0239  0.2760
 8208TIP3    H146115   6.370   1.227  16.574 -1.7101  0.2041 -1.1639
 8208TIP3    H246116   6.412   1.311  16.455  0.9027 -0.3555 -0.6879
 8209TIP3   OH246117   4.415   2.951   0.757  0.2101 -0.1448  0.6174
 8209TIP3    H146118   4.359   2.909   0.691 -0.4103  1.1004  0.3208
 8209TIP3    H246119   4.502   2.916   0.740  0.3626  1.1854 -1.8330
 8210TIP3   OH246120   0.413   5.539   4.269  0.3154  0.1427  0.3592
 8210TIP3    H146121   0.343   5.517   4.331 -0.4280 -0.7427 -0.7652
 8210TIP3    H246122   0.494   5.529   4.320 -0.1619 -2.3085  0.7416
 8211TIP3   OH246123   2.468   6.570   5.001  0.1436 -0.5281  0.1530
 8211TIP3    H146124   2.476   6.657   4.962 -1.2756 -0.9343 -1.1154
 8211TIP3    H246125   2.424   6.585   5.085  0.5731  0.0473  0.2797
 8212TIP3   OH246126   6.784   6.342   2.775 -0.1344  0.3425 -0.1565
 8212TIP3    H146127   6.820   6.405   2.712  1.3907 -0.3119  0.0264
 8212TIP3    H246128   6.840   6.351   2.852 -0.8971 -0.1259  0.4612
 8213TIP3   OH246129   2.339   1.083  12.043 -0.4218  0.3644  0.6676
 8213TIP3    H146130   2.392   1.004  12.057 -0.5895  0.2752  0.8259
 8213TIP3    H246131   2.293   1.066  11.961 -2.7335 -1.0475  2.1219
 8214TIP3   OH246132   5.458   1.918   3.586  0.1975 -0.0128 -0.0519
 8214TIP3    H146133   5.433   1.834   3.624 -1.9123  0.5451 -0.1040
 8214TIP3    H246134   5.415   1.984   3.641  0.2672  0.9605 -1.1167
 8215TIP3   OH246135   0.405   3.492  10.368  0.3610  0.7192 -0.3880
 8215TIP3    H146136   0.433   3.492  10.276  1.1457  0.0979 -0.1537
 8215TIP3    H246137   0.315   3.527  10.365 -0.9402 -2.3480 -1.7882
 8216TIP3   OH246138   1.628   3.260  17.264  0.1845  0.4869 -0.2148
 8216TIP3    H146139   1.672   3.340  17.235  0.8280  0.1268 -0.2492
 8216TIP3    H246140   1.698   3.205  17.298 -0.4161  0.4519  1.0302
 8217TIP3   OH246141   2.704   3.342  16.621  0.4280  0.1967  0.3337
 8217TIP3    H146142   2.764   3.288  16.674 -0.5714 -0.2385  1.0411
 8217TIP3    H246143   2.754   3.422  16.604  2.2089 -1.1662 -1.3087
 8218TIP3   OH246144   0.790   2.844   1.465  0.1935  0.0952  0.2683
 8218TIP3    H146145   0.881   2.832   1.492  0.2981  1.5448  0.6594
 8218TIP3    H246146   0.741   2.857   1.546 -0.4173 -0.9169  0.0778
 8219TIP3   OH246147   3.234   6.291   4.836 -0.0422  0.0762  0.3948
 8219TIP3    H146148   3.304   6.259   4.778  0.5851  2.2519 -0.1587
 8219TIP3    H246149   3.246   6.242   4.917  0.9185 -0.9521 -0.3332
 8220TIP3   OH246150   4.561   0.210  14.863 -0.0804  0.2948  0.6173
 8220TIP3    H146151   4.565   0.135  14.803 -1.3436  0.9220 -0.2779
 8220TIP3    H246152   4.641   0.202  14.916 -0.9432 -2.6053  1.6876
 8221TIP3   OH246153   1.539   1.202   1.534 -0.5442  0.5048  0.3112
 8221TIP3    H146154   1.470   1.252   1.579 -2.2947 -1.4349 -0.0786
 8221TIP3    H246155   1.586   1.268   1.482 -1.5179  2.0330  1.2840
 8222TIP3   OH246156   2.911   3.627   4.421 -0.0324  0.0640 -0.1026
 8222TIP3    H146157   2.822   3.658   4.404 -0.7327 -0.3915  2.3515
 8222TIP3    H246158   2.901   3.537   4.450  1.2093  0.0664  0.4226
 8223TIP3   OH246159   0.098   6.192   2.323 -0.4001  0.1522  0.0264
 8223TIP3    H146160   0.092   6.288   2.322  0.4043  0.3266  2.7029
 8223TIP3    H246161   0.192   6.175   2.335 -0.7031 -0.9174  0.9688
 8224TIP3   OH246162   4.999   0.534   1.418  0.7424  0.0544  0.0103
 8224TIP3    H146163   4.911   0.531   1.380  1.0230  0.0404 -0.6331
 8224TIP3    H246164   4.983   0.535   1.513  0.0808 -1.2643 -0.0650
 8225TIP3   OH246165   0.539   5.064  13.711  0.3014  0.0730  0.2683
 8225TIP3    H146166   0.516   5.128  13.645 -0.1587 -0.9771 -0.6311
 8225TIP3    H246167   0.492   4.984  13.685 -0.5189 -0.1700  2.2883
 8226TIP3   OH246168   3.853   3.543  15.976  0.5466 -0.1068 -0.4013
 8226TIP3    H146169   3.766   3.503  15.985  0.9163 -0.7706  0.4431
 8226TIP3    H246170   3.857   3.608  16.047  2.1145 -2.7632  2.1629
 8227TIP3   OH246171   4.935   3.744   4.656  0.1323  0.3595 -0.7256
 8227TIP3    H146172   5.007   3.750   4.719 -0.9001  0.7422  0.4784
 8227TIP3    H246173   4.903   3.655   4.665 -1.0207  0.8512  0.5180
 8228TIP3   OH246174   1.899   4.333  11.402  0.3492 -0.0106  0.0528
 8228TIP3    H146175   1.850   4.311  11.481  1.8664  0.8587  1.2943
 8228TIP3    H246176   1.956   4.258  11.387 -1.7885 -1.3957 -1.8736
 8229TIP3   OH246177   4.160   1.439   5.828  0.1045  0.5073 -0.1417
 8229TIP3    H146178   4.125   1.381   5.761 -0.9884  1.5479 -0.4900
 8229TIP3    H246179   4.183   1.520   5.781  2.0426  0.2521  0.2478
 8230TIP3   OH246180   3.321   1.385   3.998  0.5414  0.4955  0.4656
 8230TIP3    H146181   3.409   1.361   4.027 -0.1166 -0.4791  1.7848
 8230TIP3    H246182   3.286   1.439   4.069 -1.0067 -1.6973  1.4766
 8231TIP3   OH246183   6.047   4.038  13.588 -0.1048  0.1030 -0.0488
 8231TIP3    H146184   5.995   3.970  13.547  1.7739 -1.0118 -0.7083
 8231TIP3    H246185   6.038   4.113  13.529 -0.1114 -0.4164 -0.7229
 8232TIP3   OH246186   5.000   5.115   4.344 -0.0675  0.3336 -0.2921
 8232TIP3    H146187   5.091   5.088   4.333 -0.5354 -0.6615 -2.0492
 8232TIP3    H246188   4.965   5.120   4.255 -0.3541  5.9512 -0.2211
 8233TIP3   OH246189   6.137   6.628   1.144  0.9658  0.2552  0.0554
 8233TIP3    H146190   6.212   6.575   1.168 -1.3767 -2.5803  1.8606
 8233TIP3    H246191   6.121   6.684   1.220  1.8883  1.7832 -0.8209
 8234TIP3   OH246192   5.545   5.218   1.559 -0.4044 -0.2469 -0.3346
 8234TIP3    H146193   5.500   5.282   1.614 -2.2633 -2.3491  0.7418
 8234TIP3    H246194   5.479   5.191   1.495  0.2818 -1.2348 -0.6436
 8235TIP3   OH246195   4.265   1.370   3.093  0.9166  0.2585 -0.2347
 8235TIP3    H146196   4.360   1.372   3.079  1.1195 -1.5667  0.5786
 8235TIP3    H246197   4.247   1.279   3.115 -1.1497  0.4130 -1.1289
 8236TIP3   OH246198   3.020   0.046  16.671 -0.0632 -0.3675  0.1365
 8236TIP3    H146199   3.013  -0.021  16.603 -1.2344 -0.0969 -0.0192
 8236TIP3    H246200   2.937   0.092  16.668  0.6896  1.0537  0.2974
 8237TIP3   OH246201   6.261   0.487   2.733  0.3851 -0.1564  0.1301
 8237TIP3    H146202   6.177   0.494   2.688  0.2372  2.2842  0.6483
 8237TIP3    H246203   6.253   0.409   2.788 -1.0773 -0.6395 -0.7274
 8238TIP3   OH246204   5.340   1.843  11.312 -0.5781 -0.5570  0.5118
 8238TIP3    H146205   5.414   1.902  11.297 -0.6316 -0.5027  0.4656
 8238TIP3    H246206   5.263   1.894  11.290 -0.5652 -0.9924 -0.6512
 8239TIP3   OH246207   2.825   6.185   2.474  0.1917  0.1772 -0.5923
 8239TIP3    H146208   2.901   6.180   2.532  1.7638  1.4997 -2.4059
 8239TIP3    H246209   2.755   6.220   2.529  1.6751  1.5755  0.4963
 8240TIP3   OH246210   1.362   1.067   3.304 -0.1177  0.7787  0.0792
 8240TIP3    H146211   1.292   1.088   3.365 -0.0358 -2.5121  1.5403
 8240TIP3    H246212   1.326   0.996   3.250  0.6206  2.0495 -2.2495
 8241TIP3   OH246213   4.756   6.618  16.135  0.2334 -0.8193 -0.6511
 8241TIP3    H146214   4.840   6.658  16.111 -0.8504  3.3008  1.4580
 8241TIP3    H246215   4.692   6.663  16.080 -0.9358 -0.9298  0.5638
 8242TIP3   OH246216   1.775   0.780  13.789 -0.3432  0.3421  0.8028
 8242TIP3    H146217   1.740   0.724  13.720  0.3991 -0.0126  0.7016
 8242TIP3    H246218   1.825   0.847  13.743 -2.7103  2.2288  0.8130
 8243TIP3   OH246219   4.470   3.508   5.184  0.0756  0.1376 -0.1101
 8243TIP3    H146220   4.469   3.464   5.270 -0.7439  1.8241  0.7955
 8243TIP3    H246221   4.551   3.478   5.143  2.2600  1.7984  2.6267
 8244TIP3   OH246222   6.283   3.724  12.995  0.2400 -0.4191 -0.3473
 8244TIP3    H146223   6.216   3.660  13.019  0.5082 -0.7625 -0.4950
 8244TIP3    H246224   6.306   3.701  12.904 -1.1321  1.1779 -1.1591
 8245TIP3   OH246225   3.863   6.360   3.818  0.0835 -0.2266 -0.1221
 8245TIP3    H146226   3.773   6.327   3.818  0.4439 -1.2600  0.3382
 8245TIP3    H246227   3.870   6.411   3.737 -0.4790 -1.4215 -0.9547
 8246TIP3   OH246228   1.759   4.690   3.531  0.2174  0.3649 -0.3975
 8246TIP3    H146229   1.844   4.696   3.574 -0.3562 -1.1839  1.0793
 8246TIP3    H246230   1.762   4.607   3.484  0.0856  1.0755 -1.6913
 8247TIP3   OH246231   5.636   4.068   3.575  0.5268 -0.3344 -0.7126
 8247TIP3    H146232   5.541   4.056   3.564  0.5121 -0.6118 -0.3076
 8247TIP3    H246233   5.659   4.137   3.512  0.2115 -0.8875 -1.4552
 8248TIP3   OH246234   1.880   6.100   4.178 -0.3245 -0.2005  0.9703
 8248TIP3    H146235   1.967   6.098   4.139 -1.7432 -1.3850 -2.5252
 8248TIP3    H246236   1.848   6.011   4.171 -2.2452  0.4318  1.1489
 8249TIP3   OH246237   3.437   1.710   5.946 -0.2471  0.3345 -0.0703
 8249TIP3    H146238   3.441   1.725   5.852  0.7806  1.0312  0.0669
 8249TIP3    H246239   3.400   1.791   5.982 -1.6566 -0.3397  0.0438
 8250TIP3   OH246240   0.552   6.598   0.903 -0.5364  0.2424  0.1081
 8250TIP3    H146241   0.609   6.674   0.891 -0.8202  0.3576 -0.5373
 8250TIP3    H246242   0.596   6.546   0.970  0.0232  0.6259  0.0469
 8251TIP3   OH246243   1.170   1.290  12.227  0.0830 -0.5583 -0.3946
 8251TIP3    H146244   1.190   1.371  12.179  0.2491  0.3666  1.1813
 8251TIP3    H246245   1.215   1.221  12.177  0.2151  0.3436 -1.5756
 8252TIP3   OH246246   4.276   6.299  15.198  0.0999 -0.5421 -0.2614
 8252TIP3    H146247   4.325   6.323  15.276 -1.4704 -0.2431  0.6710
 8252TIP3    H246248   4.343   6.275  15.134  1.4362 -0.3296  1.0105
 8253TIP3   OH246249   4.505   3.539   2.462  0.5411 -0.1694  0.6510
 8253TIP3    H146250   4.540   3.615   2.508 -0.2931  1.0578 -0.6431
 8253TIP3    H246251   4.509   3.468   2.526  0.2764  1.2302  2.2958
 8254TIP3   OH246252   0.678   0.821   3.667  0.1122  0.6808  0.8522
 8254TIP3    H146253   0.723   0.886   3.612  0.1954 -0.8497 -0.9575
 8254TIP3    H246254   0.749   0.781   3.718  0.4725  0.1305 -0.0494
 8255TIP3   OH246255   6.338   5.525   4.914 -0.6592 -0.7693  0.3009
 8255TIP3    H146256   6.334   5.603   4.859  0.6362 -0.9053 -0.0166
 8255TIP3    H246257   6.248   5.492   4.914 -1.1686  0.5435  0.2002
 8256TIP3   OH246258   3.756   5.867  12.280 -1.1103 -0.3542 -0.1811
 8256TIP3    H146259   3.716   5.876  12.367 -1.8197  1.4060 -0.6443
 8256TIP3    H246260   3.687   5.828  12.226 -0.9673 -0.6548 -0.1439
 8257TIP3   OH246261   0.962   3.996   5.859 -0.6510 -0.4478  0.2280
 8257TIP3    H146262   0.963   3.901   5.849  1.0233 -0.7935  2.8131
 8257TIP3    H246263   1.029   4.014   5.924  1.5826  2.8818 -2.6575
 8258TIP3   OH246264   5.035   5.294  10.634 -0.3502  0.4071  0.4982
 8258TIP3    H146265   5.107   5.316  10.692  0.8106  0.6187 -0.9536
 8258TIP3    H246266   4.998   5.378  10.608  1.5737  0.6187 -1.9617
 8259TIP3   OH246267   5.972   3.264  11.491 -1.0134  0.2151  0.3194
 8259TIP3    H146268   6.060   3.298  11.477  0.5527 -2.7762  2.0186
 8259TIP3    H246269   5.968   3.245  11.584 -2.5365 -1.9889 -0.1205
 8260TIP3   OH246270   6.229   2.886   2.068 -0.4082  0.4100 -0.1020
 8260TIP3    H146271   6.134   2.899   2.063 -0.4712  0.0763  0.1505
 8260TIP3    H246272   6.241   2.828   2.144 -0.3348 -2.5419 -2.1979
 8261TIP3   OH246273   5.103   3.822   1.506  0.8892 -0.0795 -0.3847
 8261TIP3    H146274   5.029   3.779   1.548  1.3999  0.5907  1.2906
 8261TIP3    H246275   5.153   3.750   1.467  0.7191 -0.8319  0.7119
 8262TIP3   OH246276   1.238   5.208   4.890  0.1220  0.0389  0.2990
 8262TIP3    H146277   1.216   5.125   4.933 -2.0949  0.8747  0.9530
 8262TIP3    H246278   1.293   5.183   4.817 -0.7815 -2.0810  0.2469
 8263TIP3   OH246279   0.534   4.208  13.254  0.0822 -0.2499 -0.0319
 8263TIP3    H146280   0.586   4.174  13.181 -0.1624 -0.1140 -0.2742
 8263TIP3    H246281   0.553   4.150  13.327 -0.0864 -0.7198 -0.3550
 8264TIP3   OH246282   1.543   4.038  17.259  0.4700  0.8558  0.1063
 8264TIP3    H146283   1.539   3.943  17.269  1.5410  1.0198  2.8472
 8264TIP3    H246284   1.518   4.053  17.168  0.7734 -2.0701 -0.5664
 8265TIP3   OH246285   5.362   4.379  14.798 -0.1015 -0.3264  0.3124
 8265TIP3    H146286   5.356   4.474  14.793 -2.0252 -0.3882  0.6569
 8265TIP3    H246287   5.298   4.347  14.735  1.9938 -1.4723 -1.3645
 8266TIP3   OH246288   2.320   5.795  14.376  0.4129  0.0357  0.4993
 8266TIP3    H146289   2.227   5.789  14.356  0.5500 -2.0536  0.2412
 8266TIP3    H246290   2.363   5.797  14.290  0.6379 -0.1573  0.6032
 8267TIP3   OH246291   5.679   5.654  11.950 -0.2236 -0.2661 -0.8662
 8267TIP3    H146292   5.646   5.731  11.904 -2.1911 -0.5824 -0.0959
 8267TIP3    H246293   5.624   5.582  11.919  1.3557 -1.3215 -1.3186
 8268TIP3   OH246294   5.871   5.836   0.035  0.4330 -0.0377  0.0513
 8268TIP3    H146295   5.962   5.855   0.011  1.1719 -1.4623  1.5679
 8268TIP3    H246296   5.843   5.913   0.084  1.4192 -0.2849  1.0525
 8269TIP3   OH246297   1.791   2.996  14.117 -0.2239 -0.0283  0.3110
 8269TIP3    H146298   1.855   3.068  14.114  1.4021 -1.4484 -0.5445
 8269TIP3    H246299   1.760   2.988  14.027 -1.1942  0.2702  0.6127
 8270TIP3   OH246300   1.423   0.142   4.363 -0.3090  0.2029  0.0281
 8270TIP3    H146301   1.449   0.133   4.454  1.9485  1.1177 -0.4587
 8270TIP3    H246302   1.401   0.053   4.335  0.3465 -0.2990  1.0823
 8271TIP3   OH246303   2.787   3.821  13.625  0.1827 -0.3199  0.5069
 8271TIP3    H146304   2.881   3.840  13.617  0.1682 -0.6202 -0.5154
 8271TIP3    H246305   2.760   3.795  13.536 -0.7777 -0.6423  0.8816
 8272TIP3   OH246306   6.003   2.806  13.403  0.1063  0.6819  0.1206
 8272TIP3    H146307   5.908   2.823  13.405  0.2295  1.4915 -0.6685
 8272TIP3    H246308   6.016   2.738  13.470 -0.8978  1.2148  0.8884
 8273TIP3   OH246309   3.578   3.117  13.490 -0.0477  0.6980 -0.1460
 8273TIP3    H146310   3.491   3.109  13.450 -1.0014 -2.4375  2.1407
 8273TIP3    H246311   3.639   3.095  13.420 -1.3142 -0.0444 -1.0554
 8274TIP3   OH246312   5.674   0.722  14.721 -0.4797 -0.2394  0.4359
 8274TIP3    H146313   5.691   0.757  14.808 -0.9247  2.6021 -0.5361
 8274TIP3    H246314   5.579   0.719  14.714 -0.4521 -0.1474 -0.0535
 8275TIP3   OH246315   1.885   5.752   2.298  0.0031  0.1824  0.0885
 8275TIP3    H146316   1.947   5.824   2.313 -0.4985  0.2800  1.8996
 8275TIP3    H246317   1.915   5.712   2.217  1.5907  1.1093  0.1713
 8276TIP3   OH246318   5.842   2.005  14.537 -0.1236  0.5700  0.0756
 8276TIP3    H146319   5.935   2.004  14.514 -0.2854  3.3408 -1.0771
 8276TIP3    H246320   5.838   1.966  14.624  2.1163  0.4403  0.1661
 8277TIP3   OH246321   3.138   4.517   2.791 -0.0104  0.1364 -0.3251
 8277TIP3    H146322   3.104   4.562   2.868 -0.1253 -0.1789 -0.1903
 8277TIP3    H246323   3.232   4.514   2.806 -0.2132 -1.7959  0.8334
 8278TIP3   OH246324   5.303   3.093   1.781  0.3526 -0.3141 -0.2745
 8278TIP3    H146325   5.313   3.133   1.867  0.9731 -2.1133  0.5544
 8278TIP3    H246326   5.368   3.022   1.780 -1.8199 -2.4477 -0.9004
 8279TIP3   OH246327   5.808   1.150   5.942  0.2878 -0.3284  0.7466
 8279TIP3    H146328   5.724   1.175   5.981  0.3173  1.3960 -0.1959
 8279TIP3    H246329   5.841   1.081   6.000 -0.4913  0.8685  2.7406
 8280TIP3   OH246330   1.811   3.239  16.702 -0.7491 -0.4843 -0.4172
 8280TIP3    H146331   1.787   3.248  16.610 -0.4665  1.7183 -0.3104
 8280TIP3    H246332   1.797   3.325  16.739  0.4806 -0.9817  1.3033
 8281TIP3   OH246333   2.717   4.379  13.233  0.0416  0.1020  0.5960
 8281TIP3    H146334   2.741   4.389  13.140  0.2508  1.6340  0.7954
 8281TIP3    H246335   2.724   4.285  13.249 -1.1107 -0.3468 -1.2293
 8282TIP3   OH246336   1.454   1.084   0.514  0.4125 -0.5616  0.2031
 8282TIP3    H146337   1.477   1.067   0.423  0.4243 -2.1099  0.4697
 8282TIP3    H246338   1.538   1.089   0.559  0.4569  1.3555 -0.0293
 8283TIP3   OH246339   4.403   2.908   2.132  0.6620 -0.3792  0.7792
 8283TIP3    H146340   4.329   2.849   2.117 -0.8904  1.4069  1.0256
 8283TIP3    H246341   4.480   2.851   2.128 -0.6158 -2.1539 -0.5575
 8284TIP3   OH246342   2.061   2.948  11.722 -0.2039  0.3890 -0.0650
 8284TIP3    H146343   2.043   2.988  11.637 -0.1714  0.1303 -0.1948
 8284TIP3    H246344   2.155   2.958  11.734 -0.1987  0.3682 -0.0893
 8285TIP3   OH246345   4.004   5.756   5.763 -0.2608  0.0182  0.0551
 8285TIP3    H146346   3.959   5.822   5.817 -0.9316  0.2068 -0.7136
 8285TIP3    H246347   4.069   5.718   5.821  0.1459  1.3679  0.5315
 8286TIP3   OH246348   1.631   1.029   6.248  0.3558 -0.2815 -0.3645
 8286TIP3    H146349   1.576   1.099   6.214 -0.5225 -0.9780 -0.4209
 8286TIP3    H246350   1.594   1.010   6.334  1.4799  0.2872  0.2608
 8287TIP3   OH246351   6.019   6.740  14.547 -0.3949 -0.5301  0.0229
 8287TIP3    H146352   5.979   6.786  14.473 -0.7712 -0.1723  0.4438
 8287TIP3    H246353   5.969   6.769  14.624 -0.2819 -1.2213  0.3673
 8288TIP3   OH246354   4.880   5.794   4.305  0.0565  0.6472  0.3578
 8288TIP3    H146355   4.796   5.811   4.348 -0.0301  0.6123  0.2040
 8288TIP3    H246356   4.941   5.852   4.349  0.1056  0.1365  0.9743
 8289TIP3   OH246357   0.218   6.406   4.017  0.2124  0.5136 -0.2466
 8289TIP3    H146358   0.233   6.456   3.936  0.1066  0.4237 -0.3202
 8289TIP3    H246359   0.184   6.322   3.988  2.1294 -0.3259 -0.2569
 8290TIP3   OH246360   2.652   6.537  14.874  0.2096  0.2165 -0.1818
 8290TIP3    H146361   2.644   6.487  14.793 -0.6161  0.8882 -0.5276
 8290TIP3    H246362   2.719   6.603  14.856  1.7118 -1.0661  0.4576
 8291TIP3   OH246363   4.767   5.820   3.377 -0.5219  0.4449  1.1099
 8291TIP3    H146364   4.740   5.761   3.447 -0.0594  1.2767  2.0250
 8291TIP3    H246365   4.853   5.788   3.350 -1.6093 -1.2027 -0.6523
 8292TIP3   OH246366   1.775   2.519  16.839 -0.3583  0.5644 -0.2633
 8292TIP3    H146367   1.865   2.550  16.846 -0.3498  0.1116  2.7118
 8292TIP3    H246368   1.723   2.582  16.889 -1.0463 -1.3831  1.6005
 8293TIP3   OH246369   1.861   3.252   2.415 -0.3197  0.5721  0.2695
 8293TIP3    H146370   1.815   3.199   2.350  1.0930 -0.5355  0.1120
 8293TIP3    H246371   1.903   3.321   2.364  0.5899 -0.1536  0.0110
 8294TIP3   OH246372   0.552   2.875   4.012 -0.5418  0.4020 -0.8931
 8294TIP3    H146373   0.528   2.901   4.101  0.5830 -1.3849 -0.0077
 8294TIP3    H246374   0.471   2.838   3.975 -0.7684  0.2213 -0.2348
 8295TIP3   OH246375   2.950   6.130  14.737  0.0721  0.3113 -0.2372
 8295TIP3    H146376   2.888   6.150  14.806 -0.4860 -0.5470 -0.4774
 8295TIP3    H246377   3.029   6.179  14.761 -0.4881  0.9359  0.3835
 8296TIP3   OH246378   6.225   2.137  10.692 -0.0102  0.2539  0.7308
 8296TIP3    H146379   6.181   2.222  10.698 -0.9777  0.1554 -2.5437
 8296TIP3    H246380   6.310   2.156  10.652 -0.4664 -0.3169 -0.5683
 8297TIP3   OH246381   0.851   1.533   5.894  0.5182 -0.1883  0.0960
 8297TIP3    H146382   0.776   1.473   5.890 -0.1873  0.4984  2.0211
 8297TIP3    H246383   0.890   1.517   5.980  1.6780  0.5321 -0.2834
 8298TIP3   OH246384   1.750   4.821  15.955  0.3096  0.1833 -0.1599
 8298TIP3    H146385   1.792   4.763  16.019 -2.5739 -1.6467  0.2726
 8298TIP3    H246386   1.725   4.898  16.005  0.1849 -0.1906  0.3642
 8299TIP3   OH246387   6.248   6.499  16.990 -0.4278  0.1147  0.0936
 8299TIP3    H146388   6.275   6.587  16.964  0.2596  0.0226  0.4638
 8299TIP3    H246389   6.257   6.499  17.086  0.9928 -0.7941 -0.0155
 8300TIP3   OH246390   0.593   4.372   3.124 -0.3870 -0.2349  0.3833
 8300TIP3    H146391   0.611   4.450   3.177 -0.3750 -0.0035  0.0455
 8300TIP3    H246392   0.680   4.336   3.105 -0.4604 -2.2969  3.3766
 8301TIP3   OH246393   3.917   0.311   2.277 -0.1224 -0.1343 -0.0778
 8301TIP3    H146394   3.991   0.256   2.254 -0.4754 -0.7247  0.1850
 8301TIP3    H246395   3.907   0.298   2.372  0.9683  1.8225  0.3685
 8302TIP3   OH246396   6.380   6.494   1.201  0.1734 -0.7841 -0.2013
 8302TIP3    H146397   6.395   6.429   1.270  0.9178 -0.4030 -0.0021
 8302TIP3    H246398   6.348   6.442   1.127 -0.6509 -1.1971  0.4219
 8303TIP3   OH246399   5.017   1.490  15.731  0.0370 -0.4494  0.3666
 8303TIP3    H146400   4.948   1.554  15.748  1.2616  1.1474 -0.3852
 8303TIP3    H246401   4.989   1.444  15.653 -1.1824 -1.3494  1.2955
 8304TIP3   OH246402   3.567   1.308   3.068 -0.0444 -0.8661  0.4747
 8304TIP3    H146403   3.611   1.233   3.108  0.5501 -1.0893 -0.5515
 8304TIP3    H246404   3.502   1.270   3.009 -1.6503 -0.5374  1.9434
 8305TIP3   OH246405   4.574   3.584   2.081  0.2885  0.5699  0.6913
 8305TIP3    H146406   4.667   3.565   2.068 -0.0978 -1.1382  0.1042
 8305TIP3    H246407   4.541   3.605   1.994  0.2770  2.0722  1.0302
 8306TIP3   OH246408   6.152   3.763  15.816  0.0144 -0.1481 -0.4939
 8306TIP3    H146409   6.194   3.846  15.793  1.5216 -0.5570  0.6415
 8306TIP3    H246410   6.194   3.698  15.760 -0.9677 -0.2127 -1.1855
 8307TIP3   OH246411   4.818   6.515  13.318 -0.4430  0.1242 -0.1896
 8307TIP3    H146412   4.783   6.583  13.261 -2.5902 -0.0335  0.8335
 8307TIP3    H246413   4.904   6.548  13.345 -0.2753  1.1378 -1.8334
 8308TIP3   OH246414   6.162   5.850   3.331  0.2470  0.3616 -0.1587
 8308TIP3    H146415   6.135   5.758   3.330 -1.9538  0.8684  2.3652
 8308TIP3    H246416   6.114   5.890   3.258  0.5775 -0.2876 -0.7534
 8309TIP3   OH246417   5.835   1.618   3.811 -0.3895 -0.5572  0.1616
 8309TIP3    H146418   5.845   1.539   3.863  0.7003 -1.2825 -1.0910
 8309TIP3    H246419   5.922   1.658   3.810 -0.3385 -0.6432 -1.1780
 8310TIP3   OH246420   6.780   0.518  12.094  0.1898  0.3068 -0.2668
 8310TIP3    H146421   6.867   0.548  12.065  0.0322  0.3751 -0.6855
 8310TIP3    H246422   6.771   0.553  12.182  0.4098  0.6775 -0.3881
 8311TIP3   OH246423   5.199   5.181  16.561  0.5231  0.0643 -0.2473
 8311TIP3    H146424   5.229   5.106  16.510  0.6179  0.9919 -1.6030
 8311TIP3    H246425   5.103   5.180  16.552  0.2570 -1.3298  1.8603
 8312TIP3   OH246426   3.852   6.684  15.132 -0.3370  0.2101  0.4373
 8312TIP3    H146427   3.811   6.734  15.203  0.2521 -0.0754  0.9813
 8312TIP3    H246428   3.924   6.636  15.174  0.2092  0.2748 -0.4044
 8313TIP3   OH246429   3.602   3.604  11.531  0.0614  0.5566 -0.1792
 8313TIP3    H146430   3.596   3.592  11.626 -0.0077  2.5521  0.1248
 8313TIP3    H246431   3.694   3.623  11.515  0.3126 -0.9861 -0.7155
 8314TIP3   OH246432   3.462   4.823   6.057  0.1222 -0.1386 -0.2435
 8314TIP3    H146433   3.480   4.846   6.148  2.2821  0.4969 -0.7823
 8314TIP3    H246434   3.367   4.828   6.050 -0.0334  0.7294  1.7333
 8315TIP3   OH246435   6.240   2.073   1.183  0.0339  0.3448  0.1073
 8315TIP3    H146436   6.271   2.128   1.256 -0.5912  0.0972  0.5723
 8315TIP3    H246437   6.266   2.121   1.105  1.6547  0.1081  0.4622
 8316TIP3   OH246438   4.786   5.069  11.804  0.2208  0.7091 -0.3929
 8316TIP3    H146439   4.811   5.008  11.734 -1.1071  0.3562 -0.5805
 8316TIP3    H246440   4.724   5.129  11.762 -1.7495 -0.3949  0.7844
 8317TIP3   OH246441   4.166   1.320  11.796  0.4079  0.7059  0.3039
 8317TIP3    H146442   4.087   1.346  11.749 -0.4479  1.7766  2.2190
 8317TIP3    H246443   4.207   1.254  11.740 -3.0558 -1.6736  0.2389
 8318TIP3   OH246444   0.186   6.480   0.868 -0.5222  0.2492 -0.3658
 8318TIP3    H146445   0.209   6.479   0.776 -0.5476 -0.5216 -0.3709
 8318TIP3    H246446   0.249   6.539   0.909 -0.2354  0.2462 -0.8062
 8319TIP3   OH246447   0.207   5.889   0.032  0.2391 -0.0741  0.0146
 8319TIP3    H146448   0.211   5.968   0.086  0.8889 -0.9103  1.2348
 8319TIP3    H246449   0.114   5.875   0.018  0.0615  0.2874  0.7511
 8320TIP3   OH246450   4.927   3.805  13.896 -0.0999 -0.3161 -0.3808
 8320TIP3    H146451   5.000   3.743  13.900 -0.5940 -1.0541 -1.8354
 8320TIP3    H246452   4.864   3.763  13.837 -0.5576  1.4680 -1.2284
 8321TIP3   OH246453   0.784   3.813  13.351  0.5125 -0.0417 -0.0247
 8321TIP3    H146454   0.839   3.739  13.372 -0.2524 -0.7304 -0.3922
 8321TIP3    H246455   0.789   3.870  13.428  0.6772 -0.7386  0.4852
 8322TIP3   OH246456   5.202   0.825  11.437  0.1826 -0.3393 -0.2487
 8322TIP3    H146457   5.227   0.773  11.514 -0.1571 -0.2324 -0.0666
 8322TIP3    H246458   5.257   0.903  11.443  0.4400 -0.5115 -0.3307
 8323TIP3   OH246459   1.886   2.193  14.889  0.2715 -0.0745  0.2762
 8323TIP3    H146460   1.853   2.282  14.902 -0.3759 -0.3727  0.7377
 8323TIP3    H246461   1.864   2.147  14.970  1.5573 -0.3718  0.4745
 8324TIP3   OH246462   2.383   5.071   2.836 -0.1333 -0.2763 -0.2423
 8324TIP3    H146463   2.342   5.157   2.845  0.5333  0.2648 -1.9945
 8324TIP3    H246464   2.364   5.044   2.746  1.0140 -1.2395 -0.2274
 8325TIP3   OH246465   4.824   1.355  10.884  0.2209 -0.0720  0.6660
 8325TIP3    H146466   4.879   1.383  10.811  0.4293  0.9261  1.1901
 8325TIP3    H246467   4.838   1.421  10.951 -2.3544  0.7746  0.4768
 8326TIP3   OH246468   2.920   4.528   6.336 -0.0820 -0.2716 -0.6740
 8326TIP3    H146469   2.837   4.575   6.341  1.5011  2.7090 -0.4054
 8326TIP3    H246470   2.935   4.496   6.425 -0.4426  0.0378 -0.5006
 8327TIP3   OH246471   4.393   2.598  16.229  0.1493 -0.3407 -0.8652
 8327TIP3    H146472   4.444   2.532  16.277  0.3466  0.5055  0.1212
 8327TIP3    H246473   4.327   2.628  16.291 -0.7621 -0.5013 -1.7230
 8328TIP3   OH246474   6.560   4.547  14.299  0.4016 -0.0616  0.0481
 8328TIP3    H146475   6.501   4.524  14.371 -2.7353  1.5749 -1.7705
 8328TIP3    H246476   6.511   4.610  14.246  4.0517  1.8936 -1.4242
 8329TIP3   OH246477   4.407   6.782  11.927  0.0357 -0.1610 -0.2668
 8329TIP3    H146478   4.440   6.692  11.918 -1.4794 -0.7447 -0.3508
 8329TIP3    H246479   4.389   6.810  11.837  0.3508  0.1638 -0.2287
 8330TIP3   OH246480   6.705   4.839   4.773  0.2684  0.6165  0.6653
 8330TIP3    H146481   6.710   4.842   4.677 -0.4704  2.2807  0.6556
 8330TIP3    H246482   6.795   4.857   4.802  0.7039 -0.8105  0.3209
 8331TIP3   OH246483   1.750   2.206  13.334 -0.1904 -0.0035 -0.1551
 8331TIP3    H146484   1.758   2.111  13.324 -2.0043  0.0386 -2.7772
 8331TIP3    H246485   1.832   2.232  13.377  1.3634 -2.4964 -1.3679
 8332TIP3   OH246486   0.804   0.805   0.302  0.6495  0.0739  0.4636
 8332TIP3    H146487   0.841   0.717   0.293  0.1135 -0.1610  0.5125
 8332TIP3    H246488   0.782   0.812   0.395  0.6010  0.2252  0.4408
 8333TIP3   OH246489   0.217   3.158  16.534 -0.0094  0.6770 -0.1134
 8333TIP3    H146490   0.126   3.144  16.506 -0.5782  1.9043  1.0377
 8333TIP3    H246491   0.232   3.252  16.522  1.3286  0.3933 -0.8703
 8334TIP3   OH246492   3.419   1.990   3.643 -1.2496 -0.2165  0.1413
 8334TIP3    H146493   3.416   2.063   3.582 -0.6105 -0.2491  0.0681
 8334TIP3    H246494   3.346   1.933   3.615  0.1290 -1.1572 -1.7742
 8335TIP3   OH246495   0.270   1.663  16.096 -0.1776 -0.2828  0.2098
 8335TIP3    H146496   0.186   1.625  16.070 -0.4052 -1.0041  1.8582
 8335TIP3    H246497   0.289   1.623  16.182  1.5181  0.3731  0.1823
 8336TIP3   OH246498   1.146   0.785  11.529 -0.5250 -0.4355 -0.0751
 8336TIP3    H146499   1.233   0.772  11.491 -0.7084 -1.4677 -0.1889
 8336TIP3    H246500   1.139   0.879  11.543  0.2258 -0.2295 -0.9921
 8337TIP3   OH246501   0.512   3.254   4.510  0.8549  0.0338 -0.0046
 8337TIP3    H146502   0.591   3.294   4.476  0.2107  0.6558 -0.8253
 8337TIP3    H246503   0.441   3.309   4.476  0.1491  0.5674  2.1685
 8338TIP3   OH246504   1.414   6.487  12.299  0.0706  0.1300  0.9655
 8338TIP3    H146505   1.422   6.399  12.261 -0.2286 -1.3008  3.9582
 8338TIP3    H246506   1.502   6.523  12.294  0.2033 -0.2981 -0.3050
 8339TIP3   OH246507   6.580   2.469   2.875  0.2239 -0.1807 -0.1664
 8339TIP3    H146508   6.617   2.447   2.789 -0.4616 -0.0288 -0.5080
 8339TIP3    H246509   6.617   2.403   2.934 -2.2722 -2.7786 -1.2823
 8340TIP3   OH246510   6.095   3.165   7.072 -0.1233  0.5134  0.4148
 8340TIP3    H146511   6.088   3.095   7.137  2.8043  0.7446  1.1158
 8340TIP3    H246512   6.173   3.144   7.022 -0.3817  2.1810 -0.7823
 8341TIP3   OH246513   1.936   1.816   3.182  0.3256  0.5674  0.2193
 8341TIP3    H146514   2.019   1.851   3.151 -0.3352  1.2721 -0.8020
 8341TIP3    H246515   1.883   1.893   3.202  0.1598  0.1331  1.6129
 8342TIP3   OH246516   1.213   2.253  13.728 -0.4583  0.1199  0.2753
 8342TIP3    H146517   1.121   2.245  13.700 -0.6024  2.0634  0.1133
 8342TIP3    H246518   1.207   2.282  13.819 -0.0535  1.8425 -0.2109
 8343TIP3   OH246519   3.478   5.310  11.280 -0.4072  0.7094  0.6445
 8343TIP3    H146520   3.458   5.345  11.194  0.1892 -0.3134  0.0640
 8343TIP3    H246521   3.433   5.368  11.341  1.0008  2.8142 -0.2074
 8344TIP3   OH246522   4.635   0.274   6.393 -0.4552 -0.4616 -0.1404
 8344TIP3    H146523   4.607   0.362   6.369  1.3845  0.5025  0.9841
 8344TIP3    H246524   4.555   0.221   6.390 -1.7612  1.4253 -0.0320
 8345TIP3   OH246525   6.065   5.857  15.964 -0.2353  0.0612 -0.0936
 8345TIP3    H146526   5.979   5.889  15.989  0.0929  0.6092  0.3648
 8345TIP3    H246527   6.101   5.927  15.909 -1.5178 -1.7097 -3.4542
 8346TIP3   OH246528   1.363   4.238  11.020  0.8965 -0.3874 -0.2890
 8346TIP3    H146529   1.365   4.209  10.928  1.4675  0.8831 -0.6953
 8346TIP3    H246530   1.297   4.182  11.061 -0.1539 -0.2628 -1.7316
 8347TIP3   OH246531   0.220   3.678   0.353  0.1709  0.4064  0.1279
 8347TIP3    H146532   0.252   3.588   0.341 -1.1827  0.0059 -0.6084
 8347TIP3    H246533   0.191   3.681   0.444  2.9046  1.0147  1.0851
 8348TIP3   OH246534   0.932   4.895   4.511 -0.6887  0.7628  0.1094
 8348TIP3    H146535   0.855   4.889   4.454 -1.5932 -2.6201  1.4481
 8348TIP3    H246536   0.896   4.895   4.600  0.8321  1.1309  0.7583
 8349TIP3   OH246537   2.898   5.329  13.374 -0.6013 -0.2135  0.2327
 8349TIP3    H146538   2.963   5.268  13.409  0.9175  1.3599  0.3470
 8349TIP3    H246539   2.898   5.402  13.436 -2.8652 -0.3492  0.4733
 8350TIP3   OH246540   0.362   6.403  11.000  0.0781  0.5491  0.8078
 8350TIP3    H146541   0.380   6.400  10.906 -1.0009  0.3957  0.6007
 8350TIP3    H246542   0.427   6.465  11.034  0.2452  0.8890 -0.0907
 8351TIP3   OH246543   6.652   6.143   4.449  0.8712 -0.0390 -0.3439
 8351TIP3    H146544   6.558   6.125   4.443  0.7294  0.5606 -0.0505
 8351TIP3    H246545   6.679   6.100   4.530  0.5896  0.8065  0.2159
 8352TIP3   OH246546   6.118   4.320   6.831  0.1996 -0.0302 -0.5466
 8352TIP3    H146547   6.114   4.363   6.916  0.4873 -2.6475  0.8944
 8352TIP3    H246548   6.034   4.275   6.823  0.0978  0.3269 -1.7901
 8353TIP3   OH246549   0.882   5.891  12.683 -0.2527 -0.0683 -0.2358
 8353TIP3    H146550   0.791   5.867  12.702  0.0559 -1.8397 -0.8402
 8353TIP3    H246551   0.892   5.977  12.723 -2.1666  0.1338 -0.0688
 8354TIP3   OH246552   1.375   6.247   1.275  0.5062  0.2881 -0.7291
 8354TIP3    H146553   1.465   6.264   1.246  0.3768 -0.3090 -1.5137
 8354TIP3    H246554   1.321   6.295   1.213  0.2772  0.6518 -0.2547
 8355TIP3   OH246555   1.418   1.776  16.413 -0.9141 -0.6891 -0.0188
 8355TIP3    H146556   1.470   1.716  16.466  1.3352  0.5086 -0.7227
 8355TIP3    H246557   1.441   1.754  16.323 -0.6552  0.6330 -0.3068
 8356TIP3   OH246558   3.200   0.417  12.375  0.2739 -0.1334  0.2912
 8356TIP3    H146559   3.208   0.484  12.443 -0.8379 -1.3052  1.6565
 8356TIP3    H246560   3.250   0.451  12.301 -0.1885  2.1325  0.9583
 8357TIP3   OH246561   0.842   4.645   4.006 -0.4919  0.0927  0.0640
 8357TIP3    H146562   0.750   4.647   4.035 -0.7758 -1.4921 -0.6178
 8357TIP3    H246563   0.837   4.637   3.911  0.2897 -1.8961  0.1446
 8358TIP3   OH246564   2.672   1.076   0.727 -0.5110 -0.7258  0.3576
 8358TIP3    H146565   2.645   1.012   0.793  0.9347  0.6660  2.4240
 8358TIP3    H246566   2.755   1.110   0.760 -0.3859  0.9683 -1.5485
 8359TIP3   OH246567   0.081   2.321  16.393  0.0471  0.7819 -0.1444
 8359TIP3    H146568   0.038   2.359  16.469  0.0250 -0.6623  0.6085
 8359TIP3    H246569   0.103   2.396  16.337 -1.3402  1.7396  0.5382
 8360TIP3   OH246570   1.178   2.357  13.985  0.1490 -0.1119 -0.3290
 8360TIP3    H146571   1.161   2.451  13.992 -1.0695 -0.3310 -0.0373
 8360TIP3    H246572   1.269   2.347  14.013 -0.0578  0.8560  0.8142
 8361TIP3   OH246573   5.438   2.023   2.805 -0.0002  0.1665  0.0296
 8361TIP3    H146574   5.493   1.977   2.869 -1.0644  1.4777  1.9885
 8361TIP3    H246575   5.357   1.973   2.802 -0.2718  0.5719  0.3869
 8362TIP3   OH246576   4.397   1.223   3.951  0.1719 -0.1512  0.3894
 8362TIP3    H146577   4.358   1.137   3.967 -1.0336  0.2367 -0.3479
 8362TIP3    H246578   4.484   1.203   3.916 -0.8641 -1.1461 -1.7972
 8363TIP3   OH246579   2.989   3.026  16.320 -0.3524 -0.5495  0.4378
 8363TIP3    H146580   3.017   3.105  16.366 -1.5187 -0.2274  0.6277
 8363TIP3    H246581   2.964   3.056  16.232  0.6966 -0.9695 -0.0244
 8364TIP3   OH246582   5.965   5.780   1.328  0.6684  0.0422  0.6869
 8364TIP3    H146583   5.871   5.765   1.327  0.9078 -2.0671 -1.7765
 8364TIP3    H246584   6.003   5.694   1.349  2.0634  0.7263  1.1156
 8365TIP3   OH246585   3.860   2.925   3.891 -0.5596  0.0150  0.2185
 8365TIP3    H146586   3.844   2.869   3.815 -1.9663  1.7359 -0.8117
 8365TIP3    H246587   3.945   2.965   3.874 -0.3142 -0.5124  0.1646
 8366TIP3   OH246588   4.986   2.677  13.950 -0.0606  0.3265 -0.8688
 8366TIP3    H146589   4.932   2.674  13.871  1.3381  0.9416 -1.8699
 8366TIP3    H246590   4.988   2.769  13.974 -1.6865 -0.0061  0.7909
 8367TIP3   OH246591   2.617   1.689  14.754 -0.4367  0.3966 -0.2433
 8367TIP3    H146592   2.696   1.641  14.730 -0.7093 -0.3075  0.2385
 8367TIP3    H246593   2.627   1.706  14.848  0.0243  1.9920 -0.5494
 8368TIP3   OH246594   2.841   2.935  11.766 -0.2762 -0.2759  0.9657
 8368TIP3    H146595   2.770   2.979  11.813 -1.7518  1.1369 -2.2947
 8368TIP3    H246596   2.909   3.001  11.758 -0.0664 -0.4847  1.0031
 8369TIP3   OH246597   3.237   1.229  13.843 -0.3634 -0.2202 -0.0957
 8369TIP3    H146598   3.187   1.149  13.855 -0.4745  0.1770  2.6407
 8369TIP3    H246599   3.182   1.298  13.880  0.8698  0.7032  0.0859
 8370TIP3   OH246600   5.042   3.395  13.371  0.6764 -0.1581  0.1241
 8370TIP3    H146601   5.128   3.362  13.345  0.0940 -1.1528 -0.5922
 8370TIP3    H246602   5.050   3.413  13.464  1.4819 -0.8258  0.1900
 8371TIP3   OH246603   0.231   1.100  15.953  0.6962  0.0174  0.1038
 8371TIP3    H146604   0.308   1.043  15.950  0.2094 -0.6149 -0.7258
 8371TIP3    H246605   0.158   1.044  15.926 -0.0352  0.6520  0.7148
 8372TIP3   OH246606   1.364   0.298  15.391 -0.0246 -0.1795  0.2376
 8372TIP3    H146607   1.387   0.391  15.393 -0.0609 -0.1751  0.4975
 8372TIP3    H246608   1.337   0.282  15.301 -1.8962  0.5372  0.6134
 8373TIP3   OH246609   1.156   2.684  13.985 -0.0485  0.0477  0.7646
 8373TIP3    H146610   1.126   2.741  13.914 -0.0613 -1.3458 -0.4022
 8373TIP3    H246611   1.228   2.732  14.026  0.2124  0.7305 -0.4479
 8374TIP3   OH246612   3.232   3.633   4.902 -0.1153 -0.4242  0.7051
 8374TIP3    H146613   3.284   3.568   4.949  0.9557 -0.6782 -0.7622
 8374TIP3    H246614   3.279   3.647   4.820 -0.4189  2.0741  0.8827
 8375TIP3   OH246615   0.702   3.815   1.889  0.5831 -0.1085 -0.5732
 8375TIP3    H146616   0.747   3.900   1.886 -0.3486  0.4188 -0.0136
 8375TIP3    H246617   0.611   3.835   1.866 -0.3876 -0.4120  2.5243
 8376TIP3   OH246618   0.102   2.862   0.999  0.0166  0.1008 -0.1307
 8376TIP3    H146619   0.109   2.878   1.093 -3.0976 -0.4955  0.3377
 8376TIP3    H246620   0.025   2.913   0.973  0.4462 -0.2628 -2.2439
 8377TIP3   OH246621   6.266   2.724  16.535  0.3581  0.4764  0.1676
 8377TIP3    H146622   6.283   2.766  16.451  0.0293  1.3417  0.5204
 8377TIP3    H246623   6.176   2.691  16.527  0.7834 -0.6092 -0.2820
 8378TIP3   OH246624   5.620   4.441  10.617 -0.0768  0.0884 -0.4347
 8378TIP3    H146625   5.624   4.531  10.649 -1.5032 -0.8795  2.8633
 8378TIP3    H246626   5.685   4.394  10.670  0.1314 -1.0002 -1.6103
 8379TIP3   OH246627   3.689   0.124  14.890  0.3399 -0.1195 -1.2016
 8379TIP3    H146628   3.664   0.137  14.981 -0.9402 -0.4428 -1.4909
 8379TIP3    H246629   3.779   0.156  14.885 -0.0774  1.3140 -0.1594
 8380TIP3   OH246630   4.957   1.689  14.019 -0.3090 -0.3405  0.4408
 8380TIP3    H146631   5.018   1.635  13.968 -0.0201  1.4354 -1.2470
 8380TIP3    H246632   4.956   1.649  14.106  0.7730 -2.3158 -0.3817
 8381TIP3   OH246633   0.919   3.466   0.807  0.2825  0.2353 -0.1198
 8381TIP3    H146634   0.944   3.558   0.815  0.7413  0.0091  1.5046
 8381TIP3    H246635   0.825   3.466   0.829  0.0698  0.4131 -0.9944
 8382TIP3   OH246636   4.730   5.579  16.075 -0.5872  0.1717 -0.0338
 8382TIP3    H146637   4.647   5.595  16.031 -1.0015 -1.5205  0.0720
 8382TIP3    H246638   4.744   5.658  16.128 -3.8131 -0.7761  2.5563
 8383TIP3   OH246639   3.146   4.723   6.349 -0.1521 -1.2418  0.3695
 8383TIP3    H146640   3.143   4.816   6.371  0.7965 -1.0570 -0.2629
 8383TIP3    H246641   3.062   4.688   6.382 -0.5292 -0.1708  0.5734
 8384TIP3   OH246642   2.609   4.841   3.003  0.0232  0.0250  0.1670
 8384TIP3    H146643   2.560   4.827   2.922  0.4449 -1.2782  0.1200
 8384TIP3    H246644   2.701   4.832   2.978  0.1119 -2.0724  1.0569
 8385TIP3   OH246645   5.048   2.597  12.528  0.4464 -0.5705 -0.0884
 8385TIP3    H146646   5.140   2.582  12.509  0.4781 -3.7301  1.8201
 8385TIP3    H246647   5.002   2.521  12.492 -1.1699  0.0237  0.5824
 8386TIP3   OH246648   2.440   3.481   4.579 -0.7103  0.8537  0.0756
 8386TIP3    H146649   2.462   3.396   4.540 -0.2406  1.3023 -0.6823
 8386TIP3    H246650   2.512   3.498   4.640 -2.7388 -1.0695  3.3005
 8387TIP3   OH246651   4.236   3.108  12.158 -0.0638  0.1917 -0.1910
 8387TIP3    H146652   4.142   3.108  12.140 -0.6304 -2.1319  2.1736
 8387TIP3    H246653   4.252   3.194  12.197 -1.7967 -0.2146  1.6300
 8388TIP3   OH246654   6.634   6.401   3.872  0.0546  0.5898  0.3895
 8388TIP3    H146655   6.615   6.493   3.888  0.9962  1.0706 -1.0796
 8388TIP3    H246656   6.718   6.385   3.915 -0.3250  0.2749  1.0344
 8389TIP3   OH246657   2.679   1.506  15.523 -0.3357  0.9534 -0.0078
 8389TIP3    H146658   2.763   1.460  15.519 -0.1625  1.3446 -1.2216
 8389TIP3    H246659   2.621   1.446  15.569  0.7454  0.9091  1.3685
 8390TIP3   OH246660   5.688   4.777   5.741 -0.1456 -0.6751  0.0574
 8390TIP3    H146661   5.747   4.833   5.690  0.5637  0.0859  1.6248
 8390TIP3    H246662   5.608   4.829   5.750 -0.4902 -1.0555 -0.7552
 8391TIP3   OH246663   0.123   5.167  11.543  0.1431  0.2217  0.4942
 8391TIP3    H146664   0.083   5.244  11.584  0.5593 -0.0643  1.4741
 8391TIP3    H246665   0.203   5.200  11.501  0.8303  0.2015  1.7224
 8392TIP3   OH246666   0.968   2.104  13.621 -0.0273  0.4066 -0.4856
 8392TIP3    H146667   0.878   2.132  13.604  0.5541  1.5040 -2.0804
 8392TIP3    H246668   0.963   2.049  13.699 -2.1545 -0.0455 -0.8938
 8393TIP3   OH246669   0.432   1.052  16.681 -0.4598 -0.7223 -0.1637
 8393TIP3    H146670   0.510   0.997  16.697 -0.3352 -0.7517 -0.8613
 8393TIP3    H246671   0.390   1.013  16.605  0.9488  1.5468 -2.2416
 8394TIP3   OH246672   4.871   0.174   3.718 -0.7796 -0.0320 -0.5805
 8394TIP3    H146673   4.847   0.261   3.748 -0.7915  0.2109 -1.2750
 8394TIP3    H246674   4.939   0.189   3.652  0.7328 -0.6722  0.7927
 8395TIP3   OH246675   2.299   0.988  13.206  0.3158  0.2636  0.1062
 8395TIP3    H146676   2.247   1.046  13.151 -0.4751  0.3793  0.9506
 8395TIP3    H246677   2.271   0.899  13.182  0.7655  0.2645 -0.4403
 8396TIP3   OH246678   1.038   2.719  16.688 -0.3848 -0.0354 -0.2220
 8396TIP3    H146679   1.075   2.805  16.666 -1.2215  0.3239 -0.2712
 8396TIP3    H246680   1.105   2.676  16.741  1.3050 -0.5229 -2.5859
 8397TIP3   OH246681   3.598   3.612  15.266  0.4022 -0.8990 -0.6760
 8397TIP3    H146682   3.596   3.615  15.362 -0.4704 -1.0118 -0.6772
 8397TIP3    H246683   3.667   3.673  15.241  0.5264 -0.7492  0.0199
 8398TIP3   OH246684   6.664   0.815  17.351 -0.0711 -0.3796  0.4646
 8398TIP3    H146685   6.617   0.812  17.434  0.3095 -0.9468  0.6703
 8398TIP3    H246686   6.754   0.836  17.375 -0.0266 -0.2278  0.1688
 8399TIP3   OH246687   2.994   4.828  16.030 -0.2832  0.6589  0.1714
 8399TIP3    H146688   3.040   4.747  16.052 -0.0505  0.2161 -1.7314
 8399TIP3    H246689   3.043   4.897  16.074  0.0162 -0.1590  1.1366
 8400TIP3   OH246690   6.529   6.149   6.651 -0.1494 -0.4394 -0.3581
 8400TIP3    H146691   6.562   6.110   6.570 -1.1796 -0.9659 -0.5389
 8400TIP3    H246692   6.486   6.077   6.697 -1.9159  0.4065 -0.6071
 8401TIP3   OH246693   2.219   2.690  13.026 -0.6024 -0.1662  0.5340
 8401TIP3    H146694   2.203   2.765  12.969  0.5101  0.4586  1.0076
 8401TIP3    H246695   2.248   2.620  12.967 -0.6486  0.0893  0.2085
 8402TIP3   OH246696   1.275   1.619  14.209 -0.4394 -0.4326  0.2532
 8402TIP3    H146697   1.215   1.565  14.156  0.3685 -2.1229  0.9612
 8402TIP3    H246698   1.260   1.589  14.299  0.5943 -0.0322  0.5715
 8403TIP3   OH246699   1.192   4.088   3.313  0.7996  0.4495  0.1813
 8403TIP3    H146700   1.223   4.011   3.266 -2.2016  0.7700 -2.7713
 8403TIP3    H246701   1.108   4.061   3.351  0.8000  1.6110  1.0615
 8404TIP3   OH246702   4.512   1.502   5.518 -0.1550  0.4265  0.6746
 8404TIP3    H146703   4.446   1.466   5.458  0.1069 -0.4907  0.9296
 8404TIP3    H246704   4.482   1.592   5.535 -0.9457  0.2569  0.2242
 8405TIP3   OH246705   2.793   5.834   1.074  0.1013 -0.0892 -0.4233
 8405TIP3    H146706   2.835   5.810   1.156  1.2895  0.4707 -0.8494
 8405TIP3    H246707   2.831   5.775   1.009 -3.4248 -3.1181 -0.1219
 8406TIP3   OH246708   3.485   2.800   0.141  0.5235  0.2702 -0.5732
 8406TIP3    H146709   3.557   2.814   0.202  0.4736  1.8454 -0.8386
 8406TIP3    H246710   3.527   2.773   0.059  0.6629 -0.7596 -0.1700
 8407TIP3   OH246711   6.001   5.600   0.354  0.3308  0.1465  0.0703
 8407TIP3    H146712   6.073   5.542   0.379 -0.0146 -0.8022 -1.0003
 8407TIP3    H246713   6.039   5.687   0.351  1.2417 -0.2389  0.2990
 8408TIP3   OH246714   1.762   4.754   2.658 -0.0564  0.2390  0.3352
 8408TIP3    H146715   1.749   4.707   2.575 -1.3559  0.0126  0.6506
 8408TIP3    H246716   1.844   4.719   2.693 -0.4914 -1.0891  0.0858
 8409TIP3   OH246717   3.424   5.034   3.191  0.1971 -0.2001  0.3289
 8409TIP3    H146718   3.334   5.016   3.219  0.0255  0.5800  0.3263
 8409TIP3    H246719   3.476   4.962   3.226 -0.4567 -0.7576  0.1728
 8410TIP3   OH246720   5.226   5.007  17.206  0.4143 -0.0973 -0.2386
 8410TIP3    H146721   5.295   4.952  17.242  1.0546  2.1171  2.1861
 8410TIP3    H246722   5.230   4.993  17.111  3.3124 -0.9788 -0.0540
 8411TIP3   OH246723   5.111   3.864   4.343  0.8045  0.2016 -0.6209
 8411TIP3    H146724   5.044   3.912   4.392  1.4464  1.3995 -0.8793
 8411TIP3    H246725   5.123   3.915   4.263 -0.6933 -2.0569 -2.4055
 8412TIP3   OH246726   5.250   2.871  11.780 -0.6863  0.3904  0.2957
 8412TIP3    H146727   5.331   2.851  11.732 -0.7717 -1.6738  0.9324
 8412TIP3    H246728   5.260   2.963  11.806  1.1634  0.3690 -0.1861
 8413TIP3   OH246729   5.138   2.281   6.096 -0.2497 -0.5889 -0.0872
 8413TIP3    H146730   5.078   2.310   6.028 -1.4065 -2.4465  0.0733
 8413TIP3    H246731   5.082   2.258   6.170  0.8954  0.2662  1.0731
 8414TIP3   OH246732   1.814   6.166   0.563  0.0560 -0.1323 -0.6452
 8414TIP3    H146733   1.906   6.163   0.592  0.0285  1.2796 -0.3217
 8414TIP3    H246734   1.765   6.140   0.641  0.2068 -2.1861 -1.1940
 8415TIP3   OH246735   3.401   5.326  15.441 -0.0926 -0.4134  0.5004
 8415TIP3    H146736   3.388   5.408  15.393  0.5832 -0.4049  0.3274
 8415TIP3    H246737   3.479   5.287  15.403 -0.8244 -1.5174  0.0824
 8416TIP3   OH246738   1.641   1.081   2.829 -0.3134  0.0289 -0.1520
 8416TIP3    H146739   1.667   1.173   2.817 -2.7244  0.8976  0.5858
 8416TIP3    H246740   1.608   1.077   2.919  3.1867 -2.5656  1.2294
 8417TIP3   OH246741   3.614   4.105  11.378  0.6991 -0.2545 -0.0551
 8417TIP3    H146742   3.572   4.067  11.301  0.8004 -0.0496 -0.2100
 8417TIP3    H246743   3.676   4.039  11.407  2.2313  0.5302 -1.4197
 8418TIP3   OH246744   5.587   2.368   6.036 -0.1271  0.3006 -0.3394
 8418TIP3    H146745   5.639   2.366   5.956  1.7948  2.7790  0.7215
 8418TIP3    H246746   5.648   2.343   6.105 -1.0282  0.7946  0.6602
 8419TIP3   OH246747   4.582   2.911  15.492 -0.0161  0.1824 -0.1001
 8419TIP3    H146748   4.633   2.864  15.426  1.9313  0.8189  0.8821
 8419TIP3    H246749   4.572   2.999  15.456 -1.5828 -0.2823 -0.8638
 8420TIP3   OH246750   0.333   0.044   4.265 -0.1447 -0.2420 -0.1117
 8420TIP3    H146751   0.367  -0.030   4.214 -2.7080 -1.2974 -0.4075
 8420TIP3    H246752   0.326   0.010   4.354 -0.0323  0.0985  0.0264
 8421TIP3   OH246753   2.422   2.498   2.718 -0.1009  0.6707 -0.3270
 8421TIP3    H146754   2.489   2.508   2.785 -1.3874  1.5525  0.8797
 8421TIP3    H246755   2.459   2.540   2.640  1.4835 -0.5413 -0.2652
 8422TIP3   OH246756   5.848   5.711  12.177  0.1336  1.0495  0.0633
 8422TIP3    H146757   5.800   5.654  12.237  0.3859  0.5242 -0.2269
 8422TIP3    H246758   5.798   5.706  12.095  0.6517  0.5347 -0.2269
 8423TIP3   OH246759   5.560   5.065   5.351  0.2978  0.6338  0.2721
 8423TIP3    H146760   5.473   5.103   5.364 -0.2336 -0.2412 -0.5596
 8423TIP3    H246761   5.549   4.973   5.376  1.2490  0.7279  1.1019
 8424TIP3   OH246762   2.083   3.384  15.934  0.6986 -0.3984  0.1768
 8424TIP3    H146763   2.156   3.326  15.953  0.7297 -0.7855 -1.0248
 8424TIP3    H246764   2.051   3.355  15.849  0.9602  1.5506 -0.6568
 8425TIP3   OH246765   5.409   5.271   3.915  0.1156  0.3332 -0.1166
 8425TIP3    H146766   5.449   5.185   3.906  2.1607  0.9292  1.9712
 8425TIP3    H246767   5.333   5.257   3.971  1.9079  0.0977  2.4682
 8426TIP3   OH246768   1.448   2.536  11.967 -0.1691  0.1948 -0.2340
 8426TIP3    H146769   1.514   2.588  11.920 -0.2588 -0.8300 -1.5550
 8426TIP3    H246770   1.488   2.518  12.052  1.5342 -0.9125 -1.2174
 8427TIP3   OH246771   2.421   1.696   4.361 -0.3689  0.3408 -0.5408
 8427TIP3    H146772   2.421   1.781   4.317  0.6208 -0.1268 -1.5202
 8427TIP3    H246773   2.514   1.675   4.372 -0.5854 -0.8682 -0.8526
 8428TIP3   OH246774   5.779   3.317   0.391  0.2208  0.1944  0.6836
 8428TIP3    H146775   5.781   3.248   0.325 -0.0113  0.6425  0.2054
 8428TIP3    H246776   5.822   3.278   0.467 -2.9629 -1.7798  1.6993
 8429TIP3   OH246777   3.923   4.091   5.730  0.0507  0.2399 -0.0822
 8429TIP3    H146778   3.835   4.091   5.693 -0.4815  0.3646  1.1678
 8429TIP3    H246779   3.911   4.072   5.823  1.5716 -2.9339 -0.4033
 8430TIP3   OH246780   5.584   5.252  10.674 -0.1636  0.1900 -0.2379
 8430TIP3    H146781   5.626   5.293  10.749  1.5824  0.1003 -1.1165
 8430TIP3    H246782   5.534   5.323  10.634 -0.1930  0.5159  0.3636
 8431TIP3   OH246783   1.248   3.121  11.615 -0.4379  0.0457 -0.2595
 8431TIP3    H146784   1.203   3.096  11.534  1.3330 -0.2361 -1.1989
 8431TIP3    H246785   1.340   3.130  11.590  0.7330 -2.9505  2.2818
 8432TIP3   OH246786   2.716   1.802   0.524 -0.0192 -0.1392 -0.2824
 8432TIP3    H146787   2.657   1.761   0.461  0.7839 -0.2403 -1.0036
 8432TIP3    H246788   2.679   1.783   0.610 -0.6009 -0.8676 -0.6893
 8433TIP3   OH246789   6.380   0.052   4.914 -0.0129 -0.4449  0.5558
 8433TIP3    H146790   6.447   0.007   4.966  1.8391  2.4007  0.9097
 8433TIP3    H246791   6.297   0.022   4.950  0.9530 -4.0975  0.1440
 8434TIP3   OH246792   2.147   4.565  16.731  0.5264 -0.0070 -0.1610
 8434TIP3    H146793   2.070   4.593  16.683  0.4852  1.7410  0.8357
 8434TIP3    H246794   2.220   4.579  16.670  0.4183  1.7091  0.0493
 8435TIP3   OH246795   3.452   6.793   0.845 -1.1182  0.3697  0.1428
 8435TIP3    H146796   3.504   6.846   0.905  0.1940 -0.8089  0.1009
 8435TIP3    H246797   3.492   6.808   0.759  1.5590 -3.1505  0.5436
 8436TIP3   OH246798   1.865   6.044  15.351  0.0252  0.3645 -0.2798
 8436TIP3    H146799   1.954   6.010  15.342  0.2562  0.5091  1.1595
 8436TIP3    H246800   1.872   6.137  15.330  0.1727  0.3382 -0.3495
 8437TIP3   OH246801   0.094   0.730   0.375  0.1806  0.3826  0.1843
 8437TIP3    H146802   0.173   0.707   0.424  0.7164  0.7299 -0.5064
 8437TIP3    H246803   0.113   0.703   0.285 -0.1918  1.1426 -0.1315
 8438TIP3   OH246804   5.794   2.818   2.799 -0.1868 -0.8204 -0.2045
 8438TIP3    H146805   5.700   2.818   2.783 -0.4823 -1.3487  1.3415
 8438TIP3    H246806   5.808   2.890   2.860  0.1049 -1.8369  0.9813
 8439TIP3   OH246807   1.449   2.808   1.806 -0.1192 -0.3208  0.5503
 8439TIP3    H146808   1.524   2.806   1.747 -1.2337 -0.5279 -0.8998
 8439TIP3    H246809   1.406   2.892   1.789 -1.3750 -1.0732 -0.1732
 8440TIP3   OH246810   4.378   2.808   3.794  0.3960 -0.6773  0.0465
 8440TIP3    H146811   4.361   2.900   3.813 -2.5993 -0.3180 -3.1874
 8440TIP3    H246812   4.317   2.760   3.849 -1.7602 -0.2432 -1.7959
 8441TIP3   OH246813   2.534   2.666   6.585 -0.2520  0.0934 -0.5043
 8441TIP3    H146814   2.621   2.655   6.624 -0.8619  0.8635  1.1424
 8441TIP3    H246815   2.526   2.760   6.570 -0.5722 -0.0417 -1.2318
 8442TIP3   OH246816   1.810   1.365   0.622 -0.2541  0.3748  0.4205
 8442TIP3    H146817   1.813   1.274   0.592  0.5142  0.4749  0.1798
 8442TIP3    H246818   1.861   1.366   0.703 -1.0614  0.4110  0.9472
 8443TIP3   OH246819   6.586   6.200   0.670 -0.8163 -0.0903  0.2512
 8443TIP3    H146820   6.617   6.227   0.757 -1.1461 -1.4110  0.8000
 8443TIP3    H246821   6.576   6.282   0.622 -0.5279  0.6589  1.4254
 8444TIP3   OH246822   5.003   0.483   3.256  0.0901  0.4711  0.0469
 8444TIP3    H146823   4.997   0.442   3.170  0.7370  0.3382  0.0619
 8444TIP3    H246824   4.942   0.433   3.311  0.4557 -0.1197 -0.0733
 8445TIP3   OH246825   1.637   3.045  15.639 -0.4255 -0.5399  0.8422
 8445TIP3    H146826   1.559   3.069  15.690 -1.7535  2.0793 -2.0906
 8445TIP3    H246827   1.602   3.007  15.559  1.1993  1.1869 -0.7838
 8446TIP3   OH246828   4.729   2.643  12.185  0.1262 -0.3790 -0.0072
 8446TIP3    H146829   4.796   2.594  12.138  0.0993 -1.8013  1.3305
 8446TIP3    H246830   4.777   2.691  12.252 -0.0393 -0.1350 -0.0629
 8447TIP3   OH246831   0.099   6.641   5.439  0.4426 -0.1192 -0.2661
 8447TIP3    H146832   0.154   6.603   5.508 -0.0802 -1.4897 -0.5794
 8447TIP3    H246833   0.023   6.583   5.434 -0.3016  0.8783 -0.9015
 8448TIP3   OH246834   5.965   4.722  14.983  0.0800 -0.8076  0.0161
 8448TIP3    H146835   6.015   4.791  15.027 -0.8553 -0.2552  0.2234
 8448TIP3    H246836   6.031   4.657  14.960  1.1520  0.5387 -0.9776
 8449TIP3   OH246837   5.856   4.624  13.042 -0.4445  0.3784  0.6838
 8449TIP3    H146838   5.877   4.535  13.015  1.4155  0.0848  2.7884
 8449TIP3    H246839   5.853   4.674  12.961  1.4909 -1.0392 -0.3353
 8450TIP3   OH246840   2.066   5.789  14.316 -0.6121 -0.1244 -0.4402
 8450TIP3    H146841   2.008   5.737  14.260 -0.3110  0.0928 -0.9597
 8450TIP3    H246842   2.028   5.877  14.314 -1.3025 -0.3829  0.6924
 8451TIP3   OH246843   5.782   0.267  11.376  0.2473 -0.2650  0.3127
 8451TIP3    H146844   5.760   0.262  11.469  2.1517 -1.6559  0.7627
 8451TIP3    H246845   5.705   0.306  11.335 -1.1755 -0.8204  2.2837
 8452TIP3   OH246846   4.288   5.264  12.696 -0.3373  0.4442 -0.2738
 8452TIP3    H146847   4.291   5.280  12.601  2.1174 -1.3359 -0.6215
 8452TIP3    H246848   4.347   5.189  12.708  0.3716  1.3850  2.8118
 8453TIP3   OH246849   0.485   4.175  17.136 -0.1797  0.2276  0.1007
 8453TIP3    H146850   0.394   4.174  17.105 -0.3365  1.9898  0.4127
 8453TIP3    H246851   0.537   4.165  17.057 -0.6191 -0.8144 -0.0826
 8454TIP3   OH246852   6.412   5.273  12.896 -0.0588 -0.0624  0.1623
 8454TIP3    H146853   6.432   5.182  12.920  0.3705 -0.0389 -0.0870
 8454TIP3    H246854   6.498   5.315  12.887 -0.2366  0.2223 -0.2774
 8455TIP3   OH246855   2.508   4.717  14.612 -0.4769 -0.5783  0.8269
 8455TIP3    H146856   2.499   4.812  14.603 -3.5047 -0.8830 -0.3732
 8455TIP3    H246857   2.599   4.705  14.641 -0.1695  2.6885  1.6858
 8456TIP3   OH246858   0.031   4.623  13.728  0.1135 -0.4995 -0.2968
 8456TIP3    H146859   0.051   4.639  13.820  2.2878 -1.1234 -0.6145
 8456TIP3    H246860   0.051   4.531  13.714 -0.1659 -0.4144 -1.4007
 8457TIP3   OH246861   4.612   6.459  15.572 -0.0282  0.1238  0.8180
 8457TIP3    H146862   4.689   6.480  15.520  0.0574  0.8832  1.2263
 8457TIP3    H246863   4.581   6.544  15.604 -1.6023 -0.0562 -0.1246
 8458TIP3   OH246864   5.821   2.731  11.567  0.1210  0.6973 -0.7338
 8458TIP3    H146865   5.777   2.659  11.521 -0.3776  1.9348 -2.2866
 8458TIP3    H246866   5.842   2.794  11.498  1.9603  1.3553  0.3499
 8459TIP3   OH246867   0.513   6.004   2.771 -0.9942  0.5762  0.3336
 8459TIP3    H146868   0.604   5.997   2.800 -1.1672  0.0857  0.7710
 8459TIP3    H246869   0.462   5.969   2.844 -1.4464 -0.6735 -0.5451
 8460TIP3   OH246870   0.384   3.006  10.521  0.3720 -0.2688 -0.4023
 8460TIP3    H146871   0.333   3.039  10.447 -0.3501 -1.4251 -0.4475
 8460TIP3    H246872   0.467   2.978  10.482  0.7639  0.9038 -0.4492
 8461TIP3   OH246873   6.167   0.423   1.539  0.1778 -0.5495  0.5249
 8461TIP3    H146874   6.229   0.453   1.473  1.3256 -2.7232  0.5442
 8461TIP3    H246875   6.215   0.426   1.622 -0.1259 -1.1060  0.7298
 8462TIP3   OH246876   0.892   6.261  16.518 -0.9315 -0.0298  0.8146
 8462TIP3    H146877   0.956   6.199  16.484  0.3688  0.8444  1.5842
 8462TIP3    H246878   0.824   6.265  16.451  0.7679  0.4668 -0.9571
 8463TIP3   OH246879   3.324   2.385   3.623 -0.1727 -0.1391 -0.4073
 8463TIP3    H146880   3.418   2.403   3.614 -0.4896  1.2708 -1.4236
 8463TIP3    H246881   3.288   2.467   3.658 -0.9296 -0.9233  0.6787
 8464TIP3   OH246882   2.385   5.303  12.395  0.3707 -0.1720 -0.2178
 8464TIP3    H146883   2.293   5.289  12.373  0.4241  0.7265 -1.0492
 8464TIP3    H246884   2.404   5.235  12.460 -1.1818  0.3323  0.8400
 8465TIP3   OH246885   0.745   5.105   1.073  0.4849  0.5972  0.2965
 8465TIP3    H146886   0.666   5.149   1.103 -1.4053 -1.9956 -0.5232
 8465TIP3    H246887   0.750   5.126   0.979  0.0938 -0.1451  0.1014
 8466TIP3   OH246888   0.864   0.423  15.738 -0.3067  0.8690 -0.2114
 8466TIP3    H146889   0.808   0.471  15.799  0.8500  3.7162 -1.2118
 8466TIP3    H246890   0.925   0.376  15.795 -0.9556  1.2559  0.8540
 8467TIP3   OH246891   0.874   0.336  14.138 -0.5671 -0.1023 -0.2679
 8467TIP3    H146892   0.798   0.320  14.082 -1.4632  1.9559  0.2640
 8467TIP3    H246893   0.914   0.415  14.101  1.3688 -1.1558 -0.5419
 8468TIP3   OH246894   2.409   3.149   5.119  0.1346 -0.1634  0.0281
 8468TIP3    H146895   2.445   3.169   5.205  2.6803  2.2945 -1.4331
 8468TIP3    H246896   2.365   3.229   5.091 -0.9322 -1.0199 -0.8517
 8469TIP3   OH246897   5.699   4.002   2.178  0.4225 -0.9117 -0.5475
 8469TIP3    H146898   5.701   3.962   2.091  0.8571  0.6004 -1.2534
 8469TIP3    H246899   5.782   4.049   2.185  1.0599 -2.1956  1.2811
 8470TIP3   OH246900   2.200   3.496  15.576 -0.6109 -0.3755  0.9625
 8470TIP3    H146901   2.154   3.529  15.500 -1.5262 -1.2738  1.1121
 8470TIP3    H246902   2.200   3.569  15.638  0.7131  0.5829 -0.1025
 8471TIP3   OH246903   2.158   6.680   2.661  0.0198 -0.3099 -0.0848
 8471TIP3    H146904   2.168   6.604   2.719 -0.0617  1.1685  1.9952
 8471TIP3    H246905   2.248   6.703   2.637  0.2369  0.3698  1.2963
 8472TIP3   OH246906   1.321   2.202   4.387  0.0205  0.0884  0.2998
 8472TIP3    H146907   1.362   2.285   4.409 -0.3217  0.4396 -0.3554
 8472TIP3    H246908   1.235   2.205   4.429 -1.3002  1.4504 -2.2750
 8473TIP3   OH246909   4.842   5.783  17.337  0.1477  0.2377  0.0584
 8473TIP3    H146910   4.937   5.782  17.345  0.0746  1.4300  1.6007
 8473TIP3    H246911   4.814   5.697  17.368  0.7123 -0.1717 -0.5377
 8474TIP3   OH246912   4.333   5.382   4.898 -0.3499 -0.0962  0.1370
 8474TIP3    H146913   4.310   5.360   4.807 -0.4410 -0.1495  0.1730
 8474TIP3    H246914   4.305   5.473   4.909  1.1561  0.4642 -0.4004
 8475TIP3   OH246915   5.778   6.103   6.287  0.5068 -0.0094 -0.9279
 8475TIP3    H146916   5.847   6.038   6.297  0.4929  0.0181 -0.6245
 8475TIP3    H246917   5.702   6.054   6.258  0.0235 -0.4206  0.8700
 8476TIP3   OH246918   1.774   6.490   6.311 -0.1446 -0.6013 -0.1541
 8476TIP3    H146919   1.815   6.516   6.393  0.4405  0.1093 -0.6566
 8476TIP3    H246920   1.786   6.395   6.307 -0.3026 -0.6612  0.6414
 8477TIP3   OH246921   0.994   4.312   5.210 -0.1583  0.6380  0.4522
 8477TIP3    H146922   0.910   4.269   5.225 -0.8154  0.3641 -3.1895
 8477TIP3    H246923   0.970   4.398   5.175  1.1218  1.3344  1.2211
 8478TIP3   OH246924   2.645   1.692   1.232 -0.0690  0.2235 -0.1212
 8478TIP3    H146925   2.617   1.687   1.323 -0.3003 -1.1441 -0.2464
 8478TIP3    H246926   2.718   1.629   1.226  0.7897  1.2247 -0.5929
 8479TIP3   OH246927   3.462   2.352  17.150 -0.8001  0.0819 -0.2759
 8479TIP3    H146928   3.525   2.313  17.211 -1.1455  0.2196  0.1753
 8479TIP3    H246929   3.512   2.421  17.106 -0.4681 -0.2040 -0.3615
 8480TIP3   OH246930   1.354   4.379  11.358 -0.2597 -0.2271 -0.2400
 8480TIP3    H146931   1.346   4.448  11.424  3.0336  0.0199  0.0700
 8480TIP3    H246932   1.310   4.304  11.397  1.2760  0.0169  2.1838
 8481TIP3   OH246933   6.085   1.664  15.957  0.1944  0.2817 -0.3045
 8481TIP3    H146934   6.062   1.735  15.898  0.5254 -0.3338 -1.2056
 8481TIP3    H246935   6.007   1.649  16.010 -0.0180  1.0177 -0.4072
 8482TIP3   OH246936   3.808   1.818  15.999  0.5250  0.0248  0.5642
 8482TIP3    H146937   3.799   1.768  16.080  0.2360 -1.2403 -0.2141
 8482TIP3    H246938   3.780   1.757  15.931 -1.1548  1.6671 -0.3204
 8483TIP3   OH246939   6.488   2.174   2.847 -0.1604  0.1934  0.4168
 8483TIP3    H146940   6.443   2.103   2.801 -0.5122  1.0783 -0.6643
 8483TIP3    H246941   6.418   2.222   2.892  0.1818 -0.6663  1.9379
 8484TIP3   OH246942   6.215   5.183  12.408  0.5678 -0.1735 -0.1130
 8484TIP3    H146943   6.215   5.261  12.353  1.4217  0.0317  0.1723
 8484TIP3    H246944   6.249   5.212  12.493 -0.3667 -0.5694  0.4202
 8485TIP3   OH246945   2.120   3.457   4.121 -0.3691 -0.0390 -0.3499
 8485TIP3    H146946   2.093   3.530   4.064  0.7239  1.7199  1.2375
 8485TIP3    H246947   2.214   3.447   4.105 -0.4834 -1.0328 -0.4562
 8486TIP3   OH246948   2.877   2.772  14.536 -0.1856 -0.3263 -0.2327
 8486TIP3    H146949   2.914   2.690  14.569 -0.7357 -1.2047 -1.6674
 8486TIP3    H246950   2.950   2.833  14.537  1.2315 -1.8279 -2.3728
 8487TIP3   OH246951   0.157   4.089  13.344 -0.2625  0.3393 -1.0641
 8487TIP3    H146952   0.221   4.091  13.415 -0.7670  1.6815 -0.6010
 8487TIP3    H246953   0.193   4.029  13.280  1.4240  1.0018 -0.7733
 8488TIP3   OH246954   0.411   1.338   4.257  0.4704  0.0130 -0.6556
 8488TIP3    H146955   0.478   1.273   4.274  0.1984 -0.2978 -0.7578
 8488TIP3    H246956   0.452   1.400   4.196  1.0167  0.4208  0.1079
 8489TIP3   OH246957   3.783   5.353   3.000 -0.2357 -0.1926 -0.3689
 8489TIP3    H146958   3.761   5.434   3.046 -0.4815  0.2914 -1.3137
 8489TIP3    H246959   3.834   5.382   2.923  1.8791 -1.1242  0.5993
 8490TIP3   OH246960   4.490   6.202   5.282 -0.0470 -1.0014  0.5739
 8490TIP3    H146961   4.402   6.208   5.320  0.0211 -0.5139  0.6709
 8490TIP3    H246962   4.484   6.253   5.201 -0.0261 -1.5156  0.2439
 8491TIP3   OH246963   2.176   3.399   5.286 -0.3316  0.5652 -0.0317
 8491TIP3    H146964   2.114   3.396   5.358 -0.4098 -2.1244 -0.1098
 8491TIP3    H246965   2.262   3.404   5.329 -0.3434 -1.5766  0.3585
 8492TIP3   OH246966   6.277   1.100   3.229  0.4543  0.7227 -0.0267
 8492TIP3    H146967   6.243   1.175   3.179  0.4538  0.7658  0.0372
 8492TIP3    H246968   6.366   1.090   3.198  0.1706  0.1820 -0.6810
 8493TIP3   OH246969   2.803   5.291   4.839 -0.4442  0.0031 -0.3925
 8493TIP3    H146970   2.714   5.270   4.865  0.0987 -0.9768  0.7813
 8493TIP3    H246971   2.795   5.375   4.793 -1.9340  0.0208 -0.1594
 8494TIP3   OH246972   0.061   6.273  11.596 -0.3479  0.8109  0.9532
 8494TIP3    H146973   0.046   6.367  11.610  1.1581  1.1393  0.6059
 8494TIP3    H246974   0.156   6.264  11.599 -0.5093 -0.9508  2.3731
 8495TIP3   OH246975   3.722   1.881  15.634 -0.1384 -0.1767  0.3317
 8495TIP3    H146976   3.774   1.818  15.585 -0.6592 -0.5626  0.2604
 8495TIP3    H246977   3.782   1.953  15.654  0.3427 -0.4935  0.0268
 8496TIP3   OH246978   0.595   4.919   1.288 -0.1361  0.0043 -0.4871
 8496TIP3    H146979   0.597   4.990   1.224 -1.9025  0.5009 -0.0381
 8496TIP3    H246980   0.502   4.900   1.300  0.2790 -1.9741 -0.1340
 8497TIP3   OH246981   6.415   0.462   4.110  0.1216 -0.2035 -0.2220
 8497TIP3    H146982   6.476   0.459   4.036  1.2134  0.2845  0.6312
 8497TIP3    H246983   6.427   0.377   4.154  0.8226  0.2202  0.4255
 8498TIP3   OH246984   2.567   4.773  11.902  0.1901  0.0311  0.3120
 8498TIP3    H146985   2.505   4.798  11.970 -0.3995 -1.1224  0.2085
 8498TIP3    H246986   2.592   4.857  11.861 -1.2520  0.5292  0.3886
 8499TIP3   OH246987   3.429   1.625   0.458  0.4932 -0.6785 -0.0954
 8499TIP3    H146988   3.377   1.690   0.504 -0.0155  0.5645 -2.2793
 8499TIP3    H246989   3.501   1.675   0.420  1.8987 -1.9558  0.7517
 8500TIP3   OH246990   0.045   2.101   4.759 -0.1094  0.5238 -0.5922
 8500TIP3    H146991   0.121   2.137   4.804 -1.2326 -1.0974  3.0130
 8500TIP3    H246992   0.081   2.038   4.696  1.5607  0.7834  0.0584
 8501TIP3   OH246993   4.469   6.503   5.961 -0.0353  0.1043  0.6263
 8501TIP3    H146994   4.528   6.525   5.889 -0.2058 -1.8816 -0.1917
 8501TIP3    H246995   4.522   6.448   6.019 -0.2122  0.8257  1.4887
 8502TIP3   OH246996   0.554   5.119   3.065 -0.3030 -0.1229  0.2683
 8502TIP3    H146997   0.595   5.138   2.981 -3.4123  0.8819 -1.1903
 8502TIP3    H246998   0.548   5.203   3.109 -0.6678 -0.2753  0.5140
 8503TIP3   OH246999   3.209   4.636  16.351  0.0741  0.2647 -0.2665
 8503TIP3    H147000   3.137   4.692  16.383  0.0755  0.1739 -0.1015
 8503TIP3    H247001   3.242   4.594  16.430  0.5593  0.6000 -0.2843
 8504TIP3   OH247002   2.893   5.717   1.955  0.4587  0.2333  0.1215
 8504TIP3    H147003   2.890   5.712   1.859  0.7964  0.0243  0.1183
 8504TIP3    H247004   2.942   5.797   1.973 -0.9984  1.1593  0.1392
 8505TIP3   OH247005   0.232   3.899  13.146  0.7120  0.3258  0.0122
 8505TIP3    H147006   0.157   3.874  13.092  0.8777  0.5435 -0.3201
 8505TIP3    H247007   0.290   3.823  13.143  1.4064  0.8876 -1.3357
 8506TIP3   OH247008   1.993   4.653   3.950  0.3439  0.4336 -0.5782
 8506TIP3    H147009   1.948   4.571   3.969  1.5481 -0.5205 -1.6500
 8506TIP3    H247010   2.001   4.697   4.034  1.3787 -1.4641  0.3862
 8507TIP3   OH247011   2.131   2.639   3.359  0.0153  0.4766  0.7301
 8507TIP3    H147012   2.180   2.589   3.425  0.6544  0.6919  0.4195
 8507TIP3    H247013   2.175   2.619   3.276 -1.7217 -1.0320  0.1053
 8508TIP3   OH247014   5.242   1.604  13.102  0.0041  0.1255 -0.6142
 8508TIP3    H147015   5.329   1.613  13.141 -0.3285 -0.6474  0.3489
 8508TIP3    H247016   5.251   1.533  13.039  0.0546 -0.0104 -0.4548
 8509TIP3   OH247017   3.566   1.575  15.539 -0.5883 -0.2882 -0.3228
 8509TIP3    H147018   3.639   1.605  15.593 -0.1834 -2.2375  0.3050
 8509TIP3    H247019   3.497   1.639  15.553  0.5362  0.8599  0.1372
 8510TIP3   OH247020   5.973   3.118  15.049  0.0830 -0.0960  0.1678
 8510TIP3    H147021   5.995   3.033  15.087  2.4273  0.4438  0.1581
 8510TIP3    H247022   6.029   3.126  14.972 -0.4019  1.2847 -0.0805
 8511TIP3   OH247023   0.476   0.743  14.367 -0.0185  0.3504  0.1193
 8511TIP3    H147024   0.495   0.822  14.418  1.2349  0.1147  0.0645
 8511TIP3    H247025   0.563   0.710  14.342 -0.5672 -0.1498 -1.2264
 8512TIP3   OH247026   2.991   2.151   5.994  1.1751 -0.1465 -0.2048
 8512TIP3    H147027   3.016   2.115   6.079  0.6601  1.6609  0.7467
 8512TIP3    H247028   3.058   2.217   5.976  0.8765 -0.0207 -0.8680
 8513TIP3   OH247029   4.468   3.142  12.951 -0.0854 -0.1086  0.7842
 8513TIP3    H147030   4.444   3.156  12.859  2.0035 -0.8151  0.0752
 8513TIP3    H247031   4.558   3.112  12.948 -0.7143 -2.5609  2.9227
 8514TIP3   OH247032   0.450   4.391  12.726  0.5363 -0.2038 -0.6063
 8514TIP3    H147033   0.484   4.310  12.765 -1.0524 -1.2648 -1.3050
 8514TIP3    H247034   0.474   4.459  12.788  1.9788 -1.1993 -0.0219
 8515TIP3   OH247035   0.967   6.707  12.711  0.2843  0.6232  0.3309
 8515TIP3    H147036   1.012   6.781  12.753 -0.0559  0.3642  1.1736
 8515TIP3    H247037   1.017   6.691  12.631  1.1253  0.9531  0.7747
 8516TIP3   OH247038   3.072   0.978   1.698 -0.1405  0.1561  0.1568
 8516TIP3    H147039   2.978   0.969   1.683 -0.0894  0.5214 -0.3970
 8516TIP3    H247040   3.107   1.010   1.615  0.4465  0.2025  0.4183
 8517TIP3   OH247041   4.758   3.341   4.085  0.4538 -0.0446 -0.2751
 8517TIP3    H147042   4.825   3.409   4.080  0.7159 -0.3345 -0.9887
 8517TIP3    H247043   4.681   3.385   4.119  0.5667  0.6639 -0.9016
 8518TIP3   OH247044   4.005   1.554  14.349  0.3691  0.0206 -0.0561
 8518TIP3    H147045   3.996   1.591  14.261 -1.5537 -0.5054 -0.1240
 8518TIP3    H247046   3.986   1.627  14.408 -0.6930 -0.1798 -0.1379
 8519TIP3   OH247047   3.976   4.104  16.050  0.2424 -0.2955 -0.6308
 8519TIP3    H147048   3.938   4.172  16.104 -0.6531  0.8627 -2.6126
 8519TIP3    H247049   3.995   4.032  16.111 -1.1711  0.7235  1.0950
 8520TIP3   OH247050   2.920   4.705  15.002 -0.6227  0.0455 -0.2475
 8520TIP3    H147051   2.969   4.674  15.078  0.6348  1.1188 -0.5848
 8520TIP3    H247052   2.966   4.668  14.927 -0.8348  0.3615 -0.5391
 8521TIP3   OH247053   6.672   4.087   2.297  0.8235  0.5648 -0.5923
 8521TIP3    H147054   6.709   4.159   2.247  0.6168 -0.1315 -1.7769
 8521TIP3    H247055   6.611   4.129   2.358  0.0512  1.3233 -1.8536
 8522TIP3   OH247056   2.056   3.078   1.635  0.7650  0.1247 -0.4341
 8522TIP3    H147057   1.963   3.074   1.615  0.8477 -2.0145 -0.5693
 8522TIP3    H247058   2.099   3.075   1.549  0.9854  1.0442 -0.3695
 8523TIP3   OH247059   6.584   5.517   6.509  0.3083  0.0199 -1.1402
 8523TIP3    H147060   6.491   5.535   6.495  0.1040 -0.2700 -0.2341
 8523TIP3    H247061   6.592   5.422   6.498  0.0603 -0.2873  0.9203
 8524TIP3   OH247062   5.330   5.308  15.739 -0.1146 -0.3630  0.0986
 8524TIP3    H147063   5.299   5.396  15.722  1.5999  0.5419  1.3347
 8524TIP3    H247064   5.335   5.303  15.835 -2.2891 -2.6112  0.2064
 8525TIP3   OH247065   4.644   3.576   4.560 -0.3035 -0.2787 -0.3466
 8525TIP3    H147066   4.597   3.550   4.480  0.5284  1.6969 -1.5442
 8525TIP3    H247067   4.736   3.566   4.538 -0.0581  0.6335  0.2328
 8526TIP3   OH247068   5.880   1.227  12.212  0.1347 -0.4107  0.5086
 8526TIP3    H147069   5.860   1.153  12.155 -0.5856  0.2739 -0.1541
 8526TIP3    H247070   5.850   1.304  12.163 -0.6685  0.1864  1.8690
 8527TIP3   OH247071   0.935   5.888   1.766 -0.1526  0.1945 -0.2293
 8527TIP3    H147072   0.947   5.969   1.716  1.3319  0.9263  1.1863
 8527TIP3    H247073   1.022   5.847   1.765  0.3356  0.9014  2.7292
 8528TIP3   OH247074   1.582   5.983  13.748  0.0758 -0.6029 -0.0041
 8528TIP3    H147075   1.581   5.926  13.825 -0.7451 -1.7514 -0.8427
 8528TIP3    H247076   1.493   6.019  13.744 -0.6143 -2.3758 -1.7125
 8529TIP3   OH247077   0.759   6.274  16.767  0.8530 -0.6594  0.5088
 8529TIP3    H147078   0.821   6.246  16.835  0.8040 -1.0359  0.4028
 8529TIP3    H247079   0.808   6.267  16.685  1.5817  1.7770  0.6682
 8530TIP3   OH247080   4.654   2.996  12.253  0.4229 -0.4999 -0.2006
 8530TIP3    H147081   4.748   3.010  12.260  0.4804 -0.5072 -0.8450
 8530TIP3    H247082   4.625   3.061  12.188 -0.2761  0.5481  1.1152
 8531TIP3   OH247083   2.792   0.295   4.929  0.1198  0.1562  0.1733
 8531TIP3    H147084   2.735   0.321   5.002 -2.3017 -2.3332 -0.6659
 8531TIP3    H247085   2.869   0.258   4.971  0.3791  1.8932  1.3720
 8532TIP3   OH247086   3.913   2.146   1.129  0.2306 -0.1554 -0.3766
 8532TIP3    H147087   4.008   2.148   1.142  0.0318  0.2721  1.0920
 8532TIP3    H247088   3.880   2.220   1.179 -0.7697  0.5520 -2.0099
 8533TIP3   OH247089   2.970   2.286  15.278 -0.2927  0.0158 -0.1840
 8533TIP3    H147090   2.891   2.262  15.230 -0.2001 -0.6643 -0.0022
 8533TIP3    H247091   3.019   2.342  15.217 -0.8932  0.4144 -0.3093
 8534TIP3   OH247092   1.269   6.784  11.678  0.8484 -1.1190  0.0519
 8534TIP3    H147093   1.346   6.791  11.735  0.6756  0.4761  0.1278
 8534TIP3    H247094   1.215   6.716  11.719  1.0664 -0.5188  1.3949
 8535TIP3   OH247095   4.841   5.508   2.354  0.2656  0.1748 -0.4129
 8535TIP3    H147096   4.915   5.499   2.294  0.0880 -1.9515 -0.4034
 8535TIP3    H247097   4.807   5.419   2.363 -2.6653  1.1327 -0.8715
 8536TIP3   OH247098   6.476   1.740  12.402  0.0108 -0.1067  0.3540
 8536TIP3    H147099   6.492   1.725  12.309  1.0133  0.3691  0.4309
 8536TIP3    H247100   6.476   1.836  12.411 -2.7161 -0.0539  0.4374
 8537TIP3   OH247101   5.672   4.127  16.318  0.4826  0.3782  0.3637
 8537TIP3    H147102   5.653   4.060  16.384 -1.2598 -2.9336 -3.1121
 8537TIP3    H247103   5.765   4.147  16.331  1.0899 -2.6910  1.7028
 8538TIP3   OH247104   3.226   0.734   4.129 -0.3735  0.5394 -0.1921
 8538TIP3    H147105   3.262   0.724   4.218 -0.3366  0.0153 -0.2610
 8538TIP3    H247106   3.280   0.802   4.089 -2.2242  2.9573  1.1472
 8539TIP3   OH247107   1.704   3.654   5.652  0.0518 -0.6218  0.5810
 8539TIP3    H147108   1.705   3.622   5.562  2.0252  0.2552  0.2367
 8539TIP3    H247109   1.779   3.611   5.694  3.0797  3.4671 -0.0016
 8540TIP3   OH247110   3.593   6.743   2.565 -0.3611  0.3728  0.1988
 8540TIP3    H147111   3.554   6.755   2.478 -1.5902  1.6315  0.8950
 8540TIP3    H247112   3.563   6.656   2.593 -0.5933  0.2864 -0.3087
 8541TIP3   OH247113   6.725   0.654   4.274  0.4639 -0.4667 -0.5747
 8541TIP3    H147114   6.742   0.638   4.181 -0.6810 -0.0961 -0.8744
 8541TIP3    H247115   6.678   0.738   4.275  1.4863  0.1296  0.4527
 8542TIP3   OH247116   0.698   4.096   0.064 -0.0591  0.0150 -0.2410
 8542TIP3    H147117   0.624   4.109   0.005 -0.0841 -1.0858 -0.4649
 8542TIP3    H247118   0.736   4.184   0.074 -1.1267  0.5239 -0.4564
 8543TIP3   OH247119   1.680   2.916  12.151 -0.3306  0.1567  0.5174
 8543TIP3    H147120   1.718   2.972  12.219 -0.3228 -0.8963  1.3952
 8543TIP3    H247121   1.653   2.978  12.082  3.0758  0.9981 -0.2632
 8544TIP3   OH247122   1.605   2.782   4.077  0.0395  0.1686 -0.2267
 8544TIP3    H147123   1.560   2.808   3.996  1.8842  0.1620 -1.3216
 8544TIP3    H247124   1.697   2.797   4.058  0.7735 -2.4052  0.9075
 8545TIP3   OH247125   0.163   2.536   2.017  0.1429 -0.6799  0.2035
 8545TIP3    H147126   0.140   2.582   2.098 -2.0532 -1.3134  0.0014
 8545TIP3    H247127   0.173   2.605   1.952 -1.9930 -0.3332  0.1644
 8546TIP3   OH247128   5.250   0.086  11.639  0.3304  0.0438 -0.8056
 8546TIP3    H147129   5.221   0.168  11.598  1.8316  0.0231 -1.9796
 8546TIP3    H247130   5.345   0.084  11.625  0.2756 -2.0798 -1.1378
 8547TIP3   OH247131   1.370   2.079   4.163 -0.2032 -0.2850  0.3159
 8547TIP3    H147132   1.290   2.030   4.147  0.3725 -1.4109  0.8136
 8547TIP3    H247133   1.348   2.140   4.234 -0.0218 -2.2038  2.1095
 8548TIP3   OH247134   0.946   3.938  15.520 -0.6463  0.6631 -0.4493
 8548TIP3    H147135   0.981   3.912  15.435  0.2560 -1.8871  0.6060
 8548TIP3    H247136   1.023   3.942  15.577 -1.4419  0.4935  0.6657
 8549TIP3   OH247137   4.421   5.970  17.101 -0.0968 -0.4581 -0.5522
 8549TIP3    H147138   4.470   5.962  17.183 -2.1053  3.6992  1.4084
 8549TIP3    H247139   4.355   5.901  17.106 -0.0666 -0.4062  1.3055
 8550TIP3   OH247140   2.272   0.296  12.980  0.4257 -0.1505 -0.1860
 8550TIP3    H147141   2.298   0.385  12.959 -0.9002  0.4263  0.4561
 8550TIP3    H247142   2.312   0.242  12.912 -0.5977  1.1890 -1.9463
 8551TIP3   OH247143   2.741   1.186  12.850  0.1885 -0.2784  0.0054
 8551TIP3    H147144   2.805   1.248  12.813  0.4233 -0.9855 -0.8138
 8551TIP3    H247145   2.729   1.121  12.781 -2.8367  0.8042 -0.6343
 8552TIP3   OH247146   4.587   2.019  15.568  0.7463  0.8815 -0.4598
 8552TIP3    H147147   4.547   2.105  15.578  1.9839  1.7093 -2.1826
 8552TIP3    H247148   4.661   2.020  15.628  0.2305  0.6439  0.1951
 8553TIP3   OH247149   4.703   1.110   0.936  0.0625 -0.0401  0.5489
 8553TIP3    H147150   4.653   1.081   1.012 -1.1772  0.0613 -0.1999
 8553TIP3    H247151   4.646   1.174   0.893  0.2822 -0.8660 -1.0278
 8554TIP3   OH247152   5.706   6.177  13.242  0.0218  0.2381 -0.1374
 8554TIP3    H147153   5.691   6.156  13.335  1.1806 -0.0762 -0.0058
 8554TIP3    H247154   5.626   6.223  13.215  0.5887  2.4789  1.6504
 8555TIP3   OH247155   5.525   2.549  15.041  0.0414  0.0847  0.3043
 8555TIP3    H147156   5.465   2.474  15.047  1.7478 -1.2719  1.9178
 8555TIP3    H247157   5.500   2.594  14.961 -1.0909 -2.2141 -0.7229
 8556TIP3   OH247158   2.086   2.848  14.449 -0.3108 -0.6325  0.1927
 8556TIP3    H147159   2.094   2.753  14.438  0.2591 -0.5404 -0.2030
 8556TIP3    H247160   2.003   2.870  14.407 -1.4915 -1.2235  2.0455
 8557TIP3   OH247161   2.542   2.396  15.273 -0.0930 -0.5677  0.5351
 8557TIP3    H147162   2.518   2.463  15.338  1.2329  0.6244 -0.1371
 8557TIP3    H247163   2.587   2.445  15.204  0.7234 -2.1374 -0.1033
 8558TIP3   OH247164   0.721   3.892   4.645 -0.7044  0.1749 -0.4708
 8558TIP3    H147165   0.654   3.960   4.633 -2.7509 -1.4683  0.8066
 8558TIP3    H247166   0.722   3.876   4.740  1.8058  0.3428 -0.4045
 8559TIP3   OH247167   4.976   1.418   3.822  0.0234 -0.1777 -0.2570
 8559TIP3    H147168   5.035   1.399   3.896 -0.3129 -0.8424 -0.1570
 8559TIP3    H247169   5.014   1.496   3.782  1.1860 -0.7878 -0.4075
 8560TIP3   OH247170   5.452   3.824  15.761 -0.2152  0.2740 -0.0172
 8560TIP3    H147171   5.387   3.892  15.745  0.9896  2.3182  2.7998
 8560TIP3    H247172   5.409   3.762  15.820 -0.5708 -0.0956 -0.6634
 8561TIP3   OH247173   6.398   2.458   4.436 -0.1815 -0.7116 -0.0702
 8561TIP3    H147174   6.331   2.469   4.369 -1.7002  1.1779  1.6142
 8561TIP3    H247175   6.475   2.502   4.400 -1.4051  1.5754 -0.0780
 8562TIP3   OH247176   5.660   4.241  11.871 -0.0500 -0.3209 -0.0997
 8562TIP3    H147177   5.712   4.319  11.854 -1.1103  0.2967 -0.6167
 8562TIP3    H247178   5.720   4.168  11.855  0.2530  0.3268 -2.3305
 8563TIP3   OH247179   5.697   2.131  16.301 -0.4129  0.2825 -0.0027
 8563TIP3    H147180   5.694   2.056  16.360  0.5219  0.0867 -0.1987
 8563TIP3    H247181   5.722   2.205  16.357  1.6892 -0.1183 -0.3194
 8564TIP3   OH247182   3.481   0.880  15.819 -0.3524  0.2362 -0.4247
 8564TIP3    H147183   3.522   0.798  15.848 -0.4451 -0.5418 -2.3454
 8564TIP3    H247184   3.391   0.856  15.800 -0.2162  0.6228 -1.6160
 8565TIP3   OH247185   3.342   4.204   4.689  0.6040 -0.0047 -0.0835
 8565TIP3    H147186   3.351   4.150   4.610  0.0019  0.6931 -0.6422
 8565TIP3    H247187   3.431   4.216   4.721  0.7204 -1.7636  0.3565
 8566TIP3   OH247188   5.804   0.569   2.074 -0.3712  0.0065 -0.2493
 8566TIP3    H147189   5.761   0.646   2.036 -1.1213 -0.3860 -0.2150
 8566TIP3    H247190   5.856   0.532   2.003  1.4455  1.5380  0.1882
 8567TIP3   OH247191   2.573   6.079  16.715 -0.0724 -0.3307 -0.2545
 8567TIP3    H147192   2.611   6.040  16.793 -0.0520 -0.2509 -0.2245
 8567TIP3    H247193   2.509   6.015  16.684 -0.2990 -0.2266  0.0002
 8568TIP3   OH247194   4.979   0.571   0.351  0.3917 -0.5379 -0.0944
 8568TIP3    H147195   4.886   0.575   0.375  0.2576 -2.1910 -0.2313
 8568TIP3    H247196   5.011   0.491   0.393  1.4395 -0.6546 -1.0849
 8569TIP3   OH247197   2.740   2.226  15.111  0.2376  0.3781  0.2594
 8569TIP3    H147198   2.729   2.185  15.026  1.1409  1.7617 -0.5622
 8569TIP3    H247199   2.664   2.284  15.120  1.2040  1.8597 -0.6212
 8570TIP3   OH247200   4.226   6.334   2.329 -0.0337  0.2095 -0.2914
 8570TIP3    H147201   4.235   6.398   2.258 -0.4061  1.3574  0.6723
 8570TIP3    H247202   4.270   6.256   2.296  0.5921  1.0120 -1.4301
 8571TIP3   OH247203   3.465   6.049  13.290 -0.0455  1.0543 -0.1720
 8571TIP3    H147204   3.389   5.996  13.267  0.3267  0.2941  0.2887
 8571TIP3    H247205   3.521   6.047  13.213 -0.2693  1.2245 -0.3419
 8572TIP3   OH247206   4.206   0.782   2.195  0.6046 -0.4476 -0.1222
 8572TIP3    H147207   4.170   0.819   2.276  1.2084  0.6540 -0.3378
 8572TIP3    H247208   4.134   0.729   2.159  0.5758 -1.6046  1.5105
 8573TIP3   OH247209   4.224   0.403   1.557  0.7479  0.4873  0.4533
 8573TIP3    H147210   4.212   0.334   1.622  0.0212  0.6535  0.4977
 8573TIP3    H247211   4.182   0.370   1.477 -0.9221  1.4646  0.8797
 8574TIP3   OH247212   5.824   2.137  12.829  0.6070 -0.0583  0.0943
 8574TIP3    H147213   5.880   2.134  12.751  0.0841 -1.3739 -0.2523
 8574TIP3    H247214   5.875   2.186  12.893  2.0523 -0.9770 -0.3049
 8575TIP3   OH247215   1.252   1.941  14.402  0.0495  0.0194  0.1022
 8575TIP3    H147216   1.313   2.014  14.407  0.3840 -0.2963  0.9058
 8575TIP3    H247217   1.167   1.979  14.423  0.0093  0.4026 -0.7194
 8576TIP3   OH247218   4.500   3.861   6.581  0.4210 -0.1572 -0.2656
 8576TIP3    H147219   4.591   3.888   6.574 -0.0844  1.5947 -0.6233
 8576TIP3    H247220   4.495   3.812   6.663  1.8558 -1.1933 -0.7452
 8577TIP3   OH247221   0.649   2.362  13.919  0.6423 -0.0242  0.1152
 8577TIP3    H147222   0.664   2.282  13.969 -1.0486 -0.5892 -0.2005
 8577TIP3    H247223   0.728   2.374  13.866  1.6039 -0.5360  1.3964
 8578TIP3   OH247224   6.441   2.777  12.725  0.5512  0.1355 -0.0090
 8578TIP3    H147225   6.516   2.733  12.766  0.9295  0.1780 -0.6476
 8578TIP3    H247226   6.479   2.856  12.686  0.3584 -0.3542 -1.2133
 8579TIP3   OH247227   1.147   1.953  13.444 -0.0051 -0.4817 -0.5267
 8579TIP3    H147228   1.079   1.999  13.493  0.7834  1.0558 -0.7987
 8579TIP3    H247229   1.215   1.935  13.509  0.1367 -0.3262 -0.6317
 8580TIP3   OH247230   6.274   3.906  16.076 -0.0055 -0.1624  0.2751
 8580TIP3    H147231   6.267   3.921  15.982  0.4509  2.0462  0.5235
 8580TIP3    H247232   6.184   3.910  16.107 -0.0906 -0.1154  0.0247
 8581TIP3   OH247233   4.435   0.178   2.110 -0.0227 -0.2933  0.5889
 8581TIP3    H147234   4.461   0.099   2.157  1.2644  0.5153  1.2835
 8581TIP3    H247235   4.483   0.173   2.027 -0.2757 -0.4494  0.4516
 8582TIP3   OH247236   2.375   4.563  15.079 -0.2819  0.0683 -0.3651
 8582TIP3    H147237   2.357   4.524  14.994  1.2693 -1.6389  0.0147
 8582TIP3    H247238   2.425   4.642  15.059  1.8445 -1.3523 -1.0797
 8583TIP3   OH247239   1.713   1.526  15.627 -0.2414 -0.1837 -0.6945
 8583TIP3    H147240   1.709   1.488  15.539 -1.3506  0.0589 -0.7588
 8583TIP3    H247241   1.639   1.487  15.673  0.4698 -0.4871  0.2143
 8584TIP3   OH247242   1.388   2.595  15.091  0.0607 -0.3182  0.4556
 8584TIP3    H147243   1.436   2.618  15.171  2.2910 -0.3141 -0.7826
 8584TIP3    H247244   1.426   2.511  15.064  2.4623  1.5146 -2.7096
 8585TIP3   OH247245   1.752   3.194  14.306  0.0578 -0.3127 -0.2422
 8585TIP3    H147246   1.665   3.234  14.315 -0.1949 -0.7467 -0.6561
 8585TIP3    H247247   1.739   3.126  14.240  1.0870  0.7088 -1.5515
 8586TIP3   OH247248   5.502   3.322   5.702  0.0022  0.4514 -0.0483
 8586TIP3    H147249   5.541   3.304   5.616  0.8741  0.6554  0.2900
 8586TIP3    H247250   5.538   3.254   5.759 -0.3452  0.4914  0.2194
 8587TIP3   OH247251   1.712   0.533  15.558 -0.2485  0.2150 -0.1126
 8587TIP3    H147252   1.694   0.452  15.605 -1.4431 -0.3999 -1.5333
 8587TIP3    H247253   1.749   0.504  15.474  1.9627  1.2727  0.4272
 8588TIP3   OH247254   0.295   2.053   1.600  0.2251  0.2782 -0.0663
 8588TIP3    H147255   0.371   1.996   1.594 -0.5385 -0.6848 -0.9379
 8588TIP3    H247256   0.274   2.075   1.509 -0.5382  0.5401  0.1638
 8589TIP3   OH247257   1.235   4.971   5.375 -0.0770  0.6476  0.2293
 8589TIP3    H147258   1.179   4.922   5.435 -1.5759  1.0589 -0.7860
 8589TIP3    H247259   1.254   5.053   5.421  0.2598  0.2229  0.8545
 8590TIP3   OH247260   5.860   0.899   6.448  0.3588 -0.0887  0.2898
 8590TIP3    H147261   5.817   0.820   6.415 -0.4946  0.3515  0.3097
 8590TIP3    H247262   5.921   0.868   6.514  0.0956 -0.7437  0.2317
 8591TIP3   OH247263   3.267   1.725  12.208  0.0060 -0.2770  0.2881
 8591TIP3    H147264   3.237   1.714  12.298 -2.1398 -1.1985 -0.4690
 8591TIP3    H247265   3.202   1.783  12.168  0.3445 -0.6978 -0.9202
 8592TIP3   OH247266   1.557   6.410   4.962  0.0749 -0.0677 -0.8170
 8592TIP3    H147267   1.529   6.351   5.031 -0.6022  0.0304 -1.0061
 8592TIP3    H247268   1.478   6.427   4.910  0.1368  1.3730 -0.4943
 8593TIP3   OH247269   1.058   5.466   0.189 -0.1542  0.2875  0.3116
 8593TIP3    H147270   0.967   5.492   0.198 -0.5507 -0.7591 -0.4589
 8593TIP3    H247271   1.077   5.474   0.095  0.4434  0.1712  0.4125
 8594TIP3   OH247272   4.481   2.824  16.652  0.6115 -0.3049 -0.2365
 8594TIP3    H147273   4.546   2.755  16.652 -0.4553 -1.3781  1.0554
 8594TIP3    H247274   4.503   2.879  16.728  1.0477  0.3710 -0.8461
 8595TIP3   OH247275   2.013   3.603  11.408  0.3428  0.0647  0.4606
 8595TIP3    H147276   1.974   3.683  11.443 -0.2360 -0.0548  0.1069
 8595TIP3    H247277   2.037   3.552  11.486 -0.1853  0.1520  0.6818
 8596TIP3   OH247278   2.091   0.180  12.752  0.0771  0.3260  0.4176
 8596TIP3    H147279   2.048   0.265  12.752 -1.3190 -0.3448  0.6825
 8596TIP3    H247280   2.045   0.130  12.820 -0.3721 -1.2096 -0.9278
 8597TIP3   OH247281   3.568   3.713   4.322 -0.0271  0.5914  0.0848
 8597TIP3    H147282   3.624   3.706   4.399  1.0002  0.4928 -0.6416
 8597TIP3    H247283   3.581   3.631   4.275 -0.9313  0.4934 -0.0028
 8598TIP3   OH247284   1.551   4.676  16.922 -0.4280  0.0775  0.4902
 8598TIP3    H147285   1.562   4.756  16.974 -0.0083  0.0129  0.5070
 8598TIP3    H247286   1.613   4.614  16.960 -0.3371 -0.0686  0.1128
 8599TIP3   OH247287   6.099   4.023   5.371 -0.3650 -0.3807 -0.3558
 8599TIP3    H147288   6.070   4.076   5.445 -0.5461 -1.6211  0.4919
 8599TIP3    H247289   6.039   3.949   5.370  0.7969 -1.3477 -0.5819
 8600TIP3   OH247290   6.543   6.563  12.762 -0.6548  0.1861  0.4118
 8600TIP3    H147291   6.593   6.508  12.702  0.1491 -0.1644  1.3797
 8600TIP3    H247292   6.452   6.552  12.734 -0.5519 -1.8393  0.7189
 8601TIP3   OH247293   3.464   4.911   0.496  0.1580  0.3815 -0.7825
 8601TIP3    H147294   3.510   4.831   0.523 -0.6850  0.5496  1.3449
 8601TIP3    H247295   3.395   4.922   0.561 -0.8124  1.9581 -1.9968
 8602TIP3   OH247296   0.785   3.081   1.268 -0.0560  0.0425  0.5909
 8602TIP3    H147297   0.804   3.011   1.331  0.2731 -0.0934  0.3447
 8602TIP3    H247298   0.865   3.089   1.216 -0.9119 -1.0663 -0.9810
 8603TIP3   OH247299   5.765   0.594   2.526 -0.2895  0.0658 -0.7776
 8603TIP3    H147300   5.732   0.667   2.474 -0.8260  0.5412  0.1951
 8603TIP3    H247301   5.710   0.594   2.605  1.5703  0.4446  0.5902
 8604TIP3   OH247302   6.763   0.792   3.434 -0.3680 -0.0953  0.0709
 8604TIP3    H147303   6.747   0.699   3.418 -0.3319 -0.3207  1.2793
 8604TIP3    H247304   6.800   0.796   3.522  0.4059  0.9944 -0.2831
 8605TIP3   OH247305   5.480   3.004   6.449 -0.1541  0.5313  0.2215
 8605TIP3    H147306   5.432   3.016   6.531 -0.1826  0.0925  0.2721
 8605TIP3    H247307   5.446   3.072   6.391  1.3985  2.2663  1.2501
 8606TIP3   OH247308   5.045   0.826   4.967 -0.8370  0.3561  0.3914
 8606TIP3    H147309   5.076   0.782   4.888 -0.0929  0.3972  0.6576
 8606TIP3    H247310   5.103   0.795   5.037 -1.2472  0.6107  0.8535
 8607TIP3   OH247311   1.636   2.046   2.209 -0.2765  0.2483 -0.6260
 8607TIP3    H147312   1.653   2.140   2.196 -0.5673  0.2287 -1.1602
 8607TIP3    H247313   1.630   2.036   2.304  1.2092  0.5201 -0.4715
 8608TIP3   OH247314   2.693   3.777   3.482 -0.0134 -0.1779  0.3110
 8608TIP3    H147315   2.754   3.850   3.495  0.2264 -0.3828  0.3413
 8608TIP3    H247316   2.628   3.811   3.419 -0.3371  0.3135  0.9037
 8609TIP3   OH247317   6.231   3.641   1.174  0.1129 -0.2480  0.0929
 8609TIP3    H147318   6.325   3.659   1.179 -0.1414  1.0332  0.7516
 8609TIP3    H247319   6.204   3.680   1.091 -0.0441  0.4292  0.4618
 8610TIP3   OH247320   5.604   6.662   3.362 -0.1506 -0.2096  0.2343
 8610TIP3    H147321   5.589   6.688   3.453  2.1814 -0.5485  0.7684
 8610TIP3    H247322   5.553   6.582   3.352  0.3641 -0.7421  1.5853
 8611TIP3   OH247323   6.173   2.500  15.102  0.5786  0.4866 -0.2764
 8611TIP3    H147324   6.236   2.453  15.157  0.2018 -0.1716 -0.4056
 8611TIP3    H247325   6.090   2.456  15.116  0.3800  0.6061 -1.0116
 8612TIP3   OH247326   0.796   6.284  16.282  0.2871  0.3920  0.0852
 8612TIP3    H147327   0.756   6.247  16.204 -0.7346 -0.5638  1.0161
 8612TIP3    H247328   0.847   6.358  16.251 -1.1163  0.8101 -1.3434
 8613TIP3   OH247329   3.246   1.987   6.693 -0.0173 -0.0149  0.9000
 8613TIP3    H147330   3.329   1.963   6.653  0.2262 -0.7750  1.8302
 8613TIP3    H247331   3.267   2.059   6.752  0.4605 -1.5974  2.8050
 8614TIP3   OH247332   6.329   4.508  11.404  0.4118  0.1895 -0.0146
 8614TIP3    H147333   6.253   4.481  11.353  1.2867 -4.5254  0.7001
 8614TIP3    H247334   6.397   4.524  11.338  0.1723 -0.9076 -0.5632
 8615TIP3   OH247335   1.832   4.241  16.964  0.4631  0.9066 -0.1405
 8615TIP3    H147336   1.873   4.184  17.029  0.5257 -1.0496 -1.7956
 8615TIP3    H247337   1.903   4.262  16.903 -0.3657 -0.5880 -1.7314
 8616TIP3   OH247338   3.547   1.415   4.693  0.3962  0.3086 -0.5759
 8616TIP3    H147339   3.468   1.423   4.746  0.6266  1.1298 -0.3380
 8616TIP3    H247340   3.530   1.469   4.615  0.1798 -0.6401 -1.2077
 8617TIP3   OH247341   2.523   5.736  17.289 -0.1797 -0.2464 -0.1587
 8617TIP3    H147342   2.562   5.673  17.228 -0.8959 -0.9065  0.0507
 8617TIP3    H247343   2.434   5.705  17.302 -0.5355  0.7960 -0.0119
 8618TIP3   OH247344   5.824   0.198   4.224  0.1995 -0.5448  0.0040
 8618TIP3    H147345   5.800   0.289   4.207  0.9354 -0.0368  1.5201
 8618TIP3    H247346   5.860   0.167   4.141  2.8422  1.5307  0.2300
 8619TIP3   OH247347   6.705   2.996  15.129 -0.4267 -0.0511  0.4261
 8619TIP3    H147348   6.764   2.927  15.097  0.9015  0.2968  1.9832
 8619TIP3    H247349   6.652   3.019  15.053  0.2537 -1.6031 -0.5786
 8620TIP3   OH247350   3.200   6.279  13.231  0.3446  0.4099 -0.1073
 8620TIP3    H147351   3.148   6.299  13.154  2.3909 -1.1755 -2.0326
 8620TIP3    H247352   3.162   6.198  13.266  0.5866  0.0861 -0.5954
 8621TIP3   OH247353   1.041   2.764  11.915  0.0004  0.3706 -0.0941
 8621TIP3    H147354   1.067   2.672  11.914  1.5164  0.7663 -0.3363
 8621TIP3    H247355   1.095   2.804  11.984  0.4144  1.3292 -0.9328
 8622TIP3   OH247356   1.338   5.831   5.542 -0.1507 -0.2862  0.1643
 8622TIP3    H147357   1.314   5.924   5.546 -0.2015 -0.1947 -1.4305
 8622TIP3    H247358   1.427   5.828   5.577  0.1516  0.4987 -0.5052
 8623TIP3   OH247359   4.957   0.761   1.850 -0.1272  0.7396 -0.2556
 8623TIP3    H147360   4.948   0.814   1.928 -1.3067 -1.9203  1.5658
 8623TIP3    H247361   4.934   0.672   1.878 -0.6401 -0.3484 -3.6243
 8624TIP3   OH247362   0.399   6.479   4.787 -0.4543  0.4179 -0.0939
 8624TIP3    H147363   0.432   6.403   4.835  0.2564  1.1104  0.5549
 8624TIP3    H247364   0.412   6.552   4.848 -3.1642  0.7684  0.2109
 8625TIP3   OH247365   5.206   5.761   2.716  0.1281 -0.4315  0.1705
 8625TIP3    H147366   5.126   5.752   2.766  1.4834 -0.7226  2.4151
 8625TIP3    H247367   5.214   5.679   2.667 -0.6070 -0.6449  0.4002
 8626TIP3   OH247368   4.131   4.745  11.378 -0.4360  0.2853 -0.3127
 8626TIP3    H147369   4.122   4.839  11.394 -0.3028  0.4236 -1.0074
 8626TIP3    H247370   4.222   4.734  11.351 -0.8897  0.2437 -1.9681
 8627TIP3   OH247371   4.866   6.173   0.927  0.6638 -0.4804  0.1079
 8627TIP3    H147372   4.938   6.117   0.898  0.5569  0.2628 -1.7356
 8627TIP3    H247373   4.908   6.241   0.981  1.4675  0.2981 -1.4439
 8628TIP3   OH247374   1.673   4.989   0.712  0.4283 -0.1526  0.5069
 8628TIP3    H147375   1.711   4.959   0.629  1.3394  0.3492  0.7363
 8628TIP3    H247376   1.635   4.910   0.751  1.4625 -0.7206  0.3912
 8629TIP3   OH247377   0.312   2.134  13.844  0.1977 -0.1409  0.9257
 8629TIP3    H147378   0.236   2.191  13.855 -0.1205  0.3588 -2.6196
 8629TIP3    H247379   0.275   2.046  13.838 -0.0762  0.0287 -0.0908
 8630TIP3   OH247380   2.382   4.458  13.917 -0.0431 -0.5279 -0.2147
 8630TIP3    H147381   2.356   4.538  13.871  1.0114  0.9635  1.6599
 8630TIP3    H247382   2.309   4.441  13.977 -0.2596 -0.9827 -0.6019
 8631TIP3   OH247383   6.681   4.769   1.372 -0.1431  0.1054  0.5955
 8631TIP3    H147384   6.670   4.800   1.282 -0.8223 -1.5345  0.0735
 8631TIP3    H247385   6.604   4.801   1.418 -1.3486 -1.5073 -0.1784
 8632TIP3   OH247386   5.513   0.203   6.285 -0.7820 -0.3964  0.5269
 8632TIP3    H147387   5.464   0.151   6.349 -1.9670  0.2845  0.1971
 8632TIP3    H247388   5.448   0.231   6.221  0.1653 -0.0066 -0.2937
 8633TIP3   OH247389   3.110   6.186   0.909  0.0072 -0.0721  0.5019
 8633TIP3    H147390   3.128   6.278   0.928 -0.8472 -0.0166  1.0937
 8633TIP3    H247391   3.016   6.177   0.924  0.3280 -1.3992  1.9855
 8634TIP3   OH247392   3.056   5.769   2.949  0.2910 -0.3648 -0.3928
 8634TIP3    H147393   3.065   5.785   2.855  2.7836 -2.4837 -0.6104
 8634TIP3    H247394   3.024   5.679   2.955 -0.5699 -0.0067  0.8295
 8635TIP3   OH247395   1.677   0.626   4.396  0.5141  0.0635  0.2822
 8635TIP3    H147396   1.625   0.561   4.442  1.6166 -1.2646 -0.2550
 8635TIP3    H247397   1.613   0.685   4.356 -0.5208 -0.7772  0.6619
 8636TIP3   OH247398   1.562   2.695  13.925 -0.8120  0.0362 -0.6012
 8636TIP3    H147399   1.507   2.772  13.938 -0.9588 -0.2440  0.5607
 8636TIP3    H247400   1.652   2.727  13.934 -0.7447  0.5392 -2.7433
 8637TIP3   OH247401   0.997   2.969   2.182  0.1428  0.1860 -0.2572
 8637TIP3    H147402   1.050   3.048   2.185 -1.2742  1.1567  0.1778
 8637TIP3    H247403   1.053   2.901   2.220  1.0735  1.1515  0.1523
 8638TIP3   OH247404   6.715   3.222  16.446  0.3973 -0.6686  0.0656
 8638TIP3    H147405   6.676   3.308  16.432  1.0968 -0.4596 -0.7486
 8638TIP3    H247406   6.680   3.192  16.530  0.9721  0.8702  0.8888
 8639TIP3   OH247407   2.567   2.249  12.358 -0.1394  0.2876  0.3666
 8639TIP3    H147408   2.487   2.299  12.339 -0.7900 -0.9419 -0.2386
 8639TIP3    H247409   2.603   2.290  12.436 -0.4473  1.9392 -0.3170
 8640TIP3   OH247410   1.924   1.621  15.934 -0.7712 -0.3550  0.2867
 8640TIP3    H147411   1.945   1.702  15.980 -1.4121  0.0930 -0.1979
 8640TIP3    H247412   1.908   1.557  16.004 -2.0111  0.3862  0.7184
 8641TIP3   OH247413   1.201   3.316   6.111  0.3919  0.2918  0.4096
 8641TIP3    H147414   1.243   3.280   6.189 -0.4429 -0.2273  0.6337
 8641TIP3    H247415   1.150   3.390   6.142 -0.4145 -0.2732  0.4697
 8642TIP3   OH247416   2.997   2.148  13.768 -0.1067 -0.1009 -0.1476
 8642TIP3    H147417   3.089   2.175  13.763 -0.3671  0.8299 -0.1020
 8642TIP3    H247418   2.984   2.094  13.690 -0.2123  2.0355 -1.7155
 8643TIP3   OH247419   2.650   6.092  13.758  1.0522 -0.1349  0.3013
 8643TIP3    H147420   2.698   6.169  13.788  0.7806  0.2122 -0.1351
 8643TIP3    H247421   2.654   6.098  13.662 -1.1940  0.7572  0.2146
 8644TIP3   OH247422   5.028   6.038   5.652 -0.1421  1.0504 -0.1570
 8644TIP3    H147423   5.117   6.004   5.664 -0.1671  1.2087  0.5364
 8644TIP3    H247424   5.036   6.105   5.584  0.5619  2.1230  0.9361
 8645TIP3   OH247425   2.691   4.569  12.622  0.2175  0.2747  0.1721
 8645TIP3    H147426   2.662   4.624  12.549  1.2981 -0.5384 -0.9337
 8645TIP3    H247427   2.748   4.626  12.674 -2.5512  1.6578  1.9481
 8646TIP3   OH247428   3.650   2.236   1.686 -0.1433  0.6455 -0.7982
 8646TIP3    H147429   3.698   2.288   1.751  0.3953 -1.3373  0.4749
 8646TIP3    H247430   3.638   2.151   1.728 -1.7675  0.0012 -2.4609
 8647TIP3   OH247431   3.238   0.152   4.680  0.1937 -0.0051 -0.0229
 8647TIP3    H147432   3.271   0.197   4.602  0.7327  0.2052  0.3179
 8647TIP3    H247433   3.170   0.210   4.714  0.7543  0.4734  0.3082
 8648TIP3   OH247434   0.799   2.896   6.081 -0.1288 -0.5674  0.2952
 8648TIP3    H147435   0.704   2.893   6.073 -0.1170 -0.7836  0.2302
 8648TIP3    H247436   0.817   2.861   6.168 -0.1669  0.3917  0.6980
 8649TIP3   OH247437   0.777   2.361   0.411  0.3549 -1.1662 -0.0509
 8649TIP3    H147438   0.751   2.403   0.329  1.1538 -0.9325 -0.1934
 8649TIP3    H247439   0.716   2.395   0.476  0.9251  0.1315 -0.1826
 8650TIP3   OH247440   4.938   3.639  14.738  0.5603 -0.1627  0.2362
 8650TIP3    H147441   4.960   3.555  14.698 -2.4966 -0.3812 -1.2759
 8650TIP3    H247442   4.872   3.676  14.680  0.9112  2.7471  1.5447
 8651TIP3   OH247443   2.464   0.622  11.856 -0.2036 -0.0300 -0.2918
 8651TIP3    H147444   2.387   0.590  11.809 -0.6574 -0.5351  0.7680
 8651TIP3    H247445   2.537   0.572  11.820 -0.4392  0.0860 -0.9408
 8652TIP3   OH247446   0.400   6.628   1.786  0.2336 -0.5283 -0.0816
 8652TIP3    H147447   0.459   6.673   1.846  0.2575 -0.0785 -0.4365
 8652TIP3    H247448   0.430   6.653   1.699 -1.0033  0.4298 -0.2725
 8653TIP3   OH247449   2.165   3.698   1.879  0.2257  0.1990  0.1127
 8653TIP3    H147450   2.201   3.783   1.852 -1.0052  0.8641  0.5023
 8653TIP3    H247451   2.111   3.718   1.955 -1.0608 -0.7416 -0.5209
 8654TIP3   OH247452   1.829   3.558  15.701 -0.2279 -0.1569  0.5876
 8654TIP3    H147453   1.790   3.562  15.614 -0.4833  1.2155  0.7334
 8654TIP3    H247454   1.778   3.492  15.748 -0.9073 -0.0029  0.0814
 8655TIP3   OH247455   5.699   5.461   1.428 -0.8403 -0.6513 -0.5581
 8655TIP3    H147456   5.713   5.435   1.337 -0.5650 -2.4595 -0.0319
 8655TIP3    H247457   5.740   5.392   1.480  1.3109  1.5877  0.9786
 8656TIP3   OH247458   1.551   0.998   2.085 -0.1697  0.4718  0.2236
 8656TIP3    H147459   1.588   0.948   2.012 -0.0340  0.9540 -0.0450
 8656TIP3    H247460   1.627   1.037   2.129 -0.1983 -0.3756  1.0479
 8657TIP3   OH247461   6.300   0.547   3.591 -0.6723 -0.9371  0.2282
 8657TIP3    H147462   6.386   0.520   3.559 -0.0368 -0.2586  1.3021
 8657TIP3    H247463   6.267   0.469   3.637 -1.4253 -1.7845 -1.6380
 8658TIP3   OH247464   3.273   2.203   0.426 -0.2393 -0.0421  0.2144
 8658TIP3    H147465   3.240   2.266   0.490 -0.1472 -2.1182  2.4353
 8658TIP3    H247466   3.329   2.255   0.368  0.8315  1.7443  2.6560
 8659TIP3   OH247467   4.308   5.904   2.077 -0.0260  0.6870 -0.3939
 8659TIP3    H147468   4.372   5.878   2.012 -0.2137  0.9013 -0.6663
 8659TIP3    H247469   4.302   5.829   2.137 -0.5196  0.1163 -1.1352
 8660TIP3   OH247470   6.425   4.106  14.195  0.6857  0.8367 -0.4639
 8660TIP3    H147471   6.412   4.012  14.199  0.2262  0.9404  1.1157
 8660TIP3    H247472   6.338   4.143  14.184  0.5408  1.1553  1.4133
 8661TIP3   OH247473   1.791   4.515   1.897 -0.3924 -0.4171 -0.5595
 8661TIP3    H147474   1.767   4.497   1.806 -3.5589 -0.4670  0.1826
 8661TIP3    H247475   1.748   4.598   1.917  0.6096 -0.1868  0.8144
 8662TIP3   OH247476   0.694   0.562  17.108  0.5379 -0.0977  0.1656
 8662TIP3    H147477   0.665   0.541  17.197  1.5749 -0.6095  0.4029
 8662TIP3    H247478   0.775   0.613  17.121  0.9993 -0.6497 -0.4773
 8663TIP3   OH247479   2.436   4.080   1.396 -0.2413 -0.3793 -0.0484
 8663TIP3    H147480   2.447   4.029   1.476  1.5496  0.3982  0.2399
 8663TIP3    H247481   2.524   4.109   1.373 -1.1825  3.6024  0.4924
 8664TIP3   OH247482   6.219   2.393  14.489 -0.2802 -0.2175  0.1952
 8664TIP3    H147483   6.270   2.426  14.416  0.4714  0.9812  1.2298
 8664TIP3    H247484   6.159   2.330  14.449  2.2096 -1.9836 -1.0147
 8665TIP3   OH247485   1.668   1.206  12.185 -0.2779 -0.7568 -0.3190
 8665TIP3    H147486   1.739   1.158  12.143  0.8664 -0.5398  1.2536
 8665TIP3    H247487   1.608   1.138  12.216  0.4674 -1.1098  0.4000
 8666TIP3   OH247488   1.998   3.730  15.537  0.0459 -0.3916 -0.0210
 8666TIP3    H147489   2.034   3.818  15.547 -0.6756 -0.0649 -0.2960
 8666TIP3    H247490   1.961   3.710  15.623  0.3021 -0.4735  0.0727
 8667TIP3   OH247491   2.256   4.183   2.311  0.5906  0.6539  0.1906
 8667TIP3    H147492   2.161   4.177   2.304  0.6316  1.3268 -1.4880
 8667TIP3    H247493   2.276   4.274   2.288  1.5616  0.8830  1.8193
 8668TIP3   OH247494   4.283   2.267  14.276 -0.1995 -0.3477  0.0882
 8668TIP3    H147495   4.338   2.266  14.354  0.2970 -1.7277 -0.2453
 8668TIP3    H247496   4.344   2.258  14.203 -0.7957 -1.1088 -0.3348
 8669TIP3   OH247497   2.330   1.044  12.778 -0.0398 -0.1218 -0.0027
 8669TIP3    H147498   2.391   1.116  12.764 -1.0812  0.9295  0.6085
 8669TIP3    H247499   2.367   0.971  12.729  0.1950  1.2883 -2.0788
 8670TIP3   OH247500   4.284   5.206  13.000  0.6059 -0.6797  0.0756
 8670TIP3    H147501   4.203   5.186  12.953 -0.5873  1.6435  0.9620
 8670TIP3    H247502   4.354   5.182  12.940 -0.6296 -3.7500 -0.3393
 8671TIP3   OH247503   2.577   4.114   4.510 -0.4723 -0.1440  0.1528
 8671TIP3    H147504   2.502   4.106   4.569  0.1382 -1.9759  0.7461
 8671TIP3    H247505   2.653   4.118   4.568 -0.1070  3.1688 -0.3764
 8672TIP3   OH247506   4.379   2.503  12.684 -0.1874  0.2791 -0.0450
 8672TIP3    H147507   4.400   2.490  12.592 -2.0072 -0.5215 -0.4002
 8672TIP3    H247508   4.438   2.573  12.713  2.4153 -1.3814 -1.0013
 8673TIP3   OH247509   0.395   6.725   5.651  0.5355 -0.6150 -0.1194
 8673TIP3    H147510   0.482   6.719   5.690  1.2358 -0.5190 -1.5970
 8673TIP3    H247511   0.410   6.718   5.556 -0.5589  3.3226 -0.7846
 8674TIP3   OH247512   2.418   1.784  13.057 -0.1826 -0.2849 -0.2318
 8674TIP3    H147513   2.510   1.793  13.079 -0.3753  1.6523 -0.0688
 8674TIP3    H247514   2.378   1.742  13.134  0.0852  1.4996  0.9224
 8675TIP3   OH247515   6.779   4.733   1.892 -0.3571  0.0284 -0.0535
 8675TIP3    H147516   6.790   4.811   1.946  0.6614  2.5737 -3.5729
 8675TIP3    H247517   6.868   4.700   1.879 -0.3683  0.4474 -1.3724
 8676TIP3   OH247518   5.534   3.056  13.423  0.1231  0.5451 -0.3127
 8676TIP3    H147519   5.484   2.989  13.471  0.2442  0.0881 -0.8059
 8676TIP3    H247520   5.553   3.123  13.488  0.8770 -0.3767  0.4511
 8677TIP3   OH247521   6.267   3.950   1.841  0.3690 -0.4592  0.0438
 8677TIP3    H147522   6.195   3.966   1.903  0.4225 -0.9519  0.2395
 8677TIP3    H247523   6.239   3.873   1.792  0.2498  0.0335 -0.6715
 8678TIP3   OH247524   5.542   4.317  15.390  0.0740  0.3811  0.2471
 8678TIP3    H147525   5.619   4.272  15.426  0.1293 -0.0938 -0.4463
 8678TIP3    H247526   5.552   4.408  15.419  1.3868  0.5313 -0.6000
 8679TIP3   OH247527   4.256   0.296  11.501 -0.0090  0.3816  0.4904
 8679TIP3    H147528   4.229   0.229  11.564 -0.1136 -0.0118  0.0427
 8679TIP3    H247529   4.243   0.254  11.416 -1.4700  1.4551  0.1264
 8680TIP3   OH247530   4.514   5.827   5.502 -0.8250 -0.5304  0.3528
 8680TIP3    H147531   4.419   5.816   5.496 -0.8141 -0.6851  0.4383
 8680TIP3    H247532   4.549   5.774   5.430 -0.8988  1.2860 -1.0668
 8681TIP3   OH247533   4.213   3.202  13.898 -0.2206  0.4113 -0.9313
 8681TIP3    H147534   4.205   3.130  13.835  0.1627 -0.5219  0.0569
 8681TIP3    H247535   4.280   3.172  13.959 -0.6328  1.2801 -0.0418
 8682TIP3   OH247536   1.591   5.939   3.356 -0.1782  0.4959  0.2103
 8682TIP3    H147537   1.601   6.029   3.327 -1.0593 -0.0297 -1.9451
 8682TIP3    H247538   1.503   5.935   3.392 -0.7019  0.2244 -1.0270
 8683TIP3   OH247539   1.238   5.699   2.662  0.1227  0.0455 -0.1667
 8683TIP3    H147540   1.246   5.649   2.743 -0.3014  0.1130 -0.0793
 8683TIP3    H247541   1.274   5.642   2.594 -1.8079 -1.0528 -0.3306
 8684TIP3   OH247542   1.184   2.170   0.979 -0.5100 -0.3621  0.2886
 8684TIP3    H147543   1.263   2.205   0.938 -0.4983 -0.3518  0.3200
 8684TIP3    H247544   1.132   2.136   0.906 -1.0126  0.6877  0.1257
 8685TIP3   OH247545   0.871   5.466  16.983  0.1435  0.1313  0.1842
 8685TIP3    H147546   0.877   5.558  16.957 -0.8042 -0.2594 -1.4858
 8685TIP3    H247547   0.934   5.421  16.927  0.6743 -0.2508  1.0632
 8686TIP3   OH247548   2.376   2.161  15.215  0.0569  0.8920  0.3844
 8686TIP3    H147549   2.420   2.247  15.214  0.6177  0.6184  0.9002
 8686TIP3    H247550   2.396   2.123  15.130  0.8997  0.7378  0.6457
 8687TIP3   OH247551   3.667   1.314  16.415  0.4531 -0.0412 -0.3426
 8687TIP3    H147552   3.633   1.224  16.421 -2.4804  0.6770 -3.1942
 8687TIP3    H247553   3.756   1.302  16.382  0.4523 -1.9339  0.1850
 8688TIP3   OH247554   0.054   2.469   3.508 -0.2088 -0.2613 -0.2693
 8688TIP3    H147555   0.052   2.390   3.562  2.3083 -1.2209 -1.4365
 8688TIP3    H247556  -0.038   2.492   3.496 -0.9132 -1.3052  2.4931
 8689TIP3   OH247557   2.197   1.207  17.156 -0.3687  0.6845  0.4281
 8689TIP3    H147558   2.158   1.252  17.081  0.4844  0.0382 -0.4378
 8689TIP3    H247559   2.280   1.172  17.122 -0.2614 -0.1568  1.5022
 8690TIP3   OH247560   3.750   2.637   0.913  0.0586 -0.5268 -0.4452
 8690TIP3    H147561   3.760   2.725   0.876 -1.5492 -1.0341 -2.2947
 8690TIP3    H247562   3.832   2.593   0.893  1.2730  0.7773  1.3574
 8691TIP3   OH247563   2.997   2.975   0.324 -0.2205  0.2699  0.1961
 8691TIP3    H147564   3.081   2.930   0.329 -0.2356 -0.1810 -2.1001
 8691TIP3    H247565   2.940   2.914   0.278 -1.4588  1.0533  0.6276
 8692TIP3   OH247566   0.736   2.003  13.066 -0.5063 -0.2034 -0.1624
 8692TIP3    H147567   0.798   2.002  12.993 -0.3184 -2.0999 -0.0341
 8692TIP3    H247568   0.790   2.009  13.144 -0.5946 -0.1030 -0.1077
 8693TIP3   OH247569   4.911   4.791  17.352 -0.0728  0.1153  0.2183
 8693TIP3    H147570   4.955   4.876  17.341  2.9401 -1.4091 -0.4043
 8693TIP3    H247571   4.925   4.746  17.269  0.9965 -2.1020  1.5221
 8694TIP3   OH247572   3.928   3.278  15.883  0.6699 -0.0813  0.4986
 8694TIP3    H147573   3.906   3.357  15.933  2.3425  1.0937 -0.4972
 8694TIP3    H247574   4.020   3.289  15.860  0.1394 -0.7499 -2.3817
 8695TIP3   OH247575   1.520   6.221   6.362 -0.1780 -0.1488  0.5451
 8695TIP3    H147576   1.537   6.170   6.441  0.0847 -2.6232 -0.9730
 8695TIP3    H247577   1.607   6.246   6.331 -0.0390 -1.6189 -0.3739
 8696TIP3   OH247578   0.189   4.204   2.584 -0.7085  0.6161  0.2300
 8696TIP3    H147579   0.169   4.297   2.592 -1.8915  0.3638  0.3017
 8696TIP3    H247580   0.113   4.159   2.621  0.0518 -0.3853  0.6494
 8697TIP3   OH247581   3.161   3.891   6.012  0.3490 -0.4106  0.3822
 8697TIP3    H147582   3.091   3.956   6.016 -0.7436 -1.5995  1.3386
 8697TIP3    H247583   3.212   3.905   6.091  0.0859 -0.7293  0.6120
 8698TIP3   OH247584   1.540   4.490  16.710  0.1752 -0.4271 -0.4309
 8698TIP3    H147585   1.490   4.436  16.770  1.7617 -2.2420 -0.6778
 8698TIP3    H247586   1.536   4.578  16.748  0.5073 -1.3666  1.9084
 8699TIP3   OH247587   0.878   6.571   2.103  0.2496 -0.5347 -0.4729
 8699TIP3    H147588   0.882   6.524   2.186  1.3745  1.7815  0.8878
 8699TIP3    H247589   0.887   6.503   2.037  0.3980 -2.3606  1.3274
 8700TIP3   OH247590   3.470   2.497  14.562 -0.1272 -0.4583  0.2899
 8700TIP3    H147591   3.398   2.556  14.585 -0.3637 -1.4038  2.1811
 8700TIP3    H247592   3.548   2.541  14.597  0.1600  0.2669 -1.2073
 8701TIP3   OH247593   6.676   3.514  16.457 -0.1034  0.2463  0.6969
 8701TIP3    H147594   6.758   3.550  16.424 -0.5624 -0.5376 -1.4583
 8701TIP3    H247595   6.698   3.481  16.544  2.3615 -1.4575 -0.4409
 8702TIP3   OH247596   5.243   3.994   5.911 -0.9621  0.2212  0.3253
 8702TIP3    H147597   5.250   3.948   5.828 -0.4747  0.8861 -0.0082
 8702TIP3    H247598   5.152   3.981   5.938 -0.6396 -1.6190  0.6623
 8703TIP3   OH247599   3.720   1.854   3.122  0.3422  0.2880  0.0411
 8703TIP3    H147600   3.789   1.916   3.099 -0.6084  1.0307 -0.9081
 8703TIP3    H247601   3.696   1.876   3.212  1.0060  0.3365  0.2058
 8704TIP3   OH247602   6.050   2.311   5.384 -0.6916  0.0240  0.2851
 8704TIP3    H147603   6.124   2.355   5.425 -1.5961 -0.0669  2.1571
 8704TIP3    H247604   6.069   2.312   5.291  1.4078  0.4350  0.6718
 8705TIP3   OH247605   1.267   3.414  12.168 -0.2615 -0.4018 -0.6333
 8705TIP3    H147606   1.230   3.488  12.216 -1.8963 -0.0297 -2.2973
 8705TIP3    H247607   1.342   3.386  12.219 -0.8819  1.0401  1.1666
 8706TIP3   OH247608   2.006   3.207  14.725 -0.0329 -0.4904  0.1775
 8706TIP3    H147609   2.000   3.293  14.767  2.8793 -0.7635  1.3874
 8706TIP3    H247610   1.967   3.219  14.639 -2.6525  1.1403  1.4575
 8707TIP3   OH247611   2.311   0.693  13.235  0.0357  0.1463  0.5626
 8707TIP3    H147612   2.322   0.701  13.330 -2.3404 -0.9964  1.0069
 8707TIP3    H247613   2.373   0.625  13.209 -0.8826 -1.1783  1.7085
 8708TIP3   OH247614   3.970   2.541   5.184  0.1060  0.3405  0.0612
 8708TIP3    H147615   4.030   2.472   5.212  0.3065  0.3601 -0.3150
 8708TIP3    H247616   3.963   2.599   5.260 -0.2683 -0.2278  0.4735
 8709TIP3   OH247617   2.285   2.752  12.451 -0.3749  0.2317 -0.1700
 8709TIP3    H147618   2.226   2.827  12.458 -1.5246 -0.4505 -1.8331
 8709TIP3    H247619   2.233   2.679  12.486  0.0645 -0.1105 -0.2256
 8710TIP3   OH247620   2.507   6.103   0.433 -0.3517 -0.1511 -0.2524
 8710TIP3    H147621   2.441   6.089   0.366  0.9820  0.3087 -1.7096
 8710TIP3    H247622   2.586   6.061   0.399  1.0182  2.1344 -0.1487
 8711TIP3   OH247623   1.987   4.105   2.960 -0.0052  0.1582 -0.5130
 8711TIP3    H147624   2.004   4.045   2.887 -2.4580 -0.5540 -0.5713
 8711TIP3    H247625   1.893   4.122   2.956 -0.0207  0.9752  1.8379
 8712TIP3   OH247626   3.737   3.618   4.544  0.3246  0.2327  0.4910
 8712TIP3    H147627   3.742   3.595   4.637 -0.5116  1.1060  0.7678
 8712TIP3    H247628   3.746   3.535   4.498 -0.6377 -0.3939  1.4002
 8713TIP3   OH247629   0.427   3.825  10.182  0.3328  0.3716 -0.4268
 8713TIP3    H147630   0.361   3.857  10.244  0.9043  0.5046  0.1224
 8713TIP3    H247631   0.421   3.730  10.188 -0.6400  0.3512 -1.2854
 8714TIP3   OH247632   2.061   5.754   1.025 -0.3945  0.1029  0.2518
 8714TIP3    H147633   2.145   5.718   1.053 -0.6327 -0.5645  0.1431
 8714TIP3    H247634   2.083   5.837   0.982  0.1749  0.0778  0.4894
 8715TIP3   OH247635   3.070   5.010   5.714  0.2342  0.2691  0.2753
 8715TIP3    H147636   3.085   5.035   5.623  2.7083  0.6794  0.7221
 8715TIP3    H247637   3.113   5.079   5.765  1.3349 -1.3679  1.6781
 8716TIP3   OH247638   2.865   3.977   3.564  0.2224  0.3277 -0.4197
 8716TIP3    H147639   2.868   4.063   3.521  0.0770  0.0956 -0.9038
 8716TIP3    H247640   2.949   3.970   3.609 -0.1846  1.1717  0.5147
 8717TIP3   OH247641   4.321   4.810   0.243  0.1588  0.1444 -0.5082
 8717TIP3    H147642   4.382   4.863   0.192  2.3100 -1.2250  0.5059
 8717TIP3    H247643   4.354   4.816   0.333 -0.9052 -1.0423 -0.0156
 8718TIP3   OH247644   3.366   0.230  12.175  0.1179 -0.1350  0.4474
 8718TIP3    H147645   3.439   0.190  12.222  0.4495 -0.0641 -0.0028
 8718TIP3    H247646   3.386   0.216  12.083  0.3181  1.1909  0.2731
 8719TIP3   OH247647   3.623   6.041  16.610  0.2485  0.3289 -0.0841
 8719TIP3    H147648   3.546   6.057  16.664  0.1751 -3.1888  1.0813
 8719TIP3    H247649   3.588   6.031  16.521 -0.3287  0.9730  0.0637
 8720TIP3   OH247650   4.907   0.865   2.363 -0.1619  0.4178  0.1582
 8720TIP3    H147651   4.862   0.813   2.429 -1.4264 -0.5296 -1.3760
 8720TIP3    H247652   4.839   0.890   2.300  1.1881  0.0878 -1.5200
 8721TIP3   OH247653   4.153   3.927  14.244  0.3149 -0.0661 -0.6738
 8721TIP3    H147654   4.184   3.840  14.221 -0.7302 -0.4040 -0.8169
 8721TIP3    H247655   4.060   3.916  14.263  0.4391  0.7851  0.5616
 8722TIP3   OH247656   0.182   5.582   3.977 -0.3909 -0.2894 -0.0725
 8722TIP3    H147657   0.246   5.626   4.033  2.2681 -1.1227 -2.2126
 8722TIP3    H247658   0.165   5.644   3.907  2.1540 -1.8493 -2.2500
 8723TIP3   OH247659   6.000   1.114   6.287  0.1636  0.3562 -0.0525
 8723TIP3    H147660   5.947   1.059   6.345  0.5643 -0.7289 -0.6970
 8723TIP3    H247661   6.065   1.055   6.250  2.9726  1.9312  1.9713
 8724TIP3   OH247662   2.166   6.792  11.360  0.0974  0.1223 -0.3315
 8724TIP3    H147663   2.184   6.876  11.318 -0.8948  1.0683  1.0257
 8724TIP3    H247664   2.210   6.727  11.305  0.1485  1.4315 -1.9075
 8725TIP3   OH247665   6.427   5.038  11.521 -0.0032 -0.1161  0.0821
 8725TIP3    H147666   6.460   5.109  11.575  0.9587 -0.5758  0.1108
 8725TIP3    H247667   6.355   5.077  11.471 -0.2576  0.5604  0.9540
 8726TIP3   OH247668   1.394   3.324  16.125  0.6486 -0.2591 -0.3741
 8726TIP3    H147669   1.474   3.286  16.088  1.7109  1.3891  0.1361
 8726TIP3    H247670   1.381   3.405  16.076  0.3527  0.4274  0.8110
 8727TIP3   OH247671   6.155   3.563  15.994  0.0722  0.0254 -0.2191
 8727TIP3    H147672   6.151   3.636  15.932  0.4052 -0.3018 -0.6265
 8727TIP3    H247673   6.080   3.507  15.970  1.8435 -1.6350 -2.2695
 8728TIP3   OH247674   4.007   0.539   2.651 -0.3062 -0.3955 -0.0545
 8728TIP3    H147675   3.970   0.603   2.590  0.2582 -0.0319 -0.0269
 8728TIP3    H247676   3.986   0.574   2.738 -0.7720 -0.7107 -0.0415
 8729TIP3   OH247677   6.427   1.236  13.785 -0.5717  0.5453 -0.1305
 8729TIP3    H147678   6.402   1.326  13.806  1.7225  1.6479 -1.6364
 8729TIP3    H247679   6.382   1.217  13.702  1.0004  1.4110 -1.2544
 8730TIP3   OH247680   5.107   5.614  15.106 -0.7949 -0.2730  0.4662
 8730TIP3    H147681   5.159   5.548  15.151 -0.0191  0.0301  0.0286
 8730TIP3    H247682   5.039   5.638  15.169 -0.4713 -0.7483  1.0012
 8731TIP3   OH247683   3.746   3.537   4.169 -0.0782  0.5704  0.0278
 8731TIP3    H147684   3.734   3.518   4.076  0.8090  0.6927 -0.1160
 8731TIP3    H247685   3.818   3.480   4.196 -0.3560  0.5058  0.6540
 8732TIP3   OH247686   0.060   4.780  17.192  0.3731  0.4140  0.6078
 8732TIP3    H147687   0.080   4.779  17.098  1.3238  2.1870  0.7571
 8732TIP3    H247688   0.139   4.747  17.234  0.2958  0.5309  0.8462
 8733TIP3   OH247689   4.791   4.529   2.799  0.7374 -0.2791 -0.2503
 8733TIP3    H147690   4.742   4.610   2.786  1.8178  0.4550  0.1813
 8733TIP3    H247691   4.792   4.488   2.712  0.8102  0.5213 -0.6327
 8734TIP3   OH247692   2.480   0.452   5.359  0.0534 -0.1867  0.5906
 8734TIP3    H147693   2.390   0.454   5.391 -0.8485  0.3240 -1.7462
 8734TIP3    H247694   2.494   0.361   5.332  0.2852 -0.2915  1.0593
 8735TIP3   OH247695   3.420   1.329   3.720 -0.1998  0.0541  0.2530
 8735TIP3    H147696   3.394   1.352   3.809 -1.1372 -0.2320  0.0676
 8735TIP3    H247697   3.513   1.309   3.726 -0.3808 -0.5314  1.2813
 8736TIP3   OH247698   6.453   4.644  10.271 -0.3263  0.3729  0.0861
 8736TIP3    H147699   6.538   4.648  10.316 -0.0308 -0.4718 -0.3853
 8736TIP3    H247700   6.427   4.736  10.262  0.8943  0.6912 -0.4342
 8737TIP3   OH247701   5.657   5.964  15.907 -0.9882 -0.1023  0.2958
 8737TIP3    H147702   5.599   6.031  15.942  1.1897  1.7039  0.6741
 8737TIP3    H247703   5.694   5.921  15.984 -1.4254 -0.9133  0.0666
 8738TIP3   OH247704   1.137   4.736  11.245 -0.5640  0.0750  0.4239
 8738TIP3    H147705   1.132   4.829  11.264  0.8133 -0.0379  1.3995
 8738TIP3    H247706   1.074   4.696  11.305 -0.0691  0.2414  1.0660
 8739TIP3   OH247707   0.185   4.376   4.404 -0.3388  0.2759 -0.1372
 8739TIP3    H147708   0.234   4.339   4.331 -1.1171 -0.9574 -0.0485
 8739TIP3    H247709   0.161   4.301   4.458 -0.2059  1.1130  1.1378
 8740TIP3   OH247710   2.071   5.106  16.571 -0.1939  0.4987 -0.3948
 8740TIP3    H147711   2.137   5.037  16.568 -1.2991 -0.6925  1.0741
 8740TIP3    H247712   2.048   5.121  16.479  0.0717 -1.1125 -0.7560
 8741TIP3   OH247713   6.736   2.257  11.702  0.5943 -0.2181 -0.7336
 8741TIP3    H147714   6.694   2.184  11.747  0.4535 -1.2551 -2.4487
 8741TIP3    H247715   6.683   2.333  11.724 -0.3197 -0.9535 -0.3266
 8742TIP3   OH247716   5.355   0.179  13.373 -0.3211  0.0423 -0.2551
 8742TIP3    H147717   5.372   0.203  13.464  1.6499  1.9060 -1.0328
 8742TIP3    H247718   5.425   0.222  13.324 -2.1991  0.3291 -2.8227
 8743TIP3   OH247719   4.417   0.964   3.324  0.2091  0.1060 -0.3315
 8743TIP3    H147720   4.378   0.925   3.402  0.6686 -0.1423 -0.2254
 8743TIP3    H247721   4.467   0.894   3.284  2.4181  0.9636  0.7652
 8744TIP3   OH247722   0.321   0.647  15.201 -0.6751  0.5489 -0.2440
 8744TIP3    H147723   0.389   0.697  15.247 -0.9872  2.3476 -1.6145
 8744TIP3    H247724   0.253   0.633  15.266 -0.2553  1.3039  0.3808
 8745TIP3   OH247725   2.918   4.854   0.542  0.0833 -0.0585 -0.0393
 8745TIP3    H147726   2.964   4.839   0.460  0.2682 -2.9118  0.5005
 8745TIP3    H247727   2.850   4.917   0.520  0.8203  0.0756 -2.1087
 8746TIP3   OH247728   2.170   4.427  16.454 -0.0641 -0.3780  0.1013
 8746TIP3    H147729   2.136   4.430  16.365  2.0689 -0.2142 -0.7529
 8746TIP3    H247730   2.222   4.507  16.463  0.3383 -0.7455  1.2380
 8747TIP3   OH247731   4.683   5.987   0.761  0.2584  0.1479 -0.0195
 8747TIP3    H147732   4.698   6.071   0.803  1.6062 -0.6274  1.1398
 8747TIP3    H247733   4.700   5.922   0.829 -0.1774 -1.0938 -1.0378
 8748TIP3   OH247734   0.766   4.606  13.637 -0.5001  0.3578  0.1952
 8748TIP3    H147735   0.686   4.558  13.658 -0.2010  0.2707  1.1688
 8748TIP3    H247736   0.738   4.674  13.576 -1.2760  0.1858  0.3550
 8749TIP3   OH247737   5.554   5.346   5.084 -0.0079  0.0464  0.2815
 8749TIP3    H147738   5.563   5.407   5.157  0.1618 -0.9576  1.1270
 8749TIP3    H247739   5.643   5.337   5.048  0.1528 -0.4481  0.7881
 8750TIP3   OH247740   3.955   5.319   1.622 -0.4221  0.0445  1.0479
 8750TIP3    H147741   3.964   5.328   1.717  0.2210 -0.3240  1.0276
 8750TIP3    H247742   3.993   5.399   1.586  2.9894 -1.3991  0.9709
 8751TIP3   OH247743   6.371   6.664  11.497 -0.1586  0.6040  0.2386
 8751TIP3    H147744   6.299   6.677  11.435 -0.5346  1.3911  0.8245
 8751TIP3    H247745   6.416   6.586  11.465 -1.4829 -0.1246  0.0604
 8752TIP3   OH247746   4.228   2.471  12.155  1.2018  0.5162  0.6232
 8752TIP3    H147747   4.238   2.487  12.249  1.9631 -0.2690  0.6953
 8752TIP3    H247748   4.317   2.477  12.120  1.0151  0.1633  0.0681
 8753TIP3   OH247749   0.070   5.603   4.275 -0.7003 -0.1472  0.4171
 8753TIP3    H147750  -0.017   5.622   4.311 -2.1577 -2.7735 -1.4402
 8753TIP3    H247751   0.062   5.622   4.182  1.3515  1.2781  0.4530
 8754TIP3   OH247752   3.412   6.571   5.438 -0.0871 -0.0516 -0.6226
 8754TIP3    H147753   3.339   6.537   5.489  1.1623 -0.5572  0.8998
 8754TIP3    H247754   3.389   6.662   5.419 -0.3392  0.3213  1.3397
 8755TIP3   OH247755   5.030   0.193  11.432 -0.0281  0.2380  0.2435
 8755TIP3    H147756   5.056   0.281  11.462  0.1642  0.0158  0.7388
 8755TIP3    H247757   5.100   0.167  11.373  0.0710  0.2968  0.3334
 8756TIP3   OH247758   1.458   5.890   4.192  0.2062  0.3910 -0.2210
 8756TIP3    H147759   1.468   5.794   4.194  1.1902  0.4885  0.3224
 8756TIP3    H247760   1.391   5.909   4.256 -2.2295 -0.1418 -2.4366
 8757TIP3   OH247761   3.606   4.248   4.748  0.0597 -0.3867 -0.0856
 8757TIP3    H147762   3.665   4.268   4.821  0.0801 -0.5268 -0.0638
 8757TIP3    H247763   3.652   4.183   4.696  0.1392 -0.1200 -0.3492
 8758TIP3   OH247764   3.685   5.693   1.759  0.1007  0.3660  0.3647
 8758TIP3    H147765   3.766   5.706   1.710  1.7211  0.0808  2.7672
 8758TIP3    H247766   3.663   5.780   1.793  0.2738  0.1750  0.9727
 8759TIP3   OH247767   3.315   0.739  13.227  0.2827  0.2294 -0.3463
 8759TIP3    H147768   3.323   0.731  13.132 -0.8531  0.6294 -0.4850
 8759TIP3    H247769   3.285   0.653  13.256 -3.0366  1.0880 -0.8151
 8760TIP3   OH247770   0.304   4.440   5.869  0.3044 -0.2228  0.5053
 8760TIP3    H147771   0.219   4.397   5.883  0.2658  0.0747  1.2466
 8760TIP3    H247772   0.366   4.368   5.860 -0.1662 -0.4657 -1.1479
 8761TIP3   OH247773   5.013   4.873   5.819 -0.3562  0.1323  0.1777
 8761TIP3    H147774   5.010   4.858   5.914  3.2465 -1.1483  0.2428
 8761TIP3    H247775   4.967   4.956   5.806  0.5675  1.2552  3.2957
 8762TIP3   OH247776   0.845   3.334   1.793  0.0736 -0.5331 -0.0778
 8762TIP3    H147777   0.878   3.423   1.803  2.2643 -1.3022 -0.0294
 8762TIP3    H247778   0.759   3.336   1.835  0.3778  1.3784  0.5414
 8763TIP3   OH247779   2.206   1.741   0.068 -0.2179 -0.4175 -0.0186
 8763TIP3    H147780   2.146   1.762   0.139  0.4489  0.9033  0.1785
 8763TIP3    H247781   2.193   1.647   0.052 -0.0689 -0.8409  2.1198
 8764TIP3   OH247782   2.763   2.471   2.588 -0.2571  0.5154 -0.4043
 8764TIP3    H147783   2.692   2.407   2.575 -0.5560  0.5555  0.9649
 8764TIP3    H247784   2.836   2.436   2.536  0.0531 -1.7127  1.3888
 8765TIP3   OH247785   0.142   4.686  14.973 -0.7391 -0.5459  0.7376
 8765TIP3    H147786   0.172   4.777  14.965 -0.5583 -0.7637 -2.5134
 8765TIP3    H247787   0.047   4.691  14.963 -0.5059 -0.8318 -4.0974
 8766TIP3   OH247788   5.680   4.201  13.205  0.3732 -0.2480  0.1761
 8766TIP3    H147789   5.738   4.270  13.237  0.2610 -0.0006 -0.1457
 8766TIP3    H247790   5.710   4.184  13.115  0.7108 -0.9604  0.4178
 8767TIP3   OH247791   3.169   5.958   0.780 -0.0320  0.0450 -0.6235
 8767TIP3    H147792   3.146   6.040   0.823 -0.6068 -0.2377 -0.3785
 8767TIP3    H247793   3.093   5.938   0.725 -0.4143 -0.9430  0.2463
 8768TIP3   OH247794   6.283   4.270  11.560  0.1452  0.2447  0.6627
 8768TIP3    H147795   6.239   4.338  11.611 -1.7812 -0.2725 -0.2323
 8768TIP3    H247796   6.323   4.317  11.487  0.4549  0.6278  1.0735
 8769TIP3   OH247797   0.888   6.324   3.836 -0.5757  0.0017 -0.2002
 8769TIP3    H147798   0.903   6.238   3.799  2.5239 -0.0240  0.8353
 8769TIP3    H247799   0.932   6.385   3.777 -0.7429  0.6283  0.2974
 8770TIP3   OH247800   3.523   5.990  16.016  0.5601  0.1971 -0.0653
 8770TIP3    H147801   3.429   5.976  16.008  0.6262 -1.1718  1.0948
 8770TIP3    H247802   3.536   6.082  15.995 -1.3307  0.9523  1.7988
 8771TIP3   OH247803   1.070   1.462   1.802 -0.1282  0.0385 -0.4839
 8771TIP3    H147804   1.078   1.461   1.707 -2.3341 -2.2797 -0.7467
 8771TIP3    H247805   0.998   1.401   1.821  1.1931 -0.7031  2.7719
 8772TIP3   OH247806   1.269   4.478   1.788 -0.1742  0.2768  0.0954
 8772TIP3    H147807   1.330   4.404   1.790 -1.2438 -0.7794 -2.1299
 8772TIP3    H247808   1.190   4.446   1.833 -1.3703 -0.7908 -2.5275
 8773TIP3   OH247809   5.359   1.235  13.866  0.1153  0.1125  0.5621
 8773TIP3    H147810   5.428   1.240  13.800  1.1311  0.8632  1.6509
 8773TIP3    H247811   5.282   1.272  13.822  1.5205  3.5063  0.6719
 8774TIP3   OH247812   0.721   3.767  16.838 -0.5140  0.3623 -0.3490
 8774TIP3    H147813   0.792   3.810  16.885  0.1986 -2.4126  1.2973
 8774TIP3    H247814   0.763   3.702  16.783 -1.6573  0.2659 -1.1552
 8775TIP3   OH247815   4.418   4.798  10.427 -0.6609  0.8490 -0.3195
 8775TIP3    H147816   4.473   4.876  10.418  1.5478 -0.5412  0.4917
 8775TIP3    H247817   4.431   4.769  10.517 -1.0364 -0.7446 -0.7476
 8776TIP3   OH247818   1.140   5.367   2.744 -0.0177 -0.2111  0.0021
 8776TIP3    H147819   1.131   5.406   2.831 -2.5362  0.0543 -0.2881
 8776TIP3    H247820   1.226   5.325   2.745  0.4854  0.7162  2.2177
 8777TIP3   OH247821   5.343   1.040   4.191  0.1530  0.0302  0.1289
 8777TIP3    H147822   5.399   0.965   4.171  1.4294  1.2350 -1.0869
 8777TIP3    H247823   5.370   1.069   4.278 -0.6789 -1.1579  0.8140
 8778TIP3   OH247824   1.518   5.396  17.058  0.5767  0.0546 -0.0340
 8778TIP3    H147825   1.542   5.475  17.108  0.1691 -0.3644  0.8547
 8778TIP3    H247826   1.525   5.325  17.122 -0.5685 -0.4219 -0.4075
 8779TIP3   OH247827   0.455   5.429   4.028  0.0185 -0.3106  0.0564
 8779TIP3    H147828   0.478   5.493   3.962  2.4374 -0.2526  0.8538
 8779TIP3    H247829   0.420   5.481   4.101  1.8753  0.1616  0.6622
 8780TIP3   OH247830   5.698   1.761   2.644  0.4666 -0.0587 -0.1976
 8780TIP3    H147831   5.709   1.805   2.729  0.1620  1.6796 -1.0144
 8780TIP3    H247832   5.788   1.747   2.613  0.5711 -0.1694  0.1483
 8781TIP3   OH247833   1.506   3.479   2.419 -0.3435  0.0324 -0.3925
 8781TIP3    H147834   1.494   3.571   2.396 -0.9545 -0.1532 -0.8743
 8781TIP3    H247835   1.502   3.433   2.335  0.8720 -0.3550 -0.2599
 8782TIP3   OH247836   2.765   6.734   1.034  0.0970 -0.3929  0.3864
 8782TIP3    H147837   2.841   6.690   1.072  0.5378  0.0451  0.0283
 8782TIP3    H247838   2.783   6.827   1.047 -0.6792 -0.3073  0.8632
 8783TIP3   OH247839   3.532   0.775  16.376  0.3206 -0.3895  0.1455
 8783TIP3    H147840   3.577   0.726  16.444  0.4861 -1.6648 -0.8610
 8783TIP3    H247841   3.569   0.743  16.294 -1.6180 -0.6587 -0.6599
 8784TIP3   OH247842   0.800   5.932  12.063  0.3504  0.0613  0.2945
 8784TIP3    H147843   0.712   5.932  12.024  0.6108  0.8138 -0.3312
 8784TIP3    H247844   0.795   5.868  12.134 -0.5755 -0.2321 -0.0192
 8785TIP3   OH247845   2.299   3.772   3.178  0.6064  0.1828  0.1569
 8785TIP3    H147846   2.212   3.759   3.216  1.8305 -1.1817  2.8003
 8785TIP3    H247847   2.313   3.867   3.182 -0.0046  0.2360  1.5947
 8786TIP3   OH247848   6.187   1.691   4.131  0.7916 -0.5192 -0.2051
 8786TIP3    H147849   6.208   1.668   4.222  3.1204  0.5741 -0.4131
 8786TIP3    H247850   6.189   1.607   4.085  1.0169 -0.9141  0.4986
 8787TIP3   OH247851   1.744   2.622   4.241 -0.5631 -0.2890 -0.3073
 8787TIP3    H147852   1.743   2.540   4.193 -0.9574 -0.0226 -0.7622
 8787TIP3    H247853   1.693   2.683   4.187  1.8419  1.0015 -1.3236
 8788TIP3   OH247854   4.859   0.706  12.077 -0.2619  0.0796  0.1983
 8788TIP3    H147855   4.886   0.792  12.045  0.7323 -0.6651 -1.0194
 8788TIP3    H247856   4.814   0.666  12.003  0.9045 -1.1571  0.1297
 8789TIP3   OH247857   2.363   0.372  16.712  0.5719 -0.1562  0.3556
 8789TIP3    H147858   2.420   0.339  16.643  1.1915  1.2106  0.2029
 8789TIP3    H247859   2.276   0.341  16.687  0.9782 -0.7758 -0.3316
 8790TIP3   OH247860   4.324   0.319   3.858 -0.1313  1.3352 -0.4529
 8790TIP3    H147861   4.234   0.335   3.830 -1.2478 -0.2966  1.8448
 8790TIP3    H247862   4.316   0.295   3.951  2.5866  0.2742 -0.4060
 8791TIP3   OH247863   4.583   2.645   4.703  0.0607  0.1777 -0.4995
 8791TIP3    H147864   4.583   2.707   4.630  3.6183  1.1385  0.1218
 8791TIP3    H247865   4.596   2.699   4.781 -2.2766 -0.9449  0.7750
 8792TIP3   OH247866   3.269   3.810  15.655 -0.2004  0.4541  0.1676
 8792TIP3    H147867   3.229   3.754  15.722  3.1985  0.9661  2.9244
 8792TIP3    H247868   3.278   3.753  15.579  0.1561 -1.7765  1.7793
 8793TIP3   OH247869   0.877   3.697  15.350  0.0920  0.1306 -0.4858
 8793TIP3    H147870   0.955   3.720  15.300  0.6341  1.3515  0.8425
 8793TIP3    H247871   0.908   3.685  15.439 -1.4997  3.4134  0.7055
 8794TIP3   OH247872   1.536   6.483  11.668 -0.2540  0.3331  0.0637
 8794TIP3    H147873   1.524   6.403  11.617 -1.4308  0.1269  0.6179
 8794TIP3    H247874   1.484   6.468  11.747 -1.9982  2.3781 -0.6252
 8795TIP3   OH247875   1.951   5.162  11.481  0.0044  0.6366  0.8234
 8795TIP3    H147876   1.941   5.071  11.510  1.9522  0.0518 -0.0916
 8795TIP3    H247877   1.909   5.165  11.395  0.3654  0.4436  0.6357
 8796TIP3   OH247878   3.892   1.782  14.496  0.0700 -0.3770 -0.3229
 8796TIP3    H147879   3.847   1.866  14.503  0.9157 -0.0350  3.4161
 8796TIP3    H247880   3.984   1.803  14.514 -0.0652 -2.2446  3.5256
 8797TIP3   OH247881   2.413   6.611  11.487  0.3232 -0.0295 -0.5459
 8797TIP3    H147882   2.418   6.551  11.413  1.3795 -0.3253 -0.2610
 8797TIP3    H247883   2.415   6.698  11.446 -2.1279 -0.1383 -1.0066
 8798TIP3   OH247884   4.088   3.362   1.225 -0.1579  0.0296 -0.5393
 8798TIP3    H147885   4.021   3.355   1.293  0.1594 -3.8288 -0.3999
 8798TIP3    H247886   4.164   3.398   1.270 -1.6552  3.5842 -0.4896
 8799TIP3   OH247887   5.314   0.398   5.466 -0.5427  0.4371  0.1924
 8799TIP3    H147888   5.274   0.345   5.535  0.2532  1.1362  1.2150
 8799TIP3    H247889   5.299   0.348   5.386  1.1646 -1.9170  1.2415
 8800TIP3   OH247890   2.825   4.167  12.727  0.7216  0.2869 -0.0429
 8800TIP3    H147891   2.731   4.160  12.739  0.4650  0.8732 -1.5512
 8800TIP3    H247892   2.862   4.140  12.811 -0.8275  1.5986  1.1185
 8801TIP3   OH247893   5.342   6.795  17.354  0.1485  0.0868 -0.2354
 8801TIP3    H147894   5.346   6.738  17.431 -3.7529  0.7242  0.6649
 8801TIP3    H247895   5.357   6.736  17.280  1.5863 -0.9895  0.8453
 8802TIP3   OH247896   1.798   4.510  12.333 -0.3307 -0.6385  0.4090
 8802TIP3    H147897   1.770   4.589  12.379  0.1267 -0.2804  0.0770
 8802TIP3    H247898   1.891   4.501  12.353 -0.1525 -0.5515 -0.3178
 8803TIP3   OH247899   6.049   5.085   2.461  0.8072  0.3493 -0.2275
 8803TIP3    H147900   6.086   5.051   2.380  2.3872  3.0258 -0.7449
 8803TIP3    H247901   6.124   5.104   2.517 -0.1633  0.1509  1.2168
 8804TIP3   OH247902   0.254   6.291  15.965 -0.5847  0.4941  0.0641
 8804TIP3    H147903   0.303   6.284  16.047 -2.1093 -1.1141  0.9052
 8804TIP3    H247904   0.318   6.272  15.897  1.0685  3.2542  0.6799
 8805TIP3   OH247905   0.567   4.140   0.332 -0.2682 -0.5017 -0.1923
 8805TIP3    H147906   0.474   4.116   0.324 -0.4420  0.5257 -1.5701
 8805TIP3    H247907   0.614   4.061   0.305 -0.7842 -0.4618 -1.2661
 8806TIP3   OH247908   1.320   5.874   0.198 -0.4906 -0.5553 -0.5639
 8806TIP3    H147909   1.234   5.837   0.219 -0.4326 -1.5571 -1.8832
 8806TIP3    H247910   1.367   5.875   0.281 -1.5979 -0.4929  0.0793
 8807TIP3   OH247911   1.837   1.094   4.257  0.3204 -0.2129 -0.2939
 8807TIP3    H147912   1.832   1.040   4.178 -1.7368 -0.3528 -0.1171
 8807TIP3    H247913   1.750   1.134   4.264  0.1857 -0.8335  2.3514
 8808TIP3   OH247914   0.833   2.896   1.991 -0.2141 -0.5040  0.0903
 8808TIP3    H147915   0.764   2.856   2.044 -0.4162 -1.7531 -1.0889
 8808TIP3    H247916   0.903   2.914   2.054 -1.3665  0.2927  1.2084
 8809TIP3   OH247917   4.479   6.498  11.232  0.2596 -0.2137 -0.7548
 8809TIP3    H147918   4.404   6.450  11.267  0.6411  0.3431  0.9305
 8809TIP3    H247919   4.442   6.552  11.162 -0.9393  0.0304  0.0303
 8810TIP3   OH247920   2.461   5.703  11.398  0.1480 -0.2791  0.5835
 8810TIP3    H147921   2.380   5.735  11.438  1.5075  2.3667  1.4937
 8810TIP3    H247922   2.440   5.692  11.306 -1.6460 -1.2275  1.0684
 8811TIP3   OH247923   2.675   1.138  15.666 -0.1970 -0.7211  0.2671
 8811TIP3    H147924   2.642   1.228  15.660 -0.3008 -0.8205 -0.7106
 8811TIP3    H247925   2.615   1.095  15.727 -0.6881 -0.3663  0.0431
 8812TIP3   OH247926   2.672   5.566  12.782  0.5521  0.8840  0.2977
 8812TIP3    H147927   2.599   5.592  12.838  1.0012  1.8194  0.4698
 8812TIP3    H247928   2.714   5.649  12.756  1.4691  0.3761  0.0954
 8813TIP3   OH247929   6.354   6.277  13.340 -0.3824  0.4967 -0.6405
 8813TIP3    H147930   6.271   6.288  13.294 -0.4390  3.0681 -0.1018
 8813TIP3    H247931   6.391   6.365  13.344  1.8309 -0.3850  0.1829
 8814TIP3   OH247932   2.345   3.584  15.960  0.3257 -0.0585 -0.1703
 8814TIP3    H147933   2.311   3.497  15.939  0.5066 -0.2078  0.1409
 8814TIP3    H247934   2.348   3.630  15.876 -2.3945  0.6036  0.0199
 8815TIP3   OH247935   1.892   4.401  13.066 -0.0288  0.2559  0.1773
 8815TIP3    H147936   1.942   4.479  13.088 -2.0745  1.1831  1.8573
 8815TIP3    H247937   1.801   4.431  13.060 -0.5468 -1.4795 -2.0516
 8816TIP3   OH247938   4.927   3.155  17.364 -0.5440  0.4448 -0.0752
 8816TIP3    H147939   4.883   3.073  17.390  1.8597 -0.2002  2.4689
 8816TIP3    H247940   4.897   3.219  17.429 -1.0079  1.1340 -0.9510
 8817TIP3   OH247941   2.312   6.684   1.881  0.1358 -0.5820 -0.5341
 8817TIP3    H147942   2.252   6.682   1.955 -1.9655  0.6945 -2.1007
 8817TIP3    H247943   2.277   6.752   1.824  0.4074 -2.9074 -3.7439
 8818TIP3   OH247944   5.777   3.254  15.161 -0.0314 -0.1277 -0.0306
 8818TIP3    H147945   5.850   3.222  15.107  2.3166  1.6617  1.8109
 8818TIP3    H247946   5.794   3.217  15.248 -1.3980  0.2688  0.4262
 8819TIP3   OH247947   4.675   0.362  14.400 -0.3951  0.2104  0.0508
 8819TIP3    H147948   4.705   0.273  14.381  1.2011  1.0482 -1.6083
 8819TIP3    H247949   4.584   0.364  14.370 -0.4318 -0.8441  0.0659
 8820TIP3   OH247950   5.974   5.987  14.091  0.7645 -0.3457 -0.6649
 8820TIP3    H147951   5.907   6.045  14.054  0.1252 -0.8295 -0.3000
 8820TIP3    H247952   6.035   5.972  14.020  0.6282  0.3181 -0.9296
 8821TIP3   OH247953   3.364   2.047   1.813 -0.7381  0.1901  0.5946
 8821TIP3    H147954   3.391   2.006   1.731 -2.9385 -0.0831 -0.0785
 8821TIP3    H247955   3.277   2.011   1.830 -1.9662  3.0269  1.0324
 8822TIP3   OH247956   0.834   3.273  15.785 -0.0541  0.2269  0.2972
 8822TIP3    H147957   0.739   3.274  15.769 -0.1678  2.9898  0.6403
 8822TIP3    H247958   0.847   3.203  15.849 -1.9459  0.0899  0.5962
 8823TIP3   OH247959   4.915   3.078  13.177 -0.1271  0.1740  0.1775
 8823TIP3    H147960   4.880   3.049  13.093  1.6362 -0.9884 -0.2320
 8823TIP3    H247961   4.887   3.011  13.239 -0.3637  0.3470  0.2556
 8824TIP3   OH247962   0.797   3.131  16.052 -0.0569 -0.6907 -0.7381
 8824TIP3    H147963   0.852   3.146  16.129 -0.6075 -1.5948 -0.1499
 8824TIP3    H247964   0.792   3.036  16.045  0.5467 -0.6390 -2.3100
 8825TIP3   OH247965   1.773   4.356  14.486  0.4549  0.1832  0.3430
 8825TIP3    H147966   1.857   4.322  14.456 -0.7014 -1.7241 -0.8744
 8825TIP3    H247967   1.795   4.441  14.525  2.7079  0.5189 -1.4405
 8826TIP3   OH247968   4.387   6.679   1.137 -0.6531 -0.4014 -0.0867
 8826TIP3    H147969   4.374   6.587   1.157 -0.3844 -0.1915  1.1593
 8826TIP3    H247970   4.473   6.700   1.173 -0.4256  0.1872 -0.9370
 8827TIP3   OH247971   0.958   3.983  14.450  0.1819 -0.3958 -0.0180
 8827TIP3    H147972   0.894   4.043  14.411  0.5609 -0.3086 -0.5209
 8827TIP3    H247973   1.020   3.966  14.379 -0.4266 -2.1264 -0.1936
 8828TIP3   OH247974   6.703   5.492   4.602  0.1401  0.3543 -0.1997
 8828TIP3    H147975   6.677   5.441   4.679  4.5202 -1.5980  0.3016
 8828TIP3    H247976   6.681   5.437   4.528  1.6266 -0.7661  0.1418
 8829TIP3   OH247977   1.879   0.591   4.212  0.3978  0.0894 -0.1573
 8829TIP3    H147978   1.813   0.589   4.281  0.9194  0.6651  0.3649
 8829TIP3    H247979   1.896   0.499   4.192 -1.5571 -0.1088 -1.2771
 8830TIP3   OH247980   2.604   2.782   3.041 -0.4771  0.2660  0.5891
 8830TIP3    H147981   2.607   2.706   3.098  0.7305 -0.3219 -0.1929
 8830TIP3    H247982   2.684   2.830   3.061 -1.4941  1.6677  1.4708
 8831TIP3   OH247983   1.067   1.832  13.732 -0.1428 -0.3546 -0.0413
 8831TIP3    H147984   1.153   1.873  13.717  0.0007 -0.4964  0.4003
 8831TIP3    H247985   1.085   1.761  13.793 -0.8275  0.6534  1.3903
 8832TIP3   OH247986   3.746   2.807   0.574 -0.0287 -0.2883  0.1804
 8832TIP3    H147987   3.736   2.839   0.484  1.3133  0.9466  0.4509
 8832TIP3    H247988   3.695   2.725   0.575 -0.9893  0.2386 -1.3766
 8833TIP3   OH247989   6.228   2.661   6.179 -0.7614 -0.3650  0.1563
 8833TIP3    H147990   6.146   2.636   6.222  0.2953 -1.7705  1.4959
 8833TIP3    H247991   6.243   2.591   6.115 -0.5878 -0.1340 -0.0568
 8834TIP3   OH247992   6.059   4.722  10.869  0.1714  0.1569 -0.0635
 8834TIP3    H147993   6.096   4.717  10.781 -1.4410  1.8049 -0.8934
 8834TIP3    H247994   6.119   4.779  10.916  0.8565 -0.4588 -0.1666
 8835TIP3   OH247995   1.613   4.717   2.995  0.7526  0.5629  0.6401
 8835TIP3    H147996   1.549   4.702   2.926 -0.7474 -0.1176  2.1008
 8835TIP3    H247997   1.690   4.668   2.967 -0.0370 -0.2163 -0.2630
 8836TIP3   OH247998   6.532   6.580   2.825  0.0392  0.0774  0.3217
 8836TIP3    H147999   6.568   6.604   2.910 -2.5456  1.5101  1.1202
 8836TIP3    H248000   6.493   6.494   2.839 -0.6175  0.4289  0.6758
 8837TIP3   OH248001   1.585   1.005  13.140  0.3587  0.4427  0.4213
 8837TIP3    H148002   1.554   1.065  13.073 -0.4051  0.2058  0.5565
 8837TIP3    H248003   1.669   0.973  13.107  0.0263  0.3803 -0.3932
 8838TIP3   OH248004   5.891   6.304  13.078  0.1991 -0.0946  0.2847
 8838TIP3    H148005   5.844   6.237  13.128  0.2378  0.0562  0.5297
 8838TIP3    H248006   5.831   6.327  13.007  0.2345 -0.4678  0.1336
 8839TIP3   OH248007   3.510   2.682   5.024 -0.0764  0.5306 -0.3209
 8839TIP3    H148008   3.474   2.633   5.098  0.2129  2.0811  0.9089
 8839TIP3    H248009   3.494   2.774   5.046  0.8242  1.0680 -1.7690
 8840TIP3   OH248010   1.018   1.293   2.810  0.2639  0.7284  0.2700
 8840TIP3    H148011   1.045   1.361   2.748  1.8568  1.2678  1.5025
 8840TIP3    H248012   1.099   1.264   2.852 -0.4248 -1.6786  0.0874
 8841TIP3   OH248013   6.709   3.625  14.986 -0.6841 -0.7872  0.6622
 8841TIP3    H148014   6.619   3.646  14.961  0.1012  1.5182 -0.5392
 8841TIP3    H248015   6.756   3.618  14.902  0.3906 -1.3423  1.2855
 8842TIP3   OH248016   3.655   3.342   5.697 -0.0032 -0.0292  0.1169
 8842TIP3    H148017   3.564   3.352   5.668  0.3169  0.6018 -0.6970
 8842TIP3    H248018   3.661   3.250   5.722 -0.2800 -0.6829 -1.9961
 8843TIP3   OH248019   0.171   0.063   6.177  0.4052  0.2326  0.6733
 8843TIP3    H148020   0.215  -0.012   6.217 -0.6181 -1.2213 -0.8148
 8843TIP3    H248021   0.082   0.060   6.213 -0.1289 -0.2909 -0.6604
 8844TIP3   OH248022   0.678   4.738  15.528 -0.1225  0.0390 -0.2693
 8844TIP3    H148023   0.592   4.746  15.569 -0.3880  1.5860 -1.0497
 8844TIP3    H248024   0.675   4.799  15.454  0.3413 -2.5873 -2.6316
 8845TIP3   OH248025   6.576   4.613   2.315 -0.1430 -0.1389  0.1533
 8845TIP3    H148026   6.588   4.585   2.406 -2.1358 -1.0223  0.2040
 8845TIP3    H248027   6.527   4.542   2.275  0.3903  0.4116 -1.5354
 8846TIP3   OH248028   5.223   2.385  17.216  0.4026 -0.6864  0.4372
 8846TIP3    H148029   5.198   2.293  17.205 -0.4041 -0.7021  2.0919
 8846TIP3    H248030   5.313   2.382  17.246  1.2052 -0.7956 -1.7928
 8847TIP3   OH248031   3.719   4.986  12.190  0.0420  0.6854 -0.0090
 8847TIP3    H148032   3.682   5.060  12.238  0.7103  2.2323 -1.7727
 8847TIP3    H248033   3.643   4.942  12.152 -0.4440 -0.2107  1.9007
 8848TIP3   OH248034   6.713   4.224  12.983  0.0789  0.2161  0.0563
 8848TIP3    H148035   6.743   4.314  12.991  0.6343 -0.1299  3.2661
 8848TIP3    H248036   6.619   4.227  13.000  0.2699  0.1134  1.1924
 8849TIP3   OH248037   2.509   2.215   6.160 -0.0747 -0.6908 -0.0329
 8849TIP3    H148038   2.471   2.298   6.132 -1.6219 -0.7632  1.7212
 8849TIP3    H248039   2.493   2.156   6.087 -0.5898  0.0798 -0.5579
 8850TIP3   OH248040   4.906   5.393  15.141  0.4119  0.0299 -0.2766
 8850TIP3    H148041   4.959   5.372  15.218 -0.2619  2.4184  0.9505
 8850TIP3    H248042   4.959   5.457  15.093 -0.2574  0.4874 -0.4166
 8851TIP3   OH248043   5.426   4.758  14.575  0.6949 -0.1550  0.1023
 8851TIP3    H148044   5.414   4.803  14.491 -2.1184 -1.3645 -0.2798
 8851TIP3    H248045   5.399   4.668  14.557  0.0619 -0.4557  2.2755
 8852TIP3   OH248046   2.795   3.201  14.844 -0.2376  0.1125 -0.2852
 8852TIP3    H148047   2.836   3.124  14.882 -1.8436 -1.3608 -1.3674
 8852TIP3    H248048   2.847   3.275  14.876  3.1007 -1.5527 -1.4444
 8853TIP3   OH248049   1.471   0.570   0.522  0.8137 -0.2514  0.5452
 8853TIP3    H148050   1.392   0.614   0.490  1.4150  0.9528  0.6829
 8853TIP3    H248051   1.461   0.480   0.491 -0.0184  0.1744 -0.5247
 8854TIP3   OH248052   3.332   2.966  14.001  0.6309 -0.3820 -0.2745
 8854TIP3    H148053   3.360   2.876  13.988  1.8744  0.0168 -0.5730
 8854TIP3    H248054   3.284   2.965  14.083 -0.9543 -1.6240 -1.1684
 8855TIP3   OH248055   3.207   2.253   3.884 -0.2712  0.6851  0.1178
 8855TIP3    H148056   3.165   2.170   3.863 -1.3392  1.3553 -0.4336
 8855TIP3    H248057   3.300   2.238   3.867 -0.4036 -0.5050  0.3907
 8856TIP3   OH248058   1.434   3.859  16.755  0.2820 -0.7949 -0.0012
 8856TIP3    H148059   1.497   3.877  16.685 -0.1395 -1.4975 -0.5830
 8856TIP3    H248060   1.425   3.764  16.755 -0.4282 -0.7341  0.3778
 8857TIP3   OH248061   5.465   1.934  16.177  0.1902 -0.0755  0.2463
 8857TIP3    H148062   5.504   1.978  16.252 -0.5020  1.3815 -0.2185
 8857TIP3    H248063   5.405   1.998  16.139 -0.5447 -1.2750 -0.7211
 8858TIP3   OH248064   1.599   0.390   5.223  0.2012 -0.1817  0.4870
 8858TIP3    H148065   1.563   0.304   5.199 -0.0244  0.1674 -0.5022
 8858TIP3    H248066   1.549   0.417   5.299  1.1147 -1.4690  1.6073
 8859TIP3   OH248067   1.634   2.429  13.888  0.1115  0.2761  0.7347
 8859TIP3    H148068   1.559   2.375  13.913 -0.1959 -0.0847 -0.8651
 8859TIP3    H248069   1.610   2.518  13.914 -0.7857  0.1309  0.4346
 8860TIP3   OH248070   3.736   3.052  14.506 -0.1508 -0.3408  0.2841
 8860TIP3    H148071   3.759   3.103  14.428 -1.6408  0.0740  0.0941
 8860TIP3    H248072   3.683   3.111  14.559  1.3332 -0.4208  1.9206
 8861TIP3   OH248073   4.179   3.034  14.778  0.0601  0.1085 -0.5232
 8861TIP3    H148074   4.269   3.010  14.800  0.0801 -0.1130 -0.8377
 8861TIP3    H248075   4.126   2.989  14.844  0.1477 -0.1637 -0.6378
 8862TIP3   OH248076   1.909   0.136   0.100  0.0320 -0.2268  0.1129
 8862TIP3    H148077   1.996   0.163   0.070 -0.1159 -0.2077 -0.3030
 8862TIP3    H248078   1.849   0.168   0.032 -0.9494  4.4019  2.6969
 8863TIP3   OH248079   6.607   1.873  16.553  0.1371  0.2180 -0.1700
 8863TIP3    H148080   6.689   1.859  16.506  1.6398 -0.1507  2.3738
 8863TIP3    H248081   6.614   1.961  16.589 -0.1156 -0.1884  0.9095
 8864TIP3   OH248082   4.298   6.235   6.672  0.0898 -0.1384 -0.3559
 8864TIP3    H148083   4.210   6.245   6.709 -0.0710  1.1792 -1.0230
 8864TIP3    H248084   4.283   6.212   6.580  0.4434 -0.1915 -0.4022
 8865TIP3   OH248085   0.988   5.383   2.252  0.0315 -0.2634 -0.6899
 8865TIP3    H148086   1.027   5.356   2.335 -0.2108 -1.1264 -0.8457
 8865TIP3    H248087   0.922   5.448   2.277 -0.8424 -1.3574 -0.0824
 8866TIP3   OH248088   6.668   6.581  17.065  0.3242  0.1035 -0.5163
 8866TIP3    H148089   6.756   6.586  17.028  0.3207 -2.6789 -1.0717
 8866TIP3    H248090   6.610   6.571  16.990 -0.2087 -0.5760 -0.0261
 8867TIP3   OH248091   1.741   1.294  12.626  1.0678 -0.5231 -0.0500
 8867TIP3    H148092   1.696   1.315  12.708  0.1645 -0.1193 -0.6291
 8867TIP3    H248093   1.833   1.308  12.645  0.7945  0.4843  0.6359
 8868TIP3   OH248094   3.942   5.264  12.456 -0.5777 -0.8556 -0.0570
 8868TIP3    H148095   3.957   5.186  12.508  0.1357 -0.5471  0.2069
 8868TIP3    H248096   3.847   5.278  12.461 -0.3503  0.2811  2.8139
 8869TIP3   OH248097   2.349   5.028   0.648  0.1059  0.1533  0.3978
 8869TIP3    H148098   2.379   4.939   0.667  1.0008  0.4787  0.5659
 8869TIP3    H248099   2.428   5.075   0.622 -0.4923  0.6900 -0.4976
 8870TIP3   OH248100   3.740   5.183   3.656  0.4562  0.3298 -0.1228
 8870TIP3    H148101   3.809   5.140   3.705  1.0796  0.4172 -0.9129
 8870TIP3    H248102   3.704   5.115   3.599  0.6557  0.5620 -0.5286
 8871TIP3   OH248103   0.118   2.788  13.642  0.2264 -0.3812  0.0100
 8871TIP3    H148104   0.161   2.798  13.727 -0.3280 -0.1229  0.2706
 8871TIP3    H248105   0.180   2.740  13.589  0.9406  0.2112  0.2925
 8872TIP3   OH248106   4.987   3.206   5.592  0.3688 -0.0417  0.2689
 8872TIP3    H148107   4.937   3.163   5.661  0.9144  0.0192  0.7082
 8872TIP3    H248108   5.011   3.135   5.532  0.0894 -0.1312  0.2633
 8873TIP3   OH248109   6.084   3.062  13.393  0.6354  0.3809 -0.0334
 8873TIP3    H148110   6.046   2.978  13.418 -0.1136  1.6085  3.4921
 8873TIP3    H248111   6.175   3.042  13.371  0.1843 -1.4574 -0.3791
 8874TIP3   OH248112   2.303   4.168  16.258 -0.1569  0.6736  0.5422
 8874TIP3    H148113   2.279   4.260  16.266  0.1586  0.9163 -0.9217
 8874TIP3    H248114   2.381   4.158  16.313  0.1438  1.4265  0.2603
 8875TIP3   OH248115   1.598   1.393   3.128  0.2613  0.4958 -0.1718
 8875TIP3    H148116   1.679   1.433   3.096  2.3930 -3.5733 -0.4360
 8875TIP3    H248117   1.607   1.394   3.223  1.0254 -0.5493 -0.2140
 8876TIP3   OH248118   0.556   1.490   4.098  0.0210 -0.0918  0.1533
 8876TIP3    H148119   0.599   1.558   4.047  1.6119 -0.9757  0.2674
 8876TIP3    H248120   0.561   1.412   4.044  0.3000 -0.6578  0.9746
 8877TIP3   OH248121   2.244   4.476  17.171  0.4108  0.0350 -0.2832
 8877TIP3    H148122   2.265   4.412  17.239 -2.3944 -1.3251 -0.5725
 8877TIP3    H248123   2.178   4.532  17.211  0.1192  0.4105 -1.2842
 8878TIP3   OH248124   2.120   0.771   0.767 -0.1517  0.1312 -0.0702
 8878TIP3    H148125   2.058   0.801   0.700  0.1973 -0.2697 -0.5731
 8878TIP3    H248126   2.068   0.715   0.824 -0.2835 -0.1107 -0.4245
 8879TIP3   OH248127   1.612   5.974   0.258  0.0867 -0.1081  0.4722
 8879TIP3    H148128   1.619   5.884   0.226 -0.4709 -0.7554  2.0796
 8879TIP3    H248129   1.555   5.968   0.335  1.7433  1.2845  1.8876
 8880TIP3   OH248130   6.691   4.576   3.271 -0.2578 -0.0969 -0.2387
 8880TIP3    H148131   6.745   4.599   3.195 -2.1429 -0.6179 -1.8270
 8880TIP3    H248132   6.723   4.632   3.342  2.3245 -0.4060 -1.0706
 8881TIP3   OH248133   0.299   3.722  15.193  0.5310  0.2963 -0.4263
 8881TIP3    H148134   0.248   3.682  15.263  1.7566  1.5802  1.2850
 8881TIP3    H248135   0.360   3.654  15.166 -1.1976 -0.8519 -1.6602
 8882TIP3   OH248136   2.588   4.468   3.370 -0.0271  0.5670 -0.4674
 8882TIP3    H148137   2.602   4.394   3.311 -0.1727 -0.1809  0.4061
 8882TIP3    H248138   2.658   4.460   3.435  0.4570  1.6919 -0.8248
 8883TIP3   OH248139   5.566   1.992   1.606  0.3336  0.1078  0.3161
 8883TIP3    H148140   5.573   2.033   1.692  0.5912 -1.4492  1.0833
 8883TIP3    H248141   5.516   1.912   1.622 -1.1811  0.6475 -1.3271
 8884TIP3   OH248142   5.400   3.076  15.088  0.6401 -0.0817 -0.1728
 8884TIP3    H148143   5.435   3.064  15.176 -0.9505 -3.2801  0.1493
 8884TIP3    H248144   5.476   3.106  15.037  2.2937 -0.8175  1.7084
 8885TIP3   OH248145   5.707   2.782  16.276 -0.0299  0.0904  0.6326
 8885TIP3    H148146   5.647   2.848  16.311  0.4925  0.4732  0.8210
 8885TIP3    H248147   5.744   2.740  16.354 -0.0034 -0.1001  0.5185
 8886TIP3   OH248148   1.833   5.282  14.646  0.1770 -0.0362  0.1191
 8886TIP3    H148149   1.871   5.294  14.560  3.0247 -0.5924  1.1838
 8886TIP3    H248150   1.835   5.369  14.685 -1.6881  0.3353 -0.5408
 8887TIP3   OH248151   0.635   5.717  14.411  0.0669 -0.0707  0.7521
 8887TIP3    H148152   0.704   5.784  14.409  1.6447 -1.6091  1.3443
 8887TIP3    H248153   0.655   5.660  14.337 -2.0773  0.7905 -0.6093
 8888TIP3   OH248154   6.647   5.437  16.509 -0.0580 -0.0514  0.8858
 8888TIP3    H148155   6.594   5.515  16.492  0.5844  0.2939  0.4049
 8888TIP3    H248156   6.584   5.365  16.513 -0.5673  0.3489  0.2844
 8889TIP3   OH248157   1.907   2.830  17.116  0.0439 -0.9957 -0.0235
 8889TIP3    H148158   1.855   2.819  17.196 -0.5367  1.3640 -0.0141
 8889TIP3    H248159   1.855   2.789  17.048 -0.9437 -0.3000  0.2997
 8890TIP3   OH248160   4.285   1.126   0.455  0.9259  0.0535  0.3380
 8890TIP3    H148161   4.292   1.031   0.453 -0.0985 -0.0170 -0.5778
 8890TIP3    H248162   4.366   1.156   0.414  0.9637 -0.4376  0.0418
 8891TIP3   OH248163   6.631   4.805  12.542  0.3951  0.2408  0.5107
 8891TIP3    H148164   6.658   4.885  12.587 -0.2059  0.2893  0.8084
 8891TIP3    H248165   6.542   4.789  12.574 -0.6991  1.1506 -1.8546
 8892TIP3   OH248166   6.634   0.396   6.431 -0.0376  0.5754 -0.2535
 8892TIP3    H148167   6.630   0.326   6.496  0.0345  1.7239  1.0342
 8892TIP3    H248168   6.543   0.411   6.407 -0.1678  0.8945  0.4236
 8893TIP3   OH248169   5.969   0.648   3.920  0.0117 -0.2124 -0.0463
 8893TIP3    H148170   6.061   0.638   3.943  0.1969  1.5423  0.1260
 8893TIP3    H248171   5.932   0.561   3.930  0.9059 -0.3326  3.2849
 8894TIP3   OH248172   6.078   5.593  15.851  0.9980  0.2217  0.1429
 8894TIP3    H148173   6.145   5.577  15.917 -0.6223  0.8966  2.0349
 8894TIP3    H248174   6.049   5.683  15.867 -0.2270  0.0162 -0.7446
 8895TIP3   OH248175   2.332   1.049   5.187 -0.3968 -0.5872  0.6142
 8895TIP3    H148176   2.402   0.984   5.173 -0.5448 -1.0533  1.8856
 8895TIP3    H248177   2.268   1.030   5.119  0.7353 -0.0892 -0.6474
 8896TIP3   OH248178   4.971   3.064   1.075 -0.3020  0.4787  0.5115
 8896TIP3    H148179   4.883   3.070   1.037 -0.4685 -1.2913  0.5352
 8896TIP3    H248180   5.024   3.124   1.022 -1.6067  1.9981  0.8443
 8897TIP3   OH248181   0.722   3.721   3.022  0.0120 -0.5485 -0.0710
 8897TIP3    H148182   0.780   3.797   3.013  0.4741 -0.7072  1.3555
 8897TIP3    H248183   0.778   3.645   3.008 -0.1895 -0.6722 -0.2248
 8898TIP3   OH248184   5.290   1.245   2.796  0.5166 -0.1701  0.2079
 8898TIP3    H148185   5.332   1.319   2.752  1.9336 -1.1971 -0.2380
 8898TIP3    H248186   5.362   1.196   2.835 -0.4937 -0.7231  1.4581
 8899TIP3   OH248187   6.514   5.139  11.183 -0.0076 -0.0294  0.2098
 8899TIP3    H148188   6.462   5.061  11.201  1.4874 -0.9434  0.7488
 8899TIP3    H248189   6.566   5.152  11.261  0.4580  0.9638 -0.2449
 8900TIP3   OH248190   0.968   3.595  14.621  0.4105  0.0927  0.4856
 8900TIP3    H148191   0.886   3.583  14.572 -0.0751 -0.8131  1.4810
 8900TIP3    H248192   1.031   3.539  14.576  0.1904 -0.0705  0.3784
 8901TIP3   OH248193   5.478   2.709  11.672 -0.1547 -0.1263 -0.3093
 8901TIP3    H148194   5.421   2.639  11.704  0.6284 -0.8720 -0.5060
 8901TIP3    H248195   5.496   2.685  11.581  0.2896  0.2152 -0.3115
 8902TIP3   OH248196   0.982   2.517   1.566 -0.3257 -0.6272  0.3132
 8902TIP3    H148197   1.047   2.585   1.550 -0.9360 -0.0846  0.1325
 8902TIP3    H248198   0.969   2.475   1.481 -1.1475  0.1097  0.0563
 8903TIP3   OH248199   6.641   1.457   4.157  0.1765  0.1354  0.2523
 8903TIP3    H148200   6.680   1.402   4.090 -0.2493  0.6637 -0.4374
 8903TIP3    H248201   6.554   1.419   4.173  0.1298  0.2342  0.2338
 8904TIP3   OH248202   5.581   5.144  15.402 -0.3323  0.1776 -0.1385
 8904TIP3    H148203   5.607   5.229  15.366 -1.4037  0.4998 -0.1934
 8904TIP3    H248204   5.493   5.128  15.366  0.1927 -1.3568 -0.8106
 8905TIP3   OH248205   3.940   6.723   2.634 -0.1062  0.0040 -0.2539
 8905TIP3    H148206   3.907   6.658   2.572 -1.1847 -0.8131  1.1286
 8905TIP3    H248207   4.035   6.716   2.626 -0.0804 -3.2229  1.2195
 8906TIP3   OH248208   1.495   6.495   1.708  0.1502 -0.3266 -0.0445
 8906TIP3    H148209   1.497   6.590   1.719  0.7221 -0.4295  0.8498
 8906TIP3    H248210   1.482   6.482   1.614 -2.6779  0.6283  0.1280
 8907TIP3   OH248211   6.177   5.904  14.474 -0.0048 -0.1049  0.1862
 8907TIP3    H148212   6.182   5.987  14.427 -0.0478  0.3863  1.0088
 8907TIP3    H248213   6.097   5.911  14.526 -0.5202 -1.0622 -0.4546
 8908TIP3   OH248214   0.922   5.883   1.187  0.1082  0.4791 -0.1274
 8908TIP3    H148215   0.829   5.871   1.209  0.3334 -1.7842 -0.1508
 8908TIP3    H248216   0.966   5.894   1.271 -0.2000  1.9815 -0.1390
 8909TIP3   OH248217   6.780   3.433  11.849  0.5611  0.7067 -0.5355
 8909TIP3    H148218   6.784   3.527  11.863 -0.2993  0.5320  1.1530
 8909TIP3    H248219   6.687   3.415  11.831  0.6212  0.1103 -0.2687
 8910TIP3   OH248220   5.642   6.596  14.757 -0.4380  0.0031  0.3581
 8910TIP3    H148221   5.659   6.542  14.679  0.2248  1.7193 -0.7440
 8910TIP3    H248222   5.708   6.665  14.753 -2.2141  1.8330  0.8044
 8911TIP3   OH248223   5.514   6.667   2.326  0.1327  0.1754 -0.2357
 8911TIP3    H148224   5.554   6.738   2.275 -0.7425  1.8114  1.2435
 8911TIP3    H248225   5.457   6.622   2.262  0.8373  0.6752 -1.2479
 8912TIP3   OH248226   4.074   4.363   4.187 -0.2241 -0.1479 -0.7043
 8912TIP3    H148227   4.053   4.276   4.219 -0.1152 -0.4507 -1.4240
 8912TIP3    H248228   4.050   4.361   4.094 -0.4523  0.6652 -0.6735
 8913TIP3   OH248229   3.653   0.977  17.164  0.1658 -0.4289 -0.0664
 8913TIP3    H148230   3.561   0.958  17.147 -0.8240  2.8373  0.9206
 8913TIP3    H248231   3.685   1.020  17.085  0.0089  0.8888  0.5599
 8914TIP3   OH248232   4.969   5.524   2.703  0.4349 -0.2851  0.0898
 8914TIP3    H148233   4.978   5.520   2.798  1.3529  0.5285  0.0432
 8914TIP3    H248234   4.917   5.602   2.687 -0.7063 -1.0384 -0.0393
 8915TIP3   OH248235   2.911   1.581  15.862 -0.1829 -0.3891 -0.1509
 8915TIP3    H148236   2.816   1.568  15.856 -0.3294  0.0219  1.0353
 8915TIP3    H248237   2.948   1.495  15.843 -0.8151 -0.6567 -0.1963
 8916TIP3   OH248238   2.581   2.697  13.159  0.1448  0.2503 -0.0678
 8916TIP3    H148239   2.580   2.661  13.070  0.0691 -0.0846  0.0664
 8916TIP3    H248240   2.586   2.620  13.216  0.3838  0.4721  0.2121
 8917TIP3   OH248241   2.283   2.281  13.486 -0.0222 -0.1801  0.0812
 8917TIP3    H148242   2.273   2.250  13.576  2.5818 -0.3567  0.3957
 8917TIP3    H248243   2.296   2.375  13.495 -2.0180  0.1859 -0.3691
 8918TIP3   OH248244   1.286   4.611  17.092 -0.2961  0.2434  0.5853
 8918TIP3    H148245   1.337   4.678  17.138 -0.0777  0.1994  0.4114
 8918TIP3    H248246   1.343   4.534  17.089 -0.7733 -0.1496  1.3112
 8919TIP3   OH248247   6.752   5.700   5.358 -0.0844  0.1768 -0.5325
 8919TIP3    H148248   6.786   5.788   5.373 -0.7615  0.4670 -0.6693
 8919TIP3    H248249   6.822   5.642   5.387 -0.1306  0.7409  0.7339
 8920TIP3   OH248250   0.925   0.427   0.406  1.0587 -0.2945  0.4468
 8920TIP3    H148251   0.939   0.338   0.438 -2.3335 -0.6643  1.3463
 8920TIP3    H248252   0.832   0.429   0.382  1.5797  2.3414 -1.8901
 8921TIP3   OH248253   3.983   5.792   5.262  0.7331 -0.4242  0.1140
 8921TIP3    H148254   3.908   5.840   5.229  0.8192 -0.7688 -0.5868
 8921TIP3    H248255   3.996   5.827   5.350  0.6095  0.6234 -0.2690
 8922TIP3   OH248256   3.127   1.692   1.055 -0.3421 -0.1011  0.6666
 8922TIP3    H148257   3.221   1.677   1.045 -0.6274 -1.9533  0.4452
 8922TIP3    H248258   3.119   1.735   1.140  0.6590 -0.5387  1.0034
 8923TIP3   OH248259   4.441   1.431  14.190 -0.4161 -0.7249 -0.4779
 8923TIP3    H148260   4.352   1.400  14.173 -0.4360 -2.0005  1.6237
 8923TIP3    H248261   4.430   1.519  14.226 -0.8563 -0.9749  0.0134
 8924TIP3   OH248262   4.944   1.468  15.036 -0.0325  0.5594 -0.4436
 8924TIP3    H148263   4.908   1.392  14.988 -1.3302  1.6685 -1.3110
 8924TIP3    H248264   4.879   1.537  15.023  0.9728  1.7421  0.5903
 8925TIP3   OH248265   2.362   0.280   3.336  0.0786  0.1829 -0.3523
 8925TIP3    H148266   2.397   0.245   3.254 -3.2663 -0.0871 -1.8101
 8925TIP3    H248267   2.344   0.203   3.390  3.7503  0.4019  1.4945
 8926TIP3   OH248268   1.568   4.696  13.703 -0.1194 -0.0651  0.6864
 8926TIP3    H148269   1.553   4.788  13.725  0.2036  0.1938 -0.1402
 8926TIP3    H248270   1.599   4.697  13.613 -0.2878 -1.0070  0.6028
 8927TIP3   OH248271   0.803   3.755  12.660 -0.5381 -0.2168 -0.0340
 8927TIP3    H148272   0.863   3.717  12.724 -1.1611  0.4366  0.9643
 8927TIP3    H248273   0.821   3.849  12.664 -0.8693 -0.1310 -0.5275
 8928TIP3   OH248274   5.920   0.653  14.125 -0.5060  0.4092 -0.2372
 8928TIP3    H148275   5.916   0.572  14.073  0.4322  0.8545 -1.0365
 8928TIP3    H248276   5.828   0.677  14.138 -0.8076 -0.8478  0.1325
 8929TIP3   OH248277   6.347   5.228   6.760 -0.1533 -0.1319 -0.1272
 8929TIP3    H148278   6.291   5.268   6.694  0.8843  0.6691 -0.5577
 8929TIP3    H248279   6.357   5.138   6.731  0.0182  0.1232 -0.8880
 8930TIP3   OH248280   1.102   0.188   5.062  0.6616  0.4279 -0.0824
 8930TIP3    H148281   1.048   0.204   4.984  0.1574  0.6100  0.3001
 8930TIP3    H248282   1.042   0.197   5.135  1.0635 -0.0872  0.3171
 8931TIP3   OH248283   1.206   4.101  13.468  0.7655  0.3039  0.8394
 8931TIP3    H148284   1.123   4.063  13.497  0.8592 -0.1657  0.5091
 8931TIP3    H248285   1.267   4.082  13.540  0.7286  0.1200  0.8242
 8932TIP3   OH248286   1.774   4.480   4.667  0.8820 -0.2436 -0.0993
 8932TIP3    H148287   1.748   4.569   4.691 -2.3130 -1.2888  0.9227
 8932TIP3    H248288   1.810   4.443   4.747  1.2602 -0.1719 -0.2368
 8933TIP3   OH248289   1.608   2.181   3.467  0.1744 -0.0807  0.1371
 8933TIP3    H148290   1.651   2.125   3.402 -0.8687 -2.5642  1.4238
 8933TIP3    H248291   1.587   2.121   3.539 -3.5386  1.3423  0.4620
 8934TIP3   OH248292   3.369   0.935  13.512  0.1015 -0.3501  0.0826
 8934TIP3    H148293   3.435   0.882  13.468 -0.0436 -0.6319  0.2001
 8934TIP3    H248294   3.394   1.026  13.494  2.1580 -0.3400  2.4121
 8935TIP3   OH248295   3.261   5.165  12.149  0.0221  0.5888 -0.4122
 8935TIP3    H148296   3.185   5.201  12.196  0.0409  0.7469 -0.5008
 8935TIP3    H248297   3.245   5.189  12.058  1.5582  3.1352 -0.0999
 8936TIP3   OH248298   2.139   1.942  13.868 -0.1456  0.5857  0.4953
 8936TIP3    H148299   2.174   1.990  13.943 -0.5796  1.6639  0.0185
 8936TIP3    H248300   2.107   2.010  13.808 -1.5687 -0.3130  0.1907
 8937TIP3   OH248301   0.390   2.967   5.229 -0.0336 -0.2374  0.2662
 8937TIP3    H148302   0.381   3.056   5.262 -1.2242 -0.0349 -0.5422
 8937TIP3    H248303   0.414   2.915   5.306 -1.2134  0.4647  1.1481
 8938TIP3   OH248304   0.493   3.780  12.718 -0.1671  0.4012  0.0787
 8938TIP3    H148305   0.577   3.820  12.737  0.2096 -1.0809  1.7581
 8938TIP3    H248306   0.428   3.845  12.746  0.3779  1.3330 -0.7499
 8939TIP3   OH248307   1.273   1.369  17.290 -0.1029  0.1102  0.1928
 8939TIP3    H148308   1.363   1.339  17.301 -0.5729 -1.4031  0.0791
 8939TIP3    H248309   1.281   1.452  17.243  1.2693  0.4729  1.0335
 8940TIP3   OH248310   4.647   1.955   0.113 -0.5603 -0.3244 -0.0219
 8940TIP3    H148311   4.609   1.868   0.108  1.7729 -1.3594 -1.6318
 8940TIP3    H248312   4.723   1.945   0.170  0.0218  0.5146 -0.6247
 8941TIP3   OH248313   1.937   2.365   4.124  0.0699  0.1282  1.2836
 8941TIP3    H148314   1.988   2.326   4.053 -2.9075 -2.7348  0.4275
 8941TIP3    H248315   1.971   2.324   4.204  1.0621  0.5805  1.1029
 8942TIP3   OH248316   0.595   5.366  15.730  0.1327 -0.2883 -0.1820
 8942TIP3    H148317   0.510   5.387  15.691  0.2550  1.9302  0.6059
 8942TIP3    H248318   0.640   5.450  15.736  1.7131 -1.1666  0.9827
 8943TIP3   OH248319   5.407   5.677  16.930  0.4046  0.7822 -0.3044
 8943TIP3    H148320   5.458   5.735  16.873  2.3968 -0.5501  0.0145
 8943TIP3    H248321   5.473   5.627  16.979 -1.2140 -1.0426  0.1449
 8944TIP3   OH248322   2.327   3.922  13.116 -0.2329 -0.0349 -0.1362
 8944TIP3    H148323   2.290   3.976  13.047 -0.9921 -2.0357 -1.3694
 8944TIP3    H248324   2.422   3.926  13.102 -0.2484  1.1485 -0.0230
 8945TIP3   OH248325   6.624   5.735   0.637  0.3475  0.9194  0.0706
 8945TIP3    H148326   6.707   5.772   0.667  0.2741  0.9922  0.1858
 8945TIP3    H248327   6.607   5.662   0.695  1.6448 -0.7773 -1.5745
 8946TIP3   OH248328   2.194   0.137  14.983 -0.1773 -0.7778 -0.1706
 8946TIP3    H148329   2.108   0.134  14.942 -1.6048  1.8910  2.2725
 8946TIP3    H248330   2.190   0.071  15.052 -1.5598  1.3243  1.9176
 8947TIP3   OH248331   0.205   6.580   3.207  0.3330 -0.0271 -0.0263
 8947TIP3    H148332   0.204   6.520   3.132  0.2269 -1.3606  0.9910
 8947TIP3    H248333   0.282   6.635   3.193  1.2305 -1.3056 -0.3576
 8948TIP3   OH248334   0.132   1.190   2.738  0.1647 -0.1157  0.0253
 8948TIP3    H148335   0.162   1.280   2.741  0.0416 -0.0304 -0.8151
 8948TIP3    H248336   0.073   1.187   2.662  0.2774 -0.9248 -0.0438
 8949TIP3   OH248337   0.602   5.859  16.604  0.3923 -0.3921  0.5532
 8949TIP3    H148338   0.602   5.915  16.682  0.2701  1.5459 -0.7809
 8949TIP3    H248339   0.677   5.889  16.553 -2.1770  1.7164 -2.3163
 8950TIP3   OH248340   2.956   4.882  11.739  0.1438 -0.7627 -0.7808
 8950TIP3    H148341   2.977   4.895  11.647  0.5768  1.3168 -0.4201
 8950TIP3    H248342   2.909   4.799  11.741  0.5873 -1.1051 -2.7922
 8951TIP3   OH248343   6.424   5.932  16.271  0.6744  0.0794  0.2723
 8951TIP3    H148344   6.424   6.011  16.216  0.1704  0.1449  0.3640
 8951TIP3    H248345   6.517   5.908  16.277  0.7755  0.3033 -0.2745
 8952TIP3   OH248346   1.283   1.311  12.736  0.2851  0.0619  0.0898
 8952TIP3    H148347   1.341   1.374  12.780  0.6545 -0.2800  0.1023
 8952TIP3    H248348   1.283   1.339  12.645 -1.1642  1.2830  0.4446
 8953TIP3   OH248349   5.916   0.516   1.187  0.1237 -0.1125 -0.0011
 8953TIP3    H148350   5.830   0.548   1.160 -0.1311 -0.3234  0.5545
 8953TIP3    H248351   5.977   0.560   1.128 -0.3310  0.3540 -0.1298
 8954TIP3   OH248352   0.271   1.896   4.201 -0.3625  0.1947 -0.6031
 8954TIP3    H148353   0.349   1.945   4.227 -0.2216  0.3110 -1.2356
 8954TIP3    H248354   0.210   1.908   4.274  0.9187 -1.5659  0.8702
 8955TIP3   OH248355   6.086   3.441   4.429  0.0361  0.0820 -0.2481
 8955TIP3    H148356   6.145   3.483   4.491 -2.4220  1.6667  1.2121
 8955TIP3    H248357   6.017   3.403   4.484 -0.9713 -0.5736 -1.8935
 8956TIP3   OH248358   3.616   0.149  17.277  0.1117  0.3602  0.0003
 8956TIP3    H148359   3.694   0.116  17.233 -0.7144  0.0469 -1.2734
 8956TIP3    H248360   3.551   0.080  17.268  0.3966 -0.5536  3.3813
 8957TIP3   OH248361   4.829   5.314  11.949 -0.3500  0.0267 -0.0619
 8957TIP3    H148362   4.854   5.277  12.034  1.1155 -0.0708 -0.5162
 8957TIP3    H248363   4.796   5.239  11.899 -1.9856  0.2139  0.6502
 8958TIP3   OH248364   4.611   2.045   3.048  0.1802  0.4137  0.6407
 8958TIP3    H148365   4.699   2.014   3.072 -0.2333  0.1621  1.9186
 8958TIP3    H248366   4.572   2.072   3.131 -0.9575  0.5291  0.0867
 8959TIP3   OH248367   5.878   0.738  12.202 -0.3212  0.2253  0.5651
 8959TIP3    H148368   5.964   0.767  12.233 -0.9132  1.1434  1.4368
 8959TIP3    H248369   5.858   0.797  12.129 -0.9335  1.1899  1.4707
 8960TIP3   OH248370   0.295   5.310   0.373 -0.0918  0.3262 -0.8372
 8960TIP3    H148371   0.272   5.372   0.304 -2.6823 -0.3151 -0.6197
 8960TIP3    H248372   0.299   5.225   0.330 -0.9910  0.0243 -0.3407
 8961TIP3   OH248373   3.384   3.918   1.101 -0.3317 -0.3118  0.1602
 8961TIP3    H148374   3.430   3.940   1.182 -3.0545 -0.4715  1.8870
 8961TIP3    H248375   3.354   4.002   1.067 -1.4396 -0.4072  0.8287
 8962TIP3   OH248376   0.032   1.656  11.339  0.0020 -0.0054 -0.0786
 8962TIP3    H148377  -0.028   1.730  11.348  2.4081  2.1661 -0.8308
 8962TIP3    H248378   0.060   1.659  11.247  1.4013 -0.8171  0.2903
 8963TIP3   OH248379   3.972   5.005  12.577  0.2507  0.6980 -0.0174
 8963TIP3    H148380   3.984   4.937  12.510  0.6915  1.6110 -0.8892
 8963TIP3    H248381   4.006   4.965  12.657 -0.2070 -0.3846 -0.3452
 8964TIP3   OH248382   4.743   2.991   0.678  0.1160  0.6835 -0.4958
 8964TIP3    H148383   4.701   2.908   0.654  0.9703  0.5058 -1.4660
 8964TIP3    H248384   4.740   2.993   0.773  0.4849 -0.6837 -0.4370
 8965TIP3   OH248385   2.801   1.876   6.185 -0.4067 -0.1616 -0.8984
 8965TIP3    H148386   2.818   1.784   6.206  0.8481  0.2339 -0.0723
 8965TIP3    H248387   2.858   1.894   6.110  1.4748  0.6236  0.6199
 8966TIP3   OH248388   1.427   1.234   3.535 -0.1088  0.0550 -0.0427
 8966TIP3    H148389   1.454   1.169   3.600  1.2821  0.2605 -0.3878
 8966TIP3    H248390   1.497   1.234   3.470 -0.0472  1.9018 -0.0337
 8967TIP3   OH248391   0.978   3.722   1.634  0.4152  0.2579 -0.1866
 8967TIP3    H148392   0.964   3.674   1.552  1.1879 -2.2726  1.0283
 8967TIP3    H248393   1.002   3.810   1.607 -0.4100 -0.1888 -2.6349
 8968TIP3   OH248394   2.412   0.411  12.112 -0.3496 -0.0206  0.1071
 8968TIP3    H148395   2.441   0.502  12.121 -1.5367  0.4376 -0.3804
 8968TIP3    H248396   2.482   0.359  12.149  0.2438  1.1192  0.6286
 8969TIP3   OH248397   6.446   3.682  14.984 -0.0574 -0.4042  0.5134
 8969TIP3    H148398   6.459   3.758  15.041 -0.7725 -0.7033  1.0958
 8969TIP3    H248399   6.369   3.638  15.020  0.5160 -1.5684  0.3751
 8970TIP3   OH248400   1.112   5.187  14.732  0.5566 -0.0755  0.0434
 8970TIP3    H148401   1.199   5.226  14.739  0.8609 -0.7995  0.4130
 8970TIP3    H248402   1.096   5.147  14.817  1.3007 -2.8523 -1.0188
 8971TIP3   OH248403   2.560   1.438  16.027  0.6402 -0.5160  0.1385
 8971TIP3    H148404   2.472   1.402  16.039  1.2914 -1.2119  3.7378
 8971TIP3    H248405   2.553   1.529  16.055  1.1684 -0.7375  1.0172
 8972TIP3   OH248406   3.210   0.596   5.114  0.2643  0.1515  0.7384
 8972TIP3    H148407   3.273   0.636   5.174  1.5770 -0.2206 -0.3368
 8972TIP3    H248408   3.203   0.658   5.042 -0.8703  0.3369  1.0010
 8973TIP3   OH248409   1.798   6.124  13.305  0.0698 -0.2629  0.6494
 8973TIP3    H148410   1.797   6.071  13.385  2.3876 -1.5377 -0.0869
 8973TIP3    H248411   1.793   6.214  13.336  1.5955 -0.6885  2.3184
 8974TIP3   OH248412   4.384   5.596   4.165 -0.4023 -0.6521 -0.4964
 8974TIP3    H148413   4.312   5.556   4.116  0.7277 -3.3769 -0.0887
 8974TIP3    H248414   4.457   5.535   4.155  0.3389 -0.6371  3.3120
 8975TIP3   OH248415   4.875   3.145  16.927  0.1044  0.2385  0.3941
 8975TIP3    H148416   4.957   3.126  16.971 -0.1958 -0.6682  0.5971
 8975TIP3    H248417   4.851   3.233  16.957  0.6273  0.2154  0.9034
 8976TIP3   OH248418   5.162   6.638   3.666 -0.5110  0.3243 -0.5869
 8976TIP3    H148419   5.159   6.548   3.700  0.4122  0.0472 -1.1929
 8976TIP3    H248420   5.074   6.653   3.631 -1.1384  0.2227  0.9024
 8977TIP3   OH248421   3.643   0.816  14.855 -0.0544 -0.3342 -0.2647
 8977TIP3    H148422   3.702   0.851  14.922  1.5867 -2.4582 -0.4669
 8977TIP3    H248423   3.556   0.843  14.883  0.8410  1.4995  0.9903
 8978TIP3   OH248424   0.295   5.443   2.538 -0.1865  0.1672 -0.0017
 8978TIP3    H148425   0.287   5.375   2.472  0.1318  0.9565 -0.8812
 8978TIP3    H248426   0.208   5.450   2.576 -1.0560  1.3692 -2.0577
 8979TIP3   OH248427   4.151   2.319   2.870  0.2180  0.4661 -0.4531
 8979TIP3    H148428   4.178   2.409   2.856 -0.2078  0.5428 -0.7877
 8979TIP3    H248429   4.060   2.325   2.898  0.2387  0.1517 -0.3155
 8980TIP3   OH248430   2.510   5.235   2.051  0.5438 -0.2512 -0.4830
 8980TIP3    H148431   2.489   5.309   2.108 -2.0542 -1.0666 -0.2549
 8980TIP3    H248432   2.602   5.216   2.069 -0.0638 -0.3412  3.2955
 8981TIP3   OH248433   1.128   3.412   4.830  0.1691  0.0065 -0.9070
 8981TIP3    H148434   1.094   3.350   4.895  1.2891  1.3186  1.0532
 8981TIP3    H248435   1.083   3.494   4.851  1.8331  0.8807 -0.5882
 8982TIP3   OH248436   0.140   3.083  13.577 -0.2121  0.5101  0.1658
 8982TIP3    H148437   0.113   3.121  13.660  0.6912 -0.0348  0.7196
 8982TIP3    H248438   0.121   2.989  13.586  0.3057  0.3803 -0.0630
 8983TIP3   OH248439   4.441   6.118   6.859 -0.3193  0.7545  0.1857
 8983TIP3    H148440   4.525   6.162   6.844 -0.8625  1.6655 -0.2967
 8983TIP3    H248441   4.377   6.173   6.814 -1.0780 -0.3645 -0.1390
 8984TIP3   OH248442   2.937   5.692   2.279  0.3127 -0.0155  0.5534
 8984TIP3    H148443   2.900   5.610   2.247 -1.9723  1.4120 -0.7441
 8984TIP3    H248444   3.018   5.703   2.228 -1.0315  0.0640 -1.7194
 8985TIP3   OH248445   0.793   5.205   1.317  0.6939  0.0395 -0.0749
 8985TIP3    H148446   0.791   5.194   1.222  2.2438  0.1194 -0.1398
 8985TIP3    H248447   0.798   5.116   1.352  0.3286  0.0191 -0.0723
 8986TIP3   OH248448   6.579   5.733   5.667  0.3524 -0.7546  1.1028
 8986TIP3    H148449   6.581   5.638   5.651 -1.0519 -0.8093  1.1249
 8986TIP3    H248450   6.652   5.748   5.727  1.6419 -1.5495 -0.1629
 8987TIP3   OH248451   0.924   2.407  14.090  0.2891 -0.8500 -0.1591
 8987TIP3    H148452   1.012   2.369  14.085 -0.1429 -1.7162 -1.5777
 8987TIP3    H248453   0.887   2.393  14.003 -2.3438 -3.1740  1.1968
 8988TIP3   OH248454   5.084   1.748   5.583  0.0135  1.2805 -0.2294
 8988TIP3    H148455   5.039   1.833   5.580 -0.9438  0.7912 -0.0612
 8988TIP3    H248456   5.170   1.766   5.546 -0.6442  2.0392 -1.4744
 8989TIP3   OH248457   3.727   3.066  11.701 -0.4062  0.1972 -0.3577
 8989TIP3    H148458   3.794   3.086  11.635  0.7058  1.4502  1.0647
 8989TIP3    H248459   3.776   3.028  11.773 -1.8813 -3.2723 -1.0074
 8990TIP3   OH248460   2.254   5.473  17.189  0.2438  0.3503 -0.0628
 8990TIP3    H148461   2.279   5.527  17.114  1.3058 -0.6708 -0.4816
 8990TIP3    H248462   2.190   5.525  17.236 -1.1064  0.6852 -2.1501
 8991TIP3   OH248463   4.511   4.902   3.633  0.1988  0.5654 -0.4317
 8991TIP3    H148464   4.494   4.967   3.564 -1.3957  2.1893  1.3491
 8991TIP3    H248465   4.464   4.824   3.604 -0.5060  1.2429 -1.1771
 8992TIP3   OH248466   4.277   2.994  13.696 -0.3961 -0.1054 -0.0983
 8992TIP3    H148467   4.243   3.039  13.618 -0.8428 -0.3170 -0.0277
 8992TIP3    H248468   4.279   2.902  13.671 -0.5328 -0.1728  0.1370
 8993TIP3   OH248469   3.955   5.119   5.186  0.4166  0.2251 -0.3108
 8993TIP3    H148470   3.873   5.119   5.137  0.8617 -2.1263 -1.2158
 8993TIP3    H248471   3.975   5.212   5.200 -2.2977  0.8631 -0.1644
 8994TIP3   OH248472   6.697   4.226  17.200  0.7476 -0.3532  0.0785
 8994TIP3    H148473   6.728   4.163  17.264  0.1901  1.0598  1.8334
 8994TIP3    H248474   6.775   4.274  17.173  0.9370 -0.7192 -0.0206
 8995TIP3   OH248475   4.561   2.384   0.359 -0.0520 -0.2868  0.5056
 8995TIP3    H148476   4.531   2.311   0.412 -2.0745 -0.1511 -0.3459
 8995TIP3    H248477   4.558   2.460   0.417 -0.2293 -0.4928  0.7651
 8996TIP3   OH248478   6.189   3.132   0.191 -0.1739  0.0970  0.1778
 8996TIP3    H148479   6.121   3.076   0.228 -0.2562  0.4543  0.5751
 8996TIP3    H248480   6.270   3.083   0.206 -0.3277 -0.2879 -0.2185
 8997TIP3   OH248481   5.563   1.458   1.347  0.0969 -0.6759  0.2507
 8997TIP3    H148482   5.500   1.435   1.415  0.2925 -0.9802  0.3315
 8997TIP3    H248483   5.566   1.381   1.290  0.4934 -0.7212  0.3252
 8998TIP3   OH248484   5.276   6.109  13.204  0.3627 -0.1948  0.2121
 8998TIP3    H148485   5.286   6.065  13.288 -1.7312  0.0992  0.6792
 8998TIP3    H248486   5.250   6.198  13.226  0.6795  0.1550 -0.7563
 8999TIP3   OH248487   3.015   6.508   3.018 -0.5943 -0.4907 -0.3236
 8999TIP3    H148488   3.027   6.482   2.927 -1.5140 -0.4753 -0.4609
 8999TIP3    H248489   2.974   6.432   3.060 -4.0619  0.8554 -0.9147
 9000TIP3   OH248490   3.608   4.083   2.847 -0.4252  0.3175  0.3092
 9000TIP3    H148491   3.605   4.155   2.784  0.0398 -0.3846 -0.5413
 9000TIP3    H248492   3.684   4.102   2.902  1.2300 -0.7648 -1.4930
 9001TIP3   OH248493   2.872   4.152  13.584  0.6729 -0.1612  0.1256
 9001TIP3    H148494   2.889   4.106  13.501  0.6633 -1.1694  0.6702
 9001TIP3    H248495   2.911   4.095  13.651  0.1009  0.3192  0.8741
 9002TIP3   OH248496   3.207   3.923   3.749  0.0127  0.2116 -0.3919
 9002TIP3    H148497   3.143   3.991   3.770  1.6174  0.9272  2.8993
 9002TIP3    H248498   3.288   3.971   3.733  0.3438 -0.7919 -1.9224
 9003TIP3   OH248499   3.457   1.703  12.873  0.2113 -0.6509  0.3652
 9003TIP3    H148500   3.482   1.611  12.882 -1.8374 -1.3738 -0.8456
 9003TIP3    H248501   3.420   1.710  12.785 -0.2382  1.2008  0.6508
 9004TIP3   OH248502   1.751   4.826  16.726  0.8649 -0.2181  0.3180
 9004TIP3    H148503   1.680   4.815  16.789 -0.7663 -0.3270 -1.4532
 9004TIP3    H248504   1.798   4.904  16.756 -0.7767  0.5991  0.8707
 9005TIP3   OH248505   1.814   2.788  13.602 -0.2322 -0.2000  0.4033
 9005TIP3    H148506   1.763   2.716  13.638  0.0774  0.8191  3.0997
 9005TIP3    H248507   1.880   2.807  13.669  1.8201  0.4706 -1.6628
 9006TIP3   OH248508   5.050   6.515  14.369  0.3385 -0.0545 -0.7317
 9006TIP3    H148509   5.109   6.515  14.445 -0.5133 -0.8425 -0.0427
 9006TIP3    H248510   5.108   6.498  14.294  1.1573  0.4668 -0.2356
 9007TIP3   OH248511   3.082   2.017   1.809  0.0608 -0.2337  0.1373
 9007TIP3    H148512   3.077   2.105   1.770 -0.1819 -0.9640 -1.5939
 9007TIP3    H248513   2.999   1.976   1.783  0.6912 -1.3693 -0.1335
 9008TIP3   OH248514   2.124   6.665  12.516  0.0437 -0.0894  0.2779
 9008TIP3    H148515   2.186   6.614  12.465 -1.3487 -1.4500 -0.1507
 9008TIP3    H248516   2.120   6.621  12.600 -1.3115 -0.8876 -0.1600
 9009TIP3   OH248517   5.020   0.438  12.716  0.2401 -0.2716 -0.3031
 9009TIP3    H148518   4.930   0.408  12.702 -0.2316  0.8172  0.3071
 9009TIP3    H248519   5.026   0.520  12.668  1.0534 -0.5453 -0.6869
 9010TIP3   OH248520   0.982   0.273   4.313  0.1767  0.0274 -0.1478
 9010TIP3    H148521   0.908   0.248   4.257  1.0118  0.4063 -1.4706
 9010TIP3    H248522   0.960   0.359   4.347  0.1509  0.2779 -0.7985
 9011TIP3   OH248523   4.270   4.096  11.440 -0.0870  0.1930 -0.3601
 9011TIP3    H148524   4.337   4.028  11.431  0.8908  1.0888 -0.0703
 9011TIP3    H248525   4.312   4.175  11.407 -2.0223  0.2355 -2.9762
 9012TIP3   OH248526   4.397   6.440   1.298 -0.0056 -0.1170 -0.4462
 9012TIP3    H148527   4.433   6.353   1.280 -2.3811 -1.0783 -0.9505
 9012TIP3    H248528   4.458   6.479   1.361  0.4293 -2.6806  0.8637
 9013TIP3   OH248529   5.891   5.847   1.764  0.4537 -0.1836 -0.4166
 9013TIP3    H148530   5.827   5.902   1.808 -1.8374 -1.5625 -1.7638
 9013TIP3    H248531   5.935   5.906   1.702 -0.0541  0.6612  0.0072
 9014TIP3   OH248532   3.750   3.250   5.010  0.0001  0.5858  0.1089
 9014TIP3    H148533   3.840   3.241   4.979 -0.9732 -2.9814 -2.5135
 9014TIP3    H248534   3.708   3.306   4.945 -0.2976 -0.3499 -0.5302
 9015TIP3   OH248535   3.671   1.288  12.165 -0.1067 -0.0657 -0.1821
 9015TIP3    H148536   3.673   1.379  12.139 -1.2517  0.4381  1.3350
 9015TIP3    H248537   3.725   1.243  12.101  0.4678  1.6694 -0.9622
 9016TIP3   OH248538   6.544   6.401   2.368 -0.0138  0.0468 -0.6773
 9016TIP3    H148539   6.465   6.378   2.417  1.6046 -0.1918  1.9889
 9016TIP3    H248540   6.603   6.438   2.433  3.1797 -2.4003 -1.9170
 9017TIP3   OH248541   1.273   0.806   1.115 -0.2593  0.1446 -0.9568
 9017TIP3    H148542   1.350   0.857   1.142  0.3795 -0.5588 -1.4016
 9017TIP3    H248543   1.200   0.866   1.125  0.4198  1.0046 -1.0288
 9018TIP3   OH248544   4.114   4.460  12.700 -0.1875 -0.4495 -0.3169
 9018TIP3    H148545   4.043   4.490  12.757 -1.3006 -2.7910 -0.3276
 9018TIP3    H248546   4.194   4.490  12.742 -1.0995  0.1428  1.0494
 9019TIP3   OH248547   0.126   4.252  11.064  0.4925  0.3861  0.0683
 9019TIP3    H148548   0.037   4.219  11.067  0.3459  0.5726 -1.5992
 9019TIP3    H248549   0.122   4.334  11.115 -0.4502  0.7262 -0.5166
 9020TIP3   OH248550   2.212   0.394   1.810  0.0291  0.5578  0.4388
 9020TIP3    H148551   2.235   0.476   1.767 -0.1931  0.3958 -0.0017
 9020TIP3    H248552   2.118   0.385   1.794  0.0909  0.1177  0.3022
 9021TIP3   OH248553   2.770   4.739   1.027 -0.0888  0.0446 -0.0074
 9021TIP3    H148554   2.818   4.731   1.109 -0.5324  2.3039  0.5299
 9021TIP3    H248555   2.833   4.772   0.964 -0.1536 -0.1152 -0.1589
 9022TIP3   OH248556   5.508   0.125  13.839 -0.1275 -0.0476  0.3358
 9022TIP3    H148557   5.589   0.108  13.888  0.7632 -1.6043 -1.5127
 9022TIP3    H248558   5.528   0.203  13.787 -1.2716  1.9570  2.6900
 9023TIP3   OH248559   0.545   0.653  12.510 -0.3484  0.0935  0.2060
 9023TIP3    H148560   0.614   0.587  12.511  1.8992  2.2818  0.8306
 9023TIP3    H248561   0.577   0.721  12.450 -1.6340  1.5013  1.0199
 9024TIP3   OH248562   6.210   3.707   0.305 -0.4798 -0.8871 -0.9100
 9024TIP3    H148563   6.203   3.641   0.235 -1.7781 -2.6765  0.8064
 9024TIP3    H248564   6.119   3.721   0.333 -0.1304  0.9897 -0.6011
 9025TIP3   OH248565   3.920   5.294  12.185  0.2264  0.3333  0.2080
 9025TIP3    H148566   3.950   5.289  12.276 -0.6516 -1.4499  0.4471
 9025TIP3    H248567   3.894   5.204  12.164 -0.1151  0.8313 -1.6278
 9026TIP3   OH248568   6.400   4.523   6.236  0.9926 -0.1569 -0.3311
 9026TIP3    H148569   6.425   4.435   6.208  0.3626 -0.2898 -0.4881
 9026TIP3    H248570   6.481   4.560   6.273  1.1975 -0.8945 -0.0238
 9027TIP3   OH248571   4.447   2.219   3.272 -0.0690 -0.3599 -0.2087
 9027TIP3    H148572   4.384   2.211   3.201 -0.7169  0.0383  0.3004
 9027TIP3    H248573   4.393   2.232   3.350  0.6447  0.1732  0.2157
 9028TIP3   OH248574   5.966   2.530   3.837  0.9590  0.3712  0.6774
 9028TIP3    H148575   5.904   2.476   3.887  1.3730  0.2705  1.0897
 9028TIP3    H248576   6.007   2.468   3.777  1.2699  0.2708  0.9926
 9029TIP3   OH248577   6.446   1.233   2.438  0.0796  0.4537 -0.4892
 9029TIP3    H148578   6.509   1.162   2.448 -0.4782 -0.0750 -0.6397
 9029TIP3    H248579   6.372   1.208   2.493  0.0780  1.1639 -0.1596
 9030TIP3   OH248580   2.179   4.616   0.951 -0.5045  0.3204  0.3302
 9030TIP3    H148581   2.137   4.537   0.919 -0.0780  1.2598 -2.8901
 9030TIP3    H248582   2.119   4.687   0.928  1.9032  1.5183 -2.9833
 9031TIP3   OH248583   3.683   0.108   1.419 -0.3082  0.5101 -0.1210
 9031TIP3    H148584   3.674   0.020   1.455  3.4556 -0.7905 -1.9344
 9031TIP3    H248585   3.698   0.163   1.496 -0.0518 -0.8892  0.8699
 9032TIP3   OH248586   5.884   3.731  12.937 -0.0291 -0.1558  0.2952
 9032TIP3    H148587   5.944   3.801  12.909 -0.4070  0.3698  0.7678
 9032TIP3    H248588   5.797   3.766  12.919 -0.2049 -0.8606 -0.2572
 9033TIP3   OH248589   3.960   2.694   5.885 -0.3439 -0.3033 -0.5663
 9033TIP3    H148590   4.002   2.766   5.837 -1.3075 -0.0574 -1.0723
 9033TIP3    H248591   3.919   2.736   5.961 -0.5655 -0.3770 -0.6443
 9034TIP3   OH248592   6.660   3.615  13.035 -0.3573 -0.2447  0.8233
 9034TIP3    H148593   6.624   3.702  13.050  1.2967  1.1501 -2.3466
 9034TIP3    H248594   6.753   3.623  13.058  0.3138 -0.4127 -1.5332
 9035TIP3   OH248595   1.308   2.870  11.866  0.1802  0.2414  0.3884
 9035TIP3    H148596   1.236   2.931  11.853  0.0966  0.1774  0.5359
 9035TIP3    H248597   1.294   2.836  11.955 -0.3295 -0.7032 -0.0330
 9036TIP3   OH248598   3.475   0.243   1.326 -0.0538 -0.0614  0.0453
 9036TIP3    H148599   3.555   0.194   1.346  1.4570  2.2367  0.0072
 9036TIP3    H248600   3.447   0.209   1.241  1.8937  0.2480 -0.7762
 9037TIP3   OH248601   2.039   0.772  17.069 -0.3446  0.4249 -0.0184
 9037TIP3    H148602   1.971   0.709  17.089 -0.8340  0.8112 -0.4425
 9037TIP3    H248603   2.119   0.734  17.107  0.1502 -2.2356 -3.2071
 9038TIP3   OH248604   4.326   1.910  12.074 -0.4107  0.1709 -0.0687
 9038TIP3    H148605   4.356   1.863  11.996 -0.2363 -0.2203  0.2325
 9038TIP3    H248606   4.262   1.974  12.040 -0.3468 -0.0022 -0.5279
 9039TIP3   OH248607   0.034   2.312   4.249  0.6885  0.1457  0.2222
 9039TIP3    H148608  -0.009   2.330   4.332  0.4538 -0.4948  0.2438
 9039TIP3    H248609  -0.013   2.237   4.213 -0.2007  1.3412 -1.2189
 9040TIP3   OH248610   1.339   5.867   4.488 -0.0491 -0.1793 -0.0430
 9040TIP3    H148611   1.287   5.788   4.498 -2.7425  1.7125  2.1253
 9040TIP3    H248612   1.403   5.863   4.559 -1.5413  0.4581  1.4118
 9041TIP3   OH248613   3.236   3.430  13.798  0.6381  0.3441 -0.2337
 9041TIP3    H148614   3.160   3.481  13.769 -0.2182 -0.2742  0.8837
 9041TIP3    H248615   3.306   3.495  13.807  0.4496  0.8212 -1.8985
 9042TIP3   OH248616   5.544   5.390  14.224 -0.5357 -0.3127  0.3785
 9042TIP3    H148617   5.480   5.368  14.157 -1.0480 -3.3619  1.6985
 9042TIP3    H248618   5.626   5.351  14.194 -0.1555  0.4562  0.3873
 9043TIP3   OH248619   1.575   2.162   5.949 -0.1235  0.1908  0.2004
 9043TIP3    H148620   1.618   2.221   5.887  0.2517 -0.7937 -0.5110
 9043TIP3    H248621   1.581   2.207   6.033  0.5929  0.9385 -0.2340
 9044TIP3   OH248622   3.854   5.503   4.253 -0.0024 -0.1253 -0.2191
 9044TIP3    H148623   3.924   5.471   4.311 -0.2126 -0.1953 -0.0005
 9044TIP3    H248624   3.895   5.508   4.167 -0.1070 -1.5485 -0.3769
 9045TIP3   OH248625   3.793   4.306  12.887  0.0985  0.7556 -0.0840
 9045TIP3    H148626   3.853   4.234  12.871 -1.1377 -0.0675 -1.1489
 9045TIP3    H248627   3.848   4.375  12.926  1.6055 -0.1525 -0.5479
 9046TIP3   OH248628   1.038   1.961   0.505  0.0802 -0.0972 -0.9569
 9046TIP3    H148629   1.081   1.931   0.425  1.6779 -2.8894  0.7675
 9046TIP3    H248630   1.097   2.029   0.540  2.0722 -2.2651  0.1889
 9047TIP3   OH248631   6.682   0.431  11.868 -0.3634 -0.0237 -0.1054
 9047TIP3    H148632   6.684   0.483  11.948 -0.4319  0.5408 -0.4613
 9047TIP3    H248633   6.633   0.353  11.891  0.8622 -0.5596  0.8089
 9048TIP3   OH248634   5.623   1.785  16.027  0.2226 -0.8841 -0.2676
 9048TIP3    H148635   5.698   1.843  16.040  0.9130 -1.4179 -1.6726
 9048TIP3    H248636   5.548   1.835  16.057  1.0369  0.0066  0.3221
 9049TIP3   OH248637   3.851   5.352   0.183 -0.0926  0.7551  0.3319
 9049TIP3    H148638   3.774   5.316   0.226 -0.8005 -0.2465 -1.6913
 9049TIP3    H248639   3.887   5.280   0.132  1.8995  1.3531  0.7900
 9050TIP3   OH248640   5.809   0.756  14.494  0.1901 -0.6483  0.2492
 9050TIP3    H148641   5.764   0.698  14.433  1.6078 -3.4116  1.6095
 9050TIP3    H248642   5.751   0.759  14.571  1.4082 -2.8633  1.3535
 9051TIP3   OH248643   6.242   5.657  12.920  0.4865 -0.3250 -0.4866
 9051TIP3    H148644   6.239   5.711  12.999  0.7343  0.7319 -1.1665
 9051TIP3    H248645   6.207   5.572  12.946 -0.3224  0.3075  0.5179
 9052TIP3   OH248646   5.216   5.954  16.581  0.0560  0.0686 -0.0911
 9052TIP3    H148647   5.136   5.997  16.610 -0.0893 -0.8133  0.8864
 9052TIP3    H248648   5.188   5.894  16.512 -0.1052 -0.0784  0.0990
 9053TIP3   OH248649   1.983   5.061  14.890  0.3151  0.2934  0.2749
 9053TIP3    H148650   1.985   4.968  14.912 -2.3027  0.1968  0.4125
 9053TIP3    H248651   1.993   5.106  14.974  0.5475  0.1177  0.3417
 9054TIP3   OH248652   2.069   2.228   0.315 -0.0731 -0.4026 -0.4948
 9054TIP3    H148653   2.003   2.182   0.367 -0.2499  0.0434 -0.3197
 9054TIP3    H248654   2.032   2.316   0.302  1.3585  0.5310  1.3060
 9055TIP3   OH248655   3.914   1.488  13.237  0.3332 -0.4036 -0.2671
 9055TIP3    H148656   3.938   1.506  13.328  1.1979  0.4409 -0.6365
 9055TIP3    H248657   3.861   1.564  13.211  0.6162 -0.3340 -0.6447
 9056TIP3   OH248658   0.188   1.092   5.621  0.5447  0.6983  0.1567
 9056TIP3    H148659   0.250   1.086   5.693  1.1812  2.0947 -0.2307
 9056TIP3    H248660   0.217   1.168   5.571  0.7221 -0.8062 -2.1636
 9057TIP3   OH248661   1.989   2.224   0.935  0.4564  0.2513 -0.0842
 9057TIP3    H148662   1.956   2.140   0.904 -1.3557  0.1647  1.8437
 9057TIP3    H248663   2.071   2.203   0.980  1.4516 -0.0393 -1.9382
 9058TIP3   OH248664   3.338   3.356  15.578  0.4776  0.0864  0.0974
 9058TIP3    H148665   3.421   3.314  15.601  0.6715  0.0662 -0.5932
 9058TIP3    H248666   3.291   3.290  15.527 -0.4386 -0.2854  1.3865
 9059TIP3   OH248667   3.093   0.524  11.571  0.5183 -0.1906  0.7069
 9059TIP3    H148668   3.106   0.451  11.510 -0.5620  0.2545 -0.0985
 9059TIP3    H248669   3.141   0.597  11.532 -0.4504  0.1860  0.1915
 9060TIP3   OH248670   2.789   6.542   2.462 -0.7201 -0.1475  0.2884
 9060TIP3    H148671   2.731   6.616   2.443 -1.1546 -0.5339  0.0905
 9060TIP3    H248672   2.872   6.583   2.487 -1.3723  0.4323  1.6112
 9061TIP3   OH248673   1.388   3.123   5.503 -0.9459 -0.1390  0.1614
 9061TIP3    H148674   1.426   3.156   5.421  0.3510  0.0138  0.8160
 9061TIP3    H248675   1.397   3.028   5.497 -1.2475 -0.1577 -0.0517
 9062TIP3   OH248676   0.468   6.163   3.380  0.2030  0.7765 -0.0218
 9062TIP3    H148677   0.548   6.114   3.400  0.6220  1.6771  0.6158
 9062TIP3    H248678   0.495   6.255   3.388 -0.5947  1.1119 -1.0210
 9063TIP3   OH248679   2.949   2.806  15.340 -0.3348  0.1583 -0.1475
 9063TIP3    H148680   3.021   2.777  15.395  0.7820  1.6879 -0.7333
 9063TIP3    H248681   2.870   2.786  15.391  0.6329  1.4987  2.0282
 9064TIP3   OH248682   2.182   5.380   5.357  0.3630 -0.1743 -0.1160
 9064TIP3    H148683   2.115   5.324   5.320  1.6340 -0.9121 -1.3909
 9064TIP3    H248684   2.253   5.320   5.381  0.6835  0.6085  0.9778
 9065TIP3   OH248685   1.137   5.776  13.536  0.1394  0.1618 -0.1521
 9065TIP3    H148686   1.127   5.788  13.442  1.4505  3.0233 -0.0088
 9065TIP3    H248687   1.048   5.785  13.571 -0.3064 -0.6079 -1.0478
 9066TIP3   OH248688   3.271   1.436  12.216 -0.2534  0.0958 -0.5324
 9066TIP3    H148689   3.286   1.518  12.169  0.5762  0.5347  0.4724
 9066TIP3    H248690   3.342   1.431  12.279 -1.7641 -0.0842  1.2178
 9067TIP3   OH248691   0.850   5.880  14.394 -0.3539 -0.2034 -0.1896
 9067TIP3    H148692   0.909   5.949  14.365 -0.1631 -0.8400 -1.3913
 9067TIP3    H248693   0.901   5.829  14.456  0.7465 -1.3237 -1.9325
 9068TIP3   OH248694   1.935   3.789   2.836 -0.3999 -0.0951  0.0271
 9068TIP3    H148695   1.933   3.739   2.755  0.2721 -0.2014  0.0689
 9068TIP3    H248696   2.024   3.778   2.869 -0.0679  1.5025 -0.2090
 9069TIP3   OH248697   2.548   2.992  16.880 -0.3687  0.3071 -0.2521
 9069TIP3    H148698   2.475   2.986  16.818 -0.1004 -0.7147 -0.4872
 9069TIP3    H248699   2.618   2.942  16.839  0.5500  1.4472 -0.1215
 9070TIP3   OH248700   2.414   5.865   5.257  0.0887 -0.0491 -0.0443
 9070TIP3    H148701   2.391   5.780   5.293 -0.5431 -0.2678 -0.9448
 9070TIP3    H248702   2.330   5.909   5.244  0.4224  0.8910  0.8049
 9071TIP3   OH248703   5.767   4.670  11.822  0.2177  0.8712  0.4839
 9071TIP3    H148704   5.815   4.735  11.770  0.5965  1.8703  2.0130
 9071TIP3    H248705   5.687   4.654  11.771  1.1746  0.7660 -1.0613
 9072TIP3   OH248706   2.022   0.352   5.076  0.0618  0.2506 -0.2222
 9072TIP3    H148707   1.972   0.433   5.079  0.4878  0.4771  1.3769
 9072TIP3    H248708   1.956   0.283   5.077 -0.2720  0.5628 -0.5009
 9073TIP3   OH248709   1.935   0.186  16.830  0.8897 -0.7124 -0.1646
 9073TIP3    H148710   1.916   0.104  16.783 -2.5958 -0.0431 -0.2570
 9073TIP3    H248711   1.988   0.237  16.770 -0.2657 -1.3940 -1.8380
 9074TIP3   OH248712   0.193   5.114   5.183  0.0151  0.1055  0.3491
 9074TIP3    H148713   0.257   5.058   5.227 -1.2452  0.0619  2.2298
 9074TIP3    H248714   0.245   5.172   5.127  1.5339 -1.1154  0.4383
 9075TIP3   OH248715   0.458   0.212   3.102  0.1994  0.0047 -0.2888
 9075TIP3    H148716   0.549   0.183   3.105  0.5836  1.0643 -1.0588
 9075TIP3    H248717   0.412   0.141   3.058  1.2999  0.8475 -3.0502
 9076TIP3   OH248718   3.921   0.822   1.083 -0.1037  0.2587 -0.2391
 9076TIP3    H148719   3.858   0.863   1.024  1.2916  0.3641 -1.7199
 9076TIP3    H248720   3.895   0.729   1.084 -0.6220  0.3964 -0.3745
 9077TIP3   OH248721   0.207   3.837   1.637  0.2959 -0.0552  0.5692
 9077TIP3    H148722   0.241   3.919   1.673  1.0000  0.1790 -0.5505
 9077TIP3    H248723   0.172   3.862   1.551 -1.1492 -0.6205  0.9791
 9078TIP3   OH248724   3.352   3.865   0.463 -0.0105  0.2241  0.4878
 9078TIP3    H148725   3.387   3.902   0.382 -1.2008  0.2918 -0.0291
 9078TIP3    H248726   3.267   3.829   0.437 -1.3155  1.9425  2.0527
 9079TIP3   OH248727   6.447   4.793  14.614 -0.1750  0.1182  0.8450
 9079TIP3    H148728   6.399   4.786  14.697  1.0624 -3.6174  1.4665
 9079TIP3    H248729   6.539   4.793  14.641  0.2395  0.8186 -0.5120
 9080TIP3   OH248730   3.409   1.539   5.431  0.0755  0.6072 -0.2704
 9080TIP3    H148731   3.333   1.575   5.386  0.5386  1.0653 -0.7026
 9080TIP3    H248732   3.482   1.593   5.401  0.4013  0.9270  1.0391
 9081TIP3   OH248733   4.184   0.414  15.993 -0.0676 -0.2616 -0.5052
 9081TIP3    H148734   4.154   0.324  16.008 -2.0606  0.6496  1.5630
 9081TIP3    H248735   4.131   0.467  16.052  1.2266  2.2807 -1.4786
 9082TIP3   OH248736   0.386   4.635  13.942  0.2623  0.1612 -0.0440
 9082TIP3    H148737   0.318   4.572  13.963 -0.4270  0.6615 -0.6960
 9082TIP3    H248738   0.408   4.616  13.851 -0.2848  1.1409 -0.3955
 9083TIP3   OH248739   2.793   0.688   2.175  0.3548  0.0031 -0.1472
 9083TIP3    H148740   2.777   0.754   2.243 -0.5815  1.2412 -1.5157
 9083TIP3    H248741   2.710   0.640   2.170  0.9825 -1.2157  0.7325
 9084TIP3   OH248742   0.968   4.922   4.794  0.0401  0.3018  0.1409
 9084TIP3    H148743   0.887   4.965   4.821  0.5072  0.6372  1.0515
 9084TIP3    H248744   1.028   4.935   4.867  0.7477 -0.4170 -0.2889
 9085TIP3   OH248745   6.092   4.481   0.617  0.0457 -0.1716  0.0109
 9085TIP3    H148746   6.147   4.405   0.598  2.1207  1.1700  0.2939
 9085TIP3    H248747   6.004   4.455   0.587  0.6564 -2.6513  0.1411
 9086TIP3   OH248748   5.386   1.116  13.033  0.3119  0.0320 -0.1738
 9086TIP3    H148749   5.306   1.068  13.054  0.1817  0.1571 -0.3789
 9086TIP3    H248750   5.370   1.204  13.066  0.9797 -0.3419  1.1758
 9087TIP3   OH248751   0.899   6.231   0.269  0.2245  0.5287 -0.3200
 9087TIP3    H148752   0.871   6.145   0.301 -1.3900  0.4796 -1.7781
 9087TIP3    H248753   0.965   6.211   0.203  1.2260  0.5120  0.6567
 9088TIP3   OH248754   1.526   4.203  16.586 -0.9228  0.2168  0.3439
 9088TIP3    H148755   1.460   4.259  16.546 -0.2090 -0.0172 -1.2253
 9088TIP3    H248756   1.522   4.224  16.679 -3.9549 -0.5560  0.5090
 9089TIP3   OH248757   1.522   5.099  11.892 -0.1820 -0.0179 -0.2124
 9089TIP3    H148758   1.440   5.050  11.900 -0.4284  0.6611  2.4281
 9089TIP3    H248759   1.551   5.082  11.803 -2.5201 -1.3312 -0.8224
 9090TIP3   OH248760   5.299   6.068  15.324 -0.5462  0.4518  0.1480
 9090TIP3    H148761   5.292   6.158  15.291 -0.9836  0.6116  0.6614
 9090TIP3    H248762   5.344   6.078  15.408 -0.5327  0.1843  0.1715
 9091TIP3   OH248763   2.505   4.504  12.989 -0.6096 -0.5288  0.3376
 9091TIP3    H148764   2.495   4.410  12.976 -0.4034 -0.2816 -1.9720
 9091TIP3    H248765   2.423   4.541  12.958 -0.1642  0.1531 -0.0421
 9092TIP3   OH248766   5.101   3.615  15.208  0.0328 -0.3138 -0.1535
 9092TIP3    H148767   5.071   3.543  15.152 -3.1297  1.3368 -0.8208
 9092TIP3    H248768   5.057   3.692  15.172  1.5549  1.6081  1.8703
 9093TIP3   OH248769   5.282   1.032   5.174 -0.0138  0.2039  0.0497
 9093TIP3    H148770   5.209   0.977   5.203  0.1209  0.8457  1.7266
 9093TIP3    H248771   5.349   1.020   5.242  0.2877  1.8735  0.0954
 9094TIP3   OH248772   4.851   0.379  11.234  0.5210 -0.1826 -0.4030
 9094TIP3    H148773   4.892   0.328  11.304  1.5602  0.6171 -0.3926
 9094TIP3    H248774   4.796   0.317  11.187  1.1965 -1.1433  0.0521
 9095TIP3   OH248775   5.680   0.446  11.918  0.2510  0.2556 -0.8455
 9095TIP3    H148776   5.597   0.457  11.965  0.2724 -0.2506 -0.6799
 9095TIP3    H248777   5.695   0.530  11.875 -1.3877 -0.2567 -2.5560
 9096TIP3   OH248778   4.862   4.714   2.438  0.6631 -0.7782 -0.2059
 9096TIP3    H148779   4.838   4.732   2.347  0.1767 -1.1627 -0.1549
 9096TIP3    H248780   4.781   4.726   2.487  1.3613  1.6628  0.5116
 9097TIP3   OH248781   5.819   3.185   1.408  0.1103  0.1941 -0.2916
 9097TIP3    H148782   5.901   3.222   1.440  0.2070 -0.1411 -0.1498
 9097TIP3    H248783   5.818   3.207   1.315 -1.7087  4.0541  0.4487
 9098TIP3   OH248784   6.635   6.621  13.600  0.6416  0.5051 -0.2530
 9098TIP3    H148785   6.682   6.588  13.523  1.3426 -0.6792  0.6438
 9098TIP3    H248786   6.663   6.563  13.671 -2.5563 -0.5539  0.2687
 9099TIP3   OH248787   0.248   3.598   5.924 -0.1352 -0.3932 -0.1222
 9099TIP3    H148788   0.262   3.548   6.005 -0.1734 -0.2879 -0.0511
 9099TIP3    H248789   0.157   3.626   5.929 -0.1970 -0.5586 -0.2979
 9100TIP3   OH248790   2.343   1.085   3.703 -0.1763  0.2989 -0.2608
 9100TIP3    H148791   2.358   1.050   3.615  0.6737  1.1143 -0.4561
 9100TIP3    H248792   2.428   1.076   3.747 -0.9086 -1.3061  0.9370
 9101TIP3   OH248793   3.281   4.255   1.269  0.7508  0.5406  0.3712
 9101TIP3    H148794   3.270   4.234   1.362 -0.0616  0.2133  0.2100
 9101TIP3    H248795   3.192   4.254   1.234  1.1718 -0.9487 -0.7407
 9102TIP3   OH248796   6.446   2.506   3.211  0.9079  0.3066 -0.1790
 9102TIP3    H148797   6.366   2.558   3.205  1.8011  1.5636 -1.8276
 9102TIP3    H248798   6.439   2.441   3.141  0.7620 -0.4568  0.5212
 9103TIP3   OH248799   5.186   0.242   1.299  0.2166 -0.1031  0.1998
 9103TIP3    H148800   5.221   0.190   1.228  1.0733  0.1262  0.4389
 9103TIP3    H248801   5.168   0.179   1.369 -1.2133 -0.4154 -0.4145
 9104TIP3   OH248802   4.986   6.292  15.561  0.0370 -0.2175  0.5440
 9104TIP3    H148803   5.014   6.210  15.521  1.5080  0.0800  0.8947
 9104TIP3    H248804   5.050   6.308  15.631 -0.8084  0.7156  1.1365
 9105TIP3   OH248805   4.979   6.721  16.036 -0.0563  0.0207  0.2834
 9105TIP3    H148806   4.953   6.806  15.999  0.4303  0.2446  0.4456
 9105TIP3    H248807   5.075   6.722  16.031  0.0318  0.1460  1.7661
 9106TIP3   OH248808   5.413   4.239  12.797 -0.4290 -0.1255  0.4547
 9106TIP3    H148809   5.428   4.263  12.889  2.1435  0.9006 -0.1536
 9106TIP3    H248810   5.326   4.275  12.778 -0.4783  0.7937  2.1264
 9107TIP3   OH248811   5.669   3.303  12.738 -0.7575  0.0535 -0.7476
 9107TIP3    H148812   5.624   3.364  12.797  1.7028  0.3599  0.9825
 9107TIP3    H248813   5.750   3.349  12.715 -1.3006 -0.3879 -3.8553
 9108TIP3   OH248814   4.139   1.171  11.019 -0.6329 -0.3933  0.5743
 9108TIP3    H148815   4.081   1.106  10.980 -1.5126  1.2559 -1.0837
 9108TIP3    H248816   4.224   1.127  11.027 -0.6969 -1.2289 -2.2466
 9109TIP3   OH248817   2.742   3.300   0.501 -0.3129  0.7764 -0.4840
 9109TIP3    H148818   2.764   3.288   0.409  1.2792  1.4861 -0.2297
 9109TIP3    H248819   2.709   3.389   0.507 -2.3177  0.0971 -0.6607
 9110TIP3   OH248820   2.688   6.300   1.261 -0.7391 -0.2890  0.0842
 9110TIP3    H148821   2.684   6.214   1.303  0.0483 -0.8528 -0.9505
 9110TIP3    H248822   2.700   6.362   1.333  0.1920 -1.1833  0.7162
 9111TIP3   OH248823   2.288   6.177   4.185 -0.2603  0.1946 -0.5133
 9111TIP3    H148824   2.260   6.148   4.272 -0.4474  1.5211 -0.1103
 9111TIP3    H248825   2.215   6.230   4.153  1.0209  2.2884 -0.1663
 9112TIP3   OH248826   0.180   4.915  14.640 -0.5266  0.1104 -0.8270
 9112TIP3    H148827   0.204   4.910  14.732 -0.9965  2.1703 -0.5448
 9112TIP3    H248828   0.254   4.874  14.594  1.2535  1.8581  0.3093
 9113TIP3   OH248829   5.018   1.268  14.438  0.4608  0.3429 -0.3792
 9113TIP3    H148830   5.059   1.245  14.355  2.0559  1.6489 -0.0167
 9113TIP3    H248831   4.984   1.186  14.472 -0.4180 -0.1874 -2.3983
 9114TIP3   OH248832   5.580   1.232   2.827  0.0999 -0.4357 -0.1515
 9114TIP3    H148833   5.639   1.202   2.757 -1.2106 -0.3450 -1.3550
 9114TIP3    H248834   5.572   1.326   2.813  0.1288 -0.3572  0.3648
 9115TIP3   OH248835   3.895   0.688   2.869 -0.3317  0.5563  0.5200
 9115TIP3    H148836   3.813   0.643   2.850 -0.2115 -0.3060  1.9014
 9115TIP3    H248837   3.885   0.720   2.959  0.1680  2.0096  0.0878
 9116TIP3   OH248838   1.362   1.551   1.206  0.6736  0.2301 -0.0784
 9116TIP3    H148839   1.281   1.579   1.247  1.1715 -1.4771  2.3204
 9116TIP3    H248840   1.410   1.632   1.189 -0.5127  1.1326  0.7309
 9117TIP3   OH248841   5.702   1.205   2.187 -0.2861  0.1653  0.1991
 9117TIP3    H148842   5.740   1.127   2.148 -0.6835 -0.4496  1.0072
 9117TIP3    H248843   5.629   1.228   2.129  0.2030  0.3045 -0.3737
 9118TIP3   OH248844   1.435   0.806  12.890 -0.2758  0.2057  0.3464
 9118TIP3    H148845   1.373   0.871  12.924  0.2413  0.4779  0.7873
 9118TIP3    H248846   1.506   0.859  12.853  0.3280 -0.1058  1.0483
 9119TIP3   OH248847   3.855   1.560   1.601  0.2296  0.1998  0.2027
 9119TIP3    H148848   3.910   1.638   1.593  0.0609  0.2675 -0.3158
 9119TIP3    H248849   3.888   1.515   1.679  0.2950  0.8136  0.5334
 9120TIP3   OH248850   5.796   2.585  11.320 -0.2657  0.0237  0.6486
 9120TIP3    H148851   5.712   2.543  11.303 -0.2926 -0.2466  1.4219
 9120TIP3    H248852   5.820   2.625  11.236  0.0306 -1.9814 -0.2740
 9121TIP3   OH248853   4.029   4.915  14.659  0.1653 -0.2941 -0.1090
 9121TIP3    H148854   4.039   4.832  14.613  3.6499 -0.1988  0.1776
 9121TIP3    H248855   4.033   4.982  14.590 -0.6044 -0.2870 -0.1554
 9122TIP3   OH248856   1.427   2.187   0.833 -0.1638 -0.1134 -0.0824
 9122TIP3    H148857   1.370   2.114   0.809  1.7647 -2.3083  1.6061
 9122TIP3    H248858   1.510   2.169   0.788  0.2331  1.3052  0.0300
 9123TIP3   OH248859   2.750   1.283   6.180  0.2896  0.4902  0.0394
 9123TIP3    H148860   2.661   1.317   6.185 -1.2719 -3.0316 -0.6998
 9123TIP3    H248861   2.778   1.277   6.271 -1.0258 -0.0918  0.4380
 9124TIP3   OH248862   5.409   1.956  16.753  0.0842 -0.2312  0.3993
 9124TIP3    H148863   5.346   2.008  16.704 -1.6000 -2.2906  0.2158
 9124TIP3    H248864   5.362   1.931  16.833  0.0782 -2.9120 -0.3465
 9125TIP3   OH248865   1.118   0.253   2.010 -0.0083  0.0673 -0.3121
 9125TIP3    H148866   1.036   0.206   1.998 -0.3617  0.6382 -0.1589
 9125TIP3    H248867   1.170   0.197   2.068 -1.7586  1.4107  2.7931
 9126TIP3   OH248868   6.207   2.658   0.393 -0.3096 -0.1300 -0.7083
 9126TIP3    H148869   6.275   2.724   0.378  1.0583 -0.7424  2.1037
 9126TIP3    H248870   6.232   2.586   0.335 -0.1626  0.7031 -1.7115
 9127TIP3   OH248871   1.570   1.009  14.637  0.4437  0.4538  0.1994
 9127TIP3    H148872   1.582   1.091  14.684  0.7813  0.0967  0.7484
 9127TIP3    H248873   1.529   0.950  14.700 -2.3202  0.9743 -0.9874
 9128TIP3   OH248874   5.168   6.141   3.947 -0.1144 -0.2975 -0.0327
 9128TIP3    H148875   5.173   6.051   3.915 -0.3550 -0.7449  1.1328
 9128TIP3    H248876   5.103   6.137   4.017  0.3561  0.6548  0.4641
 9129TIP3   OH248877   4.569   2.271   4.362 -0.3644 -0.2561  0.3058
 9129TIP3    H148878   4.477   2.247   4.373  0.2209 -2.2099  1.6962
 9129TIP3    H248879   4.568   2.347   4.304 -2.7818 -0.7542 -0.4167
 9130TIP3   OH248880   4.974   4.177  17.073 -0.1335 -0.3120 -0.4814
 9130TIP3    H148881   4.922   4.194  16.995 -0.7759  1.1094  0.2160
 9130TIP3    H248882   5.044   4.243  17.070 -1.0303  0.7546  0.8631
 9131TIP3   OH248883   5.582   3.567   0.905 -0.0675 -0.2465 -0.1803
 9131TIP3    H148884   5.642   3.496   0.925 -0.5643 -0.8298 -0.7334
 9131TIP3    H248885   5.512   3.527   0.854 -1.7883  0.0588  1.7742
 9132TIP3   OH248886   5.086   0.791   1.365 -0.0734 -0.6827 -0.0471
 9132TIP3    H148887   5.122   0.816   1.280 -0.1200 -0.4010  0.0176
 9132TIP3    H248888   5.051   0.703   1.350 -0.3648 -0.5089 -0.4021
 9133TIP3   OH248889   1.510   6.533  13.880 -0.4862  0.2442  0.4130
 9133TIP3    H148890   1.445   6.564  13.817 -0.7392 -3.6103 -1.5491
 9133TIP3    H248891   1.594   6.552  13.840 -0.5099  1.3433  0.8625
 9134TIP3   OH248892   1.790   2.095   1.280 -0.0025  0.2379  0.0146
 9134TIP3    H148893   1.883   2.107   1.298 -0.3210  0.4924  1.6442
 9134TIP3    H248894   1.753   2.182   1.288 -0.3505  0.2006 -1.0067
 9135TIP3   OH248895   0.500   2.473   4.474 -0.3067  0.0217 -0.6017
 9135TIP3    H148896   0.530   2.550   4.426 -0.8716  0.1304 -0.7876
 9135TIP3    H248897   0.452   2.422   4.409  0.1010 -0.5113 -0.4894
 9136TIP3   OH248898   1.884   2.986  13.057 -0.2373 -0.4056  0.2694
 9136TIP3    H148899   1.915   2.922  13.121 -0.7024 -0.4808  0.4223
 9136TIP3    H248900   1.963   3.032  13.029 -0.0904  0.0021  1.3064
 9137TIP3   OH248901   3.060   1.430  13.033 -0.1943  0.3092  1.1205
 9137TIP3    H148902   3.099   1.517  13.023 -2.3430  1.5563  2.7331
 9137TIP3    H248903   3.113   1.388  13.101 -0.6528  1.3457  2.1361
 9138TIP3   OH248904   4.841   2.170  15.357  0.1693  0.1617  0.1706
 9138TIP3    H148905   4.859   2.120  15.437  2.8428  1.1471  0.3059
 9138TIP3    H248906   4.850   2.262  15.384  0.1783  0.5348 -1.0462
 9139TIP3   OH248907   6.183   4.024   3.036 -0.1434  0.4615 -0.2172
 9139TIP3    H148908   6.230   4.100   3.071  0.0897  0.3512 -0.2852
 9139TIP3    H248909   6.116   4.061   2.979 -1.3591  0.6980  1.3181
 9140TIP3   OH248910   1.536   4.029   1.163  0.2084  0.5963 -0.5822
 9140TIP3    H148911   1.490   3.950   1.194  2.2929 -0.1690  0.7902
 9140TIP3    H248912   1.535   4.022   1.068  0.2309 -1.0556 -0.4880
 9141TIP3   OH248913   5.494   5.246   1.964  0.4375  0.4246 -0.2251
 9141TIP3    H148914   5.548   5.174   1.932  0.7875 -0.3607  1.9550
 9141TIP3    H248915   5.554   5.320   1.973 -0.1295  1.4751 -3.5371
 9142TIP3   OH248916   4.290   6.761   3.846 -0.1898  0.0307  0.3555
 9142TIP3    H148917   4.320   6.704   3.916  0.3241  0.0763  0.1772
 9142TIP3    H248918   4.201   6.785   3.871 -0.7767 -1.6194 -0.0431
 9143TIP3   OH248919   6.738   4.387  14.954 -0.1168 -0.0951  0.0467
 9143TIP3    H148920   6.754   4.380  14.860  1.0511  0.6860  0.1709
 9143TIP3    H248921   6.803   4.329  14.994  0.4579  0.7743  0.4206
 9144TIP3   OH248922   2.397   0.618   0.564 -0.1860 -0.2257 -0.1601
 9144TIP3    H148923   2.480   0.573   0.545 -0.9265 -1.2459 -1.1107
 9144TIP3    H248924   2.401   0.637   0.658  1.2954  0.1195 -0.2740
 9145TIP3   OH248925   3.785   1.276  11.905  0.4950 -0.2023  0.1196
 9145TIP3    H148926   3.841   1.225  11.846 -0.0158  1.1998 -1.6419
 9145TIP3    H248927   3.807   1.367  11.886 -0.1157  0.3049  1.7095
 9146TIP3   OH248928   3.532   6.034  12.650 -0.5293 -0.0584  0.3903
 9146TIP3    H148929   3.601   6.066  12.708  0.1464 -0.0331 -0.4029
 9146TIP3    H248930   3.563   5.948  12.621  0.2076  0.7981 -1.5779
 9147TIP3   OH248931   1.056   1.434  14.054 -0.3524 -0.0313  0.1201
 9147TIP3    H148932   1.014   1.419  13.969  0.2705 -0.6628 -0.0874
 9147TIP3    H248933   1.070   1.346  14.090  1.2374  0.1160 -0.0516
 9148TIP3   OH248934   6.502   4.347  16.217 -0.1041  0.0012  0.3364
 9148TIP3    H148935   6.573   4.407  16.241  1.3803 -1.5689  0.1436
 9148TIP3    H248936   6.529   4.313  16.131 -1.2469 -0.4189  0.1354
 9149TIP3   OH248937   3.455   3.750  12.643  0.2501 -0.1092 -0.0923
 9149TIP3    H148938   3.513   3.826  12.641  0.2635 -0.0288  1.5882
 9149TIP3    H248939   3.511   3.678  12.674  0.2744 -0.8831 -1.7845
 9150TIP3   OH248940   1.950   4.897   5.792  0.3545 -0.1073  0.1414
 9150TIP3    H148941   1.977   4.989   5.803  0.7716 -0.2248  0.0995
 9150TIP3    H248942   2.032   4.849   5.779  0.0471 -0.2064 -1.8581
 9151TIP3   OH248943   4.188   2.441   2.123  0.0917 -0.1766  0.6409
 9151TIP3    H148944   4.241   2.473   2.049 -0.5083  1.6233  0.9323
 9151TIP3    H248945   4.174   2.348   2.103  1.2808 -0.1242 -0.6813
 9152TIP3   OH248946   0.568   0.572   1.982  0.5635 -0.2546  0.3160
 9152TIP3    H148947   0.603   0.483   1.988 -0.3376 -0.6371  0.1223
 9152TIP3    H248948   0.593   0.602   1.895  0.4598 -0.5067  0.1979
 9153TIP3   OH248949   2.122   2.624  13.852 -0.2742  0.3026  0.1524
 9153TIP3    H148950   2.155   2.631  13.762  1.7820 -1.1621  0.7311
 9153TIP3    H248951   2.146   2.708  13.893 -1.8116  1.2482 -0.7936
 9154TIP3   OH248952   5.246   5.697   3.717 -0.0920 -0.1561 -0.1043
 9154TIP3    H148953   5.337   5.723   3.701 -0.1339 -0.0174 -0.1250
 9154TIP3    H248954   5.215   5.761   3.782 -0.4633  0.3940 -0.8067
 9155TIP3   OH248955   2.058   4.409   2.135 -0.0630  0.2227  0.1112
 9155TIP3    H148956   2.144   4.423   2.174 -0.8406 -1.1502  2.4588
 9155TIP3    H248957   2.062   4.457   2.052  2.3204  1.7045  0.9799
 9156TIP3   OH248958   5.128   1.020   3.383  0.1963  0.6833  0.2557
 9156TIP3    H148959   5.149   0.979   3.467 -0.1747 -2.7956 -1.1871
 9156TIP3    H248960   5.191   0.983   3.321 -1.0726  1.2389 -1.4536
 9157TIP3   OH248961   4.676   4.192   4.750  0.5009 -0.0071 -0.1460
 9157TIP3    H148962   4.677   4.143   4.832  0.5872  0.4882  0.1526
 9157TIP3    H248963   4.655   4.127   4.683  0.7498 -0.4752  0.2275
 9158TIP3   OH248964   3.061   5.114   6.686 -0.0988 -0.4608  0.5086
 9158TIP3    H148965   3.079   5.202   6.652  1.5888 -1.5065 -1.5600
 9158TIP3    H248966   3.009   5.129   6.765  0.1069  2.3788  0.2163
 9159TIP3   OH248967   5.449   6.058  17.151 -0.3696  0.7266 -0.0844
 9159TIP3    H148968   5.437   6.083  17.060  2.2982  0.7845 -0.5132
 9159TIP3    H248969   5.483   6.137  17.194  0.2688  0.1558  0.4864
 9160TIP3   OH248970   5.972   0.127   6.355  0.5074 -0.1954 -0.2349
 9160TIP3    H148971   6.011   0.173   6.430 -0.2815 -1.4515  0.9992
 9160TIP3    H248972   5.909   0.189   6.318 -1.1343 -0.4791  1.8916
 9161TIP3   OH248973   5.212   0.933   2.926 -0.1015  0.0044 -0.4549
 9161TIP3    H148974   5.251   0.999   2.984 -1.7512  2.3160 -1.7734
 9161TIP3    H248975   5.156   0.881   2.984  0.8699  0.0324  0.5549
 9162TIP3   OH248976   3.274   6.619  11.827  0.4107 -0.1928  0.6873
 9162TIP3    H148977   3.232   6.650  11.908  2.2123 -0.7323  1.8852
 9162TIP3    H248978   3.230   6.668  11.758 -0.6510  0.8908  2.0541
 9163TIP3   OH248979   5.180   5.609  10.725 -0.4107  0.2004  0.4832
 9163TIP3    H148980   5.091   5.590  10.695 -0.5288  0.3403  0.7322
 9163TIP3    H248981   5.202   5.692  10.683 -0.7965  0.6937  1.2062
 9164TIP3   OH248982   0.401   6.736  15.389  0.4232  0.8069  0.3874
 9164TIP3    H148983   0.384   6.829  15.410 -0.6968  0.7510 -0.1792
 9164TIP3    H248984   0.320   6.707  15.346  0.4702 -0.6385  1.2294
 9165TIP3   OH248985   1.403   5.865   3.763  0.4974 -0.4878  0.1068
 9165TIP3    H148986   1.440   5.777   3.753 -2.6108 -1.8539 -0.4391
 9165TIP3    H248987   1.374   5.869   3.854  0.5098 -0.0297  0.0951
 9166TIP3   OH248988   1.717   2.085  12.758 -0.1549  0.6968 -0.1807
 9166TIP3    H148989   1.751   2.173  12.769  1.2071  0.5797 -2.7003
 9166TIP3    H248990   1.622   2.095  12.758 -0.0421  1.9289  0.9644
 9167TIP3   OH248991   5.456   1.659  15.126 -0.7972 -0.0819 -0.6434
 9167TIP3    H148992   5.535   1.622  15.166  0.0920  2.6202  0.3641
 9167TIP3    H248993   5.384   1.619  15.175  0.1380  0.3073  1.1348
 9168TIP3   OH248994   5.317   1.179  12.740 -0.5220  0.2576 -0.1627
 9168TIP3    H148995   5.306   1.116  12.811  0.9078  0.0840 -0.0702
 9168TIP3    H248996   5.232   1.181  12.697 -1.3697  0.2261  1.4247
 9169TIP3   OH248997   2.587   0.837   2.637 -0.3749  0.5985 -0.7248
 9169TIP3    H148998   2.647   0.764   2.621  0.8052  1.1257  1.0548
 9169TIP3    H248999   2.500   0.799   2.626  0.1992 -1.1587  0.3876
 9170TIP3   OH249000   6.085   2.602   1.954 -0.3443  0.4982  0.9753
 9170TIP3    H149001   6.020   2.657   1.910 -0.4695 -0.8184 -0.5713
 9170TIP3    H249002   6.035   2.549   2.016 -0.6299  0.1697  0.4729
 9171TIP3   OH249003   0.607   6.513   2.623  0.3700 -0.7429 -0.0783
 9171TIP3    H149004   0.609   6.487   2.531 -0.9182 -1.8980  0.1944
 9171TIP3    H249005   0.630   6.434   2.671 -1.1573 -0.7837  0.6607
 9172TIP3   OH249006   2.911   6.746  15.220 -0.7288 -0.5432  0.2232
 9172TIP3    H149007   2.871   6.828  15.191  2.6023  1.9006  1.9513
 9172TIP3    H249008   2.961   6.716  15.144  0.1563  0.5487  0.3417
 9173TIP3   OH249009   5.466   5.820  16.637  0.9072 -0.4001  0.1890
 9173TIP3    H149010   5.391   5.878  16.624  0.5591 -0.9501 -0.2661
 9173TIP3    H249011   5.535   5.858  16.583 -0.1120 -1.8869 -2.3198
 9174TIP3   OH249012   0.096   2.168  10.670  0.3866  0.6400  0.1406
 9174TIP3    H149013   0.188   2.141  10.670  0.1334 -0.4319 -2.0516
 9174TIP3    H249014   0.050   2.094  10.632 -1.3925  1.2356  1.0546
 9175TIP3   OH249015   1.807   0.198   5.126  0.5445  0.0008  0.4893
 9175TIP3    H149016   1.788   0.270   5.186 -0.6170  0.5168 -0.4497
 9175TIP3    H249017   1.769   0.121   5.168  0.3009  0.2450  0.7204
 9176TIP3   OH249018   2.408   4.637   1.126  0.3365  0.0815  0.9629
 9176TIP3    H149019   2.325   4.628   1.079 -1.1590 -1.4754  3.6171
 9176TIP3    H249020   2.411   4.728   1.153 -0.9922 -0.0364  1.5777
 9177TIP3   OH249021   3.350   0.272   5.144  0.2509  0.2463  0.1066
 9177TIP3    H149022   3.408   0.294   5.216 -1.1723  1.7223  0.8512
 9177TIP3    H249023   3.363   0.342   5.080 -1.0105  0.8604  0.4889
 9178TIP3   OH249024   5.914   2.668   7.057  0.3242  0.3098  0.2212
 9178TIP3    H149025   5.987   2.613   7.030  1.9119  2.3786  0.0224
 9178TIP3    H249026   5.870   2.693   6.976  0.3872  0.3385  0.1955
 9179TIP3   OH249027   1.215   2.127  14.694  0.5307  0.3754 -0.2682
 9179TIP3    H149028   1.208   2.177  14.613  1.0532  1.4405  0.3200
 9179TIP3    H249029   1.249   2.190  14.758  3.0770 -1.1983  0.0496
 9180TIP3   OH249030   0.210   0.528   5.560  0.0206  0.2725 -0.0238
 9180TIP3    H149031   0.117   0.515   5.582  0.4666 -0.3543  1.5965
 9180TIP3    H249032   0.249   0.442   5.569  0.6950  0.4298 -1.2236
 9181TIP3   OH249033   3.873   2.415   3.725  0.0289 -0.1963 -0.3667
 9181TIP3    H149034   3.955   2.451   3.759 -1.0910  0.7914  1.5281
 9181TIP3    H249035   3.880   2.423   3.630  2.0617 -0.0296 -0.2377
 9182TIP3   OH249036   4.917   1.083   5.836  0.2946  0.0393 -0.0439
 9182TIP3    H149037   4.943   0.994   5.815  1.2190  0.1562  0.5462
 9182TIP3    H249038   4.826   1.075   5.867  0.2278 -0.6274 -0.3985
 9183TIP3   OH249039   1.472   2.154  13.098  0.0190 -0.3715 -0.4103
 9183TIP3    H149040   1.485   2.229  13.040  1.5525 -1.3270 -1.4156
 9183TIP3    H249041   1.453   2.081  13.038  0.6077 -1.1799  0.3481
 9184TIP3   OH249042   5.471   1.111   4.713 -0.1251 -0.0029  0.1630
 9184TIP3    H149043   5.412   1.131   4.786  0.0551 -1.7946  0.8462
 9184TIP3    H249044   5.541   1.060   4.753  0.5644 -0.0529 -1.0837
 9185TIP3   OH249045   3.039   1.571   5.462 -0.1806  0.4636  0.0120
 9185TIP3    H149046   2.973   1.523   5.512 -0.5226  0.9953  0.0854
 9185TIP3    H249047   3.084   1.505   5.410  0.5350 -0.1854  1.4174
 9186TIP3   OH249048   1.041   6.738   5.502  0.4001 -0.3466  0.7888
 9186TIP3    H149049   1.009   6.661   5.549 -0.4257  0.6859  1.9939
 9186TIP3    H249050   0.979   6.750   5.430  0.7126 -0.9714  0.4062
 9187TIP3   OH249051   0.672   4.036   1.039 -0.2549 -0.2394 -0.1297
 9187TIP3    H149052   0.636   3.957   1.080  0.2191 -0.2753  0.2396
 9187TIP3    H249053   0.620   4.108   1.074  0.9751 -0.1306  1.6089
 9188TIP3   OH249054   3.993   5.881   6.028 -0.0267  0.1100 -0.4364
 9188TIP3    H149055   4.053   5.859   6.100 -0.5077 -1.3051 -0.4250
 9188TIP3    H249056   3.956   5.965   6.053 -0.8294 -0.7400  1.4438
 9189TIP3   OH249057   0.041   6.563  11.581 -0.0109 -0.2108 -0.3228
 9189TIP3    H149058   0.089   6.628  11.529 -0.2973  0.4780  0.2613
 9189TIP3    H249059   0.044   6.596  11.670 -3.5234  1.1004 -0.5510
 9190TIP3   OH249060   5.498   3.809   5.475  0.3985  0.0430 -0.2157
 9190TIP3    H149061   5.549   3.866   5.533  2.7566 -1.1094 -1.0161
 9190TIP3    H249062   5.557   3.737   5.454 -2.2296 -2.4018  0.2077
 9191TIP3   OH249063   5.991   4.031   1.561 -0.2983 -0.0698 -0.0821
 9191TIP3    H149064   5.952   3.949   1.591 -1.7515  0.0978 -1.3810
 9191TIP3    H249065   6.034   4.008   1.478 -0.8772  0.4944 -0.5512
 9192TIP3   OH249066   2.760   5.233  16.001 -0.5352  0.5130  0.5201
 9192TIP3    H149067   2.684   5.269  16.047 -0.7198  1.0047 -0.1498
 9192TIP3    H249068   2.722   5.173  15.937 -0.1779 -2.0177  2.5229
 9193TIP3   OH249069   2.795   1.306   2.471  0.1086 -0.3412  0.2148
 9193TIP3    H149070   2.880   1.327   2.433  0.3741  0.3949  1.1892
 9193TIP3    H249071   2.784   1.212   2.455  0.1067 -0.0280 -1.8278
 9194TIP3   OH249072   5.170   1.652  15.230  0.1084 -0.4789 -0.0145
 9194TIP3    H149073   5.129   1.582  15.179 -1.7410 -0.4256  1.2923
 9194TIP3    H249074   5.129   1.732  15.199  0.1348 -0.2819  0.4452
 9195TIP3   OH249075   0.799   2.311  15.427  0.0017 -0.0717 -0.2713
 9195TIP3    H149076   0.746   2.233  15.411  0.8324 -0.7165  0.0620
 9195TIP3    H249077   0.887   2.285  15.400  0.3078  0.7126 -0.0286
 9196TIP3   OH249078   3.527   2.626   0.532 -0.4639  0.1784  0.2142
 9196TIP3    H149079   3.443   2.614   0.488  0.7251 -0.4959 -2.0345
 9196TIP3    H249080   3.510   2.605   0.624 -2.1969 -2.5510 -0.6210
 9197TIP3   OH249081   1.275   3.025   1.672  0.6935 -0.2586  0.5555
 9197TIP3    H149082   1.193   3.004   1.627  0.9664 -0.8367  0.3121
 9197TIP3    H249083   1.255   3.101   1.726 -0.3658 -1.1639  1.4956
 9198TIP3   OH249084   0.346   6.667  11.812  0.3245  0.1466 -0.4298
 9198TIP3    H149085   0.332   6.672  11.718 -1.0495 -2.5897 -0.4770
 9198TIP3    H249086   0.331   6.575  11.834  1.8890  0.4195  2.2907
 9199TIP3   OH249087   4.272   3.868   0.186 -0.0216  0.1718  0.4543
 9199TIP3    H149088   4.224   3.889   0.266  0.4323 -0.3139  0.8636
 9199TIP3    H249089   4.208   3.825   0.130 -0.2878  0.3104  0.6518
 9200TIP3   OH249090   5.501   6.244   6.101  0.0904  0.3801  0.2157
 9200TIP3    H149091   5.437   6.273   6.165  0.4252  2.3780 -0.2993
 9200TIP3    H249092   5.523   6.155   6.128 -0.7175  0.7101  2.1148
 9201TIP3   OH249093   6.398   0.626   4.336  0.4280 -0.0892  0.8570
 9201TIP3    H149094   6.389   0.567   4.262  0.6228 -0.5447  1.1921
 9201TIP3    H249095   6.446   0.702   4.301 -0.1308  0.0283  0.3458
 9202TIP3   OH249096   3.928   5.908   0.624 -0.9214  0.2068 -0.0073
 9202TIP3    H149097   3.905   5.988   0.671 -0.7253  0.2978 -0.0674
 9202TIP3    H249098   3.850   5.853   0.631 -0.6934 -0.0062  0.9089
 9203TIP3   OH249099   0.664   5.537   4.739  0.2569 -0.1783 -0.4294
 9203TIP3    H149100   0.594   5.575   4.686  1.0757  0.9716 -0.7089
 9203TIP3    H249101   0.630   5.540   4.829 -0.3998 -0.4507 -0.6628
 9204TIP3   OH249102   5.459   2.651  17.193 -0.0534  0.6623 -0.0371
 9204TIP3    H149103   5.410   2.632  17.273 -1.1155  0.7384 -0.6427
 9204TIP3    H249104   5.504   2.570  17.172  0.1272  0.6028  0.5673
 9205TIP3   OH249105   4.800   3.465   6.333  0.0580  0.2355  0.1579
 9205TIP3    H149106   4.814   3.537   6.395  0.3722  0.4206 -0.1207
 9205TIP3    H249107   4.718   3.425   6.360 -0.6817  1.3581 -0.3090
 9206TIP3   OH249108   5.187   0.809   3.836  0.1673 -0.1421 -0.6861
 9206TIP3    H149109   5.127   0.737   3.855  0.5501 -0.8595 -2.0608
 9206TIP3    H249110   5.274   0.771   3.844  0.3582 -0.1092 -2.3730
 9207TIP3   OH249111   2.251   4.808  17.010 -0.3003 -0.5027 -0.0356
 9207TIP3    H149112   2.268   4.831  16.919 -0.8995 -2.3595 -0.6502
 9207TIP3    H249113   2.326   4.844  17.058  1.1030 -1.3039 -1.5379
 9208TIP3   OH249114   5.917   2.887  15.372  0.0610  0.4153  0.0803
 9208TIP3    H149115   6.001   2.930  15.381  0.0871  0.6217 -1.0178
 9208TIP3    H249116   5.858   2.935  15.431  0.9409 -0.4269  1.7028
 9209TIP3   OH249117   4.154   3.294  17.211 -0.1313  0.4136 -0.0972
 9209TIP3    H149118   4.152   3.198  17.201 -0.7205  0.4793 -0.7073
 9209TIP3    H249119   4.216   3.323  17.143 -0.0576  0.4739 -0.0036
 9210TIP3   OH249120   1.151   5.178   6.370  0.1690  0.6184 -0.4701
 9210TIP3    H149121   1.201   5.155   6.448  1.9535 -0.1645 -1.7764
 9210TIP3    H249122   1.193   5.258   6.337  1.2949 -0.5864 -2.1286
 9211TIP3   OH249123   4.016   4.608   4.744 -0.0903 -0.4928 -0.0385
 9211TIP3    H149124   4.012   4.697   4.778  1.0693 -0.2923 -0.3835
 9211TIP3    H249125   3.948   4.605   4.676  0.7550  0.5692 -0.9801
 9212TIP3   OH249126   3.798   2.865  16.170  0.2388 -0.5865  0.0341
 9212TIP3    H149127   3.752   2.882  16.252 -1.0378 -1.4276 -0.4697
 9212TIP3    H249128   3.769   2.934  16.111 -1.7679 -2.0230 -0.7818
 9213TIP3   OH249129   0.861   1.028  13.846 -0.4539 -0.2673  0.1323
 9213TIP3    H149130   0.821   0.946  13.816 -0.2617 -0.7931  1.2472
 9213TIP3    H249131   0.864   1.020  13.942 -0.5343  1.0995  0.2717
 9214TIP3   OH249132   3.947   5.523  10.986 -0.2585 -0.2341  0.3382
 9214TIP3    H149133   4.008   5.486  10.922 -2.2941 -0.0154 -1.8875
 9214TIP3    H249134   3.981   5.610  11.005 -0.1900  0.1613 -1.4242
 9215TIP3   OH249135   6.520   2.180   5.180 -0.7770 -0.0758  0.6260
 9215TIP3    H149136   6.534   2.270   5.150  0.0445 -0.6019 -0.6558
 9215TIP3    H249137   6.576   2.127   5.124 -0.1410 -1.2673  2.2889
 9216TIP3   OH249138   5.705   1.820   0.355 -0.0118  0.0769 -0.3367
 9216TIP3    H149139   5.779   1.851   0.303 -0.0857  0.4676 -0.2090
 9216TIP3    H249140   5.741   1.808   0.443 -0.0724  0.1543 -0.3013
 9217TIP3   OH249141   4.639   5.136   0.307 -0.0179 -0.8429 -0.1692
 9217TIP3    H149142   4.617   5.136   0.400 -1.9307 -0.5864 -0.5681
 9217TIP3    H249143   4.732   5.117   0.304 -0.0210 -1.3738  1.7711
 9218TIP3   OH249144   3.522   6.772   4.278  0.7950 -0.6261  0.1046
 9218TIP3    H149145   3.461   6.698   4.287 -2.9091  2.2071  0.5942
 9218TIP3    H249146   3.560   6.783   4.365 -1.0001 -0.1898  0.8814
 9219TIP3   OH249147   0.305   4.259   4.179 -0.1085 -0.1292 -0.2517
 9219TIP3    H149148   0.395   4.229   4.168  1.6748  3.8259  1.7602
 9219TIP3    H249149   0.265   4.246   4.093  2.2944 -1.9725 -1.2146
 9220TIP3   OH249150   2.136   6.018  16.622 -0.4766  0.6475 -0.4165
 9220TIP3    H149151   2.069   5.956  16.650 -0.7594  1.4578  0.7629
 9220TIP3    H249152   2.096   6.065  16.549 -0.3180 -0.4131 -1.2148
 9221TIP3   OH249153   4.514   2.518   1.006 -0.5454 -0.0062  0.0281
 9221TIP3    H149154   4.584   2.455   0.990  1.1813  1.7981 -0.0428
 9221TIP3    H249155   4.472   2.531   0.921 -0.1151 -0.1892 -0.2131
 9222TIP3   OH249156   6.177   4.316  15.387  0.2777 -0.7016 -0.1930
 9222TIP3    H149157   6.170   4.364  15.470 -1.0855  0.2078 -0.7996
 9222TIP3    H249158   6.094   4.270  15.379 -0.1800  0.3115 -1.6913
 9223TIP3   OH249159   1.990   3.791   2.081 -0.6646 -0.0399 -0.3786
 9223TIP3    H149160   1.920   3.728   2.099 -0.3785 -0.4496 -0.7177
 9223TIP3    H249161   2.026   3.811   2.168  0.0798 -1.2976 -0.3736
 9224TIP3   OH249162   1.011   4.881  15.459  0.0399  0.1637  0.2890
 9224TIP3    H149163   0.948   4.895  15.388 -0.0823 -2.5160 -0.2184
 9224TIP3    H249164   1.090   4.927  15.430  0.0232 -0.9199 -1.6705
 9225TIP3   OH249165   0.591   6.413  14.314 -0.4614  0.0035  0.4430
 9225TIP3    H149166   0.591   6.441  14.223  0.3538  0.1958  0.4932
 9225TIP3    H249167   0.680   6.431  14.345 -0.6449 -0.3226  1.1943
 9226TIP3   OH249168   2.228   6.624   2.966 -0.2199  0.1126 -0.4537
 9226TIP3    H149169   2.211   6.707   3.009  1.1774 -1.3383  3.2586
 9226TIP3    H249170   2.317   6.633   2.931  0.2659 -0.0773  0.7068
 9227TIP3   OH249171   5.496   0.635   0.673 -0.9817 -0.4637 -0.0756
 9227TIP3    H149172   5.547   0.717   0.675 -2.1607  0.3022 -0.1801
 9227TIP3    H249173   5.421   0.656   0.618 -1.1365 -1.7406 -0.3708
 9228TIP3   OH249174   3.228   2.826   3.314  0.0935  0.4157  0.0641
 9228TIP3    H149175   3.248   2.739   3.348  1.4729  0.8478  0.4167
 9228TIP3    H249176   3.135   2.838   3.332 -0.4214 -1.4334 -1.0352
 9229TIP3   OH249177   5.803   5.289  16.231 -0.4196  0.3557 -0.6718
 9229TIP3    H149178   5.713   5.267  16.256 -0.4120  0.5384 -0.4837
 9229TIP3    H249179   5.849   5.206  16.231  0.0895  0.5727  1.9185
 9230TIP3   OH249180   0.279   6.496   0.613  0.1250 -0.3869 -0.0550
 9230TIP3    H149181   0.199   6.527   0.570  0.3119  0.4645  0.1782
 9230TIP3    H249182   0.271   6.401   0.615 -1.4758 -0.2694  1.0924
 9231TIP3   OH249183   0.975   1.616   3.993  0.4633  0.0023 -0.2847
 9231TIP3    H149184   1.018   1.689   3.949 -0.5575  0.1828 -1.0175
 9231TIP3    H249185   1.011   1.538   3.950 -0.0594  0.1587 -1.0349
 9232TIP3   OH249186   2.375   0.644   4.539  0.5672 -0.1422  0.3565
 9232TIP3    H149187   2.282   0.630   4.519  0.9724 -1.9392 -0.4124
 9232TIP3    H249188   2.375   0.674   4.630 -0.9426  3.0452 -0.5372
 9233TIP3   OH249189   4.351   2.590  16.998  0.5433  0.3809 -0.4453
 9233TIP3    H149190   4.303   2.570  17.079 -0.5544  0.9039 -0.9354
 9233TIP3    H249191   4.398   2.509  16.977  1.4451  0.4640  1.0982
 9234TIP3   OH249192   3.843   2.344   1.292  0.2045  0.1051  0.7960
 9234TIP3    H149193   3.776   2.400   1.251  0.8286  0.6454  0.4983
 9234TIP3    H249194   3.855   2.382   1.379  0.6851  0.4850  0.5654
 9235TIP3   OH249195   4.293   4.288   2.984  0.1677  0.4034  0.3644
 9235TIP3    H149196   4.366   4.326   3.034  0.5097  1.0032 -0.5628
 9235TIP3    H249197   4.325   4.202   2.958  0.6926  0.8101 -0.3485
 9236TIP3   OH249198   5.808   3.630   0.621 -0.1241 -0.0129  0.2649
 9236TIP3    H149199   5.767   3.710   0.652 -0.1670  0.6869 -1.4863
 9236TIP3    H249200   5.742   3.587   0.567  0.6856  0.0080 -0.7773
 9237TIP3   OH249201   1.479   4.278   1.264 -0.1071  0.2977 -0.3165
 9237TIP3    H149202   1.544   4.325   1.316 -0.8512 -0.4664  1.3753
 9237TIP3    H249203   1.532   4.224   1.204  0.7713  1.1366 -0.3219
 9238TIP3   OH249204   3.072   5.689  16.837  0.2603  0.0318 -0.0771
 9238TIP3    H149205   3.085   5.624  16.906  0.4718  0.3853  0.2192
 9238TIP3    H249206   3.101   5.645  16.757 -0.0680 -0.4104  0.0416
 9239TIP3   OH249207   6.264   1.829  11.430  0.2179  0.1567  0.2152
 9239TIP3    H149208   6.320   1.760  11.395  2.1283  0.1672  2.9602
 9239TIP3    H249209   6.180   1.786  11.446  0.5096 -0.7942 -0.7343
 9240TIP3   OH249210   6.767   0.235  12.187  0.1940 -0.2155  0.3221
 9240TIP3    H149211   6.751   0.323  12.153 -0.2760 -0.2207  0.5237
 9240TIP3    H249212   6.862   0.226  12.187  0.2068 -0.7536 -2.3578
 9241TIP3   OH249213   4.614   2.690   1.483 -0.0127 -0.3484  0.8245
 9241TIP3    H149214   4.556   2.759   1.451  0.1967  0.1732  1.5452
 9241TIP3    H249215   4.555   2.622   1.513 -0.2484 -0.0303  1.0940
 9242TIP3   OH249216   5.880   6.474   5.892 -0.7300  0.4630 -0.0757
 9242TIP3    H149217   5.879   6.540   5.962 -0.3533 -0.9437  1.3112
 9242TIP3    H249218   5.887   6.391   5.938 -1.8348 -0.6108 -1.7654
 9243TIP3   OH249219   5.988   0.238   2.161 -0.0295 -0.2587 -0.1010
 9243TIP3    H149220   5.967   0.246   2.254 -0.5811  0.0326 -0.2457
 9243TIP3    H249221   5.913   0.192   2.124  0.6288 -1.2569 -0.2395
 9244TIP3   OH249222   3.569   1.561   1.363  0.1626 -0.3063  0.2228
 9244TIP3    H149223   3.525   1.584   1.281 -0.9003  0.4187  0.9645
 9244TIP3    H249224   3.645   1.509   1.336 -1.1060 -1.5636 -1.1364
 9245TIP3   OH249225   5.587   1.085  16.939 -0.2330  0.2596  0.2469
 9245TIP3    H149226   5.622   1.110  16.853 -1.5626  1.1357 -0.0591
 9245TIP3    H249227   5.634   1.142  17.000  0.3419 -0.0030  0.0622
 9246TIP3   OH249228   2.538   5.601  14.436 -0.0169 -0.2476 -0.0752
 9246TIP3    H149229   2.447   5.601  14.407  0.0667 -0.1376 -0.3381
 9246TIP3    H249230   2.546   5.520  14.487 -0.6047  0.3799  1.0452
 9247TIP3   OH249231   2.292   1.246   0.881 -0.6275  0.4657 -0.6362
 9247TIP3    H149232   2.329   1.276   0.963 -0.4254 -1.6123  0.0946
 9247TIP3    H249233   2.338   1.295   0.813  0.9119  0.5035  0.4048
 9248TIP3   OH249234   4.665   0.994   5.952 -0.2750  0.2419 -0.0037
 9248TIP3    H149235   4.596   1.054   5.923 -0.0927  0.6527  0.4073
 9248TIP3    H249236   4.696   1.030   6.035  2.2692  1.5852 -1.4130
 9249TIP3   OH249237   5.287   0.178   5.651  0.5341 -0.2828  0.0311
 9249TIP3    H149238   5.258   0.112   5.715 -1.3854 -0.7991 -1.2899
 9249TIP3    H249239   5.311   0.127   5.574  0.8559  0.4589 -0.3624
 9250TIP3   OH249240   1.716   3.163   3.645  0.0935  0.2388  0.3161
 9250TIP3    H149241   1.697   3.257   3.636  1.3914  0.5100  0.1671
 9250TIP3    H249242   1.795   3.150   3.593  0.8792 -0.6127  1.6615
 9251TIP3   OH249243   3.580   2.131  10.558  0.0092 -0.6691 -0.2647
 9251TIP3    H149244   3.574   2.055  10.501 -0.0059 -0.9002  0.0423
 9251TIP3    H249245   3.584   2.094  10.647 -2.4370 -0.2853  0.0830
 9252TIP3   OH249246   5.048   6.675  14.948 -0.7724  0.1204 -0.5649
 9252TIP3    H149247   5.098   6.605  14.990  0.3382  0.9460 -0.4922
 9252TIP3    H249248   4.987   6.704  15.016 -1.6979 -1.1828 -0.7920
 9253TIP3   OH249249   1.073   1.118  16.542  0.6008  0.3790  0.6678
 9253TIP3    H149250   0.999   1.090  16.597 -1.7056  1.5895 -1.6137
 9253TIP3    H249251   1.065   1.213  16.538 -0.8633  0.2842 -3.4899
 9254TIP3   OH249252   0.631   2.855  14.429  0.3051 -0.3453 -0.0848
 9254TIP3    H149253   0.610   2.800  14.504 -0.9156 -2.3505 -1.7766
 9254TIP3    H249254   0.662   2.937  14.467  1.3192 -1.8365  2.5795
 9255TIP3   OH249255   3.578   2.409   2.763  0.5295 -0.0816  0.6446
 9255TIP3    H149256   3.611   2.450   2.683  1.2115  0.5844  1.2502
 9255TIP3    H249257   3.501   2.461   2.786  0.1731 -0.4410  0.2826
 9256TIP3   OH249258   4.494   4.123   3.202  0.1741  0.2393 -0.6877
 9256TIP3    H149259   4.496   4.219   3.204  0.1124  0.2466  1.5310
 9256TIP3    H249260   4.404   4.100   3.225  0.8942 -0.2856  1.9828
 9257TIP3   OH249261   1.335   1.870   2.673  0.1208  0.8505  0.1124
 9257TIP3    H149262   1.399   1.850   2.604  0.8458  0.6317  0.8330
 9257TIP3    H249263   1.362   1.815   2.747 -0.3335  1.4700  0.7478
 9258TIP3   OH249264   5.502   3.502  12.385 -0.3007  0.4059 -0.0833
 9258TIP3    H149265   5.426   3.452  12.356  0.2960 -0.1609 -0.6865
 9258TIP3    H249266   5.500   3.496  12.481 -0.9776  0.3440 -0.1011
 9259TIP3   OH249267   4.559   1.119  14.192 -0.2497  0.2966  0.2011
 9259TIP3    H149268   4.579   1.205  14.229  0.4870  0.5496 -0.7392
 9259TIP3    H249269   4.463   1.113  14.197 -0.3300  1.2518  0.1095
 9260TIP3   OH249270   1.332   0.449   0.881 -0.3337 -0.3362  0.2314
 9260TIP3    H149271   1.358   0.382   0.818  1.8242 -0.3731  1.0662
 9260TIP3    H249272   1.247   0.480   0.849  0.0045 -1.3571 -1.8606
 9261TIP3   OH249273   6.638   3.091  12.268  0.1158  0.2320 -0.0312
 9261TIP3    H149274   6.709   3.063  12.326 -0.0522 -1.1180 -0.4302
 9261TIP3    H249275   6.679   3.153  12.208  1.5552 -2.0799 -1.6177
 9262TIP3   OH249276   5.938   0.591   1.466 -0.1739 -0.0014 -0.2193
 9262TIP3    H149277   6.011   0.563   1.520  0.8667  0.1809 -1.4620
 9262TIP3    H249278   5.958   0.556   1.379 -1.6313 -0.0330 -0.5750
 9263TIP3   OH249279   0.466   0.119   1.940 -0.6301 -0.4104  0.1830
 9263TIP3    H149280   0.527   0.055   1.977  0.3458 -0.5143 -1.5394
 9263TIP3    H249281   0.429   0.076   1.863 -1.1017  0.5517 -0.1439
 9264TIP3   OH249282   1.156   1.591  15.771  0.5086  0.1678  0.1574
 9264TIP3    H149283   1.132   1.537  15.696  0.5817 -0.3359  0.4857
 9264TIP3    H249284   1.092   1.567  15.839  1.0601 -0.1364  0.5783
 9265TIP3   OH249285   6.662   1.464  16.358 -0.3549 -0.1899  0.2577
 9265TIP3    H149286   6.569   1.447  16.375 -0.7738  1.6523  0.0878
 9265TIP3    H249287   6.706   1.443  16.440 -0.7964 -1.7992  0.1026
 9266TIP3   OH249288   0.810   4.118   2.365 -0.1434 -0.3680  0.6177
 9266TIP3    H149289   0.784   4.094   2.454  2.6117 -1.0439  1.3266
 9266TIP3    H249290   0.828   4.034   2.322  1.1782  0.0364  0.3350
 9267TIP3   OH249291   0.711   4.530  15.262  0.2874 -0.3497  0.1761
 9267TIP3    H149292   0.741   4.609  15.307 -2.0662  1.1621 -0.7447
 9267TIP3    H249293   0.616   4.533  15.270 -0.0304 -1.6272 -2.2572
 9268TIP3   OH249294   5.996   6.392  16.670 -0.6334  0.4515  0.0772
 9268TIP3    H149295   6.043   6.315  16.638 -1.1008 -0.4402  1.4110
 9268TIP3    H249296   6.003   6.386  16.765 -1.4304  1.5913  0.2285
 9269TIP3   OH249297   4.052   2.663   6.219 -0.0254  0.0866 -0.0477
 9269TIP3    H149298   4.113   2.733   6.242  1.8106 -1.4466  0.0544
 9269TIP3    H249299   3.976   2.678   6.275  1.2504  0.7375  1.6144
 9270TIP3   OH249300   6.539   2.377  15.075  0.7651 -0.0954 -0.1321
 9270TIP3    H149301   6.497   2.354  15.158 -0.9870 -0.8827 -1.1865
 9270TIP3    H249302   6.600   2.447  15.098 -1.3160  1.3061  1.4774
 9271TIP3   OH249303   4.870   3.485  16.044 -0.3235  1.3811  0.2096
 9271TIP3    H149304   4.809   3.465  16.115 -1.7776  1.2977 -1.0119
 9271TIP3    H249305   4.901   3.399  16.014  0.9193  1.4460  1.2328
 9272TIP3   OH249306   3.644   3.400  13.903 -0.4390 -0.2280 -0.0699
 9272TIP3    H149307   3.569   3.459  13.912  0.1698  0.9818 -2.1290
 9272TIP3    H249308   3.720   3.456  13.921  0.0684 -0.8623 -0.2144
 9273TIP3   OH249309   2.902   0.786   2.469 -0.3764 -0.0202  0.1950
 9273TIP3    H149310   2.858   0.703   2.454  1.2933 -0.6308 -1.7376
 9273TIP3    H249311   2.977   0.785   2.411 -0.1502  2.7599  0.2741
 9274TIP3   OH249312   0.229   0.192   5.319 -0.6420 -0.2950  0.1494
 9274TIP3    H149313   0.147   0.234   5.293 -1.0107 -1.7087 -1.0918
 9274TIP3    H249314   0.243   0.221   5.409 -2.1431  0.5071  0.1570
 9275TIP3   OH249315   0.186   1.176   3.867 -0.1911 -0.4888 -0.0863
 9275TIP3    H149316   0.231   1.259   3.885 -1.6765  0.2863  0.1850
 9275TIP3    H249317   0.093   1.199   3.864 -0.4951 -1.7525 -2.2739
 9276TIP3   OH249318   4.088   2.696   4.966 -0.7475  0.0019  0.6274
 9276TIP3    H149319   4.002   2.738   4.970 -1.2321 -1.0761  2.1737
 9276TIP3    H249320   4.075   2.610   5.004  0.9106 -0.4092  0.3535
 9277TIP3   OH249321   0.582   5.927   4.170 -0.4277  0.1364 -0.0746
 9277TIP3    H149322   0.499   5.890   4.140  0.1322  0.5026 -2.2825
 9277TIP3    H249323   0.558   6.006   4.217 -1.3580  0.0633 -0.4107
 9278TIP3   OH249324   5.223   3.183   0.208 -0.2290 -0.6179 -1.0347
 9278TIP3    H149325   5.153   3.132   0.249  0.6324  0.5860  2.2484
 9278TIP3    H249326   5.294   3.120   0.193 -0.2250 -0.9669  0.3140
 9279TIP3   OH249327   3.213   2.564   3.389  0.0726 -0.3327  0.4537
 9279TIP3    H149328   3.120   2.568   3.368 -0.0943  0.5774  1.3066
 9279TIP3    H249329   3.219   2.504   3.463  0.7311 -4.0445 -2.2475
 9280TIP3   OH249330   6.266   2.556   3.916  0.1277  0.4323 -0.0638
 9280TIP3    H149331   6.276   2.602   3.832 -0.3816  0.5235 -0.0743
 9280TIP3    H249332   6.180   2.516   3.911 -0.1633  0.9483  0.6652
 9281TIP3   OH249333   3.349   4.388   0.645  0.1827  0.0506 -0.4915
 9281TIP3    H149334   3.354   4.318   0.580 -2.0642 -1.8929  1.2547
 9281TIP3    H249335   3.259   4.422   0.638  0.8265  1.9018 -0.4041
 9282TIP3   OH249336   0.226   0.035   3.010 -0.0028 -0.2178 -0.4181
 9282TIP3    H149337   0.191   0.051   2.922  0.2072  0.0397 -0.4565
 9282TIP3    H249338   0.163   0.077   3.069  1.0679  1.6980 -0.5664
 9283TIP3   OH249339   3.863   3.938   2.721  0.2026 -0.0175  0.3527
 9283TIP3    H149340   3.924   3.873   2.688 -0.9387 -0.9962  0.1202
 9283TIP3    H249341   3.887   3.950   2.813 -0.3635 -1.7498  0.7662
 9284TIP3   OH249342   1.048   5.891   2.894 -0.1076  0.0790  0.3049
 9284TIP3    H149343   1.138   5.876   2.924  0.1264 -0.4145 -0.6081
 9284TIP3    H249344   1.013   5.803   2.879 -0.4709  0.2903 -0.1047
 9285TIP3   OH249345   0.198   1.657  16.468 -0.1142  0.3972 -0.4043
 9285TIP3    H149346   0.152   1.581  16.504 -0.1287  0.5686 -0.0550
 9285TIP3    H249347   0.272   1.620  16.420 -2.0496 -0.1020 -3.3095
 9286TIP3   OH249348   3.706   5.425  15.658 -0.0913  0.3121  0.0954
 9286TIP3    H149349   3.619   5.458  15.681 -0.5697 -1.3127  0.7796
 9286TIP3    H249350   3.736   5.381  15.737  0.7882 -0.2970 -0.5634
 9287TIP3   OH249351   1.476   6.301   0.523  0.1579  0.1123  0.0055
 9287TIP3    H149352   1.565   6.335   0.536  0.8512 -1.1796 -1.1372
 9287TIP3    H249353   1.450   6.333   0.437 -1.1936  1.8781  1.0061
 9288TIP3   OH249354   6.643   2.636   4.533  0.2824 -0.2488  0.3361
 9288TIP3    H149355   6.732   2.663   4.555 -0.1128  1.7553 -0.2642
 9288TIP3    H249356   6.588   2.706   4.570 -0.7627  0.3996 -2.2451
 9289TIP3   OH249357   3.372   1.426   0.266  0.5237 -0.1240 -0.4575
 9289TIP3    H149358   3.385   1.497   0.330  1.1623  0.2882 -1.0322
 9289TIP3    H249359   3.340   1.353   0.318 -3.1066  1.4442 -0.2103
 9290TIP3   OH249360   0.588   5.123  13.294 -0.3669  0.2237 -0.0792
 9290TIP3    H149361   0.586   5.188  13.223 -1.5533  0.8911  0.5184
 9290TIP3    H249362   0.640   5.051  13.260 -0.8795  0.5382 -1.6279
 9291TIP3   OH249363   3.684   4.751   2.925  0.4095 -0.3741 -0.0251
 9291TIP3    H149364   3.627   4.827   2.914  2.6312  1.2958 -0.8949
 9291TIP3    H249365   3.675   4.702   2.843  0.5062  0.1209 -0.3383
 9292TIP3   OH249366   3.662   0.543   2.816 -0.4805  0.6736 -0.6436
 9292TIP3    H149367   3.618   0.487   2.881 -0.4563  0.9567 -0.3799
 9292TIP3    H249368   3.676   0.486   2.741 -1.6078  0.6710 -0.8706
 9293TIP3   OH249369   6.549   5.616   6.758 -0.2855  0.3258 -0.0202
 9293TIP3    H149370   6.570   5.565   6.680 -1.2881  0.9372 -0.7207
 9293TIP3    H249371   6.634   5.643   6.793  0.1742  0.7343 -1.3897
 9294TIP3   OH249372   6.642   5.388  15.745  0.7222  0.3211 -0.8626
 9294TIP3    H149373   6.560   5.365  15.703 -0.4997 -0.0218  1.5247
 9294TIP3    H249374   6.685   5.304  15.762  0.2557  0.2945  0.2865
 9295TIP3   OH249375   5.015   5.368  15.655  0.0879 -0.0022  0.1457
 9295TIP3    H149376   5.103   5.405  15.659  0.2141 -0.1569 -0.8932
 9295TIP3    H249377   4.977   5.387  15.741  0.4883  1.6696 -0.0239
 9296TIP3   OH249378   4.544   3.751   2.619 -0.4172 -0.2667  0.0089
 9296TIP3    H149379   4.493   3.721   2.694 -0.8975 -0.8055 -0.5276
 9296TIP3    H249380   4.629   3.776   2.656 -1.0789  0.7251  0.9287
 9297TIP3   OH249381   3.482   2.628   2.152 -0.1973 -0.0390  0.1425
 9297TIP3    H149382   3.491   2.723   2.147 -0.2456 -0.0516 -0.1868
 9297TIP3    H249383   3.569   2.595   2.131 -0.4237 -0.0933 -0.7585
 9298TIP3   OH249384   4.284   5.834  16.160  0.4588  0.4931 -0.5044
 9298TIP3    H149385   4.371   5.869  16.142  0.7060  0.7144  1.0009
 9298TIP3    H249386   4.224   5.905  16.136  0.7972  0.9755  0.0707
 9299TIP3   OH249387   5.126   1.388   4.061  0.4141  0.4703  0.0886
 9299TIP3    H149388   5.090   1.368   4.147  2.3493  0.0487  0.8503
 9299TIP3    H249389   5.196   1.451   4.079 -0.6381  2.2068 -1.4607
 9300TIP3   OH249390   2.055   5.421  11.213  0.1376 -0.1232  0.0721
 9300TIP3    H149391   2.057   5.497  11.156  0.0649  0.0702  0.3267
 9300TIP3    H249392   1.962   5.407  11.232 -0.1197 -1.8172 -2.0191
 9301TIP3   OH249393   1.841   5.946   3.284 -0.2312 -0.7704 -0.3781
 9301TIP3    H149394   1.829   6.025   3.230 -1.5939 -1.3705 -0.9939
 9301TIP3    H249395   1.763   5.942   3.338  0.5402 -0.8927  0.7645
 9302TIP3   OH249396   1.499   3.412   4.447 -0.8696 -0.3756 -0.4646
 9302TIP3    H149397   1.422   3.441   4.495 -1.2368 -1.4390 -0.3736
 9302TIP3    H249398   1.544   3.352   4.507  0.6710  1.1023 -0.0833
 9303TIP3   OH249399   3.440   0.004  11.480  0.3104 -0.1287  0.0279
 9303TIP3    H149400   3.460   0.074  11.542 -0.1678 -0.2873  0.3741
 9303TIP3    H249401   3.514  -0.057  11.487  1.1848  0.7949 -0.9657
 9304TIP3   OH249402   1.103   4.624   0.362  0.2675  0.2740 -0.1542
 9304TIP3    H149403   1.111   4.673   0.280  1.0123  1.7128  0.7316
 9304TIP3    H249404   1.128   4.687   0.430 -0.8761 -0.7091  1.2354
 9305TIP3   OH249405   3.198   3.926   0.020  0.1538 -0.5535  0.2749
 9305TIP3    H149406   3.104   3.929   0.003 -0.2615 -2.5318  1.8406
 9305TIP3    H249407   3.215   4.004   0.073 -0.9506 -0.9792  1.3017
 9306TIP3   OH249408   6.013   3.215   6.465  0.3190 -0.1322 -0.2421
 9306TIP3    H149409   5.923   3.243   6.482 -0.0839 -0.7870 -1.2236
 9306TIP3    H249410   6.036   3.159   6.539 -0.2390 -0.3337 -0.2199
 9307TIP3   OH249411   2.715   0.153  13.910  0.2445  0.0632  0.1092
 9307TIP3    H149412   2.735   0.092  13.982  1.1069 -0.6426 -0.7112
 9307TIP3    H249413   2.619   0.154  13.907  0.2008 -1.5725 -0.1020
 9308TIP3   OH249414   2.812   4.355  12.043  0.3395  0.1110 -0.2276
 9308TIP3    H149415   2.901   4.374  12.072 -0.7252  3.2236  1.4490
 9308TIP3    H249416   2.814   4.370  11.949  1.5549  0.3083 -0.1909
 9309TIP3   OH249417   5.625   5.797   0.248  0.4050 -0.3427  0.1741
 9309TIP3    H149418   5.635   5.885   0.213  0.6646 -0.3331  0.2690
 9309TIP3    H249419   5.598   5.744   0.173 -0.7940  0.0141  0.3421
 9310TIP3   OH249420   5.710   2.396   0.129  0.4879 -0.3273  0.0690
 9310TIP3    H149421   5.765   2.396   0.051 -0.8275 -1.0977 -0.9025
 9310TIP3    H249422   5.699   2.489   0.151  1.9138 -0.1572  0.1178
 9311TIP3   OH249423   0.147   6.327  15.665  0.0463 -0.4527  0.7110
 9311TIP3    H149424   0.220   6.275  15.700 -0.0856 -2.7455 -2.0559
 9311TIP3    H249425   0.189   6.388  15.604 -0.2199 -0.8793  0.0957
 9312TIP3   OH249426   1.884   0.890   5.233 -0.4532  0.7595  0.7314
 9312TIP3    H149427   1.803   0.940   5.216 -0.5322  0.3100 -0.3471
 9312TIP3    H249428   1.935   0.901   5.152 -0.3226 -0.5934  0.6136
 9313TIP3   OH249429   3.726   0.850  15.478  0.5214 -0.0009  0.7497
 9313TIP3    H149430   3.753   0.928  15.431  1.0288 -0.3212  0.5018
 9313TIP3    H249431   3.732   0.780  15.413 -1.7147  0.0287  0.4119
 9314TIP3   OH249432   0.940   0.149   0.556  0.3144 -0.0818 -0.0701
 9314TIP3    H149433   0.857   0.138   0.510 -0.0427  0.4516  0.4277
 9314TIP3    H249434   1.007   0.146   0.488 -0.0958 -0.7825 -0.4429
 9315TIP3   OH249435   2.866   2.399  12.868  0.3581  0.0029 -0.1681
 9315TIP3    H149436   2.793   2.450  12.835 -0.0379  0.1138  0.8514
 9315TIP3    H249437   2.907   2.454  12.935  0.9934 -0.3128 -0.2814
 9316TIP3   OH249438   1.646   0.828  15.671  0.5982 -0.4460  0.9489
 9316TIP3    H149439   1.568   0.851  15.721  0.9949  1.0406  0.9283
 9316TIP3    H249440   1.653   0.733  15.680 -0.9473 -0.5554  1.3242
 9317TIP3   OH249441   3.258   4.145   6.406  0.0515 -0.4498 -0.3660
 9317TIP3    H149442   3.280   4.214   6.469  2.1734  0.9853 -2.5108
 9317TIP3    H249443   3.183   4.180   6.358  0.8232  0.2078 -1.1292
 9318TIP3   OH249444   0.554   3.127   0.012 -0.9284 -0.0133  0.4308
 9318TIP3    H149445   0.592   3.214   0.023 -2.2203  0.3828  1.9613
 9318TIP3    H249446   0.544   3.118  -0.083 -0.6399  1.4323  0.2404
 9319TIP3   OH249447   4.830   6.654  16.420 -0.1667 -0.9820 -0.6514
 9319TIP3    H149448   4.839   6.746  16.397 -4.9393 -0.4460 -1.4516
 9319TIP3    H249449   4.826   6.608  16.337  0.5808 -1.6969 -0.3011
 9320TIP3   OH249450   2.354   3.340  16.514 -0.2124 -0.0740 -0.3294
 9320TIP3    H149451   2.397   3.326  16.430 -1.0737 -0.4562 -0.7212
 9320TIP3    H249452   2.267   3.300  16.503 -0.6754  0.6929  0.4186
 9321TIP3   OH249453   5.518   1.301   5.909  0.5731  0.3659  0.4188
 9321TIP3    H149454   5.530   1.271   5.999 -2.6859 -2.1875  0.2190
 9321TIP3    H249455   5.530   1.222   5.856  0.1724  1.3080 -1.1229
 9322TIP3   OH249456   4.400   0.142   5.590  0.3695 -0.2332 -0.4320
 9322TIP3    H149457   4.378   0.210   5.526 -0.0636  0.8460  0.8082
 9322TIP3    H249458   4.317   0.098   5.607  0.5886 -0.8771 -0.9957
 9323TIP3   OH249459   2.150   4.675  14.635  0.4832 -0.8991 -0.1255
 9323TIP3    H149460   2.168   4.721  14.552 -1.2842 -1.9697 -1.1527
 9323TIP3    H249461   2.137   4.745  14.699  0.6467 -0.0293 -1.0198
 9324TIP3   OH249462   2.061   3.037   2.430  0.1024 -0.1504 -0.0347
 9324TIP3    H149463   2.120   3.105   2.396  0.4747 -0.2038  0.4933
 9324TIP3    H249464   1.978   3.082   2.442  0.4128  0.2908  0.5502
 9325TIP3   OH249465   5.775   0.711   4.831 -0.3175 -0.1682  0.8182
 9325TIP3    H149466   5.868   0.689   4.831 -0.5551 -1.3092  2.4008
 9325TIP3    H249467   5.732   0.634   4.866 -2.1344 -0.5362 -1.8955
 9326TIP3   OH249468   0.142   1.368  15.907  0.8591 -0.5471 -0.3449
 9326TIP3    H149469   0.084   1.417  15.965  1.9008  0.6945 -0.3066
 9326TIP3    H249470   0.148   1.281  15.947  0.9265  0.0333  0.9602
 9327TIP3   OH249471   5.007   2.311  14.020 -0.5376  0.3056  0.6862
 9327TIP3    H149472   4.970   2.295  13.933 -1.7982  0.4828  1.1757
 9327TIP3    H249473   5.014   2.224  14.059  0.6211  0.1575  0.1985
 9328TIP3   OH249474   0.740   5.564  14.181 -0.3140 -0.9073 -0.4037
 9328TIP3    H149475   0.798   5.488  14.185  2.4100  1.0539  1.9018
 9328TIP3    H249476   0.788   5.628  14.128 -1.4170 -0.0078 -0.3597
 9329TIP3   OH249477   4.154   5.353   5.100 -0.0492  0.1288  0.4465
 9329TIP3    H149478   4.103   5.345   5.019  2.1122  2.7886 -1.3170
 9329TIP3    H249479   4.112   5.425   5.148  0.8729  1.0467 -0.1059
 9330TIP3   OH249480   6.552   2.767  16.477  0.1091 -0.8095  0.0413
 9330TIP3    H149481   6.600   2.694  16.516 -0.2412 -1.3065 -0.4416
 9330TIP3    H249482   6.617   2.813  16.425  0.2794 -0.9089  0.1628
 9331TIP3   OH249483   0.046   4.074   5.116  0.1751  0.1664  0.4106
 9331TIP3    H149484   0.009   4.049   5.201  0.2135  0.9554  0.6696
 9331TIP3    H249485   0.086   3.994   5.083 -3.6238 -1.4143 -0.9107
 9332TIP3   OH249486   1.933   1.753   2.566 -0.4365 -0.3039  0.2243
 9332TIP3    H149487   1.887   1.713   2.640  0.7307 -1.2095  0.4891
 9332TIP3    H249488   2.023   1.764   2.597  0.1606 -1.0024 -1.1615
 9333TIP3   OH249489   6.222   1.316   4.671  0.1737  0.0872  0.2266
 9333TIP3    H149490   6.195   1.283   4.586 -0.4517 -0.2806  0.5595
 9333TIP3    H249491   6.146   1.364   4.704  1.1574  2.2082 -0.3899
 9334TIP3   OH249492   5.705   0.884  12.896 -0.0885  0.0302  0.1910
 9334TIP3    H149493   5.649   0.945  12.848 -0.7435 -0.1565  0.6949
 9334TIP3    H249494   5.701   0.915  12.987  1.5849  0.7194  0.0683
 9335TIP3   OH249495   4.992   6.342  16.405 -0.1606 -0.1577  0.6461
 9335TIP3    H149496   5.060   6.357  16.470  0.4479  3.7157 -0.6444
 9335TIP3    H249497   5.039   6.345  16.321 -1.6524  0.9316 -0.1944
 9336TIP3   OH249498   5.769   1.038  12.403  0.2554 -0.5002  0.1021
 9336TIP3    H149499   5.861   1.061  12.415  0.0966 -0.1951  0.8087
 9336TIP3    H249500   5.723   1.122  12.399  0.0114 -0.6488 -0.3276
 9337TIP3   OH249501   3.160   5.011   2.581  0.6125 -0.6418  0.1852
 9337TIP3    H149502   3.093   5.079   2.589  0.6186 -0.6333  0.1654
 9337TIP3    H249503   3.222   5.045   2.516 -0.7242 -1.7425 -1.7756
 9338TIP3   OH249504   1.674   6.601  10.789 -0.2275  0.4358 -0.9223
 9338TIP3    H149505   1.712   6.603  10.877 -0.2816  2.9645 -0.8894
 9338TIP3    H249506   1.714   6.524  10.748  0.5431 -0.2413  0.9784
 9339TIP3   OH249507   4.015   3.965  16.264  0.1681  0.0862 -0.2046
 9339TIP3    H149508   4.107   3.941  16.280  0.6233  1.6137 -0.3388
 9339TIP3    H249509   3.980   3.986  16.350 -0.0860 -0.5397 -0.1481
 9340TIP3   OH249510   3.387   5.497  11.446  0.8307  0.4069 -0.1461
 9340TIP3    H149511   3.338   5.475  11.525 -0.2662 -0.1653 -0.9619
 9340TIP3    H249512   3.349   5.579  11.416 -0.3758 -0.5529 -1.3470
 9341TIP3   OH249513   6.588   5.604   4.332 -0.3473 -0.0890 -0.2635
 9341TIP3    H149514   6.516   5.566   4.381  0.3536 -0.6419  0.3585
 9341TIP3    H249515   6.565   5.696   4.322 -0.3835  0.0980  1.3477
 9342TIP3   OH249516   6.730   2.924  14.838 -0.2028 -0.0370  0.0080
 9342TIP3    H149517   6.826   2.924  14.841 -0.1448  0.6670 -1.1947
 9342TIP3    H249518   6.708   2.974  14.759 -1.5633 -0.2732  0.2056
 9343TIP3   OH249519   3.226   4.349   6.591  0.2443  0.0661 -0.5971
 9343TIP3    H149520   3.263   4.432   6.560 -2.5534  2.0013  0.7171
 9343TIP3    H249521   3.136   4.372   6.616  0.2296 -2.7032  2.6155
 9344TIP3   OH249522   1.015   4.573  11.705 -0.5384  0.1367  0.0390
 9344TIP3    H149523   0.983   4.639  11.644  0.9729  1.0179  0.1564
 9344TIP3    H249524   1.108   4.562  11.683 -0.4568 -1.0437  0.8396
 9345TIP3   OH249525   6.222   0.095  16.945  0.6609 -0.2047  0.0366
 9345TIP3    H149526   6.154   0.058  17.002  0.6549  0.2933  0.3642
 9345TIP3    H249527   6.182   0.098  16.858 -0.8451  2.6775  0.6807
 9346TIP3   OH249528   5.413   6.001  16.252 -0.1028  0.1124  0.0657
 9346TIP3    H149529   5.433   6.054  16.175  0.9042  0.1182  0.3145
 9346TIP3    H249530   5.343   6.048  16.297 -0.7758  0.0537 -0.8863
 9347TIP3   OH249531   5.125   1.120  10.615  0.4846 -0.1976 -0.3232
 9347TIP3    H149532   5.064   1.096  10.684  1.0321 -4.4832 -1.0825
 9347TIP3    H249533   5.069   1.155  10.545 -0.9711 -2.2405 -0.2654
 9348TIP3   OH249534   0.175   4.472  14.039 -0.0551 -0.1329 -0.6858
 9348TIP3    H149535   0.126   4.499  14.116  0.5675  0.1829 -0.3884
 9348TIP3    H249536   0.128   4.396  14.005 -0.0080 -0.6271  0.3351
 9349TIP3   OH249537   2.087   5.176  13.428  0.2530 -0.3706 -0.1939
 9349TIP3    H149538   2.141   5.186  13.350  0.8063  1.3159  0.3667
 9349TIP3    H249539   2.094   5.083  13.450  0.8345 -0.6844 -1.6100
 9350TIP3   OH249540   4.138   2.168  17.011 -0.0567  0.1351  0.4679
 9350TIP3    H149541   4.232   2.182  16.997  0.0009  1.0787  1.7192
 9350TIP3    H249542   4.098   2.194  16.928  0.7092  0.6970  0.2591
 9351TIP3   OH249543   3.986   0.423  12.631  0.0102 -0.0459  0.6023
 9351TIP3    H149544   3.948   0.480  12.699  0.5762  0.2732  0.6575
 9351TIP3    H249545   4.079   0.420  12.652 -0.3340 -3.1490  2.1866
 9352TIP3   OH249546   4.684   5.972   3.139  0.6383  0.3079 -0.0017
 9352TIP3    H149547   4.736   5.899   3.105  1.5641  1.0722 -0.2969
 9352TIP3    H249548   4.699   5.971   3.233 -0.7360 -0.9052  0.2439
 9353TIP3   OH249549   6.753   1.942   3.439  0.2248 -0.1968 -0.3486
 9353TIP3    H149550   6.804   1.944   3.520  1.1949  0.5613 -0.9401
 9353TIP3    H249551   6.801   1.882   3.382  0.0162 -0.0886 -0.6411
 9354TIP3   OH249552   0.614   6.298  11.562 -0.2954  0.7480 -0.2017
 9354TIP3    H149553   0.588   6.208  11.542  0.4948  0.7751 -1.4668
 9354TIP3    H249554   0.710   6.294  11.569 -0.3724  1.1126  1.8573
 9355TIP3   OH249555   2.857   6.680   3.432  0.0041  0.2181  0.4484
 9355TIP3    H149556   2.814   6.710   3.511  0.5250 -1.0837  1.2576
 9355TIP3    H249557   2.939   6.642   3.462  1.0240  1.2308 -0.9028
 9356TIP3   OH249558   1.399   5.081   4.708  0.2418 -0.3168 -0.1833
 9356TIP3    H149559   1.426   5.113   4.622 -0.5557  0.9747  0.0125
 9356TIP3    H249560   1.361   4.995   4.691 -2.9165  1.2190 -1.6789
 9357TIP3   OH249561   4.862   6.105  14.892 -0.4313  0.2299  0.0892
 9357TIP3    H149562   4.769   6.099  14.868 -0.3098  1.1192 -0.6483
 9357TIP3    H249563   4.887   6.014  14.911 -1.4381 -0.0304  0.2938
 9358TIP3   OH249564   4.649   5.423  11.774 -0.9603 -0.3857  0.7821
 9358TIP3    H149565   4.694   5.442  11.856  1.2780 -0.5399 -0.3507
 9358TIP3    H249566   4.679   5.490  11.714 -0.0176 -2.1145 -0.7712
 9359TIP3   OH249567   5.555   3.084  12.435  0.5495  0.1766  0.2641
 9359TIP3    H149568   5.514   3.073  12.349 -1.9146  1.5940  1.1599
 9359TIP3    H249569   5.610   3.163  12.425 -0.7979  1.1496  0.3140
 9360TIP3   OH249570   4.356   3.085  16.206 -0.2376 -0.0563  1.0210
 9360TIP3    H149571   4.363   3.004  16.156 -0.9771 -0.3046  1.2984
 9360TIP3    H249572   4.265   3.113  16.193  0.4843  1.7670 -0.6434
 9361TIP3   OH249573   0.176   3.493  15.757 -0.1647  0.5015 -0.0745
 9361TIP3    H149574   0.129   3.571  15.728  0.2174  0.7987  0.0983
 9361TIP3    H249575   0.107   3.434  15.790 -0.5716  0.2899 -1.2590
 9362TIP3   OH249576   2.944   4.767   5.652 -1.0992 -0.1972 -0.4003
 9362TIP3    H149577   3.010   4.836   5.662 -0.2415 -0.9120 -0.9758
 9362TIP3    H249578   2.898   4.766   5.737 -0.1026  0.0409  0.1605
 9363TIP3   OH249579   2.443   5.817  15.067 -0.3389 -0.4504 -1.2919
 9363TIP3    H149580   2.468   5.806  15.159 -0.6086  0.3486 -1.1139
 9363TIP3    H249581   2.359   5.861  15.071 -0.5305 -0.7621 -1.9243
 9364TIP3   OH249582   6.289   1.835   5.272  0.0813 -0.1644  0.1086
 9364TIP3    H149583   6.216   1.776   5.289 -0.3790 -0.1017 -1.5498
 9364TIP3    H249584   6.264   1.917   5.315 -0.4899 -0.3512  0.1391
 9365TIP3   OH249585   5.827   3.543   3.431  0.3068  0.4341  0.5770
 9365TIP3    H149586   5.874   3.579   3.356  0.5307 -2.0303 -0.5922
 9365TIP3    H249587   5.886   3.555   3.505  2.1426 -1.0447 -0.5391
 9366TIP3   OH249588   2.568   0.784  14.959 -0.1442  0.2229 -0.3255
 9366TIP3    H149589   2.659   0.784  14.932 -0.3929 -0.1540 -1.1892
 9366TIP3    H249590   2.551   0.875  14.986 -0.2241  0.9883 -2.6852
 9367TIP3   OH249591   0.504   6.437  16.343 -0.0290 -0.1361 -0.0543
 9367TIP3    H149592   0.561   6.513  16.330 -1.2614  0.7081 -0.6936
 9367TIP3    H249593   0.540   6.394  16.421 -0.7982  2.5815  1.9750
 9368TIP3   OH249594   2.040   3.085   5.522  0.0377  0.2743  0.3685
 9368TIP3    H149595   2.082   3.102   5.606  0.7150  0.1421  0.0635
 9368TIP3    H249596   2.097   3.021   5.479 -0.8002 -0.3666  0.1919
 9369TIP3   OH249597   1.192   3.834  11.950 -0.4282 -0.2512 -0.3305
 9369TIP3    H149598   1.224   3.922  11.972  0.4881 -0.8557  0.8963
 9369TIP3    H249599   1.262   3.794  11.899 -0.1356 -0.8063  0.4762
 9370TIP3   OH249600   3.237   6.613  12.659 -0.1879 -0.3147  0.1097
 9370TIP3    H149601   3.144   6.598  12.680  0.1424 -0.5450  1.4914
 9370TIP3    H249602   3.284   6.590  12.739  1.0981 -0.4197 -0.6465
 9371TIP3   OH249603   6.082   2.197  17.033  0.0438 -0.3737 -0.5084
 9371TIP3    H149604   6.039   2.283  17.038 -0.0825 -0.4761  0.2738
 9371TIP3    H249605   6.164   2.209  17.081 -0.9181 -1.2462  1.4462
 9372TIP3   OH249606   4.847   5.519  11.329 -0.3951  0.3851  0.2023
 9372TIP3    H149607   4.868   5.440  11.379 -0.8922  0.7995  1.0950
 9372TIP3    H249608   4.779   5.491  11.268 -0.2834  0.0297  0.2370
 9373TIP3   OH249609   4.094   2.470  16.439 -0.4472 -0.9064  0.3873
 9373TIP3    H149610   4.157   2.535  16.469 -0.3971 -1.7446  2.2003
 9373TIP3    H249611   4.032   2.519  16.385  0.8994  0.1916 -0.2331
 9374TIP3   OH249612   3.652   5.366  10.932  0.3702 -0.3873  0.2866
 9374TIP3    H149613   3.603   5.381  11.013 -0.6919 -0.5200 -0.3005
 9374TIP3    H249614   3.727   5.424  10.937  0.0791 -0.0758  1.1681
 9375TIP3   OH249615   5.236   0.997   2.634 -0.7721  0.2016  0.4071
 9375TIP3    H149616   5.265   1.078   2.591 -0.4400 -0.0174  0.2110
 9375TIP3    H249617   5.247   1.014   2.727  2.8826 -0.8953  0.3149
 9376TIP3   OH249618   5.819   5.604   2.915  0.1637 -0.1605  0.3702
 9376TIP3    H149619   5.748   5.548   2.947 -0.0571  1.5077  3.1064
 9376TIP3    H249620   5.864   5.634   2.994  1.8369  1.4963 -1.1072
 9377TIP3   OH249621   2.308   2.043   2.208 -0.1436 -0.0792 -0.4483
 9377TIP3    H149622   2.288   2.097   2.132 -0.1604  1.2494  0.4610
 9377TIP3    H249623   2.223   2.010   2.238  0.0003 -1.9275 -1.8930
 9378TIP3   OH249624   6.123   5.408  13.019 -0.3895  0.1050 -0.2269
 9378TIP3    H149625   6.045   5.386  13.069 -0.7808 -0.3694 -1.0358
 9378TIP3    H249626   6.175   5.328  13.017  0.4250  0.5777  0.8193
 9379TIP3   OH249627   4.126   3.390  15.633  0.0687 -0.2311 -0.0483
 9379TIP3    H149628   4.154   3.423  15.718  0.6247 -0.3101 -0.1995
 9379TIP3    H249629   4.058   3.451  15.604 -1.4841 -1.2267  1.2906
 9380TIP3   OH249630   4.476   0.465   1.910  0.2661 -0.3601 -0.1836
 9380TIP3    H149631   4.425   0.470   1.991 -0.6240 -1.2507 -0.6693
 9380TIP3    H249632   4.468   0.553   1.872  2.6257  0.8183  1.7771
 9381TIP3   OH249633   1.796   6.100   1.443 -0.7040 -0.0155 -0.2765
 9381TIP3    H149634   1.819   6.178   1.393  1.5228 -0.0801  0.5271
 9381TIP3    H249635   1.871   6.041   1.431 -2.2673 -1.9975 -0.7464
 9382TIP3   OH249636   6.629   3.423  15.499  0.0631  0.2178  0.0070
 9382TIP3    H149637   6.693   3.368  15.455 -0.3721 -0.3849  0.1144
 9382TIP3    H249638   6.639   3.509  15.459  1.4597  0.3321  0.5502
 9383TIP3   OH249639   2.710   0.218  11.910 -0.5476  0.3759 -0.6741
 9383TIP3    H149640   2.678   0.292  11.858  0.2049  1.3123  0.1489
 9383TIP3    H249641   2.802   0.239  11.926 -0.6750 -0.0760  0.7043
 9384TIP3   OH249642   2.935   5.873   0.631  0.4462  0.2561  0.2965
 9384TIP3    H149643   2.878   5.947   0.611  0.2439  0.2033  0.6728
 9384TIP3    H249644   2.957   5.836   0.545  0.2726  0.5434  0.1262
 9385TIP3   OH249645   1.863   2.896   5.037 -0.0728 -0.4147  0.1296
 9385TIP3    H149646   1.860   2.937   4.951  1.6139  1.5812  0.9504
 9385TIP3    H249647   1.835   2.805   5.021  0.9211 -0.3300 -2.6437
 9386TIP3   OH249648   0.790   6.317  13.826 -0.0349 -0.4074  0.8838
 9386TIP3    H149649   0.771   6.223  13.824  1.7574 -0.7960 -0.8894
 9386TIP3    H249650   0.763   6.349  13.739  0.8256  0.3810  0.8857
 9387TIP3   OH249651   5.550   3.571  15.379 -0.4381 -0.0214  0.1446
 9387TIP3    H149652   5.587   3.658  15.365  0.9773 -0.2525  1.9861
 9387TIP3    H249653   5.560   3.557  15.474  1.4688 -3.0635 -0.3751
 9388TIP3   OH249654   2.405   6.775   2.628  0.1486  0.5279  0.4248
 9388TIP3    H149655   2.484   6.755   2.677  1.0690 -2.3478 -1.9090
 9388TIP3    H249656   2.435   6.787   2.537 -2.0152 -0.9171 -0.5747
 9389TIP3   OH249657   0.875   1.380  12.233 -0.0329 -0.1926  0.1419
 9389TIP3    H149658   0.852   1.360  12.324  0.1625  0.3644  0.3134
 9389TIP3    H249659   0.907   1.296  12.198  0.7599 -0.2065  0.8529
 9390TIP3   OH249660   4.973   1.197  16.810  0.1472 -0.2538  0.1597
 9390TIP3    H149661   4.963   1.291  16.794  1.6807 -0.2213 -0.7871
 9390TIP3    H249662   5.015   1.190  16.896  0.3712 -0.0581  0.0646
 9391TIP3   OH249663   0.656   5.680  10.990 -0.5520  0.3535 -0.6950
 9391TIP3    H149664   0.719   5.701  10.921 -0.6222  2.3756 -0.2145
 9391TIP3    H249665   0.638   5.765  11.032 -0.7792 -0.7430  1.5794
 9392TIP3   OH249666   3.611   4.620   5.927  0.4502 -0.1157  0.3223
 9392TIP3    H149667   3.567   4.702   5.950  0.6914  0.6799 -1.8494
 9392TIP3    H249668   3.682   4.646   5.869  0.5726 -1.8536 -0.3674
 9393TIP3   OH249669   6.511   5.324  16.779  0.0163  0.3824  0.3183
 9393TIP3    H149670   6.605   5.318  16.794 -0.3335 -0.7034  2.3430
 9393TIP3    H249671   6.502   5.396  16.717  2.2161  0.0436 -0.4812
 9394TIP3   OH249672   1.531   6.249   5.641  0.2510  0.3462 -0.2078
 9394TIP3    H149673   1.564   6.329   5.683 -0.7544  0.4722  0.3688
 9394TIP3    H249674   1.579   6.244   5.558  1.3190  0.8075  0.3524
 9395TIP3   OH249675   5.480   4.178   5.880  0.0135  0.3739  0.4738
 9395TIP3    H149676   5.411   4.113   5.895  1.0254 -1.0496 -0.7193
 9395TIP3    H249677   5.548   4.157   5.944  0.2996  0.3248  0.1577
 9396TIP3   OH249678   6.550   5.462   7.049  0.2666 -0.2389 -0.4533
 9396TIP3    H149679   6.621   5.461   6.985  0.4063 -0.5959 -0.2962
 9396TIP3    H249680   6.507   5.377   7.038 -1.0905  0.5526 -1.5986
 9397TIP3   OH249681   1.983   5.187   0.330 -0.6042 -0.3202  0.6807
 9397TIP3    H149682   1.944   5.272   0.352 -0.0054  0.2105 -0.2200
 9397TIP3    H249683   2.031   5.204   0.249 -0.2627 -1.4670  0.6349
 9398TIP3   OH249684   2.026   2.909  13.778  0.2279 -0.5281  0.7518
 9398TIP3    H149685   2.065   2.942  13.860  1.3469  0.1884 -0.0425
 9398TIP3    H249686   2.101   2.893  13.721 -0.6308  0.9402 -0.8580
 9399TIP3   OH249687   1.153   3.451   3.917 -0.1257  0.0818  0.5270
 9399TIP3    H149688   1.200   3.534   3.920 -0.4093  0.2577  0.1933
 9399TIP3    H249689   1.131   3.433   4.009 -1.2200  1.0574  0.4772
 9400TIP3   OH249690   0.731   5.793   0.579 -0.0293  0.0204 -0.4211
 9400TIP3    H149691   0.738   5.737   0.656  0.3003  0.6304  0.0086
 9400TIP3    H249692   0.701   5.736   0.509  0.2193 -0.6644  0.0274
 9401TIP3   OH249693   4.067   5.946   1.890  0.0008  0.1983 -0.0229
 9401TIP3    H149694   4.080   6.014   1.824 -1.3475  0.3610 -0.1409
 9401TIP3    H249695   4.154   5.933   1.929  0.1632  2.4676  0.4847
 9402TIP3   OH249696   3.125   3.834   3.444  0.4357 -0.4466 -0.0712
 9402TIP3    H149697   3.073   3.817   3.366 -0.4462  0.1945  0.3579
 9402TIP3    H249698   3.145   3.927   3.440  0.1247 -0.3429  0.6039
 9403TIP3   OH249699   3.135   0.694   1.717  0.9231 -0.0773 -0.1977
 9403TIP3    H149700   3.224   0.660   1.705  1.1165  0.2207  0.3639
 9403TIP3    H249701   3.148   0.789   1.726  1.0063 -0.3324  4.0585
 9404TIP3   OH249702   6.651   1.603  17.004 -0.1374 -0.2138  0.1587
 9404TIP3    H149703   6.643   1.683  17.057  0.0121  0.7806 -1.2458
 9404TIP3    H249704   6.710   1.628  16.933  0.1597 -1.6916 -0.1350
 9405TIP3   OH249705   1.328   0.295  12.164  0.1418  0.5725  0.0633
 9405TIP3    H149706   1.353   0.216  12.212 -0.9738 -0.0135 -0.2904
 9405TIP3    H249707   1.349   0.275  12.073 -1.1191  0.2588 -0.1705
 9406TIP3   OH249708   6.688   0.859  12.763 -0.7333 -0.7496  0.2062
 9406TIP3    H149709   6.697   0.953  12.779 -1.7739 -0.4871 -0.6357
 9406TIP3    H249710   6.747   0.841  12.690 -0.2486 -0.8236  0.6181
 9407TIP3   OH249711   1.194   2.710   1.744  0.2448  0.0469 -0.0440
 9407TIP3    H149712   1.217   2.622   1.714  0.8893  0.1418  0.1584
 9407TIP3    H249713   1.277   2.757   1.746  0.1176  0.2504  1.1847
 9408TIP3   OH249714   4.921   1.076   0.777 -0.0947 -0.1439  0.2490
 9408TIP3    H149715   4.835   1.081   0.820 -1.1404 -0.8938 -1.6270
 9408TIP3    H249716   4.923   0.990   0.736  1.0965  0.2919 -0.6714
 9409TIP3   OH249717   3.158   5.673   5.422  0.3334 -0.2952 -0.1003
 9409TIP3    H149718   3.232   5.659   5.363  0.5908  1.2646 -0.1782
 9409TIP3    H249719   3.085   5.628   5.380  0.7894 -0.2413 -0.9777
 9410TIP3   OH249720   4.782   2.979   4.923  0.1648  1.2489 -0.3273
 9410TIP3    H149721   4.718   2.946   4.859  0.4298  1.5442 -0.7542
 9410TIP3    H249722   4.810   3.063   4.887  0.7019  1.1791 -0.0824
 9411TIP3   OH249723   6.552   3.415  10.845  0.2613 -0.0025  0.5441
 9411TIP3    H149724   6.459   3.394  10.852  0.2817 -0.6361 -0.8476
 9411TIP3    H249725   6.596   3.331  10.847  0.7146  0.2167 -0.0475
 9412TIP3   OH249726   5.473   5.882   3.278 -0.0454  0.1569 -0.2933
 9412TIP3    H149727   5.454   5.949   3.212 -0.1292 -0.2232 -0.6695
 9412TIP3    H249728   5.391   5.873   3.327  0.2136  0.8928  0.2862
 9413TIP3   OH249729   0.208   0.827   4.588 -0.4319 -0.0896  0.2569
 9413TIP3    H149730   0.211   0.742   4.631  0.9567 -0.3016 -0.2220
 9413TIP3    H249731   0.120   0.860   4.607 -1.3340 -2.0226 -0.3223
 9414TIP3   OH249732   3.021   1.856   6.419  0.0975  0.2836  0.1549
 9414TIP3    H149733   3.017   1.919   6.491  0.8308 -0.8424  1.2190
 9414TIP3    H249734   2.972   1.780   6.450  0.0021 -0.0388 -0.7391
 9415TIP3   OH249735   5.291   6.234  16.401  0.4051 -0.0709 -0.0136
 9415TIP3    H149736   5.289   6.267  16.311  3.2064  0.1818 -0.0605
 9415TIP3    H249737   5.266   6.309  16.455 -0.4987 -0.0060 -0.4935
 9416TIP3   OH249738   5.952   1.302  10.914  0.0810 -0.4884  0.8191
 9416TIP3    H149739   5.987   1.215  10.897  0.5024 -0.0464 -0.6473
 9416TIP3    H249740   6.009   1.362  10.867 -0.7496  0.5133  1.0351
 9417TIP3   OH249741   5.221   6.129   0.403  0.3008  0.5362 -0.2115
 9417TIP3    H149742   5.223   6.042   0.445 -1.4959 -0.8718 -2.7785
 9417TIP3    H249743   5.292   6.125   0.339 -0.1817  0.6954 -0.7624
 9418TIP3   OH249744   6.471   1.804   1.475  0.4094 -0.4225 -0.0353
 9418TIP3    H149745   6.429   1.845   1.399 -1.1117 -2.6187 -0.4666
 9418TIP3    H249746   6.559   1.782   1.445  0.1560 -0.3620 -0.8429
 9419TIP3   OH249747   5.519   6.066  12.673 -0.6461  0.1428 -0.1350
 9419TIP3    H149748   5.456   6.032  12.610  0.2895 -0.8328 -0.5788
 9419TIP3    H249749   5.566   6.135  12.624 -0.0732 -0.4602 -0.4563
 9420TIP3   OH249750   2.910   3.104   5.374  0.2296  0.1686  0.1263
 9420TIP3    H149751   2.871   3.019   5.392  0.0197  0.0098 -0.9895
 9420TIP3    H249752   2.879   3.126   5.286  2.5114  0.1318 -0.7395
 9421TIP3   OH249753   3.573   1.172   0.857  0.0402  1.2090  0.2217
 9421TIP3    H149754   3.626   1.252   0.856 -0.1079  1.3007 -0.5296
 9421TIP3    H249755   3.487   1.200   0.889 -0.4450  1.6434 -1.3695
 9422TIP3   OH249756   6.218   4.630  13.520 -0.6559  0.1252 -0.8766
 9422TIP3    H149757   6.135   4.592  13.492  0.8539 -1.3599 -3.7482
 9422TIP3    H249758   6.246   4.573  13.592 -0.5884 -1.5320 -2.1412
 9423TIP3   OH249759   6.026   4.112   0.890  0.2393  0.1738  0.0300
 9423TIP3    H149760   6.056   4.163   0.815 -2.4750  1.2022 -0.5056
 9423TIP3    H249761   5.962   4.169   0.933  0.6831 -0.9496  2.3319
 9424TIP3   OH249762   3.560   2.088   4.553  0.6699  0.2177 -0.1637
 9424TIP3    H149763   3.483   2.134   4.520  1.2364  0.8112 -0.7161
 9424TIP3    H249764   3.575   2.018   4.489 -0.5313 -1.1307  0.9899
 9425TIP3   OH249765   2.637   0.189   1.203  0.3730  0.3940 -0.7035
 9425TIP3    H149766   2.726   0.164   1.227  0.2718  1.3733  0.8208
 9425TIP3    H249767   2.609   0.249   1.273 -1.9018 -0.7855 -0.5011
 9426TIP3   OH249768   2.403   1.099  12.365  0.6606  0.2916 -0.0982
 9426TIP3    H149769   2.351   1.084  12.286 -0.7194  1.2307  0.5793
 9426TIP3    H249770   2.364   1.177  12.405  1.5752  0.0792  1.3020
 9427TIP3   OH249771   6.742   5.617  15.294 -0.1710 -0.1642  0.0253
 9427TIP3    H149772   6.824   5.579  15.261 -1.2454 -1.5694 -1.1595
 9427TIP3    H249773   6.763   5.644  15.384  2.0618  1.1840 -0.8270
 9428TIP3   OH249774   4.474   6.345  12.515  0.3134 -0.0583  0.2384
 9428TIP3    H149775   4.469   6.253  12.543 -1.1936 -0.5814 -1.5933
 9428TIP3    H249776   4.390   6.383  12.542  0.2950  0.3677 -0.4096
 9429TIP3   OH249777   3.439   1.942   4.762 -0.4529  0.5453  0.3814
 9429TIP3    H149778   3.365   1.929   4.702  0.4070 -2.1190 -0.2650
 9429TIP3    H249779   3.511   1.969   4.706  0.4063 -2.1453  0.0355
 9430TIP3   OH249780   1.551   1.065   5.467  0.1279  0.5817  0.0151
 9430TIP3    H149781   1.551   1.160   5.454 -1.4459  0.5691 -0.3029
 9430TIP3    H249782   1.475   1.049   5.522 -1.2718 -0.7215 -2.1377
 9431TIP3   OH249783   5.060   3.593  12.022  0.2774 -0.0482 -0.4151
 9431TIP3    H149784   5.032   3.676  11.982  1.6049  0.2815 -0.7208
 9431TIP3    H249785   4.991   3.531  11.999 -1.4466  1.2399  0.9413
 9432TIP3   OH249786   2.337   6.356   2.522  0.6773  0.3914  0.3147
 9432TIP3    H149787   2.285   6.299   2.465  2.4587 -2.3970  1.2518
 9432TIP3    H249788   2.278   6.381   2.592 -0.3897  0.4010 -0.5620
 9433TIP3   OH249789   4.642   0.114  13.404 -0.1432  0.4743  0.2042
 9433TIP3    H149790   4.662   0.191  13.352 -1.9789 -0.4589 -2.0469
 9433TIP3    H249791   4.583   0.146  13.472  0.7556  1.3719  0.5931
 9434TIP3   OH249792   5.622   4.873  13.734  0.3863  0.1156  0.0508
 9434TIP3    H149793   5.574   4.923  13.800  1.4601  0.6326  0.4661
 9434TIP3    H249794   5.666   4.939  13.681 -1.6248 -0.1999 -2.1797
 9435TIP3   OH249795   5.738   4.333  12.167 -0.0587  0.3755  0.2339
 9435TIP3    H149796   5.765   4.255  12.216  3.6816  0.4605 -1.3589
 9435TIP3    H249797   5.704   4.298  12.085  0.0570  0.3676  0.1885
 9436TIP3   OH249798   6.668   1.731  11.675 -0.3211 -0.4128  0.1283
 9436TIP3    H149799   6.702   1.708  11.589  1.8592  0.9706  0.5203
 9436TIP3    H249800   6.615   1.809  11.660  1.0411  0.5548  0.1272
 9437TIP3   OH249801   1.314   3.691  15.814 -0.4475 -0.1593 -0.3453
 9437TIP3    H149802   1.282   3.781  15.823 -1.5180 -0.5733 -0.0010
 9437TIP3    H249803   1.266   3.641  15.879 -0.5520 -1.1637 -1.1718
 9438TIP3   OH249804   6.164   2.584  11.123 -0.6666 -0.1667 -0.3963
 9438TIP3    H149805   6.193   2.657  11.070 -0.5387 -0.5449 -0.8507
 9438TIP3    H249806   6.080   2.558  11.085 -1.3302  0.5291  0.5309
 9439TIP3   OH249807   6.218   0.818  16.746 -0.0346  0.3803  0.4601
 9439TIP3    H149808   6.294   0.762  16.760  0.2100  0.5839 -0.0123
 9439TIP3    H249809   6.143   0.761  16.759  0.2002 -0.4936 -1.6142
 9440TIP3   OH249810   1.828   4.668   1.629  0.5757  0.1050  0.1355
 9440TIP3    H149811   1.779   4.743   1.664  0.8499  0.1565  0.4069
 9440TIP3    H249812   1.780   4.644   1.549  0.3108  0.3778  0.2099
 9441TIP3   OH249813   4.331   3.619  13.926 -0.6192 -0.1369  0.2945
 9441TIP3    H149814   4.413   3.658  13.954  0.5676 -1.6861 -0.8330
 9441TIP3    H249815   4.277   3.617  14.004  0.0682  1.6809  0.8717
 9442TIP3   OH249816   0.875   5.274  15.253  0.0270  0.2160  0.2402
 9442TIP3    H149817   0.966   5.247  15.249 -0.4127 -1.2367 -0.7618
 9442TIP3    H249818   0.864   5.310  15.341  1.7871  1.3374  0.0412
 9443TIP3   OH249819   3.915   2.588  12.035  0.5365 -0.2128  0.1297
 9443TIP3    H149820   3.912   2.543  12.120 -0.9466 -0.1122  0.1489
 9443TIP3    H249821   3.908   2.517  11.971 -0.4293 -0.1265  0.1346
 9444TIP3   OH249822   1.748   6.675  13.793 -0.5303 -0.0454  0.4867
 9444TIP3    H149823   1.677   6.738  13.806 -0.0217  0.5216  0.5614
 9444TIP3    H249824   1.827   6.727  13.796 -0.1225 -0.6249  0.0463
 9445TIP3   OH249825   5.805   6.670  11.173  0.0293  0.3373  0.8505
 9445TIP3    H149826   5.793   6.615  11.250  1.5330  0.6774  1.3775
 9445TIP3    H249827   5.855   6.746  11.205 -0.5268  1.1784 -0.1850
 9446TIP3   OH249828   2.446   4.542   2.542 -0.4017  0.1391 -0.0320
 9446TIP3    H149829   2.439   4.619   2.485 -3.6182 -1.0078 -1.4200
 9446TIP3    H249830   2.357   4.506   2.544  0.3040 -1.7539  3.1673
 9447TIP3   OH249831   1.330   5.877   3.483  0.6663  0.3179  0.3271
 9447TIP3    H149832   1.362   5.876   3.573  0.4177  2.2252  0.4975
 9447TIP3    H249833   1.242   5.914   3.490 -1.0907 -3.3614 -0.2929
 9448TIP3   OH249834   0.682   0.526  16.225 -0.0561 -0.2279  0.1980
 9448TIP3    H149835   0.700   0.578  16.304 -1.2603  1.3698 -0.5036
 9448TIP3    H249836   0.589   0.502  16.234 -0.0827 -0.4029 -0.5264
 9449TIP3   OH249837   6.482   4.378   5.612 -0.0055 -0.0437  0.2941
 9449TIP3    H149838   6.402   4.429   5.616 -0.0810 -0.1238 -0.1168
 9449TIP3    H249839   6.552   4.443   5.611 -0.1475  0.1951 -2.3430
 9450TIP3   OH249840   0.206   0.301   4.189  0.3578  0.4229  0.6332
 9450TIP3    H149841   0.249   0.216   4.196 -0.9856 -0.7427 -2.8260
 9450TIP3    H249842   0.129   0.294   4.246  1.7255  0.4608  2.5510
 9451TIP3   OH249843   5.805   5.049   1.607 -0.3059  0.0731 -0.1059
 9451TIP3    H149844   5.765   5.065   1.692  1.6231  1.4867  0.6183
 9451TIP3    H249845   5.787   5.128   1.556 -1.1148 -0.6051 -0.9150
 9452TIP3   OH249846   0.888   5.236  12.450 -0.3572 -0.1517 -0.1402
 9452TIP3    H149847   0.817   5.275  12.400  1.1010  0.3784 -1.9243
 9452TIP3    H249848   0.945   5.309  12.473 -0.6378 -0.4764  1.8154
 9453TIP3   OH249849   4.054   5.501   2.642 -0.3129  0.2668  0.2773
 9453TIP3    H149850   3.979   5.441   2.648 -0.0701 -0.1594 -0.7024
 9453TIP3    H249851   4.129   5.444   2.628  0.2427  0.6792  1.4888
 9454TIP3   OH249852   2.166   1.881   4.270  0.6258  0.3949  0.2854
 9454TIP3    H149853   2.261   1.867   4.265  0.7600  0.7128  1.5612
 9454TIP3    H249854   2.145   1.872   4.363 -1.0705 -2.4549 -0.2666
 9455TIP3   OH249855   5.183   6.508  12.471 -0.4839 -0.6607 -0.0150
 9455TIP3    H149856   5.143   6.507  12.384  0.4220  1.7524 -0.5540
 9455TIP3    H249857   5.275   6.484  12.455 -0.0903  0.6825  0.0824
 9456TIP3   OH249858   6.582   4.624   4.202  0.8213 -0.2798 -0.0049
 9456TIP3    H149859   6.627   4.569   4.265  2.2573 -0.4679 -1.1265
 9456TIP3    H249860   6.527   4.564   4.151  2.2231 -0.7160 -1.0877
 9457TIP3   OH249861   1.962   2.625   0.368  0.2580 -0.2285 -0.0389
 9457TIP3    H149862   1.974   2.562   0.297 -1.4357 -1.2106  0.5068
 9457TIP3    H249863   1.904   2.581   0.430  1.8953  0.4927  2.1230
 9458TIP3   OH249864   6.610   5.672  11.997 -0.0565 -0.2535  0.5146
 9458TIP3    H149865   6.693   5.625  12.008  1.1351  1.7528  0.7918
 9458TIP3    H249866   6.582   5.691  12.087 -2.3537 -3.2308  0.5851
 9459TIP3   OH249867   4.165   2.697  11.253  0.5140 -0.4665  0.5756
 9459TIP3    H149868   4.113   2.674  11.330  0.3259 -1.1238  0.2625
 9459TIP3    H249869   4.100   2.725  11.188  0.5109 -1.5656  0.0867
 9460TIP3   OH249870   1.899   2.304   5.393  0.0475  0.8988 -0.5576
 9460TIP3    H149871   1.897   2.235   5.327 -1.8607 -1.1172  1.4256
 9460TIP3    H249872   1.915   2.384   5.344  0.9028 -0.7378 -3.1562
 9461TIP3   OH249873   3.889   4.625   3.603 -0.4544 -0.5952 -0.0787
 9461TIP3    H149874   3.960   4.675   3.565  0.4777 -1.5945  0.2873
 9461TIP3    H249875   3.813   4.646   3.549  0.1069  0.4885 -0.4764
 9462TIP3   OH249876   6.334   3.637  10.576  0.4781  0.2613  0.2608
 9462TIP3    H149877   6.279   3.563  10.550  0.1996  0.7185 -0.4747
 9462TIP3    H249878   6.334   3.634  10.672  1.3287 -1.3051  0.2329
 9463TIP3   OH249879   4.081   0.768  12.391 -0.0009 -0.4626 -1.1211
 9463TIP3    H149880   4.041   0.763  12.304  0.2951  0.9667 -1.3568
 9463TIP3    H249881   4.165   0.723  12.381  0.0462 -0.2750 -1.5797
 9464TIP3   OH249882   6.118   6.300  13.980 -0.0556  0.9301 -0.2291
 9464TIP3    H149883   6.195   6.341  14.018 -0.2707  2.4959 -1.3809
 9464TIP3    H249884   6.050   6.367  13.986 -0.6765  0.4316 -1.3441
 9465TIP3   OH249885   3.502   4.574  13.720 -0.1072 -0.3468 -0.3758
 9465TIP3    H149886   3.534   4.557  13.808  1.1592  1.7485 -0.3692
 9465TIP3    H249887   3.467   4.490  13.690  0.3622 -1.3371  1.7245
 9466TIP3   OH249888   1.927   0.136   3.535  0.0101 -0.1034  0.1400
 9466TIP3    H149889   1.926   0.196   3.610 -0.2978 -1.8050  1.5636
 9466TIP3    H249890   2.001   0.165   3.482 -0.5704  1.9665  0.3698
 9467TIP3   OH249891   5.633   3.284   1.974  0.7091  0.3261 -0.0550
 9467TIP3    H149892   5.666   3.219   1.912 -1.2319 -1.0217  0.2408
 9467TIP3    H249893   5.631   3.239   2.058 -3.4894 -0.4398 -0.3313
 9468TIP3   OH249894   0.078   2.328  10.959 -0.0236 -0.1543 -0.3182
 9468TIP3    H149895   0.099   2.357  10.871 -1.5712  0.5720 -0.4732
 9468TIP3    H249896   0.024   2.250  10.947 -0.8809  0.3844 -0.0494
 9469TIP3   OH249897   5.079   6.274  11.512 -0.0348 -0.0882 -0.2613
 9469TIP3    H149898   5.035   6.345  11.465 -1.8191  0.1632  1.6532
 9469TIP3    H249899   5.043   6.194  11.473 -0.5768  0.0958 -0.1427
 9470TIP3   OH249900   6.671   5.624   5.092 -0.1139 -0.6272 -0.0036
 9470TIP3    H149901   6.697   5.534   5.072  1.1220 -0.3549  0.3276
 9470TIP3    H249902   6.730   5.651   5.162 -0.6907  0.3401  0.1203
 9471TIP3   OH249903   0.285   4.598   0.343  0.2633  0.2071  0.4642
 9471TIP3    H149904   0.352   4.536   0.314 -1.2067 -1.2720  0.0492
 9471TIP3    H249905   0.245   4.556   0.419 -1.6972 -0.0918 -0.6503
 9472TIP3   OH249906   6.189   1.013  12.743  0.6032  0.1856  0.2729
 9472TIP3    H149907   6.255   0.945  12.755  0.7037  0.3025  0.3822
 9472TIP3    H249908   6.111   0.978  12.785  0.6176  0.0819  0.2153
 9473TIP3   OH249909   3.376   4.596   0.233  0.1914  0.2421 -0.4253
 9473TIP3    H149910   3.364   4.508   0.270  0.5624  0.1181 -0.5937
 9473TIP3    H249911   3.296   4.610   0.182 -0.2764  0.3776  0.3337
 9474TIP3   OH249912   5.378   0.674  15.149  0.6685 -0.0572 -0.0195
 9474TIP3    H149913   5.355   0.664  15.242 -0.1056 -0.8350 -0.2786
 9474TIP3    H249914   5.363   0.767  15.130 -0.1576 -0.0961  0.3879
 9475TIP3   OH249915   6.436   6.351  15.841 -0.2875  0.8328 -0.0403
 9475TIP3    H149916   6.519   6.311  15.816 -1.0777 -1.1325  0.3110
 9475TIP3    H249917   6.386   6.355  15.759 -1.3581 -1.8841  0.3688
 9476TIP3   OH249918   1.354   2.063   2.025 -0.0368 -0.0587  0.3114
 9476TIP3    H149919   1.426   2.082   1.965 -0.7720  1.2591 -0.1839
 9476TIP3    H249920   1.396   2.055   2.110  0.9611 -1.4841 -0.2624
 9477TIP3   OH249921   1.972   4.783  16.427 -0.6688  0.2055 -0.1719
 9477TIP3    H149922   1.926   4.859  16.462  1.0209  0.8619  0.7421
 9477TIP3    H249923   1.961   4.715  16.494  0.1354  0.5503  0.3302
 9478TIP3   OH249924   2.494   2.465  17.209 -0.1826  0.9828  0.2917
 9478TIP3    H149925   2.456   2.410  17.278  0.0122 -0.2601 -0.5514
 9478TIP3    H249926   2.589   2.449  17.217 -0.2827 -1.8961 -2.3376
 9479TIP3   OH249927   3.024   0.906  11.504 -0.9124  0.6894 -0.0315
 9479TIP3    H149928   3.066   0.989  11.480 -1.2538  1.1939  1.0515
 9479TIP3    H249929   3.026   0.854  11.424  1.5543  0.7782 -0.1219
 9480TIP3   OH249930   1.096   2.902  12.602 -0.0934 -0.0553  0.2022
 9480TIP3    H149931   1.040   2.969  12.641  0.6424 -0.2221  1.6070
 9480TIP3    H249932   1.182   2.943  12.594  0.5628 -1.0283  1.8030
 9481TIP3   OH249933   0.257   6.411   1.756  0.8147  0.1154  0.2818
 9481TIP3    H149934   0.324   6.471   1.788  0.6802  0.0923  0.6187
 9481TIP3    H249935   0.256   6.340   1.821  1.1242 -0.3629 -0.2253
 9482TIP3   OH249936   4.671   0.056   0.976  0.1020 -0.9666  0.7801
 9482TIP3    H149937   4.625   0.074   1.059  1.1642 -0.6861  1.3308
 9482TIP3    H249938   4.610   0.002   0.926 -0.5868 -1.0920  1.7249
 9483TIP3   OH249939   2.745   3.354  15.585  0.4922  0.6703  0.6912
 9483TIP3    H149940   2.816   3.396  15.538 -0.1913  0.7038 -0.3372
 9483TIP3    H249941   2.668   3.368  15.530 -0.1552 -0.0552  1.3872
 9484TIP3   OH249942   0.056   0.565  16.325 -0.5431  0.7617 -0.1032
 9484TIP3    H149943   0.070   0.625  16.398 -1.3359  1.2707 -0.3536
 9484TIP3    H249944   0.085   0.614  16.247  0.0300  0.3300 -0.1666
 9485TIP3   OH249945   1.008   3.331   0.008 -0.2156 -0.2833 -0.3067
 9485TIP3    H149946   1.042   3.241   0.012  1.1784  0.2439  3.0331
 9485TIP3    H249947   1.044   3.367  -0.074 -0.1280 -2.4632 -1.2963
 9486TIP3   OH249948   3.367   3.221   5.688 -0.6550 -0.0809 -0.3904
 9486TIP3    H149949   3.367   3.173   5.606  1.1543 -0.9665  0.0757
 9486TIP3    H249950   3.275   3.223   5.715 -0.9764 -2.0038 -1.1757
 9487TIP3   OH249951   4.423   6.287  13.337  0.0448 -0.0070 -0.8566
 9487TIP3    H149952   4.431   6.266  13.244 -1.6306 -0.0143 -1.0356
 9487TIP3    H249953   4.340   6.247  13.363  0.5957 -0.1874  0.7048
 9488TIP3   OH249954   3.144   2.354  11.844  0.5239 -0.2368 -0.0282
 9488TIP3    H149955   3.123   2.420  11.910 -0.9011  0.1099 -0.7904
 9488TIP3    H249956   3.158   2.274  11.894  0.0302  0.1486  0.7507
 9489TIP3   OH249957   6.276   3.095   3.326  0.2245  0.5212  0.0367
 9489TIP3    H149958   6.335   3.141   3.267 -0.2098  0.2488 -0.6172
 9489TIP3    H249959   6.244   3.021   3.275  0.2028  0.0122  0.7677
 9490TIP3   OH249960   1.500   2.294  13.604  0.0956 -0.2782  0.1674
 9490TIP3    H149961   1.457   2.354  13.544 -0.2325  0.1410  0.8042
 9490TIP3    H249962   1.434   2.275  13.671 -0.5741 -3.1100 -1.1652
 9491TIP3   OH249963   5.170   4.378  12.740 -0.5595 -0.4184 -0.4314
 9491TIP3    H149964   5.119   4.300  12.762 -0.6960 -0.1710  0.1399
 9491TIP3    H249965   5.122   4.450  12.779 -1.3628  0.1777 -2.3908
 9492TIP3   OH249966   4.380   1.911  14.667  0.0207 -0.1882  0.3813
 9492TIP3    H149967   4.447   1.852  14.702  1.3532  1.2807  0.4086
 9492TIP3    H249968   4.380   1.985  14.727 -0.7196  0.4147 -0.3455
 9493TIP3   OH249969   6.121   0.178   0.190  0.4897  0.4021  0.1775
 9493TIP3    H149970   6.131   0.232   0.269  1.5241  1.8556 -0.8809
 9493TIP3    H249971   6.038   0.205   0.152 -0.8016 -1.4417  1.5439
 9494TIP3   OH249972   2.637   4.603  14.055 -0.4467  0.4237  0.1027
 9494TIP3    H149973   2.635   4.698  14.040  1.2100  0.3505 -0.8158
 9494TIP3    H249974   2.673   4.593  14.143  1.9030  0.6516 -0.7571
 9495TIP3   OH249975   0.686   2.909   0.959  0.1403  0.1292 -0.4382
 9495TIP3    H149976   0.598   2.943   0.941  0.4947  0.4711 -1.5414
 9495TIP3    H249977   0.684   2.889   1.053 -0.9949  0.4753 -0.3687
 9496TIP3   OH249978   6.540   5.660  12.908  0.2413  0.8317  0.5169
 9496TIP3    H149979   6.456   5.623  12.880  1.0915 -0.4019 -0.4950
 9496TIP3    H249980   6.572   5.707  12.831  1.6049 -0.7882  0.0251
 9497TIP3   OH249981   1.939   5.386  15.671 -0.2805  0.0822 -0.7276
 9497TIP3    H149982   2.029   5.359  15.687 -0.6810 -1.6160 -1.0729
 9497TIP3    H249983   1.905   5.411  15.757  0.2767 -0.0577 -0.4653
 9498TIP3   OH249984   1.652   4.175   0.138 -0.0686  0.1008  0.6639
 9498TIP3    H149985   1.619   4.119   0.208  1.3701 -0.1842  1.1320
 9498TIP3    H249986   1.594   4.156   0.063  0.4984 -2.1797  0.7333
 9499TIP3   OH249987   4.076   2.619  11.512 -0.3401  0.3976  0.4058
 9499TIP3    H149988   4.111   2.590  11.597 -0.6307  1.0249  0.7458
 9499TIP3    H249989   4.009   2.554  11.492  0.0622 -0.0314  0.4160
 9500TIP3   OH249990   1.436   4.843  16.056 -0.1432  0.0743 -0.7399
 9500TIP3    H149991   1.369   4.906  16.030  0.1669  0.6412 -0.1896
 9500TIP3    H249992   1.519   4.889  16.042  0.1139 -0.4458 -0.9435
 9501TIP3   OH249993   6.326   5.986  15.641 -0.0085 -0.4681  0.1549
 9501TIP3    H149994   6.376   5.914  15.679  1.4471  0.9632  1.0272
 9501TIP3    H249995   6.265   6.011  15.710  0.0104 -0.3604  0.1319
 9502TIP3   OH249996   2.252   2.383   6.399 -0.3144  0.2543  0.6689
 9502TIP3    H149997   2.331   2.387   6.346 -0.8627 -0.4010 -0.2253
 9502TIP3    H249998   2.237   2.290   6.413 -0.5849  0.3941  1.3712
 9503TIP3   OH249999   6.439   5.587  16.646  0.1979  0.2683  0.0884
 9503TIP3    H150000   6.347   5.562  16.659  0.3369  0.8200  2.5249
 9503TIP3    H250001   6.435   5.659  16.583 -0.6600 -2.0074 -2.7205
 9504TIP3   OH250002   4.216   4.133   3.225  0.2843  0.2607 -0.8073
 9504TIP3    H150003   4.124   4.155   3.211 -0.4151 -0.6729  1.6789
 9504TIP3    H250004   4.248   4.202   3.284  0.1064 -1.2455  1.1651
 9505TIP3   OH250005   0.748   2.543   2.506  0.2148  0.4245 -0.0130
 9505TIP3    H150006   0.667   2.499   2.530  0.0611  0.9132  0.3991
 9505TIP3    H250007   0.761   2.609   2.575  2.2421 -1.2446  1.3214
 9506TIP3   OH250008   6.453   3.632   3.205  0.7513  0.3157  0.2577
 9506TIP3    H150009   6.483   3.705   3.259  1.7720 -0.8249  1.2998
 9506TIP3    H250010   6.376   3.598   3.250 -0.8531  1.8232 -1.2033
 9507TIP3   OH250011   6.450   5.946  13.686  0.2679 -0.2448 -0.2835
 9507TIP3    H150012   6.510   5.875  13.666 -0.9122 -1.0902 -1.0071
 9507TIP3    H250013   6.443   5.995  13.603  1.9066  1.4221  0.4889
 9508TIP3   OH250014   4.728   5.270  16.926 -0.0455  0.4248 -0.1583
 9508TIP3    H150015   4.679   5.246  17.005 -0.6880  1.6993 -0.1421
 9508TIP3    H250016   4.694   5.356  16.902  0.2135  0.1044 -1.7759
 9509TIP3   OH250017   3.965   2.842  11.671 -0.4600 -0.4600 -0.1317
 9509TIP3    H150018   4.010   2.921  11.702  0.3658 -1.5477  1.5427
 9509TIP3    H250019   4.033   2.792  11.626 -0.3537 -1.3581  0.9961
 9510TIP3   OH250020   3.992   5.300  13.888 -0.6198 -0.2214  0.0863
 9510TIP3    H150021   4.003   5.388  13.923 -0.3032  0.0326 -0.6333
 9510TIP3    H250022   4.081   5.265  13.881 -0.7941 -0.9732  1.2765
 9511TIP3   OH250023   2.118   1.894  16.923 -0.3033 -0.9160  0.9215
 9511TIP3    H150024   2.033   1.852  16.909  0.4152 -2.1381 -0.0697
 9511TIP3    H250025   2.176   1.823  16.951  0.5159 -0.2080  1.0852
 9512TIP3   OH250026   2.948   3.327   2.296 -0.1187  0.6012  0.0185
 9512TIP3    H150027   2.992   3.245   2.316 -0.8996  0.5358  1.6588
 9512TIP3    H250028   3.018   3.389   2.276  0.5817  0.0258  0.6696
 9513TIP3   OH250029   6.386   1.471  16.404  0.0760 -0.6691  0.0456
 9513TIP3    H150030   6.381   1.566  16.395  0.0453 -0.7970 -1.5040
 9513TIP3    H250031   6.301   1.439  16.374 -0.0307 -1.1896  0.8528
 9514TIP3   OH250032   5.541   2.662   2.432 -0.1794  0.1763  0.2139
 9514TIP3    H150033   5.484   2.585   2.429  0.2665 -0.1546 -1.6890
 9514TIP3    H250034   5.481   2.736   2.445 -0.7986 -0.3562  0.4456
 9515TIP3   OH250035   4.811   6.420   1.507 -0.7863 -0.0781  0.0712
 9515TIP3    H150036   4.728   6.466   1.500 -0.8679 -0.3429 -0.8253
 9515TIP3    H250037   4.865   6.476   1.563 -1.2487  0.5551 -0.1103
 9516TIP3   OH250038   5.327   3.047  14.395  0.2764 -0.2860  0.1912
 9516TIP3    H150039   5.373   3.035  14.478  0.0075 -3.5518  0.0268
 9516TIP3    H250040   5.324   2.959  14.357 -0.9314  0.8438 -2.5886
 9517TIP3   OH250041   4.283   1.460  13.918  0.4478 -0.5195  0.2803
 9517TIP3    H150042   4.200   1.459  13.871  0.5245  0.2299  0.1160
 9517TIP3    H250043   4.259   1.447  14.010  0.2407 -1.2939  0.1233
 9518TIP3   OH250044   4.723   5.513   0.023  0.2969  0.2270 -0.3904
 9518TIP3    H150045   4.646   5.568   0.037  0.4155  0.6368 -1.2559
 9518TIP3    H250046   4.691   5.438  -0.027  0.4978  0.5344 -0.9920
 9519TIP3   OH250047   0.220   2.909   3.728  0.5909 -0.0250 -0.2885
 9519TIP3    H150048   0.294   2.952   3.687  0.4348  0.6234  0.0864
 9519TIP3    H250049   0.256   2.869   3.807  0.7883 -0.8174 -0.7769
 9520TIP3   OH250050   4.788   5.258  13.447 -0.1133 -0.0704  0.2699
 9520TIP3    H150051   4.847   5.261  13.522 -0.1136  0.7989  0.2407
 9520TIP3    H250052   4.796   5.344  13.406 -1.0820 -0.0822  0.0200
 9521TIP3   OH250053   3.797   4.171   0.864  0.5648 -0.0468 -0.3268
 9521TIP3    H150054   3.767   4.135   0.781 -0.4103 -0.9013  0.3780
 9521TIP3    H250055   3.728   4.150   0.926  1.5159  0.1140  0.8243
 9522TIP3   OH250056   2.318   2.879  14.265 -0.3710 -0.2437 -0.1010
 9522TIP3    H150057   2.380   2.879  14.338 -1.6318  2.1127  1.1080
 9522TIP3    H250058   2.233   2.860  14.306 -1.3517  2.5859 -0.5694
 9523TIP3   OH250059   2.176   5.753  10.793  0.1137  0.0286  0.2320
 9523TIP3    H150060   2.081   5.738  10.788  0.1767 -0.4149  0.3465
 9523TIP3    H250061   2.213   5.703  10.720  0.0245  2.4729 -1.5995
 9524TIP3   OH250062   3.511   2.484  11.601  0.0975 -0.3455 -0.1592
 9524TIP3    H150063   3.502   2.577  11.578 -1.6928 -0.6355 -0.7496
 9524TIP3    H250064   3.534   2.441  11.519  0.2160 -0.5199 -0.0359
 9525TIP3   OH250065   5.956   5.787  17.066  0.1547 -0.3439 -0.2091
 9525TIP3    H150066   6.032   5.747  17.025  0.5169  2.2802 -2.4000
 9525TIP3    H250067   5.912   5.715  17.111  2.9877 -2.2608 -0.2824
 9526TIP3   OH250068   1.114   6.471   3.738  0.1087 -0.0714 -0.4922
 9526TIP3    H150069   1.160   6.436   3.813  1.5703  0.2453 -1.2154
 9526TIP3    H250070   1.179   6.523   3.691 -1.2521  1.2697 -0.9808
 9527TIP3   OH250071   6.478   5.247  15.605 -0.2115 -0.2401  0.1180
 9527TIP3    H150072   6.501   5.272  15.516  0.2725  0.3316  0.3949
 9527TIP3    H250073   6.384   5.230  15.601 -0.3662  0.6532 -0.3142
 9528TIP3   OH250074   2.907   4.269   3.392 -0.4017  0.1055 -0.0570
 9528TIP3    H150075   2.916   4.318   3.474  1.5860 -1.5466  0.7918
 9528TIP3    H250076   2.900   4.337   3.325  2.3928  1.6753  1.0321
 9529TIP3   OH250077   2.792   2.148  17.321  0.4060 -0.2340 -0.3733
 9529TIP3    H150078   2.708   2.112  17.350  0.4612 -0.8916 -0.9894
 9529TIP3    H250079   2.858   2.090  17.359  0.6251  0.6212  0.5923
 9530TIP3   OH250080   0.288   4.877   2.833 -0.5309 -0.0382  0.1004
 9530TIP3    H150081   0.324   4.866   2.746 -1.4228 -0.1306 -0.2672
 9530TIP3    H250082   0.209   4.929   2.820 -0.0372  0.9889  1.0005
 9531TIP3   OH250083   6.164   2.289   6.442  0.4210 -0.0421  0.1433
 9531TIP3    H150084   6.163   2.352   6.515 -1.2751 -0.3282  0.3914
 9531TIP3    H250085   6.218   2.217   6.474  0.5726  0.3061  0.6987
 9532TIP3   OH250086   1.643   6.165  17.190 -0.2971 -0.1073 -0.1295
 9532TIP3    H150087   1.726   6.208  17.210 -0.1592  0.1832 -1.2616
 9532TIP3    H250088   1.587   6.236  17.158 -0.7121 -0.4319 -0.1252
 9533TIP3   OH250089   1.363   1.708   0.196 -0.1004 -0.1705  0.1062
 9533TIP3    H150090   1.376   1.681   0.105  1.3055 -1.4364  0.6566
 9533TIP3    H250091   1.367   1.626   0.246  0.6213  0.6626  1.4548
 9534TIP3   OH250092   2.827   6.247  16.001 -0.3216 -0.4368  0.3016
 9534TIP3    H150093   2.838   6.302  16.078  0.3463 -1.5456  1.0233
 9534TIP3    H250094   2.745   6.277  15.961  1.2205  2.7858 -0.7788
 9535TIP3   OH250095   2.648   3.543  14.923  0.1686  0.0659 -0.6586
 9535TIP3    H150096   2.742   3.562  14.931 -0.2831  2.1325  0.4541
 9535TIP3    H250097   2.614   3.614  14.868 -1.0048  0.3086  0.3443
 9536TIP3   OH250098   5.596   2.450   4.624 -0.9499 -0.0488  0.5007
 9536TIP3    H150099   5.683   2.487   4.609 -0.4997 -1.3059 -0.1243
 9536TIP3    H250100   5.535   2.518   4.597 -0.1543  0.5983  0.3254
 9537TIP3   OH250101   4.486   4.316  17.262 -0.0064 -0.1053  0.4400
 9537TIP3    H150102   4.528   4.402  17.260 -1.4492  0.6247  0.1937
 9537TIP3    H250103   4.558   4.254  17.263  1.0680  1.1046  0.2130
 9538TIP3   OH250104   0.573   0.000   5.221 -0.0609 -0.6947  0.3658
 9538TIP3    H150105   0.521   0.019   5.300  1.9308 -1.6666  2.0230
 9538TIP3    H250106   0.635   0.073   5.215  1.7801 -2.0748  1.5579
 9539TIP3   OH250107   1.704   3.971   2.811 -0.8484 -0.3888  0.1692
 9539TIP3    H150108   1.771   3.908   2.836  0.5469  1.1179  0.3988
 9539TIP3    H250109   1.708   3.974   2.715  1.4418  1.6864  0.2365
 9540TIP3   OH250110   1.702   3.231   2.657 -0.4529 -0.4056  0.5182
 9540TIP3    H150111   1.628   3.170   2.655 -0.2849 -0.6255  1.0168
 9540TIP3    H250112   1.725   3.244   2.565 -0.2780 -1.3532  0.4194
 9541TIP3   OH250113   5.273   1.808   5.225  0.0357  0.5322 -0.2188
 9541TIP3    H150114   5.305   1.830   5.312 -0.3826  1.9973 -0.4122
 9541TIP3    H250115   5.228   1.724   5.237 -0.2921  0.8630  1.0493
 9542TIP3   OH250116   1.759   5.942   2.074 -0.3904 -0.3320 -0.1124
 9542TIP3    H150117   1.719   5.977   1.995  1.2644  1.0882 -0.3697
 9542TIP3    H250118   1.814   5.870   2.044  1.8657  1.4932 -0.6330
 9543TIP3   OH250119   6.615   0.033   4.454  1.0590 -0.3087  0.1566
 9543TIP3    H150120   6.700  -0.005   4.437  1.2698 -0.2699  1.0598
 9543TIP3    H250121   6.634   0.124   4.479  0.7061 -0.1339 -0.1995
 9544TIP3   OH250122   0.577   2.275   2.646  0.2393  0.4953 -0.4494
 9544TIP3    H150123   0.665   2.238   2.645  0.2916  0.6122 -0.2150
 9544TIP3    H250124   0.521   2.203   2.676  0.0904  0.0731 -1.6954
 9545TIP3   OH250125   5.960   5.958   4.969  0.1581  0.2308  0.2990
 9545TIP3    H150126   6.021   5.884   4.961  0.9041  0.7129  1.3397
 9545TIP3    H250127   5.875   5.917   4.984  0.7637 -0.4414  2.1707
 9546TIP3   OH250128   6.344   0.701  13.738  0.1649  0.0702  1.4275
 9546TIP3    H150129   6.353   0.606  13.734  0.1297  0.0603  1.5531
 9546TIP3    H250130   6.290   0.723  13.662  1.8416  0.2155  0.2400
 9547TIP3   OH250131   2.763   4.984   0.030 -0.1578 -0.8076  0.4038
 9547TIP3    H150132   2.742   5.075   0.014 -0.2110 -0.8051  0.4843
 9547TIP3    H250133   2.685   4.936   0.002 -0.4109 -0.7718  1.0177
 9548TIP3   OH250134   5.858   2.220  15.865 -0.8696 -0.3259 -0.3538
 9548TIP3    H150135   5.882   2.293  15.922  0.2883  0.3246 -1.6357
 9548TIP3    H250136   5.770   2.195  15.894 -1.2742  1.5314  0.1502
 9549TIP3   OH250137   3.574   3.545  17.334  0.3381 -0.2603 -0.6520
 9549TIP3    H150138   3.569   3.559  17.429  2.0118 -0.1105 -0.5499
 9549TIP3    H250139   3.534   3.623  17.296  3.9064  2.1003 -0.0498
 9550TIP3   OH250140   4.597   4.542  13.847  0.1547  0.0940 -0.2428
 9550TIP3    H150141   4.569   4.510  13.933  1.7278  2.1127  1.1464
 9550TIP3    H250142   4.587   4.637  13.853  2.4168  0.4780 -1.4160
 9551TIP3   OH250143   2.494   2.176  13.813  0.3667 -0.6736 -0.0032
 9551TIP3    H150144   2.520   2.087  13.837  0.8783 -0.2865  0.9545
 9551TIP3    H250145   2.513   2.228  13.891 -0.9187  0.0999 -0.1802
 9552TIP3   OH250146   2.975   3.700  17.132  0.3791  0.1086  0.0498
 9552TIP3    H150147   2.897   3.722  17.183  0.9357  3.2685 -0.2510
 9552TIP3    H250148   2.942   3.670  17.048 -0.5703  1.9268 -0.2682
 9553TIP3   OH250149   3.603   5.801  13.563  0.0196 -0.3950 -1.0721
 9553TIP3    H150150   3.692   5.828  13.540 -0.2059  0.0633 -1.4285
 9553TIP3    H250151   3.611   5.708  13.583  1.3303  0.3246  2.6640
 9554TIP3   OH250152   5.074   2.834  16.979 -0.1232 -0.1874 -0.1260
 9554TIP3    H150153   5.122   2.909  17.012 -0.3287  0.3984 -1.1167
 9554TIP3    H250154   4.994   2.831  17.031 -0.0726  0.2221 -0.0284
 9555TIP3   OH250155   4.884   1.491  13.779  0.4732 -0.2672  0.9367
 9555TIP3    H150156   4.843   1.539  13.851  2.9746 -0.1309  2.3700
 9555TIP3    H250157   4.831   1.412  13.769 -1.4358  0.9335  1.1242
 9556TIP3   OH250158   5.371   4.825   5.071 -0.0593  0.4914  0.6567
 9556TIP3    H150159   5.370   4.737   5.107  2.4089  0.3709  0.5924
 9556TIP3    H250160   5.393   4.813   4.979  0.0785  1.1445  0.6005
 9557TIP3   OH250161   3.990   6.170   0.113 -0.2521  0.5790  0.1171
 9557TIP3    H150162   3.967   6.186   0.022 -2.1499 -0.1300  0.4323
 9557TIP3    H250163   3.915   6.200   0.163  0.4593  0.2977  1.4121
 9558TIP3   OH250164   3.404   4.817  14.763 -0.3765  0.8894  0.0777
 9558TIP3    H150165   3.393   4.810  14.858 -1.7385  0.2249 -0.0990
 9558TIP3    H250166   3.473   4.881  14.751 -0.4854  1.3002  1.5170
 9559TIP3   OH250167   3.447   6.107   4.739 -0.9896 -0.2107  0.2227
 9559TIP3    H150168   3.447   6.025   4.689  0.1603 -1.2753  1.8376
 9559TIP3    H250169   3.533   6.146   4.721 -0.7434 -0.3823  0.9867
 9560TIP3   OH250170   5.855   6.178  14.709 -0.0964  0.0747  0.2663
 9560TIP3    H150171   5.928   6.117  14.719 -0.6508 -0.6895 -0.2333
 9560TIP3    H250172   5.890   6.249  14.656  0.7760  0.5963  1.4823
 9561TIP3   OH250173   3.679   6.480  15.404 -0.1346 -0.7162  0.2240
 9561TIP3    H150174   3.626   6.548  15.361  0.8496  0.5181  0.8868
 9561TIP3    H250175   3.615   6.418  15.438 -1.2082  0.8867  1.2651
 9562TIP3   OH250176   6.235   4.453   4.830 -0.2686  0.0728 -0.5132
 9562TIP3    H150177   6.252   4.522   4.895 -0.9593 -0.6605  0.4814
 9562TIP3    H250178   6.313   4.398   4.832 -0.3905 -0.0846 -0.1308
 9563TIP3   OH250179   6.621   2.116  11.908  0.2335  0.2336  0.0809
 9563TIP3    H150180   6.650   2.026  11.922 -2.6524 -0.7356  0.3996
 9563TIP3    H250181   6.642   2.161  11.990 -1.0939 -0.9853  1.1328
 9564TIP3   OH250182   6.075   2.673   0.656  0.0114 -0.4361 -0.3105
 9564TIP3    H150183   6.110   2.653   0.569  1.2550  0.9752 -0.1768
 9564TIP3    H250184   6.150   2.668   0.714 -0.7064 -0.8439  0.6111
 9565TIP3   OH250185   1.185   3.175   3.346 -0.2077  0.8542  0.1355
 9565TIP3    H150186   1.252   3.106   3.346 -0.5111  0.5568 -0.2076
 9565TIP3    H250187   1.230   3.251   3.310 -0.3109  0.3775 -1.0889
 9566TIP3   OH250188   5.862   2.682   1.842  0.1788  0.3859 -0.2018
 9566TIP3    H150189   5.797   2.614   1.827  0.5495 -0.3593  1.3318
 9566TIP3    H250190   5.884   2.714   1.755 -0.7812 -0.7184 -0.8799
 9567TIP3   OH250191   0.647   1.447   1.257 -0.0743 -0.4422  0.6566
 9567TIP3    H150192   0.619   1.457   1.348  0.4210 -0.3973  0.8033
 9567TIP3    H250193   0.611   1.523   1.212 -0.5750 -0.6155  0.7481
 9568TIP3   OH250194   2.019   0.694  13.300  0.5749 -0.1806 -0.5689
 9568TIP3    H150195   2.095   0.686  13.243  0.8912 -0.8910 -0.0559
 9568TIP3    H250196   2.005   0.788  13.308  1.0220 -0.0589 -1.1577
 9569TIP3   OH250197   2.738   5.707  11.445  0.0347 -0.0487  0.1654
 9569TIP3    H150198   2.646   5.691  11.425  0.4139  0.4898 -2.2772
 9569TIP3    H250199   2.736   5.780  11.507 -1.1985 -0.9705  1.2719
 9570TIP3   OH250200   1.667   0.406   3.965  0.0459 -0.5870  0.0600
 9570TIP3    H150201   1.726   0.381   4.037  1.2950  2.0404  0.0591
 9570TIP3    H250202   1.719   0.393   3.886  1.1950  2.7587  0.1183
 9571TIP3   OH250203   0.982   1.100   4.323 -0.2810 -0.3985 -0.0107
 9571TIP3    H150204   1.037   1.023   4.312 -1.5287 -1.4916  0.9800
 9571TIP3    H250205   1.018   1.144   4.400  0.6440  0.2362 -0.7783
 9572TIP3   OH250206   3.481   3.815  14.833 -0.0762 -0.1810 -0.0389
 9572TIP3    H150207   3.473   3.747  14.900 -0.1521  0.5462  0.7060
 9572TIP3    H250208   3.453   3.896  14.877 -0.2469  0.2887 -0.9868
 9573TIP3   OH250209   1.159   3.536  15.993 -0.1879  0.3588 -0.2666
 9573TIP3    H150210   1.066   3.530  16.014 -0.0170  0.1398  0.4645
 9573TIP3    H250211   1.182   3.447  15.964 -0.3656  0.5970 -1.1722
 9574TIP3   OH250212   4.975   6.246  13.081  0.1797  0.1443 -0.1891
 9574TIP3    H150213   5.057   6.285  13.111 -1.1422  1.4202  2.0420
 9574TIP3    H250214   4.942   6.198  13.157 -2.0695  1.2923 -0.3619
 9575TIP3   OH250215   2.573   4.108  12.506 -0.0783 -0.5146 -0.5268
 9575TIP3    H150216   2.536   4.079  12.590  0.5234  2.2993  0.8412
 9575TIP3    H250217   2.499   4.150  12.462  0.1271  0.0502 -0.3438
 9576TIP3   OH250218   1.650   1.156  15.814  0.4139  0.3226  0.0365
 9576TIP3    H150219   1.614   1.068  15.817  0.0981  0.4741  1.6546
 9576TIP3    H250220   1.667   1.172  15.722  0.7344 -1.5311 -0.2636
 9577TIP3   OH250221   3.888   2.412   2.941 -0.1379 -0.0860  0.2102
 9577TIP3    H150222   3.823   2.396   2.873  0.8882 -0.1402 -0.7883
 9577TIP3    H250223   3.890   2.507   2.950 -0.4377 -0.0901  0.3332
 9578TIP3   OH250224   0.938   2.046  14.764  0.1706  0.1823 -0.1640
 9578TIP3    H150225   0.972   2.011  14.846 -0.8816  0.9478  0.6447
 9578TIP3    H250226   1.015   2.082  14.719  0.4145  2.7596  2.0473
 9579TIP3   OH250227   3.530   2.495  12.147 -0.0864 -0.2907 -0.0589
 9579TIP3    H150228   3.462   2.469  12.210 -1.0104  1.0981 -0.4505
 9579TIP3    H250229   3.534   2.422  12.085 -1.6304 -0.1755 -0.3420
 9580TIP3   OH250230   3.650   3.316   5.239 -0.1133  0.2954 -0.0981
 9580TIP3    H150231   3.702   3.249   5.283 -0.9641 -0.7493 -0.6364
 9580TIP3    H250232   3.665   3.300   5.146 -3.4451 -1.8615 -0.4377
 9581TIP3   OH250233   2.763   0.864  11.569 -0.1409  0.3670  0.0133
 9581TIP3    H150234   2.744   0.904  11.653 -2.1760  0.6266 -0.5213
 9581TIP3    H250235   2.848   0.900  11.543  0.0563  1.0051  1.4989
 9582TIP3   OH250236   4.460   3.147  11.986 -0.6336  0.2757 -0.6927
 9582TIP3    H150237   4.408   3.171  11.910  0.5760  0.5542 -1.4580
 9582TIP3    H250238   4.398   3.104  12.045 -1.9433  1.5575 -1.0892
 9583TIP3   OH250239   4.305   2.583  13.861  0.0649 -0.1267  0.1297
 9583TIP3    H150240   4.338   2.671  13.878  0.0066 -0.1703  0.4644
 9583TIP3    H250241   4.258   2.559  13.940 -1.2945  0.1719 -0.5577
 9584TIP3   OH250242   4.934   2.009   5.624  0.5933 -0.1733  0.4750
 9584TIP3    H150243   4.988   2.081   5.657  1.4883 -0.2897 -0.6536
 9584TIP3    H250244   4.905   2.039   5.537  0.9214 -1.1353  0.0203
 9585TIP3   OH250245   2.117   6.401   5.545  0.7917 -0.2160 -0.1476
 9585TIP3    H150246   2.142   6.454   5.470  0.0103 -0.8633 -0.8852
 9585TIP3    H250247   2.064   6.460   5.599 -1.0058 -0.4944 -1.5004
 9586TIP3   OH250248   0.589   6.325  11.235 -0.5075 -0.7514 -0.0770
 9586TIP3    H150249   0.644   6.247  11.244  0.4116 -0.1237 -0.1028
 9586TIP3    H250250   0.500   6.292  11.241 -0.1231 -1.6426  1.3142
 9587TIP3   OH250251   0.332   0.372  15.217 -0.1255 -0.1896  0.5008
 9587TIP3    H150252   0.422   0.340  15.210 -0.4944 -1.0279 -0.7998
 9587TIP3    H250253   0.334   0.458  15.176 -0.4595 -1.4432 -2.4237
 9588TIP3   OH250254   5.363   6.611   0.175  0.1644  0.4620  1.0116
 9588TIP3    H150255   5.299   6.540   0.165 -0.8206  1.4978 -0.6775
 9588TIP3    H250256   5.342   6.650   0.259 -0.0053 -0.5608  1.4545
 9589TIP3   OH250257   6.771   3.246  15.726  0.1541  0.5391  0.0967
 9589TIP3    H150258   6.723   3.165  15.707 -0.1212  0.5709  0.6307
 9589TIP3    H250259   6.734   3.310  15.665 -0.7849  0.6643  0.7605
 9590TIP3   OH250260   2.021   2.613   3.998  0.3257 -0.1989 -0.3022
 9590TIP3    H150261   2.009   2.550   4.069  1.1319 -1.3511 -1.1481
 9590TIP3    H250262   2.054   2.691   4.042 -0.5276 -0.4052  0.7495
 9591TIP3   OH250263   1.178   5.399   1.317 -0.0572  0.1300 -0.3526
 9591TIP3    H150264   1.130   5.348   1.251  1.5776 -2.5287  0.3457
 9591TIP3    H250265   1.123   5.476   1.332 -3.4134 -1.9914 -0.5951
 9592TIP3   OH250266   5.244   2.060  13.142 -0.3078  0.0214  0.1176
 9592TIP3    H150267   5.328   2.015  13.154 -0.5268  0.0659  2.2015
 9592TIP3    H250268   5.184   2.014  13.202 -1.1885  1.3993  0.3274
 9593TIP3   OH250269   3.847   2.940  13.937  0.2065 -0.3123 -0.1514
 9593TIP3    H150270   3.764   2.952  13.890  0.7504 -2.0787 -1.7302
 9593TIP3    H250271   3.864   3.024  13.978 -2.5499  0.0099  0.5564
 9594TIP3   OH250272   6.230   2.276   4.702  0.2298  0.2208 -0.5244
 9594TIP3    H150273   6.233   2.227   4.620  1.3084  1.2553 -1.1323
 9594TIP3    H250274   6.307   2.333   4.699 -0.0463  0.7135  0.9365
 9595TIP3   OH250275   4.767   2.490   4.027  0.0980 -0.1303  0.0374
 9595TIP3    H150276   4.690   2.433   4.024 -0.8317  1.0908 -0.2462
 9595TIP3    H250277   4.823   2.451   4.094 -0.0312 -1.9302 -0.8202
 9596TIP3   OH250278   3.198   6.373  16.243 -0.1581 -0.4092 -0.0378
 9596TIP3    H150279   3.238   6.340  16.324 -0.7662  0.3524  0.5949
 9596TIP3    H250280   3.118   6.322  16.233 -0.4619 -0.0003  0.2583
 9597TIP3   OH250281   1.505   1.391  12.058  0.0808  0.3433  0.1170
 9597TIP3    H150282   1.445   1.429  12.122 -0.4254 -0.2130 -0.0220
 9597TIP3    H250283   1.569   1.342  12.111  2.2816  3.3568  0.5135
 9598TIP3   OH250284   6.269   1.273  12.850 -0.2724  0.0020 -0.1011
 9598TIP3    H150285   6.251   1.334  12.778  0.7249 -1.5711 -1.7607
 9598TIP3    H250286   6.232   1.190  12.821  0.3621 -0.7263  1.0932
 9599TIP3   OH250287   2.769   0.557   2.501 -0.3379 -0.3740 -0.5068
 9599TIP3    H150288   2.686   0.543   2.547  0.7312  0.7005  1.9225
 9599TIP3    H250289   2.789   0.472   2.462 -1.8145 -1.0759  0.1763
 9600TIP3   OH250290   5.973   4.909   3.833 -0.6704 -0.2588 -0.3389
 9600TIP3    H150291   5.936   4.910   3.745 -0.2194  1.3079 -0.5353
 9600TIP3    H250292   6.067   4.917   3.819 -0.4002 -2.0523  0.2378
 9601TIP3   OH250293   4.229   1.065  15.922 -0.0634  0.1699  0.0309
 9601TIP3    H150294   4.193   0.991  15.970 -1.9356  1.0438  0.0946
 9601TIP3    H250295   4.162   1.085  15.856  0.3373  1.8296  0.0847
 9602TIP3   OH250296   4.386   0.522  13.400 -0.0638  0.2342  0.3354
 9602TIP3    H150297   4.432   0.455  13.350  1.3955  1.4675 -0.0092
 9602TIP3    H250298   4.357   0.476  13.479  0.5755 -0.8927 -0.0652
 9603TIP3   OH250299   6.507   0.528  16.716 -0.0981 -0.3428  0.5977
 9603TIP3    H150300   6.545   0.616  16.706  1.4408 -1.0222  0.1762
 9603TIP3    H250301   6.560   0.473  16.659 -2.1731 -1.2629 -0.5497
 9604TIP3   OH250302   5.517   5.556  11.563  0.8671  0.0127  0.4429
 9604TIP3    H150303   5.422   5.542  11.562  0.8106  0.2248  1.5313
 9604TIP3    H250304   5.529   5.638  11.610  1.5366  0.6553 -0.7936
 9605TIP3   OH250305   1.263   2.266   3.128  0.1465  0.2226 -0.3658
 9605TIP3    H150306   1.323   2.341   3.129  0.1402  0.2194  0.5860
 9605TIP3    H250307   1.186   2.298   3.081  1.2972 -0.1150 -2.6484
 9606TIP3   OH250308   5.213   0.992   1.508 -0.0473  0.4912 -0.8149
 9606TIP3    H150309   5.207   0.965   1.600  0.1357  0.5669 -0.7795
 9606TIP3    H250310   5.180   0.916   1.458 -2.1203  1.1877 -0.6134
 9607TIP3   OH250311   1.962   5.019   1.569  0.4864  0.0024 -0.6426
 9607TIP3    H150312   1.874   4.984   1.584 -0.2393  0.8239 -2.6344
 9607TIP3    H250313   1.967   5.097   1.625  0.3493 -0.6296  0.2613
 9608TIP3   OH250314   6.495   0.155   1.553  0.7070 -0.5826 -1.0768
 9608TIP3    H150315   6.483   0.248   1.571 -0.9467 -1.1766  1.3810
 9608TIP3    H250316   6.556   0.124   1.620 -0.8618 -1.7152 -0.0713
 9609TIP3   OH250317   5.195   4.529   0.143 -0.0930  0.3691  0.1066
 9609TIP3    H150318   5.285   4.500   0.158 -0.3495 -0.2160  0.5700
 9609TIP3    H250319   5.180   4.513   0.050  1.0945  2.8226 -0.5922
 9610TIP3   OH250320   1.561   0.822   3.582  0.6740 -0.0340 -0.0649
 9610TIP3    H150321   1.633   0.883   3.565  0.1026  1.0155  1.1291
 9610TIP3    H250322   1.603   0.737   3.593  1.3886 -0.2015 -3.0930
 9611TIP3   OH250323   5.624   0.230   5.515  0.0162 -0.7410  0.1577
 9611TIP3    H150324   5.688   0.174   5.472 -0.0078 -1.2960  0.8218
 9611TIP3    H250325   5.590   0.177   5.588 -1.2466 -0.4878 -0.2178
 9612TIP3   OH250326   1.021   5.258  11.602  0.1289 -0.1642  0.4478
 9612TIP3    H150327   0.955   5.198  11.638  0.1222  0.8748  2.2776
 9612TIP3    H250328   1.083   5.201  11.557 -0.3761 -1.4616  1.3321
 9613TIP3   OH250329   3.589   4.723   0.758  0.1796  0.0097  0.4439
 9613TIP3    H150330   3.496   4.704   0.774  0.3199 -0.1640  1.1002
 9613TIP3    H250331   3.629   4.637   0.748  0.3191  0.0745  0.4543
 9614TIP3   OH250332   6.352   2.084  12.881 -0.0229 -0.6688 -0.1522
 9614TIP3    H150333   6.423   2.069  12.944  1.2839  1.2930 -1.0603
 9614TIP3    H250334   6.379   2.036  12.803  0.4331  0.2296 -0.5610
 9615TIP3   OH250335   1.547   3.552  11.528 -0.6655 -0.0141  0.0529
 9615TIP3    H150336   1.575   3.610  11.457  1.0729 -1.7014 -0.7338
 9615TIP3    H250337   1.537   3.466  11.485 -1.7472 -0.6195  1.4463
 9616TIP3   OH250338   4.515   1.705   2.714  0.0388  0.6562  0.3987
 9616TIP3    H150339   4.573   1.780   2.703  2.1990 -0.9580 -0.0294
 9616TIP3    H250340   4.506   1.695   2.809  0.5509  0.8857  0.4739
 9617TIP3   OH250341   5.211   2.604   5.576  0.5065 -0.2907 -0.4976
 9617TIP3    H150342   5.240   2.575   5.663  0.1060  1.7303  0.3785
 9617TIP3    H250343   5.196   2.523   5.527  1.3903 -1.4773  1.0884
 9618TIP3   OH250344   6.122   4.914   5.870 -0.6217  0.2111  0.4525
 9618TIP3    H150345   6.209   4.873   5.870 -0.7318 -0.0338  0.9614
 9618TIP3    H250346   6.070   4.860   5.811 -0.1867  0.8964 -0.5746
 9619TIP3   OH250347   3.702   5.577   6.613  0.3404  0.0854 -0.6339
 9619TIP3    H150348   3.701   5.520   6.690 -0.2081 -1.8504 -1.9819
 9619TIP3    H250349   3.749   5.526   6.547 -1.7913  0.3663 -2.4810
 9620TIP3   OH250350   6.442   0.234   2.622  0.4729  0.6260 -0.3459
 9620TIP3    H150351   6.515   0.197   2.672 -0.5860  1.9867  2.3750
 9620TIP3    H250352   6.443   0.327   2.643 -1.9641  0.7119 -0.3292
 9621TIP3   OH250353   1.085   4.735   0.641  0.7246 -0.0416 -0.3053
 9621TIP3    H150354   1.085   4.681   0.720 -0.7882 -0.5493 -0.6216
 9621TIP3    H250355   0.993   4.748   0.620  1.0301 -1.5564 -3.0807
 9622TIP3   OH250356   6.611   1.319   2.240  0.4809 -0.0131  0.2590
 9622TIP3    H150357   6.701   1.293   2.259 -0.0880 -2.5137 -0.0410
 9622TIP3    H250358   6.558   1.267   2.300 -0.8843 -1.3554 -1.9748
 9623TIP3   OH250359   3.905   4.844   0.637  0.0761 -0.1560 -0.1232
 9623TIP3    H150360   3.928   4.801   0.719  0.2901 -0.4740 -0.3453
 9623TIP3    H250361   3.829   4.898   0.658  0.0382 -0.3528  0.2482
 9624TIP3   OH250362   3.702   5.393   1.488 -0.7968  0.1669  0.0346
 9624TIP3    H150363   3.787   5.355   1.466 -1.6424 -0.5592 -2.3509
 9624TIP3    H250364   3.670   5.341   1.561  1.6883  1.8886  2.5321
 9625TIP3   OH250365   5.875   2.274   3.311  0.5384 -0.4947  0.8719
 9625TIP3    H150366   5.937   2.215   3.267  1.1192  0.6597  0.1050
 9625TIP3    H250367   5.843   2.331   3.241  1.5386  1.4532  1.9331
 9626TIP3   OH250368   2.834   4.365   3.813 -0.1876  0.2434 -0.2041
 9626TIP3    H150369   2.768   4.319   3.762 -1.1062  1.1698  0.1172
 9626TIP3    H250370   2.789   4.392   3.893  0.0055  2.5763 -0.8180
 9627TIP3   OH250371   4.862   2.740  17.138  0.0014 -0.3378  0.3586
 9627TIP3    H150372   4.893   2.656  17.174 -3.6739 -1.2603  1.8474
 9627TIP3    H250373   4.785   2.716  17.086 -0.7934  2.0638  0.3353
 9628TIP3   OH250374   5.809   2.459   5.321  0.3953 -0.2209  0.2411
 9628TIP3    H150375   5.876   2.441   5.387 -0.5465 -3.9743  0.3526
 9628TIP3    H250376   5.775   2.373   5.296 -1.3243  1.2282 -3.0694
 9629TIP3   OH250377   5.390   3.226   4.604  0.4182 -0.1188 -0.2511
 9629TIP3    H150378   5.321   3.284   4.636 -0.4781 -0.2170 -1.8700
 9629TIP3    H250379   5.346   3.142   4.589  0.8032 -0.1303 -1.4864
 9630TIP3   OH250380   3.009   5.432   2.005 -0.0756  0.3714  0.3883
 9630TIP3    H150381   3.095   5.404   1.973 -0.7915  0.1468 -1.4977
 9630TIP3    H250382   2.994   5.516   1.962 -1.9471 -0.8829 -1.6604
 9631TIP3   OH250383   4.898   2.178  13.239  0.1406  0.2089  0.3989
 9631TIP3    H150384   4.813   2.157  13.201  0.4576 -2.3298  0.8967
 9631TIP3    H250385   4.961   2.141  13.177  0.7343 -1.5617  1.9924
 9632TIP3   OH250386   2.595   4.254   4.178  0.2019  0.2439 -0.0125
 9632TIP3    H150387   2.556   4.240   4.263 -1.5400  2.5663 -0.3267
 9632TIP3    H250388   2.531   4.222   4.115  1.2613 -1.0106 -0.5079
 9633TIP3   OH250389   1.628   3.060   4.183 -0.4844  0.2999 -0.1925
 9633TIP3    H150390   1.551   3.087   4.233  0.4227  2.5586  0.1134
 9633TIP3    H250391   1.610   2.969   4.158 -2.8852  0.5050  0.5175
 9634TIP3   OH250392   3.036   1.492  16.440 -0.6706 -0.3883 -0.5137
 9634TIP3    H150393   3.045   1.438  16.361 -0.3577  0.3434 -0.9895
 9634TIP3    H250394   2.969   1.448  16.491 -0.6694 -1.0394 -1.0508
 9635TIP3   OH250395   6.061   6.779   4.980  0.3801  0.7124  0.2046
 9635TIP3    H150396   5.988   6.838   4.964  0.5430  0.5756 -1.1388
 9635TIP3    H250397   6.072   6.731   4.898  1.2089 -0.1199  0.7819
 9636TIP3   OH250398   4.066   5.368   4.389 -0.4786 -0.8040  0.0034
 9636TIP3    H150399   4.065   5.291   4.446  0.9959 -0.9835 -0.1846
 9636TIP3    H250400   4.125   5.345   4.317 -1.1888 -0.0438 -0.8528
 9637TIP3   OH250401   0.146   1.768  11.102 -0.0435 -0.3239 -0.1298
 9637TIP3    H150402   0.111   1.695  11.052  0.5202 -0.7664  0.1092
 9637TIP3    H250403   0.203   1.815  11.041 -0.2750 -0.1804 -0.2353
 9638TIP3   OH250404   1.406   4.211   2.201 -0.2047  0.1500  0.1933
 9638TIP3    H150405   1.385   4.131   2.153 -1.5114  0.0606  0.8793
 9638TIP3    H250406   1.335   4.272   2.179  0.5139  0.9598  0.0709
 9639TIP3   OH250407   1.078   0.166  15.306 -0.3935  0.3574 -0.2044
 9639TIP3    H150408   1.131   0.151  15.385 -2.2124  3.0599  1.7357
 9639TIP3    H250409   1.142   0.195  15.240  1.0135 -0.4492  0.7471
 9640TIP3   OH250410   4.686   4.305  14.184  0.0170 -0.9510 -0.1498
 9640TIP3    H150411   4.628   4.229  14.184 -0.8041 -0.3694 -1.6536
 9640TIP3    H250412   4.627   4.379  14.168  0.7599  0.0588  1.5005
 9641TIP3   OH250413   2.458   3.254   2.422 -0.0293 -0.6283 -0.3225
 9641TIP3    H150414   2.541   3.301   2.410  0.4381 -0.9794  1.3124
 9641TIP3    H250415   2.473   3.168   2.383  0.3096 -0.6384 -0.1672
 9642TIP3   OH250416   3.834   4.736   2.542  0.0927 -0.2332 -0.2728
 9642TIP3    H150417   3.768   4.805   2.548  1.5848  1.2023  0.0909
 9642TIP3    H250418   3.832   4.709   2.450 -0.1824  0.6190 -0.5230
 9643TIP3   OH250419   4.740   3.542  14.010  0.3832 -0.1214  0.2000
 9643TIP3    H150420   4.674   3.496  14.061  0.1060 -0.1674 -0.1899
 9643TIP3    H250421   4.824   3.512  14.045  0.1983 -0.3685  0.4322
 9644TIP3   OH250422   1.237   6.186  13.457 -0.1869 -0.0345 -0.1368
 9644TIP3    H150423   1.157   6.160  13.502 -0.4983  0.7030 -0.2514
 9644TIP3    H250424   1.306   6.174  13.523 -0.6399  1.0630  0.5614
 9645TIP3   OH250425   4.806   2.831  11.448 -0.0780 -1.0016 -0.4927
 9645TIP3    H150426   4.789   2.891  11.375  1.0195  0.6773  0.5519
 9645TIP3    H250427   4.750   2.865  11.519 -0.0124 -1.6851 -0.1104
 9646TIP3   OH250428   3.300   4.686   0.966 -0.0100  0.4088  0.2654
 9646TIP3    H150429   3.314   4.621   1.035  2.4082 -0.2935 -0.7614
 9646TIP3    H250430   3.342   4.765   0.998 -0.4240  0.6160  0.3071
 9647TIP3   OH250431   5.679   1.320  15.930  0.0918 -0.6353 -0.0824
 9647TIP3    H150432   5.623   1.330  16.007  0.6803  1.0918  0.1553
 9647TIP3    H250433   5.617   1.304  15.858 -0.4579 -2.3725  0.7025
 9648TIP3   OH250434   3.121   2.338   4.344  0.0317  0.3014  0.1060
 9648TIP3    H150435   3.117   2.366   4.253 -1.8146 -0.7425 -0.1882
 9648TIP3    H250436   3.076   2.407   4.393  0.6387  0.6522  0.1711
 9649TIP3   OH250437   0.532   2.349   4.722 -0.2152 -0.6735 -0.0691
 9649TIP3    H150438   0.540   2.402   4.643  1.8169 -0.7502  0.0209
 9649TIP3    H250439   0.499   2.410   4.788  3.0392  0.9567  0.3075
 9650TIP3   OH250440   5.633   2.844  15.078 -0.6350  0.1620 -0.1949
 9650TIP3    H150441   5.668   2.759  15.104  1.0741  0.6035 -0.9484
 9650TIP3    H250442   5.647   2.901  15.154  2.3371  0.8757 -1.1441
 9651TIP3   OH250443   5.604   4.118   3.015 -0.5781 -0.3325 -0.4054
 9651TIP3    H150444   5.641   4.121   2.927 -3.2560 -0.6814 -1.6391
 9651TIP3    H250445   5.559   4.203   3.024 -0.3408 -0.3092  0.6288
 9652TIP3   OH250446   1.022   2.409   0.856 -0.2092 -0.5057 -0.2672
 9652TIP3    H150447   1.081   2.387   0.929 -1.2163  1.4225  1.2369
 9652TIP3    H250448   1.067   2.480   0.810 -0.4500 -0.4059 -0.3481
 9653TIP3   OH250449   4.679   5.904  14.653 -0.4194 -0.0943  0.2190
 9653TIP3    H150450   4.694   5.843  14.581  2.6608  0.8186 -0.0247
 9653TIP3    H250451   4.630   5.976  14.614  0.8839  0.2095 -0.9115
 9654TIP3   OH250452   0.770   4.043   5.499  0.3634  0.3590  0.5791
 9654TIP3    H150453   0.848   4.079   5.541  0.8215 -1.4497  1.3474
 9654TIP3    H250454   0.723   3.999   5.570 -0.8301  0.5095 -0.0879
 9655TIP3   OH250455   6.154   3.282   5.834  0.4712  0.2338  0.0511
 9655TIP3    H150456   6.157   3.294   5.929  1.2261 -1.5459  0.2846
 9655TIP3    H250457   6.103   3.202   5.822  0.5541  0.3362 -1.0450
 9656TIP3   OH250458   5.959   6.109  14.346  0.2714  0.3055  0.6895
 9656TIP3    H150459   5.975   6.077  14.257 -0.3934  2.0825 -0.1044
 9656TIP3    H250460   5.941   6.030  14.397  4.2156 -1.2038  0.1158
 9657TIP3   OH250461   4.331   1.070  16.696 -0.4093  0.2486  0.3358
 9657TIP3    H150462   4.246   1.099  16.663 -0.1268  0.0655 -0.5713
 9657TIP3    H250463   4.349   1.129  16.769 -0.4744  1.4906 -0.6057
 9658TIP3   OH250464   1.595   6.606  16.695 -0.3264  0.0994 -0.1342
 9658TIP3    H150465   1.664   6.642  16.639 -1.2101  2.4145  0.1536
 9658TIP3    H250466   1.607   6.511  16.689  2.5211  0.3877 -0.5037
 9659TIP3   OH250467   1.216   5.219  10.914  0.1708  0.3157  0.0827
 9659TIP3    H150468   1.279   5.151  10.888  0.4506  0.8733 -0.7135
 9659TIP3    H250469   1.134   5.171  10.929  0.3918 -0.2169 -0.3658
 9660TIP3   OH250470   2.643   4.428  14.479  0.3017 -0.1268  0.3520
 9660TIP3    H150471   2.627   4.429  14.573  0.5646 -2.9525  0.5071
 9660TIP3    H250472   2.680   4.342  14.461 -0.7137 -0.1041 -2.4938
 9661TIP3   OH250473   4.722   2.471   3.103  0.5123  0.6089 -0.9930
 9661TIP3    H150474   4.710   2.554   3.149  0.0278  0.9289 -1.6790
 9661TIP3    H250475   4.798   2.485   3.046  0.0329  0.8091 -1.5945
 9662TIP3   OH250476   4.470   6.464   6.607  0.1868  0.2130  0.4842
 9662TIP3    H150477   4.543   6.411   6.641 -0.2097 -0.2813  0.5739
 9662TIP3    H250478   4.392   6.413   6.627 -0.3154  1.3597  1.6304
 9663TIP3   OH250479   1.104   6.758  16.661  0.3014  0.3310  0.2601
 9663TIP3    H150480   1.060   6.688  16.613  0.6853  0.7621 -0.7576
 9663TIP3    H250481   1.112   6.726  16.750 -0.6448 -0.4029  0.0888
 9664TIP3   OH250482   5.340   3.787  12.575 -0.1032  0.2635  0.6469
 9664TIP3    H150483   5.276   3.830  12.632 -1.3145 -0.3858 -0.1897
 9664TIP3    H250484   5.354   3.701  12.616 -0.1749  0.1961  0.5290
 9665TIP3   OH250485   3.883   0.749   2.470  0.6446 -0.3058  0.0697
 9665TIP3    H150486   3.824   0.736   2.395 -0.2712  0.4816  0.6304
 9665TIP3    H250487   3.947   0.813   2.439 -0.3125  0.7679  0.2451
 9666TIP3   OH250488   6.110   0.412  14.242  0.2745  0.0005  0.2212
 9666TIP3    H150489   6.163   0.336  14.217 -0.8272 -0.5475 -0.4958
 9666TIP3    H250490   6.136   0.481  14.180  1.1395  0.1818  0.7579
 9667TIP3   OH250491   3.796   2.860   6.078 -0.1915 -0.6701 -0.2555
 9667TIP3    H150492   3.730   2.791   6.066 -0.8789 -0.0619 -0.0666
 9667TIP3    H250493   3.775   2.898   6.164 -0.6872  0.6828 -0.9428
 9668TIP3   OH250494   0.610   5.660  16.886 -0.1974  0.4201 -0.4228
 9668TIP3    H150495   0.661   5.683  16.809  3.7996 -1.8374  1.2599
 9668TIP3    H250496   0.565   5.579  16.862 -1.7975  1.5434 -1.3848
 9669TIP3   OH250497   5.677   4.823   3.134  0.2987  0.4933 -0.1493
 9669TIP3    H150498   5.676   4.843   3.228 -0.2722  0.0098 -0.0475
 9669TIP3    H250499   5.721   4.899   3.094  1.4877  0.2372  0.6049
 9670TIP3   OH250500   4.772   3.857   2.708  0.0187 -0.4848 -0.4438
 9670TIP3    H150501   4.863   3.866   2.735  0.3759 -2.1897 -0.9344
 9670TIP3    H250502   4.770   3.888   2.618  0.1705 -0.6750 -0.5129
 9671TIP3   OH250503   6.336   0.212  15.816  0.1132 -0.3270  0.0836
 9671TIP3    H150504   6.403   0.144  15.822  0.1070 -0.2628  1.0341
 9671TIP3    H250505   6.363   0.266  15.743 -0.2617 -1.7520 -1.1679
 9672TIP3   OH250506   3.686   2.775  17.136 -0.0794 -0.8773  0.0540
 9672TIP3    H150507   3.606   2.822  17.111 -0.8100 -1.8428  0.4712
 9672TIP3    H250508   3.742   2.781  17.059  0.5169  1.9573  0.6162
 9673TIP3   OH250509   6.180   6.662  11.301  0.0386 -0.0367  0.2532
 9673TIP3    H150510   6.093   6.700  11.314 -0.4977 -0.9822 -0.4289
 9673TIP3    H250511   6.191   6.660  11.206  0.7322 -0.0844  0.3301
 9674TIP3   OH250512   6.055   1.833  12.746 -0.3926  0.1800  0.2324
 9674TIP3    H150513   6.127   1.886  12.712 -0.2745  0.6903  1.2157
 9674TIP3    H250514   5.989   1.834  12.677  0.6989 -0.6488 -0.8558
 9675TIP3   OH250515   0.255   6.326   3.037 -0.6303 -0.0954 -0.7785
 9675TIP3    H150516   0.196   6.255   3.013 -2.1682  1.0143 -0.3743
 9675TIP3    H250517   0.271   6.314   3.131 -1.2372  0.3162 -0.6149
 9676TIP3   OH250518   3.874   1.563  15.186  0.0709 -0.0518  0.6081
 9676TIP3    H150519   3.790   1.519  15.168  0.4508 -0.8377  0.7172
 9676TIP3    H250520   3.916   1.569  15.100 -0.1749  0.5289  0.5205
 9677TIP3   OH250521   5.449   2.338  15.284 -0.2350  0.1285 -0.0095
 9677TIP3    H150522   5.495   2.406  15.334 -0.1198  1.2317 -1.5403
 9677TIP3    H250523   5.361   2.374  15.272 -0.9167 -1.0649  1.1583
 9678TIP3   OH250524   3.176   5.079  14.930 -0.3188  0.3677  0.2242
 9678TIP3    H150525   3.166   5.140  15.003 -0.7647 -0.8719  1.2423
 9678TIP3    H250526   3.226   5.006  14.967 -2.3886 -1.2946 -0.0277
 9679TIP3   OH250527   1.198   2.365   2.362 -0.8929  0.3098 -0.0763
 9679TIP3    H150528   1.286   2.365   2.400  0.0720 -0.6808 -2.1057
 9679TIP3    H250529   1.170   2.456   2.368  1.1106  1.0667 -1.0333
 9680TIP3   OH250530   5.004   2.811  16.357 -0.0626  0.7465  0.0416
 9680TIP3    H150531   4.963   2.802  16.443  1.7843 -0.2454  0.8824
 9680TIP3    H250532   5.052   2.894  16.363  0.2278  0.5802  0.0698
 9681TIP3   OH250533   1.460   0.423  14.282 -0.2827 -0.2089  0.1492
 9681TIP3    H150534   1.400   0.494  14.303 -0.6515 -0.7568  0.9787
 9681TIP3    H250535   1.436   0.352  14.342  0.9970 -0.5386  0.3048
 9682TIP3   OH250536   3.534   6.621   6.078  0.7481  0.2896  0.0775
 9682TIP3    H150537   3.483   6.701   6.062  0.1565 -0.3458 -1.4218
 9682TIP3    H250538   3.619   6.638   6.036  0.3116 -0.1684 -1.0438
 9683TIP3   OH250539   2.850   1.592  16.144 -0.8932 -0.8725  0.3137
 9683TIP3    H150540   2.900   1.536  16.084 -1.1290 -2.2640  1.3600
 9683TIP3    H250541   2.912   1.611  16.215 -0.7218  0.4798 -0.1814
 9684TIP3   OH250542   2.090   3.139  16.626  0.4645  0.0906  0.1981
 9684TIP3    H150543   2.014   3.124  16.683 -0.9984 -0.5820 -1.7919
 9684TIP3    H250544   2.066   3.216  16.574  1.3103  0.0847 -0.2163
 9685TIP3   OH250545   6.202   3.695   5.437  0.0327 -0.4902 -0.6043
 9685TIP3    H150546   6.190   3.735   5.523  1.1302 -0.3004 -0.5285
 9685TIP3    H250547   6.138   3.624   5.435  0.9896 -1.4714  0.9878
 9686TIP3   OH250548   1.850   5.320   3.242 -0.2347 -0.0512  0.0087
 9686TIP3    H150549   1.898   5.248   3.284 -0.9406 -0.1137  0.7491
 9686TIP3    H250550   1.761   5.287   3.234 -0.5506  0.7120  0.2786
 9687TIP3   OH250551   6.520   3.230   1.554 -0.8620 -0.0076 -0.1602
 9687TIP3    H150552   6.424   3.226   1.559 -0.8093 -0.4004  0.5135
 9687TIP3    H250553   6.540   3.322   1.574 -1.1265  0.2407 -0.9608
 9688TIP3   OH250554   4.669   3.054  11.229 -0.4371  0.2989 -0.4055
 9688TIP3    H150555   4.623   2.971  11.213 -1.7575  1.1527 -1.2161
 9688TIP3    H250556   4.762   3.030  11.232 -0.8703 -1.3983  0.7141
 9689TIP3   OH250557   0.851   0.246  13.778  0.5375 -0.7823 -0.3648
 9689TIP3    H150558   0.946   0.236  13.784  0.3816 -1.5035  1.4466
 9689TIP3    H250559   0.838   0.338  13.758  1.5945 -0.0036  2.1442
 9690TIP3   OH250560   5.031   1.808   5.856  0.4753  0.2877  0.2291
 9690TIP3    H150561   5.000   1.898   5.851  2.5289  1.0749  0.6042
 9690TIP3    H250562   5.043   1.781   5.764  0.4633  0.6307  0.1280
 9691TIP3   OH250563   6.274   2.869   3.958 -0.0822  0.2747  0.5852
 9691TIP3    H150564   6.365   2.895   3.967 -0.3582  1.9531 -0.8605
 9691TIP3    H250565   6.229   2.911   4.032  0.0812  0.6772  0.4541
 9692TIP3   OH250566   5.824   6.120  11.229  0.1413  0.1803  0.5230
 9692TIP3    H150567   5.913   6.157  11.232 -0.6917  2.5071 -1.2513
 9692TIP3    H250568   5.828   6.054  11.160  0.2691  0.9588 -0.2248
 9693TIP3   OH250569   1.023   2.008   2.958  0.0457  0.0441 -0.1825
 9693TIP3    H150570   1.094   1.946   2.942 -0.9571 -1.4213  0.7495
 9693TIP3    H250571   0.959   1.988   2.889 -0.1156  0.3103 -0.1096
 9694TIP3   OH250572   4.576   3.904   1.819 -0.2582  0.0371  0.2497
 9694TIP3    H150573   4.590   3.923   1.911 -2.0101  2.2052  0.1674
 9694TIP3    H250574   4.639   3.958   1.773 -0.1879 -0.1224  0.1590
 9695TIP3   OH250575   2.423   3.335   2.116  0.3857 -0.4948 -0.2668
 9695TIP3    H150576   2.368   3.351   2.039  2.1373 -0.2548 -1.5347
 9695TIP3    H250577   2.473   3.415   2.127  2.2533 -1.5240 -0.7165
 9696TIP3   OH250578   1.509   4.827   1.234 -0.2129  0.1834 -0.8835
 9696TIP3    H150579   1.450   4.781   1.294 -2.7043  1.3458 -2.2982
 9696TIP3    H250580   1.526   4.764   1.164  0.5334 -0.2610 -0.3190
 9697TIP3   OH250581   2.933   1.551   5.930  0.1297 -0.7022  0.0964
 9697TIP3    H150582   2.949   1.633   5.976  1.3725  0.4358 -2.2079
 9697TIP3    H250583   3.021   1.515   5.915 -0.2901 -1.4359 -0.6750
 9698TIP3   OH250584   1.372   2.949   3.295  0.1165  0.3273  0.1852
 9698TIP3    H150585   1.454   2.952   3.344  1.3375 -0.9193 -1.6608
 9698TIP3    H250586   1.392   2.995   3.213 -1.1068  0.2318 -0.1856
 9699TIP3   OH250587   4.778   0.656  13.891  0.0529 -0.0198 -0.0868
 9699TIP3    H150588   4.739   0.643  13.978  0.4285 -1.1621 -0.0755
 9699TIP3    H250589   4.712   0.703  13.842 -0.5909 -0.2891  0.5079
 9700TIP3   OH250590   5.462   4.088  12.097 -0.6708 -0.5446 -0.1351
 9700TIP3    H150591   5.477   4.072  12.004 -0.2438  0.0903 -0.1803
 9700TIP3    H250592   5.548   4.083  12.137 -0.9864 -2.0278  0.4388
 9701TIP3   OH250593   3.358   4.928  16.072  0.2560 -0.2424  0.4313
 9701TIP3    H150594   3.430   4.939  16.135 -0.4303  0.2015  1.1446
 9701TIP3    H250595   3.398   4.950  15.988  0.9989 -0.1327  0.7955
 9702TIP3   OH250596   5.814   3.325   2.729 -0.4346  0.3617 -0.1189
 9702TIP3    H150597   5.748   3.256   2.728  1.1281 -1.2158 -0.0401
 9702TIP3    H250598   5.764   3.407   2.723 -2.5179 -0.6239  1.9736
 9703TIP3   OH250599   0.398   5.082  12.445 -0.0301  0.1437  0.3664
 9703TIP3    H150600   0.329   5.148  12.436 -1.5143 -0.7160  3.6672
 9703TIP3    H250601   0.468   5.126  12.493  0.5883  0.2657 -0.6209
 9704TIP3   OH250602   1.180   6.800  11.267 -0.1763  0.1415  0.7776
 9704TIP3    H150603   1.190   6.718  11.218  1.5357 -0.9083  2.7156
 9704TIP3    H250604   1.270   6.828  11.285 -0.7436  2.0476  0.8511
 9705TIP3   OH250605   5.515   6.377   1.561  0.5265 -0.2613  0.4705
 9705TIP3    H150606   5.549   6.312   1.500  1.0695 -0.2435  0.7409
 9705TIP3    H250607   5.563   6.360   1.643 -0.7802 -0.8202  1.1390
 9706TIP3   OH250608   2.392   4.900  11.323  0.5036 -0.2819  0.1031
 9706TIP3    H150609   2.436   4.817  11.343 -1.2603 -0.7658  2.3652
 9706TIP3    H250610   2.407   4.953  11.401 -1.3554  0.1888  0.1730
 9707TIP3   OH250611   3.990   4.050   0.653  0.4076  0.4634  0.4236
 9707TIP3    H150612   3.981   4.106   0.730 -0.2096 -0.4950  1.0553
 9707TIP3    H250613   3.998   4.112   0.580  0.0420  1.3770  1.1364
 9708TIP3   OH250614   6.208   6.054  14.231 -0.1945  0.0482  0.3671
 9708TIP3    H150615   6.282   6.020  14.180  0.3138  0.7508  0.6211
 9708TIP3    H250616   6.131   6.027  14.181  0.2753  0.3836 -0.5705
 9709TIP3   OH250617   4.547   3.554  17.143 -0.2325  0.5160 -0.2825
 9709TIP3    H150618   4.521   3.564  17.052 -0.5365 -0.4471 -0.3073
 9709TIP3    H250619   4.479   3.598  17.193 -1.6839 -1.5159 -0.3716
 9710TIP3   OH250620   4.024   0.277   5.945  0.2059 -0.1272  0.3971
 9710TIP3    H150621   3.987   0.229   6.019  0.8223 -1.9368 -0.4114
 9710TIP3    H250622   4.118   0.266   5.954  0.3989  1.3602  0.4288
 9711TIP3   OH250623   4.034   6.285   3.229 -0.0674 -0.0466 -0.6011
 9711TIP3    H150624   4.115   6.276   3.279  0.0406 -1.8588 -1.0132
 9711TIP3    H250625   4.059   6.264   3.139 -1.2000 -2.0348 -0.5187
 9712TIP3   OH250626   1.041   0.208   0.989  0.2975 -0.1717 -0.2457
 9712TIP3    H150627   1.047   0.224   1.084 -0.7127 -1.0430 -0.0178
 9712TIP3    H250628   1.132   0.207   0.959  0.6609 -0.4467  0.8188
 9713TIP3   OH250629   5.316   1.032  15.880 -0.5426 -0.6778  0.4513
 9713TIP3    H150630   5.231   1.075  15.865 -0.1108 -0.0960 -0.4324
 9713TIP3    H250631   5.381   1.097  15.852  0.1315 -1.9540 -1.1241
 9714TIP3   OH250632   2.501   2.242   3.302 -0.4330 -0.1247  0.2041
 9714TIP3    H150633   2.582   2.293   3.308 -0.6350  0.2097  0.1258
 9714TIP3    H250634   2.517   2.165   3.357  0.1540 -0.3583 -0.2804
 9715TIP3   OH250635   0.498   0.673  16.939 -0.2315 -0.5016  0.6949
 9715TIP3    H150636   0.442   0.725  16.997 -2.1499 -1.8897  0.2101
 9715TIP3    H250637   0.555   0.624  16.998 -0.1710  0.2388  1.2616
 9716TIP3   OH250638   6.121   3.073  15.467  0.2289 -0.5683  0.3060
 9716TIP3    H150639   6.092   3.085  15.557 -0.5173 -1.6933  0.2335
 9716TIP3    H250640   6.122   3.162  15.431 -0.2938 -0.1948  1.1750
 9717TIP3   OH250641   2.365   6.263   2.874  0.3493  0.8628 -0.2639
 9717TIP3    H150642   2.378   6.181   2.826 -0.5145  1.4036 -1.4595
 9717TIP3    H250643   2.279   6.294   2.846  0.2822  1.7470  0.8398
 9718TIP3   OH250644   6.670   2.849   4.257 -0.0810  0.3610  0.5474
 9718TIP3    H150645   6.601   2.787   4.281 -0.4304  0.6950  0.4162
 9718TIP3    H250646   6.698   2.887   4.340 -0.0987  0.2702  0.5950
 9719TIP3   OH250647   4.136   5.927  12.775 -0.4001  0.2321 -0.4405
 9719TIP3    H150648   4.047   5.958  12.762 -0.9300 -1.5808 -1.5358
 9719TIP3    H250649   4.169   5.910  12.686  2.2135  3.7420 -0.3657
 9720TIP3   OH250650   5.489   5.694   5.414 -0.0098 -0.6532  0.0111
 9720TIP3    H150651   5.544   5.650   5.478  0.9193 -2.0215 -1.6401
 9720TIP3    H250652   5.543   5.765   5.381  0.0112 -0.7664 -0.1981
 9721TIP3   OH250653   3.550   4.825  13.604 -0.3642  0.2301 -0.4961
 9721TIP3    H150654   3.509   4.749  13.645  1.3992 -0.3461  0.3046
 9721TIP3    H250655   3.582   4.792  13.520  0.9212 -0.1180  0.1019
 9722TIP3   OH250656   2.746   5.692   4.003 -0.0324  0.1495 -0.4695
 9722TIP3    H150657   2.834   5.684   4.040 -1.1305  2.2655  3.0764
 9722TIP3    H250658   2.688   5.657   4.071 -2.0336 -1.0054 -2.6150
 9723TIP3   OH250659   0.891   1.264  11.886  0.2803 -0.0772  0.0007
 9723TIP3    H150660   0.939   1.284  11.805 -2.1998 -0.8656 -1.7925
 9723TIP3    H250661   0.866   1.350  11.920  1.8102  0.2864  0.2611
 9724TIP3   OH250662   5.704   0.417   2.772 -0.0322 -0.1372  0.3170
 9724TIP3    H150663   5.760   0.342   2.794 -1.5635 -1.1754  0.8146
 9724TIP3    H250664   5.756   0.494   2.796  1.3165 -1.0448  0.4094
 9725TIP3   OH250665   0.309   5.616  16.723 -0.1620 -0.4913 -0.1170
 9725TIP3    H150666   0.312   5.658  16.637  0.0943 -1.1348 -0.4242
 9725TIP3    H250667   0.247   5.544  16.713 -0.8022 -0.0364  0.4844
 9726TIP3   OH250668   4.926   3.332   0.364  0.5356  0.1509  0.0739
 9726TIP3    H150669   4.911   3.330   0.458  3.1141 -0.5156  0.5468
 9726TIP3    H250670   4.961   3.245   0.343  1.3882  0.7709 -1.2205
 9727TIP3   OH250671   4.280   0.254   1.806  0.1044  0.3053 -0.9189
 9727TIP3    H150672   4.326   0.173   1.829  1.1934  1.3325  0.7789
 9727TIP3    H250673   4.339   0.324   1.835 -1.5891  1.7026 -0.6590
 9728TIP3   OH250674   1.638   5.346   3.832 -0.2828 -0.4112  0.4665
 9728TIP3    H150675   1.617   5.257   3.804  0.2420 -0.9833  1.7907
 9728TIP3    H250676   1.734   5.347   3.840 -0.1355  0.7368 -0.9551
 9729TIP3   OH250677   0.334   0.378   3.943 -0.4206  0.6670  0.0038
 9729TIP3    H150678   0.265   0.351   4.004  0.6039 -0.5475  0.6971
 9729TIP3    H250679   0.398   0.424   3.998 -0.4622  1.3979 -0.5451
 9730TIP3   OH250680   6.348   1.194  15.826  0.2928  0.5121 -0.0153
 9730TIP3    H150681   6.271   1.149  15.862  0.1914  0.4080 -0.3487
 9730TIP3    H250682   6.314   1.278  15.796  0.0410  0.0016 -1.2517
 9731TIP3   OH250683   5.854   6.258  12.434  0.5663 -0.1857  0.0425
 9731TIP3    H150684   5.809   6.286  12.355 -1.0694 -0.6449  0.7677
 9731TIP3    H250685   5.944   6.243  12.406  0.0531 -0.2530 -1.7057
 9732TIP3   OH250686   4.738   4.767   1.412  0.2426 -0.0396  0.0704
 9732TIP3    H150687   4.789   4.824   1.471  0.9077  1.4172 -1.7958
 9732TIP3    H250688   4.738   4.682   1.455 -0.5249  1.2520  2.8692
 9733TIP3   OH250689   3.723   0.338   4.522 -0.0737  0.0254  0.1318
 9733TIP3    H150690   3.686   0.334   4.433 -0.1435 -0.1504  0.1692
 9733TIP3    H250691   3.650   0.370   4.576  0.0722  0.4805  0.0683
 9734TIP3   OH250692   6.017   5.608   5.566  0.4109  0.4669 -0.1764
 9734TIP3    H150693   6.100   5.575   5.532 -1.0540 -1.2935 -2.2761
 9734TIP3    H250694   5.984   5.537   5.622  1.5818  2.3286  3.1994
 9735TIP3   OH250695   1.715   3.125   0.795  0.1900  0.3805  0.8377
 9735TIP3    H150696   1.632   3.158   0.829 -1.7626 -1.7166 -1.4593
 9735TIP3    H250697   1.720   3.161   0.706  0.8054 -0.9227  0.3224
 9736TIP3   OH250698   5.590   6.384  14.002 -0.0287 -0.3942  0.6440
 9736TIP3    H150699   5.551   6.323  13.939 -2.7973  1.4598  0.3918
 9736TIP3    H250700   5.538   6.372  14.082  1.5068 -0.6028  1.6418
 9737TIP3   OH250701   2.040   1.671   2.857 -0.5115 -0.0471  0.1011
 9737TIP3    H150702   2.068   1.698   2.944  1.7216 -0.1118 -0.5262
 9737TIP3    H250703   2.058   1.577   2.854  0.6403  0.1779 -0.8105
 9738TIP3   OH250704   0.956   4.409   5.622  0.2602  0.1562  0.3091
 9738TIP3    H150705   0.920   4.436   5.537 -2.2617 -0.3932  1.0986
 9738TIP3    H250706   0.955   4.313   5.619  1.4695  0.1263  0.4739
 9739TIP3   OH250707   3.189   1.884  13.867 -0.0597 -0.1930 -0.0573
 9739TIP3    H150708   3.120   1.919  13.812  0.1224  1.3081  0.6159
 9739TIP3    H250709   3.266   1.878  13.810 -0.5124 -1.0865 -0.5924
 9740TIP3   OH250710   2.468   3.260   3.105 -0.2644  0.3462 -0.7781
 9740TIP3    H150711   2.559   3.265   3.136 -0.8879 -2.9200  2.1743
 9740TIP3    H250712   2.418   3.310   3.169 -0.8650 -0.7246 -0.3873
 9741TIP3   OH250713   6.059   6.658  12.856 -0.2340  0.0786 -0.2782
 9741TIP3    H150714   6.047   6.748  12.886  4.1721  0.6446  0.4166
 9741TIP3    H250715   6.106   6.666  12.773 -0.5755 -1.6072 -0.6874
 9742TIP3   OH250716   5.713   6.300  16.519  0.1889  0.0925 -0.2965
 9742TIP3    H150717   5.671   6.226  16.564 -0.5461  1.3654  1.2140
 9742TIP3    H250718   5.799   6.306  16.560 -0.2101  0.7997  0.4783
 9743TIP3   OH250719   0.735   5.554   4.107  0.0932  0.5025  0.3924
 9743TIP3    H150720   0.809   5.503   4.073  0.3997  0.3811  1.2183
 9743TIP3    H250721   0.679   5.568   4.031 -0.6754 -2.2158  0.3606
 9744TIP3   OH250722   6.091   4.107   3.829 -0.0667  0.1824  0.4230
 9744TIP3    H150723   6.143   4.052   3.886 -0.5611  0.6570  1.3560
 9744TIP3    H250724   6.094   4.063   3.744  0.9516 -0.3552  0.7200
 9745TIP3   OH250725   5.306   2.154   4.539 -0.6180 -0.0624 -0.0869
 9745TIP3    H150726   5.297   2.059   4.531  0.6678 -0.2383  0.2331
 9745TIP3    H250727   5.360   2.179   4.464  3.1975 -0.3402  2.2830
 9746TIP3   OH250728   1.311   1.316  11.220  0.2937 -0.1368 -0.2656
 9746TIP3    H150729   1.290   1.371  11.144  0.4881  1.2539  0.6559
 9746TIP3    H250730   1.399   1.343  11.244 -0.0384 -0.0379  0.8822
 9747TIP3   OH250731   0.262   4.333  13.155 -0.3807  0.2656 -0.7323
 9747TIP3    H150732   0.352   4.303  13.170  0.1458  2.8150  2.3957
 9747TIP3    H250733   0.207   4.261  13.188  0.7191  0.7377  2.4909
 9748TIP3   OH250734   4.884   4.379  11.570 -0.4561 -0.2650 -0.7042
 9748TIP3    H150735   4.933   4.309  11.529 -0.8193 -1.3962  0.6876
 9748TIP3    H250736   4.926   4.460  11.541  0.7685 -1.1132 -1.3342
 9749TIP3   OH250737   5.447   4.270  13.068 -0.3044 -0.2726 -0.3341
 9749TIP3    H150738   5.364   4.304  13.101 -0.4696 -2.5332  1.8140
 9749TIP3    H250739   5.507   4.276  13.142  0.3097 -2.3029 -0.6176
 9750TIP3   OH250740   0.669   0.412   3.780 -0.3028  0.0967  0.2558
 9750TIP3    H150741   0.714   0.328   3.789  1.2695  1.0317  1.7201
 9750TIP3    H250742   0.691   0.442   3.692  2.0440  0.5313  0.9322
 9751TIP3   OH250743   6.232   2.698  14.386  0.0451 -0.7665 -0.7228
 9751TIP3    H150744   6.314   2.740  14.412  0.3924 -1.3927 -0.7998
 9751TIP3    H250745   6.195   2.665  14.468  0.1000 -0.8937 -0.7497
 9752TIP3   OH250746   5.464   6.636  14.135  0.2318  0.3934 -0.4000
 9752TIP3    H150747   5.461   6.566  14.070  1.3661 -0.4501  0.4241
 9752TIP3    H250748   5.374   6.668  14.140 -0.4129 -1.3047 -0.4637
 9753TIP3   OH250749   2.179   0.094   4.692  0.8774  0.0455  0.0175
 9753TIP3    H150750   2.228   0.124   4.615 -0.3696 -0.5786 -1.0639
 9753TIP3    H250751   2.127   0.019   4.660 -1.1822  0.9909  0.9329
 9754TIP3   OH250752   1.781   3.846  16.920 -0.1509 -0.1916 -0.8104
 9754TIP3    H150753   1.845   3.904  16.879 -0.7534  0.2454 -1.1433
 9754TIP3    H250754   1.830   3.766  16.941  0.4526  0.0674 -1.2318
 9755TIP3   OH250755   1.675   3.466   2.999  0.4919 -0.9021  0.4361
 9755TIP3    H150756   1.593   3.457   2.951  0.8963 -1.2986 -0.1999
 9755TIP3    H250757   1.733   3.401   2.959  1.2247 -0.3820  0.6373
 9756TIP3   OH250758   2.666   1.286   1.336  0.2520  0.2988  0.3226
 9756TIP3    H150759   2.580   1.328   1.348 -0.0204  0.4898 -1.8328
 9756TIP3    H250760   2.646   1.198   1.304  0.8435  0.2222  0.1470
 9757TIP3   OH250761   5.222   6.755  14.153  0.3783 -0.3090 -0.0385
 9757TIP3    H150762   5.235   6.816  14.080  2.3490 -2.0716 -1.2758
 9757TIP3    H250763   5.134   6.722  14.142  0.2662  0.2655 -0.9645
 9758TIP3   OH250764   3.387   5.400   0.057 -0.1699 -1.1610 -0.3394
 9758TIP3    H150765   3.294   5.394   0.078 -0.3593  0.8865 -0.4487
 9758TIP3    H250766   3.421   5.465   0.119  0.9728 -1.0997 -1.0135
 9759TIP3   OH250767   0.979   2.220   0.626 -0.1872  0.1769  0.0844
 9759TIP3    H150768   0.929   2.246   0.549  1.5034  0.9526 -0.7780
 9759TIP3    H250769   0.972   2.294   0.686  0.7554  0.6954 -0.4466
 9760TIP3   OH250770   5.529   5.436  11.893  0.0172 -0.4165  0.7167
 9760TIP3    H150771   5.467   5.470  11.828  0.5650  0.5850  0.7033
 9760TIP3    H250772   5.570   5.361  11.850 -0.1330 -0.1968  0.1781
 9761TIP3   OH250773   5.784   4.334   5.627  0.5130  0.0136 -0.3131
 9761TIP3    H150774   5.804   4.322   5.720 -0.5031 -0.1545 -0.1000
 9761TIP3    H250775   5.778   4.428   5.615  2.0893  0.1142 -0.5497
 9762TIP3   OH250776   2.598   3.526  12.254 -0.3328 -0.0282  0.3564
 9762TIP3    H150777   2.517   3.576  12.263 -1.0988 -0.9609 -1.0118
 9762TIP3    H250778   2.578   3.441  12.293 -0.0746 -0.3292 -0.1602
 9763TIP3   OH250779   3.721   2.091  14.866 -0.1872  0.1167 -0.3941
 9763TIP3    H150780   3.797   2.050  14.826 -0.1436 -0.6625  0.4524
 9763TIP3    H250781   3.647   2.034  14.841 -0.0189 -0.9747  1.4161
 9764TIP3   OH250782   3.244   4.532   1.707 -0.1926 -0.2958  0.0118
 9764TIP3    H150783   3.155   4.496   1.704  0.0839 -1.1677  1.2163
 9764TIP3    H250784   3.232   4.625   1.727 -0.8440 -0.2918 -0.3691
 9765TIP3   OH250785   6.471   1.706   6.136 -0.4481  0.1132 -0.1806
 9765TIP3    H150786   6.473   1.693   6.231 -1.3630  0.7498 -0.0657
 9765TIP3    H250787   6.500   1.796   6.123  1.3571 -0.4832 -0.6525
 9766TIP3   OH250788   0.813   6.490  11.281  0.3583  0.1145 -0.0610
 9766TIP3    H150789   0.748   6.429  11.244 -1.1391  0.6471  1.5424
 9766TIP3    H250790   0.854   6.441  11.352  0.5517  0.3086 -0.0406
 9767TIP3   OH250791   0.940   0.795  17.135 -0.1624 -0.2377 -0.2184
 9767TIP3    H150792   0.862   0.839  17.167  0.3658  0.8130 -0.3409
 9767TIP3    H250793   1.013   0.845  17.173  0.4718  0.4068 -2.1692
 9768TIP3   OH250794   1.171   3.033  13.014  0.3310 -0.4187  0.2969
 9768TIP3    H150795   1.141   3.118  13.047  1.7999  0.5696 -0.7314
 9768TIP3    H250796   1.255   3.019  13.058  0.4722 -0.9384 -0.1339
 9769TIP3   OH250797   6.399   2.795  13.970 -0.2483 -0.3370  0.0858
 9769TIP3    H150798   6.365   2.710  13.998 -0.4236 -0.6123 -0.9281
 9769TIP3    H250799   6.332   2.830  13.911 -0.8565  1.1778  1.5966
 9770TIP3   OH250800   4.757   0.889   0.163  0.1514  0.3131  0.0923
 9770TIP3    H150801   4.736   0.967   0.111 -2.3511  0.2159  0.8442
 9770TIP3    H250802   4.778   0.822   0.099 -0.8716  0.7400 -0.7132
 9771TIP3   OH250803   2.177   0.411  15.195  0.2566  0.3282  0.0256
 9771TIP3    H150804   2.126   0.425  15.115 -1.1337 -0.1166  0.8144
 9771TIP3    H250805   2.254   0.467  15.183 -0.3165  0.8980 -1.2645
 9772TIP3   OH250806   5.547   4.611  13.682  0.0890  0.8873 -0.3886
 9772TIP3    H150807   5.548   4.705  13.667 -1.3791  1.2552  1.4049
 9772TIP3    H250808   5.621   4.594  13.739  0.4911  0.8943 -0.8997
 9773TIP3   OH250809   0.704   5.578  13.873 -0.6302 -0.5385  0.3198
 9773TIP3    H150810   0.642   5.519  13.917 -1.3215  0.0663  0.1763
 9773TIP3    H250811   0.686   5.664  13.910 -0.4596 -0.2111 -0.3443
 9774TIP3   OH250812   5.798   1.346  13.844  0.0666  0.1014  0.4404
 9774TIP3    H150813   5.764   1.368  13.932 -0.6245  0.1382  0.1747
 9774TIP3    H250814   5.878   1.398  13.836 -0.9519  1.7473  0.2483
 9775TIP3   OH250815   3.860   0.637   5.820 -0.1007 -0.0641  0.4733
 9775TIP3    H150816   3.938   0.581   5.821 -0.4179 -0.5433 -0.4010
 9775TIP3    H250817   3.807   0.603   5.749  0.0312  1.7931 -0.5941
 9776TIP3   OH250818   1.538   1.650   4.428  0.3189 -0.1117  0.4195
 9776TIP3    H150819   1.626   1.684   4.441  0.2855  0.1843 -0.1209
 9776TIP3    H250820   1.543   1.559   4.460  1.4125 -0.8245 -1.5971
 9777TIP3   OH250821   3.753   1.915  14.145 -0.0600 -0.1273 -0.5408
 9777TIP3    H150822   3.785   1.931  14.234 -2.0015  1.9799 -0.1454
 9777TIP3    H250823   3.797   1.981  14.092  0.0455 -0.4928 -0.9112
 9778TIP3   OH250824   5.020   3.989   2.691 -0.6252 -0.4352  0.6092
 9778TIP3    H150825   5.010   3.960   2.781  0.1027 -1.1893  0.4618
 9778TIP3    H250826   5.101   3.946   2.661  0.3289  1.4898  0.2635
 9779TIP3   OH250827   4.267   2.885   5.344 -0.3747  0.2537  0.5734
 9779TIP3    H150828   4.342   2.856   5.291  0.8192  2.6758  0.7873
 9779TIP3    H250829   4.236   2.963   5.299 -0.8785  0.9682  2.1161
 9780TIP3   OH250830   3.486   4.190   0.473 -0.1556 -0.5357  0.2726
 9780TIP3    H150831   3.464   4.098   0.490  1.5155 -0.9733  0.2400
 9780TIP3    H250832   3.531   4.219   0.552  0.3139 -0.0812 -0.1555
 9781TIP3   OH250833   1.794   2.298   3.860 -0.3777 -0.4652  0.1779
 9781TIP3    H150834   1.887   2.307   3.881 -0.2664  1.9028 -1.0108
 9781TIP3    H250835   1.777   2.204   3.867  1.9436 -0.8883  0.9919
 9782TIP3   OH250836   5.171   6.422  14.084  0.3002 -0.2358  0.1377
 9782TIP3    H150837   5.103   6.370  14.042 -0.6964 -0.2306  1.6642
 9782TIP3    H250838   5.175   6.503  14.033 -1.1341 -0.0736  0.2599
 9783TIP3   OH250839   4.387   5.340   1.328  0.3805 -0.1597  0.0620
 9783TIP3    H150840   4.347   5.266   1.282  1.2897  0.0473 -1.1193
 9783TIP3    H250841   4.481   5.323   1.324  0.5122  0.2044  1.3062
 9784TIP3   OH250842   2.718   4.229  10.942  0.0230 -0.2844 -0.2815
 9784TIP3    H150843   2.769   4.160  10.899 -0.1998 -0.5804 -0.0829
 9784TIP3    H250844   2.681   4.186  11.019 -0.8048 -0.1765 -0.6008
 9785TIP3   OH250845   3.729   3.802   5.190  0.4307 -0.2422 -0.2958
 9785TIP3    H150846   3.786   3.852   5.249  0.7216 -2.0202  1.0197
 9785TIP3    H250847   3.646   3.794   5.237 -0.2140  0.4886 -1.2693
 9786TIP3   OH250848   1.226   2.817   3.015  0.0009 -0.1596 -0.4142
 9786TIP3    H150849   1.246   2.908   2.994  0.8155  0.2539  1.9018
 9786TIP3    H250850   1.180   2.820   3.099  1.6154 -1.9580  0.6185
 9787TIP3   OH250851   5.593   5.022   5.009  0.2684 -0.2853  0.0873
 9787TIP3    H150852   5.597   5.112   5.039 -4.4047  0.0815  0.2444
 9787TIP3    H250853   5.538   4.977   5.072 -2.2479 -1.7733 -2.8848
 9788TIP3   OH250854   5.372   2.651  12.767  0.2546 -0.1756  0.2152
 9788TIP3    H150855   5.363   2.725  12.707  1.5261 -0.3851 -0.2487
 9788TIP3    H250856   5.461   2.656  12.800  0.1275 -1.0762  0.7507
 9789TIP3   OH250857   5.384   2.874   6.010  0.4719  0.6719  0.2025
 9789TIP3    H150858   5.435   2.793   6.001 -0.0288  0.2927  0.7362
 9789TIP3    H250859   5.432   2.938   5.956  0.7104 -0.0480 -0.4602
 9790TIP3   OH250860   4.214   6.325   1.803  0.0065  0.8794  0.2121
 9790TIP3    H150861   4.244   6.350   1.891  2.4615  0.7182 -0.5168
 9790TIP3    H250862   4.293   6.297   1.758 -1.5432 -1.2509 -1.3597
 9791TIP3   OH250863   2.087   5.271   0.108 -0.2133 -0.5899 -0.3927
 9791TIP3    H150864   2.008   5.252   0.057  0.3312  1.1234 -1.9779
 9791TIP3    H250865   2.159   5.236   0.055  0.2480 -0.2586  0.0012
 9792TIP3   OH250866   0.310   6.345   0.231 -0.2691 -0.1668  0.3153
 9792TIP3    H150867   0.253   6.422   0.224 -0.9934 -0.3577  3.1854
 9792TIP3    H250868   0.377   6.359   0.163 -1.4424  2.0271 -0.4934
 9793TIP3   OH250869   5.313   2.848   1.314  0.3433 -0.1757 -0.1729
 9793TIP3    H150870   5.280   2.808   1.395  0.8739 -0.4919 -0.1036
 9793TIP3    H250871   5.345   2.774   1.262 -0.5029 -0.0298 -0.9194
 9794TIP3   OH250872   0.483   3.664   0.633 -0.3985  0.3353 -0.4701
 9794TIP3    H150873   0.516   3.738   0.684  0.1606 -0.8643  0.9638
 9794TIP3    H250874   0.399   3.641   0.674 -0.4504  0.0066 -0.7504
 9795TIP3   OH250875   2.610   0.583  12.790 -0.5393 -0.2015 -0.3242
 9795TIP3    H150876   2.618   0.503  12.842 -0.6251 -0.3367 -0.5216
 9795TIP3    H250877   2.584   0.650  12.854  2.0427  0.2634  0.3678
 9796TIP3   OH250878   4.666   3.602   3.934  0.3140 -0.6859 -0.1106
 9796TIP3    H150879   4.607   3.578   4.005 -0.6281  2.5683  0.3468
 9796TIP3    H250880   4.612   3.598   3.855 -0.4758  1.7302  0.2358
 9797TIP3   OH250881   2.686   5.862  12.762  0.6868  0.4289  0.3818
 9797TIP3    H150882   2.670   5.863  12.668 -1.6681 -0.3044  0.7067
 9797TIP3    H250883   2.775   5.895  12.772  0.5962  1.6107 -2.0187
 9798TIP3   OH250884   0.249   4.740  12.389  0.1240 -0.3050 -0.4368
 9798TIP3    H150885   0.334   4.783  12.383 -0.5986  1.1863 -0.5004
 9798TIP3    H250886   0.214   4.742  12.300 -0.6831  0.6673 -0.1246
 9799TIP3   OH250887   3.666   5.108  15.805 -0.5040  0.0931  0.7865
 9799TIP3    H150888   3.666   5.091  15.711 -0.8804 -2.4777  1.1890
 9799TIP3    H250889   3.574   5.108  15.830 -0.3905  0.3390  1.2178
 9800TIP3   OH250890   0.654   3.493   5.235  0.4348 -0.5863  0.2770
 9800TIP3    H150891   0.584   3.558   5.246  1.2686  0.3607  0.1073
 9800TIP3    H250892   0.677   3.467   5.325 -0.6446 -1.4897  0.3162
 9801TIP3   OH250893   5.776   2.644  16.542 -0.0965 -0.1442 -0.0923
 9801TIP3    H150894   5.699   2.691  16.574 -0.5244 -1.0430  0.2250
 9801TIP3    H250895   5.774   2.560  16.588  1.3962  0.0345  0.3578
 9802TIP3   OH250896   4.661   0.432   2.930  0.0944  0.3599  0.9587
 9802TIP3    H150897   4.569   0.422   2.904 -0.4469  2.0966  2.0469
 9802TIP3    H250898   4.665   0.397   3.019  0.4532  0.4494  0.9799
 9803TIP3   OH250899   4.533   3.952  15.621 -0.2600  0.6284 -0.5499
 9803TIP3    H150900   4.602   3.982  15.681  0.1132  1.4077 -1.3369
 9803TIP3    H250901   4.548   3.858  15.613 -0.9256  0.3105  1.3194
 9804TIP3   OH250902   0.752   0.605  14.076  0.0310  0.5779  0.5584
 9804TIP3    H150903   0.847   0.616  14.068  0.3550 -1.8016  0.4332
 9804TIP3    H250904   0.739   0.580  14.168 -0.2550 -0.7191  0.1814
 9805TIP3   OH250905   1.172   4.153  17.082 -0.1736 -0.6844 -0.4487
 9805TIP3    H150906   1.186   4.134  16.990 -1.0222  0.9409 -0.9627
 9805TIP3    H250907   1.215   4.082  17.129  1.0229 -1.0745 -2.0767
 9806TIP3   OH250908   0.835   0.515  13.536  0.4020 -0.4410 -0.0005
 9806TIP3    H150909   0.810   0.510  13.629 -1.4076 -1.5556 -0.4802
 9806TIP3    H250910   0.930   0.502  13.536  0.1927 -2.7181  1.5856
 9807TIP3   OH250911   3.148   4.512  14.251  0.4218 -0.4679  0.7642
 9807TIP3    H150912   3.075   4.551  14.204 -0.6878  0.2421  2.9642
 9807TIP3    H250913   3.146   4.553  14.338  3.1719 -0.7338  1.0502
 9808TIP3   OH250914   2.898   3.305   5.593  0.2454 -0.1247  0.5907
 9808TIP3    H150915   2.805   3.288   5.581 -0.8086  4.4959  0.2822
 9808TIP3    H250916   2.938   3.279   5.509 -1.5229  1.5017 -0.8353
 9809TIP3   OH250917   4.044   1.180  15.278  0.3213 -0.2854  0.2397
 9809TIP3    H150918   4.108   1.196  15.348  0.9403  0.4683 -0.4783
 9809TIP3    H250919   4.057   1.088  15.255  0.9310 -0.2254  0.3165
 9810TIP3   OH250920   4.655   0.140  12.865  0.0838  0.1274 -0.5500
 9810TIP3    H150921   4.694   0.079  12.801 -0.6459  0.6091 -1.4757
 9810TIP3    H250922   4.726   0.201  12.885  0.2021  0.2342 -1.2478
 9811TIP3   OH250923   3.007   0.830  14.134 -0.4077  0.2687 -0.2664
 9811TIP3    H150924   3.057   0.749  14.151 -1.0471 -0.2475 -0.8025
 9811TIP3    H250925   3.074   0.899  14.134  0.3961 -0.4741 -1.4580
 9812TIP3   OH250926   4.496   6.665  14.544  0.4566  0.1347 -0.2896
 9812TIP3    H150927   4.544   6.602  14.598  0.6262  1.4543  1.1992
 9812TIP3    H250928   4.424   6.615  14.507 -0.3052 -0.6546  2.0669
 9813TIP3   OH250929   4.450   3.757   4.391 -0.5430 -0.9604 -0.5655
 9813TIP3    H150930   4.485   3.685   4.339 -0.2158 -0.8882 -0.4431
 9813TIP3    H250931   4.427   3.824   4.327  2.1854  0.1642 -0.4853
 9814TIP3   OH250932   3.545   4.674  16.787 -0.2242 -0.3127  0.4351
 9814TIP3    H150933   3.635   4.643  16.786 -0.2946 -0.5463  1.0187
 9814TIP3    H250934   3.492   4.598  16.763 -0.2123  0.0691 -0.9156
 9815TIP3   OH250935   0.046   1.708   0.999  0.3648 -0.0726  0.6571
 9815TIP3    H150936  -0.002   1.685   1.079 -2.0638 -0.7478 -0.8653
 9815TIP3    H250937  -0.020   1.702   0.930  2.5502 -0.3513 -1.5314
 9816TIP3   OH250938   1.303   1.516  14.681  0.6156  0.2970  0.7540
 9816TIP3    H150939   1.353   1.567  14.617  1.3550  0.7119  1.6425
 9816TIP3    H250940   1.336   1.545  14.766  3.9924 -4.2877  1.4141
 9817TIP3   OH250941   1.515   5.089  12.886 -0.3084 -0.3135  0.0136
 9817TIP3    H150942   1.440   5.045  12.928 -0.6176  1.1271  1.0286
 9817TIP3    H250943   1.486   5.179  12.873  0.3374 -0.3462 -1.9841
 9818TIP3   OH250944   5.398   4.680   3.305 -0.4149  0.8087  0.0626
 9818TIP3    H150945   5.469   4.744   3.311 -0.7968  1.2008  0.4950
 9818TIP3    H250946   5.422   4.624   3.231  0.0683  1.2702 -0.1345
 9819TIP3   OH250947   1.479   1.497  11.495  0.1798 -0.0715 -0.1409
 9819TIP3    H150948   1.569   1.526  11.479  0.3775 -0.8477 -0.4957
 9819TIP3    H250949   1.469   1.500  11.590  0.4254  0.4666 -0.1292
 9820TIP3   OH250950   0.709   4.452  12.357  0.0786  0.3039 -0.3712
 9820TIP3    H150951   0.616   4.442  12.375 -0.0831  0.4212 -1.1236
 9820TIP3    H250952   0.729   4.382  12.295  0.4468  0.4100 -0.3734
 9821TIP3   OH250953   2.080   1.677   5.403 -0.5780  0.2659  0.0924
 9821TIP3    H150954   2.005   1.618   5.397  0.4955 -1.2745  1.0500
 9821TIP3    H250955   2.154   1.624   5.375  0.0266  2.1642 -2.1902
 9822TIP3   OH250956   5.132   0.153  16.719  0.5703  0.3364 -0.2564
 9822TIP3    H150957   5.076   0.190  16.787  0.1224  0.8483 -0.8874
 9822TIP3    H250958   5.221   0.174  16.746  0.3484  1.3379 -0.2820
 9823TIP3   OH250959   4.285   1.127   4.930  0.7315  0.4400  0.4822
 9823TIP3    H150960   4.283   1.076   5.010  0.9940  1.2767  1.0396
 9823TIP3    H250961   4.372   1.110   4.893  0.1104 -1.0248 -0.3659
 9824TIP3   OH250962   0.959   3.234   2.915 -0.1843  0.3420  0.1611
 9824TIP3    H150963   0.960   3.240   3.010 -1.6909 -0.7275  0.2754
 9824TIP3    H250964   0.899   3.302   2.886 -0.9075 -0.3148  0.0893
 9825TIP3   OH250965   4.066   0.008  14.014 -0.0565  0.3787 -0.1472
 9825TIP3    H150966   4.012  -0.069  14.000  0.6749 -0.4529  1.3533
 9825TIP3    H250967   4.016   0.080  13.976 -1.0710 -0.7226 -0.9674
 9826TIP3   OH250968   4.725   6.152   1.475 -0.0429  0.0724 -0.3038
 9826TIP3    H150969   4.764   6.105   1.402 -3.0296  0.2705 -2.1845
 9826TIP3    H250970   4.776   6.233   1.481  1.6491 -0.9296 -0.6571
 9827TIP3   OH250971   1.460   6.034  13.215 -0.2120  0.1346  0.8685
 9827TIP3    H150972   1.479   5.981  13.293  0.6964  1.3219  1.4903
 9827TIP3    H250973   1.541   6.032  13.165 -0.1277  1.0241  0.9640
 9828TIP3   OH250974   3.382   6.195   5.478  0.4235  0.2638  0.0894
 9828TIP3    H150975   3.317   6.129   5.505  0.5623 -0.0680 -0.3708
 9828TIP3    H250976   3.421   6.225   5.560 -0.5359  0.7046  0.4020
 9829TIP3   OH250977   4.418   2.738   1.773  0.1100 -0.5920  0.0731
 9829TIP3    H150978   4.420   2.826   1.734 -0.3598 -0.8527 -0.5422
 9829TIP3    H250979   4.506   2.727   1.810  0.0324  0.3152  0.5639
 9830TIP3   OH250980   1.641   6.613  10.484 -0.5617  0.1880  0.0691
 9830TIP3    H150981   1.618   6.528  10.447 -0.7281 -1.1083  2.8669
 9830TIP3    H250982   1.693   6.592  10.562 -0.7273  2.6421  0.9408
 9831TIP3   OH250983   3.752   5.247  11.347 -0.6964 -0.1146 -0.1319
 9831TIP3    H150984   3.685   5.307  11.315  0.7990  1.7532  0.0616
 9831TIP3    H250985   3.717   5.212  11.428 -1.8166  0.0805 -0.5142
 9832TIP3   OH250986   0.220   0.079  15.123 -0.4445  0.7020  0.4067
 9832TIP3    H150987   0.220   0.170  15.153 -2.0840  0.5378  1.0415
 9832TIP3    H250988   0.142   0.072  15.067 -0.8492 -0.5031  1.0794
 9833TIP3   OH250989   1.169   2.375  11.459  0.5534  0.0654 -0.0506
 9833TIP3    H150990   1.165   2.294  11.510 -1.0033  0.2096  0.1273
 9833TIP3    H250991   1.106   2.361  11.388 -0.5091  1.4617  0.5647
 9834TIP3   OH250992   1.737   2.022   6.379  0.1277 -0.3071 -0.2908
 9834TIP3    H150993   1.829   2.036   6.403  0.1350  0.9755 -0.9771
 9834TIP3    H250994   1.691   2.096   6.416 -0.2822  0.2223 -1.7765
 9835TIP3   OH250995   3.250   5.046   3.984  0.4666  0.0295  0.3909
 9835TIP3    H150996   3.179   5.076   4.041  0.5598  0.0804  0.4826
 9835TIP3    H250997   3.316   5.115   3.991  0.9604 -0.4967  1.1118
 9836TIP3   OH250998   2.739   6.485   2.730 -0.2574  0.5827  0.2200
 9836TIP3    H150999   2.784   6.486   2.646  1.5218 -0.0484  1.0988
 9836TIP3    H251000   2.752   6.573   2.766 -0.1587  0.5605  0.2406
 9837TIP3   OH251001   4.595   0.940   6.487 -0.3162 -0.1243  0.3202
 9837TIP3    H151002   4.666   1.003   6.485 -0.6061  0.1861 -0.9351
 9837TIP3    H251003   4.619   0.877   6.556 -0.6125  2.0102  2.5039
 9838TIP3   OH251004   6.100   2.033  13.649 -0.6447 -0.0756 -0.7944
 9838TIP3    H151005   6.052   2.001  13.725 -1.4148  2.1382 -0.2505
 9838TIP3    H251006   6.192   2.031  13.677 -0.9998  1.9657  0.8056
 9839TIP3   OH251007   6.725   3.164   5.990  0.0549 -0.1335  0.3864
 9839TIP3    H151008   6.786   3.228   6.025 -1.0559  0.9050  0.4828
 9839TIP3    H251009   6.761   3.142   5.904  1.4418 -0.8141  1.1009
 9840TIP3   OH251010   5.212   5.857  10.647  0.3646  0.0152  0.2197
 9840TIP3    H151011   5.186   5.850  10.555  1.2642  0.4115 -0.0792
 9840TIP3    H251012   5.170   5.937  10.678 -0.8534 -0.6956  0.4905
 9841TIP3   OH251013   0.986   3.430   6.682 -0.6713  0.1554  0.0413
 9841TIP3    H151014   0.964   3.518   6.651  0.7487  0.4643 -0.1623
 9841TIP3    H251015   1.070   3.410   6.640 -1.4620 -1.7442 -0.7630
 9842TIP3   OH251016   3.328   2.891  15.576 -0.0773  0.2043  0.1061
 9842TIP3    H151017   3.390   2.947  15.623  0.8806 -0.8031  0.0921
 9842TIP3    H251018   3.339   2.805  15.616 -0.9601 -0.1483 -0.3940
 9843TIP3   OH251019   0.803   2.710   5.473  0.7045 -0.1025  0.6504
 9843TIP3    H151020   0.855   2.662   5.407  1.6608  0.6870  0.8056
 9843TIP3    H251021   0.860   2.782   5.500 -0.9123  1.5040 -0.0196
 9844TIP3   OH251022   4.122   6.067   5.166  0.0782  0.1757 -0.3203
 9844TIP3    H151023   4.046   6.108   5.126 -2.4417 -0.3333  3.5154
 9844TIP3    H251024   4.095   5.977   5.183  2.2586 -0.5681 -0.4428
 9845TIP3   OH251025   5.912   4.086  12.600  0.0562 -0.2497 -0.3907
 9845TIP3    H151026   5.879   4.173  12.624  1.0315  0.3412 -1.0834
 9845TIP3    H251027   5.979   4.104  12.534 -0.2915 -1.5907 -1.1430
 9846TIP3   OH251028   5.042   6.241  15.081 -0.0114  0.0071 -0.7506
 9846TIP3    H151029   5.122   6.254  15.030 -0.4260  1.0905 -1.1492
 9846TIP3    H251030   4.994   6.173  15.035  1.4584 -1.9700  0.4604
 9847TIP3   OH251031   0.857   3.681   5.557 -0.2375  0.6768 -0.3117
 9847TIP3    H151032   0.951   3.666   5.568 -0.1894  1.1213 -0.0906
 9847TIP3    H251033   0.851   3.764   5.510 -0.5228  1.0918  0.4296
 9848TIP3   OH251034   3.382   2.307   1.839  0.5452 -0.7486 -0.0015
 9848TIP3    H151035   3.314   2.310   1.906 -1.0316 -0.5768 -1.5306
 9848TIP3    H251036   3.386   2.215   1.812  0.9619 -0.7672  0.1162
 9849TIP3   OH251037   2.762   0.978  15.902 -0.3864  0.3388  0.2778
 9849TIP3    H151038   2.709   0.938  15.971 -1.5008  1.7041  0.2562
 9849TIP3    H251039   2.757   1.072  15.919 -0.1119  0.6522 -1.2446
 9850TIP3   OH251040   1.715   0.544  11.506  0.7352  0.2339  0.6165
 9850TIP3    H151041   1.701   0.585  11.421 -0.3515 -0.7533  0.3003
 9850TIP3    H251042   1.684   0.608  11.569  0.2218  0.4053  0.1970
 9851TIP3   OH251043   5.373   3.069  13.125 -0.2028  0.4802 -0.2392
 9851TIP3    H151044   5.466   3.066  13.148  0.0042  2.3694 -0.7070
 9851TIP3    H251045   5.360   3.156  13.088 -2.5706  0.9705  1.5318
 9852TIP3   OH251046   0.738   5.615  15.780  0.5747 -0.7702 -0.0944
 9852TIP3    H151047   0.675   5.652  15.842  0.0109  0.4907 -1.3459
 9852TIP3    H251048   0.806   5.575  15.834 -0.0124  0.0981  1.3178
 9853TIP3   OH251049   4.693   2.080   1.031 -0.1763 -0.9464  0.5462
 9853TIP3    H151050   4.683   2.163   1.078  2.0866 -0.3153  0.0673
 9853TIP3    H251051   4.768   2.037   1.074  1.4506 -0.7126 -1.8416
 9854TIP3   OH251052   3.747   2.983   4.402 -0.1239  0.0490 -0.1553
 9854TIP3    H151053   3.744   2.934   4.320  1.1829  0.0283 -0.2205
 9854TIP3    H251054   3.741   3.074   4.376 -0.1051  0.0247 -0.2448
 9855TIP3   OH251055   1.287   2.823   4.811  0.5295 -1.1015 -0.1178
 9855TIP3    H151056   1.379   2.840   4.835  0.1984  0.2469  0.2853
 9855TIP3    H251057   1.265   2.893   4.751 -0.4151 -1.0729  0.2444
 9856TIP3   OH251058   1.700   5.835  15.233 -0.0515  0.1124  0.2261
 9856TIP3    H151059   1.759   5.893  15.282  0.2489 -1.9538  2.4900
 9856TIP3    H251060   1.758   5.776  15.186 -0.3227  0.0405 -0.0193
 9857TIP3   OH251061   4.935   2.051   1.184  0.9711 -0.1549  0.3238
 9857TIP3    H151062   4.953   2.026   1.274  0.6709  1.5072  0.8725
 9857TIP3    H251063   5.021   2.067   1.145  1.2223 -2.6045 -0.2570
 9858TIP3   OH251064   1.961   2.772   2.455  0.0790  0.1054  0.4028
 9858TIP3    H151065   1.963   2.724   2.538 -1.4388 -0.9547 -0.1370
 9858TIP3    H251066   2.026   2.842   2.467  1.7880 -1.5657  1.5080
 9859TIP3   OH251067   2.747   2.299   0.449 -0.5427  0.2339 -0.2841
 9859TIP3    H151068   2.774   2.350   0.373 -0.4501 -1.3887 -1.4081
 9859TIP3    H251069   2.653   2.311   0.456 -0.3884  1.2888  0.0555
 9860TIP3   OH251070   4.855   4.912  16.996  0.2036 -0.4859  0.0426
 9860TIP3    H151071   4.908   4.927  16.917  1.1474 -0.1926  0.7105
 9860TIP3    H251072   4.876   4.986  17.053 -0.0848 -0.9526  0.7655
 9861TIP3   OH251073   3.314   1.718   1.551  0.1505  0.5134 -0.4118
 9861TIP3    H151074   3.257   1.713   1.628  1.6790  1.5572  0.8619
 9861TIP3    H251075   3.392   1.765   1.582  1.5416 -0.5013 -2.1701
 9862TIP3   OH251076   2.843   2.058  14.776 -0.2344 -0.3039 -0.1930
 9862TIP3    H151077   2.800   2.086  14.695  1.1582  0.2428 -0.7683
 9862TIP3    H251078   2.771   2.043  14.837 -1.3177 -0.7489 -1.5294
 9863TIP3   OH251079   4.539   1.300  14.445  0.6004 -0.0692 -0.6804
 9863TIP3    H151080   4.502   1.387  14.459  1.2946  0.1858 -0.4044
 9863TIP3    H251081   4.463   1.245  14.423  0.1954  0.6622 -1.1549
 9864TIP3   OH251082   2.907   3.132   3.535  0.0339 -0.1318 -0.0001
 9864TIP3    H151083   2.967   3.154   3.605 -0.8470 -1.4088  1.2099
 9864TIP3    H251084   2.841   3.201   3.537  0.9396  0.7951 -0.7681
 9865TIP3   OH251085   2.909   0.620  12.876 -1.0108  0.1694 -0.1657
 9865TIP3    H151086   2.892   0.644  12.967 -0.7347  2.2123 -0.6075
 9865TIP3    H251087   2.954   0.696  12.840  2.2413 -1.9644 -1.0561
 9866TIP3   OH251088   4.266   0.673  16.894  0.8877  0.0434 -0.2637
 9866TIP3    H151089   4.243   0.700  16.804 -0.1022  0.5982  0.1321
 9866TIP3    H251090   4.287   0.580  16.887  0.6200  0.0350 -1.0453
 9867TIP3   OH251091   6.366   0.367  11.634  0.5275  0.2235  0.1292
 9867TIP3    H151092   6.373   0.272  11.631 -3.3468 -0.1977 -0.5249
 9867TIP3    H251093   6.320   0.385  11.716  0.9497  1.5279  0.1096
 9868TIP3   OH251094   2.497   5.515  14.124 -0.1826 -0.4412 -0.1876
 9868TIP3    H151095   2.512   5.576  14.197  0.1334 -0.3252 -0.3460
 9868TIP3    H251096   2.478   5.431  14.167  0.4304 -0.4747  0.0316
 9869TIP3   OH251097   5.819   1.398   6.839 -0.3931 -0.1239 -0.3694
 9869TIP3    H151098   5.778   1.477   6.877  1.2002  0.9300 -0.7298
 9869TIP3    H251099   5.900   1.430   6.799  1.5533 -2.2680  1.5301
 9870TIP3   OH251100   1.823   2.729  15.775 -0.5347  0.4017 -0.5945
 9870TIP3    H151101   1.899   2.681  15.809 -1.1948  0.5493  1.2105
 9870TIP3    H251102   1.793   2.782  15.849 -1.1584  1.9268 -1.8985
 9871TIP3   OH251103   5.362   4.425  17.237  0.3900 -0.0031  0.1771
 9871TIP3    H151104   5.309   4.392  17.165  0.2870  0.8074 -0.1287
 9871TIP3    H251105   5.405   4.503  17.202  0.6828  0.1550  0.8587
 9872TIP3   OH251106   0.510   4.657  11.897  0.7518  0.7377 -0.1199
 9872TIP3    H151107   0.434   4.697  11.939  0.8652  1.4681 -0.5947
 9872TIP3    H251108   0.559   4.731  11.862  0.7916  0.1557 -1.3095
 9873TIP3   OH251109   0.768   0.935   1.152  0.1110  0.5604 -0.1691
 9873TIP3    H151110   0.749   0.905   1.241  2.1362  1.0342  0.4623
 9873TIP3    H251111   0.750   1.029   1.154  0.1542  0.5712 -0.2663
 9874TIP3   OH251112   2.855   1.611   2.629 -0.4580 -0.7779 -0.4754
 9874TIP3    H151113   2.920   1.543   2.646 -1.1094 -1.2579  0.1893
 9874TIP3    H251114   2.854   1.621   2.534  2.1315  0.8096 -0.4441
 9875TIP3   OH251115   4.569   1.091   1.494 -0.0437 -0.3294 -0.4736
 9875TIP3    H151116   4.604   1.027   1.556  0.8710 -0.7559 -1.3939
 9875TIP3    H251117   4.601   1.175   1.525  0.2199 -0.5121 -0.2432
 9876TIP3   OH251118   1.556   3.959   6.088  0.2161 -0.4237 -0.2027
 9876TIP3    H151119   1.519   3.882   6.131  1.5683  1.0648  4.2138
 9876TIP3    H251120   1.642   3.970   6.128  0.1928  3.1926 -0.7864
 9877TIP3   OH251121   2.093   5.114   5.641 -0.3423  0.9177 -0.7478
 9877TIP3    H151122   2.056   5.188   5.593 -1.0925  0.8182 -0.3352
 9877TIP3    H251123   2.129   5.152   5.721 -0.3123  0.8970 -0.7512
 9878TIP3   OH251124   4.824   1.572   0.971 -0.2531 -0.4015 -0.9580
 9878TIP3    H151125   4.773   1.653   0.978  0.1599 -0.2055  0.0034
 9878TIP3    H251126   4.764   1.504   1.002 -0.8589 -0.6040 -2.4763
 9879TIP3   OH251127   1.243   3.780   6.751  0.1627 -0.5278 -0.4115
 9879TIP3    H151128   1.265   3.788   6.843  0.4485  0.1010 -0.5297
 9879TIP3    H251129   1.316   3.732   6.712  0.8926  0.7218 -0.6252
 9880TIP3   OH251130   3.871   2.842  15.201 -0.2282 -0.6308  0.4629
 9880TIP3    H151131   3.845   2.878  15.286  0.1290  0.8707 -0.0428
 9880TIP3    H251132   3.891   2.750  15.220  0.2247 -0.2384  2.0874
 9881TIP3   OH251133   4.755   0.382   0.018  0.2103 -0.3551  0.1891
 9881TIP3    H151134   4.718   0.314   0.075  1.7279  0.0003  1.6683
 9881TIP3    H251135   4.684   0.446   0.009 -0.7428 -1.4005 -0.0248
 9882TIP3   OH251136   2.103   4.648   1.573  0.4618  0.0940 -0.1023
 9882TIP3    H151137   2.093   4.648   1.478 -0.1707  0.4634 -0.0432
 9882TIP3    H251138   2.015   4.630   1.606  0.8019 -0.6636  0.4054
 9883TIP3   OH251139   4.446   5.500   1.961 -0.9321 -0.1393  0.0375
 9883TIP3    H151140   4.460   5.509   2.056 -0.7487 -1.4262  0.1538
 9883TIP3    H251141   4.351   5.499   1.950 -0.9897 -1.7383  0.4286
 9884TIP3   OH251142   4.826   1.434   3.139 -0.4778  0.6614 -0.4221
 9884TIP3    H151143   4.889   1.362   3.131  0.4158  1.3015  0.5457
 9884TIP3    H251144   4.751   1.406   3.087 -0.7874 -1.6694  1.1326
 9885TIP3   OH251145   1.303   6.521   3.502  0.9630  0.2525 -0.2989
 9885TIP3    H151146   1.293   6.427   3.487  0.4596 -0.0265  1.5754
 9885TIP3    H251147   1.251   6.562   3.432  0.2934 -0.8939 -0.4918
 9886TIP3   OH251148   6.572   6.447  15.155  0.2139 -0.7648 -0.0446
 9886TIP3    H151149   6.565   6.422  15.248 -1.2309 -0.9154 -0.1703
 9886TIP3    H251150   6.523   6.378  15.109 -0.3854  0.1324 -0.7721
 9887TIP3   OH251151   1.127   4.271   4.117 -0.9867 -0.3042  1.1308
 9887TIP3    H151152   1.078   4.200   4.074 -2.4189  0.7279  0.9997
 9887TIP3    H251153   1.066   4.305   4.183  0.0378  0.1990  1.8395
 9888TIP3   OH251154   0.126   1.529   2.732 -0.3867  0.2509  0.2667
 9888TIP3    H151155   0.100   1.531   2.640  3.2794  1.7890 -0.8824
 9888TIP3    H251156   0.205   1.583   2.737  0.3075 -0.7930  4.1049
 9889TIP3   OH251157   5.288   5.067  16.951  0.3210  0.2102  0.1876
 9889TIP3    H151158   5.274   5.156  16.916  1.0202  0.5775  0.8117
 9889TIP3    H251159   5.370   5.038  16.910  1.3892  0.8159  1.7803
 9890TIP3   OH251160   4.285   2.110   2.585 -0.6706  0.2901  0.7893
 9890TIP3    H151161   4.337   2.190   2.576  1.0675 -0.8898 -0.3209
 9890TIP3    H251162   4.267   2.104   2.679 -1.9180  2.5828  0.7619
 9891TIP3   OH251163   1.014   1.745   2.164 -0.6041 -0.1466 -0.1299
 9891TIP3    H151164   0.961   1.669   2.139 -0.3273 -0.1658 -0.6819
 9891TIP3    H251165   1.000   1.807   2.092  0.4552 -0.3227 -0.4982
 9892TIP3   OH251166   6.374   1.423  14.329  0.2139 -0.7104  0.0048
 9892TIP3    H151167   6.348   1.362  14.397 -0.7450 -1.4435 -0.9692
 9892TIP3    H251168   6.341   1.384  14.248  0.3328  0.6699 -0.7502
 9893TIP3   OH251169   4.778   4.646   1.728  0.9641 -0.4628 -0.1703
 9893TIP3    H151170   4.739   4.580   1.671 -0.1089  2.1657 -2.7416
 9893TIP3    H251171   4.708   4.673   1.786  0.2637  0.8493 -1.5497
 9894TIP3   OH251172   2.088   1.651   1.694 -0.3304 -0.2020  0.1912
 9894TIP3    H151173   2.022   1.701   1.742  0.8331  1.4471  0.1616
 9894TIP3    H251174   2.136   1.604   1.762 -0.0276  0.4886  0.4710
 9895TIP3   OH251175   0.936   4.977  15.720 -0.2297  0.0329  0.8359
 9895TIP3    H151176   0.855   5.013  15.684 -0.5958 -1.1271  0.4431
 9895TIP3    H251177   0.969   4.919  15.651  0.0583 -0.7747  1.6370
 9896TIP3   OH251178   0.179   0.697   2.410  0.0644 -0.7259 -0.1519
 9896TIP3    H151179   0.162   0.616   2.458  1.7112 -1.5054 -0.7893
 9896TIP3    H251180   0.246   0.672   2.346 -0.4124  0.8266 -1.2937
 9897TIP3   OH251181   3.423   1.887  15.170  0.9723 -0.4326  0.1561
 9897TIP3    H151182   3.489   1.884  15.239  1.2272  0.3336 -0.0512
 9897TIP3    H251183   3.468   1.925  15.095  0.6393 -1.0779 -0.3784
 9898TIP3   OH251184   5.097   3.474  14.575  0.2123 -0.0852 -0.3609
 9898TIP3    H151185   5.101   3.485  14.480 -0.3243  0.0998 -0.3660
 9898TIP3    H251186   5.164   3.409  14.595  0.8514  0.4273 -0.7758
 9899TIP3   OH251187   4.824   2.848   1.435 -0.7268  0.4744 -0.0398
 9899TIP3    H151188   4.887   2.831   1.505  0.0780 -0.2646 -0.9198
 9899TIP3    H251189   4.740   2.819   1.470  0.1871 -3.3130 -0.6147
 9900TIP3   OH251190   3.871   2.295  15.239  0.5928 -0.2190 -0.1629
 9900TIP3    H151191   3.809   2.222  15.230  0.3235 -0.1140  0.7838
 9900TIP3    H251192   3.957   2.254  15.234  0.5052 -0.2861 -2.2695
 9901TIP3   OH251193   1.245   5.607   3.518  0.5176 -0.4644  0.4124
 9901TIP3    H151194   1.234   5.701   3.508 -0.5433 -0.4860  1.1386
 9901TIP3    H251195   1.313   5.598   3.585  1.2537 -0.2358 -0.2936
 9902TIP3   OH251196   2.441   5.135  12.151 -0.6151  0.4852  0.3298
 9902TIP3    H151197   2.358   5.153  12.106 -1.3913 -0.9406  1.1214
 9902TIP3    H251198   2.438   5.190  12.229  0.8801  3.2198 -1.3505
 9903TIP3   OH251199   2.894   2.692  12.282  0.0448  0.2520  0.4300
 9903TIP3    H151200   2.862   2.657  12.199 -0.8315 -0.4677  1.0473
 9903TIP3    H251201   2.916   2.783  12.262 -3.3175  1.1418  0.1119
 9904TIP3   OH251202   0.308   5.471  12.784  0.0394 -0.4032  0.3609
 9904TIP3    H151203   0.269   5.531  12.846 -1.0639  0.2707 -0.9301
 9904TIP3    H251204   0.270   5.386  12.805 -0.0738 -0.2410  0.8123
 9905TIP3   OH251205   4.955   2.279  16.053 -0.7437  0.7125  0.3278
 9905TIP3    H151206   4.961   2.219  16.127  1.1672 -0.4282 -0.6522
 9905TIP3    H251207   4.869   2.261  16.014  0.8375 -3.7885 -1.7296
 9906TIP3   OH251208   2.653   0.189  13.435  0.4301  0.3881  0.1275
 9906TIP3    H151209   2.600   0.268  13.440  0.8569  0.8173 -1.5581
 9906TIP3    H251210   2.744   0.220  13.432  0.6234 -0.1779 -0.0622
 9907TIP3   OH251211   2.329   1.593  13.260  0.3677  0.5608  0.7943
 9907TIP3    H151212   2.324   1.669  13.318 -0.8689  0.8425  0.3555
 9907TIP3    H251213   2.417   1.558  13.274 -0.1773  0.0830  3.5164
 9908TIP3   OH251214   3.399   0.935  12.391  0.9033  0.4713  0.2392
 9908TIP3    H151215   3.373   1.015  12.345  0.5993  0.9066  1.1501
 9908TIP3    H251216   3.486   0.914  12.355  1.0311  1.2599  0.0661
 9909TIP3   OH251217   3.632   4.894   3.616 -0.0672  0.7389  0.1521
 9909TIP3    H151218   3.605   4.809   3.582  1.5562  0.4188 -0.4257
 9909TIP3    H251219   3.581   4.904   3.697  2.3047 -2.5379  2.3102
 9910TIP3   OH251220   6.366   4.733  16.386 -0.2212 -0.0699 -0.5721
 9910TIP3    H151221   6.358   4.661  16.324  1.1660  0.9608 -2.0498
 9910TIP3    H251222   6.283   4.734  16.433 -1.2844 -0.9929 -2.3145
 9911TIP3   OH251223   2.897   3.749   1.056  0.1466  0.6761  0.0308
 9911TIP3    H151224   2.827   3.787   1.110  0.7092  2.3190 -0.3373
 9911TIP3    H251225   2.977   3.788   1.091  0.7675 -0.2794 -0.3112
 9912TIP3   OH251226   2.349   3.403   1.074  0.4363  0.3428  0.0365
 9912TIP3    H151227   2.382   3.317   1.103 -0.2812  0.6433  1.8514
 9912TIP3    H251228   2.428   3.452   1.051  0.9112 -0.4808 -0.1573
 9913TIP3   OH251229   3.993   3.295   4.911  0.2202  0.3167  0.1291
 9913TIP3    H151230   3.998   3.377   4.863  0.4729  0.8311  1.0176
 9913TIP3    H251231   4.054   3.237   4.865 -0.0295  0.5822 -0.5590
 9914TIP3   OH251232   5.044   5.590  11.583  0.1564  0.0998  0.0882
 9914TIP3    H151233   5.116   5.530  11.562 -0.0621 -0.1943  0.1653
 9914TIP3    H251234   5.000   5.605  11.499  0.4295  0.4425  0.0047
 9915TIP3   OH251235   5.483   4.941   5.728  0.3235  0.3024  0.3062
 9915TIP3    H151236   5.510   5.017   5.780 -1.5459 -0.2113  2.1795
 9915TIP3    H251237   5.389   4.953   5.715  0.2562 -0.9946 -0.6032
 9916TIP3   OH251238   2.704   4.120   1.345  0.4875 -0.4910 -0.6140
 9916TIP3    H151239   2.720   4.187   1.279  0.8758 -0.9505 -0.9861
 9916TIP3    H251240   2.759   4.146   1.419 -1.3583  1.0959  0.3043
 9917TIP3   OH251241   4.744   6.056   4.914  0.3953  0.0766 -0.1348
 9917TIP3    H151242   4.698   6.137   4.895  0.2151 -0.2157 -1.0021
 9917TIP3    H251243   4.792   6.036   4.833  0.0176 -0.9464 -0.1205
 9918TIP3   OH251244   5.950   2.959  11.450 -0.0523  0.1665 -0.1051
 9918TIP3    H151245   6.005   3.023  11.495  0.9971 -0.8086  0.0427
 9918TIP3    H251246   6.012   2.901  11.406 -0.9451 -1.1839  0.3662
 9919TIP3   OH251247   1.313   3.052  12.670 -0.7466  0.2163  0.2737
 9919TIP3    H151248   1.332   3.009  12.754 -0.5573  0.8380  0.5573
 9919TIP3    H251249   1.343   3.142  12.682 -2.6031  0.8664  0.2439
 9920TIP3   OH251250   1.483   6.585  12.733  1.0895 -0.1354  0.5873
 9920TIP3    H151251   1.560   6.600  12.678 -0.3423  2.0490 -0.9890
 9920TIP3    H251252   1.467   6.669  12.775 -0.0083 -0.7636  1.4688
 9921TIP3   OH251253   2.900   1.616   1.677  0.8169 -0.3582 -0.1340
 9921TIP3    H151254   2.937   1.645   1.594  0.0121 -0.0110 -0.3807
 9921TIP3    H251255   2.920   1.522   1.680  0.4017 -0.4865 -0.9683
 9922TIP3   OH251256   2.601   3.394  11.089 -0.0849  0.8585  0.7404
 9922TIP3    H151257   2.645   3.319  11.051 -0.6653  0.4320  0.8825
 9922TIP3    H251258   2.667   3.463  11.091  0.6632  0.1503  1.2444
 9923TIP3   OH251259   1.204   6.431  11.300 -0.1007 -0.1065 -0.0223
 9923TIP3    H151260   1.261   6.487  11.353 -2.9558  2.4091  0.7035
 9923TIP3    H251261   1.212   6.465  11.211 -0.5651  0.4134  0.1237
 9924TIP3   OH251262   2.034   2.270  12.689  0.2378  0.5565 -0.2549
 9924TIP3    H151263   2.068   2.190  12.728  1.4095  0.8775 -0.5755
 9924TIP3    H251264   2.049   2.259  12.595  0.5793  1.2317 -0.2813
 9925TIP3   OH251265   4.352   3.170   4.858  0.0114  0.1314  0.2203
 9925TIP3    H151266   4.420   3.163   4.790 -0.3362 -0.5023 -0.0716
 9925TIP3    H251267   4.352   3.262   4.882  0.3672  0.3029 -0.4094
 9926TIP3   OH251268   0.789   2.836   5.814 -0.3428  0.3316  0.5785
 9926TIP3    H151269   0.790   2.747   5.779 -0.1340 -0.0605  1.5334
 9926TIP3    H251270   0.785   2.824   5.909 -0.3803  1.3457  0.7175
 9927TIP3   OH251271   5.363   1.377   3.533  0.0781  0.4791 -0.1289
 9927TIP3    H151272   5.375   1.468   3.560  1.2998  0.3124 -0.0638
 9927TIP3    H251273   5.450   1.338   3.540 -0.7804 -1.2904  1.9881
 9928TIP3   OH251274   3.455   3.174  11.498  0.1952  0.3891 -0.1366
 9928TIP3    H151275   3.476   3.173  11.591 -0.9316 -0.0236  0.1329
 9928TIP3    H251276   3.379   3.232  11.491 -0.3316 -0.3362 -0.6370
 9929TIP3   OH251277   4.402   4.317   4.942  0.3742 -0.1418 -0.1186
 9929TIP3    H151278   4.317   4.357   4.923  0.3844 -0.1078 -0.0927
 9929TIP3    H251279   4.395   4.229   4.905 -0.4258 -0.8878  1.7000
 9930TIP3   OH251280   1.096   5.726  14.547  0.2392 -0.5088  0.2287
 9930TIP3    H151281   1.120   5.645  14.503 -2.6064 -0.8569 -0.8872
 9930TIP3    H251282   1.079   5.700  14.638  0.9225 -0.8291  0.2677
 9931TIP3   OH251283   6.791   5.410   1.516  0.0653  0.2644 -0.1164
 9931TIP3    H151284   6.860   5.346   1.526 -0.6063 -0.4857 -0.1818
 9931TIP3    H251285   6.729   5.370   1.455 -1.2481  0.1868  1.1982
 9932TIP3   OH251286   6.272   2.851   5.351  0.0689  0.3686 -0.2023
 9932TIP3    H151287   6.356   2.887   5.324 -0.5828  1.7404 -0.4470
 9932TIP3    H251288   6.238   2.913   5.415 -0.4429 -0.5462  0.4408
 9933TIP3   OH251289   1.375   4.402  15.761 -0.1056 -0.2107  0.4397
 9933TIP3    H151290   1.284   4.375  15.776 -0.0205 -0.7539  0.0298
 9933TIP3    H251291   1.381   4.490  15.798 -1.2517  0.5177 -1.0064
 9934TIP3   OH251292   1.507   0.848  11.659  0.6211  0.0150 -0.1553
 9934TIP3    H151293   1.449   0.802  11.720  0.4510 -1.6604 -1.5145
 9934TIP3    H251294   1.455   0.923  11.629 -0.2946 -0.6194 -0.2110
 9935TIP3   OH251295   6.279   4.680   2.289  0.0279 -0.3211  0.4129
 9935TIP3    H151296   6.199   4.673   2.237 -0.0435  1.1421  0.2827
 9935TIP3    H251297   6.335   4.610   2.256 -0.2354  0.2194 -1.2775
 9936TIP3   OH251298   1.301   1.726   2.163  0.5933 -0.2765 -0.0527
 9936TIP3    H151299   1.207   1.742   2.152  0.6262  1.0626  1.2018
 9936TIP3    H251300   1.309   1.630   2.165 -0.5674 -0.4332 -1.3524
 9937TIP3   OH251301   0.491   2.043   5.023 -0.0453 -0.3060 -0.6423
 9937TIP3    H151302   0.512   2.137   5.019  0.7454 -0.5026 -1.4629
 9937TIP3    H251303   0.438   2.034   5.102 -2.8448  1.3301 -2.1866
 9938TIP3   OH251304   5.167   5.628   1.029 -0.3751  0.1665 -0.1686
 9938TIP3    H151305   5.214   5.589   1.103  0.5249 -1.8803 -1.7126
 9938TIP3    H251306   5.082   5.584   1.029  0.3528 -1.3572 -1.4445
 9939TIP3   OH251307   3.200   6.677   2.853 -0.1634  0.3246  0.3988
 9939TIP3    H151308   3.127   6.617   2.838  0.0928  0.0972  0.0491
 9939TIP3    H251309   3.199   6.693   2.948 -1.3951  1.2543  0.2660
 9940TIP3   OH251310   1.701   0.032  14.401 -0.0931  0.5194 -0.0177
 9940TIP3    H151311   1.614   0.071  14.390  0.3519  1.9289  1.1163
 9940TIP3    H251312   1.728   0.059  14.489  1.6663  0.4855 -0.5170
 9941TIP3   OH251313   1.452   4.546  15.536  0.0266  0.5273  0.2576
 9941TIP3    H151314   1.424   4.624  15.488 -0.6539  0.2685  0.2216
 9941TIP3    H251315   1.371   4.512  15.576 -0.4488 -2.2352 -2.6615
 9942TIP3   OH251316   4.784   0.432   3.689 -0.3767  0.1502 -0.7727
 9942TIP3    H151317   4.709   0.482   3.720 -1.6206 -0.0841 -3.1934
 9942TIP3    H251318   4.773   0.427   3.594  2.3564 -0.4718 -1.1618
 9943TIP3   OH251319   4.461   2.546   5.920 -0.0779 -0.5649  0.1921
 9943TIP3    H151320   4.497   2.573   5.836  0.0727 -2.5821 -0.4381
 9943TIP3    H251321   4.537   2.523   5.973 -0.2349 -0.5538  0.4237
 9944TIP3   OH251322   3.704   5.912   5.866 -0.1293 -0.5253 -0.1430
 9944TIP3    H151323   3.758   5.964   5.926  0.1455 -1.5244  0.4966
 9944TIP3    H251324   3.618   5.910   5.907 -0.2264 -0.3096 -0.3332
 9945TIP3   OH251325   0.914   2.238  12.709 -0.1685  0.3751  0.2098
 9945TIP3    H151326   1.009   2.251  12.708  0.0761 -0.8405  2.2961
 9945TIP3    H251327   0.888   2.248  12.617  1.9974  0.5281 -0.4479
 9946TIP3   OH251328   1.556   1.361  12.407 -0.2152 -0.4421  0.0964
 9946TIP3    H151329   1.607   1.311  12.344  3.1061  3.0034 -0.2584
 9946TIP3    H251330   1.612   1.370  12.484 -0.4289  2.8361  0.0279
 9947TIP3   OH251331   0.199   6.198   3.286 -0.0811  0.5501  0.5713
 9947TIP3    H151332   0.294   6.201   3.286 -0.0169  0.5903 -1.8205
 9947TIP3    H251333   0.174   6.196   3.378  2.1439  2.8011  1.3089
 9948TIP3   OH251334   0.910   4.514  16.212  0.3671 -0.0530 -0.7814
 9948TIP3    H151335   0.956   4.584  16.164  0.2151  0.9794  0.5106
 9948TIP3    H251336   0.837   4.491  16.156 -0.8463  2.3940 -0.3350
 9949TIP3   OH251337   4.010   0.623  14.155 -0.3381 -0.0151 -0.5292
 9949TIP3    H151338   4.047   0.667  14.231 -0.4228 -1.9594  0.6939
 9949TIP3    H251339   4.066   0.546  14.142 -0.8850 -0.2138 -1.8735
 9950TIP3   OH251340   1.053   1.199  11.187 -0.2985 -0.0761 -1.0636
 9950TIP3    H151341   1.112   1.269  11.214 -1.4396  0.5975 -0.2838
 9950TIP3    H251342   1.110   1.138  11.140  1.1017  0.3439  0.0168
 9951TIP3   OH251343   0.699   1.726   0.494  0.0778 -0.2008 -0.4858
 9951TIP3    H151344   0.707   1.709   0.588 -0.3675 -0.0738 -0.4245
 9951TIP3    H251345   0.745   1.652   0.453  0.5013 -0.1175 -0.1665
 9952TIP3   OH251346   3.175   4.277   4.362  0.4605 -0.0634 -0.8689
 9952TIP3    H151347   3.111   4.282   4.291 -1.8338 -0.0562  1.0780
 9952TIP3    H251348   3.152   4.198   4.411 -0.9773  2.1400  2.3750
 9953TIP3   OH251349   0.478   3.107  13.807 -0.0644  0.0319  0.6341
 9953TIP3    H151350   0.498   3.195  13.840 -1.6451 -0.1559  2.2084
 9953TIP3    H251351   0.556   3.082  13.757  1.0210  1.7217  1.3919
 9954TIP3   OH251352   6.771   3.503   5.404 -0.0226  0.1206 -0.3101
 9954TIP3    H151353   6.773   3.507   5.499 -1.3281 -1.4250 -0.1560
 9954TIP3    H251354   6.682   3.474   5.383  0.1988  0.5222 -2.0112
 9955TIP3   OH251355   3.741   4.389  15.917 -0.4659  0.2837  0.3837
 9955TIP3    H151356   3.649   4.382  15.941 -0.4300 -0.3350  0.3647
 9955TIP3    H251357   3.786   4.413  15.998 -0.4605 -0.8809  0.7463
 9956TIP3   OH251358   6.384   1.511  12.172 -0.3135 -1.1983 -0.5530
 9956TIP3    H151359   6.395   1.456  12.249 -0.6887  1.2774  1.3966
 9956TIP3    H251360   6.289   1.519  12.162 -0.2637 -1.2594 -1.1211
 9957TIP3   OH251361   5.577   5.892  11.799  0.1214 -0.1300 -0.1002
 9957TIP3    H151362   5.634   5.910  11.725  1.0583 -0.1496  0.6021
 9957TIP3    H251363   5.505   5.841  11.762  0.2524  0.3868 -1.1019
 9958TIP3   OH251364   1.562   2.983  15.381 -0.5660  0.5529 -0.0708
 9958TIP3    H151365   1.491   2.919  15.387 -0.8094  0.9360  1.7353
 9958TIP3    H251366   1.520   3.063  15.349 -0.7445  0.4902  0.0050
 9959TIP3   OH251367   5.993   2.100  15.555  0.0661 -0.1087  0.0962
 9959TIP3    H151368   5.978   2.011  15.523  0.1147 -0.1729  0.2487
 9959TIP3    H251369   5.940   2.156  15.498  0.1265 -0.2245 -0.0724
 9960TIP3   OH251370   0.208   5.795  12.005  0.3434  0.3578  0.2206
 9960TIP3    H151371   0.249   5.847  12.074  1.4475  0.0937 -0.2085
 9960TIP3    H251372   0.215   5.849  11.926 -0.7017  0.5599  0.2477
 9961TIP3   OH251373   6.445   2.102  14.888 -0.2375  0.0257  0.0223
 9961TIP3    H151374   6.506   2.171  14.859 -1.0582  0.9185  0.3662
 9961TIP3    H251375   6.363   2.124  14.845 -0.6610 -0.3986  0.6116
 9962TIP3   OH251376   3.354   1.340  16.510 -0.4484 -0.3817 -0.0297
 9962TIP3    H151377   3.340   1.434  16.501  0.0855 -0.3113 -0.1370
 9962TIP3    H251378   3.442   1.325  16.476 -0.1907 -0.7968  0.7992
 9963TIP3   OH251379   5.440   3.601  12.069  0.0048 -0.2886 -0.7934
 9963TIP3    H151380   5.464   3.569  11.982  0.4554 -3.8727  0.4809
 9963TIP3    H251381   5.519   3.647  12.100  0.5038 -0.5902 -1.5880
 9964TIP3   OH251382   5.478   1.719   1.555 -0.0754 -1.0543  0.3118
 9964TIP3    H151383   5.443   1.697   1.641 -2.7187  1.8935  0.1591
 9964TIP3    H251384   5.421   1.674   1.493 -0.4279 -0.3370  0.1027
 9965TIP3   OH251385   5.614   3.322  16.446  0.0026 -0.2716  0.5489
 9965TIP3    H151386   5.543   3.351  16.389  1.0885  1.3982 -0.0035
 9965TIP3    H251387   5.574   3.318  16.533 -0.8510  0.3252  0.1974
 9966TIP3   OH251388   4.273   4.404   6.172  0.0306 -0.4689 -0.3839
 9966TIP3    H151389   4.222   4.464   6.117 -0.4177 -0.9838 -0.5328
 9966TIP3    H251390   4.299   4.333   6.113  1.9217  0.3370 -0.6113
 9967TIP3   OH251391   1.136   1.593  11.214 -0.0179 -0.2012  0.0724
 9967TIP3    H151392   1.067   1.637  11.164 -1.2383 -1.6663  0.3974
 9967TIP3    H251393   1.195   1.558  11.147 -0.7431 -0.7139 -0.3222
 9968TIP3   OH251394   2.393   6.318  16.516  0.3006  0.1688  0.6340
 9968TIP3    H151395   2.316   6.332  16.571 -1.1764  0.2227 -1.3368
 9968TIP3    H251396   2.464   6.302  16.578 -0.8414  2.1776  2.5980
 9969TIP3   OH251397   4.647   2.000   3.584 -0.0082  0.3753 -0.0959
 9969TIP3    H151398   4.588   1.984   3.658 -2.0228  1.1168 -1.4418
 9969TIP3    H251399   4.684   2.087   3.602  0.5553 -0.0077  0.6604
 9970TIP3   OH251400   1.408   6.250   3.714 -0.0486  0.2892  0.1797
 9970TIP3    H151401   1.414   6.181   3.780 -0.2721  1.2369  1.2221
 9970TIP3    H251402   1.324   6.234   3.671 -0.9528  0.9422  1.6393
 9971TIP3   OH251403   1.781   4.499   4.072 -0.1920  0.0807 -0.3144
 9971TIP3    H151404   1.776   4.404   4.062  2.0557  0.0102 -1.2918
 9971TIP3    H251405   1.749   4.515   4.161  1.0586 -1.7935  0.5452
 9972TIP3   OH251406   1.316   2.612   3.742  0.0536  0.4933  0.3769
 9972TIP3    H151407   1.276   2.526   3.750  1.8960 -0.3583  0.8988
 9972TIP3    H251408   1.260   2.670   3.794 -0.8614 -0.4997  0.5195
 9973TIP3   OH251409   3.715   6.626  14.149 -0.0706 -0.3110  0.1277
 9973TIP3    H151410   3.709   6.715  14.115 -2.0738 -1.0562 -1.6620
 9973TIP3    H251411   3.626   6.591  14.142  1.2511 -3.6994 -2.9488
 9974TIP3   OH251412   6.191   0.960   0.132  0.3163  0.2844 -0.1154
 9974TIP3    H151413   6.259   1.026   0.145  0.9143 -0.7631  2.9596
 9974TIP3    H251414   6.239   0.877   0.130 -0.6067 -0.2616 -1.6749
 9975TIP3   OH251415   6.195   4.428  15.033 -0.1500 -0.1580 -0.1305
 9975TIP3    H151416   6.282   4.395  15.056 -0.2617 -2.3729 -2.4426
 9975TIP3    H251417   6.211   4.512  14.991  0.7763 -0.0803  0.3516
 9976TIP3   OH251418   4.680   1.695  15.900 -0.2168 -0.0767 -0.5509
 9976TIP3    H151419   4.696   1.665  15.811  0.3455  1.1759 -0.8921
 9976TIP3    H251420   4.761   1.673  15.947 -1.1999 -2.4675  0.1806
 9977TIP3   OH251421   3.874   3.053  16.690  0.1122  0.2640  0.2282
 9977TIP3    H151422   3.967   3.031  16.698 -0.2519 -2.6932 -1.7378
 9977TIP3    H251423   3.862   3.069  16.596 -1.1519  2.0197  0.6474
 9978TIP3   OH251424   5.590   6.110  14.759 -0.0511 -0.2519 -0.2717
 9978TIP3    H151425   5.569   6.198  14.728 -1.2372  0.1837  1.5993
 9978TIP3    H251426   5.684   6.102  14.744  0.0155  1.1722 -0.8430
 9979TIP3   OH251427   3.078   5.728  15.293  0.3256 -0.8144  0.3688
 9979TIP3    H151428   3.011   5.668  15.324  0.2849 -0.2646  1.3901
 9979TIP3    H251429   3.046   5.758  15.208 -1.2998  0.2869  1.3169
 9980TIP3   OH251430   2.365   2.428  10.883  0.6202  0.0193  0.4903
 9980TIP3    H151431   2.340   2.519  10.897  1.5916  0.6233 -1.3855
 9980TIP3    H251432   2.309   2.398  10.812  0.7951 -0.6380  0.6176
 9981TIP3   OH251433   3.921   5.252   3.872 -0.1065  0.4967 -0.2645
 9981TIP3    H151434   3.854   5.321   3.872 -0.5368  0.1681  2.0997
 9981TIP3    H251435   3.994   5.290   3.824 -1.1894  1.6806 -1.0508
 9982TIP3   OH251436   5.549   2.737   4.624 -0.3450 -0.2955 -0.2054
 9982TIP3    H151437   5.565   2.793   4.548  1.4837 -1.8008 -1.0038
 9982TIP3    H251438   5.628   2.746   4.677 -0.2460 -1.6559 -0.0865
 9983TIP3   OH251439   2.952   0.718   3.411  0.0933 -0.2202 -0.2202
 9983TIP3    H151440   2.911   0.777   3.348  1.7543 -1.3338 -2.4494
 9983TIP3    H251441   2.904   0.635   3.401 -0.3942 -0.0992  0.8815
 9984TIP3   OH251442   2.031   3.393  16.492  0.3442 -0.1657  0.3463
 9984TIP3    H151443   2.038   3.486  16.509  1.5481 -0.2683  0.5250
 9984TIP3    H251444   1.998   3.387  16.402  1.7538  0.4625 -0.2324
 9985TIP3   OH251445   3.506   3.594   0.801 -0.6000  0.0677  0.3697
 9985TIP3    H151446   3.433   3.560   0.749  0.1116 -0.2243 -0.4582
 9985TIP3    H251447   3.551   3.653   0.741  0.8967 -1.1395  0.2523
 9986TIP3   OH251448   1.716   5.577   3.031  0.5348 -0.0151  0.0119
 9986TIP3    H151449   1.625   5.573   3.058  0.7019  2.1291  1.1204
 9986TIP3    H251450   1.730   5.497   2.981 -1.6683 -0.8594  0.6396
 9987TIP3   OH251451   5.038   2.538  17.080  0.3553  0.2281 -0.2080
 9987TIP3    H151452   5.066   2.619  17.037 -0.4762  1.3243  1.2315
 9987TIP3    H251453   5.119   2.499  17.113  0.6553  1.1249  0.1509
 9988TIP3   OH251454   2.731   5.325   4.520 -0.2863 -0.0058 -0.4431
 9988TIP3    H151455   2.672   5.393   4.487 -0.7109  0.8627  1.9012
 9988TIP3    H251456   2.808   5.372   4.551  0.5059 -0.8718 -1.0363
 9989TIP3   OH251457   5.323   5.986  12.514  0.5239  0.1062  0.4739
 9989TIP3    H151458   5.364   5.997  12.428 -0.0609 -1.8968 -0.1071
 9989TIP3    H251459   5.231   6.009  12.500  0.4637 -0.0577  0.5945
 9990TIP3   OH251460   4.791   2.035   6.057  0.1103 -0.3745 -0.2468
 9990TIP3    H151461   4.816   2.127   6.051  0.5265 -0.3697  1.2517
 9990TIP3    H251462   4.834   2.003   6.136 -1.0714 -1.5140 -0.0266
 9991TIP3   OH251463   4.469   0.615  15.325 -0.0789 -0.2108 -0.5614
 9991TIP3    H151464   4.421   0.578  15.251  1.1602 -0.6544 -1.1493
 9991TIP3    H251465   4.439   0.564  15.401 -1.6796  0.5316 -0.6412
 9992TIP3   OH251466   2.331   5.236   4.283 -0.3488 -0.0304 -0.0092
 9992TIP3    H151467   2.248   5.197   4.311  0.5435 -2.1336 -0.1075
 9992TIP3    H251468   2.358   5.184   4.208 -0.7870  3.0875 -2.5224
 9993TIP3   OH251469   2.404   4.351   5.739  0.5336  0.2356 -0.1569
 9993TIP3    H151470   2.420   4.446   5.734  0.7871  0.3767  2.2420
 9993TIP3    H251471   2.481   4.312   5.697  0.6869  1.0712 -0.6818
 9994TIP3   OH251472   4.809   5.582  11.972  0.4390  0.2630  0.1260
 9994TIP3    H151473   4.789   5.584  12.065 -0.1958 -0.7341  0.0163
 9994TIP3    H251474   4.854   5.499  11.958  2.9298  1.5192 -0.0080
 9995TIP3   OH251475   4.174   0.780   5.823 -0.1404  0.0883 -0.0327
 9995TIP3    H151476   4.151   0.697   5.865 -1.1382 -0.4841 -1.6575
 9995TIP3    H251477   4.137   0.847   5.880 -0.0237 -0.5964  0.8704
 9996TIP3   OH251478   2.209   2.672   3.118 -0.2791  0.4168  0.6297
 9996TIP3    H151479   2.167   2.681   3.033 -0.4659  0.3205  0.7113
 9996TIP3    H251480   2.202   2.759   3.158 -1.0711  0.2079  0.9522
 9997TIP3   OH251481   1.355   2.478  13.467  0.1493  0.6905  0.4232
 9997TIP3    H151482   1.279   2.420  13.464  0.1743  0.6493  0.5766
 9997TIP3    H251483   1.352   2.526  13.384  0.1112  0.4920  0.3084
 9998TIP3   OH251484   2.938   2.609  16.359  0.5871  0.0312  0.2531
 9998TIP3    H151485   2.973   2.597  16.447 -1.4962  2.7736  1.6072
 9998TIP3    H251486   2.991   2.680  16.322  0.9008 -0.5391 -0.4239
 9999TIP3   OH251487   2.212   2.302   2.833  0.5415 -0.7911 -0.2253
 9999TIP3    H151488   2.262   2.276   2.910  2.2033 -0.3578 -1.0908
 9999TIP3    H251489   2.232   2.395   2.822 -0.7928 -0.5049 -0.3931
10000TIP3   OH251490   6.003   0.330   5.420 -0.0381 -0.0593  0.1145
10000TIP3    H151491   5.964   0.418   5.422 -2.5067 -1.1071  1.3845
10000TIP3    H251492   5.932   0.273   5.392  1.7956 -1.6018 -1.7090
10001TIP3   OH251493   3.792   2.502  14.907  0.1049 -0.1650 -0.1773
10001TIP3    H151494   3.827   2.539  14.988 -1.2017 -1.0726  0.8606
10001TIP3    H251495   3.851   2.430  14.885  1.0823  0.7642 -0.6678
10002TIP3   OH251496   3.150   5.153  11.515  0.7417 -0.0516 -0.5560
10002TIP3    H151497   3.179   5.109  11.435 -1.8658 -2.6596 -0.2418
10002TIP3    H251498   3.200   5.111  11.585  0.8183  0.0680 -0.5379
10003TIP3   OH251499   0.877   1.404   1.059  0.2059  0.2116  0.1916
10003TIP3    H151500   0.964   1.385   1.023 -0.0585  0.4550 -0.6086
10003TIP3    H251501   0.883   1.380   1.151  0.7710 -0.8868 -0.1152
10004TIP3   OH251502   2.229   4.095  11.901 -0.5308  0.1457  0.3280
10004TIP3    H151503   2.279   4.174  11.920  0.1442  0.3906 -2.1721
10004TIP3    H251504   2.146   4.108  11.947  0.6688  0.8799  2.4405
10005TIP3   OH251505   5.424   3.574  14.712 -0.7098  0.3550  0.5583
10005TIP3    H151506   5.342   3.539  14.747 -0.5362 -1.5152 -0.7315
10005TIP3    H251507   5.484   3.499  14.713  1.2995  1.8473  2.2297
10006TIP3   OH251508   3.055   2.447   0.118 -0.3154  0.1378 -0.5209
10006TIP3    H151509   2.976   2.473   0.166 -0.3863  0.2372 -0.6908
10006TIP3    H251510   3.109   2.525   0.116 -1.0766  0.6728 -2.1360
10007TIP3   OH251511   0.214   1.628   0.806  0.1431 -0.3244 -0.2909
10007TIP3    H151512   0.187   1.621   0.715  0.4424  0.3235 -0.4344
10007TIP3    H251513   0.132   1.630   0.856 -0.0158 -0.7933 -0.5359
10008TIP3   OH251514   0.987   2.463   3.910  0.1856 -0.7116  0.2801
10008TIP3    H151515   1.081   2.455   3.897  0.2759  1.3038 -0.6799
10008TIP3    H251516   0.960   2.532   3.849 -1.3819  1.0666  2.8015
10009TIP3   OH251517   4.792   2.911   2.358  0.0838  0.1423  0.0396
10009TIP3    H151518   4.723   2.883   2.298 -0.2528  1.1881 -0.0816
10009TIP3    H251519   4.781   3.006   2.365  1.4213  0.3090  0.1444
10010TIP3   OH251520   2.536   0.466   0.318  0.4114  0.7394 -1.2450
10010TIP3    H151521   2.617   0.515   0.303  1.5206 -0.6298 -0.0484
10010TIP3    H251522   2.561   0.374   0.307 -1.4993  0.3525 -2.9482
10011TIP3   OH251523   6.080   2.506   3.367 -0.2916 -0.8332 -0.8050
10011TIP3    H151524   5.994   2.514   3.410  0.9930  2.3375  1.5725
10011TIP3    H251525   6.111   2.419   3.393 -1.5396 -0.8193  0.9404
10012TIP3   OH251526   6.087   1.836   4.993 -0.3604  0.1744  0.2723
10012TIP3    H151527   5.991   1.840   4.988 -0.3376 -0.3842 -3.7306
10012TIP3    H251528   6.111   1.913   5.045 -2.9172  1.2789 -0.0148
10013TIP3   OH251529   0.590   4.970   0.695  0.8866  0.1425 -0.5324
10013TIP3    H151530   0.536   4.993   0.771 -0.1510 -1.7616 -0.6406
10013TIP3    H251531   0.658   4.911   0.731  0.4237 -0.7245 -1.0379
10014TIP3   OH251532   4.908   3.476   3.048  0.6613 -0.8723  0.5628
10014TIP3    H151533   4.907   3.570   3.069  1.2371 -0.9545  0.9932
10014TIP3    H251534   4.823   3.444   3.077  0.3351 -0.4253  0.1223
10015TIP3   OH251535   0.081   5.300   4.185 -0.5501  0.0592  0.0954
10015TIP3    H151536   0.060   5.299   4.092  0.3414  1.0855 -0.1382
10015TIP3    H251537   0.146   5.370   4.194  0.2561 -0.8200  1.3007
10016TIP3   OH251538   1.688   4.840  14.309  0.9720  0.1770  0.0449
10016TIP3    H151539   1.661   4.804  14.225  0.7289  2.2068 -0.7914
10016TIP3    H251540   1.640   4.789  14.374  0.5742 -0.9099 -1.0736
10017TIP3   OH251541   1.079   6.067   3.850 -0.1240  0.5638 -0.0989
10017TIP3    H151542   1.139   6.001   3.885 -0.8564 -0.3016 -0.4384
10017TIP3    H251543   1.092   6.143   3.906  1.4854  0.4951 -0.3246
10018TIP3   OH251544   5.138   1.023   1.187  0.5014 -0.5299  0.8710
10018TIP3    H151545   5.210   0.960   1.183  0.6752 -0.2929 -2.9827
10018TIP3    H251546   5.182   1.107   1.203  0.6949 -0.7581  1.6306
10019TIP3   OH251547   3.150   3.761   0.230 -0.6375 -0.2599  0.2756
10019TIP3    H151548   3.066   3.792   0.264 -1.1756 -0.1697 -1.0670
10019TIP3    H251549   3.177   3.829   0.168  0.9523  0.2212  1.4264
10020TIP3   OH251550   6.656   4.568   5.721  0.3505  0.6662 -0.3136
10020TIP3    H151551   6.622   4.573   5.811 -2.2121 -0.5519 -1.1238
10020TIP3    H251552   6.728   4.631   5.719  0.1479  1.1052  2.4445
10021TIP3   OH251553   6.112   4.052  15.000 -0.1706 -0.5030  0.4786
10021TIP3    H151554   6.063   3.972  14.982  0.0872 -0.4202 -0.6643
10021TIP3    H251555   6.055   4.122  14.971  1.7722 -0.4876 -4.1776
10022TIP3   OH251556   6.084   0.578   6.351 -0.0353  0.2331 -0.4878
10022TIP3    H151557   6.141   0.648   6.319  2.1948 -1.3266 -0.1528
10022TIP3    H251558   6.085   0.586   6.446  0.2717 -0.2554 -0.4433
10023TIP3   OH251559   5.393   1.329  16.147 -0.3322  0.7343  0.2126
10023TIP3    H151560   5.428   1.417  16.156  0.2101  0.3772  2.1818
10023TIP3    H251561   5.465   1.272  16.174  0.1751 -0.5349 -3.3213
10024TIP3   OH251562   1.365   1.567   6.265 -0.0224 -0.3878 -0.0281
10024TIP3    H151563   1.295   1.630   6.249 -0.5291 -1.1455 -0.9226
10024TIP3    H251564   1.322   1.494   6.309  0.2008 -0.8474 -0.5599
10025TIP3   OH251565   5.917   1.919   6.131  0.1705 -0.0930  0.2183
10025TIP3    H151566   5.996   1.892   6.177  0.8959  0.6326 -0.5415
10025TIP3    H251567   5.867   1.968   6.196  0.7229  0.1025  0.5089
10026TIP3   OH251568   2.509   3.719  15.505 -0.7205  0.3348  0.2942
10026TIP3    H151569   2.474   3.793  15.455  0.7417 -1.3585 -3.6827
10026TIP3    H251570   2.601   3.741  15.519 -0.7978  0.1865  1.0522
10027TIP3   OH251571   6.640   6.611  12.353 -0.1018  0.0657 -0.2591
10027TIP3    H151572   6.671   6.524  12.327  2.2214  0.2357  1.6248
10027TIP3    H251573   6.549   6.596  12.379  0.1291 -1.7490 -0.3143
10028TIP3   OH251574   5.663   2.208  15.144 -0.9517 -0.0888  0.1529
10028TIP3    H151575   5.634   2.191  15.054 -1.2578 -0.1868  0.2711
10028TIP3    H251576   5.588   2.249  15.187 -0.8216 -0.0854  0.3785
10029TIP3   OH251577   1.991   1.531  15.668  0.0268 -0.6450 -0.6729
10029TIP3    H151578   1.914   1.542  15.611  0.1550  4.3311 -0.3693
10029TIP3    H251579   1.957   1.543  15.757  0.7619 -1.7613 -0.2211
10030TIP3   OH251580   1.698   5.865   1.602  0.1218  0.1361  0.2544
10030TIP3    H151581   1.643   5.914   1.662 -2.6519 -0.4696 -1.6039
10030TIP3    H251582   1.732   5.931   1.541 -0.0278  0.2991  0.3476
10031TIP3   OH251583   4.007   4.716  16.205  0.0733  0.5697 -0.3908
10031TIP3    H151584   4.016   4.710  16.300  1.2011  2.7817 -0.2997
10031TIP3    H251585   4.097   4.720  16.173 -0.2807 -0.8354 -1.6463
10032TIP3   OH251586   5.109   0.515  16.698 -0.6125 -0.7561 -0.3177
10032TIP3    H151587   5.087   0.605  16.723 -0.7117 -0.5484 -1.1338
10032TIP3    H251588   5.171   0.487  16.766  0.1735  0.2623 -0.5798
10033TIP3   OH251589   6.385   1.101   5.034  0.2817 -0.2451  0.2074
10033TIP3    H151590   6.326   1.161   5.080  0.2223 -0.4462  0.3925
10033TIP3    H251591   6.444   1.069   5.101 -0.0909 -0.8895  0.2344
10034TIP3   OH251592   5.762   6.074  13.566 -0.2320 -0.0542 -0.1090
10034TIP3    H151593   5.846   6.087  13.522  0.1590 -2.2910 -0.1307
10034TIP3    H251594   5.748   5.979  13.564 -2.2948  0.1789  0.7721
10035TIP3   OH251595   5.097   1.679  13.660 -0.2578  0.5641  0.3514
10035TIP3    H151596   5.043   1.757  13.675 -1.0301  0.2900 -0.8782
10035TIP3    H251597   5.036   1.606  13.661  0.2811  0.1068  0.2589
10036TIP3   OH251598   5.160   2.694  12.250  0.1859 -0.1465  0.5182
10036TIP3    H151599   5.112   2.613  12.265 -1.7526  1.0651  1.2791
10036TIP3    H251600   5.207   2.680  12.168 -1.2851 -1.5173 -0.1426
10037TIP3   OH251601   1.550   4.653   0.991 -0.0674  0.2219  0.1859
10037TIP3    H151602   1.519   4.563   0.994 -2.8811  0.9995 -1.7927
10037TIP3    H251603   1.592   4.662   0.906 -0.6136  0.9792 -0.0211
10038TIP3   OH251604   3.992   5.668  10.517 -0.0337  0.1274  0.3241
10038TIP3    H151605   4.012   5.745  10.569 -0.3232 -1.6224  3.2129
10038TIP3    H251606   4.073   5.649  10.470  0.9973  0.4665  1.8999
10039TIP3   OH251607   5.890   4.211   0.590  0.4722  0.2057 -0.4780
10039TIP3    H151608   5.837   4.251   0.659 -1.4532 -1.2408 -1.0166
10039TIP3    H251609   5.826   4.178   0.527  2.1013 -0.3500 -1.9186
10040TIP3   OH251610   4.046   0.617   2.042  0.4047 -0.2072  0.5051
10040TIP3    H151611   3.962   0.603   2.086  0.1564 -2.1007 -0.4636
10040TIP3    H251612   4.095   0.536   2.058  1.6493  0.4629  0.1927
10041TIP3   OH251613   4.687   1.768   1.125  0.4053  0.0982  1.0077
10041TIP3    H151614   4.660   1.841   1.181 -3.5789  0.4913 -1.1153
10041TIP3    H251615   4.648   1.691   1.166 -1.9585  0.3024 -0.6582
10042TIP3   OH251616   5.197   1.050   6.358 -0.1432 -0.2232  0.3550
10042TIP3    H151617   5.261   1.072   6.291  0.2791 -0.0100  0.8252
10042TIP3    H251618   5.112   1.060   6.314  0.0258  2.0431  0.4368
10043TIP3   OH251619   3.740   2.532  12.963 -0.0028 -0.1610  0.1277
10043TIP3    H151620   3.786   2.564  12.885  0.5778 -1.6390 -0.1798
10043TIP3    H251621   3.800   2.551  13.035 -1.2886  2.8167  0.5377
10044TIP3   OH251622   0.585   6.526  11.794 -0.1621  0.0430  0.1437
10044TIP3    H151623   0.554   6.596  11.736 -0.4775 -1.0670 -1.0870
10044TIP3    H251624   0.657   6.486  11.746 -1.2842 -1.7483 -0.1330
10045TIP3   OH251625   1.243   4.933  12.343  0.0718 -0.0332  0.1784
10045TIP3    H151626   1.242   4.957  12.436  0.7751  0.1650  0.1398
10045TIP3    H251627   1.235   5.016  12.297 -1.8376 -0.2472  0.0473
10046TIP3   OH251628   5.644   0.393   2.199 -0.4264 -0.2964  0.0322
10046TIP3    H151629   5.661   0.397   2.293  0.7944 -0.3512 -0.1637
10046TIP3    H251630   5.713   0.448   2.161 -0.9714 -0.1953 -0.8245
10047TIP3   OH251631   0.153   3.545  16.756 -0.4243 -0.1454 -0.2306
10047TIP3    H151632   0.198   3.513  16.677 -2.0954 -0.5192 -1.0619
10047TIP3    H251633   0.197   3.627  16.776  0.1172 -0.1038 -1.4856
10048TIP3   OH251634   5.193   0.677   3.413 -0.1574  0.2151 -0.4189
10048TIP3    H151635   5.187   0.583   3.397  0.3014 -0.0191  0.7186
10048TIP3    H251636   5.178   0.686   3.507 -0.3140  1.2923 -0.5416
10049TIP3   OH251637   5.438   3.695  10.837 -0.3884  0.2226 -0.3600
10049TIP3    H151638   5.510   3.648  10.795  0.0305 -0.3781  0.9668
10049TIP3    H251639   5.479   3.772  10.876 -0.9498  1.3355 -1.8781
10050TIP3   OH251640   2.921   0.508  11.280 -0.2435  0.7897  0.0834
10050TIP3    H151641   2.873   0.453  11.218  0.3829 -0.5948  0.7816
10050TIP3    H251642   2.857   0.532  11.346 -0.1767 -0.4652  0.6329
10051TIP3   OH251643   2.350   0.866   2.890  0.7293  0.3273 -0.0557
10051TIP3    H151644   2.338   0.932   2.822 -2.1143 -0.1034 -0.1175
10051TIP3    H251645   2.332   0.783   2.845  1.2702 -0.2087  0.6941
10052TIP3   OH251646   0.772   0.898  15.686 -0.2314  0.6212 -0.1923
10052TIP3    H151647   0.825   0.974  15.661 -2.5392  1.8849 -1.5852
10052TIP3    H251648   0.778   0.839  15.612 -0.4044  0.5684 -0.1657
10053TIP3   OH251649   5.213   4.812   2.307  1.1207  0.0966 -0.2765
10053TIP3    H151650   5.165   4.889   2.337 -0.5730 -0.4796 -1.4006
10053TIP3    H251651   5.212   4.752   2.382 -0.4156 -0.1173 -0.4467
10054TIP3   OH251652   4.721   6.088   1.783 -0.2285 -0.1114  0.1399
10054TIP3    H151653   4.808   6.127   1.789 -0.3915  0.5988 -1.3863
10054TIP3    H251654   4.709   6.072   1.689 -1.2745 -1.3038  0.4559
10055TIP3   OH251655   6.469   0.379  12.531  0.4850  0.0635 -0.0776
10055TIP3    H151656   6.390   0.337  12.566  0.4274 -0.8129 -1.2075
10055TIP3    H251657   6.441   0.415  12.446  1.4154 -0.7387 -0.7452
10056TIP3   OH251658   4.778   5.905   0.423 -1.1781  0.2227 -0.6891
10056TIP3    H151659   4.831   5.869   0.494 -0.6067 -1.5686 -1.9668
10056TIP3    H251660   4.749   5.990   0.456  0.0669 -0.0261  1.1998
10057TIP3   OH251661   5.515   6.575   6.685 -0.0868 -0.2814  0.0535
10057TIP3    H151662   5.443   6.535   6.734 -1.2336  0.1049 -1.2301
10057TIP3    H251663   5.492   6.560   6.593 -0.3953  2.9436 -0.5125
10058TIP3   OH251664   5.542   1.295   0.834  0.0142 -0.3304  0.3528
10058TIP3    H151665   5.587   1.218   0.799 -0.0636 -0.5695  0.7651
10058TIP3    H251666   5.507   1.339   0.757 -1.0866 -1.4302  0.1779
10059TIP3   OH251667   1.000   6.135   1.627 -0.0052 -0.0220  0.3200
10059TIP3    H151668   1.078   6.135   1.682  0.7522 -0.3397 -0.7106
10059TIP3    H251669   0.983   6.228   1.608 -0.2829  0.0860  1.0911
10060TIP3   OH251670   4.311   1.498   1.700 -0.0142 -0.2635  0.3279
10060TIP3    H151671   4.238   1.440   1.680 -0.2734  0.5162 -1.1127
10060TIP3    H251672   4.346   1.465   1.782 -1.7300 -0.9010  0.8423
10061TIP3   OH251673   2.913   6.757  13.448  0.0112 -0.0083 -0.1171
10061TIP3    H151674   2.963   6.838  13.454 -0.7099  0.5592 -1.3260
10061TIP3    H251675   2.833   6.774  13.497 -1.8840  1.4668 -3.3960
10062TIP3   OH251676   1.510   3.014  13.073  0.0546 -0.2956  0.2385
10062TIP3    H151677   1.578   3.015  13.140  2.3027 -0.1696 -1.9471
10062TIP3    H251678   1.535   3.081  13.011 -1.7561 -0.6592 -0.9812
10063TIP3   OH251679   4.034   0.386  11.261 -0.0573 -0.1834  0.0800
10063TIP3    H151680   4.017   0.401  11.168 -0.8922  0.2272  0.2831
10063TIP3    H251681   4.094   0.312  11.263  0.7151  0.3955 -0.8118
10064TIP3   OH251682   0.470   6.612   0.438 -0.0432 -0.6617 -1.1945
10064TIP3    H151683   0.422   6.677   0.387 -0.4164 -0.6980 -0.8942
10064TIP3    H251684   0.402   6.557   0.477 -0.0429  1.6109  2.4363
10065TIP3   OH251685   1.741   6.627   2.661  0.1439 -0.2318  0.0407
10065TIP3    H151686   1.745   6.722   2.653 -0.0711  0.0410  2.5528
10065TIP3    H251687   1.829   6.597   2.640  0.5394  0.6251  0.4603
10066TIP3   OH251688   3.604   4.291  16.587 -0.1715  0.3773 -0.3894
10066TIP3    H151689   3.673   4.225  16.586  1.0153  1.4765  1.9099
10066TIP3    H251690   3.522   4.242  16.590  0.6477 -0.9658  0.4303
10067TIP3   OH251691   6.044   0.260  13.544 -0.0054  0.2422  0.3577
10067TIP3    H151692   6.094   0.257  13.463  0.9450 -0.6990  0.9612
10067TIP3    H251693   6.067   0.179  13.590  0.3291  1.2520  2.0540
10068TIP3   OH251694   4.982   2.246   0.744  0.2106  0.0595  0.1728
10068TIP3    H151695   4.991   2.284   0.657 -0.3118 -0.7105 -0.2350
10068TIP3    H251696   4.932   2.165   0.729  0.7873 -0.4822  1.0801
10069TIP3   OH251697   2.331   5.292  10.582  0.2114 -1.1799 -0.4269
10069TIP3    H151698   2.241   5.321  10.573 -0.3254 -2.9519 -1.4306
10069TIP3    H251699   2.350   5.249  10.498  2.4375  0.2636 -0.7409
10070TIP3   OH251700   2.001   4.796   2.012 -0.3372 -0.1422 -0.5856
10070TIP3    H151701   2.024   4.887   1.996 -1.2258  0.2721  0.4002
10070TIP3    H251702   1.909   4.789   1.988 -0.3152 -0.7472 -0.5187
10071TIP3   OH251703   5.528   2.564  15.449  0.1945  0.1135  0.2172
10071TIP3    H151704   5.481   2.643  15.474 -3.3867 -1.7791  0.1991
10071TIP3    H251705   5.548   2.521  15.532  0.8189  0.3351  0.1843
10072TIP3   OH251706   6.773   6.416  12.668  0.2803 -0.4229  0.1828
10072TIP3    H151707   6.785   6.483  12.602 -3.5636  0.3221  0.0611
10072TIP3    H251708   6.767   6.334  12.619 -0.5828 -0.1215 -0.2288
10073TIP3   OH251709   2.903   4.368   2.428  0.0438  0.1906  0.5178
10073TIP3    H151710   2.894   4.301   2.496 -0.3863  0.8023  1.0796
10073TIP3    H251711   2.825   4.358   2.373 -0.5767  0.9207  1.2416
10074TIP3   OH251712   5.038   5.728  16.465 -0.6388 -0.3237 -0.6302
10074TIP3    H151713   4.981   5.774  16.403  1.1322  0.8035 -1.5156
10074TIP3    H251714   5.022   5.635  16.448 -0.8450 -0.0313 -2.1501
10075TIP3   OH251715   0.103   3.064  12.941  0.0419  0.4625 -0.0258
10075TIP3    H151716   0.153   3.026  13.013 -0.1616  0.6052  0.1896
10075TIP3    H251717   0.169   3.086  12.875  0.2007  0.0954  0.0086
10076TIP3   OH251718   0.466   4.914   4.230  0.2996  0.3985 -0.4572
10076TIP3    H151719   0.375   4.896   4.252  0.5034  0.5258  0.5494
10076TIP3    H251720   0.463   4.993   4.176 -0.1372  0.7614  0.0929
10077TIP3   OH251721   0.120   1.874   4.658 -0.0980  0.3170  0.5434
10077TIP3    H151722   0.173   1.844   4.731 -0.4794 -1.1952  0.2533
10077TIP3    H251723   0.109   1.796   4.603 -0.8781  1.0976 -0.4673
10078TIP3   OH251724   0.729   1.548  12.784  0.5892  0.0793 -0.2102
10078TIP3    H151725   0.692   1.636  12.781 -0.2303 -0.1973  1.0260
10078TIP3    H251726   0.812   1.558  12.831 -0.3116 -0.0494  1.4522
10079TIP3   OH251727   3.738   5.123   1.129  0.2694 -0.6068 -0.1483
10079TIP3    H151728   3.734   5.168   1.045  1.2702 -0.9960 -0.4215
10079TIP3    H251729   3.797   5.177   1.182 -1.3302  0.3228  0.7590
10080TIP3   OH251730   4.056   5.896   1.203 -0.2374  0.5469 -1.0481
10080TIP3    H151731   4.094   5.911   1.116  3.2065  1.1661  0.3987
10080TIP3    H251732   4.091   5.812   1.230  0.6767  1.4210  0.6176
10081TIP3   OH251733   1.327   6.259  12.116  0.1211  0.2005  0.6297
10081TIP3    H151734   1.287   6.231  12.034  1.4152 -1.4449  0.4989
10081TIP3    H251735   1.309   6.188  12.178  2.0609 -0.2351  0.7773
10082TIP3   OH251736   4.130   6.573  13.047 -0.4483  0.2308  0.1305
10082TIP3    H151737   4.048   6.619  13.031 -0.7798 -0.5069 -0.3135
10082TIP3    H251738   4.118   6.533  13.133 -0.0488  1.1918  0.6497
10083TIP3   OH251739   0.012   4.134   4.411  0.2598 -0.0917 -0.1219
10083TIP3    H151740  -0.045   4.120   4.336 -0.5532  1.4076  0.1842
10083TIP3    H251741   0.006   4.053   4.462 -1.7830  0.0956  0.0090
10084TIP3   OH251742   0.395   2.610  12.067 -0.2331  0.2076  0.1098
10084TIP3    H151743   0.324   2.661  12.027  1.5859  2.2566 -0.6894
10084TIP3    H251744   0.436   2.564  11.995 -1.0868 -1.5393  0.6693
10085TIP3   OH251745   4.817   2.069   5.368 -0.0752 -0.6646 -0.1106
10085TIP3    H151746   4.802   2.012   5.291  0.9460 -0.9295 -0.1240
10085TIP3    H251747   4.734   2.116   5.378 -0.1226 -0.3764 -1.5809
10086TIP3   OH251748   3.708   6.160   4.582  0.1250 -0.3233 -0.1910
10086TIP3    H151749   3.753   6.176   4.499 -1.1299  0.7361 -0.6845
10086TIP3    H251750   3.775   6.119   4.637  0.7156 -1.9888 -2.0149
10087TIP3   OH251751   3.604   0.937  13.364  0.5176  0.2028  0.2252
10087TIP3    H151752   3.618   1.003  13.296 -0.1716  0.5850  0.4436
10087TIP3    H251753   3.639   0.976  13.444  1.1807 -0.1806  0.1279
10088TIP3   OH251754   0.839   0.811  14.837 -0.6248  0.0376 -0.1201
10088TIP3    H151755   0.766   0.870  14.857 -1.9591 -1.0488 -1.5318
10088TIP3    H251756   0.806   0.756  14.766  1.4446 -0.7745 -0.5184
10089TIP3   OH251757   4.622   5.183   2.125  0.6028  0.6122 -0.1540
10089TIP3    H151758   4.650   5.097   2.094  0.3215  0.0410  1.1078
10089TIP3    H251759   4.635   5.241   2.050  2.3938 -0.1911 -0.5093
10090TIP3   OH251760   2.703   1.139   3.455  0.1917 -0.0304  0.3694
10090TIP3    H151761   2.787   1.182   3.466  0.1257  0.5740 -1.1381
10090TIP3    H251762   2.638   1.208   3.471 -0.0085 -0.3487  0.9559
10091TIP3   OH251763   1.621   3.709  16.088  0.2490 -0.5632  0.5499
10091TIP3    H151764   1.604   3.732  15.997 -1.9126  0.6242  1.2000
10091TIP3    H251765   1.689   3.770  16.116 -1.1072  1.0416  0.4972
10092TIP3   OH251766   0.043   0.272   4.406 -0.2425 -0.7838 -0.0662
10092TIP3    H151767   0.022   0.359   4.440 -1.3090 -0.9878 -0.1799
10092TIP3    H251768   0.121   0.245   4.456 -1.4870 -0.8818  1.9321
10093TIP3   OH251769   4.465   4.122   6.289  0.6515 -0.0620 -0.0829
10093TIP3    H151770   4.418   4.058   6.343 -0.8650  0.2698 -0.9408
10093TIP3    H251771   4.425   4.206   6.312 -0.0872  0.0793 -1.7384
10094TIP3   OH251772   3.275   4.373  13.403  0.2389  0.2519  0.1329
10094TIP3    H151773   3.189   4.348  13.372  0.6298  0.1114 -0.8724
10094TIP3    H251774   3.330   4.296  13.387  0.4908  0.2374  1.0229
10095TIP3   OH251775   3.047   3.666   3.210  0.1699  0.0523 -0.0900
10095TIP3    H151776   3.034   3.577   3.242  0.5549  0.2550  0.6685
10095TIP3    H251777   2.963   3.691   3.173 -1.0548  0.5570  2.7402
10096TIP3   OH251778   1.915   6.427   2.882  0.5402  0.1605 -0.0306
10096TIP3    H151779   1.906   6.358   2.947  0.3310 -1.0401 -1.2765
10096TIP3    H251780   1.830   6.471   2.881 -0.2711 -1.3438 -1.1058
10097TIP3   OH251781   0.306   5.549   4.946 -0.3931 -0.1750  0.4375
10097TIP3    H151782   0.250   5.621   4.915 -0.3981  0.0649  1.0019
10097TIP3    H251783   0.395   5.584   4.939 -0.2829 -0.6376 -0.6780
10098TIP3   OH251784   3.996   4.659   2.020 -0.1368 -0.2747 -0.2586
10098TIP3    H151785   4.023   4.644   1.930  0.5526  0.6592 -0.2157
10098TIP3    H251786   3.979   4.572   2.055 -3.0997 -0.5689 -2.0797
10099TIP3   OH251787   6.295   3.057  12.145  0.3545 -0.6408  0.3590
10099TIP3    H151788   6.238   3.108  12.201  0.3942 -1.1451  0.8727
10099TIP3    H251789   6.331   3.120  12.082 -1.2960 -0.4340 -0.4246
10100TIP3   OH251790   3.971   0.479   4.805 -0.0402  0.0670 -0.5180
10100TIP3    H151791   4.004   0.554   4.755 -0.0021  0.9993  0.8644
10100TIP3    H251792   3.990   0.403   4.749  1.8958  0.8590 -1.0178
10101TIP3   OH251793   4.770   2.938  15.028  0.0688 -0.4333  0.0454
10101TIP3    H151794   4.797   2.948  14.936 -1.2228  0.8880 -0.2309
10101TIP3    H251795   4.818   3.006  15.074  0.2029 -0.6573  0.2361
10102TIP3   OH251796   0.348   4.282   3.021 -0.1272  0.0808 -0.7560
10102TIP3    H151797   0.340   4.263   2.928  0.6825 -1.2111 -0.5787
10102TIP3    H251798   0.442   4.295   3.035 -0.1398 -0.5657  0.0193
10103TIP3   OH251799   5.310   3.239   3.720  1.2802 -0.2232  0.4536
10103TIP3    H151800   5.301   3.328   3.753 -0.5403  0.0448 -0.6649
10103TIP3    H251801   5.397   3.238   3.678  0.8809  1.3935 -0.5180
10104TIP3   OH251802   4.460   4.003   5.237  0.1460 -0.0692 -0.7061
10104TIP3    H151803   4.408   4.005   5.157 -0.8707  1.9510 -0.0707
10104TIP3    H251804   4.430   3.925   5.284  0.7016 -1.2310 -2.2046
10105TIP3   OH251805   1.609   6.776   1.499  0.6712  0.0657  0.0979
10105TIP3    H151806   1.683   6.722   1.527  0.5788 -0.5111 -0.7460
10105TIP3    H251807   1.548   6.774   1.573 -0.1540 -2.4853 -0.5726
10106TIP3   OH251808   0.037   0.054  13.329  0.2916 -0.3939 -0.6193
10106TIP3    H151809   0.011   0.135  13.285  2.0514  0.4642 -0.1980
10106TIP3    H251810   0.121   0.030  13.289  1.1548 -0.4681  1.1002
10107TIP3   OH251811   1.097   3.268  12.422  0.6288 -0.0615 -0.3759
10107TIP3    H151812   1.054   3.309  12.347 -1.3136 -1.4435 -0.0800
10107TIP3    H251813   1.116   3.179  12.393  0.3731 -0.4374  0.5940
10108TIP3   OH251814   0.526   4.351  17.323 -0.4909  0.3841  0.0207
10108TIP3    H151815   0.511   4.282  17.258  0.8909 -0.6810  0.7738
10108TIP3    H251816   0.535   4.431  17.272  1.0367 -0.5000 -1.1823
10109TIP3   OH251817   2.271   1.290   2.120  0.0847  0.4362 -0.4127
10109TIP3    H151818   2.247   1.369   2.170 -1.3929 -0.4887  0.3960
10109TIP3    H251819   2.303   1.229   2.186 -0.5109 -0.2806 -0.7774
10110TIP3   OH251820   3.630   6.338  16.311  0.3322 -0.2205  0.2942
10110TIP3    H151821   3.690   6.351  16.385  0.2024 -0.4504  0.4436
10110TIP3    H251822   3.649   6.410  16.251 -0.7935  1.0038  1.3507
10111TIP3   OH251823   4.154   4.312  16.881  0.3455 -0.1210  0.1768
10111TIP3    H151824   4.187   4.358  16.959 -1.1268  1.0715  0.1339
10111TIP3    H251825   4.089   4.251  16.914 -0.9919  1.0670 -0.1555
10112TIP3   OH251826   6.281   3.362  14.023 -0.0202  0.0684  0.0326
10112TIP3    H151827   6.252   3.354  13.932 -4.1849 -0.3108  1.1725
10112TIP3    H251828   6.291   3.271  14.053 -0.2330  0.1518  0.3622
10113TIP3   OH251829   4.435   6.116   5.968  0.1760  0.0744 -0.2054
10113TIP3    H151830   4.435   6.149   5.878  1.0768 -1.5846 -0.8583
10113TIP3    H251831   4.346   6.133   6.000  0.1448  1.6175 -1.0271
10114TIP3   OH251832   3.934   1.832  13.355  0.4441 -0.0531  0.5896
10114TIP3    H151833   3.932   1.892  13.281 -0.3838 -0.3863  0.3350
10114TIP3    H251834   3.865   1.768  13.337  0.2899 -0.1949  1.5978
10115TIP3   OH251835   3.215   6.157   1.431  0.7799  0.0874 -0.0940
10115TIP3    H151836   3.161   6.176   1.355  2.8882  0.8373 -1.5235
10115TIP3    H251837   3.201   6.064   1.449  0.7568 -0.2990 -1.8950
10116TIP3   OH251838   4.505   3.283  16.092 -0.3565 -0.2816  0.5605
10116TIP3    H151839   4.553   3.239  16.022 -1.1726 -0.9118  0.3784
10116TIP3    H251840   4.469   3.212  16.145 -0.1829  0.1861  1.3316
10117TIP3   OH251841   6.355   1.645   1.924 -0.0137 -0.4618 -0.0722
10117TIP3    H151842   6.426   1.686   1.972 -0.9193  0.8061  0.2462
10117TIP3    H251843   6.392   1.624   1.838  0.4858  1.1252 -0.2780
10118TIP3   OH251844   5.738   6.144   2.907  0.0033  0.2467 -0.0788
10118TIP3    H151845   5.831   6.120   2.909  0.4739  1.9871  0.9959
10118TIP3    H251846   5.715   6.145   2.814  1.1295  0.0325 -0.3718
10119TIP3   OH251847   4.856   3.436   0.692  0.6132 -0.3182 -0.1771
10119TIP3    H151848   4.771   3.456   0.652  1.3432  2.7854 -0.3935
10119TIP3    H251849   4.834   3.415   0.783 -0.4500 -0.3143 -0.4144
10120TIP3   OH251850   4.013   0.189  13.804  0.0154  0.3679  0.0149
10120TIP3    H151851   4.018   0.266  13.747 -1.2084  0.3680 -0.1188
10120TIP3    H251852   4.063   0.122  13.758  0.8892  1.0054  0.0177
10121TIP3   OH251853   4.749   3.996  11.073  0.2414 -0.3123  0.2816
10121TIP3    H151854   4.777   4.061  11.009 -3.7528  1.0629 -0.3335
10121TIP3    H251855   4.765   3.912  11.030  1.4077  0.4099 -0.7687
10122TIP3   OH251856   3.407   4.250   5.991 -0.0217  0.3418  0.0727
10122TIP3    H151857   3.338   4.308   5.960  0.7995  1.5690  0.4364
10122TIP3    H251858   3.406   4.261   6.086 -0.5474 -1.0720  0.2395
10123TIP3   OH251859   5.968   0.832  12.817 -0.1154  0.0466 -0.0579
10123TIP3    H151860   5.966   0.742  12.784  2.0694  0.1125 -0.4823
10123TIP3    H251861   5.876   0.853  12.834 -1.0571 -1.0657 -3.1994
10124TIP3   OH251862   5.747   1.111   3.041 -0.2797 -0.5339 -0.1996
10124TIP3    H151863   5.774   1.199   3.068 -0.3207 -0.7833  0.7056
10124TIP3    H251864   5.653   1.117   3.028 -0.0644 -0.0565 -1.7729
10125TIP3   OH251865   0.333   5.189   4.393  0.1979  0.1711  0.0412
10125TIP3    H151866   0.353   5.184   4.299  0.1965  1.0051 -0.0045
10125TIP3    H251867   0.304   5.279   4.407 -1.0102 -0.2794  0.6126
10126TIP3   OH251868   2.265   0.478   0.249 -0.0598  0.2122  0.3594
10126TIP3    H151869   2.236   0.505   0.336  0.6006  1.6579  0.1541
10126TIP3    H251870   2.358   0.498   0.248 -0.1088  0.4133 -0.7627
10127TIP3   OH251871   1.514   0.637  15.830 -0.4436 -0.1354  0.3439
10127TIP3    H151872   1.548   0.556  15.794 -0.8727 -0.5836  0.9246
10127TIP3    H251873   1.579   0.666  15.894 -0.2835 -0.0160  0.1253
10128TIP3   OH251874   3.429   2.699  13.659 -0.7390  0.2799 -0.0887
10128TIP3    H151875   3.519   2.723  13.636 -0.1817 -0.0721  1.5690
10128TIP3    H251876   3.412   2.619  13.609  0.2486 -0.2078  0.3186
10129TIP3   OH251877   4.254   2.619   4.086  0.0693 -0.9420 -0.2767
10129TIP3    H151878   4.264   2.707   4.123 -0.0395 -0.8930 -0.3621
10129TIP3    H251879   4.329   2.608   4.029 -1.0821 -0.0015 -2.0843
10130TIP3   OH251880   2.555   0.228  12.310 -0.5048  0.4286  0.5379
10130TIP3    H151881   2.643   0.215  12.346 -0.3181  0.4298  0.0794
10130TIP3    H251882   2.542   0.157  12.248 -0.8189  0.4433  0.5817
10131TIP3   OH251883   2.628   0.944   1.396  0.4641  0.4034  0.9372
10131TIP3    H151884   2.571   0.970   1.469  0.2967 -0.7721  1.2406
10131TIP3    H251885   2.572   0.889   1.341  1.4452 -1.2899  1.5648
10132TIP3   OH251886   3.687   6.707  12.817 -0.0746  0.4614  0.5291
10132TIP3    H151887   3.712   6.658  12.739 -0.8083  1.3735 -0.3058
10132TIP3    H251888   3.770   6.729  12.859  0.3731  0.5377 -0.3660
10133TIP3   OH251889   3.873   0.188   1.011 -0.5168  0.1748 -0.3325
10133TIP3    H151890   3.954   0.233   0.986  0.0538  0.3530  1.6549
10133TIP3    H251891   3.881   0.100   0.973  0.7469  0.1023  0.0748
10134TIP3   OH251892   0.667   1.153   0.911 -0.4760 -0.6389 -0.5110
10134TIP3    H151893   0.642   1.135   1.001 -0.2668  1.8129  0.1124
10134TIP3    H251894   0.763   1.149   0.911 -0.4776 -0.6917 -0.6286
10135TIP3   OH251895   1.964   5.899  11.831  0.1180  0.6712 -0.5888
10135TIP3    H151896   1.952   5.993  11.819  0.7154  1.0133  1.1641
10135TIP3    H251897   2.025   5.892  11.905  0.1413 -1.0906 -0.7383
10136TIP3   OH251898   6.251   0.299   0.867  0.4849 -0.3941 -0.1547
10136TIP3    H151899   6.272   0.231   0.931  0.1030  0.2484  0.6825
10136TIP3    H251900   6.193   0.256   0.804 -0.9456 -0.5016  1.1678
10137TIP3   OH251901   2.879   2.919   5.597  0.5663  0.4318 -0.2443
10137TIP3    H151902   2.885   2.984   5.667  1.1629  0.9171 -0.7510
10137TIP3    H251903   2.788   2.889   5.602  0.6763  0.2175  0.9544
10138TIP3   OH251904   5.772   5.013  16.911  0.3514 -0.0148 -0.0534
10138TIP3    H151905   5.704   5.068  16.951  0.4610 -0.9149  1.4328
10138TIP3    H251906   5.783   4.940  16.972 -0.1873 -2.0342 -2.2352
10139TIP3   OH251907   6.334   4.922   5.093  0.4341 -0.6838  0.8747
10139TIP3    H151908   6.359   5.008   5.125 -0.1598 -0.1296 -0.1181
10139TIP3    H251909   6.355   4.923   4.999 -0.4618 -1.2727  0.6530
10140TIP3   OH251910   4.731   2.965  13.907 -1.1816  0.2485 -0.2847
10140TIP3    H151911   4.699   2.979  13.818 -1.4722 -0.7579 -0.3570
10140TIP3    H251912   4.826   2.969  13.899 -1.1619 -0.9278 -0.8620
10141TIP3   OH251913   3.244   2.559   5.443  0.0464 -0.2142 -0.0939
10141TIP3    H151914   3.160   2.590   5.476 -0.5092 -0.5720 -1.1397
10141TIP3    H251915   3.301   2.558   5.520 -0.6912  0.7297  0.4931
10142TIP3   OH251916   2.887   5.387  14.335  0.2860 -0.4285 -0.4786
10142TIP3    H151917   2.861   5.298  14.312 -0.8547  0.1765 -1.7195
10142TIP3    H251918   2.889   5.388  14.430  1.1719 -1.9921 -0.4429
10143TIP3   OH251919   1.528   1.475  10.984  0.5293  0.1014  0.4394
10143TIP3    H151920   1.438   1.471  11.017  0.5017  0.7273  0.4488
10143TIP3    H251921   1.581   1.495  11.061  0.6481 -0.0322  0.3924
10144TIP3   OH251922   5.586   1.258  13.704  0.0242 -0.2318 -0.0798
10144TIP3    H151923   5.565   1.314  13.630  1.0540 -1.4233 -1.3325
10144TIP3    H251924   5.658   1.303  13.749  1.4709 -0.8857 -1.6022
10145TIP3   OH251925   1.596   3.038  10.589 -0.5331  0.4208 -0.1839
10145TIP3    H151926   1.632   2.983  10.519 -3.1620  1.0269 -2.1774
10145TIP3    H251927   1.669   3.053  10.648  1.2782 -1.9149 -1.6594
10146TIP3   OH251928   6.505   2.717   3.618  0.2651 -0.1509  0.0059
10146TIP3    H151929   6.543   2.757   3.697  3.0322  0.3605 -1.4434
10146TIP3    H251930   6.411   2.731   3.626  0.6464  1.6820  2.2324
10147TIP3   OH251931   1.958   4.410  15.467 -0.0236 -0.1804  0.7430
10147TIP3    H151932   1.993   4.466  15.536 -0.8940 -0.6592  1.6065
10147TIP3    H251933   2.023   4.340  15.458  0.0913 -0.1218  1.0946
10148TIP3   OH251934   3.810   6.522  11.894 -0.0874  0.3465 -0.5318
10148TIP3    H151935   3.812   6.535  11.989 -0.5566  0.4370 -0.5313
10148TIP3    H251936   3.724   6.554  11.867  0.2867  0.9224 -1.0733
10149TIP3   OH251937   3.963   4.762  16.770 -0.3908  0.0343 -0.3149
10149TIP3    H151938   4.056   4.781  16.777 -0.5961  1.4764 -1.0018
10149TIP3    H251939   3.958   4.678  16.725  0.5734 -0.2221  0.0419
10150TIP3   OH251940   4.263   2.166   3.074 -0.3240 -0.7100  0.0311
10150TIP3    H151941   4.220   2.220   3.008  2.8364 -1.2715 -2.7734
10150TIP3    H251942   4.237   2.076   3.052 -1.4453 -0.7454  1.3899
10151TIP3   OH251943   1.670   5.797   5.900 -0.0506  0.4912 -0.2190
10151TIP3    H151944   1.700   5.708   5.881  1.6916  0.8641  0.6119
10151TIP3    H251945   1.711   5.820   5.984 -0.6368  1.9943 -0.3001
10152TIP3   OH251946   3.901   1.853  15.221 -0.1178  0.4167 -0.0283
10152TIP3    H151947   3.880   1.761  15.208 -0.0662  0.3601  0.2654
10152TIP3    H251948   3.996   1.854  15.233 -0.1264  0.4988  0.0372
10153TIP3   OH251949   1.288   6.124   0.648  0.3958 -0.2476  0.0613
10153TIP3    H151950   1.223   6.113   0.579  0.8575 -0.2493 -0.3824
10153TIP3    H251951   1.352   6.186   0.612  0.4911 -0.0170  0.6004
10154TIP3   OH251952   3.589   2.934  14.133  0.0484  0.4095  0.2635
10154TIP3    H151953   3.640   2.867  14.178 -0.5322  0.2065  0.6265
10154TIP3    H251954   3.613   2.924  14.041  1.7888  1.2962  0.5695
10155TIP3   OH251955   1.640   2.659   5.282 -0.4662 -0.1693 -0.2144
10155TIP3    H151956   1.602   2.598   5.219 -0.5037  0.1702 -0.5239
10155TIP3    H251957   1.627   2.745   5.244  1.6441 -0.0947 -0.9207
10156TIP3   OH251958   5.861   0.326  15.958 -0.2222 -0.7534 -0.1944
10156TIP3    H151959   5.923   0.317  15.886 -1.9168  0.5255 -1.9149
10156TIP3    H251960   5.889   0.260  16.022  2.3451 -0.8024 -1.2385
10157TIP3   OH251961   5.707   4.841  13.154 -0.4813  0.0707 -0.3114
10157TIP3    H151962   5.616   4.842  13.124 -0.6270 -0.2316  0.1035
10157TIP3    H251963   5.747   4.766  13.109 -0.1772  0.7702 -1.2241
10158TIP3   OH251964   2.732   5.972   2.630 -0.2862 -0.6009 -0.7079
10158TIP3    H151965   2.743   6.048   2.573  1.4067 -0.2707  0.0037
10158TIP3    H251966   2.797   5.984   2.699 -0.2571 -2.4902 -0.3512
10159TIP3   OH251967   3.472   1.491  13.334  0.2493  0.4729  0.1918
10159TIP3    H151968   3.472   1.421  13.400  2.2336  0.3161  0.1042
10159TIP3    H251969   3.496   1.448  13.253  1.7194  1.2416  0.1776
10160TIP3   OH251970   3.105   4.007  14.888  0.1982  0.6300  0.4033
10160TIP3    H151971   3.079   3.949  14.816  2.0794  0.3624 -0.1112
10160TIP3    H251972   3.025   4.019  14.938 -0.8263 -0.3850 -0.8985
10161TIP3   OH251973   3.628   1.856  15.334 -0.2696 -0.1381 -0.3475
10161TIP3    H151974   3.639   1.879  15.426 -1.0186 -0.4214 -0.1747
10161TIP3    H251975   3.717   1.850  15.299  0.0097  0.1795  0.3053
10162TIP3   OH251976   3.147   1.837   3.575 -0.4656 -0.0576 -0.2636
10162TIP3    H151977   3.056   1.823   3.549 -0.2438 -0.1957 -0.9853
10162TIP3    H251978   3.155   1.792   3.659 -0.6621 -1.3647 -0.9183
10163TIP3   OH251979   2.282   5.595  12.044 -0.4373  0.0832  0.1120
10163TIP3    H151980   2.207   5.631  11.997 -2.1001 -2.0763  0.9391
10163TIP3    H251981   2.303   5.660  12.111  0.0374  1.8109 -1.6323
10164TIP3   OH251982   6.183   5.374   1.651  0.2534 -0.0768 -0.3467
10164TIP3    H151983   6.233   5.384   1.570  1.0502  2.6675  0.3975
10164TIP3    H251984   6.108   5.433   1.640 -0.1496 -0.4035  0.5605
10165TIP3   OH251985   2.648   1.770  11.704 -0.0603  0.5745  0.3365
10165TIP3    H151986   2.605   1.793  11.621 -0.7382  0.7390  0.7205
10165TIP3    H251987   2.680   1.681  11.691  2.3017  1.5352 -1.0523
10166TIP3   OH251988   4.357   2.076  16.511  0.3879  0.7379 -0.3092
10166TIP3    H151989   4.415   2.150  16.530  1.2913  0.2834 -1.1585
10166TIP3    H251990   4.416   2.000  16.508 -0.2176  0.2829 -1.3347
10167TIP3   OH251991   6.500   0.802   1.185  0.5585  0.0267  0.7141
10167TIP3    H151992   6.474   0.880   1.135  2.4678  1.0913  1.2672
10167TIP3    H251993   6.467   0.819   1.274  0.4540 -0.0798  0.6955
10168TIP3   OH251994   0.716   2.788   2.266  0.0472  0.0464 -0.0525
10168TIP3    H151995   0.795   2.742   2.294  0.9453  0.1863 -2.1411
10168TIP3    H251996   0.647   2.722   2.269  0.0992  0.0428  2.2480
10169TIP3   OH251997   0.266   6.394  15.296 -0.1630  0.5144 -0.2765
10169TIP3    H151998   0.268   6.410  15.391 -0.7216  0.8690 -0.3189
10169TIP3    H251999   0.223   6.471  15.260 -1.3691 -0.3135 -0.6608
10170TIP3   OH252000   6.322   5.447   1.444  0.3759 -0.3238  0.4290
10170TIP3    H152001   6.415   5.430   1.429  0.1793 -1.1292  0.0449
10170TIP3    H252002   6.292   5.490   1.364  0.2117 -0.9647  0.1350
10171TIP3   OH252003   1.733   4.603  11.674 -0.4227  0.5749 -0.0474
10171TIP3    H152004   1.685   4.544  11.616 -0.2564 -0.3095  0.7028
10171TIP3    H252005   1.818   4.561  11.687 -0.9119  0.0820  1.8608
10172TIP3   OH252006   0.526   3.947   4.888 -0.5758 -0.6633 -0.0245
10172TIP3    H152007   0.512   3.862   4.930 -1.9096  0.2076  1.3879
10172TIP3    H252008   0.452   3.957   4.828  0.7053 -1.3811 -1.8417
10173TIP3   OH252009   2.423   5.468   2.167  0.4015  0.2471 -0.3141
10173TIP3    H152010   2.471   5.549   2.149  2.5839 -0.4157  1.9025
10173TIP3    H252011   2.333   5.497   2.183  0.5954  1.9103 -1.8507
10174TIP3   OH252012   1.253   0.237  15.109 -0.2785 -0.3482  0.5132
10174TIP3    H152013   1.269   0.144  15.090  2.0737  0.2711 -1.0162
10174TIP3    H252014   1.291   0.283  15.035 -0.2347  1.9066  1.8498
10175TIP3   OH252015   1.472   1.583  16.891 -1.1913 -0.8498 -0.0563
10175TIP3    H152016   1.536   1.636  16.939 -0.1046  0.2796 -2.5802
10175TIP3    H252017   1.389   1.601  16.934 -0.5465  1.4601  0.3643
10176TIP3   OH252018   0.796   1.912   4.006  0.1769  0.1737  0.3662
10176TIP3    H152019   0.822   1.940   3.918  1.3691  0.8961  0.9305
10176TIP3    H252020   0.739   1.836   3.991 -0.2831  0.7729 -1.0491
10177TIP3   OH252021   1.550   3.282   2.127  0.9139  0.3621 -0.3669
10177TIP3    H152022   1.589   3.255   2.044  2.4814 -0.1663  0.5074
10177TIP3    H252023   1.483   3.346   2.102  1.7649  0.6698 -1.9951
10178TIP3   OH252024   5.394   2.785  16.957 -0.3625 -0.0841  0.0651
10178TIP3    H152025   5.407   2.724  16.884 -1.7484  0.4788 -0.6882
10178TIP3    H252026   5.419   2.734  17.035  2.3179 -0.3073 -0.8460
10179TIP3   OH252027   0.477   4.327  11.626 -0.1926  0.2772 -0.3536
10179TIP3    H152028   0.443   4.351  11.540 -1.4647  1.4247  0.4395
10179TIP3    H252029   0.439   4.391  11.686  2.4233  0.9024  0.7829
10180TIP3   OH252030   5.543   5.155   5.863 -0.0722  0.0231  0.3888
10180TIP3    H152031   5.492   5.235   5.851 -1.0329 -0.5299  0.6814
10180TIP3    H252032   5.623   5.185   5.908 -0.1352  0.8982 -0.0546
10181TIP3   OH252033   5.397   6.178   2.035 -0.7552 -0.0238  0.1855
10181TIP3    H152034   5.373   6.134   1.953 -0.3925  0.4365 -0.1699
10181TIP3    H252035   5.432   6.108   2.090 -1.1710 -0.3694  0.0183
10182TIP3   OH252036   0.260   0.412   3.593  0.4727 -0.2095 -0.3149
10182TIP3    H152037   0.349   0.423   3.561  0.6913  0.5400  0.4963
10182TIP3    H252038   0.257   0.322   3.627  1.0189 -0.1374 -0.0718
10183TIP3   OH252039   4.969   0.493   1.678 -0.8527  0.0083  0.0101
10183TIP3    H152040   5.037   0.525   1.737 -0.6611  0.8190 -0.6286
10183TIP3    H252041   4.897   0.469   1.736 -0.1059 -0.6803  0.6818
10184TIP3   OH252042   4.963   5.293   3.193  0.3373 -0.0121 -0.0673
10184TIP3    H152043   4.998   5.231   3.258 -2.3827 -1.2671  0.3670
10184TIP3    H252044   5.036   5.352   3.174  1.3695  0.2796  3.9384
10185TIP3   OH252045   5.812   0.834  11.965 -0.5848 -0.2771  0.3153
10185TIP3    H152046   5.819   0.807  11.873  0.1578  0.1148  0.2455
10185TIP3    H252047   5.718   0.840  11.981 -0.7215  0.0594 -0.5398
10186TIP3   OH252048   3.762   1.522   0.535  0.0687  0.2018  0.0429
10186TIP3    H152049   3.739   1.590   0.472  0.2667  0.5828  0.3709
10186TIP3    H252050   3.858   1.525   0.539  0.0196  0.9615  1.1847
10187TIP3   OH252051   0.968   0.115   0.157  0.2811  0.5189 -0.4511
10187TIP3    H152052   1.015   0.123   0.239 -0.3082 -0.8626  0.0461
10187TIP3    H252053   0.895   0.057   0.176 -0.2222  0.6599 -1.8009
10188TIP3   OH252054   0.631   1.381   3.739  0.5657 -0.1911 -0.2822
10188TIP3    H152055   0.606   1.344   3.824 -1.7103  2.7732  0.5146
10188TIP3    H252056   0.702   1.325   3.709 -1.9860 -4.6815  1.0314
10189TIP3   OH252057   3.591   5.037  16.214  0.2260 -0.2000  0.3906
10189TIP3    H152058   3.637   5.122  16.215  0.3223 -0.2411 -0.0307
10189TIP3    H252059   3.650   4.979  16.166 -0.8616  0.1149 -1.4582
10190TIP3   OH252060   4.906   1.132  11.797  0.4801 -0.3519 -0.2444
10190TIP3    H152061   4.864   1.050  11.821  0.7933 -0.8831 -1.4160
10190TIP3    H252062   4.855   1.164  11.723 -0.0238  0.8431  0.6064
10191TIP3   OH252063   6.570   3.628   0.128  0.5308 -0.8292 -0.1523
10191TIP3    H152064   6.604   3.657   0.043  0.0278 -3.4919 -1.3598
10191TIP3    H252065   6.636   3.656   0.191  0.3003  2.3709 -1.1700
10192TIP3   OH252066   1.342   4.031  12.653  0.0285  0.0852  0.5157
10192TIP3    H152067   1.266   4.018  12.596  0.8544 -0.6325 -0.4578
10192TIP3    H252068   1.335   4.123  12.681 -1.9988 -0.3608  1.6926
10193TIP3   OH252069   4.755   6.621  11.586  0.6464 -0.2470  0.4805
10193TIP3    H152070   4.711   6.589  11.664  0.3678 -0.9215  0.0536
10193TIP3    H252071   4.839   6.655  11.618  0.4832 -0.3995  1.0830
10194TIP3   OH252072   3.845   0.805  16.570 -0.5318  0.4596  0.7864
10194TIP3    H152073   3.860   0.867  16.641  1.4231  0.2837  0.5839
10194TIP3    H252074   3.776   0.747  16.603  0.6995  0.0392  2.8123
10195TIP3   OH252075   3.936   0.758  13.438  0.9605  0.0512 -0.1308
10195TIP3    H152076   3.972   0.828  13.493 -1.6305  0.0596  1.7705
10195TIP3    H252077   4.011   0.704  13.415  2.3615  0.7115  2.5147
10196TIP3   OH252078   6.302   6.508   1.788 -0.0013  0.3184  0.1402
10196TIP3    H152079   6.367   6.567   1.749  0.2402  0.2574  0.4440
10196TIP3    H252080   6.331   6.421   1.763  0.3750  0.2547  0.7726
10197TIP3   OH252081   3.884   1.091  11.693  0.1771 -0.7564  0.4458
10197TIP3    H152082   3.947   1.025  11.722 -0.9396 -1.9387  0.2810
10197TIP3    H252083   3.814   1.041  11.650 -2.0337  0.2181  2.6154
10198TIP3   OH252084   6.089   3.912  11.912  0.2158  0.1424 -0.4128
10198TIP3    H152085   6.065   3.826  11.879 -0.2750  0.7035 -1.5842
10198TIP3    H252086   6.126   3.895  11.999 -0.5145 -1.1643 -0.3304
10199TIP3   OH252087   6.446   1.653  15.861 -0.2438  0.1798  0.4287
10199TIP3    H152088   6.353   1.640  15.841 -0.0926 -0.4045  0.0971
10199TIP3    H252089   6.489   1.575  15.828  0.3988  0.5411  0.3918
10200TIP3   OH252090   1.280   5.148   1.271  0.4798 -0.0648 -0.3910
10200TIP3    H152091   1.273   5.238   1.304 -3.3155 -1.1124  2.3724
10200TIP3    H252092   1.244   5.152   1.183 -1.6438  0.9278  0.4406
10201TIP3   OH252093   3.227   0.144  15.430 -0.1723  0.0435  0.4254
10201TIP3    H152094   3.162   0.076  15.446 -0.2489 -0.1337 -0.5624
10201TIP3    H252095   3.304   0.116  15.481 -0.2877 -0.6556  0.2300
10202TIP3   OH252096   4.817   3.536  12.348  0.2006 -0.1230 -0.0901
10202TIP3    H152097   4.843   3.537  12.256  1.4891 -0.8994  0.2392
10202TIP3    H252098   4.855   3.455  12.383 -2.2088 -1.0266  0.6055
10203TIP3   OH252099   4.404   0.306   2.376 -0.0953  0.1325  0.2020
10203TIP3    H152100   4.356   0.384   2.403  0.3085  0.6490 -0.5399
10203TIP3    H252101   4.348   0.233   2.403 -1.0994  0.7143 -0.2474
10204TIP3   OH252102   5.190   0.464  13.826  0.4689  0.4701 -0.7689
10204TIP3    H152103   5.128   0.535  13.807  0.3954  0.4203 -0.7190
10204TIP3    H252104   5.146   0.385  13.795 -0.0298  0.2742  0.3574
10205TIP3   OH252105   6.535   5.114   1.120  0.6683  0.1404  0.3927
10205TIP3    H152106   6.616   5.062   1.122  0.5357 -0.0587  2.0301
10205TIP3    H252107   6.474   5.062   1.068  0.3853 -1.6457  2.3801
10206TIP3   OH252108   1.458   5.240  14.585 -0.0989  0.5799  0.7180
10206TIP3    H152109   1.550   5.218  14.576 -0.2368 -0.2776  1.3125
10206TIP3    H252110   1.455   5.336  14.577  0.8847  0.6505  1.0905
10207TIP3   OH252111   6.148   2.401   3.655  0.0579  0.3792 -0.0951
10207TIP3    H152112   6.164   2.373   3.565  0.9703  1.7741 -0.3955
10207TIP3    H252113   6.221   2.364   3.705  2.6650  3.8577 -0.8833
10208TIP3   OH252114   2.663   0.893   5.708  0.5866  0.8128 -0.2637
10208TIP3    H152115   2.652   0.841   5.629 -0.2345  0.9785 -0.2664
10208TIP3    H252116   2.658   0.829   5.780  2.0486  0.5565 -0.3453
10209TIP3   OH252117   4.861   5.757   2.665 -0.3618  0.7740 -0.5457
10209TIP3    H152118   4.796   5.805   2.614  0.0869  0.8297 -1.0749
10209TIP3    H252119   4.910   5.824   2.711  0.1304  0.8238 -1.1245
10210TIP3   OH252120   2.341   4.702  10.933 -0.7868 -0.2692 -0.0365
10210TIP3    H152121   2.379   4.788  10.952 -0.5236  0.2482 -2.5261
10210TIP3    H252122   2.302   4.712  10.846 -1.3600 -2.4989 -0.0956
10211TIP3   OH252123   1.590   5.104   1.927 -1.0474  0.2515 -0.3704
10211TIP3    H152124   1.604   5.062   2.013 -1.1474  0.8433 -0.0591
10211TIP3    H252125   1.649   5.180   1.928 -3.4603  2.2576  0.5821
10212TIP3   OH252126   5.118   6.522  13.842 -0.2973 -0.1146  0.5544
10212TIP3    H152127   5.189   6.561  13.791 -2.1531  2.1139 -0.5278
10212TIP3    H252128   5.064   6.479  13.777 -1.3912  0.6414  0.9306
10213TIP3   OH252129   5.043   2.666  13.033 -0.0142  0.6094  0.4937
10213TIP3    H152130   5.085   2.620  12.960 -0.6279  0.8436 -0.0209
10213TIP3    H252131   5.109   2.728  13.063  0.1109  0.7778 -0.1162
10214TIP3   OH252132   0.105   2.481  12.404 -0.5882  0.5353  1.0251
10214TIP3    H152133   0.103   2.426  12.483 -0.7775 -1.3718 -0.2444
10214TIP3    H252134   0.038   2.444  12.347 -1.0123  2.3786  0.2519
10215TIP3   OH252135   0.790   4.354  15.525 -0.1237  0.1320  0.0403
10215TIP3    H152136   0.818   4.431  15.475 -0.7080 -0.2664 -0.9229
10215TIP3    H252137   0.833   4.280  15.481  1.0026 -0.0613  1.3805
10216TIP3   OH252138   1.331   6.703   6.108 -0.2454  0.1120 -0.1221
10216TIP3    H152139   1.284   6.770   6.157 -0.6064  0.6849 -1.2279
10216TIP3    H252140   1.401   6.750   6.063  0.1159 -0.4089 -0.1174
10217TIP3   OH252141   1.084   5.874   1.437 -0.1812  0.2603  0.0734
10217TIP3    H152142   1.052   5.921   1.514 -1.2318  2.0877 -1.3796
10217TIP3    H252143   1.158   5.927   1.406 -1.1559  0.8455 -1.3845
10218TIP3   OH252144   3.098   0.215   0.622 -0.3136 -0.3823  0.1547
10218TIP3    H152145   3.041   0.150   0.663  0.7353  0.2680  2.8608
10218TIP3    H252146   3.186   0.189   0.647  0.2086  1.4383  0.3492
10219TIP3   OH252147   6.397   1.225  14.567 -0.3330  0.4696 -0.2880
10219TIP3    H152148   6.459   1.283  14.611 -0.8058  1.6127 -1.0471
10219TIP3    H252149   6.335   1.199  14.635  1.6097 -1.6866  0.7651
10220TIP3   OH252150   5.613   3.780  12.833  0.1370  0.1003  0.0004
10220TIP3    H152151   5.603   3.848  12.766  0.1186  1.3508  1.2437
10220TIP3    H252152   5.539   3.792  12.891  0.8281 -0.1588  0.9520
10221TIP3   OH252153   6.723   0.072  14.401  0.0529  0.0923 -0.1347
10221TIP3    H152154   6.743   0.109  14.315 -1.0134  0.9229 -0.0512
10221TIP3    H252155   6.798   0.015  14.421  1.0335  1.0518 -0.9381
10222TIP3   OH252156   2.921   4.797   3.229 -0.7772 -0.1019 -0.4886
10222TIP3    H152157   2.890   4.739   3.298 -1.1208 -0.0886 -0.6292
10222TIP3    H252158   2.843   4.845   3.200 -0.7091 -0.3506 -1.1145
10223TIP3   OH252159   1.157   1.003  14.715  0.2109  0.1991 -0.0658
10223TIP3    H152160   1.202   1.070  14.767  1.3438 -0.4342 -0.2080
10223TIP3    H252161   1.088   1.051  14.669 -0.3302  0.9037  1.4187
10224TIP3   OH252162   2.428   2.267  16.333  0.3167 -0.5845  0.4912
10224TIP3    H152163   2.448   2.334  16.398 -0.2800 -2.4818  2.7599
10224TIP3    H252164   2.507   2.261  16.280  1.5859 -0.2892  2.2701
10225TIP3   OH252165   1.828   6.746   5.536 -0.0214 -0.4334  0.0487
10225TIP3    H152166   1.840   6.702   5.620 -0.8867  1.2768  1.1289
10225TIP3    H252167   1.773   6.821   5.556  1.5789  1.3156 -1.6261
10226TIP3   OH252168   4.502   2.988   5.985  0.5971 -0.2311 -0.8539
10226TIP3    H152169   4.460   2.970   6.069  0.8366 -0.7966 -0.8489
10226TIP3    H252170   4.433   2.974   5.920  1.1293 -2.7401 -0.9732
10227TIP3   OH252171   1.251   4.924   6.179 -0.7086 -0.1814 -0.0124
10227TIP3    H152172   1.346   4.920   6.166 -0.7643 -0.0072 -0.4941
10227TIP3    H252173   1.238   4.998   6.239 -0.5396 -0.2147  0.0654
10228TIP3   OH252174   3.856   4.190  12.582  0.3588  0.3061  0.2969
10228TIP3    H152175   3.825   4.275  12.614 -0.3734 -0.0014  0.4118
10228TIP3    H252176   3.939   4.177  12.628 -0.6182 -0.0855  2.0495
10229TIP3   OH252177   2.814   6.711   3.967 -0.0897  0.8306 -0.7113
10229TIP3    H152178   2.751   6.714   4.039 -1.2588 -0.7481 -1.6046
10229TIP3    H252179   2.858   6.627   3.977  0.7517  1.2180 -1.0402
10230TIP3   OH252180   1.295   4.885  14.876  0.2501 -0.1016  0.4802
10230TIP3    H152181   1.223   4.826  14.896 -0.3181  0.2914 -0.3545
10230TIP3    H252182   1.371   4.828  14.867 -0.8964 -1.2963 -3.9854
10231TIP3   OH252183   0.064   3.087   5.287  0.3333  0.2706  0.2464
10231TIP3    H152184   0.132   3.152   5.299  1.0794 -0.5329  0.4396
10231TIP3    H252185   0.010   3.121   5.215 -0.6280  2.1780  1.7802
10232TIP3   OH252186   3.634   6.002  12.023 -0.4094  0.9716  0.8815
10232TIP3    H152187   3.542   6.003  12.051 -0.5829 -0.3385  0.4757
10232TIP3    H252188   3.659   5.910  12.029  1.6683  1.5876  3.3368
10233TIP3   OH252189   0.317   3.277   3.692 -0.2092  0.6320  0.0785
10233TIP3    H152190   0.232   3.287   3.648 -0.3581 -0.4495  0.0971
10233TIP3    H252191   0.297   3.284   3.785 -0.1120  1.4076  0.0529
10234TIP3   OH252192   0.292   6.676   2.233 -0.0862  0.0426 -0.2279
10234TIP3    H152193   0.350   6.724   2.292  0.1621 -0.5886  0.0482
10234TIP3    H252194   0.283   6.733   2.157  1.1300  0.0195 -0.3946
10235TIP3   OH252195   5.970   5.165  12.211 -0.1837 -0.4019 -0.2080
10235TIP3    H152196   6.019   5.229  12.159  0.0057 -1.2331 -1.0673
10235TIP3    H252197   5.975   5.084  12.161 -0.1438 -1.1886  1.0158
10236TIP3   OH252198   3.175   4.482  12.566  0.2906  0.6091  0.4477
10236TIP3    H152199   3.122   4.477  12.646 -1.0489  0.3615 -0.4245
10236TIP3    H252200   3.137   4.416  12.508  2.1539 -0.2241  0.0921
10237TIP3   OH252201   3.709   4.910   5.636  0.0581 -0.6561 -0.3855
10237TIP3    H152202   3.755   4.960   5.704  1.8115  0.4023 -2.2497
10237TIP3    H252203   3.706   4.821   5.671 -0.0327  0.0319  1.5051
10238TIP3   OH252204   1.488   5.537   5.559 -0.4042  0.1943 -0.0495
10238TIP3    H152205   1.539   5.609   5.596  1.1865 -0.0885 -1.5473
10238TIP3    H252206   1.516   5.460   5.610 -0.1865  0.2322 -0.1098
10239TIP3   OH252207   5.265   1.216   2.438 -0.7975  0.3393 -0.0638
10239TIP3    H152208   5.217   1.193   2.359 -1.0664  0.7679 -0.0270
10239TIP3    H252209   5.250   1.310   2.449  0.3116  0.5542 -0.2367
10240TIP3   OH252210   6.431   2.455  12.716  0.2436  0.0967 -0.1805
10240TIP3    H152211   6.430   2.550  12.728  0.2869  0.0202  0.4946
10240TIP3    H252212   6.423   2.419  12.805 -1.7519 -0.5503 -0.5667
10241TIP3   OH252213   2.108   0.188  13.207  0.3674 -0.3981  0.2693
10241TIP3    H152214   2.152   0.199  13.291  0.9593  1.4589 -0.2409
10241TIP3    H252215   2.177   0.198  13.142 -0.5862  1.6750 -0.5272
10242TIP3   OH252216   2.840   1.385  16.578  0.1989  0.3818  0.3640
10242TIP3    H152217   2.852   1.388  16.673 -1.9561  0.0810  0.7118
10242TIP3    H252218   2.814   1.295  16.560 -1.8290  1.0092 -0.1075
10243TIP3   OH252219   6.187   2.362  12.447  0.9559  0.3277 -0.5218
10243TIP3    H152220   6.161   2.419  12.519 -1.5984  2.0303 -2.5886
10243TIP3    H252221   6.105   2.345  12.400  2.4359 -1.0091 -2.7984
10244TIP3   OH252222   5.293   4.818  15.552  0.0399  0.1784 -0.1064
10244TIP3    H152223   5.385   4.790  15.550 -0.2291 -0.8343  0.8185
10244TIP3    H252224   5.294   4.898  15.604  0.3089 -0.2692  0.5996
10245TIP3   OH252225   4.798   5.442   0.846 -1.1324 -0.1898 -0.2770
10245TIP3    H152226   4.797   5.364   0.789  0.5369 -1.2149  1.0166
10245TIP3    H252227   4.711   5.441   0.887 -1.4224 -0.9119 -0.8666
10246TIP3   OH252228   5.749   5.885   3.952  0.4867  0.2869 -0.6289
10246TIP3    H152229   5.660   5.907   3.925  0.9668  0.9333 -1.7408
10246TIP3    H252230   5.765   5.800   3.911  0.0367 -0.3283  0.4220
10247TIP3   OH252231   3.293   2.830   5.343 -1.2108  0.1874 -0.6902
10247TIP3    H152232   3.384   2.811   5.365 -0.3161  1.5934 -2.8548
10247TIP3    H252233   3.244   2.757   5.381  0.8957 -1.0365 -0.1498
10248TIP3   OH252234   0.379   4.099   1.457  0.4667  0.5652  0.6785
10248TIP3    H152235   0.287   4.104   1.483  0.0771 -0.9494 -0.3010
10248TIP3    H252236   0.422   4.052   1.529 -0.1086 -1.2862 -0.1330
10249TIP3   OH252237   2.207   3.583   0.091  0.6931  0.2732 -0.2413
10249TIP3    H152238   2.278   3.552   0.146  1.1266 -0.2161 -1.0545
10249TIP3    H252239   2.250   3.614   0.012 -0.0041 -0.2844 -0.8550
10250TIP3   OH252240   6.531   4.623   3.687  0.2763  0.4703 -0.0019
10250TIP3    H152241   6.585   4.571   3.627 -0.6008  0.1218 -0.4998
10250TIP3    H252242   6.473   4.673   3.629 -0.7789 -0.0870  0.5544
10251TIP3   OH252243   4.183   5.245   1.051 -0.3703  0.2547 -0.0295
10251TIP3    H152244   4.158   5.170   0.997 -0.8471  0.5138 -0.1799
10251TIP3    H252245   4.229   5.207   1.125 -1.5184 -0.2981  0.4359
10252TIP3   OH252246   1.485   5.489   0.957  0.2874  0.3466  0.0782
10252TIP3    H152247   1.530   5.570   0.930 -0.5278  0.7916  0.0395
10252TIP3    H252248   1.496   5.486   1.052 -0.2009  0.8193  0.1499
10253TIP3   OH252249   3.649   5.178   5.393 -0.8409 -0.6044  0.1596
10253TIP3    H152250   3.614   5.265   5.374 -1.9115 -0.8375  0.9727
10253TIP3    H252251   3.706   5.192   5.469  0.6516 -0.2826 -0.9644
10254TIP3   OH252252   2.366   1.671  13.950 -0.1285  0.8152  0.0684
10254TIP3    H152253   2.297   1.696  13.890  0.1030  0.6888 -0.2541
10254TIP3    H252254   2.369   1.575  13.944  0.0330  0.8165  0.1271
10255TIP3   OH252255   0.359   5.496  10.118  0.4590 -0.5360 -0.2158
10255TIP3    H152256   0.402   5.412  10.136  0.2640 -0.8892 -1.3091
10255TIP3    H252257   0.293   5.504  10.186  2.5325  0.2663  1.8668
10256TIP3   OH252258   4.300   2.862  11.022  0.1868  0.1170 -0.3024
10256TIP3    H152259   4.229   2.925  11.035 -0.7004 -0.8442 -0.3636
10256TIP3    H252260   4.260   2.777  11.042  0.6700 -0.7010 -2.5232
10257TIP3   OH252261   1.455   0.999   1.202  0.1397  0.0167 -0.0757
10257TIP3    H152262   1.405   1.075   1.231  0.0682 -0.2817  0.5834
10257TIP3    H252263   1.518   1.035   1.139  2.3303  1.2156  2.6089
10258TIP3   OH252264   0.066   3.106  13.829 -0.7318 -0.4419 -0.6956
10258TIP3    H152265   0.126   3.098  13.903 -0.9050  0.8322 -0.3974
10258TIP3    H252266  -0.000   3.039  13.844 -0.5507 -0.4449  0.1054
10259TIP3   OH252267   2.521   6.254  17.333  0.1491  0.4970 -0.1500
10259TIP3    H152268   2.560   6.169  17.310 -0.5415 -0.0991  0.7629
10259TIP3    H252269   2.565   6.278  17.415  0.5511  1.1782 -0.5604
10260TIP3   OH252270   4.071   6.157  13.076  0.0080  0.3929 -0.1155
10260TIP3    H152271   4.010   6.150  13.002  0.0879 -0.4603 -0.1089
10260TIP3    H252272   4.095   6.066  13.096 -0.1603  0.6003  1.0793
10261TIP3   OH252273   0.462   6.006   1.663 -0.6137 -0.7740  0.8647
10261TIP3    H152274   0.500   6.092   1.644 -2.1131 -0.1998  0.2967
10261TIP3    H252275   0.414   6.019   1.745  0.8070 -1.6311  1.8617
10262TIP3   OH252276   2.615   2.393   5.870 -0.0956  0.2938  0.1793
10262TIP3    H152277   2.544   2.334   5.844  0.1311  0.5587 -1.1144
10262TIP3    H252278   2.686   2.335   5.899 -1.1724  0.0410  2.5417
10263TIP3   OH252279   1.407   3.788  15.390 -0.5359  0.3985  0.1121
10263TIP3    H152280   1.315   3.796  15.413 -0.1938 -0.9055  2.2260
10263TIP3    H252281   1.452   3.844  15.454  0.3548 -2.0728  1.7784
10264TIP3   OH252282   5.402   1.282  14.701 -0.0947 -0.0515  0.0439
10264TIP3    H152283   5.326   1.340  14.691  0.1322  0.3573  0.6999
10264TIP3    H252284   5.405   1.233  14.618 -0.9272  0.1016 -0.0861
10265TIP3   OH252285   3.483   2.902  14.433  0.3960 -0.0712  0.0449
10265TIP3    H152286   3.572   2.882  14.405  0.1915 -2.0251  0.6607
10265TIP3    H252287   3.429   2.889  14.354  0.4293 -0.7757  0.1315
10266TIP3   OH252288   3.851   3.220   3.227 -0.2933 -0.0369 -0.6138
10266TIP3    H152289   3.886   3.149   3.281 -0.4227 -0.6362 -1.2928
10266TIP3    H252290   3.765   3.239   3.264  0.0031  0.2012 -0.0418
10267TIP3   OH252291   1.487   1.750   3.211 -0.7750  0.5348 -0.6719
10267TIP3    H152292   1.473   1.749   3.305  0.5968 -1.8580 -0.4159
10267TIP3    H252293   1.481   1.842   3.187  2.3803  1.7411  2.3526
10268TIP3   OH252294   5.461   3.116  17.328  0.3685  0.1136  0.1810
10268TIP3    H152295   5.393   3.050  17.313  0.6380 -0.1354  0.0401
10268TIP3    H252296   5.419   3.199  17.304  0.8057 -0.2649 -2.2226
10269TIP3   OH252297   5.857   0.870  11.321  0.0459 -0.1702  0.5561
10269TIP3    H152298   5.893   0.952  11.354  3.3651 -1.7639  1.3203
10269TIP3    H252299   5.865   0.876  11.226 -0.1415  0.5452  0.5843
10270TIP3   OH252300   5.554   0.350   4.789  0.2035  0.4984  0.6462
10270TIP3    H152301   5.553   0.438   4.751 -1.5842  0.8634  1.4287
10270TIP3    H252302   5.526   0.293   4.718 -3.3776  1.2051  1.2796
10271TIP3   OH252303   1.469   3.109  14.736  0.2957  0.3940  0.2444
10271TIP3    H152304   1.393   3.146  14.780  0.3752 -0.1582  0.8567
10271TIP3    H252305   1.544   3.151  14.779  0.3837 -0.3786  0.8705
10272TIP3   OH252306   4.363   3.074  12.684  0.8269 -0.4513 -0.3125
10272TIP3    H152307   4.429   3.032  12.630  2.0509  0.5052  0.3791
10272TIP3    H252308   4.325   3.142  12.628  0.4287 -0.9908 -0.7031
10273TIP3   OH252309   1.202   6.392   2.327  0.1643  0.1250  0.6792
10273TIP3    H152310   1.225   6.299   2.324 -1.3145 -0.2682  0.9803
10273TIP3    H252311   1.187   6.411   2.419 -1.9602 -0.0038  0.4240
10274TIP3   OH252312   1.924   2.576  15.254  0.6825 -0.5912 -0.1103
10274TIP3    H152313   1.913   2.510  15.186  1.3554 -0.6818 -0.1305
10274TIP3    H252314   1.859   2.551  15.321  0.2713 -0.7109 -0.5448
10275TIP3   OH252315   1.960   1.726  12.183 -0.2254 -0.2486 -0.2195
10275TIP3    H152316   1.998   1.700  12.267 -1.1613 -1.2701 -0.0936
10275TIP3    H252317   1.920   1.811  12.200 -0.4306 -0.4618  0.3892
10276TIP3   OH252318   3.655   6.199  10.900  0.5070  0.1489  0.2606
10276TIP3    H152319   3.694   6.182  10.986 -0.6085 -0.2923  0.7069
10276TIP3    H252320   3.694   6.281  10.872  0.7187  0.4265  1.3052
10277TIP3   OH252321   2.287   6.762   4.441  0.0134 -0.2331  0.2471
10277TIP3    H152322   2.210   6.776   4.385 -0.8720 -0.2573  1.4125
10277TIP3    H252323   2.330   6.847   4.445  0.3418 -0.3423 -0.8293
10278TIP3   OH252324   2.817   0.609  13.518  0.1251 -0.7131  0.5238
10278TIP3    H152325   2.845   0.551  13.448  0.6250 -0.8909  0.8634
10278TIP3    H252326   2.854   0.694  13.495 -1.2313 -0.3262 -0.3648
10279TIP3   OH252327   3.392   1.264   4.295 -0.4289 -0.3923 -0.4891
10279TIP3    H152328   3.325   1.229   4.236 -1.3800 -0.4695  0.6009
10279TIP3    H252329   3.410   1.193   4.356 -1.8685  0.7047  1.3187
10280TIP3   OH252330   0.106   1.519   5.507  0.1936  0.6852  0.1143
10280TIP3    H152331   0.163   1.593   5.489 -0.0201  1.4811  2.4135
10280TIP3    H252332   0.019   1.548   5.480  0.1160  1.3088  0.9798
10281TIP3   OH252333   6.399   2.651  12.373 -0.6233 -0.0431  1.1217
10281TIP3    H152334   6.412   2.599  12.294 -0.9309  2.3883 -0.6333
10281TIP3    H252335   6.468   2.621  12.432  0.1983 -1.3095 -0.3960
10282TIP3   OH252336   5.079   1.211   2.057 -0.6656 -0.4138 -0.6493
10282TIP3    H152337   5.008   1.165   2.102  1.0926 -0.4041  2.4030
10282TIP3    H252338   5.144   1.143   2.039 -0.4157 -0.0211 -1.2859
10283TIP3   OH252339   0.009   3.061   4.123  0.6919 -0.7785 -0.4069
10283TIP3    H152340  -0.035   2.988   4.166 -0.0823 -0.3247 -0.3992
10283TIP3    H252341  -0.030   3.064   4.035  0.6942 -0.3570 -0.3950
10284TIP3   OH252342   6.152   2.344  13.606 -0.1146 -0.2954  0.9171
10284TIP3    H152343   6.089   2.273  13.613  1.1426 -1.7147 -1.2278
10284TIP3    H252344   6.103   2.416  13.565 -0.5258 -1.1497 -0.1237
10285TIP3   OH252345   2.263   4.518   0.339  0.2656 -0.4830  0.3388
10285TIP3    H152346   2.217   4.602   0.345  0.0700 -0.4170 -1.4989
10285TIP3    H252347   2.356   4.542   0.341  0.2125 -0.2696  0.2985
10286TIP3   OH252348   1.181   4.418  15.276  0.1142 -0.1222 -0.2038
10286TIP3    H152349   1.096   4.428  15.233  0.1563  0.5665 -0.1376
10286TIP3    H252350   1.240   4.390  15.206  0.4200  2.0450 -0.8747
10287TIP3   OH252351   3.550   0.263  13.882 -0.0749 -0.4691  0.1785
10287TIP3    H152352   3.634   0.246  13.839 -0.1614 -0.0091 -0.1910
10287TIP3    H252353   3.512   0.335  13.830 -1.9299 -2.4459 -1.3682
10288TIP3   OH252354   4.059   0.109  10.929 -0.1181 -0.3020  0.8118
10288TIP3    H152355   4.012   0.027  10.943  0.1542 -0.6812 -0.4063
10288TIP3    H252356   4.151   0.088  10.945 -0.1038 -0.1068  0.9972
10289TIP3   OH252357   3.538   0.286  12.864  0.1702  0.2608 -0.6927
10289TIP3    H152358   3.546   0.353  12.931  3.1501 -0.3817 -0.2936
10289TIP3    H252359   3.500   0.331  12.789 -3.1226  1.0326  1.2429
10290TIP3   OH252360   5.983   6.675  13.362  0.0292  0.3392  0.5913
10290TIP3    H152361   5.966   6.634  13.277  0.8829  0.4424  0.3533
10290TIP3    H252362   5.904   6.725  13.380 -0.9627 -1.2207  0.7958
10291TIP3   OH252363   4.303   3.061   1.261  0.4071  0.0795  0.4016
10291TIP3    H152364   4.393   3.059   1.294  0.6397  2.9913  0.1605
10291TIP3    H252365   4.303   3.001   1.186  2.3171  0.5201  0.0020
10292TIP3   OH252366   0.494   3.235   3.986 -0.2440  0.0328  0.2299
10292TIP3    H152367   0.543   3.163   3.946 -1.9628 -1.2091  0.2691
10292TIP3    H252368   0.422   3.193   4.032 -2.3513  1.8459 -1.2060
10293TIP3   OH252369   6.419   5.956  14.057  0.2644 -0.4493 -0.1362
10293TIP3    H152370   6.491   5.968  14.118  0.8275 -2.4499 -0.3423
10293TIP3    H252371   6.425   6.031  13.998  0.1343  1.1459  1.7722
10294TIP3   OH252372   2.592   3.763   4.589  0.1563  0.1106  0.2879
10294TIP3    H152373   2.620   3.681   4.630 -1.7308 -0.7437 -0.0297
10294TIP3    H252374   2.603   3.747   4.495  1.3657  0.8637  0.2812
10295TIP3   OH252375   0.752   3.782  16.270  0.4185  0.5836 -0.7014
10295TIP3    H152376   0.758   3.763  16.177  0.8430 -0.7233 -0.4279
10295TIP3    H252377   0.837   3.819  16.293  1.3592 -1.6520 -0.3205
10296TIP3   OH252378   5.225   0.489  14.988 -0.3873  0.4485 -0.0792
10296TIP3    H152379   5.165   0.561  15.005  0.5848  1.5812 -1.2865
10296TIP3    H252380   5.305   0.513  15.035 -0.0026  0.2620 -0.6232
10297TIP3   OH252381   0.484   2.959   3.673  0.2074  0.2739  0.5602
10297TIP3    H152382   0.544   3.007   3.730  0.0383 -0.0310  1.0093
10297TIP3    H252383   0.495   2.867   3.700 -0.7386  0.2556  0.9190
10298TIP3   OH252384   6.491   3.176   4.084 -0.1411  0.0814  0.1143
10298TIP3    H152385   6.512   3.213   3.998 -0.2618 -1.1173 -0.4505
10298TIP3    H252386   6.490   3.082   4.070 -2.1322 -0.0772  0.9813
10299TIP3   OH252387   6.640   4.950  15.118 -0.4503  0.3175  0.0672
10299TIP3    H152388   6.567   4.890  15.134 -1.7899  1.4967 -1.3143
10299TIP3    H252389   6.609   5.035  15.149  0.6891  0.6709  0.2730
10300TIP3   OH252390   2.688   2.765  16.350  0.1898  0.5409 -0.3746
10300TIP3    H152391   2.720   2.824  16.282  0.4121  0.3113 -0.4748
10300TIP3    H252392   2.758   2.700  16.360  0.7172  1.2623  0.9443
10301TIP3   OH252393   4.818   3.941  13.273 -0.4280  0.4160  0.1097
10301TIP3    H152394   4.749   3.924  13.209 -1.0834  0.2305  0.8520
10301TIP3    H252395   4.799   3.882  13.345 -1.4714  2.6655  1.7756
10302TIP3   OH252396   1.254   5.726   0.993 -0.7367 -0.0117 -0.5890
10302TIP3    H152397   1.325   5.688   0.941 -0.2731  1.2615 -0.9428
10302TIP3    H252398   1.214   5.790   0.935 -1.5467 -0.0236 -0.0534
10303TIP3   OH252399   3.030   2.393   5.689  0.0837 -0.1397  0.3437
10303TIP3    H152400   3.069   2.408   5.775  0.8284  0.5788 -0.1073
10303TIP3    H252401   3.029   2.479   5.648 -2.7203  0.0471  0.6051
10304TIP3   OH252402   6.651   0.415  15.449 -0.4723 -0.2972 -0.3873
10304TIP3    H152403   6.665   0.509  15.450  0.6739 -0.4363 -1.1804
10304TIP3    H252404   6.630   0.394  15.358 -0.7739 -0.8150 -0.2089
10305TIP3   OH252405   2.991   2.572  13.574  0.6548 -0.2841  0.1538
10305TIP3    H152406   2.977   2.662  13.543 -1.5752 -0.8255 -0.6372
10305TIP3    H252407   2.979   2.518  13.495  3.3961 -1.2477  0.3048
10306TIP3   OH252408   1.989   5.579  12.634  0.1388  0.2574  0.1056
10306TIP3    H152409   1.915   5.621  12.590 -1.9097 -2.1776  0.9948
10306TIP3    H252410   1.977   5.601  12.726  1.3411  0.9209  0.1259
10307TIP3   OH252411   4.620   4.561  15.816  0.2253  0.2474 -0.2634
10307TIP3    H152412   4.526   4.575  15.821  0.0442 -0.5748 -1.1031
10307TIP3    H252413   4.645   4.531  15.904  0.0154  2.0794  0.4592
10308TIP3   OH252414   4.909   1.929   2.983  0.2791 -0.2186  0.1213
10308TIP3    H152415   4.914   1.950   3.076  0.9374 -1.0520  0.2853
10308TIP3    H252416   4.966   1.994   2.941 -0.6007  0.6268  0.2044
10309TIP3   OH252417   2.978   6.308  11.463  0.6422  0.5057  0.3022
10309TIP3    H152418   2.950   6.383  11.515  1.0319  0.7882  0.1047
10309TIP3    H252419   3.056   6.276  11.506  1.1190  0.9001 -0.2486
10310TIP3   OH252420   4.371   6.366  14.210  0.0135 -0.1500 -0.2197
10310TIP3    H152421   4.330   6.451  14.195 -0.6832 -0.4161  0.1656
10310TIP3    H252422   4.364   6.321  14.126 -0.6332 -0.2540 -0.1146
10311TIP3   OH252423   1.434   0.074  14.855 -0.6986 -0.1105 -0.1022
10311TIP3    H152424   1.479   0.146  14.812  0.0126 -1.2096 -1.2638
10311TIP3    H252425   1.488  -0.003  14.836 -0.1639 -0.6566  3.0209
10312TIP3   OH252426   0.890   0.183   4.632  0.3462  0.2788 -0.0565
10312TIP3    H152427   0.966   0.150   4.585  0.2938 -0.5278  0.4196
10312TIP3    H252428   0.818   0.126   4.606  0.2992 -0.1335  0.9330
10313TIP3   OH252429   4.424   3.679  16.033 -0.5456 -0.0297  0.7072
10313TIP3    H152430   4.402   3.646  15.946 -0.1652 -1.8970  1.2731
10313TIP3    H252431   4.400   3.608  16.092  2.9156 -0.5024  1.7664
10314TIP3   OH252432   3.576   5.846  16.254  0.1134 -0.1840  0.2313
10314TIP3    H152433   3.549   5.912  16.190  1.0692  0.3986  0.4108
10314TIP3    H252434   3.517   5.773  16.239 -1.0971  0.7792  0.1450
10315TIP3   OH252435   2.476   4.886   0.244 -0.1833 -0.1746  0.3327
10315TIP3    H152436   2.427   4.968   0.257 -1.7988 -1.2284  1.2589
10315TIP3    H252437   2.479   4.875   0.149 -0.3293  0.7387  0.2140
10316TIP3   OH252438   5.239   5.612  12.205  0.0118 -0.2979  0.3790
10316TIP3    H152439   5.261   5.533  12.156 -0.3585 -1.4710  2.0311
10316TIP3    H252440   5.156   5.642  12.167 -0.4044 -1.3296  0.4613
10317TIP3   OH252441   0.262   3.118  16.080 -0.6876 -0.2998 -0.6433
10317TIP3    H152442   0.175   3.156  16.091 -0.1082  0.9027 -0.0632
10317TIP3    H252443   0.277   3.121  15.985 -0.0030  2.5256 -0.5211
10318TIP3   OH252444   0.929   6.446  15.486 -0.0854  0.1351 -0.4739
10318TIP3    H152445   0.923   6.515  15.551  0.2770 -0.1190 -0.1713
10318TIP3    H252446   1.007   6.396  15.510  1.8350  1.7720 -2.7872
10319TIP3   OH252447   5.933   4.500  14.703 -0.3788  1.6611  0.5316
10319TIP3    H152448   5.915   4.561  14.631 -1.7546  0.2540 -0.3962
10319TIP3    H252449   5.854   4.503  14.757 -1.1384 -0.3948 -0.3901
10320TIP3   OH252450   1.740   1.078   0.631 -0.0105 -0.1726 -0.3235
10320TIP3    H152451   1.726   1.071   0.726 -2.2448  0.3193 -0.5639
10320TIP3    H252452   1.785   0.996   0.608 -0.9526 -1.0931  0.9349
10321TIP3   OH252453   3.887   6.107  12.331 -0.1194 -0.7823  0.3267
10321TIP3    H152454   3.850   6.178  12.280  0.2328 -0.1528  0.9361
10321TIP3    H252455   3.845   6.028  12.297  0.1732 -0.3899 -0.9790
10322TIP3   OH252456   5.158   5.525   2.275  0.2316  0.1137  0.0104
10322TIP3    H152457   5.249   5.534   2.304 -0.1943 -0.7418  1.6952
10322TIP3    H252458   5.160   5.449   2.217  0.9392  1.3693 -1.7200
10323TIP3   OH252459   2.942   5.330  16.556  0.0849  0.0364 -0.0304
10323TIP3    H152460   2.947   5.425  16.569 -2.1695  0.1855  0.2051
10323TIP3    H252461   2.978   5.316  16.469 -0.8774  1.3277 -0.6760
10324TIP3   OH252462   1.539   0.278   2.389  0.4176 -0.0591  0.3460
10324TIP3    H152463   1.591   0.315   2.318  0.3568  1.6663  1.1633
10324TIP3    H252464   1.603   0.230   2.442  0.7639  0.0982  0.0777
10325TIP3   OH252465   1.824   2.843  14.328 -0.3527 -0.0199  0.2170
10325TIP3    H152466   1.795   2.893  14.251 -2.3692  0.9027  1.4964
10325TIP3    H252467   1.767   2.873  14.399  1.5359 -0.7259  2.1340
10326TIP3   OH252468   6.093   0.862   1.707 -0.1093 -0.1644 -0.5669
10326TIP3    H152469   6.092   0.788   1.767 -0.3635  0.3775  0.1186
10326TIP3    H252470   6.186   0.880   1.692 -0.0222  0.2934  0.4405
10327TIP3   OH252471   4.054   2.889  14.973 -0.3069  0.4506 -0.4600
10327TIP3    H152472   3.977   2.835  14.993 -0.2003  0.7819  0.9566
10327TIP3    H252473   4.114   2.872  15.046  0.5282  1.0063 -1.0035
10328TIP3   OH252474   1.320   6.108   2.793 -0.4849 -0.1468  0.3993
10328TIP3    H152475   1.330   6.073   2.704 -1.1756  0.4461  0.0743
10328TIP3    H252476   1.226   6.104   2.810 -0.5889  1.4970  0.3575
10329TIP3   OH252477   4.587   2.679  17.292  0.5017 -0.2986 -0.2080
10329TIP3    H152478   4.657   2.693  17.356 -0.7551  1.7636  0.8109
10329TIP3    H252479   4.523   2.624  17.338  0.0138  0.4422  0.0131
10330TIP3   OH252480   1.631   6.176   0.770 -0.5790  0.4163 -0.4572
10330TIP3    H152481   1.604   6.174   0.862  3.5921 -1.7938  0.9539
10330TIP3    H252482   1.629   6.269   0.747 -0.8262  1.1590  2.1732
10331TIP3   OH252483   4.233   2.356   5.691  0.3270 -0.3535 -0.4772
10331TIP3    H152484   4.307   2.304   5.723  1.7401  1.3298 -0.8791
10331TIP3    H252485   4.179   2.373   5.768 -0.1569 -2.3123 -0.3230
10332TIP3   OH252486   5.712   5.598  13.412  0.1945  0.0495 -0.4401
10332TIP3    H152487   5.799   5.577  13.447  0.4088  1.9398  0.3143
10332TIP3    H252488   5.729   5.626  13.322  1.1771  4.6651  0.8907
10333TIP3   OH252489   5.775   4.487  11.002  0.3805 -0.6131  0.4267
10333TIP3    H152490   5.825   4.442  10.934 -1.1261 -1.1670 -0.3608
10333TIP3    H252491   5.770   4.578  10.972  1.6107 -0.3590  0.9438
10334TIP3   OH252492   2.843   4.106  15.914 -0.1949 -1.3287 -0.8769
10334TIP3    H152493   2.819   4.023  15.955 -0.8742 -0.6985  0.0553
10334TIP3    H252494   2.785   4.170  15.954  2.1384  0.0644  0.5254
10335TIP3   OH252495   4.403   5.318  11.387  0.2669  0.1843  0.2135
10335TIP3    H152496   4.401   5.354  11.299  0.0131  0.1320  0.1960
10335TIP3    H252497   4.471   5.251  11.384  1.6673  1.5400  0.5996
10336TIP3   OH252498   0.633   6.794   2.561  0.3091  0.8268  0.1283
10336TIP3    H152499   0.630   6.704   2.593 -1.2035  0.3337 -1.2649
10336TIP3    H252500   0.720   6.803   2.521  0.0532 -0.4102 -0.7497
10337TIP3   OH252501   4.456   4.878  15.577  0.2007  0.5764 -0.3720
10337TIP3    H152502   4.363   4.871  15.556  0.4350  1.0825 -1.6615
10337TIP3    H252503   4.477   4.971  15.565  1.0417  0.3291 -0.9015
10338TIP3   OH252504   2.128   2.933   0.484 -0.6800  0.3148  0.1207
10338TIP3    H152505   2.139   2.975   0.570 -1.2638  0.0722  0.3191
10338TIP3    H252506   2.058   2.870   0.498 -1.1572  0.6599 -0.6742
10339TIP3   OH252507   3.122   2.471   6.084  0.2341  0.0922 -0.0263
10339TIP3    H152508   3.055   2.502   6.023 -0.6659 -2.8099 -0.6378
10339TIP3    H252509   3.077   2.464   6.168  0.0502 -0.7735 -0.1877
10340TIP3   OH252510   3.775   4.659   0.473 -0.0670 -0.5737  0.4654
10340TIP3    H152511   3.681   4.655   0.492 -0.0821  2.6063  1.7218
10340TIP3    H252512   3.811   4.710   0.545  2.2092  0.4327 -1.2819
10341TIP3   OH252513   0.049   5.403  11.680 -0.5825  0.3496 -0.5558
10341TIP3    H152514   0.111   5.469  11.711 -0.2275 -0.2117 -0.0411
10341TIP3    H252515  -0.026   5.453  11.648  0.2624  1.0479 -1.4778
10342TIP3   OH252516   6.601   4.410  12.313 -0.1725  0.2264  0.1308
10342TIP3    H152517   6.605   4.398  12.408  1.8148  0.1197  0.0793
10342TIP3    H252518   6.641   4.496  12.298 -0.2122  0.1223 -0.6179
10343TIP3   OH252519   5.095   0.800  17.061  0.7546 -0.0186 -0.6854
10343TIP3    H152520   5.068   0.717  17.100 -0.5860  1.0099  0.6697
10343TIP3    H252521   5.054   0.801  16.975  0.1030 -0.4155 -0.3808
10344TIP3   OH252522   2.780   0.843  16.551 -0.1241 -0.3745  0.4183
10344TIP3    H152523   2.857   0.810  16.596 -0.2462  0.1752  1.0409
10344TIP3    H252524   2.719   0.868  16.621 -0.4976  0.0606 -0.0460
10345TIP3   OH252525   3.154   4.840   2.140  0.3580 -0.3661 -0.6079
10345TIP3    H152526   3.213   4.822   2.213  0.0147  0.0693 -0.2107
10345TIP3    H252527   3.098   4.763   2.136  0.5968 -0.5391 -0.6278
10346TIP3   OH252528   0.623   0.278   5.307 -0.3350 -0.6041 -0.3255
10346TIP3    H152529   0.551   0.292   5.368  0.0890 -2.9053  0.8145
10346TIP3    H252530   0.630   0.360   5.258 -0.8523  1.2738  2.5377
10347TIP3   OH252531   5.210   2.843   3.562 -0.4041  0.2269  0.6513
10347TIP3    H152532   5.246   2.765   3.605 -1.2598 -0.4023  0.2487
10347TIP3    H252533   5.115   2.834   3.573 -0.4856  1.7097  1.4463
10348TIP3   OH252534   0.075   6.071  13.060  0.1402  0.0541  0.1139
10348TIP3    H152535   0.094   6.129  12.986 -1.1417  1.2152  0.6509
10348TIP3    H252536   0.015   6.006  13.025 -0.1327  0.3509  0.0290
10349TIP3   OH252537   2.258   2.554   0.828  0.5919  0.3257  0.4752
10349TIP3    H152538   2.346   2.524   0.806  1.1753  0.5886  2.2622
10349TIP3    H252539   2.256   2.645   0.799  0.6540  0.1128 -0.2074
10350TIP3   OH252540   5.894   2.032   4.794  0.3830 -0.5863  0.3010
10350TIP3    H152541   5.981   2.005   4.821  0.1057 -0.0611  1.8064
10350TIP3    H252542   5.844   2.041   4.876 -1.0715 -0.8308 -0.5157
10351TIP3   OH252543   4.634   4.129  11.961  0.4634  0.1421 -0.3618
10351TIP3    H152544   4.658   4.036  11.965  1.9863  0.4840 -0.8962
10351TIP3    H252545   4.673   4.160  11.879  0.2136  1.3151 -0.0545
10352TIP3   OH252546   2.787   0.073  16.060 -0.4047  0.0269 -0.1718
10352TIP3    H152547   2.703   0.112  16.039  0.3440  1.5376 -0.5369
10352TIP3    H252548   2.769  -0.020  16.073 -2.0382  0.2606 -0.6437
10353TIP3   OH252549   3.826   6.162   0.358 -0.2297  0.7041  0.1419
10353TIP3    H152550   3.774   6.193   0.432 -1.6760  0.9651 -0.9520
10353TIP3    H252551   3.817   6.067   0.360  1.3894  0.5229  1.4472
10354TIP3   OH252552   4.601   4.500  12.329  0.0803  0.2268 -0.1065
10354TIP3    H152553   4.642   4.544  12.254  1.1296 -0.8463 -0.1811
10354TIP3    H252554   4.604   4.407  12.308 -2.9915  0.1109 -0.3774
10355TIP3   OH252555   2.400   5.341  14.497  0.0026  0.2138  0.2146
10355TIP3    H152556   2.353   5.371  14.419 -1.3656 -2.2647 -0.0227
10355TIP3    H252557   2.334   5.297  14.549  1.4801 -0.7064  1.3893
10356TIP3   OH252558   5.744   4.575   5.483 -0.0222 -0.8529 -0.8336
10356TIP3    H152559   5.742   4.665   5.516  1.3309 -0.0781 -2.6472
10356TIP3    H252560   5.654   4.556   5.457  0.0861  1.0209 -2.8607
10357TIP3   OH252561   5.747   6.659   2.109  0.6546 -0.1288  0.1307
10357TIP3    H152562   5.694   6.731   2.075 -0.1871  0.7122  2.8920
10357TIP3    H252563   5.720   6.583   2.058  0.3412  1.1820 -1.7483
10358TIP3   OH252564   6.482   0.199   5.506 -0.9649 -0.2442  0.8629
10358TIP3    H152565   6.500   0.241   5.590 -1.8015 -0.5392  1.1974
10358TIP3    H252566   6.395   0.162   5.515 -0.7679 -0.9382  0.1236
10359TIP3   OH252567   5.992   1.117  11.370  0.4823  0.4134  0.0303
10359TIP3    H152568   6.052   1.177  11.415  0.2540 -0.5184  1.6852
10359TIP3    H252569   5.977   1.157  11.285  4.1785  0.2421 -0.8689
10360TIP3   OH252570   4.140   4.981  16.391 -0.1494 -0.1923  0.5771
10360TIP3    H152571   4.074   4.972  16.461 -0.1428  0.7546  0.7254
10360TIP3    H252572   4.217   4.935  16.425  0.0502  0.7563  1.4738
10361TIP3   OH252573   5.068   4.709   3.088 -0.4485  0.4178 -0.8579
10361TIP3    H152574   5.066   4.645   3.017  0.0862  0.1473 -0.6340
10361TIP3    H252575   5.146   4.762   3.070 -1.2052  1.3924 -1.3680
10362TIP3   OH252576   3.399   4.007   5.810 -0.4779 -0.2458 -0.4038
10362TIP3    H152577   3.399   4.082   5.869 -1.2914 -1.1618  0.8047
10362TIP3    H252578   3.308   3.999   5.782 -0.9446 -2.2025  1.4149
10363TIP3   OH252579   5.294   4.642  13.833 -0.6934  0.4018  0.3168
10363TIP3    H152580   5.375   4.621  13.788 -1.7466  0.5237 -1.7751
10363TIP3    H252581   5.248   4.702  13.774 -2.2643  0.4001  1.4613
10364TIP3   OH252582   1.327   1.546  12.204  0.1695  0.0175  0.2793
10364TIP3    H152583   1.251   1.604  12.195  0.6185  0.5148 -0.3334
10364TIP3    H252584   1.360   1.564  12.292 -0.8210 -0.7066  0.8302
10365TIP3   OH252585   0.121   2.423   2.812 -0.7811  0.6091  0.4307
10365TIP3    H152586   0.125   2.399   2.720 -0.1574  1.3267  0.2524
10365TIP3    H252587   0.153   2.514   2.814 -1.5366  0.8761  1.2524
10366TIP3   OH252588   3.191   2.651   3.749  0.4331  0.5338  0.9234
10366TIP3    H152589   3.160   2.734   3.714  0.4608  0.5018  0.8226
10366TIP3    H252590   3.236   2.674   3.830  1.0140  0.6879  0.5627
10367TIP3   OH252591   3.672   4.287  11.959 -0.1956  0.0122  0.5488
10367TIP3    H152592   3.620   4.325  11.889  1.5521  0.7696 -0.4178
10367TIP3    H252593   3.608   4.246  12.017 -1.7335 -0.3713 -1.2988
10368TIP3   OH252594   0.632   2.283  16.679  0.8359 -0.7009  0.0507
10368TIP3    H152595   0.615   2.296  16.586 -2.3086 -1.7710  0.3740
10368TIP3    H252596   0.580   2.350  16.723  1.3912 -0.9275  1.0952
10369TIP3   OH252597   5.534   0.142  13.082  0.2635  0.7240  0.1397
10369TIP3    H152598   5.613   0.107  13.039 -0.3323  0.4636 -0.7776
10369TIP3    H252599   5.483   0.065  13.105  0.0264  0.9087  0.2273
10370TIP3   OH252600   2.987   1.309  14.688 -0.1774  0.0712 -0.4893
10370TIP3    H152601   2.979   1.239  14.753  0.2590  0.1222 -0.3790
10370TIP3    H252602   2.994   1.263  14.604  1.2163 -0.0746 -0.3263
10371TIP3   OH252603   4.402   2.054   1.758  0.3303  0.0855  0.1914
10371TIP3    H152604   4.380   1.971   1.800  0.2586  0.6818  1.3467
10371TIP3    H252605   4.492   2.041   1.726 -0.1080 -0.8467 -0.7233
10372TIP3   OH252606   6.373   5.589  12.571  0.0036 -0.5586 -0.2430
10372TIP3    H152607   6.370   5.665  12.630 -1.4769 -0.9352  0.1964
10372TIP3    H252608   6.344   5.624  12.486  3.8296  0.4056 -1.3452
10373TIP3   OH252609   0.320   5.494  15.580  0.4794 -0.0970  0.2807
10373TIP3    H152610   0.267   5.527  15.653 -1.3845  0.5563 -1.2770
10373TIP3    H252611   0.372   5.569  15.552 -0.1881  0.2003 -0.2034
10374TIP3   OH252612   6.492   0.964   5.283  0.1537 -0.3145  0.1388
10374TIP3    H152613   6.566   0.914   5.248  0.9083  1.0232 -0.2543
10374TIP3    H252614   6.488   0.940   5.375  1.7902  0.3840  0.4304
10375TIP3   OH252615   0.830   1.634   5.567 -0.1302  0.2594 -0.1110
10375TIP3    H152616   0.905   1.629   5.507  0.4662  0.8445  0.5644
10375TIP3    H252617   0.862   1.686   5.641 -1.2975  0.7857  0.0507
10376TIP3   OH252618   1.690   4.709   4.804 -0.7284  0.0380 -0.5448
10376TIP3    H152619   1.722   4.728   4.892 -0.4339 -1.7434 -0.2251
10376TIP3    H252620   1.594   4.707   4.812 -0.6896 -2.6466  0.4009
10377TIP3   OH252621   1.269   0.339  13.063  0.0083  0.4977  0.7240
10377TIP3    H152622   1.223   0.280  13.003  0.2679 -0.1856  1.1915
10377TIP3    H252623   1.318   0.397  13.005  0.7575 -0.5612  0.2647
10378TIP3   OH252624   3.188   0.461   1.540 -0.2746  0.2318  0.0313
10378TIP3    H152625   3.145   0.537   1.499  0.0854  0.5388  0.2150
10378TIP3    H252626   3.123   0.425   1.599 -0.5159  0.2834 -0.2016
10379TIP3   OH252627   6.664   0.371  17.129 -0.0280  0.1099 -0.5940
10379TIP3    H152628   6.628   0.443  17.180  0.9881 -0.2635  0.7093
10379TIP3    H252629   6.746   0.404  17.094  0.1240 -0.2029 -0.5367
10380TIP3   OH252630   3.998   1.576  15.658 -0.3495 -0.2819 -0.1199
10380TIP3    H152631   4.093   1.575  15.643 -0.4448 -0.4309 -0.7377
10380TIP3    H252632   3.962   1.520  15.589 -0.7529 -1.6694  1.1708
10381TIP3   OH252633   1.730   0.133   3.813 -0.4286 -0.5698 -0.0216
10381TIP3    H152634   1.779   0.055   3.839  0.8268 -0.5891 -2.1749
10381TIP3    H252635   1.795   0.203   3.810 -0.6973 -0.3459 -1.8693
10382TIP3   OH252636   0.182   5.652  17.161  0.3332  0.1330  0.1188
10382TIP3    H152637   0.100   5.662  17.113  0.9172  2.9768 -0.4439
10382TIP3    H252638   0.156   5.628  17.250 -0.9978 -0.4836 -0.4176
10383TIP3   OH252639   4.398   0.389  15.170 -0.1069 -0.0235  0.9914
10383TIP3    H152640   4.470   0.326  15.169 -0.6481 -0.7327  2.8921
10383TIP3    H252641   4.370   0.395  15.079 -2.2358 -5.1557  1.0194
10384TIP3   OH252642   0.494   6.614  11.119 -0.5024  0.2650  0.5421
10384TIP3    H152643   0.557   6.672  11.076  0.6221 -0.7962  0.6968
10384TIP3    H252644   0.501   6.635  11.212 -0.3174  0.0858  0.5686
10385TIP3   OH252645   4.251   0.290   2.733 -0.4382  0.0901 -0.5879
10385TIP3    H152646   4.189   0.347   2.778 -0.3789  2.4179 -3.1344
10385TIP3    H252647   4.197   0.242   2.670 -0.2443 -1.4841  0.4092
10386TIP3   OH252648   2.558   3.381  14.233 -1.4888  0.9950  0.1519
10386TIP3    H152649   2.621   3.379  14.304  1.0257  1.3422 -1.9210
10386TIP3    H252650   2.535   3.290  14.217 -2.2754  0.9340  1.5003
10387TIP3   OH252651   0.370   2.337  16.514 -0.0174  0.6208 -0.3555
10387TIP3    H152652   0.347   2.368  16.602  0.0319  1.6434 -0.6905
10387TIP3    H252653   0.336   2.404  16.455  1.2966  0.7215 -1.0323
10388TIP3   OH252654   2.428   3.516   0.267  0.3167  0.1138  0.1358
10388TIP3    H152655   2.469   3.432   0.285 -1.1362 -0.7732 -0.5172
10388TIP3    H252656   2.499   3.570   0.232  0.7636 -1.7296 -2.0668
10389TIP3   OH252657   4.695   5.555   1.104  0.4330 -0.5453 -0.7142
10389TIP3    H152658   4.684   5.488   1.172 -0.7038  1.0507  0.7444
10389TIP3    H252659   4.790   5.563   1.094  0.6735 -3.5765 -2.2621
10390TIP3   OH252660   6.271   0.251   3.674  0.1984  0.3082  0.3379
10390TIP3    H152661   6.201   0.186   3.665 -2.0989  2.8151 -1.3076
10390TIP3    H252662   6.264   0.281   3.764  0.8755 -1.2239  0.9288
10391TIP3   OH252663   2.697   6.579   0.197 -0.2878 -0.6549  0.5693
10391TIP3    H152664   2.779   6.626   0.206  0.1687 -1.4891  0.9609
10391TIP3    H252665   2.652   6.593   0.280 -0.6345 -0.0486  0.2871
10392TIP3   OH252666   1.949   3.754   1.224  0.0537 -0.1922 -0.8888
10392TIP3    H152667   1.980   3.686   1.284 -0.3179 -0.3278 -0.8470
10392TIP3    H252668   1.930   3.829   1.280 -1.2791 -0.6523 -0.6862
10393TIP3   OH252669   3.716   6.621   3.395  0.3326 -0.1565 -0.8466
10393TIP3    H152670   3.638   6.601   3.446  0.5725 -1.9382 -1.1092
10393TIP3    H252671   3.687   6.618   3.304  0.0639  2.3050 -0.9124
10394TIP3   OH252672   3.509   4.485  14.277  0.2488  0.4495  0.5336
10394TIP3    H152673   3.490   4.443  14.360 -1.8651 -0.1313 -0.1940
10394TIP3    H252674   3.592   4.530  14.292  0.5549 -0.6541  2.5565
10395TIP3   OH252675   1.966   5.537  12.039 -0.2824  0.6012 -0.0670
10395TIP3    H152676   1.909   5.566  11.968  3.5054  2.9984 -2.4699
10395TIP3    H252677   1.964   5.610  12.102 -1.5398 -0.3440  1.0472
10396TIP3   OH252678   4.778   3.472   1.583  0.0071 -0.2205 -0.1232
10396TIP3    H152679   4.750   3.396   1.634  0.0881 -0.0977  0.1061
10396TIP3    H252680   4.863   3.447   1.547 -0.8673 -1.0482 -1.7771
10397TIP3   OH252681   6.664   5.923  16.956 -0.0458 -0.2585 -0.1839
10397TIP3    H152682   6.591   5.984  16.947  0.7312  0.6415 -0.6833
10397TIP3    H252683   6.732   5.960  16.899  1.5536  0.0905  1.8557
10398TIP3   OH252684   1.660   1.467  13.336  0.2656 -0.0003  0.4102
10398TIP3    H152685   1.643   1.468  13.430  2.1273 -1.6998  0.8526
10398TIP3    H252686   1.626   1.383  13.306  0.9006 -0.0768 -0.1373
10399TIP3   OH252687   2.190   0.408  16.908 -0.1142  0.0150  0.1754
10399TIP3    H152688   2.243   0.400  16.829 -1.1700  0.5477 -0.5970
10399TIP3    H252689   2.217   0.333  16.962 -0.7046 -1.4446 -1.4729
10400TIP3   OH252690   5.194   0.981   6.627  0.3177  0.2388  0.6331
10400TIP3    H152691   5.206   0.993   6.533 -0.7541 -1.2893  0.2502
10400TIP3    H252692   5.233   1.059   6.667 -0.9879  1.9219 -1.1719
10401TIP3   OH252693   5.864   2.039   5.872  0.1962 -0.5340  0.0464
10401TIP3    H152694   5.869   1.992   5.955  2.3323  0.9777  0.8432
10401TIP3    H252695   5.905   2.123   5.889  1.4265 -0.4625 -2.7281
10402TIP3   OH252696   2.213   0.076   5.313 -0.5046 -0.4460 -0.2404
10402TIP3    H152697   2.245   0.102   5.227  1.4868 -0.4047  0.4769
10402TIP3    H252698   2.214   0.157   5.364  2.4264 -1.1504  0.9991
10403TIP3   OH252699   6.453   4.470  13.188  0.2849  0.0195  0.0042
10403TIP3    H152700   6.395   4.539  13.157  0.7480  0.3020 -0.2410
10403TIP3    H252701   6.394   4.398  13.212 -0.0538 -0.9318 -3.2523
10404TIP3   OH252702   5.804   0.318   6.257  0.3921  0.4140 -0.1979
10404TIP3    H152703   5.803   0.331   6.162 -0.9240 -0.7251 -0.3839
10404TIP3    H252704   5.711   0.312   6.281  0.7207  0.2228  1.0808
10405TIP3   OH252705   5.098   3.679   5.275 -0.5486 -0.6231 -0.3732
10405TIP3    H152706   5.130   3.755   5.322  1.7655 -1.2592 -0.7821
10405TIP3    H252707   5.027   3.645   5.329 -0.4392  0.7857  0.7045
10406TIP3   OH252708   4.516   1.126  12.310 -0.2663  0.2504 -0.0126
10406TIP3    H152709   4.580   1.060  12.338  0.4352  1.5953  1.7006
10406TIP3    H252710   4.568   1.204  12.292 -1.2077  0.6923 -0.9289
10407TIP3   OH252711   2.026   6.162  12.117  0.4928 -0.6500  0.6018
10407TIP3    H152712   2.072   6.109  12.052  1.5769  0.6836  0.2322
10407TIP3    H252713   2.093   6.223  12.150 -0.5853  0.1748  1.3424
10408TIP3   OH252714   2.289   1.354  14.073 -0.2521 -0.3715 -0.1272
10408TIP3    H152715   2.275   1.390  14.161  0.0698  0.0806 -0.2582
10408TIP3    H252716   2.374   1.311  14.078 -0.3498 -0.5704 -0.1485
10409TIP3   OH252717   5.388   3.026  11.345  0.3314 -0.2598 -0.3693
10409TIP3    H152718   5.335   2.958  11.384 -0.8355  0.6514 -0.3264
10409TIP3    H252719   5.472   3.020  11.390 -0.0932 -0.9943  0.3417
10410TIP3   OH252720   3.419   4.162  14.453 -0.0253  0.5253  0.2245
10410TIP3    H152721   3.412   4.233  14.516 -1.9081  0.1346  0.5328
10410TIP3    H252722   3.484   4.102  14.491  0.1844  1.1609  0.8882
10411TIP3   OH252723   3.561   1.198   1.306 -0.4512 -0.1247 -0.0210
10411TIP3    H152724   3.596   1.235   1.387  0.0120  0.7336 -0.5945
10411TIP3    H252725   3.518   1.272   1.262 -0.3199 -0.4782 -0.7609
10412TIP3   OH252726   6.192   1.286   2.207  0.4340  0.2698 -0.4280
10412TIP3    H152727   6.275   1.328   2.231 -0.0906  0.3277  1.4066
10412TIP3    H252728   6.125   1.337   2.251 -0.3942 -1.1607  0.0545
10413TIP3   OH252729   6.801   2.427  15.681  0.4344 -0.0594 -0.0364
10413TIP3    H152730   6.708   2.424  15.656  0.5206  1.1305 -0.5861
10413TIP3    H252731   6.842   2.360  15.626 -0.0142 -0.2020 -0.2071
10414TIP3   OH252732   5.990   1.205   3.652  0.1567 -0.1454  0.3474
10414TIP3    H152733   6.079   1.209   3.687 -0.1286 -0.6477  1.1432
10414TIP3    H252734   5.933   1.217   3.728 -0.4648  0.7167 -0.2272
10415TIP3   OH252735   5.475   3.809   1.030 -0.5701 -0.1461  0.4391
10415TIP3    H152736   5.508   3.721   1.013 -1.2125  0.0668 -2.2928
10415TIP3    H252737   5.385   3.796   1.061 -1.0667 -0.4585 -1.0663
10416TIP3   OH252738   6.188   4.628   0.319  0.3347  0.1150  0.6176
10416TIP3    H152739   6.238   4.665   0.246  1.2072 -0.4739  0.9050
10416TIP3    H252740   6.246   4.562   0.357 -1.3180 -1.8412 -0.1094
10417TIP3   OH252741   3.942   0.035   3.809  0.6709 -0.1784  0.0818
10417TIP3    H152742   3.938   0.107   3.871  0.2711 -0.3586  0.2701
10417TIP3    H252743   3.978  -0.038   3.859  0.0029 -0.4280  0.2095
10418TIP3   OH252744   6.648   6.146  14.483  0.3104  0.0584 -0.0955
10418TIP3    H152745   6.735   6.181  14.503  0.0951  1.2807 -1.1083
10418TIP3    H252746   6.588   6.219  14.503 -1.1357 -2.0678  4.9856
10419TIP3   OH252747   0.705   0.649  14.671 -0.2443  0.2362  0.1419
10419TIP3    H152748   0.737   0.569  14.630  1.7348  1.1144 -0.1411
10419TIP3    H252749   0.615   0.628  14.697  0.1282 -1.9878 -0.1255
10420TIP3   OH252750   3.919   2.629   0.155  0.8679  0.3760  0.3162
10420TIP3    H152751   3.843   2.639   0.212  1.2494 -0.6279  1.0285
10420TIP3    H252752   3.892   2.563   0.090  0.4330  1.5155 -0.7007
10421TIP3   OH252753   6.496   4.302   2.983  0.1248 -0.2462 -0.3383
10421TIP3    H152754   6.412   4.316   3.026 -0.6075  0.8334 -2.0036
10421TIP3    H252755   6.554   4.271   3.052 -1.4939 -0.5063  0.9629
10422TIP3   OH252756   3.392   6.392  11.735  0.7598  0.2054 -0.2457
10422TIP3    H152757   3.472   6.435  11.706  0.5043  1.0049  0.1955
10422TIP3    H252758   3.335   6.464  11.764  0.2913 -0.4206  0.4324
10423TIP3   OH252759   3.504   3.308  15.055 -0.4762 -0.2832  0.2871
10423TIP3    H152760   3.521   3.398  15.082 -0.2824 -0.5406  1.0348
10423TIP3    H252761   3.409   3.302  15.050 -0.4627  0.4352 -1.4228
10424TIP3   OH252762   5.829   2.036  17.298  0.1740  0.1285  0.2246
10424TIP3    H152763   5.873   1.952  17.314 -0.7112 -0.8090 -1.7942
10424TIP3    H252764   5.899   2.101  17.300  1.1868 -0.9171 -0.0228
10425TIP3   OH252765   6.699   2.950  16.340  0.4376  0.0579  0.6463
10425TIP3    H152766   6.622   2.959  16.284  1.0046 -1.4905 -0.4339
10425TIP3    H252767   6.745   3.034  16.332 -0.2776  0.3961  0.0007
10426TIP3   OH252768   0.341   6.749   5.365  0.6814  0.3491 -0.0863
10426TIP3    H152769   0.294   6.828   5.337 -0.1168  0.4579  1.4855
10426TIP3    H252770   0.279   6.678   5.352  0.5598  0.3043  0.6970
10427TIP3   OH252771   1.322   1.274   1.105  0.1566  0.1488  0.3927
10427TIP3    H152772   1.333   1.234   1.191  2.2032  0.7157  0.4475
10427TIP3    H252773   1.361   1.361   1.113 -1.6125  1.0736 -0.5224
10428TIP3   OH252774   1.765   2.777  15.082  0.2837 -0.1536 -0.1447
10428TIP3    H152775   1.757   2.821  14.997  2.5436  1.2780  0.3125
10428TIP3    H252776   1.841   2.719  15.073  0.0628 -0.5949  0.6665
10429TIP3   OH252777   6.224   0.362  17.040 -0.4685  0.1337 -0.6587
10429TIP3    H152778   6.207   0.274  17.006 -1.2164 -0.2843  0.7342
10429TIP3    H252779   6.272   0.348  17.121 -0.9820  0.9843 -0.1933
10430TIP3   OH252780   4.970   0.879   4.494  0.2342 -0.1546  0.9637
10430TIP3    H152781   5.056   0.860   4.456  1.0426  0.8854  2.1656
10430TIP3    H252782   4.908   0.829   4.441  1.3517  0.6604 -1.2250
10431TIP3   OH252783   6.232   3.424  12.590 -0.0125  0.1519 -0.1276
10431TIP3    H152784   6.224   3.426  12.685  0.0319  0.2208 -0.1246
10431TIP3    H252785   6.268   3.510  12.567 -0.5165  0.3307 -0.2544
10432TIP3   OH252786   6.100   5.418   4.955  0.0352  0.7630 -0.1868
10432TIP3    H152787   6.098   5.435   5.049  1.0152  3.4828 -0.5614
10432TIP3    H252788   6.158   5.342   4.946 -1.7008 -0.8609  1.4823
10433TIP3   OH252789   1.689   2.927  14.757 -0.0154  0.7154 -0.6827
10433TIP3    H152790   1.777   2.945  14.789  0.0470 -1.3555  0.4874
10433TIP3    H252791   1.635   2.997  14.793  0.8044  0.8286  0.3597
10434TIP3   OH252792   1.119   2.922   6.189  0.0831 -0.3408 -0.2297
10434TIP3    H152793   1.049   2.882   6.239 -0.1891  0.4244  0.0104
10434TIP3    H252794   1.138   3.004   6.234  1.3544 -0.6679 -0.1036
10435TIP3   OH252795   3.323   4.012  13.954 -0.1580 -0.7739  0.1083
10435TIP3    H152796   3.321   3.930  14.004 -0.2036 -1.1620 -0.5142
10435TIP3    H252797   3.325   4.081  14.021 -1.8326 -1.2163  0.6607
10436TIP3   OH252798   3.691   1.939   3.699  0.0870  0.0390  0.1932
10436TIP3    H152799   3.601   1.967   3.686 -0.1133 -0.3903  0.6523
10436TIP3    H252800   3.735   2.016   3.736  0.0667  0.4566 -0.6343
10437TIP3   OH252801   3.503   2.773  11.607  0.1760 -0.2284 -0.6366
10437TIP3    H152802   3.594   2.796  11.588  0.1692  0.8677  0.5616
10437TIP3    H252803   3.493   2.788  11.701 -2.5768  4.6443 -1.3727
10438TIP3   OH252804   0.294   5.110  13.339  0.0064 -0.0979 -0.5726
10438TIP3    H152805   0.378   5.065  13.334  0.5702  0.7442  0.7179
10438TIP3    H252806   0.312   5.198  13.305  0.3881  0.9797  2.1351
10439TIP3   OH252807   2.538   4.029  14.741 -0.4395  0.4418 -0.3596
10439TIP3    H152808   2.519   4.033  14.647 -0.8321 -1.3520 -0.3808
10439TIP3    H252809   2.457   4.058  14.783 -0.7021  0.0218 -0.5682
10440TIP3   OH252810   4.017   5.822   3.476  0.4301 -0.6137  0.0843
10440TIP3    H152811   4.016   5.897   3.536 -1.6351 -0.4929 -0.0230
10440TIP3    H252812   4.023   5.745   3.533 -0.4570 -0.4556  0.4156
10441TIP3   OH252813   4.263   6.228  16.193  0.2196  0.0322  0.6740
10441TIP3    H152814   4.212   6.303  16.161 -1.2286 -0.0901  2.4988
10441TIP3    H252815   4.341   6.268  16.233  2.1434  0.1759 -2.8233
10442TIP3   OH252816   4.885   5.002   0.263 -0.2999 -0.9657 -0.5154
10442TIP3    H152817   4.871   4.930   0.324 -0.1927 -0.7078 -0.1810
10442TIP3    H252818   4.968   4.981   0.220  0.6150 -0.2256  0.7858
10443TIP3   OH252819   1.235   1.194   4.949 -0.0376 -0.4230 -0.3546
10443TIP3    H152820   1.287   1.126   4.992 -0.9703 -0.4504  0.7900
10443TIP3    H252821   1.246   1.178   4.856  2.5867  0.0162 -0.2198
10444TIP3   OH252822   4.525   3.048  15.256  0.8341  0.2013  0.9857
10444TIP3    H152823   4.530   3.036  15.161  1.4241  0.0502  1.0278
10444TIP3    H252824   4.462   3.119  15.268  0.3203 -0.1694  0.5171
10445TIP3   OH252825   4.552   1.441  13.910  0.6866  0.0385  0.5028
10445TIP3    H152826   4.457   1.440  13.918  0.6937 -0.7434  0.5366
10445TIP3    H252827   4.583   1.446  14.001  0.6821  0.4047  0.4865
10446TIP3   OH252828   1.828   4.355  15.220 -0.7609  0.5459  0.5960
10446TIP3    H152829   1.747   4.373  15.268 -0.4442 -0.2466  1.4908
10446TIP3    H252830   1.896   4.355  15.288 -0.5688 -2.6527  0.5793
10447TIP3   OH252831   0.115   3.668   1.136  1.1265 -0.7675 -0.3232
10447TIP3    H152832   0.132   3.620   1.217 -0.4493  1.1102  1.2165
10447TIP3    H252833   0.030   3.636   1.106  0.9273 -0.2871 -0.2901
10448TIP3   OH252834   0.603   4.062   3.973 -0.8111  0.2864  0.1291
10448TIP3    H152835   0.596   4.149   3.935 -0.6859  0.1929 -0.1119
10448TIP3    H252836   0.694   4.036   3.957 -1.2475 -0.5221 -1.2090
10449TIP3   OH252837   3.851   3.227   0.712 -0.3689  0.2019 -0.4219
10449TIP3    H152838   3.865   3.141   0.672 -1.7470 -1.0716  1.6183
10449TIP3    H252839   3.762   3.250   0.686 -1.2106 -0.5576  1.6195
10450TIP3   OH252840   3.859   4.689   5.749 -0.9499  0.5955  0.0411
10450TIP3    H152841   3.926   4.700   5.682 -3.0158  0.9363 -2.0929
10450TIP3    H252842   3.866   4.597   5.774  1.9041  1.1673  1.7738
10451TIP3   OH252843   6.376   6.374  11.112 -0.0265 -0.1492 -0.0615
10451TIP3    H152844   6.396   6.468  11.116 -0.1179 -0.1786  1.2432
10451TIP3    H252845   6.444   6.338  11.055 -0.2118  0.7598 -0.8870
10452TIP3   OH252846   1.095   6.789   1.828  0.9646  0.0441  0.1217
10452TIP3    H152847   1.157   6.735   1.876  2.6285  0.9404 -0.9313
10452TIP3    H252848   1.127   6.788   1.738 -2.0614 -1.6145 -1.0989
10453TIP3   OH252849   1.366   1.541   3.083 -0.5513 -0.2415 -0.1830
10453TIP3    H152850   1.441   1.484   3.098 -0.4320 -0.2430 -0.7373
10453TIP3    H252851   1.384   1.619   3.136 -1.2574 -1.1481  1.4670
10454TIP3   OH252852   0.490   6.641   4.120  0.0260 -0.8075  0.2941
10454TIP3    H152853   0.483   6.545   4.118 -0.2182 -0.7969 -2.4757
10454TIP3    H252854   0.578   6.658   4.153  0.6482 -2.0581 -0.6296
10455TIP3   OH252855   6.721   5.442   1.800  0.3748  0.0874  0.5022
10455TIP3    H152856   6.671   5.521   1.822  0.7820  0.0602  1.5796
10455TIP3    H252857   6.704   5.428   1.707 -1.3497  0.2635  0.7681
10456TIP3   OH252858   1.590   5.754  12.725 -0.5175 -0.0014  0.0456
10456TIP3    H152859   1.557   5.844  12.723  0.1404  0.2604  0.7347
10456TIP3    H252860   1.511   5.700  12.722 -0.9035  0.5788 -0.8364
10457TIP3   OH252861   6.801   4.363  15.740  0.2345 -0.1547  0.6455
10457TIP3    H152862   6.810   4.333  15.649  0.0591  1.4495  0.0647
10457TIP3    H252863   6.798   4.283  15.792  1.1059 -1.0839 -0.6911
10458TIP3   OH252864   0.586   2.438  11.914 -0.0944  0.5044  0.4765
10458TIP3    H152865   0.645   2.494  11.965 -0.2186 -0.0834  1.2701
10458TIP3    H252866   0.639   2.363  11.889  0.5473  1.6514 -1.9496
10459TIP3   OH252867   1.989   0.866   5.549  0.4120 -0.2889 -0.3292
10459TIP3    H152868   2.080   0.851   5.524  0.0716 -0.7429 -1.3493
10459TIP3    H252869   1.987   0.957   5.580  1.1068 -0.1005 -0.8245
10460TIP3   OH252870   3.228   5.832  11.699 -0.0503  0.1917 -0.2769
10460TIP3    H152871   3.153   5.802  11.650 -0.6647 -1.8659  1.7506
10460TIP3    H252872   3.272   5.752  11.728  0.0096  1.2016  2.7769
10461TIP3   OH252873   5.638   1.873  13.613 -0.5268  0.3116 -1.0291
10461TIP3    H152874   5.611   1.949  13.561 -1.4359 -0.4525 -1.7018
10461TIP3    H252875   5.695   1.823  13.555  1.1939  1.1332 -0.1250
10462TIP3   OH252876   6.276   4.487  16.299  0.4025  0.4049 -0.2275
10462TIP3    H152877   6.352   4.453  16.251 -0.8655 -0.7055 -1.5008
10462TIP3    H252878   6.299   4.473  16.391  1.0362 -1.5299 -0.6332
10463TIP3   OH252879   0.644   1.186   2.835  0.5821  0.0131 -0.3686
10463TIP3    H152880   0.659   1.221   2.923 -1.2035 -0.1606  0.0358
10463TIP3    H252881   0.649   1.091   2.845  0.0995 -0.0158 -0.4064
10464TIP3   OH252882   1.878   1.291   1.724  0.0832 -0.4613  0.5250
10464TIP3    H152883   1.935   1.280   1.800  3.0333  4.6084 -0.4543
10464TIP3    H252884   1.790   1.287   1.760  1.2214 -1.2950  3.6123
10465TIP3   OH252885   0.001   3.878  12.982 -0.3454  0.0026 -0.0482
10465TIP3    H152886   0.027   3.953  12.928 -1.3768 -0.8295 -1.8196
10465TIP3    H252887  -0.077   3.908  13.028 -1.2085 -0.1607 -1.3363
10466TIP3   OH252888   0.213   3.841  12.755  0.3815  0.0484  0.2078
10466TIP3    H152889   0.236   3.761  12.708  0.1022 -1.7453  2.9102
10466TIP3    H252890   0.133   3.818  12.802  0.5182  1.8021  1.3636
10467TIP3   OH252891   4.559   5.927  15.629 -0.4307 -0.1090  0.4132
10467TIP3    H152892   4.526   5.846  15.589 -0.8361  1.2159 -2.1672
10467TIP3    H252893   4.640   5.946  15.581 -0.4265  1.0849  0.8584
10468TIP3   OH252894   6.174   2.778  12.287  0.0824 -0.0650 -0.6081
10468TIP3    H152895   6.190   2.777  12.193  0.4766 -2.5820 -0.5764
10468TIP3    H252896   6.253   2.741  12.326 -0.2396  0.5518  0.7042
10469TIP3   OH252897   6.746   3.915   0.091  0.2120  0.0230  0.7964
10469TIP3    H152898   6.773   3.868   0.170  0.5663 -0.3627  0.4557
10469TIP3    H252899   6.714   4.000   0.122 -2.1014 -1.0648  1.5976
10470TIP3   OH252900   0.877   5.006   5.975  0.2467  0.3139  0.4020
10470TIP3    H152901   0.899   5.073   6.041  2.4630  1.7356 -1.6031
10470TIP3    H252902   0.948   4.942   5.983  0.2490  0.2370 -0.2323
10471TIP3   OH252903   4.608   5.036  14.871  0.0995 -0.1031 -0.0599
10471TIP3    H152904   4.703   5.039  14.868  0.0387  1.9701 -1.6510
10471TIP3    H252905   4.584   4.966  14.810  0.5819  2.2593 -3.1672
10472TIP3   OH252906   0.923   6.678   5.002  0.2412 -0.0686 -0.0410
10472TIP3    H152907   0.983   6.627   4.948 -0.9965 -2.0412  0.3499
10472TIP3    H252908   0.890   6.746   4.943 -0.6598 -1.8227 -1.7064
10473TIP3   OH252909   2.476   5.803  14.134  0.4241 -0.2591 -0.0313
10473TIP3    H152910   2.546   5.759  14.087 -0.9931 -2.0190 -0.5924
10473TIP3    H252911   2.396   5.782  14.085 -0.5987  1.1562  0.9310
10474TIP3   OH252912   0.831   4.427  14.729  0.1375 -0.1285 -0.6660
10474TIP3    H152913   0.915   4.387  14.706 -0.2919 -0.1476 -2.3314
10474TIP3    H252914   0.778   4.417  14.650 -1.2250  0.4456  0.1532
10475TIP3   OH252915   3.417   1.329  16.201 -0.3799 -0.2611  0.1653
10475TIP3    H152916   3.451   1.249  16.160 -0.0232  0.3484 -0.7717
10475TIP3    H252917   3.455   1.400  16.149 -1.8406  0.4844  0.0553
10476TIP3   OH252918   6.526   3.446   5.967  0.0317 -0.1974  0.6498
10476TIP3    H152919   6.550   3.368   5.916  0.1098  0.3390 -0.1443
10476TIP3    H252920   6.484   3.411   6.046  0.7094 -1.0674  0.6400
10477TIP3   OH252921   0.832   3.128  13.435  0.5525 -0.0939  0.4988
10477TIP3    H152922   0.840   3.041  13.395 -0.5310 -0.1689  0.4078
10477TIP3    H252923   0.740   3.152  13.421  0.5484  0.5679  1.5465
10478TIP3   OH252924   0.644   4.670   1.952  0.8496  0.6747  0.0096
10478TIP3    H152925   0.716   4.685   2.013 -0.5211  0.8757  1.6436
10478TIP3    H252926   0.621   4.758   1.920  0.8016  0.7011  0.1161
10479TIP3   OH252927   1.067   0.453   3.995 -0.2343  0.1813 -0.8198
10479TIP3    H152928   0.993   0.496   4.038  0.8154  1.5258 -0.2838
10479TIP3    H252929   1.128   0.432   4.065  0.3520  0.0236 -1.3626
10480TIP3   OH252930   6.736   0.453  12.599  0.4129 -0.1879 -0.5057
10480TIP3    H152931   6.642   0.436  12.590  0.6230 -0.8084 -1.6216
10480TIP3    H252932   6.755   0.517  12.530  0.1543  2.7670  1.9327
10481TIP3   OH252933   4.108   4.156  16.529  0.0220  0.6544  0.2399
10481TIP3    H152934   4.172   4.092  16.500 -0.7323  0.0007 -0.0362
10481TIP3    H252935   4.128   4.169  16.622 -0.1562 -0.4285  0.4498
10482TIP3   OH252936   3.711   1.725  12.577 -0.0438  0.0971  0.6961
10482TIP3    H152937   3.655   1.678  12.638 -3.1934  1.8698 -0.6087
10482TIP3    H252938   3.727   1.663  12.506 -0.5450 -0.3582  0.9791
10483TIP3   OH252939   1.270   4.732  13.650  0.0052 -0.4043  0.4360
10483TIP3    H152940   1.238   4.653  13.693 -0.8428  0.4828  1.5257
10483TIP3    H252941   1.205   4.750  13.582 -0.3529 -0.1086  0.8485
10484TIP3   OH252942   6.750   5.231   0.421 -0.4573  0.1164 -0.2014
10484TIP3    H152943   6.687   5.203   0.355  0.8073 -1.0873 -0.9276
10484TIP3    H252944   6.814   5.161   0.426  0.8818  1.3253  0.4758
10485TIP3   OH252945   3.669   3.983  12.565  0.1142  0.1114  0.0096
10485TIP3    H152946   3.633   4.031  12.491  0.6321 -0.1107 -0.3875
10485TIP3    H252947   3.735   4.042  12.601  0.5965 -0.2106 -0.3446
10486TIP3   OH252948   4.099   0.722  17.113 -0.5196  0.1836 -0.8319
10486TIP3    H152949   4.011   0.687  17.103 -0.4599  0.1400 -1.2019
10486TIP3    H252950   4.152   0.646  17.140 -0.6936  0.3183 -0.0700
10487TIP3   OH252951   2.352   0.666  14.615  0.3193  0.1261 -0.2141
10487TIP3    H152952   2.274   0.686  14.563 -0.2386 -1.6545 -0.1054
10487TIP3    H252953   2.339   0.716  14.696  0.3242  1.4765 -1.0049
10488TIP3   OH252954   4.524   5.096   5.009 -0.1238  0.4432 -0.0719
10488TIP3    H152955   4.609   5.141   5.006 -0.3572  0.9134  0.1884
10488TIP3    H252956   4.533   5.023   4.947  1.2535 -0.8989  1.6152
10489TIP3   OH252957   3.727   4.349   4.001 -0.7646  0.7771  0.6030
10489TIP3    H152958   3.820   4.339   3.979 -0.8543  0.9425  0.1472
10489TIP3    H252959   3.724   4.339   4.097 -0.3415  0.3280  0.5691
10490TIP3   OH252960   6.339   0.587   4.809  0.4207  0.3691  0.0686
10490TIP3    H152961   6.399   0.566   4.738  1.3148  1.2251  0.5544
10490TIP3    H252962   6.354   0.517   4.874 -0.8114 -0.7454 -0.7837
10491TIP3   OH252963   0.948   0.990   2.763  0.3766 -0.0118 -0.4617
10491TIP3    H152964   0.924   1.010   2.854  2.7258 -1.2447  0.4966
10491TIP3    H252965   0.930   0.897   2.754  1.1113 -0.1154 -0.9258
10492TIP3   OH252966   6.499   4.453  13.541  0.2035  0.4191  0.3644
10492TIP3    H152967   6.578   4.449  13.488  0.4917  0.3921  0.7931
10492TIP3    H252968   6.529   4.440  13.631 -0.2865  0.3992  0.5310
10493TIP3   OH252969   2.278   0.993   2.675  0.0785 -0.0304 -0.1136
10493TIP3    H152970   2.316   1.075   2.644  0.9813 -1.0041 -1.7106
10493TIP3    H252971   2.187   0.996   2.646  0.5159 -0.2492 -1.6083
10494TIP3   OH252972   6.721   5.823  14.726 -0.0204 -0.8593 -0.5462
10494TIP3    H152973   6.741   5.742  14.773 -0.4068 -1.5296 -1.5076
10494TIP3    H252974   6.805   5.868  14.719 -0.0109 -0.5285  1.1320
10495TIP3   OH252975   6.333   4.184   6.740 -0.1332  0.2044  0.1805
10495TIP3    H152976   6.271   4.246   6.778 -0.0011  2.5284 -2.9879
10495TIP3    H252977   6.281   4.105   6.724 -0.9022  0.2439  2.1553
10496TIP3   OH252978   0.145   0.127   3.385 -0.1815  0.3127  0.2825
10496TIP3    H152979   0.211   0.192   3.360 -1.8488  2.5605  1.3406
10496TIP3    H252980   0.089   0.173   3.448 -1.1160 -2.3924  1.5643
10497TIP3   OH252981   5.762   6.158   1.471 -0.3253  0.5330 -0.5103
10497TIP3    H152982   5.766   6.234   1.529  1.9509  0.3697 -0.3453
10497TIP3    H252983   5.836   6.103   1.499 -1.7328 -1.6302 -0.8037
10498TIP3   OH252984   1.793   1.888   0.290 -0.6123 -0.3000  0.6028
10498TIP3    H152985   1.866   1.832   0.267 -0.9391 -0.3875 -0.2517
10498TIP3    H252986   1.787   1.951   0.218 -0.7191  0.3656  1.1793
10499TIP3   OH252987   3.215   2.792  11.678  0.8171 -0.1868 -0.1088
10499TIP3    H152988   3.300   2.763  11.645  1.8164  0.8933  1.4197
10499TIP3    H252989   3.199   2.876  11.636  0.3840 -0.4756 -0.5422
10500TIP3   OH252990   1.561   3.331  14.570  0.4207 -0.2396  0.2031
10500TIP3    H152991   1.632   3.394  14.560 -1.0959  1.5841  0.5070
10500TIP3    H252992   1.556   3.316  14.665 -0.0932  0.2345  0.2526
10501TIP3   OH252993   6.367   6.129   0.107  0.1290  0.3673  0.3678
10501TIP3    H152994   6.365   6.070   0.032 -0.2395  0.8091  0.0257
10501TIP3    H252995   6.358   6.072   0.183  0.1948 -0.0535  0.0604
10502TIP3   OH252996   0.636   3.836   0.044 -0.8240  0.1955  0.2992
10502TIP3    H152997   0.727   3.807   0.043 -0.5379  1.0682 -1.2453
10502TIP3    H252998   0.641   3.931   0.047 -1.7355  0.2329  2.5192
10503TIP3   OH252999   0.025   3.238   4.827 -0.1013  0.3315  0.5485
10503TIP3    H153000   0.011   3.294   4.750  1.6921  1.2275  0.8112
10503TIP3    H253001   0.120   3.224   4.828 -0.5392 -4.0321 -0.3494
10504TIP3   OH253002   4.390   1.905   3.278  0.6867 -0.0392 -0.1287
10504TIP3    H153003   4.390   1.993   3.315 -1.9668 -0.5797  1.4443
10504TIP3    H253004   4.321   1.908   3.211  0.0973 -1.0758  0.4165
10505TIP3   OH253005   3.351   4.136  16.955 -0.4843  0.2692  0.4819
10505TIP3    H153006   3.313   4.062  17.002 -2.1138  1.1773  0.6532
10505TIP3    H253007   3.433   4.101  16.920 -0.2739 -1.0675  2.1298
10506TIP3   OH253008   6.573   4.829  11.424 -0.6325 -0.4617 -0.1935
10506TIP3    H153009   6.525   4.908  11.449  1.8991  1.5231 -1.1274
10506TIP3    H253010   6.574   4.831  11.328 -0.5499 -1.6532 -0.2262
10507TIP3   OH253011   4.258   6.313   5.091 -0.3808  0.4285 -0.6136
10507TIP3    H153012   4.190   6.365   5.049 -1.7870 -0.1065  0.8887
10507TIP3    H253013   4.219   6.226   5.102  0.7744 -0.0694 -0.2680
10508TIP3   OH253014   3.499   2.825   1.637 -0.0478 -0.7391 -0.2950
10508TIP3    H153015   3.584   2.862   1.611 -0.8089  2.0005  0.7330
10508TIP3    H253016   3.477   2.765   1.567  2.6360 -1.4143 -0.6922
10509TIP3   OH253017   4.677   5.427  13.749  0.4132  0.1810 -0.2563
10509TIP3    H153018   4.617   5.425  13.823  0.0759  3.7860 -0.2427
10509TIP3    H253019   4.625   5.465  13.678  1.6794 -0.0324 -1.3261
10510TIP3   OH253020   0.153   2.276   3.053 -0.4710 -0.1183  0.1158
10510TIP3    H153021   0.140   2.305   2.963 -3.0006 -0.1146  0.3973
10510TIP3    H253022   0.114   2.345   3.107  0.0218 -0.6216  1.1595
10511TIP3   OH253023   1.147   5.497  11.494  0.3665  0.0424 -0.3345
10511TIP3    H153024   1.099   5.559  11.549  0.4711 -1.6045  1.7737
10511TIP3    H253025   1.088   5.421  11.488  1.9281 -1.3532  0.8960
10512TIP3   OH253026   6.041   5.832  13.812 -0.0729 -0.3711 -0.1070
10512TIP3    H153027   6.059   5.925  13.821 -2.1815  0.0447  0.2700
10512TIP3    H253028   6.119   5.789  13.847  0.6069  1.2480  0.4302
10513TIP3   OH253029   0.175   6.656  15.250  0.3874  0.0652 -0.6135
10513TIP3    H153030   0.200   6.731  15.195  1.3421  0.4010  0.2311
10513TIP3    H253031   0.081   6.665  15.261  0.3208  0.5011 -1.4559
10514TIP3   OH253032   4.855   2.354  15.089 -0.1246 -0.1006 -0.2896
10514TIP3    H153033   4.869   2.419  15.020  0.7505 -0.2010 -0.2166
10514TIP3    H253034   4.778   2.386  15.136  1.4505  2.0236  1.0214
10515TIP3   OH253035   4.512   5.134  15.582  0.0109 -0.1298 -0.4012
10515TIP3    H153036   4.480   5.220  15.554 -0.3554  0.7794  2.4619
10515TIP3    H253037   4.601   5.151  15.614 -0.9063 -0.2146  2.4556
10516TIP3   OH253038   5.321   3.517  12.618  0.2557  0.6693  0.4153
10516TIP3    H153039   5.228   3.508  12.640 -0.3160  0.3552 -1.8679
10516TIP3    H253040   5.358   3.431  12.638 -0.1114  0.5704  0.6794
10517TIP3   OH253041   1.764   4.206   3.319 -0.3990  0.0338 -0.9768
10517TIP3    H153042   1.751   4.217   3.225 -0.6026 -0.2132 -0.9789
10517TIP3    H253043   1.793   4.115   3.328  0.1410  0.2162 -0.8530
10518TIP3   OH253044   4.634   3.489  11.553  0.6234  0.1434  0.5836
10518TIP3    H153045   4.684   3.559  11.510  0.8923 -0.4369 -0.0663
10518TIP3    H253046   4.570   3.535  11.607  0.8033  0.8908  0.1770
10519TIP3   OH253047   2.159   5.312  16.283 -0.1871 -0.6543  0.5132
10519TIP3    H153048   2.144   5.383  16.221 -0.1096 -0.5862  0.5702
10519TIP3    H253049   2.207   5.353  16.355  1.1733 -1.0673 -0.1281
10520TIP3   OH253050   5.817   1.663  11.007 -0.6388 -0.1519  0.2934
10520TIP3    H153051   5.777   1.588  10.964 -0.6400  1.2613 -2.4060
10520TIP3    H253052   5.770   1.739  10.971  1.4753  1.3037  0.4136
10521TIP3   OH253053   6.539   5.519  16.242 -0.6294 -0.0536  0.5395
10521TIP3    H153054   6.559   5.427  16.258  3.1365  0.6805  0.9480
10521TIP3    H253055   6.568   5.534  16.152 -0.0022  1.0097  0.9116
10522TIP3   OH253056   0.866   4.275   3.113  0.0762 -0.3871  0.4184
10522TIP3    H153057   0.829   4.200   3.066 -1.0318  0.0298  0.6095
10522TIP3    H253058   0.957   4.279   3.083 -1.0189  1.0785 -3.2936
10523TIP3   OH253059   0.591   2.757  10.902  0.3404  0.0428 -0.3664
10523TIP3    H153060   0.679   2.728  10.879  0.0416  0.1758 -1.7626
10523TIP3    H253061   0.540   2.676  10.906  0.5331 -0.0419  0.5238
10524TIP3   OH253062   2.149   0.426   4.189  0.1451  0.0788 -0.2077
10524TIP3    H153063   2.113   0.426   4.278  2.1556 -0.5346  0.6601
10524TIP3    H253064   2.242   0.446   4.200  0.7623 -1.4187 -2.0135
10525TIP3   OH253065   1.291   0.587  14.493  0.0512 -0.4362  0.1929
10525TIP3    H153066   1.260   0.534  14.567 -2.4278 -0.5034 -0.7950
10525TIP3    H253067   1.321   0.669  14.532 -1.6435 -0.2876  1.2735
10526TIP3   OH253068   4.245   4.677   2.191 -0.0428 -0.0707 -0.1540
10526TIP3    H153069   4.190   4.660   2.115 -1.7423  0.3148  0.9305
10526TIP3    H253070   4.204   4.752   2.234  1.1046 -0.0246  0.9276
10527TIP3   OH253071   1.689   4.761   1.958  0.0733  0.6255 -0.4980
10527TIP3    H153072   1.707   4.833   1.898 -0.8747  0.0541 -1.5205
10527TIP3    H253073   1.614   4.792   2.010  0.9402  1.1494  0.4737
10528TIP3   OH253074   4.616   4.645   3.718  0.4344  0.1559 -0.3004
10528TIP3    H153075   4.575   4.595   3.647 -1.1734 -0.2970  0.9035
10528TIP3    H253076   4.562   4.723   3.728 -0.7248 -0.8217  1.8254
10529TIP3   OH253077   0.277   2.208   4.477 -0.0179 -0.3751  0.2005
10529TIP3    H153078   0.219   2.136   4.452 -0.2683  0.7179 -2.7718
10529TIP3    H253079   0.273   2.269   4.403  2.7418  1.1138  1.1355
10530TIP3   OH253080   0.093   1.239   3.464  0.0431  0.0848  0.2794
10530TIP3    H153081   0.105   1.182   3.387  0.4374  1.1931 -0.4987
10530TIP3    H253082  -0.001   1.259   3.464  0.0018 -0.1065  0.2250
10531TIP3   OH253083   5.989   1.169  15.205  0.1209 -0.2167 -0.2753
10531TIP3    H153084   5.978   1.154  15.299 -1.0776  0.8688 -0.2126
10531TIP3    H253085   6.037   1.092  15.174  1.2414 -0.2269  1.3502
10532TIP3   OH253086   0.096   6.213  15.104 -0.2812  0.1757  0.3642
10532TIP3    H153087   0.099   6.256  15.018  0.1446 -1.0723 -0.2628
10532TIP3    H253088   0.147   6.271  15.161  0.2316  0.5447 -0.4509
10533TIP3   OH253089   2.321   3.916   6.596 -0.1824  0.6199  0.4767
10533TIP3    H153090   2.280   3.993   6.556 -1.5057 -0.3990 -0.2349
10533TIP3    H253091   2.247   3.861   6.623  0.7279 -0.2487  1.2813
10534TIP3   OH253092   0.674   6.017  14.166 -0.8679 -0.0803  0.0415
10534TIP3    H153093   0.627   6.100  14.163 -5.4455 -2.3387  0.8140
10534TIP3    H253094   0.725   6.022  14.247 -2.4611  1.3265  1.0254
10535TIP3   OH253095   3.419   6.362   3.116  0.8643  0.1783  0.0072
10535TIP3    H153096   3.393   6.331   3.203 -1.7964  1.9911 -0.0234
10535TIP3    H253097   3.355   6.324   3.056  1.0932  1.0228 -0.8113
10536TIP3   OH253098   3.235   6.515   1.594 -0.0553 -0.2784  0.1472
10536TIP3    H153099   3.296   6.444   1.614 -1.5627 -1.9404 -0.8697
10536TIP3    H253100   3.166   6.506   1.660  0.3284  1.0511  0.7689
10537TIP3   OH253101   3.744   4.353   2.702  0.0557  0.4496  0.5676
10537TIP3    H153102   3.742   4.363   2.797  1.2666 -1.0140  0.7925
10537TIP3    H253103   3.687   4.422   2.669 -1.2360  0.3421  2.4062
10538TIP3   OH253104   3.505   2.036   6.570  0.3363 -0.2846  0.1085
10538TIP3    H153105   3.581   2.082   6.607  0.7076 -1.4291  0.8085
10538TIP3    H253106   3.531   2.015   6.480  0.2214  0.7143 -0.1690
10539TIP3   OH253107   4.773   6.043  12.795  0.6092  0.4413 -0.1365
10539TIP3    H153108   4.765   6.126  12.748 -1.5849 -0.0901 -0.8024
10539TIP3    H253109   4.786   6.068  12.886  0.5852  1.5059 -0.4096
10540TIP3   OH253110   3.847   5.111  15.184 -0.4496 -0.3486  0.3779
10540TIP3    H153111   3.779   5.157  15.136 -0.7870 -0.7280  0.4865
10540TIP3    H253112   3.810   5.024  15.200 -0.7239  0.0446  2.1188
10541TIP3   OH253113   2.978   0.907   4.302  0.4172  0.1595 -0.0315
10541TIP3    H153114   3.015   0.843   4.363 -0.3637 -0.8306 -0.5729
10541TIP3    H253115   2.906   0.948   4.350 -1.1491 -1.6460 -0.7048
10542TIP3   OH253116   1.740   3.172   1.848 -0.3213  0.1974 -0.1283
10542TIP3    H153117   1.736   3.082   1.881 -2.2048  0.5635  0.7450
10542TIP3    H253118   1.761   3.163   1.755  0.2294 -1.0937  0.0972
10543TIP3   OH253119   6.582   0.639  16.084 -0.4217 -0.4080 -0.3272
10543TIP3    H153120   6.657   0.603  16.132 -0.6080 -1.0876 -0.5292
10543TIP3    H253121   6.606   0.730  16.067 -0.9062  0.3013  2.2274
10544TIP3   OH253122   4.865   3.809   2.280  0.3912 -0.6981 -0.1214
10544TIP3    H153123   4.831   3.859   2.354  0.9616  0.7783 -0.8017
10544TIP3    H253124   4.817   3.844   2.204  1.1843 -0.7888 -0.6797
10545TIP3   OH253125   2.376   3.599  11.345  0.2747 -0.0614  0.4583
10545TIP3    H153126   2.362   3.505  11.338 -1.8314  0.2101  0.3132
10545TIP3    H253127   2.471   3.610  11.335  0.5989 -2.1661  0.7482
10546TIP3   OH253128   2.184   1.282  13.364  0.2771  0.0389  0.4271
10546TIP3    H153129   2.134   1.349  13.409 -0.3230  0.3983 -0.7346
10546TIP3    H253130   2.273   1.291  13.398 -0.2555 -0.0334  1.8712
10547TIP3   OH253131   3.623   4.999   1.903 -0.1867 -0.3607  0.1720
10547TIP3    H153132   3.589   4.940   1.970  0.0347 -0.6240  0.0560
10547TIP3    H253133   3.616   4.949   1.821 -1.8123  0.4943 -0.2386
10548TIP3   OH253134   1.119   6.510  11.716  0.4382 -0.3029  0.7402
10548TIP3    H153135   1.183   6.457  11.763  0.0299  0.4562  2.1996
10548TIP3    H253136   1.076   6.561  11.784  2.0788  3.3584 -0.7276
10549TIP3   OH253137   6.465   2.582  13.342  0.0503  1.0762  0.2955
10549TIP3    H153138   6.393   2.605  13.283 -0.9535 -0.1090  0.9830
10549TIP3    H253139   6.526   2.655  13.336 -0.2920  1.2400 -1.7607
10550TIP3   OH253140   5.393   0.331  11.466 -0.3403 -0.6774 -0.4809
10550TIP3    H153141   5.434   0.342  11.381 -1.4095 -0.5777 -0.9980
10550TIP3    H253142   5.420   0.243  11.494  1.2778 -0.1230 -0.1911
10551TIP3   OH253143   3.707   3.844  17.107 -0.3380  0.0086  0.0236
10551TIP3    H153144   3.640   3.802  17.161  0.8026 -0.4962  1.1082
10551TIP3    H253145   3.730   3.924  17.155  0.1540 -0.0581 -0.0976
10552TIP3   OH253146   4.389   0.722  14.753  0.3117  0.0048  0.7373
10552TIP3    H153147   4.358   0.778  14.823  2.5281  0.0286  1.7759
10552TIP3    H253148   4.482   0.708  14.772 -0.2001 -4.6421  1.0120
10553TIP3   OH253149   0.822   1.601   3.383 -0.3081 -0.1602 -0.5324
10553TIP3    H153150   0.742   1.566   3.423  0.3798 -0.5596  0.5353
10553TIP3    H253151   0.791   1.670   3.324 -1.4781 -0.6894 -0.5650
10554TIP3   OH253152   0.929   0.995   2.307  0.2114 -0.1937  0.0488
10554TIP3    H153153   0.848   0.993   2.358  0.5288 -0.7355  0.5423
10554TIP3    H253154   0.907   0.954   2.224 -0.0027 -0.3899  0.2032
10555TIP3   OH253155   5.820   0.070  15.512 -0.0135  0.3199 -0.5720
10555TIP3    H153156   5.828   0.046  15.420  1.7749 -0.2606 -0.3048
10555TIP3    H253157   5.910   0.079  15.543 -0.5539  0.1816  1.2052
10556TIP3   OH253158   2.977   6.673  12.696  0.3131 -0.2030 -0.1206
10556TIP3    H153159   3.012   6.760  12.676 -0.3255 -0.1997 -1.2874
10556TIP3    H253160   2.931   6.684  12.780  1.8636  0.1157  0.7308
10557TIP3   OH253161   1.531   3.995  11.944 -0.3542 -0.3381 -0.0477
10557TIP3    H153162   1.556   3.914  11.990 -0.6868 -0.1226  0.5287
10557TIP3    H253163   1.459   4.030  11.996  2.8637  2.9685  2.7469
10558TIP3   OH253164   1.676   1.839  14.028 -0.1224 -0.0434  0.4529
10558TIP3    H153165   1.765   1.811  14.003  0.4696  0.7270  1.6182
10558TIP3    H253166   1.687   1.929  14.059 -0.8885 -0.6794  2.7774
10559TIP3   OH253167   3.786   3.559   5.076 -0.3844  0.6408 -0.0752
10559TIP3    H153168   3.798   3.501   5.151  0.5031  0.5270 -0.2889
10559TIP3    H253169   3.808   3.646   5.110  1.2182  0.4210 -0.4880
10560TIP3   OH253170   4.250   1.481  15.638 -0.2897  0.5321 -0.4020
10560TIP3    H153171   4.298   1.474  15.556 -0.6463 -0.8010 -0.5216
10560TIP3    H253172   4.316   1.500  15.704  0.4073 -1.0167 -0.6041
10561TIP3   OH253173   2.971   3.595   5.699  0.1420 -0.2974 -0.2131
10561TIP3    H153174   2.900   3.560   5.645  2.2818 -2.0174 -2.0651
10561TIP3    H253175   3.002   3.672   5.652  1.5790 -1.4220 -1.1751
10562TIP3   OH253176   1.911   2.840   5.310  0.1519 -0.5564 -0.1570
10562TIP3    H153177   1.819   2.857   5.332 -0.1312 -1.3264 -0.6998
10562TIP3    H253178   1.922   2.881   5.224 -0.3015 -2.2894 -1.0854
10563TIP3   OH253179   2.847   2.672  13.335 -0.1708  0.5390  0.3473
10563TIP3    H153180   2.762   2.665  13.378 -0.5561  1.4816 -0.2404
10563TIP3    H253181   2.830   2.643  13.245  0.5983 -1.2954  0.7459
10564TIP3   OH253182   4.278   4.900   2.963  0.0118  0.0749 -0.5969
10564TIP3    H153183   4.261   4.934   3.051  1.0432 -0.5742 -0.1347
10564TIP3    H253184   4.341   4.829   2.976 -1.6564 -1.6914 -1.6021
10565TIP3   OH253185   6.387   2.982  14.749 -0.4026  0.0081 -1.0557
10565TIP3    H153186   6.402   3.007  14.840 -0.4220  0.7459 -1.2553
10565TIP3    H253187   6.292   2.986  14.738 -0.4751 -0.8858 -0.8887
10566TIP3   OH253188   2.400   0.666   4.802 -0.3675  0.2305 -0.2878
10566TIP3    H153189   2.374   0.603   4.870 -2.0701  1.1700 -0.0199
10566TIP3    H253190   2.325   0.725   4.794  1.7726  3.3493  0.7219
10567TIP3   OH253191   0.600   0.836  12.315 -0.2229  0.8464 -0.5967
10567TIP3    H153192   0.608   0.834  12.219  1.8503  1.7750 -0.5002
10567TIP3    H253193   0.636   0.922  12.340  0.5945  0.0523  1.0992
10568TIP3   OH253194   2.521   5.273  15.819 -0.4310  0.5043  0.4266
10568TIP3    H153195   2.563   5.190  15.797  0.7121  1.3573 -0.7329
10568TIP3    H253196   2.454   5.249  15.883  0.3084 -1.2153  0.6253
10569TIP3   OH253197   6.513   2.304   2.286  0.3651 -0.3569 -0.8423
10569TIP3    H153198   6.473   2.323   2.371  0.5765 -0.3231 -0.7487
10569TIP3    H253199   6.445   2.258   2.237  0.1452 -0.1317 -0.7537
10570TIP3   OH253200   1.018   0.105   1.349 -0.4097 -0.7162 -0.0534
10570TIP3    H153201   1.055   0.130   1.434 -0.4977 -0.0516 -0.2043
10570TIP3    H253202   1.023   0.185   1.296 -1.6416 -0.7429 -0.2284
10571TIP3   OH253203   5.758   5.334  15.909  0.2138  0.1385 -0.1247
10571TIP3    H153204   5.669   5.321  15.877 -0.2085  1.1603  0.5974
10571TIP3    H253205   5.774   5.259  15.966 -0.8473  0.8490  1.1470
10572TIP3   OH253206   0.098   4.347  13.485  0.1686  0.1293 -0.2513
10572TIP3    H153207   0.128   4.263  13.453 -0.2836  0.0176 -0.3922
10572TIP3    H253208   0.034   4.376  13.420 -1.1583 -0.3473  0.7981
10573TIP3   OH253209   6.785   5.534  10.817 -0.0403 -0.1181  0.2102
10573TIP3    H153210   6.708   5.587  10.795 -2.0214 -2.4139  1.0688
10573TIP3    H253211   6.805   5.486  10.737  0.6576  0.6021 -0.0632
10574TIP3   OH253212   5.056   4.067   1.569 -0.2870  0.5531 -0.7195
10574TIP3    H153213   5.144   4.102   1.583 -0.1311 -0.1049 -0.0168
10574TIP3    H253214   5.069   3.974   1.551 -0.9583 -0.0343  1.5442
10575TIP3   OH253215   2.859   0.871  13.456 -0.0126  0.4982 -0.0671
10575TIP3    H153216   2.895   0.905  13.374  2.2864 -1.1589  0.1780
10575TIP3    H253217   2.768   0.901  13.455  0.6275  2.7117 -1.9652
10576TIP3   OH253218   6.550   2.995   3.131 -0.4994  0.0053  0.2526
10576TIP3    H153219   6.646   2.999   3.124 -0.5051 -1.1798 -0.8442
10576TIP3    H253220   6.534   2.949   3.214 -0.1081 -0.1981  0.2191
10577TIP3   OH253221   3.841   0.254  11.996 -0.3916 -0.0996 -0.6311
10577TIP3    H153222   3.765   0.204  12.027 -0.4623 -0.1674 -0.9112
10577TIP3    H253223   3.917   0.200  12.021 -0.5404 -1.2512 -2.5304
10578TIP3   OH253224   0.547   4.557  16.898  0.0582 -0.7732  0.2926
10578TIP3    H153225   0.519   4.644  16.871 -0.0193 -0.5624  1.0437
10578TIP3    H253226   0.503   4.498  16.836  0.6865 -0.2488 -0.6721
10579TIP3   OH253227   0.680   1.262  15.519 -0.3621 -0.7627  0.0767
10579TIP3    H153228   0.631   1.302  15.446 -1.0394 -0.2926  0.7697
10579TIP3    H253229   0.741   1.201  15.476 -1.0858 -0.8643 -0.8553
10580TIP3   OH253230   5.923   1.055  15.675 -0.7857  0.1314  0.2495
10580TIP3    H153231   5.926   1.151  15.680 -0.1061  0.1902 -1.0090
10580TIP3    H253232   5.862   1.037  15.603 -0.8280 -0.3765  0.4104
10581TIP3   OH253233   1.578   2.976   4.483 -0.1103  0.2448 -0.2617
10581TIP3    H153234   1.516   3.033   4.438  0.0448  2.8483  2.5530
10581TIP3    H253235   1.651   3.033   4.506  0.0174 -0.9548  2.7820
10582TIP3   OH253236   3.919   2.655   4.576 -0.0502  0.1857  0.0876
10582TIP3    H153237   3.996   2.673   4.522  0.5230  1.2674  1.2091
10582TIP3    H253238   3.910   2.733   4.631 -2.8960  0.8050 -1.0785
10583TIP3   OH253239   6.028   2.932   4.554 -0.2414  0.0378  0.6175
10583TIP3    H153240   5.989   2.854   4.516 -1.3918  0.6935  0.4071
10583TIP3    H253241   5.968   3.003   4.532  0.3294  0.8466  1.5425
10584TIP3   OH253242   1.323   0.823  16.493  0.1826  0.2090  0.0236
10584TIP3    H153243   1.249   0.867  16.451  0.5899  1.5479  0.6454
10584TIP3    H253244   1.400   0.852  16.445  0.3278 -1.1793 -0.6197
10585TIP3   OH253245   4.577   2.395   5.502 -0.4041 -0.3341  0.2695
10585TIP3    H153246   4.553   2.481   5.468 -1.0646 -0.5899  0.0578
10585TIP3    H253247   4.612   2.348   5.426 -2.8345 -1.2601 -0.3958
10586TIP3   OH253248   4.060   3.397   3.192  0.1324 -0.1263 -0.2370
10586TIP3    H153249   4.001   3.321   3.192 -1.1858  0.8768 -0.1339
10586TIP3    H253250   4.145   3.360   3.216 -0.2271 -1.7613 -1.3213
10587TIP3   OH253251   3.188   1.085  11.349  0.2710  0.2110  0.4609
10587TIP3    H153252   3.215   1.146  11.418 -0.0949  1.3893 -0.3932
10587TIP3    H253253   3.246   1.105  11.275 -0.5672  0.3041 -0.1943
10588TIP3   OH253254   4.004   5.854  13.165  0.0772  0.4884  0.2379
10588TIP3    H153255   4.083   5.804  13.146 -0.0789 -0.1100  1.1281
10588TIP3    H253256   4.021   5.896  13.250 -0.8291 -0.2329  0.7943
10589TIP3   OH253257   2.294   2.086   3.291 -0.0840  0.2301  0.2743
10589TIP3    H153258   2.319   2.055   3.378 -2.9359 -0.1191  1.0637
10589TIP3    H253259   2.338   2.171   3.282 -0.7103  0.8443  2.5887
10590TIP3   OH253260   2.701   3.739   4.032 -0.4187 -0.1601 -0.6227
10590TIP3    H153261   2.646   3.735   3.954  0.9006  0.8962 -1.6405
10590TIP3    H253262   2.761   3.664   4.024 -0.1971  0.0238 -0.6882
10591TIP3   OH253263   3.086   3.339   6.323 -0.2000  0.5279  0.0883
10591TIP3    H153264   3.095   3.431   6.347  0.1658  0.2983  0.8601
10591TIP3    H253265   3.154   3.294   6.374  3.0878  0.4192 -3.8475
10592TIP3   OH253266   6.272   6.338  12.975  0.0175  0.3956 -0.5599
10592TIP3    H153267   6.333   6.267  12.953  2.3438  2.1588 -0.1191
10592TIP3    H253268   6.218   6.301  13.045  1.2168 -0.9333 -0.2672
10593TIP3   OH253269   5.423   1.568  14.116  0.1587 -0.1268  0.7308
10593TIP3    H153270   5.363   1.624  14.067 -0.0485  0.4504  1.6143
10593TIP3    H253271   5.381   1.481  14.115  0.2193 -0.1493 -0.1917
10594TIP3   OH253272   3.041   4.038  12.453  0.2579 -0.3761 -0.3108
10594TIP3    H153273   3.045   4.005  12.543 -1.2180  0.3053  0.0300
10594TIP3    H253274   3.075   3.966  12.400 -2.3539 -2.3210  0.4488
10595TIP3   OH253275   6.612   4.501  17.239  0.8868 -0.7249  0.4519
10595TIP3    H153276   6.655   4.517  17.154  0.5800 -1.1112  0.2216
10595TIP3    H253277   6.607   4.406  17.246  0.1040 -0.6899  0.4921
10596TIP3   OH253278   6.751   6.494  14.071  0.6156 -0.0810  0.2216
10596TIP3    H153279   6.754   6.449  13.987  1.4043 -0.2863  0.3562
10596TIP3    H253280   6.796   6.577  14.056  3.5102 -1.3497  1.1540
10597TIP3   OH253281   5.172   5.693  14.186 -0.0400 -0.0208 -0.0411
10597TIP3    H153282   5.099   5.637  14.215 -1.6200  2.2925  0.7707
10597TIP3    H253283   5.247   5.663  14.237 -0.2861 -2.7012 -1.1361
10598TIP3   OH253284   5.354   0.524   0.195  0.3708 -0.3130 -0.1217
10598TIP3    H153285   5.344   0.429   0.201  0.2697 -0.4450 -1.9208
10598TIP3    H253286   5.266   0.558   0.210  0.6047 -0.3895  1.6979
10599TIP3   OH253287   0.350   1.877   2.131  0.7221  0.3317 -0.3748
10599TIP3    H153288   0.265   1.836   2.113  0.9829 -0.1112 -0.6378
10599TIP3    H253289   0.412   1.803   2.135  0.7366  0.3787  2.2079
10600TIP3   OH253290   1.500   2.178  12.197 -0.5838  0.2331 -0.4840
10600TIP3    H153291   1.492   2.272  12.182  3.6803  0.9239  0.1195
10600TIP3    H253292   1.513   2.141  12.110  1.3528  0.8597 -0.5251
10601TIP3   OH253293   3.887   5.137   2.765  0.5722  0.4573  0.1546
10601TIP3    H153294   3.895   5.046   2.792  0.6592  0.3765 -0.1465
10601TIP3    H253295   3.874   5.185   2.847 -0.7990  0.0382  0.2167
10602TIP3   OH253296   0.528   5.967   0.751 -0.1599  0.0827 -0.1288
10602TIP3    H153297   0.575   5.956   0.669 -1.7697 -1.0160 -0.9602
10602TIP3    H253298   0.466   5.894   0.753 -2.5362  1.9761  0.3959
10603TIP3   OH253299   1.654   6.343   3.661  0.4884  0.1599 -0.6062
10603TIP3    H153300   1.688   6.427   3.693 -1.5224  1.3537 -1.4176
10603TIP3    H253301   1.572   6.331   3.708 -1.4539  0.8915 -3.5293
10604TIP3   OH253302   5.751   4.008  15.134  0.6224 -0.5327 -0.2930
10604TIP3    H153303   5.714   3.945  15.196  1.9340 -0.8480  0.2104
10604TIP3    H253304   5.739   3.967  15.048  1.2531 -1.4013  0.0078
10605TIP3   OH253305   0.105   1.444   5.767  0.4021  0.1181 -0.1190
10605TIP3    H153306   0.061   1.359   5.758  0.9719 -0.2593  0.5751
10605TIP3    H253307   0.116   1.475   5.677  1.5465 -1.2393 -0.4751
10606TIP3   OH253308   0.569   4.921   1.848 -0.2205  0.4517  0.2982
10606TIP3    H153309   0.551   5.005   1.891  0.7645  0.3550  0.9279
10606TIP3    H253310   0.598   4.945   1.760 -1.1325  0.7061  0.0548
10607TIP3   OH253311   1.702   2.764   2.969 -0.1815 -0.4023  0.0637
10607TIP3    H153312   1.697   2.744   2.876 -2.2396 -1.1440  0.2880
10607TIP3    H253313   1.700   2.860   2.973 -0.6955 -0.3757 -0.6447
10608TIP3   OH253314   2.007   1.420  11.743  0.1965 -0.3458  0.3991
10608TIP3    H153315   1.917   1.428  11.774  0.6103  1.5919  1.2090
10608TIP3    H253316   2.045   1.351  11.799 -1.2286 -2.5973 -1.2184
10609TIP3   OH253317   4.865   5.380   4.170  0.0897  0.3674  0.1251
10609TIP3    H153318   4.866   5.323   4.246  1.5556  0.5144  0.2561
10609TIP3    H253319   4.940   5.439   4.183 -1.0711  1.9999 -0.2437
10610TIP3   OH253320   6.142   3.232   4.954  0.1377 -0.5925  0.1283
10610TIP3    H153321   6.185   3.234   4.869  0.9512  0.4073  0.5298
10610TIP3    H253322   6.055   3.269   4.939  1.2530  2.3751  0.1702
10611TIP3   OH253323   2.128   5.690  11.083  0.5872 -0.1917  0.2668
10611TIP3    H153324   2.154   5.708  10.993 -0.2258  0.2809  0.1133
10611TIP3    H253325   2.209   5.661  11.126  0.5401 -2.6064 -1.1353
10612TIP3   OH253326   5.319   2.511   5.165 -0.0614  0.1613 -0.0946
10612TIP3    H153327   5.412   2.509   5.141 -0.4120  0.2397 -1.5947
10612TIP3    H253328   5.274   2.481   5.086 -1.2947 -0.3097  0.7623
10613TIP3   OH253329   5.913   2.619   1.163  0.0256  0.3093  0.0465
10613TIP3    H153330   5.936   2.711   1.148  1.1581  0.1039  0.4413
10613TIP3    H253331   5.995   2.571   1.150 -0.5290 -0.6452 -0.0631
10614TIP3   OH253332   0.386   0.861   1.517  0.0444  0.0190 -0.6442
10614TIP3    H153333   0.410   0.779   1.560  2.0462 -0.1289 -1.9453
10614TIP3    H253334   0.384   0.925   1.588  1.2893 -0.6122 -0.0084
10615TIP3   OH253335   5.854   1.060  16.215 -0.5745 -0.1096  0.0636
10615TIP3    H153336   5.822   1.010  16.141  0.4614  0.0972 -0.5408
10615TIP3    H253337   5.948   1.041  16.218 -0.6382 -0.3180  1.4811
10616TIP3   OH253338   0.469   6.268   5.944  0.4001  0.0161  0.1432
10616TIP3    H153339   0.474   6.175   5.920  0.5077  0.1657 -0.4131
10616TIP3    H253340   0.539   6.280   6.008  0.5022 -0.2407  0.0815
10617TIP3   OH253341   0.619   4.167  10.772  0.3207  0.0077 -0.0182
10617TIP3    H153342   0.664   4.189  10.690  0.0025 -2.4769 -0.9717
10617TIP3    H253343   0.586   4.250  10.805  1.7170  1.2852 -1.6426
10618TIP3   OH253344   3.439   0.805   2.269 -0.1894  0.1257 -0.0497
10618TIP3    H153345   3.391   0.807   2.352 -0.8823 -1.8096 -0.3578
10618TIP3    H253346   3.407   0.881   2.221 -2.7943 -0.9026 -0.1057
10619TIP3   OH253347   5.429   2.203   2.056 -0.0436  0.0691  0.3333
10619TIP3    H153348   5.394   2.115   2.070  0.8260 -0.3676 -0.1521
10619TIP3    H253349   5.381   2.258   2.118 -0.9570 -0.6518  0.2974
10620TIP3   OH253350   3.361   4.239  10.322 -0.1815 -0.4913  0.1045
10620TIP3    H153351   3.316   4.231  10.238  1.1444  1.4948 -0.8754
10620TIP3    H253352   3.447   4.200  10.307  0.3119  0.4842  0.2889
10621TIP3   OH253353   1.130   4.445  15.988  0.9038 -0.1719 -0.2169
10621TIP3    H153354   1.144   4.494  15.907 -0.6235 -1.7814 -1.5198
10621TIP3    H253355   1.097   4.510  16.049 -1.3658  0.4652 -1.9829
10622TIP3   OH253356   0.581   3.604   2.675 -0.0835 -0.0556  0.3713
10622TIP3    H153357   0.570   3.616   2.581  0.0801 -0.4830  0.2910
10622TIP3    H253358   0.494   3.583   2.707 -0.3272  1.0820  0.4804
10623TIP3   OH253359   2.281   1.362  15.936 -0.7148  0.4503  0.4554
10623TIP3    H153360   2.197   1.317  15.932 -0.8555  0.1577  3.5988
10623TIP3    H253361   2.274   1.433  15.872 -3.1719  0.1392  0.2828
10624TIP3   OH253362   4.681   5.819   5.093  0.2636 -0.6864  0.3722
10624TIP3    H153363   4.680   5.899   5.040  1.2883  0.1540  1.5843
10624TIP3    H253364   4.619   5.836   5.164 -0.5858 -1.5498 -0.1226
10625TIP3   OH253365   0.543   0.699   2.463 -0.2605 -0.1380  0.2857
10625TIP3    H153366   0.527   0.715   2.369  0.1350  0.0034  0.2422
10625TIP3    H253367   0.604   0.625   2.465  0.0579  0.1293  0.4231
10626TIP3   OH253368   4.749   3.799   5.707  0.7150  0.4656  0.2721
10626TIP3    H153369   4.795   3.795   5.791  1.3901 -2.1228 -0.1116
10626TIP3    H253370   4.818   3.814   5.642  0.1628  2.7430  0.1401
10627TIP3   OH253371   5.741   1.119   0.144  1.0649  0.5979 -0.1940
10627TIP3    H153372   5.731   1.115   0.239  0.7527 -0.7723 -0.2703
10627TIP3    H253373   5.820   1.067   0.126  0.0906 -0.7061 -0.8252
10628TIP3   OH253374   3.533   5.761  15.058 -0.0921  0.2316 -0.2410
10628TIP3    H153375   3.470   5.810  15.110 -0.8031 -0.6336 -0.2505
10628TIP3    H253376   3.523   5.794  14.969  1.1202  1.7084  0.1193
10629TIP3   OH253377   4.806   0.345  13.777  0.2293 -0.2748  0.0230
10629TIP3    H153378   4.872   0.300  13.724  0.9986  2.0936 -1.1634
10629TIP3    H253379   4.822   0.438  13.761 -1.5767  0.4417  1.9894
10630TIP3   OH253380   2.011   3.612   2.640  0.1997  0.3640 -0.4347
10630TIP3    H153381   2.041   3.586   2.728  0.5311  0.3279 -0.5562
10630TIP3    H253382   1.939   3.553   2.621 -1.9731  2.3283  1.0840
10631TIP3   OH253383   0.339   2.672  13.519 -0.3743 -0.1292 -0.2868
10631TIP3    H153384   0.324   2.579  13.535  0.0841  0.1775  2.3054
10631TIP3    H253385   0.424   2.689  13.559  0.8426  0.9265 -3.0228
10632TIP3   OH253386   3.799   0.849   3.719  0.0098  0.2298  0.1584
10632TIP3    H153387   3.824   0.940   3.702  0.4407  0.3778  1.5030
10632TIP3    H253388   3.802   0.807   3.633 -1.1575  1.7028 -0.6386
10633TIP3   OH253389   5.323   5.705  13.252 -0.3142 -0.5506 -0.4020
10633TIP3    H153390   5.237   5.704  13.294 -0.5808 -1.0441 -0.9379
10633TIP3    H253391   5.350   5.797  13.253 -0.6451 -0.4598  0.1716
10634TIP3   OH253392   4.295   5.506   0.689  0.0164  0.2572  0.0837
10634TIP3    H153393   4.338   5.421   0.688  0.5498  0.5147  0.4634
10634TIP3    H253394   4.367   5.569   0.681 -0.3805  0.6697 -0.3176
10635TIP3   OH253395   4.303   2.696  16.488  0.7438 -0.4141 -0.0453
10635TIP3    H153396   4.242   2.770  16.483  0.6799 -0.5444 -2.0571
10635TIP3    H253397   4.375   2.728  16.543 -0.2633  0.3735  0.8602
10636TIP3   OH253398   5.310   3.356  13.279 -0.6267  0.7678 -0.0371
10636TIP3    H153399   5.357   3.349  13.196 -1.0529 -1.5337 -0.1505
10636TIP3    H253400   5.366   3.412  13.333  0.3019  1.2404 -1.4405
10637TIP3   OH253401   6.211   1.951   5.904  0.5712 -0.0192 -0.4898
10637TIP3    H153402   6.283   1.957   5.967  1.5275  0.5612 -1.6061
10637TIP3    H253403   6.179   2.040   5.896 -0.2138 -0.2581 -0.0911
10638TIP3   OH253404   0.774   1.531  11.051 -0.3393  0.1252 -0.2832
10638TIP3    H153405   0.725   1.517  10.971 -1.1701  1.3090 -0.0142
10638TIP3    H253406   0.866   1.527  11.024 -0.5978 -0.2582 -1.1419
10639TIP3   OH253407   3.048   5.859   5.061 -0.0403  0.7835 -0.1011
10639TIP3    H153408   3.023   5.799   4.991  1.8608  2.7642 -2.6958
10639TIP3    H253409   3.141   5.844   5.074 -0.2940  0.6585  1.8964
10640TIP3   OH253410   5.974   5.480   1.187  0.3389  0.1284 -0.2134
10640TIP3    H153411   6.065   5.457   1.205  0.9280  1.6126 -1.0860
10640TIP3    H253412   5.979   5.545   1.117 -1.2871  1.4416  0.7888
10641TIP3   OH253413   0.056   4.855  11.869 -0.4334  0.2606 -0.3127
10641TIP3    H153414  -0.023   4.875  11.818  0.2944  1.3164 -1.0910
10641TIP3    H253415   0.096   4.941  11.886 -0.3769 -0.1074  1.6359
10642TIP3   OH253416   3.074   6.384  14.541  0.0768 -0.2280  0.1789
10642TIP3    H153417   3.081   6.435  14.460 -0.0340 -1.0084 -0.3242
10642TIP3    H253418   2.994   6.333  14.531 -0.3026  0.1698  1.0712
10643TIP3   OH253419   0.980   3.991   2.644  0.9514  0.0986 -0.7855
10643TIP3    H153420   0.932   3.909   2.633  2.5861 -0.8086 -1.6218
10643TIP3    H253421   1.027   4.002   2.561 -0.5830  2.8558 -1.4131
10644TIP3   OH253422   0.278   0.209   4.538  0.0299  0.2007  0.4752
10644TIP3    H153423   0.277   0.113   4.547  2.1697 -0.0035 -0.8499
10644TIP3    H253424   0.360   0.235   4.579 -0.9183  1.6172  1.5685
10645TIP3   OH253425   1.847   6.406  13.054  0.2027 -0.2897 -0.6508
10645TIP3    H153426   1.827   6.375  13.143 -0.7488  0.9825 -0.3914
10645TIP3    H253427   1.940   6.386  13.043  0.6341  0.5440  1.0844
10646TIP3   OH253428   3.854   6.548  13.540  0.1888 -0.0742 -0.6945
10646TIP3    H153429   3.852   6.456  13.567  0.2224  0.6956  2.2335
10646TIP3    H253430   3.766   6.566  13.507 -0.8746 -0.4064  1.7542
10647TIP3   OH253431   3.764   3.362  15.263  0.3052 -0.1536  0.3263
10647TIP3    H153432   3.822   3.418  15.213  1.3784 -0.2485  1.4123
10647TIP3    H253433   3.681   3.409  15.266  0.9303  0.9575  0.4777
10648TIP3   OH253434   6.526   5.261  11.604 -0.4139 -0.3670 -0.3702
10648TIP3    H153435   6.471   5.337  11.588  2.5044  1.8461 -0.7797
10648TIP3    H253436   6.595   5.266  11.538  1.1306 -2.0773  0.9670
10649TIP3   OH253437   0.717   2.912  12.706 -0.2153  0.2010  0.0024
10649TIP3    H153438   0.802   2.954  12.715  0.3903 -0.8003 -0.9116
10649TIP3    H253439   0.724   2.831  12.757 -0.9582  0.5543  0.7117
10650TIP3   OH253440   2.840   1.641   2.344 -0.1650  0.3927 -0.1991
10650TIP3    H153441   2.869   1.584   2.274 -2.1215  0.2632 -0.9771
10650TIP3    H253442   2.801   1.716   2.300 -2.1367 -0.0502  0.6756
10651TIP3   OH253443   1.555   1.239  15.115 -0.4288 -0.0304  0.5859
10651TIP3    H153444   1.555   1.270  15.024 -0.9069 -2.1086 -0.1782
10651TIP3    H253445   1.462   1.227  15.136 -0.2893 -0.1610  1.1329
10652TIP3   OH253446   4.800   0.252  11.833 -0.2451  0.1897 -1.2672
10652TIP3    H153447   4.738   0.313  11.872  0.3843  0.3805 -0.5423
10652TIP3    H253448   4.746   0.185  11.791 -0.9309  0.5925 -1.0290
10653TIP3   OH253449   5.941   1.833   3.311  0.1023  0.2938  0.5861
10653TIP3    H153450   5.971   1.747   3.282  1.1826  0.6208  0.6824
10653TIP3    H253451   5.873   1.814   3.376 -1.6088 -0.4622 -1.2937
10654TIP3   OH253452   2.180   6.157  10.794 -0.6243 -0.3574 -0.3706
10654TIP3    H153453   2.103   6.203  10.759 -1.3222 -0.5801  0.8320
10654TIP3    H253454   2.166   6.155  10.888 -0.1663 -2.2197 -0.3023
10655TIP3   OH253455   5.004   6.095   4.698 -0.0994 -0.3041  0.3077
10655TIP3    H153456   4.917   6.081   4.661  0.0194 -1.8291  0.5543
10655TIP3    H253457   5.053   6.017   4.674  1.2378  0.5592  0.1235
10656TIP3   OH253458   1.857   2.441   4.805  0.2402  0.4707  0.3994
10656TIP3    H153459   1.865   2.377   4.734 -0.9001 -0.7115  1.3027
10656TIP3    H253460   1.791   2.502   4.774  0.1265  0.2619  0.2249
10657TIP3   OH253461   1.616   5.889   0.675  0.9571 -0.0654 -0.0526
10657TIP3    H153462   1.599   5.983   0.684  1.9336  0.1613 -0.4841
10657TIP3    H253463   1.679   5.883   0.603 -0.6754 -1.2112 -1.4781
10658TIP3   OH253464   6.388   4.382  10.947  0.4550  0.4048  0.3826
10658TIP3    H153465   6.399   4.287  10.954 -0.5722  0.3713  2.2593
10658TIP3    H253466   6.309   4.393  10.894  0.4627  0.2038  0.3288
10659TIP3   OH253467   2.708   3.404  12.560  0.5742 -0.2225  0.7200
10659TIP3    H153468   2.766   3.479  12.553  1.8941 -1.2852 -0.3128
10659TIP3    H253469   2.621   3.438  12.540  1.1776  0.9802  0.0763
10660TIP3   OH253470   3.184   5.279   6.289  0.1252  0.4665  0.1352
10660TIP3    H153471   3.136   5.199   6.309 -0.0502  0.7729  0.9895
10660TIP3    H253472   3.162   5.339   6.361  0.8616  1.0137 -0.0837
10661TIP3   OH253473   6.575   3.513   4.596 -0.3932 -0.4949  0.2875
10661TIP3    H153474   6.574   3.545   4.686  1.0192 -1.8853  0.8395
10661TIP3    H253475   6.628   3.577   4.548  0.7073 -0.9024  0.9372
10662TIP3   OH253476   1.820   5.082  14.326  0.1747 -0.0270  0.5020
10662TIP3    H153477   1.780   4.995  14.321  0.0670  0.0787 -2.0037
10662TIP3    H253478   1.770   5.135  14.264  2.6335  0.7256 -1.0095
10663TIP3   OH253479   3.955   3.043   2.506 -0.2374 -0.1228 -0.2020
10663TIP3    H153480   4.033   3.096   2.488 -0.2505 -0.3100 -0.8448
10663TIP3    H253481   3.882   3.102   2.490 -0.2296  0.0421  0.3650
10664TIP3   OH253482   4.543   3.401   1.068 -0.0642 -0.9551 -0.0114
10664TIP3    H153483   4.495   3.410   0.985  1.0630  2.3346 -0.4608
10664TIP3    H253484   4.478   3.420   1.135  0.2870  3.4661 -0.6176
10665TIP3   OH253485   1.774   3.521  16.673 -0.1880  0.3871  0.7228
10665TIP3    H153486   1.784   3.589  16.606 -0.6240 -0.8978 -0.6943
10665TIP3    H253487   1.692   3.477  16.650 -1.3910  1.0895  3.2298
10666TIP3   OH253488   1.049   1.078  11.500  0.0909 -0.1213 -0.3011
10666TIP3    H153489   1.143   1.095  11.503  0.0658 -0.0608  0.3066
10666TIP3    H253490   1.018   1.130  11.426  0.2110  1.5194  0.7521
10667TIP3   OH253491   5.044   3.795  12.953 -0.4810  0.1100  0.1265
10667TIP3    H153492   4.978   3.748  12.902  1.4713 -2.6883 -0.0350
10667TIP3    H253493   4.998   3.819  13.034 -2.4561  0.9279 -1.1387
10668TIP3   OH253494   0.564   2.163  12.219  0.2197  0.5144  0.2485
10668TIP3    H153495   0.485   2.216  12.231 -1.3359 -1.7015  0.4013
10668TIP3    H253496   0.540   2.102  12.149  2.2407  0.5267 -0.5059
10669TIP3   OH253497   0.817   1.956   5.099 -0.3294  0.6692 -0.2988
10669TIP3    H153498   0.896   1.985   5.054  1.0106 -2.3362 -0.0854
10669TIP3    H253499   0.840   1.957   5.192 -0.4474 -0.3719 -0.2450
10670TIP3   OH253500   3.169   2.940  12.817  0.2325  0.5566  0.4164
10670TIP3    H153501   3.180   2.868  12.879  0.0802  0.4495  0.3206
10670TIP3    H253502   3.222   3.011  12.853 -0.2579  0.6632  0.9319
10671TIP3   OH253503   2.917   2.172   4.856  0.1805  0.2220 -0.4146
10671TIP3    H153504   2.997   2.179   4.908 -0.6021 -0.3831  0.9129
10671TIP3    H253505   2.846   2.171   4.920 -0.9707  1.5595 -1.5976
10672TIP3   OH253506   4.744   4.829   1.072 -0.0833 -0.4431 -0.1400
10672TIP3    H153507   4.659   4.789   1.055 -0.4332 -0.6405  1.8555
10672TIP3    H253508   4.800   4.755   1.097  0.5124 -0.2230 -0.7808
10673TIP3   OH253509   2.798   3.841  13.916 -0.0070 -0.3278 -0.6500
10673TIP3    H153510   2.790   3.801  13.829 -1.8278 -2.2929  0.3431
10673TIP3    H253511   2.719   3.894  13.926  0.9100  1.1163 -0.7200
10674TIP3   OH253512   2.793   1.563  14.394 -0.1901  0.2246  0.7187
10674TIP3    H153513   2.808   1.568  14.488 -2.1209  0.3464  1.0567
10674TIP3    H253514   2.737   1.638  14.374 -1.4281 -0.8866 -0.1581
10675TIP3   OH253515   6.028   6.038   2.545  0.2228 -0.0956 -0.4258
10675TIP3    H153516   5.934   6.049   2.561 -0.1514 -2.3633 -0.7752
10675TIP3    H253517   6.068   6.043   2.631 -0.4493 -1.0002 -0.0542
10676TIP3   OH253518   5.376   0.225  16.359 -0.3782 -0.2647  0.3703
10676TIP3    H153519   5.469   0.214  16.339 -0.7779 -0.2465 -1.6879
10676TIP3    H253520   5.364   0.319  16.366 -0.2168 -0.2754  0.8404
10677TIP3   OH253521   4.556   2.757   6.213  0.5996  0.2750  0.2288
10677TIP3    H153522   4.473   2.797   6.188  0.9878  1.6107  1.0020
10677TIP3    H253523   4.536   2.711   6.295 -0.2202 -2.5512 -1.3990
10678TIP3   OH253524   2.315   1.134   2.336  0.0602  0.0075  0.1593
10678TIP3    H153525   2.319   1.138   2.431  1.0464 -0.5987  0.1541
10678TIP3    H253526   2.358   1.051   2.313  0.8992  0.7025 -0.8692
10679TIP3   OH253527   1.056   6.349  15.771  0.5175 -0.3516 -0.1884
10679TIP3    H153528   1.039   6.265  15.814  0.3657  0.4873  1.4736
10679TIP3    H253529   1.105   6.327  15.692 -0.5588 -2.0905 -0.4056
10680TIP3   OH253530   2.934   2.883  14.032  0.0901  0.0930  0.6178
10680TIP3    H153531   2.915   2.964  14.080  2.5337  1.1300 -0.0267
10680TIP3    H253532   2.926   2.908  13.940 -0.1539 -0.6898  0.4217
10681TIP3   OH253533   3.693   6.305   6.440 -0.4590  0.2004  0.1519
10681TIP3    H153534   3.680   6.394   6.475  0.8739  0.6978 -0.5449
10681TIP3    H253535   3.787   6.291   6.443 -0.6056 -0.9939 -0.2422
10682TIP3   OH253536   5.079   6.668  16.640  0.6054  0.0194 -0.1989
10682TIP3    H153537   5.036   6.582  16.647  0.3940  0.1824  0.5019
10682TIP3    H253538   5.011   6.726  16.606 -0.1466  0.5567  2.0409
10683TIP3   OH253539   0.261   3.564  12.198  0.4286 -0.2494 -0.5237
10683TIP3    H153540   0.276   3.611  12.281  1.8454 -0.6687 -0.5262
10683TIP3    H253541   0.172   3.529  12.207  1.1469 -1.7827  1.6072
10684TIP3   OH253542   2.058   1.950  16.508 -0.3902 -0.4832 -0.1660
10684TIP3    H153543   2.090   1.860  16.501  1.4068 -0.1324  2.1504
10684TIP3    H253544   2.138   2.003  16.512 -1.4122  1.3072 -1.8728
10685TIP3   OH253545   4.853   1.830  13.813 -0.5236  0.3460 -0.0424
10685TIP3    H153546   4.884   1.776  13.886  1.1947 -2.4700 -2.6260
10685TIP3    H253547   4.771   1.788  13.787 -0.1304  0.1269 -0.9308
10686TIP3   OH253548   5.020   1.365  11.495  0.2574 -0.3114  0.0085
10686TIP3    H153549   5.046   1.362  11.587 -3.3854  1.3282  1.2792
10686TIP3    H253550   4.962   1.289  11.484  1.0377 -0.7779 -1.1549
10687TIP3   OH253551   4.909   3.511  16.627  0.8445 -0.9498 -0.0633
10687TIP3    H153552   4.847   3.441  16.606  0.4100 -0.8086  0.7041
10687TIP3    H253553   4.994   3.467  16.634  0.6869 -1.2868 -0.2732
10688TIP3   OH253554   1.610   4.562  17.304 -0.4153  0.1576  0.5135
10688TIP3    H153555   1.523   4.521  17.301  0.3648 -1.7577  1.8518
10688TIP3    H253556   1.664   4.505  17.249 -0.0275  1.4993 -0.5460
10689TIP3   OH253557   2.638   0.682  11.363 -0.1326 -0.0919  0.3582
10689TIP3    H153558   2.602   0.614  11.420  1.1615 -1.4057 -0.3249
10689TIP3    H253559   2.690   0.738  11.421  0.1548 -0.6755  0.6692
10690TIP3   OH253560   3.534   1.795  14.022  0.1258 -0.6132 -0.2000
10690TIP3    H153561   3.587   1.849  14.081  0.3906 -1.2405  0.1375
10690TIP3    H253562   3.594   1.767  13.953 -0.3630  0.7917 -1.2507
10691TIP3   OH253563   0.527   4.692   5.296  0.3929  0.3114  0.3855
10691TIP3    H153564   0.511   4.598   5.304 -0.6080  0.1531 -2.2905
10691TIP3    H253565   0.445   4.728   5.260  1.0646  2.0471  0.4592
10692TIP3   OH253566   3.848   0.055  17.143  0.2762 -0.1070  0.5978
10692TIP3    H153567   3.891  -0.023  17.108  3.2603  0.5963  2.3785
10692TIP3    H253568   3.875   0.126  17.085 -1.4483 -0.1379 -0.3101
10693TIP3   OH253569   0.786   4.012  10.909  0.2430  0.0347  0.6905
10693TIP3    H153570   0.853   4.042  10.848  0.7144 -1.6511  0.3223
10693TIP3    H253571   0.710   4.068  10.891  0.6692  0.1726 -0.8089
10694TIP3   OH253572   6.317   6.000   4.935  0.5570 -0.5171 -0.6391
10694TIP3    H153573   6.350   6.043   5.014  2.1039  0.9585 -2.0110
10694TIP3    H253574   6.251   6.059   4.901 -1.0009 -1.7378  0.1516
10695TIP3   OH253575   3.790   5.671   1.281 -0.1007 -0.4677  0.1839
10695TIP3    H153576   3.749   5.747   1.323  1.1533  0.9913 -1.0876
10695TIP3    H253577   3.790   5.603   1.349 -2.1490  0.3126  1.0543
10696TIP3   OH253578   4.262   2.371   4.811 -0.0901 -0.5445  0.1682
10696TIP3    H153579   4.168   2.392   4.814 -0.1270 -0.3924 -1.3829
10696TIP3    H253580   4.266   2.284   4.771  0.5072  0.3087 -1.7212
10697TIP3   OH253581   3.518   3.481   5.432 -0.0610  0.4835  0.6118
10697TIP3    H153582   3.570   3.561   5.441 -0.0478  0.5854 -0.2636
10697TIP3    H253583   3.570   3.425   5.373 -1.5061  1.1039 -1.3338
10698TIP3   OH253584   6.123   0.997  13.136  0.2593 -0.0155 -0.4116
10698TIP3    H153585   6.218   1.005  13.128  0.3595 -0.2102  0.4654
10698TIP3    H253586   6.103   1.028  13.225 -0.4431 -0.3916 -0.4264
10699TIP3   OH253587   6.373   4.423   2.287  0.2050  0.4870 -0.1333
10699TIP3    H153588   6.399   4.351   2.345  0.3142  1.6244  1.3156
10699TIP3    H253589   6.283   4.403   2.263  1.1059 -1.5499 -2.0905
10700TIP3   OH253590   5.612   5.606   5.645 -0.1583  0.5743  0.9635
10700TIP3    H153591   5.626   5.657   5.725  3.8867  0.8889  0.2648
10700TIP3    H253592   5.677   5.536   5.649 -2.4052 -1.7871 -0.3682
10701TIP3   OH253593   3.726   6.506   0.883  0.4658 -0.1053  0.5013
10701TIP3    H153594   3.803   6.456   0.853  1.1259 -0.5405  2.7264
10701TIP3    H253595   3.736   6.591   0.842 -0.1429 -1.3908 -2.5969
10702TIP3   OH253596   6.415   3.824  14.152 -0.4343 -0.9412  0.8774
10702TIP3    H153597   6.372   3.867  14.078  0.8300  0.9488  1.1736
10702TIP3    H253598   6.474   3.760  14.111  0.0964 -0.0666  0.2418
10703TIP3   OH253599   6.801   4.846  15.305  0.3318 -0.2533 -0.1389
10703TIP3    H153600   6.839   4.933  15.314 -1.5089  0.5516  0.2703
10703TIP3    H253601   6.739   4.854  15.233 -1.1655 -0.7038  1.0466
10704TIP3   OH253602   4.959   2.396   6.339  0.2354 -0.0539  0.2122
10704TIP3    H153603   4.879   2.448   6.349 -0.6055 -1.2451 -0.0241
10704TIP3    H253604   4.972   2.355   6.425  0.0789 -0.5323  0.0158
10705TIP3   OH253605   5.161   3.074   6.635 -0.1058  0.1883  0.0679
10705TIP3    H153606   5.098   3.005   6.656 -0.9211  0.7501 -0.4763
10705TIP3    H253607   5.202   3.095   6.719 -0.3730 -0.4479  0.3620
10706TIP3   OH253608   0.931   4.357  11.936  0.0157  0.1960 -0.1643
10706TIP3    H153609   1.017   4.399  11.931  0.4242 -0.5861  0.0293
10706TIP3    H253610   0.947   4.278  11.989 -0.6526 -0.3725 -0.8031
10707TIP3   OH253611   4.818   0.142  14.283 -0.4677  0.0906  0.4898
10707TIP3    H153612   4.757   0.085  14.236  0.1062  0.1439 -0.3372
10707TIP3    H253613   4.880   0.081  14.323  0.6777  0.1373 -1.1367
10708TIP3   OH253614   4.247   2.942  15.181 -0.1243  0.3247  0.0986
10708TIP3    H153615   4.249   3.035  15.159  0.0869  0.0422 -1.1746
10708TIP3    H253616   4.279   2.898  15.102  1.2675 -0.7485  1.2082
10709TIP3   OH253617   1.986   0.498   2.011 -0.0602 -0.3666  0.4126
10709TIP3    H153618   1.942   0.527   2.091 -0.8791 -2.5931  0.8327
10709TIP3    H253619   2.018   0.579   1.971  0.7110  0.7925  3.1586
10710TIP3   OH253620   1.087   3.992  12.583 -0.0603  0.7776 -0.5245
10710TIP3    H153621   1.112   3.920  12.641  1.2464  0.4267 -1.4707
10710TIP3    H253622   0.994   3.979  12.567 -0.6509  1.3409  2.0729
10711TIP3   OH253623   0.426   6.758  12.982 -0.0478 -0.0106 -0.2260
10711TIP3    H153624   0.438   6.831  12.922 -0.0989 -0.2846 -0.5692
10711TIP3    H253625   0.361   6.702  12.940  0.3088 -0.4748 -0.1711
10712TIP3   OH253626   3.634   1.646  11.701  0.0520 -0.3109  0.0551
10712TIP3    H153627   3.589   1.728  11.682  0.2610 -0.6865 -2.4222
10712TIP3    H253628   3.566   1.587  11.733 -0.5383  0.1651 -0.3220
10713TIP3   OH253629   5.169   3.730   6.765  0.1023 -0.2551  0.1177
10713TIP3    H153630   5.082   3.735   6.725  0.5562 -1.7840 -1.2090
10713TIP3    H253631   5.220   3.678   6.703  2.0957  0.9392  0.6729
10714TIP3   OH253632   3.782   2.039  13.494 -0.4909 -0.0843  0.2816
10714TIP3    H153633   3.848   1.980  13.457 -1.2550 -0.6156 -0.2741
10714TIP3    H253634   3.791   2.120  13.445  2.6082  1.4432  3.0150
10715TIP3   OH253635   1.194   3.466  17.232 -0.2845 -0.1430  0.5499
10715TIP3    H153636   1.229   3.546  17.194 -2.6836 -0.0792 -1.8227
10715TIP3    H253637   1.265   3.403  17.225  0.3028  0.6677 -1.5662
10716TIP3   OH253638   4.564   3.989   5.628  0.4969 -0.1149  0.2518
10716TIP3    H153639   4.624   3.917   5.648 -0.9689 -1.6067 -0.5239
10716TIP3    H253640   4.591   4.020   5.542 -1.5301 -2.7299 -1.4621
10717TIP3   OH253641   5.463   2.267  14.734  0.6445  0.1186  0.6830
10717TIP3    H153642   5.500   2.196  14.787 -2.9485 -3.1471 -0.7089
10717TIP3    H253643   5.393   2.302  14.789 -0.1788 -0.2102 -0.1380
10718TIP3   OH253644   0.416   2.970   6.705 -0.9406 -0.3783 -0.3076
10718TIP3    H153645   0.340   3.027   6.710 -1.4231 -0.8911 -1.4348
10718TIP3    H253646   0.450   2.983   6.616 -0.7546 -1.4401 -0.4056
10719TIP3   OH253647   0.073   2.963   1.570  0.4908 -0.0379  0.1374
10719TIP3    H153648   0.027   3.018   1.507  2.0986 -0.0282 -1.0833
10719TIP3    H253649   0.166   2.975   1.550  1.0524 -0.3407  2.2673
10720TIP3   OH253650   0.553   5.365   0.221  0.0516  0.7107  0.0520
10720TIP3    H153651   0.458   5.362   0.204 -0.0466  0.1938  0.6350
10720TIP3    H253652   0.572   5.280   0.263  0.6501  1.0873  0.5574
10721TIP3   OH253653   2.922   4.616  12.388  0.7296  0.2383 -0.3142
10721TIP3    H153654   2.931   4.667  12.468  1.0569  0.5029 -0.5172
10721TIP3    H253655   2.921   4.525  12.418  0.9018  0.3330 -0.0153
10722TIP3   OH253656   6.089   6.561  15.414  0.3380 -0.2964  0.5072
10722TIP3    H153657   6.176   6.600  15.408  0.2328 -0.0481  0.6045
10722TIP3    H253658   6.042   6.596  15.338  0.8398 -1.7329 -0.5087
10723TIP3   OH253659   1.733   1.763  15.785  0.1583 -0.1056 -0.1189
10723TIP3    H153660   1.816   1.717  15.797  1.1624  1.7832  0.6100
10723TIP3    H253661   1.690   1.716  15.714  2.1296 -0.7978 -0.9336
10724TIP3   OH253662   5.789   4.294  15.110 -0.5370 -0.0560  0.2766
10724TIP3    H153663   5.847   4.294  15.034 -2.5608  1.3627 -1.3767
10724TIP3    H253664   5.746   4.209  15.107 -0.2938 -0.1772  0.1257
10725TIP3   OH253665   6.220   1.962  12.542  0.4371 -0.3407  0.5088
10725TIP3    H153666   6.310   1.944  12.570  0.0669 -1.9848  0.7189
10725TIP3    H253667   6.213   1.921  12.456 -0.3790 -1.0073  0.8867
10726TIP3   OH253668   5.890   4.008   0.222 -0.7289 -0.4762 -0.6066
10726TIP3    H153669   5.933   3.939   0.172  0.1757 -1.7292  1.7044
10726TIP3    H253670   5.955   4.034   0.288 -1.7301  1.2706 -0.2345
10727TIP3   OH253671   0.732   4.594  14.942 -0.0151 -0.4039  0.4815
10727TIP3    H153672   0.757   4.521  14.885  0.0667 -0.2271  0.2875
10727TIP3    H253673   0.720   4.554  15.028  1.5435 -0.4170  0.7344
10728TIP3   OH253674   4.519   0.068   0.631 -0.5840  0.4187  0.4665
10728TIP3    H153675   4.445   0.128   0.631  0.1350  1.3468  1.3026
10728TIP3    H253676   4.490  -0.007   0.682 -1.2932  0.2957 -0.1003
10729TIP3   OH253677   5.572   4.471   1.888  0.0146  0.3443  0.4827
10729TIP3    H153678   5.536   4.382   1.888 -0.1496  0.3820 -1.3723
10729TIP3    H253679   5.650   4.465   1.832  1.9121  0.6908  2.9115
10730TIP3   OH253680   4.225   6.317  12.901 -0.2907  0.3729 -0.3337
10730TIP3    H153681   4.188   6.401  12.928 -1.4936  0.3529 -1.7674
10730TIP3    H253682   4.172   6.251  12.946  0.4571  0.3496  0.5502
10731TIP3   OH253683   5.015   5.236   4.914 -0.1798  0.1386  0.6478
10731TIP3    H153684   5.083   5.226   4.980  0.6680  0.9198 -0.0629
10731TIP3    H253685   5.052   5.298   4.851 -1.1514 -0.2010 -0.2992
10732TIP3   OH253686   6.267   5.771  15.449 -0.1495 -0.6671 -0.3498
10732TIP3    H153687   6.197   5.728  15.498  0.1453  0.3550  1.0178
10732TIP3    H253688   6.342   5.772  15.508  1.2715 -2.2333 -1.9799
10733TIP3   OH253689   0.196   6.199   5.477 -0.0771 -0.1122  0.2665
10733TIP3    H153690   0.289   6.191   5.458  0.0088  0.3422  0.4627
10733TIP3    H253691   0.187   6.173   5.569 -0.0722  0.2480  0.3734
10734TIP3   OH253692   4.841   2.831  15.690 -0.0083  0.0960  0.4621
10734TIP3    H153693   4.807   2.874  15.612 -0.0994 -0.4486  0.1954
10734TIP3    H253694   4.935   2.844  15.686 -0.2168  3.3707  2.2340
10735TIP3   OH253695   2.847   4.707   3.912 -0.4326 -0.1053  0.2870
10735TIP3    H153696   2.872   4.798   3.900  0.5393 -0.2483  1.0663
10735TIP3    H253697   2.768   4.710   3.965 -0.2106  0.2779  0.5988
10736TIP3   OH253698   4.687   2.627  15.777 -0.2770  0.1738 -0.9810
10736TIP3    H153699   4.652   2.665  15.858  2.0770 -0.5363  0.4675
10736TIP3    H253700   4.728   2.701  15.732  1.8313 -0.0531  0.4568
10737TIP3   OH253701   5.854   5.440  13.850 -0.1069 -0.4475  0.0276
10737TIP3    H153702   5.840   5.535  13.853 -0.1852 -0.4538  3.4366
10737TIP3    H253703   5.948   5.430  13.832 -0.4311  0.1197 -2.4045
10738TIP3   OH253704   3.582   3.617  15.550  0.3164 -0.2473 -0.2637
10738TIP3    H153705   3.565   3.579  15.636  0.5102  1.1955  0.4314
10738TIP3    H253706   3.577   3.712  15.563 -1.8709  0.0147 -2.2815
10739TIP3   OH253707   1.744   2.550   2.282 -0.2042  0.7350  0.8135
10739TIP3    H153708   1.815   2.488   2.297  0.6058  0.8285 -2.0073
10739TIP3    H253709   1.766   2.625   2.336  1.2979  0.3475  0.7848
10740TIP3   OH253710   6.117   0.253   1.936  0.2543  0.7012 -0.1439
10740TIP3    H153711   6.072   0.271   2.019 -0.5431  0.3905 -0.4944
10740TIP3    H253712   6.186   0.191   1.960 -1.5788 -1.4574 -0.0627
10741TIP3   OH253713   0.317   6.195  13.305 -0.3638  0.2878 -0.4080
10741TIP3    H153714   0.292   6.104  13.293  2.4179 -0.5488 -0.5424
10741TIP3    H253715   0.328   6.204  13.400  1.7752 -0.2968 -0.5563
10742TIP3   OH253716   6.669   2.763   3.851 -0.1638 -0.2014 -0.2046
10742TIP3    H153717   6.716   2.694   3.898 -0.6883  0.5915  1.5654
10742TIP3    H253718   6.737   2.814   3.809  0.4725  0.0355  1.0702
10743TIP3   OH253719   3.847   4.638   0.212  0.2335 -0.2619  0.4951
10743TIP3    H153720   3.834   4.657   0.305 -0.7469  0.2301  0.2743
10743TIP3    H253721   3.760   4.650   0.173  0.9759  1.4167 -0.8003
10744TIP3   OH253722   3.917   0.042  16.623  0.4995  0.2673 -0.1746
10744TIP3    H153723   3.910   0.100  16.699  1.3837  2.3188 -1.5594
10744TIP3    H253724   3.962   0.095  16.557 -0.3266 -1.3971 -2.1751
10745TIP3   OH253725   4.760   5.867  12.040  0.3979 -0.4894  0.7469
10745TIP3    H153726   4.795   5.789  11.998  1.0954  0.5170 -0.6500
10745TIP3    H253727   4.670   5.872  12.009  0.3562 -0.7367  0.8284
10746TIP3   OH253728   3.972   4.342   2.424  0.2136  0.2838 -0.4926
10746TIP3    H153729   3.901   4.282   2.447 -0.5053  1.1414 -0.4497
10746TIP3    H253730   4.041   4.322   2.487  0.7548 -1.7963 -1.6267
10747TIP3   OH253731   1.079   1.818   3.862  0.4168  0.1162 -0.0765
10747TIP3    H153732   1.016   1.821   3.789 -0.4717  0.5668  0.6927
10747TIP3    H253733   1.165   1.818   3.819 -0.0802 -1.2930 -1.1874
10748TIP3   OH253734   5.890   0.327   0.073  0.0725  0.6811 -0.0374
10748TIP3    H153735   5.810   0.311   0.124  0.2755  2.5334  0.9349
10748TIP3    H253736   5.858   0.347  -0.015 -0.3601 -1.0530 -0.3252
10749TIP3   OH253737   2.666   3.742   4.318 -0.5556 -0.8456  0.3934
10749TIP3    H153738   2.661   3.744   4.223  0.4764 -0.8033  0.3317
10749TIP3    H253739   2.729   3.811   4.341  1.4233 -2.7100  0.9030
10750TIP3   OH253740   4.547   4.228   4.250  0.3098  0.0174  0.7508
10750TIP3    H153741   4.588   4.193   4.329 -1.2512 -0.0878  1.5578
10750TIP3    H253742   4.462   4.184   4.245 -0.4698  1.4985  0.1495
10751TIP3   OH253743   3.197   5.046   1.641  0.0837  0.1366 -0.0691
10751TIP3    H153744   3.280   5.093   1.627  1.2374 -1.0478  2.3044
10751TIP3    H253745   3.200   4.973   1.579  1.8152 -1.0438  1.3165
10752TIP3   OH253746   4.679   0.814  13.476 -0.5263 -0.5651  0.2284
10752TIP3    H153747   4.621   0.881  13.512 -1.8581 -1.2497 -0.5522
10752TIP3    H253748   4.653   0.807  13.384  0.6078 -1.1006 -0.0664
10753TIP3   OH253749   2.088   4.576  13.180 -0.0803 -0.1721  0.3539
10753TIP3    H153750   2.138   4.551  13.102 -0.4709 -0.0648  0.0688
10753TIP3    H253751   2.065   4.667  13.165  3.3474  1.2426  2.4256
10754TIP3   OH253752   2.016   5.667  13.245 -0.4599 -0.1043 -0.0114
10754TIP3    H153753   1.933   5.656  13.199 -0.2222  2.0511 -1.0626
10754TIP3    H253754   1.992   5.695  13.333 -0.9321  2.6693 -0.9234
10755TIP3   OH253755   5.166   6.421   4.346 -0.6124 -0.0323 -0.0535
10755TIP3    H153756   5.114   6.407   4.426  1.8240 -0.5954  1.5546
10755TIP3    H253757   5.202   6.509   4.357 -0.3687 -0.0652 -0.6046
10756TIP3   OH253758   1.717   5.714  13.836  0.2171  0.0714 -0.3071
10756TIP3    H153759   1.806   5.727  13.867  0.0518  1.6774 -0.4188
10756TIP3    H253760   1.704   5.619  13.839  0.8101 -0.0177  2.7861
10757TIP3   OH253761   3.215   6.739   3.124  0.1995 -0.7715 -0.3956
10757TIP3    H153762   3.241   6.686   3.198  0.4126 -0.4556 -0.2390
10757TIP3    H253763   3.216   6.829   3.157  1.2723 -0.5222 -1.0294
10758TIP3   OH253764   4.838   5.631   4.995  0.1198  0.2401 -0.1664
10758TIP3    H153765   4.775   5.678   5.049  0.0996  0.6543 -0.5391
10758TIP3    H253766   4.923   5.667   5.019  0.4685 -1.7172  1.7872
10759TIP3   OH253767   3.490   0.953  15.259  0.0021  0.2652  0.9292
10759TIP3    H153768   3.420   1.016  15.273 -1.1990 -0.2462 -1.9817
10759TIP3    H253769   3.570   1.005  15.260 -0.7551  1.4738  0.7039
10760TIP3   OH253770   2.802   0.463  14.817  0.4662  0.2554  0.0155
10760TIP3    H153771   2.789   0.379  14.775 -3.9452  0.0505  1.2905
10760TIP3    H253772   2.834   0.441  14.905 -2.3090 -0.3575  0.9511
10761TIP3   OH253773   0.163   6.047  15.411  0.1079  0.2604  0.0377
10761TIP3    H153774   0.125   5.970  15.455 -0.2947  0.0195 -0.7174
10761TIP3    H253775   0.089   6.107  15.401 -0.1693 -0.3266 -1.7038
10762TIP3   OH253776   4.029   6.715   1.533 -0.3619  0.1191  0.5713
10762TIP3    H153777   4.014   6.803   1.568  3.0105  1.4848 -0.9977
10762TIP3    H253778   4.075   6.669   1.602  3.0022  1.6122 -0.4742
10763TIP3   OH253779   4.993   4.331   3.176 -0.4171  0.1935  0.5748
10763TIP3    H153780   4.952   4.332   3.090 -2.6756  0.0328  1.5572
10763TIP3    H253781   5.084   4.306   3.160 -0.0734  2.6466 -1.9814
10764TIP3   OH253782   0.315   5.179   2.871  0.0587  0.3347 -0.0419
10764TIP3    H153783   0.230   5.138   2.883 -0.0170  0.1146 -1.2392
10764TIP3    H253784   0.378   5.111   2.892 -0.0580  0.3975  0.5201
10765TIP3   OH253785   0.737   0.212  12.735  0.8226 -0.2956 -0.0643
10765TIP3    H153786   0.706   0.122  12.720  0.0501 -0.2983  1.4460
10765TIP3    H253787   0.796   0.205  12.809  0.4305  0.5065  0.3344
10766TIP3   OH253788   3.240   3.270   4.009 -0.3980  0.2210  0.0315
10766TIP3    H153789   3.314   3.226   3.968  0.5088  0.4072  1.4211
10766TIP3    H253790   3.228   3.350   3.958  0.6910  0.4390  0.1008
10767TIP3   OH253791   2.293   4.918  15.361 -0.5028 -0.1280  0.1173
10767TIP3    H153792   2.256   4.892  15.446 -0.7689 -2.1730 -0.5643
10767TIP3    H253793   2.345   4.843  15.334  0.4499  0.9220 -1.0598
10768TIP3   OH253794   1.552   2.868   1.218 -0.0362 -0.0032 -0.2584
10768TIP3    H153795   1.559   2.819   1.136  2.0876 -0.0732 -0.1077
10768TIP3    H253796   1.643   2.890   1.240 -0.4112 -0.8421  2.5735
10769TIP3   OH253797   3.797   5.984  16.351 -0.0949  0.0280  0.2977
10769TIP3    H153798   3.856   5.930  16.297 -0.0131  0.6227 -0.2267
10769TIP3    H253799   3.710   5.951  16.331 -0.1745  1.0149 -1.1457
10770TIP3   OH253800   0.438   2.924   3.020  0.0089 -0.0854  0.4129
10770TIP3    H153801   0.523   2.885   3.043 -0.7537 -0.5125  2.6991
10770TIP3    H253802   0.373   2.866   3.059 -1.4431 -0.2331 -2.0062
10771TIP3   OH253803   4.993   0.112   4.690  0.1745 -0.1468 -1.0226
10771TIP3    H153804   5.020   0.069   4.609  0.7028 -0.5664 -0.6366
10771TIP3    H253805   5.069   0.164   4.716 -0.0501  0.1129 -0.8788
10772TIP3   OH253806   3.496   5.920   1.970  0.2309  0.1771  0.8359
10772TIP3    H153807   3.420   5.864   1.961  0.5032 -0.0760  0.0053
10772TIP3    H253808   3.564   5.864   2.008 -0.0090  0.4302  1.6780
10773TIP3   OH253809   3.574   1.853   0.829  0.5252  0.0964 -0.0646
10773TIP3    H153810   3.651   1.908   0.846  0.1210  0.2883  1.2617
10773TIP3    H253811   3.607   1.763   0.835  0.6934  0.1798  0.3048
10774TIP3   OH253812   0.377   1.497  15.387  0.3046 -0.5370 -0.4015
10774TIP3    H153813   0.400   1.411  15.353  3.2082  0.6729 -1.8188
10774TIP3    H253814   0.453   1.523  15.440 -1.0029  0.6988  0.9542
10775TIP3   OH253815   6.485   3.266  15.206 -0.1446  0.2719  0.0804
10775TIP3    H153816   6.571   3.231  15.229 -0.3066  0.3355  0.8058
10775TIP3    H253817   6.501   3.317  15.126  0.5920  0.6768  0.4681
10776TIP3   OH253818   6.077   4.935   1.465  0.0407  0.2591  0.5886
10776TIP3    H153819   6.010   4.961   1.528  1.7277  0.4502  2.4139
10776TIP3    H253820   6.159   4.938   1.515  1.1696 -1.9575 -0.9621
10777TIP3   OH253821   0.548   0.519   5.778  0.2508  0.1641 -0.6101
10777TIP3    H153822   0.456   0.497   5.794  0.1646  2.1391  2.5584
10777TIP3    H253823   0.594   0.488   5.856  1.7496  1.9092 -0.7302
10778TIP3   OH253824   1.816   2.410   1.054 -0.0995  0.1130  0.1772
10778TIP3    H153825   1.849   2.492   1.019 -0.2620 -0.5663 -1.6616
10778TIP3    H253826   1.867   2.342   1.011 -1.1318 -0.8047  0.3330
10779TIP3   OH253827   1.773   1.710   1.046 -0.1877 -0.0240  0.0339
10779TIP3    H153828   1.756   1.617   1.029  0.6270 -0.0083 -0.8991
10779TIP3    H253829   1.709   1.734   1.114 -0.6857 -1.1520 -0.0249
10780TIP3   OH253830   6.150   2.240   3.447  0.0307  0.1964  0.0337
10780TIP3    H153831   6.100   2.161   3.429  0.4305  0.3587 -2.0235
10780TIP3    H253832   6.238   2.222   3.413  0.1010  1.5206 -0.5616
10781TIP3   OH253833   2.890   0.304  13.481  0.6573 -0.5312 -0.6182
10781TIP3    H153834   2.856   0.333  13.565  2.5293  1.0920 -0.3359
10781TIP3    H253835   2.976   0.266  13.502  1.4269  0.4674 -1.8344
10782TIP3   OH253836   3.083   2.909   3.720 -0.4613  0.0179 -0.0514
10782TIP3    H153837   3.068   2.926   3.813  0.0753 -0.1225  0.0669
10782TIP3    H253838   3.007   2.945   3.676 -0.9893 -0.4034  0.4927
10783TIP3   OH253839   6.046   6.784   1.363  0.5919 -0.0449  0.7364
10783TIP3    H153840   5.955   6.790   1.392  0.2670  1.6514 -0.4372
10783TIP3    H253841   6.097   6.808   1.440 -0.0236  0.0609  1.1214
10784TIP3   OH253842   0.762   1.929   0.126  0.7772 -0.0279 -0.1966
10784TIP3    H153843   0.675   1.891   0.122  0.1371  1.4082 -0.3635
10784TIP3    H253844   0.795   1.905   0.212 -0.3511  0.6000  0.4251
10785TIP3   OH253845   1.969   5.316  15.389 -0.0611  0.1228  0.0059
10785TIP3    H153846   1.983   5.222  15.394 -2.1917 -0.2771 -0.5330
10785TIP3    H253847   1.923   5.338  15.471 -0.8804  0.4007 -0.5140
10786TIP3   OH253848   0.190   5.989  10.714 -0.2628 -0.2188  0.5157
10786TIP3    H153849   0.141   5.908  10.703 -0.5192 -0.1607  1.1974
10786TIP3    H253850   0.165   6.043  10.639  1.0601 -1.3311 -0.7743
10787TIP3   OH253851   3.060   1.412  16.843 -0.4754  0.3844  0.2759
10787TIP3    H153852   2.989   1.348  16.839  1.1218 -1.5470  1.2908
10787TIP3    H253853   3.131   1.373  16.791  0.8717  0.8557  1.6870
10788TIP3   OH253854   2.320   4.919   5.860 -0.5939 -0.2914  0.4096
10788TIP3    H153855   2.289   4.836   5.898 -2.3325 -0.0067 -0.3305
10788TIP3    H253856   2.340   4.897   5.769  0.5357 -0.2404  0.6258
10789TIP3   OH253857   6.151   3.527  15.426  0.2679 -0.0357 -0.1873
10789TIP3    H153858   6.215   3.598  15.416  0.4646 -0.1621  0.1326
10789TIP3    H253859   6.190   3.453  15.380  2.1520 -1.2356  3.0217
10790TIP3   OH253860   2.943   6.367  17.086 -0.7043  0.1538  0.5922
10790TIP3    H153861   2.898   6.438  17.132 -1.9056 -0.4359  0.3664
10790TIP3    H253862   2.873   6.318  17.044  0.2032 -0.5414 -0.1474
10791TIP3   OH253863   4.463   2.352  16.980  0.1245  0.3490  0.0831
10791TIP3    H153864   4.411   2.277  17.007  1.3835  0.2511  2.4891
10791TIP3    H253865   4.510   2.322  16.901  1.1814 -1.7239  1.4111
10792TIP3   OH253866   3.019   6.113   3.696  0.1446  0.2486 -0.5639
10792TIP3    H153867   3.018   6.088   3.604  0.7694  1.4386 -0.9159
10792TIP3    H253868   2.972   6.043   3.741  0.6642 -0.8305 -1.6565
10793TIP3   OH253869   3.598   3.014   5.094 -0.0816 -0.1953  0.5135
10793TIP3    H153870   3.636   3.094   5.058  0.0399 -0.9180 -1.0226
10793TIP3    H253871   3.512   3.007   5.053 -1.7623  1.1222  3.5283
10794TIP3   OH253872   3.910   4.445  16.134  0.1067 -0.3095  0.7216
10794TIP3    H153873   3.892   4.382  16.205  1.4445 -1.2463  0.2784
10794TIP3    H253874   3.932   4.526  16.180 -2.3880  0.1311  1.3028
10795TIP3   OH253875   5.502   5.208  12.968 -0.1459  0.4659 -0.2367
10795TIP3    H153876   5.505   5.133  12.909 -3.6074  0.3727 -0.5096
10795TIP3    H253877   5.471   5.280  12.914 -1.1975  0.9391  0.9529
10796TIP3   OH253878   2.436   2.618   2.481  0.0969 -0.6959 -0.0597
10796TIP3    H153879   2.376   2.637   2.409  0.6242 -1.8858 -0.8425
10796TIP3    H253880   2.500   2.688   2.478 -0.8127  0.1744  0.3121
10797TIP3   OH253881   1.750   0.908   1.268  0.0949 -0.0800  0.5226
10797TIP3    H153882   1.794   0.993   1.268 -1.0079  0.5293  1.7560
10797TIP3    H253883   1.669   0.923   1.317 -0.6607 -1.5783 -0.2000
10798TIP3   OH253884   2.655   4.890  17.039  0.2477  0.4719 -0.0724
10798TIP3    H153885   2.749   4.903  17.049  0.2835  0.6376 -0.6096
10798TIP3    H253886   2.624   4.874  17.129  1.0596 -1.5394 -0.0852
10799TIP3   OH253887   4.183   2.380   4.198  0.0086 -0.4118  0.1251
10799TIP3    H153888   4.224   2.440   4.135 -0.8498 -0.5344 -0.5705
10799TIP3    H253889   4.089   2.401   4.194  0.1032  1.0008  2.8945
10800TIP3   OH253890   5.739   1.616  13.912 -0.4905 -0.0846  0.4906
10800TIP3    H153891   5.807   1.595  13.847  0.7560  3.4084  0.4588
10800TIP3    H253892   5.785   1.614  13.996  0.4388  4.2131  0.3190
10801TIP3   OH253893   3.490   0.339   5.362 -0.3932 -0.4532  0.7395
10801TIP3    H153894   3.578   0.310   5.386 -0.2068 -2.0577 -1.6044
10801TIP3    H253895   3.497   0.434   5.356  2.1192 -0.6836 -2.3962
10802TIP3   OH253896   2.259   5.475   0.176  0.0537 -0.5351  0.0373
10802TIP3    H153897   2.224   5.528   0.104  0.5924 -0.8701 -0.4812
10802TIP3    H253898   2.194   5.407   0.190  0.3169 -0.9507 -0.6896
10803TIP3   OH253899   4.942   5.467   2.079 -0.5720 -0.5014  0.1953
10803TIP3    H153900   5.027   5.433   2.049 -1.0068 -1.0434 -0.4353
10803TIP3    H253901   4.881   5.394   2.067 -1.8262  0.8520 -2.5149
10804TIP3   OH253902   2.364   2.681  17.092  0.4081  0.1235  0.0765
10804TIP3    H153903   2.284   2.682  17.144  1.6872  1.4311  2.2109
10804TIP3    H253904   2.424   2.626  17.142  1.0749 -0.2285 -1.0907
10805TIP3   OH253905   4.469   3.170   0.899 -0.1610  0.0882 -0.0301
10805TIP3    H153906   4.401   3.185   0.964  1.8237 -1.4016  2.5615
10805TIP3    H253907   4.438   3.095   0.849 -0.3024 -0.8340  1.3793
10806TIP3   OH253908   0.936   2.058  16.133  0.1880  0.8950 -0.2367
10806TIP3    H153909   0.994   1.982  16.139 -0.9169  0.0197 -0.5073
10806TIP3    H253910   0.871   2.034  16.068 -1.5854  1.0982  1.3877
10807TIP3   OH253911   1.949   3.764  15.851  0.0362  0.0912 -0.3436
10807TIP3    H153912   2.029   3.736  15.896 -0.4881  1.0555  1.2987
10807TIP3    H253913   1.926   3.690  15.795  0.2781 -1.5842  1.6475
10808TIP3   OH253914   5.549   2.098   3.941  0.5098  0.0582  0.1758
10808TIP3    H153915   5.553   2.100   4.037  1.4788  0.2954  0.1413
10808TIP3    H253916   5.594   2.018   3.916 -0.4828 -0.4393 -0.0626
10809TIP3   OH253917   3.842   5.108   2.014  0.0665  0.2017 -0.3269
10809TIP3    H153918   3.772   5.059   1.971 -0.2487  0.5801 -0.2553
10809TIP3    H253919   3.827   5.096   2.107  0.4238 -0.1679 -0.3183
10810TIP3   OH253920   4.229   5.872  15.755 -0.6180  0.6561  0.0706
10810TIP3    H153921   4.156   5.883  15.695  1.2508  0.1134 -2.4483
10810TIP3    H253922   4.283   5.803  15.716  0.6271  0.1594  2.4692
10811TIP3   OH253923   2.498   4.700   4.708 -0.3908  0.3489  0.3599
10811TIP3    H153924   2.481   4.792   4.690 -0.3521 -0.0643 -2.0752
10811TIP3    H253925   2.592   4.696   4.726 -0.3793  0.7696  0.3904
10812TIP3   OH253926   5.609   4.144   5.449 -0.1439  0.1101 -0.0203
10812TIP3    H153927   5.683   4.108   5.398 -0.1501 -0.1962  0.1853
10812TIP3    H253928   5.650   4.202   5.513 -0.0090 -0.6477  0.6003
10813TIP3   OH253929   1.756   0.698   3.392 -0.0238 -0.3962 -0.2095
10813TIP3    H153930   1.717   0.704   3.304 -2.8006  1.4153  0.9999
10813TIP3    H253931   1.790   0.786   3.409 -1.9975  0.1070  1.4930
10814TIP3   OH253932   5.350   6.266  15.529  0.0413 -0.0539 -0.5114
10814TIP3    H153933   5.282   6.288  15.593 -1.9896 -1.5636 -1.9945
10814TIP3    H253934   5.423   6.235  15.582  0.3713  3.3193  1.2416
10815TIP3   OH253935   2.159   2.501   1.092  0.2056  0.7932  0.1123
10815TIP3    H153936   2.189   2.508   1.001  0.4570  0.3441  0.1621
10815TIP3    H253937   2.200   2.576   1.136 -0.6068  1.5204 -0.3253
10816TIP3   OH253938   1.071   5.232  15.584 -0.0696 -0.5620 -0.3969
10816TIP3    H153939   1.024   5.163  15.537  0.0066 -0.1363 -1.1001
10816TIP3    H253940   1.095   5.296  15.517 -1.7687  1.1045  0.4819
10817TIP3   OH253941   5.106   3.164  12.103  0.2305 -0.4348  0.4429
10817TIP3    H153942   5.134   3.152  12.012  1.1513  0.7755  0.5346
10817TIP3    H253943   5.063   3.082  12.126  1.0829 -1.2390 -0.6934
10818TIP3   OH253944   0.056   0.595   1.416 -0.5380  0.3433  0.2389
10818TIP3    H153945   0.051   0.503   1.389  1.0613  0.3866 -0.2715
10818TIP3    H253946  -0.013   0.638   1.366  1.4049  0.1657 -2.8545
10819TIP3   OH253947   5.876   1.274  16.423  0.1409 -0.1037  0.6585
10819TIP3    H153948   5.900   1.196  16.373 -2.1188 -0.2485 -0.3125
10819TIP3    H253949   5.894   1.251  16.514  1.2720 -1.0348  0.2196
10820TIP3   OH253950   6.623   5.892  12.336  0.0496 -0.4507 -0.3745
10820TIP3    H153951   6.687   5.903  12.406 -1.7534 -2.5294  1.7619
10820TIP3    H253952   6.666   5.834  12.273  0.2105 -2.2086  1.2590
10821TIP3   OH253953   1.451   2.049   0.559 -0.2425 -0.1527  0.3224
10821TIP3    H153954   1.466   1.955   0.551  0.2665  0.0359 -1.4414
10821TIP3    H253955   1.539   2.086   0.567 -0.5062  0.1013  2.4008
10822TIP3   OH253956   0.363   3.820   5.831 -0.8123  0.5188 -0.5293
10822TIP3    H153957   0.354   3.869   5.912 -0.4111 -1.9183  1.0845
10822TIP3    H253958   0.341   3.730   5.854 -1.5821 -0.1217 -3.3574
10823TIP3   OH253959   1.667   1.076  11.376  0.0157  0.2314 -0.0431
10823TIP3    H153960   1.694   1.026  11.453 -0.3214  1.2253  0.7387
10823TIP3    H253961   1.694   1.021  11.302  0.5206 -0.6538  0.7648
10824TIP3   OH253962   0.216   5.335   3.855 -0.7600  0.2646 -1.0642
10824TIP3    H153963   0.261   5.362   3.775  1.1690  2.0033  0.5162
10824TIP3    H253964   0.219   5.411   3.912 -1.2753 -1.1928  1.0464
10825TIP3   OH253965   0.480   2.016  13.492 -0.2878  0.1481 -0.4999
10825TIP3    H153966   0.512   1.994  13.579  0.3041  1.0716 -0.4663
10825TIP3    H253967   0.545   1.978  13.433  0.5013  1.3503 -0.4530
10826TIP3   OH253968   1.470   4.281   1.804 -0.0345 -0.0283 -0.0242
10826TIP3    H153969   1.507   4.282   1.716 -1.0672 -0.5617 -0.4754
10826TIP3    H253970   1.545   4.272   1.862  0.5105 -1.8666 -0.9474
10827TIP3   OH253971   4.346   4.566  16.367 -0.0248  0.1155 -0.0862
10827TIP3    H153972   4.299   4.506  16.424 -1.9301  0.6967 -0.9624
10827TIP3    H253973   4.322   4.653  16.399 -0.3398  0.4335 -1.1473
10828TIP3   OH253974   4.459   3.791   3.756 -0.0754 -0.0054 -0.2018
10828TIP3    H153975   4.405   3.712   3.758 -1.2761  0.6816 -2.5459
10828TIP3    H253976   4.521   3.776   3.685  0.5504  0.6457  0.1947
10829TIP3   OH253977   4.365   5.442   1.577  0.4196  0.0540  0.3132
10829TIP3    H153978   4.356   5.418   1.485  1.2993  0.2900  0.1531
10829TIP3    H253979   4.330   5.367   1.625 -0.2200  0.0126 -0.2152
10830TIP3   OH253980   1.692   5.068  17.205  0.6999 -0.2076  0.2114
10830TIP3    H153981   1.627   5.123  17.249  0.4802 -0.8294  0.6710
10830TIP3    H253982   1.693   4.986  17.254  1.7485 -0.2582  0.1450
10831TIP3   OH253983   2.874   2.043   0.345  0.1240 -0.1418  0.0714
10831TIP3    H153984   2.941   2.095   0.300 -0.9224  0.8345 -0.3953
10831TIP3    H253985   2.791   2.085   0.323 -0.4680  0.2539  2.7391
10832TIP3   OH253986   4.316   5.205   1.736  0.0060 -0.1209 -0.9120
10832TIP3    H153987   4.227   5.240   1.737 -0.6379 -1.6081 -2.1648
10832TIP3    H253988   4.327   5.165   1.823 -0.2861  0.6581 -0.5091
10833TIP3   OH253989   5.713   3.263  16.857 -0.5934  0.7087 -0.6039
10833TIP3    H153990   5.805   3.286  16.863 -0.8287  1.6510 -0.3006
10833TIP3    H253991   5.673   3.304  16.934 -1.0478 -0.8603  0.0263
10834TIP3   OH253992   3.826   6.034  14.975 -0.2989 -0.4477 -0.3516
10834TIP3    H153993   3.866   6.025  15.062  1.2016  1.9723 -0.6795
10834TIP3    H253994   3.743   6.079  14.991  1.1320  2.4127 -0.2295
10835TIP3   OH253995   3.968   2.137   3.513 -0.2230  0.8860 -0.1633
10835TIP3    H153996   3.947   2.044   3.523  1.2955  0.2385 -2.3172
10835TIP3    H253997   3.894   2.173   3.465 -0.5435  0.6832  0.1686
10836TIP3   OH253998   4.384   5.406  13.899 -0.1593  0.4399 -0.6815
10836TIP3    H153999   4.335   5.327  13.925  0.3745 -0.0157 -1.0565
10836TIP3    H254000   4.457   5.410  13.961  0.3882  0.0689 -1.2943
10837TIP3   OH254001   0.883   4.643  14.329 -0.5948 -0.7737  0.1498
10837TIP3    H154002   0.925   4.650  14.243  2.4241 -1.9435  1.3617
10837TIP3    H254003   0.914   4.720  14.377  0.8565 -1.9943  1.2803
10838TIP3   OH254004   3.659   3.588   3.875 -0.2733 -0.1343 -0.4155
10838TIP3    H154005   3.645   3.565   3.783  0.9041 -2.8377 -0.0343
10838TIP3    H254006   3.582   3.554   3.920 -0.7402  0.9820 -0.3547
10839TIP3   OH254007   1.701   1.019  12.842  0.3151  0.1884 -0.2274
10839TIP3    H154008   1.746   1.030  12.926 -0.8616  1.3164  0.2762
10839TIP3    H254009   1.730   1.094  12.790 -0.9860  0.9495  0.1169
10840TIP3   OH254010   3.016   4.505  15.589  0.2234  0.5452 -0.0666
10840TIP3    H154011   2.968   4.588  15.588  2.2827  1.8327  1.3415
10840TIP3    H254012   3.097   4.524  15.635  2.5021 -1.3513 -2.9581
10841TIP3   OH254013   5.310   4.398  15.601 -0.1667  0.4665 -0.2212
10841TIP3    H154014   5.314   4.433  15.690 -2.1620  0.3650 -0.0607
10841TIP3    H254015   5.342   4.470  15.546  0.9449  0.5788  0.5306
10842TIP3   OH254016   4.455   5.638   1.337  0.1660  0.3125 -0.0466
10842TIP3    H154017   4.543   5.673   1.325  0.7252 -0.7362  0.7496
10842TIP3    H254018   4.467   5.543   1.334 -0.1537 -0.0876  4.3314
10843TIP3   OH254019   4.579   3.657  12.955 -0.5050  0.0744 -0.0360
10843TIP3    H154020   4.492   3.624  12.978  0.1807 -1.4527  0.5498
10843TIP3    H254021   4.639   3.606  13.010  0.7622  1.1569 -0.3578
10844TIP3   OH254022   0.434   0.106  11.018 -0.1117 -0.4732  0.7318
10844TIP3    H154023   0.526   0.130  11.027 -0.4019  1.1332 -0.1713
10844TIP3    H254024   0.396   0.176  10.965 -1.7546 -1.3564  0.6713
10845TIP3   OH254025   2.164   6.715  17.117 -0.4814  0.0375 -0.2137
10845TIP3    H154026   2.106   6.659  17.065 -0.0640 -1.7311  1.1221
10845TIP3    H254027   2.239   6.660  17.136 -0.9764  0.2753  2.9133
10846TIP3   OH254028   1.690   3.991   5.474  0.2209  0.0405 -0.3212
10846TIP3    H154029   1.599   3.962   5.468 -0.4103  1.5647  1.1546
10846TIP3    H254030   1.689   4.059   5.541  2.1986  1.1119 -1.2985
10847TIP3   OH254031   0.050   1.664  13.786 -0.4899 -0.4068  0.1039
10847TIP3    H154032   0.004   1.742  13.819  0.7897  0.7971 -0.8342
10847TIP3    H254033  -0.015   1.621  13.731 -1.6886 -0.8414  1.7484
10848TIP3   OH254034   4.298   1.042  12.862 -0.4123  0.0570  0.2315
10848TIP3    H154035   4.292   1.128  12.905 -0.7238  0.3362 -0.3571
10848TIP3    H254036   4.388   1.013  12.878 -0.0147  0.9217 -0.3610
10849TIP3   OH254037   4.042   1.257   1.297  0.0662 -0.3677  0.0418
10849TIP3    H154038   4.089   1.189   1.345  0.2017 -1.9932 -2.2331
10849TIP3    H254039   4.107   1.326   1.282  0.6603 -0.8967  0.1592
10850TIP3   OH254040   4.279   6.589  15.312  0.0013  0.0219  0.5391
10850TIP3    H154041   4.273   6.513  15.254 -0.0253  0.4872 -0.0790
10850TIP3    H254042   4.269   6.553  15.400  2.3359 -1.0301  0.4477
10851TIP3   OH254043   2.944   3.166   0.015 -0.0582 -0.0675  0.1936
10851TIP3    H154044   3.039   3.158   0.008 -0.1795  0.2965 -3.3425
10851TIP3    H254045   2.922   3.242  -0.038 -2.4738 -1.3628 -0.8137
10852TIP3   OH254046   4.341   6.762   5.246 -0.2006 -0.0093  0.1554
10852TIP3    H154047   4.289   6.841   5.260  0.8447  0.9918 -1.3443
10852TIP3    H254048   4.360   6.730   5.335  0.1852  1.9988  0.8470
10853TIP3   OH254049   4.026   3.953  12.433 -0.2534  0.3471  0.8470
10853TIP3    H154050   4.032   4.022  12.367  1.3809 -0.5470 -0.0049
10853TIP3    H254051   4.094   3.975  12.497  0.5507 -0.6250  0.3683
10854TIP3   OH254052   1.868   2.272  15.324  0.6282 -0.2463  0.1425
10854TIP3    H154053   1.853   2.206  15.256  1.5563 -0.6541  0.3110
10854TIP3    H254054   1.819   2.241  15.400 -1.4564  0.8507 -0.6685
10855TIP3   OH254055   6.161   0.449  15.030 -0.1320  0.2463 -0.2512
10855TIP3    H154056   6.197   0.504  14.960  1.0499 -3.4754 -2.9151
10855TIP3    H254057   6.066   0.453  15.018  0.0316  0.1289 -1.7600
10856TIP3   OH254058   4.664   4.885  13.525  0.3980 -0.5326 -0.4217
10856TIP3    H154059   4.603   4.820  13.561 -0.8072  1.3011  1.0076
10856TIP3    H254060   4.725   4.903  13.597 -0.9851  1.8929  0.2713
10857TIP3   OH254061   5.775   4.990   0.694  0.2862  0.1552  0.4940
10857TIP3    H154062   5.740   4.946   0.771  2.7177  0.7166  2.0183
10857TIP3    H254063   5.870   4.986   0.705  0.8163 -0.8461 -3.1351
10858TIP3   OH254064   3.258   4.721   5.703  0.1538 -0.1384 -0.3176
10858TIP3    H154065   3.295   4.799   5.661  0.1718  1.0639  1.7603
10858TIP3    H254066   3.334   4.666   5.722  0.3041  0.0061 -0.4943
10859TIP3   OH254067   5.199   4.734   4.277  0.4897  0.9922 -0.2696
10859TIP3    H154068   5.253   4.687   4.214 -0.2132  1.7664 -1.5041
10859TIP3    H254069   5.120   4.757   4.227 -0.0271  1.7370  0.8667
10860TIP3   OH254070   2.166   4.294   4.511  0.0586 -0.2847 -0.1347
10860TIP3    H154071   2.255   4.307   4.478  0.8211 -1.2738  1.4546
10860TIP3    H254072   2.174   4.303   4.606 -0.7266 -4.3683  0.4905
10861TIP3   OH254073   6.686   4.950  10.375  0.4970  0.0246 -0.3923
10861TIP3    H154074   6.740   4.977  10.301  1.4684 -1.3081 -0.2031
10861TIP3    H254075   6.598   4.940  10.337  1.3661 -2.8793 -2.0149
10862TIP3   OH254076   0.476   2.498  10.892 -0.5779 -0.0254 -0.3129
10862TIP3    H154077   0.424   2.418  10.894  0.6209 -0.8678 -1.2312
10862TIP3    H254078   0.566   2.468  10.875 -0.3279  1.5973 -2.2419
10863TIP3   OH254079   3.133   4.690   3.796 -0.0604  0.4633  0.2215
10863TIP3    H154080   3.195   4.730   3.857  1.1923 -0.9478 -0.0754
10863TIP3    H254081   3.050   4.735   3.814  0.7141  1.4460  1.5787
10864TIP3   OH254082   2.240   4.169   5.871  0.4142  0.2786  0.5708
10864TIP3    H154083   2.165   4.165   5.812  0.8405  0.0025  0.0374
10864TIP3    H254084   2.280   4.254   5.855 -1.2815  1.5702  2.7476
10865TIP3   OH254085   0.128   1.242   1.615 -0.0425 -0.4539 -0.1396
10865TIP3    H154086   0.187   1.175   1.650 -1.1371 -1.2373  0.2738
10865TIP3    H254087   0.127   1.311   1.682  2.2560  0.7329 -1.2401
10866TIP3   OH254088   0.559   3.927   5.217  0.2103 -0.0925  0.3859
10866TIP3    H154089   0.551   4.016   5.184  1.1547 -0.2477 -0.3013
10866TIP3    H254090   0.520   3.930   5.304 -2.7129  0.2750 -0.7853
10867TIP3   OH254091   5.912   6.380  14.316  0.1074  0.2382 -0.0342
10867TIP3    H154092   5.887   6.289  14.298 -2.3876  0.9200 -0.4188
10867TIP3    H254093   6.007   6.380  14.314  0.1938 -2.4564  0.4264
10868TIP3   OH254094   0.128   1.130   0.903 -0.2372 -0.4202  0.9275
10868TIP3    H154095   0.172   1.186   0.966  0.3262 -0.7908  0.8778
10868TIP3    H254096   0.054   1.093   0.951  0.1979 -0.7169  1.3842
10869TIP3   OH254097   5.384   2.496   3.351 -0.5627 -0.1065  0.0657
10869TIP3    H154098   5.410   2.473   3.440 -1.0671  0.7908  0.4630
10869TIP3    H254099   5.433   2.436   3.295 -0.8237 -1.1934  0.9789
10870TIP3   OH254100   4.610   4.572  11.534  0.3985  0.0183 -0.2830
10870TIP3    H154101   4.682   4.579  11.596  0.5702  0.7614 -0.5482
10870TIP3    H254102   4.563   4.493  11.560  1.0438 -0.2259  0.1697
10871TIP3   OH254103   1.364   3.078   1.163  0.1322  0.1910 -0.0436
10871TIP3    H154104   1.280   3.032   1.153 -0.1655  0.1942  2.0057
10871TIP3    H254105   1.423   3.011   1.198  0.0018  1.0184  1.8737
10872TIP3   OH254106   6.586   1.110   4.510  0.1839 -0.2830  0.3798
10872TIP3    H154107   6.500   1.125   4.469 -0.1418 -1.9635  0.3413
10872TIP3    H254108   6.608   1.193   4.551 -0.1464  1.0497 -1.9768
10873TIP3   OH254109   4.096   6.065   3.585  0.0158 -1.0008 -0.1672
10873TIP3    H154110   4.117   6.148   3.628 -1.2658 -0.0098 -1.3741
10873TIP3    H254111   4.132   6.074   3.497 -2.5800 -0.4910 -1.2683
10874TIP3   OH254112   5.388   2.041  14.328  0.4163 -0.0021 -0.3377
10874TIP3    H154113   5.318   1.976  14.336  1.0214 -0.7496 -0.9346
10874TIP3    H254114   5.364   2.092  14.251  0.0375  0.3606  0.0195
10875TIP3   OH254115   4.560   3.773  14.037 -0.4347  0.0228 -0.2074
10875TIP3    H154116   4.534   3.811  14.121 -0.6402 -0.5303 -0.0105
10875TIP3    H254117   4.651   3.745  14.051 -0.3198  0.3491 -0.3153
10876TIP3   OH254118   0.644   6.802   4.549  0.2215 -0.3305 -0.3339
10876TIP3    H154119   0.606   6.778   4.634  0.7136  1.9685  0.6119
10876TIP3    H254120   0.726   6.753   4.545  2.2504  2.4301  2.4917
10877TIP3   OH254121   4.265   1.112  14.086 -0.0326 -0.1958  0.4956
10877TIP3    H154122   4.235   1.203  14.083 -1.3416 -0.6250 -0.6679
10877TIP3    H254123   4.191   1.063  14.121  0.0500 -1.0114 -0.4114
10878TIP3   OH254124   1.771   5.523  10.954  0.1706  0.0199  0.1869
10878TIP3    H154125   1.813   5.609  10.963 -1.9490  1.2398 -0.7621
10878TIP3    H254126   1.720   5.513  11.035 -1.5369  0.8380 -0.7543
10879TIP3   OH254127   1.340   0.073  16.575 -0.4506  0.1707  0.0105
10879TIP3    H154128   1.275   0.009  16.604 -1.4159 -0.3423 -2.8706
10879TIP3    H254129   1.374   0.037  16.493 -1.2212  3.3607 -1.9196
10880TIP3   OH254130   4.026   0.027   6.477  0.2559 -0.4250 -0.2615
10880TIP3    H154131   4.104  -0.023   6.456  0.7600 -0.5698  1.7451
10880TIP3    H254132   4.054   0.119   6.469  0.8112 -0.4710  0.9268
10881TIP3   OH254133   5.204   0.892  12.743  0.4228 -0.3773  0.1150
10881TIP3    H154134   5.129   0.870  12.687  0.3085 -1.3291  0.6200
10881TIP3    H254135   5.281   0.873  12.689  0.3365  0.9058 -0.5229
10882TIP3   OH254136   2.595   2.242   1.828 -0.2443  0.0304  0.2516
10882TIP3    H154137   2.668   2.192   1.791 -1.4132 -1.6380  0.1098
10882TIP3    H254138   2.637   2.309   1.882  1.4209  0.2993 -1.2824
10883TIP3   OH254139   4.781   1.238  14.905  0.5075 -0.3510 -0.0573
10883TIP3    H154140   4.742   1.164  14.953  1.4140 -1.1977 -0.6132
10883TIP3    H254141   4.856   1.201  14.860  0.5049  0.7514 -1.0009
10884TIP3   OH254142   4.090   3.800  15.991  0.3382 -0.3006  0.0713
10884TIP3    H154143   4.146   3.845  15.927 -0.8419  1.7151  0.3572
10884TIP3    H254144   4.133   3.814  16.075  1.1063 -1.6381 -0.0900
10885TIP3   OH254145   5.515   0.573  15.495 -0.2975 -0.6019  0.4616
10885TIP3    H154146   5.515   0.486  15.535  0.2926 -0.8597 -0.0809
10885TIP3    H254147   5.446   0.621  15.541 -1.1260 -1.5770  0.2766
10886TIP3   OH254148   1.439   1.509   3.590  0.5469  0.1509 -0.9759
10886TIP3    H154149   1.426   1.433   3.647 -0.6500  0.6470 -0.5493
10886TIP3    H254150   1.474   1.473   3.509  2.5339 -0.5537  0.1231
10887TIP3   OH254151   5.555   0.962  11.749 -0.2851 -0.2389  0.6166
10887TIP3    H154152   5.513   1.048  11.739 -1.0370 -0.7174 -0.4278
10887TIP3    H254153   5.622   0.960  11.681 -1.5754 -1.2295 -0.6749
10888TIP3   OH254154   1.731   1.331   6.245 -0.0336 -0.0076 -0.3119
10888TIP3    H154155   1.751   1.249   6.199 -2.6677 -0.4592 -0.8270
10888TIP3    H254156   1.803   1.343   6.307  1.6612 -1.4081 -1.9035
10889TIP3   OH254157   3.739   6.470  12.963  0.0883  0.7595 -0.1434
10889TIP3    H154158   3.803   6.484  12.894 -0.5079  0.2117 -0.8257
10889TIP3    H254159   3.687   6.550  12.965 -0.8165  0.2375 -1.3485
10890TIP3   OH254160   5.438   2.923   5.704 -0.1692  0.5597  0.2798
10890TIP3    H154161   5.464   2.996   5.762 -0.4285 -0.1652  1.3331
10890TIP3    H254162   5.365   2.881   5.749 -1.0391  0.5694 -1.0767
10891TIP3   OH254163   0.856   6.339   0.587 -0.1615  0.1632 -0.5036
10891TIP3    H154164   0.769   6.356   0.624 -1.5332 -0.6106 -3.1593
10891TIP3    H254165   0.875   6.249   0.613 -0.2865  0.2161 -0.2165
10892TIP3   OH254166   1.614   2.217   4.265  0.2923 -0.2655 -0.1618
10892TIP3    H154167   1.585   2.248   4.351  3.6377 -0.5175  1.1976
10892TIP3    H254168   1.593   2.289   4.206 -0.0133  0.9065  1.2952
10893TIP3   OH254169   4.212   3.765   2.168 -0.6354 -0.3668 -0.0719
10893TIP3    H154170   4.208   3.678   2.130 -0.1978 -0.3316 -0.2001
10893TIP3    H254171   4.305   3.787   2.169 -0.8077  0.4902 -0.9547
10894TIP3   OH254172   5.204   0.724   5.174 -0.1781  0.0001 -1.2671
10894TIP3    H154173   5.259   0.686   5.242  0.2177 -1.0171 -2.1276
10894TIP3    H254174   5.132   0.766   5.222 -0.2923 -1.3060 -0.2561
10895TIP3   OH254175   2.004   2.105   5.956 -0.4515 -0.0146 -0.5324
10895TIP3    H154176   2.036   2.130   6.043  0.5295  0.1644 -0.9332
10895TIP3    H254177   2.024   2.011   5.949  0.6670  0.2415 -1.0496
10896TIP3   OH254178   1.795   6.687   3.982  0.1575 -0.0365 -0.0926
10896TIP3    H154179   1.714   6.662   3.938 -0.1231 -0.9820  0.9421
10896TIP3    H254180   1.787   6.652   4.070  0.5145  2.2015  0.8997
10897TIP3   OH254181   6.764   6.387  12.296 -0.4745 -0.2715  0.2776
10897TIP3    H154182   6.782   6.362  12.205 -0.2267 -0.2939  0.3312
10897TIP3    H254183   6.772   6.305  12.345  0.7725 -0.0212  0.5188
10898TIP3   OH254184   6.663   1.182  15.389  0.5034 -0.0833  0.4020
10898TIP3    H154185   6.737   1.177  15.328  1.4385  0.1944  1.4687
10898TIP3    H254186   6.631   1.092  15.396  0.7389 -0.2077 -0.0717
10899TIP3   OH254187   3.023   5.672   1.152  0.0145 -0.1906  0.1641
10899TIP3    H154188   2.982   5.587   1.136  0.9311 -0.2774 -1.9824
10899TIP3    H254189   3.116   5.654   1.156  0.0742  0.2537  3.4056
10900TIP3   OH254190   4.609   0.620  12.870  0.2201  0.2809  0.1255
10900TIP3    H154191   4.562   0.599  12.951  0.2635 -0.9039 -0.1289
10900TIP3    H254192   4.692   0.574  12.878  0.4176  0.5400 -0.3935
10901TIP3   OH254193   2.377   3.109  15.031 -0.3005 -0.6315  0.1035
10901TIP3    H154194   2.365   3.019  14.999  0.9197 -1.2371  1.2477
10901TIP3    H254195   2.444   3.146  14.974 -0.3664 -0.6489  0.0138
10902TIP3   OH254196   6.105   3.069  15.976 -0.0890 -0.5662 -0.3747
10902TIP3    H154197   6.047   3.143  15.959 -1.4667 -1.3192  0.7943
10902TIP3    H254198   6.193   3.105  15.966 -0.7318  1.0249 -0.6253
10903TIP3   OH254199   2.578   6.754  12.846 -0.8767 -0.9067 -0.2942
10903TIP3    H154200   2.515   6.820  12.820  0.6164  0.5416 -0.3847
10903TIP3    H254201   2.609   6.717  12.763  1.3629  1.3065 -0.5597
10904TIP3   OH254202   1.911   1.538  13.416 -0.1427 -0.4923 -0.1594
10904TIP3    H154203   1.961   1.588  13.352  0.7569 -0.9876  0.1410
10904TIP3    H254204   1.830   1.515  13.371  0.3144 -0.5049 -0.9872
10905TIP3   OH254205   3.577   6.382  14.760  0.3646 -0.3579  0.1869
10905TIP3    H154206   3.587   6.436  14.838  2.2700 -1.7703  1.0115
10905TIP3    H254207   3.558   6.444  14.690  3.2414  1.5357  0.9126
10906TIP3   OH254208   0.439   5.583  11.625 -0.5551  0.3540  0.3925
10906TIP3    H154209   0.522   5.559  11.666 -0.8540 -0.3223  0.6147
10906TIP3    H254210   0.404   5.653  11.681  0.1849  1.1409 -0.0964
10907TIP3   OH254211   3.929   4.498   1.261 -0.8643  0.4973 -0.4896
10907TIP3    H154212   4.012   4.506   1.309  0.0301  3.7316 -2.2467
10907TIP3    H254213   3.945   4.429   1.197 -0.4924 -0.7033  0.8464
10908TIP3   OH254214   5.359   0.240  14.176 -0.2374 -0.0028  0.2113
10908TIP3    H154215   5.314   0.210  14.097  0.5752 -0.6751 -0.0257
10908TIP3    H254216   5.437   0.284  14.143  0.0108 -0.1229  0.6315
10909TIP3   OH254217   5.860   3.843  11.458  0.1489 -0.0238 -0.1116
10909TIP3    H154218   5.863   3.887  11.374  1.4537  1.6338  0.7388
10909TIP3    H254219   5.855   3.749  11.437 -2.4375  0.4248 -1.9806
10910TIP3   OH254220   0.899   2.657  13.590  0.3782  0.7506 -0.5182
10910TIP3    H154221   0.850   2.583  13.626 -0.4572  1.6724  0.3266
10910TIP3    H254222   0.919   2.632  13.500 -2.0491  0.4820 -1.0564
10911TIP3   OH254223   5.299   1.796  16.537  0.4870 -0.0173 -0.5967
10911TIP3    H154224   5.282   1.854  16.612 -0.1527  1.1571 -1.6165
10911TIP3    H254225   5.333   1.716  16.576  1.1381  0.9349  0.8958
10912TIP3   OH254226   3.089   6.488   3.529 -0.5090  0.0644  0.5763
10912TIP3    H154227   3.084   6.465   3.436 -0.3813 -0.5946  0.7264
10912TIP3    H254228   3.051   6.413   3.574 -0.5812  0.3873  1.0574
10913TIP3   OH254229   0.007   5.348  12.641  0.2395  0.2174  0.0830
10913TIP3    H154230  -0.074   5.355  12.591 -1.5163  1.4043  2.8246
10913TIP3    H254231   0.065   5.414  12.604  0.4166 -1.2807 -2.5352
10914TIP3   OH254232   1.387   4.366   2.421 -0.1722  0.0042  0.0946
10914TIP3    H154233   1.350   4.446   2.384 -0.2581 -0.4492 -0.8155
10914TIP3    H254234   1.418   4.316   2.345 -0.3234 -0.9316  0.6329
10915TIP3   OH254235   5.725   1.467   4.395  0.1926  0.3750 -0.3049
10915TIP3    H154236   5.682   1.449   4.479  1.5449  0.1475  0.3536
10915TIP3    H254237   5.662   1.434   4.330  1.6152 -5.5469  0.7071
10916TIP3   OH254238   5.219   5.591  17.205  0.2984 -0.4672 -0.6632
10916TIP3    H154239   5.156   5.637  17.261 -0.1458  0.1264 -1.6206
10916TIP3    H254240   5.265   5.532  17.265 -1.0435 -0.7965  0.1015
10917TIP3   OH254241   1.213   3.697   6.339 -0.1356  0.4683  0.2290
10917TIP3    H154242   1.181   3.758   6.272  1.3329 -0.9139 -1.8366
10917TIP3    H254243   1.299   3.730   6.363 -0.6541  0.9620  1.5203
10918TIP3   OH254244   1.914   4.677   2.404  0.1472  0.0821 -0.1425
10918TIP3    H154245   1.966   4.754   2.426 -0.5468  0.7981 -0.9138
10918TIP3    H254246   1.838   4.712   2.358  0.1828 -1.1169 -1.1684
10919TIP3   OH254247   5.790   2.611  12.678 -0.1721  0.4427  0.0047
10919TIP3    H154248   5.799   2.641  12.588 -0.8585 -0.8355 -0.5101
10919TIP3    H254249   5.714   2.659  12.712 -1.8069 -1.2284 -1.0877
10920TIP3   OH254250   3.740   1.326  15.848  0.2302 -0.4078 -0.5710
10920TIP3    H154251   3.712   1.323  15.756  0.2397 -0.9864 -0.5564
10920TIP3    H254252   3.762   1.236  15.869 -0.6377 -0.4346  0.2703
10921TIP3   OH254253   2.217   5.235  12.844  0.1842  0.1768 -0.4062
10921TIP3    H154254   2.234   5.289  12.766 -0.9106  0.3473 -0.5388
10921TIP3    H254255   2.153   5.171  12.815  0.5513 -0.4202  0.0888
10922TIP3   OH254256   2.463   6.299  13.321  0.3017  0.5112 -0.3762
10922TIP3    H154257   2.532   6.352  13.281  1.2607  0.0089  0.5531
10922TIP3    H254258   2.488   6.209  13.302  2.2451  0.0624  3.3783
10923TIP3   OH254259   1.323   5.219  15.725  0.0500  0.6187  0.1208
10923TIP3    H154260   1.303   5.253  15.812 -0.6606  1.4657 -0.3669
10923TIP3    H254261   1.240   5.222  15.678  0.6369  1.1336 -0.9114
10924TIP3   OH254262   3.440   4.247  14.917 -0.2760 -0.7446  0.2207
10924TIP3    H154263   3.512   4.277  14.861  1.5810  0.6827  3.0891
10924TIP3    H254264   3.366   4.302  14.892  1.1263  1.4386  0.5931
10925TIP3   OH254265   2.952   6.771  14.451  0.0782 -0.0779  0.4340
10925TIP3    H154266   3.037   6.731  14.434  0.2214 -0.0216  0.9994
10925TIP3    H254267   2.893   6.732  14.386  0.2809 -0.9798  0.7794
10926TIP3   OH254268   2.451   3.812   0.748  0.1338  0.1705  0.3605
10926TIP3    H154269   2.521   3.798   0.812  0.4863 -1.4458 -0.3485
10926TIP3    H254270   2.493   3.798   0.663 -1.2592 -1.9172 -0.0339
10927TIP3   OH254271   6.507   2.937   4.617  0.4782  0.2271  0.2714
10927TIP3    H154272   6.570   2.975   4.679  0.1321 -0.2674  0.9325
10927TIP3    H254273   6.491   3.008   4.554  1.4830  0.4502  0.2497
10928TIP3   OH254274   2.767   3.642  16.985  0.1613 -0.5017 -0.0512
10928TIP3    H154275   2.718   3.574  17.031  0.8239 -1.2563 -0.4202
10928TIP3    H254276   2.740   3.633  16.894 -0.3983  0.3189  0.0294
10929TIP3   OH254277   6.710   2.247  11.400 -0.5340  0.3896 -0.1951
10929TIP3    H154278   6.745   2.230  11.487 -0.6211 -0.7628 -0.3739
10929TIP3    H254279   6.616   2.230  11.408 -0.7250  1.3483 -0.2557
10930TIP3   OH254280   4.282   2.791   1.389 -0.7488  0.4791 -0.5280
10930TIP3    H154281   4.356   2.836   1.430 -0.6203 -1.7798  1.9849
10930TIP3    H254282   4.323   2.734   1.324 -0.3729  0.1181  0.0163
10931TIP3   OH254283   2.325   1.214   0.022 -0.1989 -1.1502 -0.4859
10931TIP3    H154284   2.291   1.195  -0.065  0.8784 -2.5250 -0.6558
10931TIP3    H254285   2.315   1.131   0.070  0.7364 -0.9012  0.1698
10932TIP3   OH254286   3.880   5.328   0.891  0.5167 -0.4951  0.1487
10932TIP3    H154287   3.915   5.372   0.969  1.2015 -0.7363 -0.0088
10932TIP3    H254288   3.931   5.365   0.819 -1.9493  1.7702 -0.5715
10933TIP3   OH254289   0.260   2.616  14.173  0.4953 -0.3669 -0.2487
10933TIP3    H154290   0.352   2.604  14.197  1.1390  1.9412 -1.3595
10933TIP3    H254291   0.216   2.637  14.255  1.4248  0.8954 -0.0547
10934TIP3   OH254292   4.429   6.710   0.860  0.3957  0.3275  0.0285
10934TIP3    H154293   4.398   6.705   0.950  1.0027  0.0686  0.2302
10934TIP3    H254294   4.422   6.621   0.827  2.2409 -0.0567  0.5446
10935TIP3   OH254295   2.618   6.757   2.431  0.1804 -0.1062  0.1915
10935TIP3    H154296   2.608   6.739   2.337 -1.2759  0.0904  0.2832
10935TIP3    H254297   2.695   6.813   2.437  0.4477 -0.3376 -0.8537
10936TIP3   OH254298   3.942   5.038   1.599 -0.1771  0.3338 -0.1435
10936TIP3    H154299   3.853   5.005   1.588 -0.3818  0.4626  1.0012
10936TIP3    H254300   3.932   5.132   1.610  0.2623  0.5944 -1.6914
10937TIP3   OH254301   5.128   4.478   1.401 -0.3387 -0.5609  0.1753
10937TIP3    H154302   5.079   4.435   1.331  1.4286 -1.8504 -0.3393
10937TIP3    H254303   5.088   4.445   1.482 -1.8932  0.3426 -0.1937
10938TIP3   OH254304   3.837   4.835   7.024 -0.1183  0.0402 -0.0301
10938TIP3    H154305   3.834   4.883   6.941 -1.1707 -1.3619 -0.8470
10938TIP3    H254306   3.881   4.753   7.003 -1.8317 -1.0376  0.3691
10939TIP3   OH254307   2.571   4.661  12.217  0.7636  0.4008 -0.4045
10939TIP3    H154308   2.512   4.726  12.180 -0.1022 -1.3166 -2.1836
10939TIP3    H254309   2.575   4.682  12.310 -1.1988  1.6704 -0.5752
10940TIP3   OH254310   6.565   5.603   3.029  0.0124  0.3116 -0.0543
10940TIP3    H154311   6.515   5.633   2.953  1.0819  1.4071 -0.3531
10940TIP3    H254312   6.570   5.679   3.087  0.2618 -0.1570  0.5574
10941TIP3   OH254313   2.652   5.737   0.180  0.0247  0.0757 -0.3599
10941TIP3    H154314   2.608   5.757   0.097 -1.2078 -0.8243  0.0373
10941TIP3    H254315   2.740   5.711   0.155 -0.8649 -2.0251 -1.6287
10942TIP3   OH254316   5.693   1.408  10.943 -0.0979 -0.1335  0.2578
10942TIP3    H154317   5.640   1.352  10.885  1.3071  0.0939 -1.3359
10942TIP3    H254318   5.756   1.348  10.982 -0.1468 -0.0574  0.4516
10943TIP3   OH254319   2.065   1.268   0.597  0.4998 -0.2241  0.7245
10943TIP3    H154320   2.040   1.195   0.653 -1.4743 -0.9978 -1.0756
10943TIP3    H254321   2.081   1.229   0.511  0.2307  1.3449 -0.0778
10944TIP3   OH254322   2.816   0.471   0.024  0.3818  0.0047 -0.1593
10944TIP3    H154323   2.813   0.544  -0.038  1.0384  1.5854  1.5953
10944TIP3    H254324   2.905   0.437   0.016  0.3095 -0.1296 -0.4256
10945TIP3   OH254325   5.211   6.380  16.623  0.2262 -0.6060  0.7802
10945TIP3    H154326   5.233   6.303  16.677  0.4253 -0.4266  0.9590
10945TIP3    H254327   5.136   6.420  16.668  1.3032  0.3824  1.7774
10946TIP3   OH254328   1.491   2.393   2.509  0.4754  0.3804  0.5444
10946TIP3    H154329   1.586   2.384   2.512  0.8150  2.5204 -0.9835
10946TIP3    H254330   1.472   2.469   2.564 -0.3067  0.1136  0.6508
10947TIP3   OH254331   5.213   3.969   3.081 -0.7300  0.2160  0.1460
10947TIP3    H154332   5.304   3.953   3.057 -0.4891  0.9609  0.5194
10947TIP3    H254333   5.212   4.058   3.115 -1.0961 -0.6107  2.5439
10948TIP3   OH254334   1.169   3.257  13.146  0.1598 -0.1988 -0.0590
10948TIP3    H154335   1.257   3.293  13.146 -0.1242  0.5845 -1.9396
10948TIP3    H254336   1.122   3.308  13.212  0.5830  0.7627 -0.4988
10949TIP3   OH254337   1.650   0.879   1.841  0.1138  1.0556  0.0673
10949TIP3    H154338   1.594   0.917   1.774  0.1816 -0.0833 -0.6735
10949TIP3    H254339   1.734   0.923   1.830 -0.5523  2.6143  1.0379
10950TIP3   OH254340   0.017   0.211  14.141  0.2610  0.6816  0.1200
10950TIP3    H154341   0.031   0.253  14.057  0.1689  1.9284  0.7055
10950TIP3    H254342   0.100   0.221  14.188 -0.2501  1.6532  0.8581
10951TIP3   OH254343   3.873   2.039   0.024  0.9544 -0.0676  0.3075
10951TIP3    H154344   3.921   1.961  -0.003  0.2924  0.2084 -1.8725
10951TIP3    H254345   3.926   2.112  -0.008  0.8069  0.3367  0.9752
10952TIP3   OH254346   6.161   0.061   2.291 -0.3562 -0.3297 -0.3685
10952TIP3    H154347   6.076   0.018   2.300 -0.8894  0.1054 -2.5787
10952TIP3    H254348   6.140   0.150   2.263  0.8077  0.2945  0.6634
10953TIP3   OH254349   1.159   1.032   1.496  0.4065  0.2889  0.1156
10953TIP3    H154350   1.077   1.071   1.528  0.1079  1.3534 -1.8011
10953TIP3    H254351   1.142   0.938   1.493 -0.2482  0.3681  1.0615
10954TIP3   OH254352   4.765   6.167   3.937  0.0457  0.4372 -0.4855
10954TIP3    H154353   4.767   6.218   4.018  0.2251 -0.3145 -0.0100
10954TIP3    H254354   4.672   6.155   3.918  0.0047  0.5878 -0.3819
10955TIP3   OH254355   2.310   1.597   0.709 -0.1370 -0.0722  0.1858
10955TIP3    H154356   2.243   1.578   0.643 -1.2324 -1.8978  1.7141
10955TIP3    H254357   2.268   1.659   0.768 -0.6349 -1.4058  1.2841
10956TIP3   OH254358   6.181   0.716  12.093 -0.3024 -0.4573 -0.4997
10956TIP3    H154359   6.132   0.678  12.020  2.2845 -1.9265 -1.6061
10956TIP3    H254360   6.154   0.808  12.095 -1.1155 -0.5835 -2.7232
10957TIP3   OH254361   5.374   6.642  16.803  0.6174  0.0119 -0.5658
10957TIP3    H154362   5.461   6.605  16.815  1.6016  2.0596 -0.9909
10957TIP3    H254363   5.359   6.695  16.881 -1.2804 -2.0888  0.6114
10958TIP3   OH254364   5.988   1.506   6.087  0.1108  0.1843  0.3039
10958TIP3    H154365   6.059   1.514   6.151 -0.7181 -0.9642  1.4178
10958TIP3    H254366   6.016   1.560   6.013  1.1378  1.4946  1.5984
10959TIP3   OH254367   4.700   4.579  14.465  0.0208 -0.1663  0.6272
10959TIP3    H154368   4.734   4.643  14.528  2.1844 -1.5876  1.0119
10959TIP3    H254369   4.772   4.565  14.404 -0.3277 -2.2898  0.6231
10960TIP3   OH254370   4.918   0.999  14.533  0.5188 -0.2968 -0.3576
10960TIP3    H154371   4.948   0.966  14.448  0.3702 -0.0891 -0.4917
10960TIP3    H254372   4.830   0.964  14.543  0.9711 -1.3166  0.2599
10961TIP3   OH254373   4.427   4.890  12.838 -0.2919 -0.3057  0.4953
10961TIP3    H154374   4.504   4.845  12.873  0.0313  0.8813  1.3849
10961TIP3    H254375   4.459   4.975  12.809 -1.2861  0.2696  1.0080
10962TIP3   OH254376   0.844   3.100   0.849 -0.3083 -0.0409  0.1490
10962TIP3    H154377   0.811   3.181   0.890  1.7587 -0.1503  2.2349
10962TIP3    H254378   0.783   3.032   0.879 -1.9904  0.6453 -1.5144
10963TIP3   OH254379   5.097   2.998  15.083  0.1089 -0.5520  0.0925
10963TIP3    H154380   5.040   3.068  15.115 -0.0326 -0.6152 -0.0192
10963TIP3    H254381   5.185   3.030  15.098  0.0554  0.0576 -0.8259
10964TIP3   OH254382   4.231   4.264  13.748 -0.2472 -0.6342  0.0210
10964TIP3    H154383   4.173   4.229  13.680 -0.1519  1.6413 -1.3518
10964TIP3    H254384   4.312   4.286  13.702 -0.4189  1.5924  0.6432
10965TIP3   OH254385   2.384   5.562  13.828 -0.0956  0.2836  0.5208
10965TIP3    H154386   2.357   5.615  13.752  0.7032  0.8853  0.6526
10965TIP3    H254387   2.361   5.615  13.904 -1.3333 -0.5192  0.7467
10966TIP3   OH254388   4.047   1.768   3.584  0.0996 -0.3255  0.3579
10966TIP3    H154389   4.023   1.679   3.610 -0.0441 -0.5310 -0.4680
10966TIP3    H254390   4.112   1.795   3.649  0.0095 -0.9639  0.7192
10967TIP3   OH254391   1.410   1.525   5.494  0.2318 -0.0801  0.2325
10967TIP3    H154392   1.320   1.496   5.508 -1.0609  2.7001 -1.5170
10967TIP3    H254393   1.429   1.581   5.569  0.7964 -1.1400  0.9129
10968TIP3   OH254394   1.834   2.030  15.121  0.1249 -0.0183 -0.3919
10968TIP3    H154395   1.926   2.043  15.143  0.1469  0.6269 -0.8302
10968TIP3    H254396   1.828   1.938  15.095  0.5805 -0.1419 -0.0622
10969TIP3   OH254397   5.976   4.121   4.696  0.8106 -0.0729 -0.3529
10969TIP3    H154398   5.910   4.123   4.627 -1.1132  0.1030  1.3842
10969TIP3    H254399   6.016   4.208   4.693  1.9176 -0.5901 -2.2292
10970TIP3   OH254400   0.002   1.514  14.682  0.5342  0.0740 -0.5403
10970TIP3    H154401   0.060   1.571  14.632 -0.4676 -0.8222 -2.8941
10970TIP3    H254402   0.012   1.542  14.773  3.9277  0.5300 -0.9284
10971TIP3   OH254403   0.278   5.880  13.651  0.1403 -0.4349 -0.2030
10971TIP3    H154404   0.250   5.902  13.739  2.7413 -2.0314  1.1554
10971TIP3    H254405   0.299   5.964  13.610 -1.6547  0.3662  0.4353
10972TIP3   OH254406   3.392   4.162  13.261  0.2426  0.2551  0.1355
10972TIP3    H154407   3.373   4.219  13.187 -0.5040  0.0927  0.1944
10972TIP3    H254408   3.392   4.074  13.224  2.4820  0.3265 -0.1754
10973TIP3   OH254409   6.460   5.651  12.283 -0.1449  0.5012 -0.2344
10973TIP3    H154410   6.373   5.687  12.266  0.5274  2.0318 -0.6175
10973TIP3    H254411   6.513   5.727  12.307  1.1995 -0.3284 -0.4622
10974TIP3   OH254412   5.095   1.489  12.368 -0.1930  0.3442 -0.1039
10974TIP3    H154413   5.179   1.474  12.323 -0.8752  2.0621 -2.1177
10974TIP3    H254414   5.030   1.451  12.309 -0.8845 -0.8216  1.3672
10975TIP3   OH254415   3.335   4.919   5.145 -0.5496  0.4692 -0.4645
10975TIP3    H154416   3.378   4.865   5.212 -2.5196 -0.9843 -0.3045
10975TIP3    H254417   3.379   5.004   5.153 -0.6863  0.3911  2.7342
10976TIP3   OH254418   2.240   1.204  14.411  0.3927 -0.5131 -0.9407
10976TIP3    H154419   2.296   1.282  14.417 -0.1170 -0.0608 -1.9150
10976TIP3    H254420   2.152   1.236  14.428  0.0461 -0.6867 -2.3098
10977TIP3   OH254421   6.606   4.660   4.964  0.1855  0.3732 -0.5790
10977TIP3    H154422   6.633   4.718   4.893 -1.1331  0.4247 -1.0603
10977TIP3    H254423   6.511   4.669   4.968  0.2844  1.2873  1.9811
10978TIP3   OH254424   5.875   1.583   0.279  0.2317  0.0844  0.0238
10978TIP3    H154425   5.941   1.647   0.251 -0.8300  0.3686 -2.0384
10978TIP3    H254426   5.804   1.635   0.314 -1.3399  0.2978 -3.1447
10979TIP3   OH254427   6.730   4.309   3.798 -0.3262  0.0747  0.2943
10979TIP3    H154428   6.688   4.229   3.829 -2.2399  1.1571  0.6787
10979TIP3    H254429   6.754   4.356   3.877  1.7079 -0.5249  0.0752
10980TIP3   OH254430   0.537   5.777  14.730  0.4371 -0.1545  0.8873
10980TIP3    H154431   0.465   5.805  14.786 -2.9549 -0.1794 -3.0345
10980TIP3    H254432   0.602   5.741  14.791 -1.3498  2.7488  4.9445
10981TIP3   OH254433   2.041   2.172   1.351 -0.2934  0.2722 -0.9123
10981TIP3    H154434   2.106   2.232   1.388  0.1412  0.6408 -2.2334
10981TIP3    H254435   2.059   2.172   1.257 -1.6856 -0.2532 -1.1974
10982TIP3   OH254436   1.859   5.268  16.331 -0.4190  0.8532 -0.1877
10982TIP3    H154437   1.881   5.260  16.238 -1.2043 -1.2109 -0.2417
10982TIP3    H254438   1.770   5.302  16.331 -1.3814 -1.4512 -0.3421
10983TIP3   OH254439   3.854   5.459   3.615  0.0691  0.3406 -1.2521
10983TIP3    H154440   3.896   5.378   3.585 -0.4947  1.5026 -6.0104
10983TIP3    H254441   3.761   5.446   3.595 -0.0516  2.0338 -1.9233
10984TIP3   OH254442   0.297   5.433  16.214  0.3089 -0.3599  0.1006
10984TIP3    H154443   0.341   5.445  16.298 -0.3469  1.5378  0.2160
10984TIP3    H254444   0.204   5.442  16.235  0.1239 -0.2226 -0.7619
10985TIP3   OH254445   1.990   2.290   3.541  0.7739 -0.1649  0.4153
10985TIP3    H154446   1.912   2.319   3.494  1.7427  1.5545 -0.2487
10985TIP3    H254447   2.022   2.368   3.585  2.6188 -0.5722 -0.0980
10986TIP3   OH254448   1.356   5.018  15.127  0.7141  0.0503 -0.2055
10986TIP3    H154449   1.415   5.009  15.052  0.7065 -0.2150 -0.1829
10986TIP3    H254450   1.299   4.941  15.121 -0.9444  1.3121 -1.3686
10987TIP3   OH254451   0.251   1.414  11.952 -0.1973  0.0800 -0.2928
10987TIP3    H154452   0.303   1.493  11.937 -0.9289  0.6219 -0.0154
10987TIP3    H254453   0.314   1.343  11.945  0.6795  0.7517  0.4730
10988TIP3   OH254454   5.187   2.851  15.682 -0.5760 -0.4138 -0.3274
10988TIP3    H154455   5.243   2.896  15.747 -1.0647  0.9429 -0.8060
10988TIP3    H254456   5.185   2.760  15.711  0.3167 -0.1028  0.7951
10989TIP3   OH254457   2.706   5.955  11.588 -0.3245  0.3012 -0.0199
10989TIP3    H154458   2.679   6.028  11.531 -0.8812  0.4526  0.4306
10989TIP3    H254459   2.784   5.988  11.633 -1.3490  1.1656  1.2113
10990TIP3   OH254460   0.411   3.735  11.434  0.3980 -0.1640 -0.2664
10990TIP3    H154461   0.407   3.829  11.414  0.6759 -0.1661 -0.3390
10990TIP3    H254462   0.376   3.729  11.523 -0.6095 -0.1269 -0.6538
10991TIP3   OH254463   0.176   6.073   2.920  0.0407  0.0553  0.3382
10991TIP3    H154464   0.184   6.077   2.824 -1.3955 -0.8132  0.1416
10991TIP3    H254465   0.104   6.010   2.935 -0.6998  1.2150  1.9442
10992TIP3   OH254466   0.786   3.801   4.937  0.6620  0.4279 -0.0916
10992TIP3    H154467   0.843   3.809   5.014  1.1137 -1.5066 -0.1674
10992TIP3    H254468   0.708   3.852   4.959  0.2701 -1.0175  2.1712
10993TIP3   OH254469   1.370   5.705   0.683  0.0958 -0.8919  0.2326
10993TIP3    H154470   1.447   5.759   0.702 -0.6974 -0.5706  2.9133
10993TIP3    H254471   1.407   5.622   0.653  1.4122 -0.0434 -0.6143
10994TIP3   OH254472   3.405   2.406  15.629  0.3999 -0.6987 -0.1909
10994TIP3    H154473   3.452   2.361  15.699 -0.1048  1.2662  1.5193
10994TIP3    H254474   3.474   2.440  15.572  0.8141 -2.3591 -0.7263
10995TIP3   OH254475   1.056   0.083  13.539 -0.2445 -0.1940  0.0889
10995TIP3    H154476   1.012   0.155  13.493 -1.1653 -1.3873 -0.9694
10995TIP3    H254477   1.143   0.079  13.500 -0.1302  0.4267  0.2641
10996TIP3   OH254478   0.023   0.348  16.102 -0.0380  0.4339  0.1954
10996TIP3    H154479  -0.061   0.308  16.122  0.0578  0.8087  1.3950
10996TIP3    H254480   0.072   0.279  16.057 -0.9900  0.2376 -0.5797
10997TIP3   OH254481   5.007   4.621  15.764 -0.2184 -0.0273  0.1082
10997TIP3    H154482   5.051   4.600  15.682  0.2155 -0.7656  0.5137
10997TIP3    H254483   4.926   4.665  15.738  0.0326 -0.0316 -0.6992
10998TIP3   OH254484   2.925   4.426  14.888 -0.4908 -0.0962  0.1391
10998TIP3    H154485   2.898   4.409  14.798 -0.9868  1.1771  0.0150
10998TIP3    H254486   3.008   4.473  14.880 -0.9181  0.7012  0.3028
10999TIP3   OH254487   5.644   6.491   5.723 -0.4470  0.6913  0.0091
10999TIP3    H154488   5.733   6.524   5.734 -0.5746  0.9358  0.3378
10999TIP3    H254489   5.604   6.501   5.810 -0.9492  1.0585 -0.2579
11000TIP3   OH254490   0.349   2.331  12.249 -0.2917 -0.0210  0.3941
11000TIP3    H154491   0.350   2.417  12.207  1.0619 -0.5320 -0.6971
11000TIP3    H254492   0.304   2.275  12.186  0.2470 -0.4415  0.3798
11001TIP3   OH254493   0.685   5.030   5.280 -0.3545 -0.9906 -1.1819
11001TIP3    H154494   0.749   5.100   5.296 -1.0845 -0.6394  0.3423
11001TIP3    H254495   0.635   5.062   5.205 -0.9858  0.3836 -0.2252
11002TIP3   OH254496   3.418   1.476  15.921 -0.0418  0.3561  0.2542
11002TIP3    H154497   3.491   1.493  15.981 -0.2285  1.7734  0.1278
11002TIP3    H254498   3.360   1.551  15.934 -1.6834 -0.9419  0.6290
11003TIP3   OH254499   6.563   5.913  13.226 -0.3419  0.4385  0.4846
11003TIP3    H154500   6.557   6.003  13.195 -0.1315 -0.0696 -1.1608
11003TIP3    H254501   6.585   5.920  13.319 -1.2180  2.0713  0.5986
11004TIP3   OH254502   0.141   6.362  14.264 -0.1944 -0.1964 -0.1718
11004TIP3    H154503   0.087   6.425  14.216 -0.5422 -2.1917 -2.6330
11004TIP3    H254504   0.172   6.301  14.197  3.1070 -0.6100  1.5224
11005TIP3   OH254505   5.120   4.241   2.103 -0.4075  0.4220 -0.2670
11005TIP3    H154506   5.158   4.195   2.178 -1.7326  1.4907  1.1238
11005TIP3    H254507   5.071   4.313   2.142 -0.0766  1.7974 -2.2606
11006TIP3   OH254508   4.898   5.552   1.667 -0.4704  0.1011  0.0709
11006TIP3    H154509   4.939   5.511   1.590 -1.4554 -1.9701  0.5748
11006TIP3    H254510   4.804   5.548   1.649 -0.6605  0.5968  0.9262
11007TIP3   OH254511   2.011   2.471  11.856  0.0584  0.3937 -0.4806
11007TIP3    H154512   2.066   2.402  11.894  0.3044 -0.0688 -1.6433
11007TIP3    H254513   2.018   2.459  11.761 -0.4356  1.6031 -0.6955
11008TIP3   OH254514   1.999   5.944   1.429  0.4872  0.3234  0.1458
11008TIP3    H154515   2.002   5.849   1.431  2.1505  0.3540  0.2521
11008TIP3    H254516   2.077   5.972   1.477  2.5972  1.6892 -3.6003
11009TIP3   OH254517   5.919   3.345   0.105 -0.1715  0.4682  0.1906
11009TIP3    H154518   5.855   3.401   0.148  0.9746  1.7617  0.2793
11009TIP3    H254519   5.895   3.256   0.131 -0.7752  1.0600  1.7714
11010TIP3   OH254520   0.167   0.551  15.493  0.0980  0.0541  0.1577
11010TIP3    H154521   0.090   0.509  15.456  0.4099 -0.2268 -0.1856
11010TIP3    H254522   0.175   0.513  15.581  0.1443 -0.3019 -0.0002
11011TIP3   OH254523   0.407   0.384   2.614 -0.3140 -0.5757 -0.3567
11011TIP3    H154524   0.464   0.388   2.538  1.3887  0.5549  0.9062
11011TIP3    H254525   0.378   0.474   2.628 -1.0491 -0.8583  0.0266
11012TIP3   OH254526   2.020   3.838  15.222 -0.0201 -0.3871  0.1634
11012TIP3    H154527   1.928   3.864  15.225 -0.3860 -1.6437  0.6683
11012TIP3    H254528   2.068   3.920  15.210 -1.2597  0.1599 -1.3732
11013TIP3   OH254529   0.668   5.105  15.162 -0.2230 -0.1574 -0.4486
11013TIP3    H154530   0.740   5.165  15.179 -0.2163  0.6245 -2.9104
11013TIP3    H254531   0.630   5.135  15.079 -1.6154 -2.2377 -0.6470
11014TIP3   OH254532   2.577   3.020   6.172  0.3099  0.5336 -0.7336
11014TIP3    H154533   2.642   3.078   6.133  0.1484 -0.8970 -3.3597
11014TIP3    H254534   2.493   3.062   6.153  0.2596  0.0949 -1.5268
11015TIP3   OH254535   6.309   5.849  12.719  0.0317  0.1225 -0.0114
11015TIP3    H154536   6.245   5.799  12.770  0.2011  0.5443  0.6287
11015TIP3    H254537   6.256   5.906  12.664 -0.1545 -0.3308 -0.3100
11016TIP3   OH254538   0.553   6.121  14.523  0.2749 -0.6609  0.2896
11016TIP3    H154539   0.474   6.117  14.577  0.8521 -2.1432  1.0795
11016TIP3    H254540   0.625   6.127  14.585  0.8313  0.0191 -0.4023
11017TIP3   OH254541   4.489   4.642  14.295  0.8358  0.4504  0.7742
11017TIP3    H154542   4.430   4.650  14.370  0.3173 -0.5676  0.4816
11017TIP3    H254543   4.572   4.613  14.333  0.1260 -1.7172  0.8305
11018TIP3   OH254544   2.209   3.306  12.351  0.7769  0.0304 -0.1411
11018TIP3    H154545   2.186   3.310  12.443  0.6473 -0.2641 -0.1610
11018TIP3    H254546   2.147   3.244  12.313  1.1685 -0.2518 -0.3219
11019TIP3   OH254547   4.551   1.532   5.115 -0.1528  0.3231  0.5115
11019TIP3    H154548   4.526   1.618   5.150 -1.3136  0.3793 -0.4042
11019TIP3    H254549   4.646   1.538   5.102 -0.2558  1.5722  0.2146
11020TIP3   OH254550   3.393   0.499  16.641  0.3220  0.7109  0.8143
11020TIP3    H154551   3.398   0.429  16.576 -1.0214  1.6976 -0.4088
11020TIP3    H254552   3.396   0.454  16.725 -1.8359 -0.9694  0.0794
11021TIP3   OH254553   2.861   4.352  16.363  0.5245 -0.0512 -0.2055
11021TIP3    H154554   2.879   4.423  16.425  1.8741  0.2843 -0.9323
11021TIP3    H254555   2.813   4.287  16.414 -0.4893  1.2396  0.5567
11022TIP3   OH254556   0.689   1.639  13.112  0.0464  0.1160  0.2075
11022TIP3    H154557   0.771   1.647  13.065  0.3848 -1.1011  0.5532
11022TIP3    H254558   0.676   1.725  13.153  1.1759  0.3024  0.1997
11023TIP3   OH254559   1.314   0.915   5.265 -0.4343  0.3043 -0.0884
11023TIP3    H154560   1.316   0.894   5.172 -1.6850 -0.1538 -0.0331
11023TIP3    H254561   1.221   0.920   5.287 -0.1603  0.8724  1.0372
11024TIP3   OH254562   0.537   0.211   0.098  0.2897  0.0963  0.3024
11024TIP3    H154563   0.476   0.276   0.133  0.2675 -0.9035  2.2605
11024TIP3    H254564   0.604   0.203   0.166  0.3442 -1.8544  0.0526
11025TIP3   OH254565   0.750   3.530  14.102  0.6960 -0.6268  0.0222
11025TIP3    H154566   0.810   3.576  14.160  1.5621 -2.4326  0.6442
11025TIP3    H254567   0.770   3.564  14.015 -0.2483  1.7261  0.6334
11026TIP3   OH254568   0.354   2.429   5.755 -0.0203 -0.8097 -0.1010
11026TIP3    H154569   0.433   2.440   5.702  1.0712  2.7939  1.9665
11026TIP3    H254570   0.292   2.493   5.719 -2.2731 -3.6239 -1.7427
11027TIP3   OH254571   5.584   0.820   0.164 -0.0124  0.1376  0.6772
11027TIP3    H154572   5.646   0.863   0.222  0.1546 -0.3743  0.8831
11027TIP3    H254573   5.498   0.841   0.201  0.1397 -1.7919  2.2861
11028TIP3   OH254574   3.704   1.184   3.396  0.8282 -0.4189 -0.0256
11028TIP3    H154575   3.642   1.113   3.388  2.8919 -2.5158  1.3125
11028TIP3    H254576   3.750   1.186   3.312  0.5916 -0.4646 -0.1570
11029TIP3   OH254577   1.376   5.495  14.599  0.2020  0.5811 -0.3701
11029TIP3    H154578   1.456   5.541  14.573  1.1367 -1.3673 -1.1134
11029TIP3    H254579   1.306   5.538  14.549  0.4318  3.3307  1.4201
11030TIP3   OH254580   3.195   5.473  11.633 -0.1090  0.3646  0.2379
11030TIP3    H154581   3.122   5.416  11.656 -0.5890  1.1166  0.6556
11030TIP3    H254582   3.217   5.518  11.715  0.1007  0.9395 -0.1225
11031TIP3   OH254583   4.286   4.208   0.076 -0.0109 -0.8283 -0.1359
11031TIP3    H154584   4.334   4.285   0.044 -0.1751 -0.7081 -0.0940
11031TIP3    H254585   4.264   4.230   0.167 -0.0580 -0.9253 -0.1245
11032TIP3   OH254586   5.627   0.462  16.241 -0.3055  0.0859 -0.4097
11032TIP3    H154587   5.690   0.430  16.306 -0.8135  0.2847  0.1835
11032TIP3    H254588   5.614   0.387  16.183  1.3230  0.3798 -1.2185
11033TIP3   OH254589   6.411   0.315   4.991 -0.8236  0.0708  0.0501
11033TIP3    H154590   6.424   0.249   4.924  1.2426 -0.0268  0.4822
11033TIP3    H254591   6.411   0.266   5.074 -2.1626  0.3213  0.2249
11034TIP3   OH254592   6.130   2.691   4.152  0.0262 -0.0336  0.5833
11034TIP3    H154593   6.137   2.777   4.193 -3.5600  0.2761  0.8300
11034TIP3    H254594   6.155   2.707   4.060  3.7478  0.1724  1.4396
11035TIP3   OH254595   4.351   5.603  14.156  0.8748  0.1624  0.2081
11035TIP3    H154596   4.443   5.609  14.182  0.2717  0.9956  2.3144
11035TIP3    H254597   4.321   5.519  14.191  1.1379 -0.7957 -1.7109
11036TIP3   OH254598   0.924   2.081  13.892 -0.2634  0.2361  0.2293
11036TIP3    H154599   0.979   2.047  13.963 -0.8774  0.3134  0.7490
11036TIP3    H254600   0.834   2.062  13.920 -0.5359  0.7525 -0.2785
11037TIP3   OH254601   0.442   5.985   1.357  0.6422  0.5732  0.1852
11037TIP3    H154602   0.477   6.070   1.329  0.5060  0.9067  0.9838
11037TIP3    H254603   0.477   5.973   1.446  1.2724 -0.5697 -0.2060
11038TIP3   OH254604   2.408   0.501   4.316  0.3821 -0.2496  0.3788
11038TIP3    H154605   2.494   0.528   4.284  0.1140  0.1803  0.0003
11038TIP3    H254606   2.378   0.573   4.370 -0.6838  0.6312 -1.2847
11039TIP3   OH254607   5.900   6.576  15.212  0.5492 -0.5214  0.2602
11039TIP3    H154608   5.854   6.514  15.269 -0.0651 -0.2612  0.0480
11039TIP3    H254609   5.892   6.539  15.124  0.5449 -0.3570  0.1907
11040TIP3   OH254610   4.583   0.427  14.660  0.1157  0.0754 -0.0085
11040TIP3    H154611   4.623   0.420  14.573 -1.8726  0.0267 -0.9631
11040TIP3    H254612   4.592   0.339  14.698  0.2753 -0.1136 -0.4785
11041TIP3   OH254613   4.676   0.090  17.220  0.9725  0.5237 -0.0664
11041TIP3    H154614   4.716   0.081  17.133  0.8299  1.3251 -0.2162
11041TIP3    H254615   4.745   0.062  17.281  1.4012  0.8978 -0.3819
11042TIP3   OH254616   2.128   0.434   1.330  0.2489  0.1915 -0.5936
11042TIP3    H154617   2.146   0.340   1.330 -0.0943  0.1218 -0.5480
11042TIP3    H254618   2.034   0.440   1.350  0.8323  0.6599  2.6015
11043TIP3   OH254619   0.189   4.068  16.514  0.1623  0.2413  0.6266
11043TIP3    H154620   0.108   4.036  16.552 -0.3213  1.5727  0.7549
11043TIP3    H254621   0.245   3.990  16.508 -0.1057 -0.2181  3.0851
11044TIP3   OH254622   6.188   1.099  14.732 -0.2915 -0.0931 -0.6145
11044TIP3    H154623   6.121   1.030  14.730 -1.0322  0.5803 -3.3180
11044TIP3    H254624   6.138   1.181  14.735  0.2005  0.4603 -3.6241
11045TIP3   OH254625   2.609   3.937  14.277  0.8460 -0.7624  0.0337
11045TIP3    H154626   2.703   3.946  14.293  0.5072  2.3963  0.9861
11045TIP3    H254627   2.601   3.941  14.182  1.6107  1.4509 -0.0119
11046TIP3   OH254628   1.772   2.906   5.970 -0.6534 -1.0123  0.4685
11046TIP3    H154629   1.805   2.817   5.984 -1.2379 -1.2393  0.4303
11046TIP3    H254630   1.794   2.953   6.051  0.7094 -0.8508  0.0425
11047TIP3   OH254631   4.915   4.660  15.189 -0.3029 -0.0211 -0.2296
11047TIP3    H154632   4.942   4.590  15.131  1.8122  0.6846 -0.1578
11047TIP3    H254633   4.938   4.741  15.143 -3.4584  0.7519 -0.7008
11048TIP3   OH254634   2.443   6.642  15.028 -0.3114 -0.0373 -0.0317
11048TIP3    H154635   2.516   6.593  14.989  1.0016  2.3374 -0.7289
11048TIP3    H254636   2.392   6.674  14.954 -0.6530  0.3911  0.3827
11049TIP3   OH254637   5.640   1.410  16.466 -0.5144 -0.3276 -0.0366
11049TIP3    H154638   5.579   1.340  16.444  0.0435 -0.4470 -1.2814
11049TIP3    H254639   5.727   1.372  16.450 -0.1857  0.4817 -0.2086
11050TIP3   OH254640   4.834   4.275   5.575 -0.3037 -0.5054 -0.1817
11050TIP3    H154641   4.862   4.208   5.636  0.1104 -2.6145 -2.5044
11050TIP3    H254642   4.763   4.234   5.525 -1.1780  1.4100 -0.6122
11051TIP3   OH254643   4.756   4.021   1.227  0.0742 -0.1590  0.5147
11051TIP3    H154644   4.842   4.054   1.253 -0.2394  1.6970 -0.5898
11051TIP3    H254645   4.768   3.987   1.139 -0.4633  0.8492  0.0368
11052TIP3   OH254646   3.891   3.811   4.796 -0.1981  0.0241  0.2998
11052TIP3    H154647   3.833   3.862   4.853 -0.6640  0.3385 -0.4387
11052TIP3    H254648   3.896   3.862   4.716  1.1524  0.0221  0.3624
11053TIP3   OH254649   1.376   4.341   3.769  0.8538 -0.7446 -0.5491
11053TIP3    H154650   1.334   4.286   3.702 -1.7708  0.2957  0.0910
11053TIP3    H254651   1.459   4.368   3.729  0.2126 -1.6172 -2.6344
11054TIP3   OH254652   5.584   6.217   3.221 -0.2018  0.3722 -0.4458
11054TIP3    H154653   5.678   6.204   3.234 -0.2270 -0.8104 -1.2671
11054TIP3    H254654   5.556   6.140   3.172 -2.0108 -0.3126  1.5412
11055TIP3   OH254655   6.483   6.420   0.508  0.4568 -0.3184 -0.1373
11055TIP3    H154656   6.477   6.353   0.440  0.7666  0.5583 -1.0467
11055TIP3    H254657   6.419   6.486   0.482 -0.3550 -0.5594  1.1301
11056TIP3   OH254658   1.320   0.970  17.026  0.1900  0.1191  0.2897
11056TIP3    H154659   1.317   1.051  16.975 -0.4578  0.3914  0.7497
11056TIP3    H254660   1.366   0.908  16.970  0.2458  0.6649 -0.2733
11057TIP3   OH254661   4.872   4.309   2.933  0.2806 -0.4182  0.1397
11057TIP3    H154662   4.806   4.243   2.912  0.5853 -0.2098 -1.6151
11057TIP3    H254663   4.840   4.389   2.892  2.0591 -0.5359 -1.6052
11058TIP3   OH254664   3.970   3.993   5.983 -0.1167  0.0732  0.1875
11058TIP3    H154665   4.052   3.962   6.023 -1.0292  0.0681  2.1867
11058TIP3    H254666   3.925   3.912   5.958 -0.6147 -0.0894  1.4911
11059TIP3   OH254667   5.373   3.370  14.919  0.6939 -0.3054 -0.3183
11059TIP3    H154668   5.425   3.398  14.994  0.7477  0.2667 -0.5686
11059TIP3    H254669   5.437   3.338  14.856  0.7102 -0.0205 -0.4468
11060TIP3   OH254670   4.501   1.055   2.245  0.3488 -0.2205  0.1091
11060TIP3    H154671   4.472   0.965   2.233 -0.7762  0.3258 -1.6452
11060TIP3    H254672   4.537   1.057   2.334 -0.4821 -2.1479  0.5371
11061TIP3   OH254673   5.052   5.467  11.819 -0.0702  0.0109  0.4366
11061TIP3    H154674   5.030   5.518  11.741  0.6910  0.6233  0.6101
11061TIP3    H254675   4.971   5.421  11.841 -0.0365 -0.9987 -1.3114
11062TIP3   OH254676   1.949   2.158   6.534 -0.4588  0.2869  0.3144
11062TIP3    H154677   2.002   2.147   6.613 -1.0004 -1.1418  0.5001
11062TIP3    H254678   2.010   2.195   6.470  0.9262 -1.6447  0.4145
11063TIP3   OH254679   1.092   4.661   2.819 -0.1853  0.4460 -0.0428
11063TIP3    H154680   1.123   4.750   2.837  0.4907  0.6593 -1.9709
11063TIP3    H254681   1.048   4.634   2.899  0.8725  1.9642  1.1070
11064TIP3   OH254682   4.392   1.153  15.112 -0.1622 -0.5247  0.2679
11064TIP3    H154683   4.398   1.095  15.188  0.7336 -0.4545  0.2598
11064TIP3    H254684   4.315   1.121  15.064 -0.5486 -0.7693  1.0292
11065TIP3   OH254685   5.675   6.407   2.956 -0.5368 -0.5149  0.3406
11065TIP3    H154686   5.593   6.418   3.005  0.2007 -0.7351  1.6930
11065TIP3    H254687   5.698   6.315   2.967  0.5077 -0.1950  1.0514
11066TIP3   OH254688   5.920   2.733   5.440  0.1784 -0.2459  0.2354
11066TIP3    H154689   5.876   2.653   5.410 -0.2385 -0.1601  0.6087
11066TIP3    H254690   5.977   2.705   5.511  0.6356 -0.3362 -0.1632
11067TIP3   OH254691   6.455   6.305   1.731 -0.2689 -0.0801 -0.7809
11067TIP3    H154692   6.481   6.213   1.733 -0.2468 -0.1812 -3.1393
11067TIP3    H254693   6.535   6.353   1.713 -0.3905  0.3487 -0.2045
11068TIP3   OH254694   0.596   6.338   0.647  0.0697  0.1984 -0.6442
11068TIP3    H154695   0.525   6.374   0.700 -0.0661 -0.6846 -0.2110
11068TIP3    H254696   0.568   6.249   0.627  0.4451  0.2884 -1.6117
11069TIP3   OH254697   6.494   2.078  14.444  0.0331  0.0642  0.0471
11069TIP3    H154698   6.411   2.090  14.492 -0.5273 -0.5015 -0.7567
11069TIP3    H254699   6.467   2.043  14.359  1.1554 -0.6916 -0.0042
11070TIP3   OH254700   3.660   2.792  13.596 -0.0587 -0.0409 -0.0385
11070TIP3    H154701   3.638   2.872  13.549 -1.6122  0.5155  1.5238
11070TIP3    H254702   3.748   2.770  13.567 -1.1503 -0.1608 -3.7286
11071TIP3   OH254703   5.998   2.764   1.561  0.2830 -0.1782  0.1247
11071TIP3    H154704   5.916   2.734   1.522  0.4630  1.1607 -1.4073
11071TIP3    H254705   6.058   2.770   1.486  1.0551  1.2003  0.8192
11072TIP3   OH254706   4.907   3.682   0.615  1.2595  0.0199 -0.5790
11072TIP3    H154707   4.893   3.591   0.643  1.1786  0.6873  1.6851
11072TIP3    H254708   4.819   3.714   0.595  1.2274 -0.1974 -0.8028
11073TIP3   OH254709   1.895   2.073   0.484 -0.4922  0.4463  0.1583
11073TIP3    H154710   1.857   2.003   0.432 -1.6066  1.9898 -1.2387
11073TIP3    H254711   1.954   2.029   0.545 -0.1887 -1.5952 -1.4817
11074TIP3   OH254712   4.988   1.192   5.155 -0.1969  0.4874  0.6308
11074TIP3    H154713   4.939   1.157   5.081 -0.8180 -0.4369  1.4384
11074TIP3    H254714   4.962   1.136   5.229  0.4536  1.3306  1.5268
11075TIP3   OH254715   6.752   0.441   5.531 -0.2611  0.3505  0.2463
11075TIP3    H154716   6.712   0.482   5.608  0.0706  0.4833  0.3490
11075TIP3    H254717   6.755   0.348   5.554 -3.9473 -0.2897 -1.2509
11076TIP3   OH254718   3.758   5.947  14.717  0.0364  0.5027 -0.1207
11076TIP3    H154719   3.803   5.975  14.797 -0.7232  0.2603  0.4017
11076TIP3    H254720   3.827   5.909  14.663  0.6223  0.9886  0.2699
11077TIP3   OH254721   4.977   5.030   4.079 -0.3760 -0.2796 -0.3529
11077TIP3    H154722   5.069   5.054   4.085 -0.3318 -0.7814  2.1387
11077TIP3    H254723   4.957   5.032   3.985  2.1072 -0.0139 -0.9324
11078TIP3   OH254724   6.602   0.558  14.781  0.1693 -0.0668 -0.1650
11078TIP3    H154725   6.637   0.503  14.851  1.6886  1.3753  0.2535
11078TIP3    H254726   6.678   0.580  14.727 -0.5000  1.1133 -0.6709
11079TIP3   OH254727   4.311   2.238   0.882  0.1372 -0.8743 -0.9204
11079TIP3    H154728   4.342   2.326   0.860  0.4301 -1.2982 -2.2939
11079TIP3    H254729   4.312   2.236   0.978 -0.6598  0.8843 -0.8401
11080TIP3   OH254730   4.644   3.710  15.645 -0.1449 -0.4997  0.6520
11080TIP3    H154731   4.705   3.656  15.694  0.3463 -0.9754 -0.4477
11080TIP3    H254732   4.679   3.711  15.556 -0.6095  0.9411  0.4623
11081TIP3   OH254733   1.923   2.191  11.912 -0.5323  0.4569  0.3876
11081TIP3    H154734   1.929   2.099  11.938 -2.9061 -0.0832 -0.7369
11081TIP3    H254735   1.899   2.188  11.819 -3.9022  2.0835  1.0778
11082TIP3   OH254736   4.640   0.814   3.531  0.1780 -0.2474 -0.4164
11082TIP3    H154737   4.727   0.838   3.564  0.2370 -0.8425 -0.1320
11082TIP3    H254738   4.648   0.822   3.436  0.3424  0.3587 -0.3558
11083TIP3   OH254739   5.841   1.880   2.069  0.9934 -0.6698 -0.1223
11083TIP3    H154740   5.823   1.786   2.070  0.2564 -0.5457 -0.8005
11083TIP3    H254741   5.858   1.902   2.160  0.9062 -1.4090  0.0821
11084TIP3   OH254742   6.410   2.577  14.882 -0.1933 -0.6632  0.1445
11084TIP3    H154743   6.318   2.601  14.894 -0.8547 -2.6526 -0.5253
11084TIP3    H254744   6.426   2.507  14.945  0.8766 -0.3291  0.2715
11085TIP3   OH254745   4.882   4.461  12.701  0.5611  0.2239 -0.6717
11085TIP3    H154746   4.945   4.518  12.745  0.4467 -1.3503  1.6774
11085TIP3    H254747   4.809   4.519  12.678  0.4905  1.1206  1.5498
11086TIP3   OH254748   4.427   1.791   5.511 -0.1811 -0.0241 -0.1086
11086TIP3    H154749   4.481   1.852   5.461 -1.0266  0.4394 -0.4735
11086TIP3    H254750   4.339   1.800   5.474 -0.5301 -0.7145  0.5175
11087TIP3   OH254751   4.741   0.331  16.349 -0.2636  0.6130 -0.2821
11087TIP3    H154752   4.798   0.394  16.394 -0.1930  0.5331 -0.2592
11087TIP3    H254753   4.667   0.320  16.409  0.8809 -1.2266  0.9151
11088TIP3   OH254754   1.721   6.498   6.030  0.4824  0.3086 -0.0771
11088TIP3    H154755   1.805   6.454   6.015 -1.4062 -3.9168  0.5456
11088TIP3    H254756   1.716   6.509   6.124  0.8384  1.8539 -0.2099
11089TIP3   OH254757   1.325   3.486  15.431 -0.0863  0.1746  0.5841
11089TIP3    H154758   1.263   3.439  15.374  0.1191 -0.7930  1.1295
11089TIP3    H254759   1.402   3.500  15.376  0.9938 -2.7410  1.1918
11090TIP3   OH254760   3.897   5.867  10.963 -0.2492  0.0683  0.4656
11090TIP3    H154761   3.967   5.810  10.930 -0.3167  0.3308 -0.1504
11090TIP3    H254762   3.851   5.896  10.884  0.6296  2.0757  0.6325
11091TIP3   OH254763   3.707   1.746   1.833  0.5324  1.2105 -0.1162
11091TIP3    H154764   3.787   1.716   1.790 -1.0601 -0.6317 -2.0427
11091TIP3    H254765   3.694   1.684   1.905  1.2485  2.0453  0.7592
11092TIP3   OH254766   6.133   1.837   0.532  0.2913 -0.2641 -0.7904
11092TIP3    H154767   6.150   1.765   0.593  0.1559 -0.0046 -0.4481
11092TIP3    H254768   6.219   1.858   0.495  0.6058  0.5172  0.3473
11093TIP3   OH254769   5.539   3.032  15.304 -0.0611  0.4149  0.4585
11093TIP3    H154770   5.622   3.050  15.348 -0.1099  1.0900  0.2723
11093TIP3    H254771   5.493   2.973  15.365  0.9109 -0.6898  0.1587
11094TIP3   OH254772   5.888   5.937   3.190 -0.1429 -0.1852 -0.2161
11094TIP3    H154773   5.857   5.974   3.108 -0.0040  0.7628  0.1373
11094TIP3    H254774   5.890   5.843   3.176 -0.1936 -0.0352 -1.2684
11095TIP3   OH254775   1.047   4.612   4.509 -0.3156 -0.1195 -0.2122
11095TIP3    H154776   0.979   4.591   4.445 -0.8860  0.2330  0.2710
11095TIP3    H254777   1.051   4.708   4.508 -1.6265 -0.0103  1.6059
11096TIP3   OH254778   4.946   2.763  16.089 -0.0618  0.1269 -0.0162
11096TIP3    H154779   4.955   2.790  16.180 -2.1486  0.8561  0.0212
11096TIP3    H254780   4.977   2.672  16.088  1.5264  0.6177  1.0468
11097TIP3   OH254781   2.813   3.224   2.773 -0.3704  0.1558  0.3784
11097TIP3    H154782   2.744   3.285   2.746  0.5688  0.1387 -2.3724
11097TIP3    H254783   2.881   3.281   2.809 -0.7532  0.4222  0.6951
11098TIP3   OH254784   1.101   5.682  17.306  0.0054 -0.0813  0.2605
11098TIP3    H154785   1.195   5.698  17.307 -0.2963  1.8557  0.8952
11098TIP3    H254786   1.066   5.737  17.376 -1.6339 -0.5699 -0.1252
11099TIP3   OH254787   6.040   3.255   5.473  0.2339 -0.1217 -0.0270
11099TIP3    H154788   5.976   3.187   5.494 -0.1002 -0.5387 -2.1781
11099TIP3    H254789   5.987   3.333   5.458  0.4768  0.2142  0.8374
11100TIP3   OH254790   3.737   0.833   0.258  0.5073 -0.2501  0.0622
11100TIP3    H154791   3.771   0.904   0.204  2.0994 -1.1238 -0.1550
11100TIP3    H254792   3.696   0.773   0.195  0.6716 -0.3510  0.0526
11101TIP3   OH254793   4.393   0.519   2.891  0.2189 -0.0248 -0.7428
11101TIP3    H154794   4.313   0.572   2.888 -0.8565 -1.4955  0.4505
11101TIP3    H254795   4.362   0.429   2.878  1.7466 -0.5791 -0.6480
11102TIP3   OH254796   6.194   2.118   4.910 -0.0043 -0.4277 -0.1720
11102TIP3    H154797   6.286   2.093   4.909  0.6943  1.9245 -0.9405
11102TIP3    H254798   6.182   2.169   4.830 -1.4571  0.9628  0.8628
11103TIP3   OH254799   6.587   2.616   1.551  0.2827  0.3313  0.5109
11103TIP3    H154800   6.553   2.535   1.587 -2.1075  0.7866 -0.5498
11103TIP3    H254801   6.589   2.677   1.625  1.3284 -0.4334  1.1348
11104TIP3   OH254802   6.299   2.576   2.188 -0.2001 -0.1939 -0.1901
11104TIP3    H154803   6.223   2.543   2.140 -1.2803  2.0645 -0.1757
11104TIP3    H254804   6.372   2.567   2.127 -0.4559 -2.3053 -0.2458
11105TIP3   OH254805   2.398   5.458   0.778 -0.2519 -0.0611  0.7860
11105TIP3    H154806   2.368   5.536   0.825 -1.6320 -0.2378  0.2262
11105TIP3    H254807   2.362   5.385   0.828 -1.4706 -0.2581 -0.3399
11106TIP3   OH254808   6.654   0.048  10.568 -0.7659 -0.2539 -0.2243
11106TIP3    H154809   6.637  -0.027  10.510 -1.0174  0.5444 -1.2181
11106TIP3    H254810   6.745   0.038  10.593 -0.7235 -0.7599 -0.5464
11107TIP3   OH254811   2.272   6.025   3.818 -0.5755  0.2477 -0.3207
11107TIP3    H154812   2.216   5.948   3.806  0.6038 -0.6004 -0.5609
11107TIP3    H254813   2.228   6.076   3.887 -1.0856 -0.9348  0.2586
11108TIP3   OH254814   1.005   6.105  15.911 -0.5028  0.0109 -0.1464
11108TIP3    H154815   0.997   6.075  16.001 -0.9277  0.8371  0.1052
11108TIP3    H254816   1.069   6.046  15.871 -0.6092 -0.6091  0.5799
11109TIP3   OH254817   1.882   3.454   6.123  0.0093 -0.3738 -0.0073
11109TIP3    H154818   1.893   3.362   6.147  1.3955 -0.8581 -2.1997
11109TIP3    H254819   1.944   3.467   6.051 -1.8897  1.6083 -1.4219
11110TIP3   OH254820   0.524   5.978  17.284  0.1424  0.1608 -0.1676
11110TIP3    H154821   0.507   5.906  17.223  1.1391  1.5390 -2.1912
11110TIP3    H254822   0.437   6.003  17.316 -0.3327 -1.0638 -0.4398
11111TIP3   OH254823   5.254   3.041  15.892  0.0291 -0.1663  0.0410
11111TIP3    H154824   5.285   3.131  15.901  0.2174 -0.0983 -1.0782
11111TIP3    H254825   5.236   3.012  15.981 -1.5474  1.5147  0.3447
11112TIP3   OH254826   1.777   6.589   4.270 -0.4318  0.2089  0.2524
11112TIP3    H154827   1.683   6.571   4.276 -0.4056  0.3909  1.3836
11112TIP3    H254828   1.818   6.516   4.316  0.0244 -0.1419 -0.6829
11113TIP3   OH254829   4.815   6.668   2.700  0.4141  0.2524  0.0365
11113TIP3    H154830   4.804   6.659   2.606  1.0187  0.3004 -0.0418
11113TIP3    H254831   4.892   6.724   2.710  0.9712 -0.5986  0.5670
11114TIP3   OH254832   1.796   6.405  14.771  0.7990 -0.4283  0.1779
11114TIP3    H154833   1.841   6.440  14.847  3.2334 -2.5357 -0.1494
11114TIP3    H254834   1.722   6.356  14.807  0.4328  0.6913  0.9734
11115TIP3   OH254835   6.145   5.918  10.554  0.4162  0.1340  0.4801
11115TIP3    H154836   6.221   5.860  10.567  1.3091  1.2022  0.1524
11115TIP3    H254837   6.073   5.871  10.595  1.2677 -0.8652  0.9032
11116TIP3   OH254838   5.462   3.869   3.054 -0.4186  0.1037  0.2937
11116TIP3    H154839   5.497   3.862   3.142 -1.0440  1.5489  0.6971
11116TIP3    H254840   5.510   3.943   3.016 -0.4211 -0.2685 -0.4464
11117TIP3   OH254841   4.043   4.957  11.722  0.2666 -0.3739  0.0286
11117TIP3    H154842   4.002   4.950  11.808  1.9574  2.0168  1.1508
11117TIP3    H254843   3.998   5.030  11.679  0.2497 -0.7613 -0.6321
11118TIP3   OH254844   4.371   3.186   5.612  0.1717 -0.3452  1.4462
11118TIP3    H154845   4.277   3.202   5.612  0.2752  0.3264  0.9998
11118TIP3    H254846   4.409   3.271   5.634  0.7740  0.2041 -1.2758
11119TIP3   OH254847   5.635   4.566  15.818 -0.2085  0.4532  0.0964
11119TIP3    H154848   5.707   4.628  15.812  0.9705 -0.7661  1.0713
11119TIP3    H254849   5.603   4.574  15.908 -0.7913  0.4260 -0.0984
11120TIP3   OH254850   5.123   1.204   5.687  0.2538 -0.5958  0.9869
11120TIP3    H154851   5.056   1.174   5.749 -0.2175 -1.5204  0.0448
11120TIP3    H254852   5.077   1.216   5.605  1.2786 -1.5263  0.2387
11121TIP3   OH254853   0.527   2.376   2.385  0.8428  0.3000  0.3150
11121TIP3    H154854   0.513   2.345   2.474 -0.3616  1.0426  0.3958
11121TIP3    H254855   0.470   2.321   2.331  1.7028 -0.2711 -0.0447
11122TIP3   OH254856   5.668   5.359   3.946 -0.0501 -0.4931  0.4816
11122TIP3    H154857   5.584   5.317   3.927  0.6850 -0.9736 -2.1931
11122TIP3    H254858   5.731   5.288   3.941  0.7419  0.2085  0.2966
11123TIP3   OH254859   1.171   2.142  12.610  0.0202 -0.1042 -0.1925
11123TIP3    H154860   1.089   2.100  12.584 -0.1065 -1.5166  2.2376
11123TIP3    H254861   1.238   2.098  12.557 -0.4625 -1.2017  0.0786
11124TIP3   OH254862   4.022   5.553   1.488 -0.0582  0.5119 -0.2119
11124TIP3    H154863   4.009   5.618   1.557 -1.3823 -0.2922  0.3378
11124TIP3    H254864   4.088   5.591   1.430  1.8042  0.8156  1.9931
11125TIP3   OH254865   3.782   0.520  12.180  0.1748  0.1626  0.2835
11125TIP3    H154866   3.830   0.597  12.149 -0.4203  0.4919  0.1486
11125TIP3    H254867   3.836   0.484  12.250  1.8217 -0.9097 -1.4368
11126TIP3   OH254868   0.681   2.844  10.563  0.0318 -0.2506  0.7237
11126TIP3    H154869   0.752   2.783  10.582  0.0402 -0.5962 -0.3312
11126TIP3    H254870   0.614   2.789  10.520  0.1777  0.5311 -0.5502
11127TIP3   OH254871   4.628   4.208   2.544 -0.4876 -0.4481 -0.1303
11127TIP3    H154872   4.687   4.281   2.565  1.0612 -0.9488 -2.4235
11127TIP3    H254873   4.561   4.246   2.488 -1.0124 -0.3470  0.5588
11128TIP3   OH254874   6.096   4.693   2.079 -0.4526  0.0097 -0.1599
11128TIP3    H154875   6.084   4.766   2.018  1.7145 -0.0153 -0.7103
11128TIP3    H254876   6.028   4.706   2.145 -1.8180  0.9896 -1.6547
11129TIP3   OH254877   3.305   4.908  11.617  0.1201  0.6541 -0.3193
11129TIP3    H154878   3.231   4.870  11.569  0.0693  0.1558  0.1499
11129TIP3    H254879   3.381   4.860  11.584 -0.0659 -0.6744  1.0789
11130TIP3   OH254880   6.407   2.306   3.669  0.3453  0.1949  0.4928
11130TIP3    H154881   6.408   2.210   3.673  2.3893  0.1807  1.2336
11130TIP3    H254882   6.459   2.328   3.592 -0.5751  0.7136  0.0114
11131TIP3   OH254883   5.726   0.554   3.665 -0.2105 -0.1251 -0.2085
11131TIP3    H154884   5.707   0.471   3.620  0.1340  0.0035 -0.6056
11131TIP3    H254885   5.772   0.607   3.599  2.6178 -0.8593  0.9920
11132TIP3   OH254886   5.947   0.252  16.226 -0.3300  0.1401  0.3871
11132TIP3    H154887   5.878   0.257  16.292 -0.3028  0.3316  0.4001
11132TIP3    H254888   6.013   0.315  16.255 -0.7525  0.9330 -0.3445
11133TIP3   OH254889   4.039   2.082   5.911 -0.0360 -0.7315  0.5661
11133TIP3    H154890   3.987   2.070   5.831  0.7210 -0.6019  0.0437
11133TIP3    H254891   4.126   2.107   5.880  0.4012 -1.1389  1.4186
11134TIP3   OH254892   4.490   4.492   4.251  0.6034 -0.6518  0.6144
11134TIP3    H154893   4.503   4.524   4.341  4.1484 -0.6248  0.2295
11134TIP3    H254894   4.484   4.397   4.260 -0.6867 -0.5619  0.9579
11135TIP3   OH254895   6.646   4.227   3.539 -0.3512  0.3431  0.2379
11135TIP3    H154896   6.680   4.138   3.550 -1.6469  0.0037  1.8198
11135TIP3    H254897   6.644   4.263   3.628  0.2032  1.9959 -0.3814
11136TIP3   OH254898   4.348   0.628   4.421 -0.1412 -0.7732 -0.3027
11136TIP3    H154899   4.400   0.681   4.481  1.1805 -0.1468 -1.9544
11136TIP3    H254900   4.377   0.538   4.437  0.4098 -0.5797 -0.2207
11137TIP3   OH254901   4.432   2.704   5.136 -0.2767 -0.2267  0.1354
11137TIP3    H154902   4.395   2.743   5.057  0.2030 -0.0775 -0.0213
11137TIP3    H254903   4.451   2.613   5.113  0.1979 -0.0885 -0.0416
11138TIP3   OH254904   0.764   4.651  17.041  0.3987  0.7345 -0.1712
11138TIP3    H154905   0.765   4.746  17.034  1.2829  0.6731 -1.0745
11138TIP3    H254906   0.685   4.624  16.993  1.8386  0.8625 -2.8105
11139TIP3   OH254907   2.056   6.214  13.640 -0.1326 -0.2300 -0.4172
11139TIP3    H154908   1.974   6.180  13.603 -0.6024 -0.2097  0.5780
11139TIP3    H254909   2.069   6.298  13.595 -0.5191 -0.3510 -0.7675
11140TIP3   OH254910   3.672   6.317  17.110 -0.1329 -0.1480  0.1402
11140TIP3    H154911   3.660   6.247  17.047 -0.5910 -0.0695  0.1382
11140TIP3    H254912   3.649   6.278  17.194  1.2673 -0.4918  0.3844
11141TIP3   OH254913   6.671   4.973   0.750  0.0704  0.3242  0.1309
11141TIP3    H154914   6.732   5.004   0.817  0.3768  0.6220 -0.2823
11141TIP3    H254915   6.644   5.052   0.703 -0.3847  0.1552  0.1015
11142TIP3   OH254916   1.996   5.548   0.706 -0.5465  0.3196  0.1461
11142TIP3    H154917   2.088   5.555   0.683 -0.7217  0.4179 -0.5567
11142TIP3    H254918   1.958   5.631   0.678 -0.9023  0.1676  0.1708
11143TIP3   OH254919   1.719   4.339   2.800 -0.1473 -0.0424 -0.0445
11143TIP3    H154920   1.641   4.302   2.759 -0.3203  0.4606 -0.1665
11143TIP3    H254921   1.784   4.342   2.730 -0.8570  2.1021 -0.6706
11144TIP3   OH254922   1.707   3.446  15.003 -0.4954  0.2046  0.1339
11144TIP3    H154923   1.772   3.498  14.955  0.7309  0.5589  2.0793
11144TIP3    H254924   1.755   3.370  15.035 -1.9787 -1.5956 -1.5918
11145TIP3   OH254925   4.764   4.402   6.600 -0.3114  0.1629  0.4879
11145TIP3    H154926   4.859   4.401   6.587 -0.5077  1.1386 -1.4948
11145TIP3    H254927   4.737   4.489   6.570 -2.0183 -0.7269 -0.7579
11146TIP3   OH254928   5.844   1.583   0.722 -0.7116  0.8356 -0.0645
11146TIP3    H154929   5.934   1.560   0.702 -1.0246 -0.1710 -0.4009
11146TIP3    H254930   5.837   1.676   0.700 -0.1043  0.6085 -1.2965
11147TIP3   OH254931   0.390   6.422  10.737  0.1627 -0.0716  0.0954
11147TIP3    H154932   0.318   6.471  10.697 -1.0634  0.0084  2.2732
11147TIP3    H254933   0.413   6.355  10.673 -1.8190 -0.0616 -0.6655
11148TIP3   OH254934   6.255   3.306  11.845 -0.3053  0.4064  0.0041
11148TIP3    H154935   6.204   3.269  11.773  0.3797 -1.0433  0.2235
11148TIP3    H254936   6.215   3.268  11.924  0.6521 -0.2092  0.2091
11149TIP3   OH254937   6.352   0.501   1.367  0.3930 -0.1101 -0.5123
11149TIP3    H154938   6.413   0.555   1.418 -2.4101  2.2810  0.5767
11149TIP3    H254939   6.343   0.547   1.284 -1.0182  0.4199 -0.0861
11150TIP3   OH254940   2.704   6.666  12.025  0.2675  0.0156 -0.1625
11150TIP3    H154941   2.626   6.622  11.992  1.0365 -0.7786 -0.9858
11150TIP3    H254942   2.720   6.627  12.111  0.2482 -0.4498 -0.3672
11151TIP3   OH254943   0.827   2.678  16.845 -0.2255 -0.2388 -1.0280
11151TIP3    H154944   0.906   2.701  16.796 -0.0899  1.0765 -0.2435
11151TIP3    H254945   0.859   2.627  16.920 -0.1050  0.3436 -0.6784
11152TIP3   OH254946   6.205   6.721   5.679 -0.1733  0.3995 -0.3619
11152TIP3    H154947   6.216   6.714   5.584 -0.6669  0.6484 -0.4467
11152TIP3    H254948   6.278   6.775   5.708 -0.2082  0.6080 -0.6533
11153TIP3   OH254949   4.572   3.727  16.488 -0.0102 -0.0424  0.3272
11153TIP3    H154950   4.644   3.773  16.446  0.1893 -0.9794 -0.3872
11153TIP3    H254951   4.604   3.706  16.576  0.7333 -0.7611 -0.1063
11154TIP3   OH254952   4.411   1.088  13.809 -0.6071  0.1393 -0.4543
11154TIP3    H154953   4.344   1.138  13.763 -1.9282  0.0219  1.2330
11154TIP3    H254954   4.381   1.086  13.900  1.7834  0.2257  0.4075
11155TIP3   OH254955   1.013   2.725   3.499 -0.2372 -0.7942 -0.3705
11155TIP3    H154956   0.937   2.666   3.489 -2.0555  1.3717 -0.1597
11155TIP3    H254957   0.983   2.791   3.562  0.7934  1.7084 -2.3749
11156TIP3   OH254958   0.818   1.672   5.274 -0.3117 -0.2866 -0.4114
11156TIP3    H154959   0.806   1.760   5.310 -0.4153  0.1386 -1.4680
11156TIP3    H254960   0.860   1.686   5.189  0.7836 -1.3267 -0.0788
11157TIP3   OH254961   2.273   4.923   3.040 -0.6463  0.3058 -0.4555
11157TIP3    H154962   2.304   4.905   3.129 -2.5090 -2.2115 -0.2130
11157TIP3    H254963   2.348   4.965   2.997  1.3381 -1.0476  1.4539
11158TIP3   OH254964   6.593   4.874   5.622 -0.0137 -0.2605  0.2856
11158TIP3    H154965   6.687   4.862   5.630 -0.1253 -0.1541  2.6677
11158TIP3    H254966   6.563   4.801   5.568  1.3157 -0.8987  0.3851
11159TIP3   OH254967   4.139   2.958  12.812  0.3690  0.1199 -0.3392
11159TIP3    H154968   4.201   3.005  12.756  0.3123  0.4516 -0.1282
11159TIP3    H254969   4.194   2.905  12.870  0.5142  1.2084  0.5587
11160TIP3   OH254970   2.965   5.529   5.256  0.1243  0.8489 -0.7813
11160TIP3    H154971   2.921   5.549   5.174 -2.4216  0.6931  0.4435
11160TIP3    H254972   3.028   5.461   5.233 -2.1770 -0.9455 -2.2722
11161TIP3   OH254973   2.131   0.995   6.167  0.0457 -0.2953 -0.1895
11161TIP3    H154974   2.096   1.075   6.205 -0.7318 -1.3568  1.4199
11161TIP3    H254975   2.176   1.024   6.087 -0.7165  1.6460  0.0387
11162TIP3   OH254976   6.150   6.340   4.605 -0.1681 -0.4355  0.0951
11162TIP3    H154977   6.238   6.377   4.605  0.4298 -1.7214  1.7764
11162TIP3    H254978   6.132   6.322   4.513  2.3851 -2.4444 -0.1459
11163TIP3   OH254979   6.099   2.207  13.304  0.5571 -0.1890  0.2857
11163TIP3    H154980   6.092   2.300  13.325  0.4321 -0.4801  1.5963
11163TIP3    H254981   6.135   2.206  13.215 -1.3651  1.1221 -0.5853
11164TIP3   OH254982   4.351   0.144   3.005  0.0186 -0.6731  0.0820
11164TIP3    H154983   4.380   0.131   3.095  1.1156  0.3535 -0.1085
11164TIP3    H254984   4.424   0.113   2.951 -0.0641  0.0215 -0.4386
11165TIP3   OH254985   4.752   3.371  17.256  0.3296 -0.4436  0.0189
11165TIP3    H154986   4.740   3.282  17.221  1.5225 -1.2772  1.6016
11165TIP3    H254987   4.701   3.427  17.197 -3.1342 -2.5044  0.7454
11166TIP3   OH254988   0.492   1.706  11.040 -0.4715 -0.1478 -0.3638
11166TIP3    H154989   0.439   1.765  10.987 -0.2636 -0.0122 -0.4198
11166TIP3    H254990   0.487   1.622  10.994  0.8594  0.2992 -1.3905
11167TIP3   OH254991   5.358   3.142  13.936 -0.7432 -0.1577  0.0569
11167TIP3    H154992   5.404   3.067  13.899 -2.5977 -0.6050 -1.5125
11167TIP3    H254993   5.313   3.183  13.861 -1.1005  1.5526  1.1336
11168TIP3   OH254994   4.273   3.600   2.928 -0.1659  0.2366 -0.4470
11168TIP3    H154995   4.357   3.645   2.928 -0.6127  1.1373 -1.9866
11168TIP3    H254996   4.292   3.513   2.963  1.2172  0.7218  0.0619
11169TIP3   OH254997   4.857   4.568   3.996 -0.2242  0.0001 -0.1369
11169TIP3    H154998   4.840   4.643   4.053  0.2147  1.3738 -1.7326
11169TIP3    H254999   4.952   4.569   3.983 -0.2386 -0.7296 -0.3432
11170TIP3   OH255000   4.438   4.086   2.732  0.1940  0.6161 -0.4005
11170TIP3    H155001   4.487   4.127   2.660 -0.9693  0.1832 -1.4684
11170TIP3    H255002   4.357   4.056   2.692  0.2607 -1.1946  0.7327
11171TIP3   OH255003   1.364   4.141  12.286  0.0709  0.6513  0.0663
11171TIP3    H155004   1.372   4.234  12.264  2.3031  0.3224 -0.7693
11171TIP3    H255005   1.354   4.098  12.201 -0.1166  0.0567  0.3885
11172TIP3   OH255006   1.022   4.309  17.270  0.6682  0.1938  0.2410
11172TIP3    H155007   0.994   4.389  17.225 -0.2992  0.0315  0.5309
11172TIP3    H255008   1.056   4.253  17.200  1.0255  0.7189 -0.0110
11173TIP3   OH255009   3.379   2.501  17.365 -0.2133 -0.4216  0.2122
11173TIP3    H155010   3.370   2.456  17.281 -0.8703 -1.7026  0.9393
11173TIP3    H255011   3.456   2.557  17.354 -0.5829 -0.1692 -1.3958
11174TIP3   OH255012   3.374   2.086   4.996 -0.7401  0.3475  0.3696
11174TIP3    H155013   3.416   2.170   5.013  1.4534 -0.5773 -0.1328
11174TIP3    H255014   3.413   2.055   4.915 -0.1589 -1.9237  1.4072
11175TIP3   OH255015   3.063   0.738   4.884 -0.4863 -0.1427 -0.7999
11175TIP3    H155016   2.990   0.799   4.870 -0.8406  0.2562  2.1366
11175TIP3    H255017   3.021   0.653   4.891 -0.8816  0.1827  1.6987
11176TIP3   OH255018   5.361   3.411   4.198  0.5055 -0.2301  0.2199
11176TIP3    H155019   5.435   3.406   4.259  0.2085 -0.9290  0.5316
11176TIP3    H255020   5.314   3.328   4.210  0.6418 -0.5505 -1.2213
11177TIP3   OH255021   4.521   0.125   4.019 -0.2555 -0.6045  0.1277
11177TIP3    H155022   4.436   0.158   3.990 -0.0035 -0.9961 -1.1322
11177TIP3    H255023   4.513   0.030   4.014  0.3159 -0.6408 -0.2127
11178TIP3   OH255024   4.240   3.343  16.023  0.0864  0.6465  0.6332
11178TIP3    H155025   4.334   3.358  16.018  0.0796  0.4982 -0.0788
11178TIP3    H255026   4.225   3.312  16.113  0.7705  0.3152  0.6373
11179TIP3   OH255027   6.054   0.785   5.944 -0.2471  0.3979 -0.3977
11179TIP3    H155028   6.010   0.763   6.026 -0.7394  1.3094 -0.4045
11179TIP3    H255029   6.147   0.786   5.967  0.0944 -3.7726 -0.8870
11180TIP3   OH255030   3.733   5.507   4.645  0.1019  0.3577  0.2045
11180TIP3    H155031   3.766   5.561   4.573  1.1343  0.4864  0.7530
11180TIP3    H255032   3.796   5.520   4.716 -0.1606 -0.8178  0.6779
11181TIP3   OH255033   5.488   4.132  17.106  0.0983  0.2918 -0.4423
11181TIP3    H155034   5.535   4.048  17.103  0.4428  0.4337  0.4968
11181TIP3    H255035   5.477   4.149  17.200  0.0885  1.3299 -0.6228
11182TIP3   OH255036   0.570   3.137  13.323  0.4749 -0.0232  0.1000
11182TIP3    H155037   0.492   3.188  13.343  0.1822 -0.7632  0.8946
11182TIP3    H255038   0.585   3.152  13.230 -0.1549  0.7427  0.1098
11183TIP3   OH255039   5.585   4.271  13.948  0.1519  0.0048  0.0716
11183TIP3    H155040   5.519   4.223  13.898  1.5009 -1.1266 -0.7158
11183TIP3    H255041   5.539   4.303  14.025 -1.6504  0.5185 -1.1446
11184TIP3   OH255042   4.823   1.998   3.255  0.6821  0.1047 -0.2461
11184TIP3    H155043   4.918   2.009   3.257  0.7344  0.0719  3.0786
11184TIP3    H255044   4.788   2.082   3.285  0.0132 -1.2402  3.2813
11185TIP3   OH255045   1.615   4.522  13.911 -0.2700 -0.2933 -0.2927
11185TIP3    H155046   1.607   4.559  13.823  0.8621  0.6928 -0.0015
11185TIP3    H255047   1.666   4.442  13.899 -0.0820 -0.1382 -0.5294
11186TIP3   OH255048   0.749   3.561  15.024 -0.3601  0.1236 -0.6586
11186TIP3    H155049   0.827   3.616  15.022  0.8186 -1.4611 -0.2096
11186TIP3    H255050   0.748   3.517  14.939 -1.1929  0.6846 -0.9469
11187TIP3   OH255051   6.346   5.447   1.858  0.8648 -0.4167  0.3700
11187TIP3    H155052   6.322   5.510   1.926 -0.1737 -1.3098  0.8793
11187TIP3    H255053   6.313   5.484   1.777  1.2465  0.2092  0.4988
11188TIP3   OH255054   3.550   2.618  14.932 -0.3941 -0.2272 -0.0526
11188TIP3    H155055   3.621   2.554  14.926 -2.1585 -2.2348 -0.7162
11188TIP3    H255056   3.576   2.688  14.872  1.1647 -0.6981  0.0076
11189TIP3   OH255057   5.529   0.316  14.858  0.1229 -0.1152 -0.4357
11189TIP3    H155058   5.601   0.343  14.800 -0.2039  0.3365 -0.6348
11189TIP3    H255059   5.462   0.283  14.798 -0.3800  0.7311 -0.3532
11190TIP3   OH255060   0.041   1.071  13.872 -0.2900  0.4255  0.4755
11190TIP3    H155061   0.054   1.166  13.867 -1.7672  0.6272  0.0572
11190TIP3    H255062   0.106   1.041  13.936 -1.6252  2.0882  2.7104
11191TIP3   OH255063   1.185   0.186   1.612  0.1422 -0.4630 -0.0058
11191TIP3    H155064   1.239   0.217   1.685  1.8128 -0.0277 -1.3712
11191TIP3    H255065   1.105   0.238   1.619  0.0389 -0.7814  1.7832
11192TIP3   OH255066   5.713   3.445   2.265  0.2723 -0.0722  0.5496
11192TIP3    H155067   5.667   3.487   2.193 -0.2434  0.3669  1.1185
11192TIP3    H255068   5.804   3.470   2.253  0.2589 -0.3539 -0.1817
11193TIP3   OH255069   4.751   4.965  12.073  0.1534 -0.1875 -0.3396
11193TIP3    H155070   4.775   4.972  11.981 -0.9539 -1.2975 -0.7372
11193TIP3    H255071   4.680   4.901  12.075  1.7794 -2.1021  1.5745
11194TIP3   OH255072   6.054   4.372   4.648 -0.3878 -0.8266  0.6962
11194TIP3    H155073   6.086   4.393   4.736 -1.2182  1.2876  0.5504
11194TIP3    H255074   6.130   4.386   4.591 -0.4439  0.1114  0.8316
11195TIP3   OH255075   6.162   5.697  12.170  1.0038  0.1130  0.1770
11195TIP3    H155076   6.176   5.672  12.079  0.4887 -3.0807  0.8745
11195TIP3    H255077   6.073   5.732  12.171  0.5023 -1.1013 -0.3516
11196TIP3   OH255078   3.700   6.393  13.239 -0.2884  0.0862  0.0321
11196TIP3    H155079   3.702   6.415  13.146  2.2381  1.4903  0.3573
11196TIP3    H255080   3.702   6.477  13.284  1.2121 -0.6030  1.3304
11197TIP3   OH255081   6.550   3.708  13.825  0.3663  0.1414  0.7515
11197TIP3    H155082   6.645   3.697  13.837  0.5433 -0.7067 -1.0927
11197TIP3    H255083   6.540   3.795  13.788  0.5357 -0.1945 -0.0915
11198TIP3   OH255084   4.136   5.687  15.987  0.2045 -0.1372  0.0714
11198TIP3    H155085   4.148   5.740  15.908 -0.0946 -1.0719 -0.6054
11198TIP3    H255086   4.189   5.732  16.053  1.5098 -0.0623 -0.9852
11199TIP3   OH255087   5.298   5.398  14.072 -0.3732 -1.0470 -0.1597
11199TIP3    H155088   5.278   5.480  14.116  0.2933 -0.6686 -0.5533
11199TIP3    H255089   5.257   5.407  13.986  0.7327 -0.6189 -0.6549
11200TIP3   OH255090   4.713   5.204   4.669  0.5037  0.4308 -0.0913
11200TIP3    H155091   4.749   5.223   4.756  0.5057 -0.9667  0.2425
11200TIP3    H255092   4.730   5.110   4.657 -0.3549  0.4082 -1.1953
11201TIP3   OH255093   2.175   1.501   3.219 -0.4059 -0.0519  0.2805
11201TIP3    H155094   2.218   1.431   3.268  0.6656  0.0085 -0.5482
11201TIP3    H255095   2.162   1.571   3.283  0.8887 -0.0068  0.5114
11202TIP3   OH255096   5.327   1.543  15.548 -0.0756 -0.0197  0.0542
11202TIP3    H155097   5.401   1.495  15.587 -1.0319 -1.5656  0.0422
11202TIP3    H255098   5.343   1.539  15.454 -0.0037 -0.0544  0.0677
11203TIP3   OH255099   5.346   6.759  12.436 -0.2339 -0.2714  0.5802
11203TIP3    H155100   5.346   6.852  12.416  1.5992 -0.5288 -0.9015
11203TIP3    H255101   5.255   6.732  12.424 -0.6790  1.1885  0.4360
11204TIP3   OH255102   3.659   4.082  14.074 -0.0617 -0.2374  0.0523
11204TIP3    H155103   3.679   3.991  14.093  0.3497  0.1337  1.4950
11204TIP3    H255104   3.661   4.087  13.978  1.3670 -1.4199 -0.0167
11205TIP3   OH255105   4.104   6.348   5.348 -0.6369  0.3724 -0.2145
11205TIP3    H155106   4.165   6.335   5.275 -0.8260  1.2643 -0.5376
11205TIP3    H255107   4.035   6.403   5.312 -1.0973  0.2365  0.4497
11206TIP3   OH255108   5.061   5.888   1.043  0.5680 -0.2514  0.2193
11206TIP3    H155109   5.117   5.965   1.053 -0.0008  0.2204 -0.1804
11206TIP3    H255110   5.123   5.815   1.036  1.1583  0.3159 -0.6880
11207TIP3   OH255111   4.570   3.728  15.304 -0.0334 -0.1020  0.3295
11207TIP3    H155112   4.651   3.678  15.314  0.4358  0.7027  0.6112
11207TIP3    H255113   4.599   3.816  15.282 -0.7523  0.7075  2.3994
11208TIP3   OH255114   5.586   0.365   1.700 -0.0582  0.1311  0.5163
11208TIP3    H155115   5.499   0.397   1.726 -1.2701  0.1818 -3.0883
11208TIP3    H255116   5.576   0.271   1.691  0.6518 -0.0295  1.2756
11209TIP3   OH255117   4.248   6.615  14.159  0.5782  0.2530 -1.0208
11209TIP3    H155118   4.154   6.629  14.152  0.1004 -1.9519  0.0621
11209TIP3    H255119   4.281   6.624  14.070 -0.4720  1.9656 -1.2763
11210TIP3   OH255120   0.311   5.094   0.171  0.6834 -0.7055 -0.1703
11210TIP3    H155121   0.256   5.161   0.131 -1.7368 -1.8645  0.9775
11210TIP3    H255122   0.357   5.054   0.098 -0.0616  0.2651 -1.2074
11211TIP3   OH255123   2.921   0.346  13.032 -0.0100 -0.1188  0.6999
11211TIP3    H155124   2.994   0.289  13.007 -0.3316 -0.6849  1.0313
11211TIP3    H255125   2.959   0.434  13.034  0.4565 -0.2935  0.0375
11212TIP3   OH255126   2.657   2.553   1.913  1.2041  0.6345 -0.0527
11212TIP3    H155127   2.631   2.642   1.887 -0.6341  0.0937 -0.2213
11212TIP3    H255128   2.604   2.535   1.990  0.7167 -0.7064 -0.6718
11213TIP3   OH255129   0.380   5.903   2.988  0.2185 -0.1792 -0.1454
11213TIP3    H155130   0.305   5.960   2.970 -0.4280 -1.0621 -0.2617
11213TIP3    H255131   0.342   5.822   3.021  1.0316 -1.1198 -1.4117
11214TIP3   OH255132   2.105   2.367  13.955 -0.0936 -0.2906 -0.2228
11214TIP3    H155133   2.104   2.445  13.900  0.4651 -2.0446 -2.8954
11214TIP3    H255134   2.016   2.362  13.991 -0.1685  1.4687 -0.0981
11215TIP3   OH255135   3.322   3.850   4.312  0.3784  0.1409 -0.4479
11215TIP3    H155136   3.404   3.810   4.339 -0.2286 -0.5906  0.3684
11215TIP3    H255137   3.345   3.941   4.293  1.2917  0.0608  0.1966
11216TIP3   OH255138   0.754   5.935  15.831 -0.6019 -0.0904 -0.0041
11216TIP3    H155139   0.829   5.904  15.780 -0.8805  1.3106 -1.3339
11216TIP3    H255140   0.701   5.856  15.846  0.5222 -0.8821 -0.0957
11217TIP3   OH255141   3.087   1.636  12.794  0.2255 -0.1411  0.1564
11217TIP3    H155142   3.072   1.730  12.794 -1.8075 -0.4130  0.4531
11217TIP3    H255143   3.125   1.618  12.880  3.3763  0.6933 -0.9171
11218TIP3   OH255144   2.621   1.243  16.884 -0.7713 -0.1699 -0.0361
11218TIP3    H155145   2.617   1.335  16.909 -0.9884 -0.1857 -0.0104
11218TIP3    H255146   2.712   1.229  16.859 -0.6315 -0.0608  0.3949
11219TIP3   OH255147   6.054   1.508   0.558  0.3702  0.2465  0.0086
11219TIP3    H155148   6.124   1.548   0.610  0.0959 -1.6969  2.0667
11219TIP3    H255149   6.100   1.454   0.494  0.8106 -0.3497  0.7964
11220TIP3   OH255150   1.335   4.797  12.713  0.0393 -0.1282  0.3545
11220TIP3    H155151   1.296   4.879  12.682 -0.2701 -0.4677 -0.1684
11220TIP3    H255152   1.263   4.734  12.713 -0.0530 -0.0711  2.0949
11221TIP3   OH255153   1.206   1.049   3.970  0.3903 -0.2825  0.4059
11221TIP3    H155154   1.141   1.012   3.910  1.1833 -0.1371 -0.5782
11221TIP3    H255155   1.199   0.995   4.049 -2.1334  0.8338  1.0435
11222TIP3   OH255156   3.909   4.126  16.831 -0.2317 -0.1120 -0.0365
11222TIP3    H155157   3.852   4.112  16.907 -0.7264 -1.0168 -0.5629
11222TIP3    H255158   3.856   4.177  16.770  0.1448  0.5599  0.1827
11223TIP3   OH255159   1.671   3.929   2.235 -0.1463  0.2897  0.5597
11223TIP3    H155160   1.661   4.022   2.256  1.6902  0.5409  0.4672
11223TIP3    H255161   1.758   3.906   2.267  0.4949 -0.7389 -1.6931
11224TIP3   OH255162   0.891   5.058  14.296 -0.3192  0.1598 -0.1810
11224TIP3    H155163   0.902   5.153  14.302 -2.6741  0.5839 -1.3490
11224TIP3    H255164   0.963   5.029  14.241  1.3780  0.9911  1.4926
11225TIP3   OH255165   1.638   0.234  12.891 -0.1023  0.0056  0.0851
11225TIP3    H155166   1.660   0.302  12.827 -1.2072  1.2579  0.9954
11225TIP3    H255167   1.595   0.280  12.962  0.4158 -1.4596  1.4152
11226TIP3   OH255168   3.464   0.948   0.423 -0.8976  0.9484 -0.0854
11226TIP3    H155169   3.461   1.012   0.352 -2.0628  1.8306  0.7171
11226TIP3    H255170   3.470   0.863   0.379  0.9067  1.5810 -1.1699
11227TIP3   OH255171   0.693   3.899  15.271 -0.2817  0.1669 -0.1549
11227TIP3    H155172   0.617   3.916  15.327 -1.6941 -1.8099 -1.3611
11227TIP3    H255173   0.739   3.828  15.314  0.1395  0.4507 -0.1324
11228TIP3   OH255174   6.565   3.782   4.849 -0.6287  0.3637  0.1694
11228TIP3    H155175   6.536   3.838   4.922  2.2787  2.1216  0.1371
11228TIP3    H255176   6.578   3.843   4.776  1.8112 -0.3944 -0.1299
11229TIP3   OH255177   6.401   3.080  15.543  0.2344 -0.2158  0.2425
11229TIP3    H155178   6.475   3.066  15.485 -0.3100  0.6588 -0.6948
11229TIP3    H255179   6.324   3.067  15.488 -0.3427 -1.5781  1.3120
11230TIP3   OH255180   2.464   2.622  14.207  0.3334 -0.1754 -0.3758
11230TIP3    H155181   2.405   2.698  14.211  1.4495  0.6871  0.3665
11230TIP3    H255182   2.532   2.642  14.271  1.0295 -1.4977 -0.6815
11231TIP3   OH255183   0.389   0.134   1.203 -0.0713  0.1054 -0.0400
11231TIP3    H155184   0.370   0.053   1.157 -0.3263  1.4962 -2.5569
11231TIP3    H255185   0.442   0.185   1.142 -2.0503  2.8530  0.2989
11232TIP3   OH255186   1.821   4.783   0.005 -0.4271 -0.4261  0.4549
11232TIP3    H155187   1.754   4.744  -0.051 -0.6492  0.7375 -0.1226
11232TIP3    H255188   1.777   4.795   0.089 -0.7379 -0.3040  0.2794
11233TIP3   OH255189   4.323   3.470   3.528  0.2043 -0.0585  0.0043
11233TIP3    H155190   4.263   3.543   3.513  0.0120  0.1364  1.5906
11233TIP3    H255191   4.267   3.394   3.538  0.3978 -0.4261 -1.4530
11234TIP3   OH255192   4.665   5.695   6.142  0.0239  0.2298  0.1216
11234TIP3    H155193   4.647   5.626   6.206  0.3688 -1.2161 -1.2492
11234TIP3    H255194   4.633   5.775   6.183 -1.4893 -0.9063  1.3119
11235TIP3   OH255195   4.516   6.735  15.712  0.2509  0.1937  0.2330
11235TIP3    H155196   4.442   6.793  15.731  0.1191  0.1913 -0.2655
11235TIP3    H255197   4.554   6.717  15.798  2.6297  4.0675  0.2586
11236TIP3   OH255198   6.739   4.121   5.856 -0.0310  0.1593 -0.1262
11236TIP3    H155199   6.804   4.147   5.791  0.1782 -0.1964 -0.0595
11236TIP3    H255200   6.691   4.202   5.875 -1.5536 -0.1580 -2.3230
11237TIP3   OH255201   6.141   0.799  14.118 -0.4244 -0.0292 -0.2930
11237TIP3    H155202   6.172   0.835  14.035  0.2907 -0.4726 -0.2258
11237TIP3    H255203   6.050   0.772  14.101  0.4348 -2.3212 -1.6389
11238TIP3   OH255204   3.156   1.076   1.961  0.7941  0.4020 -0.5363
11238TIP3    H155205   3.121   1.057   1.873 -0.6349  0.0848  0.0743
11238TIP3    H255206   3.095   1.032   2.021  2.4988 -0.5227  0.5922
11239TIP3   OH255207   5.928   4.194  16.722 -0.6254 -0.4227 -0.3404
11239TIP3    H155208   5.963   4.275  16.759 -1.8160 -0.9224  2.0632
11239TIP3    H255209   5.858   4.223  16.665 -1.6130  0.2692  1.1495
11240TIP3   OH255210   0.769   1.034  12.278 -0.9603  0.0988  0.2655
11240TIP3    H155211   0.858   1.024  12.313 -1.1998 -1.3518  0.4854
11240TIP3    H255212   0.782   1.047  12.184 -0.3525  3.3794  0.6657
11241TIP3   OH255213   0.340   5.147  15.060 -0.5424  0.1403 -0.4488
11241TIP3    H155214   0.264   5.204  15.071 -0.4054  0.2764 -0.1840
11241TIP3    H255215   0.398   5.196  15.001 -1.3706 -0.6824 -2.0130
11242TIP3   OH255216   1.253   5.638   4.046 -0.0569  0.0846  0.0212
11242TIP3    H155217   1.259   5.678   4.133 -0.7197  1.2687 -0.4564
11242TIP3    H255218   1.231   5.546   4.063  1.7190 -0.1845  1.1496
11243TIP3   OH255219   3.487   0.833   5.922  0.5181  0.4258 -0.1246
11243TIP3    H155220   3.439   0.769   5.868  0.9885 -0.0395 -0.0051
11243TIP3    H255221   3.432   0.845   5.999  0.4704  0.0784 -0.1000
11244TIP3   OH255222   3.425   3.626   0.196 -0.5166  0.1345  0.0589
11244TIP3    H155223   3.359   3.690   0.223 -0.1405  0.8287 -0.6044
11244TIP3    H255224   3.379   3.542   0.193 -0.9795  0.3430  1.1156
11245TIP3   OH255225   5.149   6.403   0.189 -0.5786 -0.5566 -0.2580
11245TIP3    H155226   5.161   6.425   0.282 -0.3210  0.3220 -0.4930
11245TIP3    H255227   5.134   6.309   0.189  0.8769 -0.8274  0.5624
11246TIP3   OH255228   5.636   6.436  14.995  0.5878  0.3076 -0.7931
11246TIP3    H155229   5.602   6.481  14.918  0.1114  0.2526 -0.6206
11246TIP3    H255230   5.731   6.436  14.984  0.5245  0.3787 -1.3341
11247TIP3   OH255231   6.225   3.065   1.485 -0.3897  0.4519 -0.0794
11247TIP3    H155232   6.261   3.051   1.397  0.0207  1.4897 -0.0810
11247TIP3    H255233   6.254   2.988   1.534 -0.1769  0.1204 -0.7009
11248TIP3   OH255234   1.235   6.136   1.772  0.2569  0.3990  0.0015
11248TIP3    H155235   1.221   6.090   1.855  1.3955 -0.9865 -0.5209
11248TIP3    H255236   1.308   6.196   1.790 -0.1618  0.8322  0.2619
11249TIP3   OH255237   6.477   4.824   6.159  0.2301  0.0476  0.4218
11249TIP3    H155238   6.540   4.815   6.088  1.2603 -2.0182  1.4832
11249TIP3    H255239   6.415   4.753   6.144  0.7483 -0.7339  1.7923
11250TIP3   OH255240   5.594   2.632   5.366 -0.3373 -0.3066 -0.2863
11250TIP3    H155241   5.662   2.584   5.320 -0.0636 -0.4299  0.2399
11250TIP3    H255242   5.547   2.680   5.298  2.0141  2.0217 -0.4241
11251TIP3   OH255243   0.997   4.886  17.028  0.3672 -0.4020  0.7629
11251TIP3    H155244   1.047   4.894  16.947  0.1947 -2.2989  0.4316
11251TIP3    H255245   0.909   4.917  17.006  0.5871  0.0547  0.5183
11252TIP3   OH255246   2.273   4.796  10.685  0.1730  0.0152 -0.4189
11252TIP3    H155247   2.221   4.872  10.658  0.3680  0.0635 -0.6612
11252TIP3    H255248   2.296   4.752  10.603  0.1723 -0.2326 -0.2867
11253TIP3   OH255249   4.463   0.778   5.803 -0.0054 -0.3539 -0.0257
11253TIP3    H155250   4.372   0.808   5.811  0.7031  1.8991  0.4334
11253TIP3    H255251   4.466   0.696   5.853 -1.6799 -0.2631  0.2833
11254TIP3   OH255252   1.846   6.315  16.348 -0.0975 -0.6858  0.0514
11254TIP3    H155253   1.855   6.293  16.440 -0.2857  4.7402  1.7274
11254TIP3    H255254   1.933   6.344  16.322 -0.3712 -0.7873 -1.0170
11255TIP3   OH255255   5.044   5.516   4.535 -0.1756  0.5405 -0.6925
11255TIP3    H155256   4.990   5.451   4.490  1.6251 -2.2303  0.8872
11255TIP3    H255257   5.051   5.484   4.625  2.3819  1.8700 -0.3335
11256TIP3   OH255258   4.927   3.847   5.927 -0.2384  0.1597 -0.1465
11256TIP3    H155259   4.999   3.785   5.931 -2.5322 -2.6762  1.0659
11256TIP3    H255260   4.899   3.858   6.018 -1.2346  1.3229 -0.5529
11257TIP3   OH255261   4.058   3.286   1.969 -0.3552 -0.5108  0.0950
11257TIP3    H155262   4.137   3.267   2.020  0.4001 -1.5264 -1.3743
11257TIP3    H255263   4.045   3.208   1.916  0.0946  1.1883 -2.7470
11258TIP3   OH255264   1.109   4.455  11.240  0.3988 -0.6456  0.3880
11258TIP3    H155265   1.101   4.545  11.209  0.0954 -0.7916  0.0256
11258TIP3    H255266   1.203   4.440  11.246  0.4484 -0.1149  1.0300
11259TIP3   OH255267   3.036   3.866  13.569  0.0352  0.1688  0.4795
11259TIP3    H155268   3.055   3.863  13.475 -0.6865 -0.8343  0.3557
11259TIP3    H255269   3.090   3.938  13.602  0.7604  0.1281 -0.5922
11260TIP3   OH255270   6.483   3.563  14.071  0.6471  1.3409  0.1335
11260TIP3    H155271   6.499   3.584  13.979 -0.7649  0.5004 -0.3414
11260TIP3    H255272   6.437   3.479  14.069  1.5574  0.7661  1.6843
11261TIP3   OH255273   3.827   2.938   3.147 -0.5343  0.1512 -0.1841
11261TIP3    H155274   3.747   2.978   3.114 -1.0727 -1.3328 -0.7719
11261TIP3    H255275   3.832   2.965   3.238 -0.1030  2.6715 -0.8793
11262TIP3   OH255276   0.977   2.548  17.046  0.2208 -0.5307 -0.1076
11262TIP3    H155277   0.939   2.535  17.133 -0.9341 -0.3480 -0.5643
11262TIP3    H255278   0.975   2.461  17.006 -0.6915 -0.3323 -0.5063
11263TIP3   OH255279   3.588   1.507   2.399 -0.6595  0.0589  0.2338
11263TIP3    H155280   3.561   1.557   2.322 -0.4950 -0.0787  0.0830
11263TIP3    H255281   3.674   1.543   2.422  0.2898 -1.3193 -0.9585
11264TIP3   OH255282   5.952   6.190   5.577  0.2800  0.4969 -0.0750
11264TIP3    H155283   5.983   6.209   5.666 -0.7104 -3.3723  1.3133
11264TIP3    H255284   6.032   6.185   5.524  1.2154 -0.1697  1.3265
11265TIP3   OH255285   3.702   4.999   5.158  0.1682  0.1494 -0.2214
11265TIP3    H155286   3.705   5.032   5.248  3.2882 -0.0045 -0.1631
11265TIP3    H255287   3.706   4.904   5.168 -2.1943 -0.0514 -0.5499
11266TIP3   OH255288   4.078   1.811   5.869  0.0527 -0.2298  0.3315
11266TIP3    H155289   4.052   1.877   5.933  0.4325 -1.0011  1.3173
11266TIP3    H255290   4.007   1.810   5.805  1.4485  3.2800 -1.4794
11267TIP3   OH255291   3.407   3.907  13.464 -0.5976 -0.2835  0.1726
11267TIP3    H155292   3.459   3.960  13.403 -1.4297  2.0667  1.3865
11267TIP3    H255293   3.381   3.830  13.413 -0.3120  1.0336 -2.0820
11268TIP3   OH255294   0.861   2.209   2.575 -0.3727  0.2649  0.0469
11268TIP3    H155295   0.841   2.228   2.483  0.7865 -1.4343 -0.6088
11268TIP3    H255296   0.957   2.216   2.581 -0.4629  0.7754  1.2454
11269TIP3   OH255297   3.602   2.539  16.965  0.1197 -0.1897  0.0592
11269TIP3    H155298   3.642   2.579  17.042 -1.4771  0.4989  0.5566
11269TIP3    H255299   3.675   2.492  16.922  1.3569  0.6920  1.1251
11270TIP3   OH255300   0.927   6.354   3.525  0.4962  0.4923 -0.5712
11270TIP3    H155301   0.955   6.434   3.479 -0.9272  0.4108 -1.6469
11270TIP3    H255302   0.943   6.284   3.462  0.5813  0.0848 -0.0973
11271TIP3   OH255303   3.346   0.435  13.422 -0.0671  0.0550  0.3300
11271TIP3    H155304   3.395   0.359  13.454  0.6930  0.7517  0.8472
11271TIP3    H255305   3.338   0.493  13.498 -0.1536  0.7502 -0.1982
11272TIP3   OH255306   4.864   6.220  10.643 -0.1281  0.0491  0.1140
11272TIP3    H155307   4.801   6.285  10.613 -0.4675 -0.5927 -0.6274
11272TIP3    H255308   4.917   6.265  10.709  1.0585  1.7347 -1.8758
11273TIP3   OH255309   2.128   1.554  12.061  0.0663 -0.6748  0.1302
11273TIP3    H155310   2.070   1.481  12.081 -1.3601  0.3071 -0.3439
11273TIP3    H255311   2.077   1.633  12.081  1.0358  0.2222 -0.7734
11274TIP3   OH255312   2.676   3.477   6.765  0.5813 -0.4107 -0.0509
11274TIP3    H155313   2.694   3.562   6.723 -2.8875  0.7233  0.4233
11274TIP3    H255314   2.694   3.492   6.858  1.5763 -0.7657 -0.1727
11275TIP3   OH255315   1.183   4.476  11.963 -0.1669 -0.4239 -0.3058
11275TIP3    H155316   1.148   4.565  11.953  0.0884 -0.3179 -0.2652
11275TIP3    H255317   1.277   4.486  11.953 -0.0953 -0.6239  0.1328
11276TIP3   OH255318   0.720   5.221   1.834 -0.0915 -0.3724  0.4831
11276TIP3    H155319   0.752   5.255   1.918  0.3199 -0.0147  0.1878
11276TIP3    H255320   0.797   5.222   1.777 -0.2987 -0.9084  0.1928
11277TIP3   OH255321   2.380   2.956  15.768 -0.4574  0.7031  0.3410
11277TIP3    H155322   2.348   2.881  15.718  0.5449 -0.7638  1.7700
11277TIP3    H255323   2.426   3.010  15.705 -0.3380 -0.4102 -0.5538
11278TIP3   OH255324   4.847   0.906  12.989 -0.8208  0.0156 -0.2856
11278TIP3    H155325   4.873   0.843  12.922 -2.2812  0.6990 -1.5807
11278TIP3    H255326   4.879   0.990  12.955  0.4977  0.0915  1.0737
11279TIP3   OH255327   3.479   3.023   4.188 -0.2331 -0.9113 -0.4384
11279TIP3    H155328   3.419   2.993   4.256 -0.4519 -3.5902 -1.6884
11279TIP3    H255329   3.565   3.021   4.229 -0.4371 -1.9219 -0.0348
11280TIP3   OH255330   0.287   0.168  15.406  0.0706 -0.4358  0.3295
11280TIP3    H155331   0.192   0.169  15.420  0.0929  0.0623  0.4786
11280TIP3    H255332   0.307   0.256  15.373  0.2557 -1.0545 -1.2753
11281TIP3   OH255333   4.044   3.360   5.171  0.1035  0.4571 -0.0336
11281TIP3    H155334   4.019   3.337   5.081 -0.6572  2.7568 -0.4615
11281TIP3    H255335   4.092   3.443   5.163  1.3246 -0.0259  1.5717
11282TIP3   OH255336   3.114   5.369   0.152 -0.3364  0.0944  0.2035
11282TIP3    H155337   3.091   5.461   0.141 -1.8387 -0.4257 -1.5750
11282TIP3    H255338   3.033   5.327   0.182  0.1512 -0.7570  0.3743
11283TIP3   OH255339   5.920   4.257   3.620 -0.6632  0.3350  0.1730
11283TIP3    H155340   5.893   4.263   3.712  1.3628 -1.4920  0.9561
11283TIP3    H255341   6.003   4.303   3.616 -0.7897  0.4981 -0.7906
11284TIP3   OH255342   3.280   3.569   3.405 -0.2375  0.2372 -0.1513
11284TIP3    H155343   3.322   3.627   3.468  0.3802 -2.1059  1.6979
11284TIP3    H255344   3.270   3.623   3.326  2.7112  2.0406  0.5743
11285TIP3   OH255345   3.622   4.881  13.889  0.3245  0.6622  0.1152
11285TIP3    H155346   3.633   4.867  13.795 -1.4479  0.1920 -0.0436
11285TIP3    H255347   3.535   4.846  13.909  1.0432 -0.1346  2.1142
11286TIP3   OH255348   5.577   5.437  11.135  0.0478  0.3676 -0.5009
11286TIP3    H155349   5.488   5.471  11.128 -0.2704 -0.2986  0.1901
11286TIP3    H255350   5.604   5.458  11.224  0.3965  0.1258 -0.5471
11287TIP3   OH255351   0.256   5.365   0.099  0.2515  0.1930  0.0522
11287TIP3    H155352   0.279   5.339   0.010 -1.6550 -1.5377 -0.0211
11287TIP3    H255353   0.195   5.438   0.088 -2.0673 -1.6582 -0.3127
11288TIP3   OH255354   2.463   6.468  13.754 -0.4034 -0.0391 -0.8722
11288TIP3    H155355   2.391   6.486  13.694 -0.5679 -1.3796 -1.1257
11288TIP3    H255356   2.430   6.399  13.812 -0.5946  1.8951  1.4636
11289TIP3   OH255357   6.481   3.807  10.427  0.2674  0.6469 -0.2545
11289TIP3    H155358   6.405   3.863  10.421  0.1086  0.3587 -1.0127
11289TIP3    H255359   6.446   3.722  10.455  0.4213  0.7443  0.2408
11290TIP3   OH255360   1.722   3.024  16.380  0.7163  0.6548  0.1595
11290TIP3    H155361   1.720   3.119  16.387  0.8523  0.5904  1.1366
11290TIP3    H255362   1.668   2.993  16.453  1.2704 -0.0341  0.2917
11291TIP3   OH255363   6.751   6.641  15.663  0.2753  0.2414 -0.3543
11291TIP3    H155364   6.736   6.571  15.600 -0.9464  0.4791 -0.3691
11291TIP3    H255365   6.837   6.676  15.641 -0.3901  0.7765 -2.3784
11292TIP3   OH255366   0.374   6.767   3.910  0.0334  0.5240 -0.3761
11292TIP3    H155367   0.397   6.751   4.002 -2.6902  0.8201  0.4457
11292TIP3    H255368   0.361   6.680   3.873 -0.9860  0.4275  0.1679
11293TIP3   OH255369   0.247   4.345   4.858  0.5996 -0.3401 -0.0805
11293TIP3    H155370   0.267   4.261   4.818  0.0439 -0.1242 -0.8305
11293TIP3    H255371   0.179   4.326   4.922  0.8513 -0.5402  0.1316
11294TIP3   OH255372   4.806   0.229  15.817 -0.1212  0.1728 -0.1604
11294TIP3    H155373   4.821   0.307  15.764 -0.6989  0.3570 -0.0511
11294TIP3    H255374   4.874   0.233  15.885 -0.5028  0.8875  0.1942
11295TIP3   OH255375   6.482   3.162   6.109 -0.2654  0.2352  0.0419
11295TIP3    H155376   6.431   3.081   6.113  0.5264 -0.2330  1.8656
11295TIP3    H255377   6.562   3.136   6.063  0.2090 -0.2018  1.0612
11296TIP3   OH255378   5.052   0.104   2.037 -0.8382  0.1070  0.3143
11296TIP3    H155379   5.085   0.194   2.031 -0.6867  0.0384  0.1188
11296TIP3    H255380   5.052   0.072   1.946  1.6030 -0.9992  0.6389
11297TIP3   OH255381   4.806   4.350   0.565 -0.3520 -0.4432 -0.3265
11297TIP3    H155382   4.812   4.288   0.492 -0.4508 -2.1731  1.0800
11297TIP3    H255383   4.897   4.367   0.590 -0.1934  1.6593 -1.9767
11298TIP3   OH255384   2.301   0.151  14.615 -0.6140  0.4497  0.3869
11298TIP3    H155385   2.370   0.206  14.652 -2.2691  1.9089  1.4377
11298TIP3    H255386   2.318   0.151  14.521  1.1414  0.2591  0.6579
11299TIP3   OH255387   2.215   2.859   2.623 -0.1295  0.1443  0.0791
11299TIP3    H155388   2.283   2.848   2.557 -0.7714 -1.0921 -0.4114
11299TIP3    H255389   2.167   2.938   2.595 -0.8313 -0.7548 -1.3526
11300TIP3   OH255390   1.688   1.881  12.532  0.1902 -0.2481 -0.5738
11300TIP3    H155391   1.753   1.888  12.462  1.0291  0.4908  0.2552
11300TIP3    H255392   1.707   1.955  12.590 -1.3858 -0.0195 -0.3013
11301TIP3   OH255393   5.845   2.384  11.943 -0.2588 -0.2022 -0.1021
11301TIP3    H155394   5.877   2.474  11.949  0.0602 -0.4135  3.1697
11301TIP3    H255395   5.753   2.392  11.921 -0.5820  1.0496  1.5626
11302TIP3   OH255396   2.921   4.864   0.820 -0.6498 -0.5665 -0.1653
11302TIP3    H155397   2.944   4.853   0.728 -1.7911  0.6765 -0.6280
11302TIP3    H255398   2.992   4.918   0.856 -0.1150 -1.1951 -0.2406
11303TIP3   OH255399   2.894   4.525  17.344 -0.1563  0.0013  0.4820
11303TIP3    H155400   2.857   4.462  17.282  1.1725 -0.2865 -0.0337
11303TIP3    H255401   2.864   4.495  17.430 -0.9242 -0.3439  0.1039
11304TIP3   OH255402   1.253   4.135  13.069 -0.3263  0.2648  0.6935
11304TIP3    H155403   1.296   4.160  12.987 -0.6690  0.7697  0.6652
11304TIP3    H255404   1.285   4.198  13.133 -1.9598  1.4548  0.4055
11305TIP3   OH255405   0.054   0.208  12.668  0.1948 -0.2388  0.1303
11305TIP3    H155406   0.006   0.157  12.603  0.4362  0.2671 -0.4572
11305TIP3    H255407   0.016   0.296  12.662  0.8006  0.0264  0.0556
11306TIP3   OH255408   1.948   1.310  11.461 -1.0171  0.0786  0.0932
11306TIP3    H155409   2.029   1.260  11.470  0.6840  2.8584  1.7566
11306TIP3    H255410   1.942   1.360  11.542 -3.8465  0.8335 -0.4783
11307TIP3   OH255411   2.071   0.484   3.935 -0.0562  0.2575 -0.5975
11307TIP3    H155412   2.083   0.579   3.932 -0.2356  0.2578 -1.6004
11307TIP3    H255413   2.082   0.462   4.027  0.6702  1.1582 -0.4511
11308TIP3   OH255414   4.828   1.826  13.195  0.0251  0.4195  0.8552
11308TIP3    H155415   4.786   1.752  13.152  2.3651 -0.6654  0.3123
11308TIP3    H255416   4.843   1.889  13.125 -1.7875  1.4156  1.2832
11309TIP3   OH255417   0.856   5.721  10.675 -0.0133 -0.1365  0.2925
11309TIP3    H155418   0.808   5.749  10.597  0.6086  0.8076  0.2339
11309TIP3    H255419   0.881   5.802  10.718 -1.3512 -0.6405  2.1191
11310TIP3   OH255420   5.750   2.153   5.363 -0.5370 -0.0091  0.3197
11310TIP3    H155421   5.798   2.154   5.446 -1.8024  1.5344  1.0987
11310TIP3    H255422   5.719   2.063   5.354  0.3550 -0.4136  1.0613
11311TIP3   OH255423   1.472   0.684   0.965 -0.3696 -0.3241 -0.7311
11311TIP3    H155424   1.444   0.593   0.953  1.0879 -1.3215  2.2891
11311TIP3    H255425   1.403   0.724   1.017  1.2915 -1.3988  2.5772
11312TIP3   OH255426   3.117   6.725  15.524 -0.0176  0.0723  0.3636
11312TIP3    H155427   3.094   6.758  15.611  0.7543  1.0041  0.2241
11312TIP3    H255428   3.064   6.646  15.515 -0.4234  0.1820  1.5114
11313TIP3   OH255429   3.409   1.776   4.342 -0.2674  0.3683  0.5685
11313TIP3    H155430   3.435   1.826   4.265  1.6467  1.3611  1.8035
11313TIP3    H255431   3.321   1.807   4.362 -0.2125  1.1744 -0.3546
11314TIP3   OH255432   1.477   1.574   0.444 -0.3290 -0.2140  0.2370
11314TIP3    H155433   1.471   1.482   0.470  1.6826 -0.2799  0.6343
11314TIP3    H255434   1.390   1.609   0.461 -0.5484 -1.5257  2.1871
11315TIP3   OH255435   2.990   6.622   2.141  0.2029 -0.1112 -0.6792
11315TIP3    H155436   3.037   6.661   2.067 -1.9711  1.3555 -1.3786
11315TIP3    H255437   2.908   6.670   2.145  0.0728 -0.4110  2.4910
11316TIP3   OH255438   2.449   3.927   5.841  0.5744 -0.2596 -0.3502
11316TIP3    H155439   2.378   3.991   5.832 -1.9187 -2.8679 -0.4266
11316TIP3    H255440   2.469   3.926   5.935 -1.2597 -1.2293  0.0637
11317TIP3   OH255441   1.964   4.260   0.538 -0.6814 -0.5287 -0.1651
11317TIP3    H155442   1.971   4.168   0.510 -2.3990 -1.4309  2.0849
11317TIP3    H255443   2.055   4.288   0.548 -0.1069 -2.0836 -0.5958
11318TIP3   OH255444   6.005   2.942   0.427 -0.6239  0.0196  0.1937
11318TIP3    H155445   5.934   2.878   0.434 -0.8790  0.0894 -1.4948
11318TIP3    H255446   6.010   2.981   0.515 -2.2244 -0.4589  0.5350
11319TIP3   OH255447   4.305   6.399  15.794  0.0664 -0.4466  0.3117
11319TIP3    H155448   4.345   6.328  15.845 -0.4240 -1.6927 -0.9884
11319TIP3    H255449   4.366   6.414  15.722  0.6640  1.1816  1.1090
11320TIP3   OH255450   3.161   0.813   3.564 -0.3888 -0.0143 -0.0261
11320TIP3    H155451   3.116   0.797   3.480 -0.4274  0.4588 -0.1006
11320TIP3    H255452   3.097   0.786   3.630 -0.3267 -0.4699 -0.1476
11321TIP3   OH255453   6.121   0.730  15.259  0.2408 -0.5361 -0.0885
11321TIP3    H155454   6.076   0.645  15.262 -0.2557 -0.2872 -0.4708
11321TIP3    H255455   6.145   0.748  15.350  0.7524 -1.2980 -0.0605
11322TIP3   OH255456   3.794   6.789  11.482  0.2599 -0.0056  0.1389
11322TIP3    H155457   3.798   6.858  11.548  0.1557  0.3632 -0.2366
11322TIP3    H255458   3.727   6.728  11.516  0.3530  0.0729  0.4707
11323TIP3   OH255459   3.858   2.996   3.406  0.4756  0.4998 -0.1685
11323TIP3    H155460   3.775   3.015   3.449  0.5285  0.8468 -0.2168
11323TIP3    H255461   3.916   2.966   3.476 -0.0930 -1.0686 -0.3425
11324TIP3   OH255462   5.600   3.222   5.059 -0.0657 -0.1133  0.1086
11324TIP3    H155463   5.594   3.129   5.034 -1.3165 -0.0315  0.0360
11324TIP3    H255464   5.620   3.220   5.153 -0.5175 -0.4626  0.2007
11325TIP3   OH255465   5.909   1.663  14.452 -0.3147 -0.1521  0.0224
11325TIP3    H155466   5.951   1.698  14.373 -0.0164 -0.0733  0.2129
11325TIP3    H255467   5.815   1.670  14.435 -0.3024  1.8175  0.4869
11326TIP3   OH255468   3.503   5.462   4.839 -0.6088  0.2153  0.1515
11326TIP3    H155469   3.430   5.402   4.826 -0.5242  0.4679 -1.8209
11326TIP3    H255470   3.557   5.451   4.761  0.4482  1.4236  0.6722
11327TIP3   OH255471   2.643   0.342  15.810 -0.1102  0.6987 -0.2868
11327TIP3    H155472   2.628   0.263  15.862 -0.7800  0.5818 -0.6432
11327TIP3    H255473   2.575   0.403  15.837  0.5745  1.2636  0.1848
11328TIP3   OH255474   5.976   2.861   2.528  0.2191  0.1589  0.0666
11328TIP3    H155475   5.888   2.897   2.517  0.0417 -0.7945 -2.1827
11328TIP3    H255476   5.963   2.766   2.526  1.4507 -0.0258 -2.3265
11329TIP3   OH255477   1.224   2.346  13.030  0.1591  0.2895 -0.1894
11329TIP3    H155478   1.137   2.386  13.027  0.0432 -0.0168 -1.6742
11329TIP3    H255479   1.254   2.348  12.939  1.0691 -1.0077  0.0600
11330TIP3   OH255480   3.565   3.557   3.143  0.5256 -0.7568 -0.0467
11330TIP3    H155481   3.576   3.521   3.055 -2.1467 -2.7052  0.2694
11330TIP3    H255482   3.532   3.646   3.129  5.0428  1.0607 -0.8538
11331TIP3   OH255483   1.433   6.473   5.995 -0.3320  0.0939 -0.0766
11331TIP3    H155484   1.398   6.523   6.068  1.0273  0.8308  0.1064
11331TIP3    H255485   1.527   6.492   5.996 -0.2629  0.0027 -1.9232
11332TIP3   OH255486   4.369   4.512  16.105 -0.0546  0.0476  0.3721
11332TIP3    H155487   4.348   4.592  16.057  4.0459  0.9418 -0.3402
11332TIP3    H255488   4.368   4.537  16.197  2.2855  1.4357  0.1231
11333TIP3   OH255489   4.215   5.836   0.968  0.2325 -0.0287 -0.5857
11333TIP3    H155490   4.163   5.858   0.891  1.4677  0.9952 -1.1757
11333TIP3    H255491   4.285   5.780   0.935 -0.7714 -1.8923  0.2980
11334TIP3   OH255492   3.876   2.399   2.382 -0.2878 -0.4381 -0.4882
11334TIP3    H155493   3.911   2.364   2.300  0.1558  0.0915 -0.5366
11334TIP3    H255494   3.909   2.489   2.384  2.5952 -1.3718  1.8874
11335TIP3   OH255495   3.892   1.537  11.798  0.2416 -0.2272 -0.0149
11335TIP3    H155496   3.919   1.497  11.715 -0.4312  0.6489 -0.6745
11335TIP3    H255497   3.817   1.592  11.775  1.1891  1.4969  0.8334
11336TIP3   OH255498   3.133   6.661   1.279 -0.1359 -0.3994  0.0495
11336TIP3    H155499   3.211   6.705   1.314  0.7360 -1.8601  0.0450
11336TIP3    H255500   3.168   6.582   1.239 -1.8798 -2.6337  2.6231
11337TIP3   OH255501   0.035   4.553   1.568 -0.3577  0.1352  0.7224
11337TIP3    H155502  -0.030   4.619   1.547  0.6637  0.9459  0.0044
11337TIP3    H255503  -0.008   4.496   1.632 -1.9630  0.2873 -0.1693
11338TIP3   OH255504   3.728   3.741   1.309  0.3695  0.1233  0.0656
11338TIP3    H155505   3.729   3.761   1.215  0.3081  0.6232  0.1717
11338TIP3    H255506   3.762   3.820   1.351  1.3205 -0.4453  0.4049
11339TIP3   OH255507   3.017   1.075   1.426 -0.2719  0.0263 -0.4194
11339TIP3    H155508   2.953   1.101   1.359 -0.8679  1.0905  0.5436
11339TIP3    H255509   3.088   1.034   1.376 -0.7024  0.7829 -1.7065
11340TIP3   OH255510   1.281   6.514   5.092  0.5059  0.1843  0.2780
11340TIP3    H155511   1.252   6.423   5.092  2.8189 -0.6048 -0.2878
11340TIP3    H255512   1.274   6.541   5.000  0.0820  0.4989  0.4006
11341TIP3   OH255513   2.215   4.260   0.845  0.4191 -0.6843 -0.7470
11341TIP3    H155514   2.206   4.301   0.760  2.6968  0.6218 -0.4522
11341TIP3    H255515   2.284   4.194   0.832 -0.5604 -1.8275 -0.3276
11342TIP3   OH255516   2.213   5.198  14.642  0.1115  0.5545  0.3360
11342TIP3    H155517   2.152   5.182  14.714 -0.0774  1.5238  0.4064
11342TIP3    H255518   2.169   5.161  14.565  1.1189 -2.1668  0.9575
11343TIP3   OH255519   4.272   4.694   4.490 -0.0684 -0.1704  0.0353
11343TIP3    H155520   4.297   4.773   4.539  0.7178 -0.2702 -0.1835
11343TIP3    H255521   4.225   4.727   4.414 -4.1937 -0.0993  2.3136
11344TIP3   OH255522   2.841   2.832   3.162  0.3011 -0.3541 -0.1116
11344TIP3    H155523   2.866   2.843   3.253  1.5486  0.3739 -0.5150
11344TIP3    H255524   2.821   2.920   3.131  3.0862 -0.0602 -1.3798
11345TIP3   OH255525   5.619   1.026  13.175 -0.2369 -0.5976  0.2128
11345TIP3    H155526   5.611   1.092  13.244 -0.3242 -0.1882 -0.1818
11345TIP3    H255527   5.533   1.024  13.133 -0.2882 -1.0946  0.3374
11346TIP3   OH255528   0.314   3.223   0.132  0.1338  0.3125  0.4020
11346TIP3    H155529   0.320   3.194   0.223  0.8193  1.3425  0.7050
11346TIP3    H255530   0.403   3.209   0.097  0.3973  1.6913  0.4667
11347TIP3   OH255531   1.141   1.418   4.653 -0.2495  0.0232 -0.4708
11347TIP3    H155532   1.065   1.463   4.616  0.2420  0.9423 -0.3930
11347TIP3    H255533   1.213   1.482   4.646  0.6713 -1.0439 -1.1323
11348TIP3   OH255534   3.733   2.524  15.755 -0.4805 -0.3646  0.2562
11348TIP3    H155535   3.643   2.523  15.789 -0.4571 -0.3128  0.3207
11348TIP3    H255536   3.756   2.431  15.746 -0.7074 -0.3774 -0.2120
11349TIP3   OH255537   1.360   4.927  11.218 -0.2638  0.3992  0.1998
11349TIP3    H155538   1.392   4.893  11.134  0.6879  1.0872  0.2710
11349TIP3    H255539   1.362   4.851  11.277 -1.1676 -0.1509 -0.4357
11350TIP3   OH255540   2.644   5.952   4.780  0.3630 -0.2252  0.1788
11350TIP3    H155541   2.729   5.908   4.781  0.7816  0.3857 -2.1185
11350TIP3    H255542   2.590   5.897   4.723 -0.4935 -0.0675  0.8157
11351TIP3   OH255543   5.222   0.304   1.945  0.8314  0.7279  0.3303
11351TIP3    H155544   5.254   0.274   1.860  1.4364  1.3140  0.3390
11351TIP3    H255545   5.289   0.276   2.007  0.2632  0.0718  0.6560
11352TIP3   OH255546   1.559   3.219  12.890  0.3964 -0.0729  0.1430
11352TIP3    H155547   1.577   3.308  12.918  2.0325 -0.7073  1.2679
11352TIP3    H255548   1.542   3.226  12.796  2.9936  1.1507 -0.3121
11353TIP3   OH255549   0.616   1.775   4.573 -0.2408 -0.4388  0.0072
11353TIP3    H155550   0.649   1.691   4.543 -0.9333 -0.6903 -0.0513
11353TIP3    H255551   0.604   1.826   4.493  0.2885 -0.2414  0.0511
11354TIP3   OH255552   1.108   0.757   1.566 -0.3089  1.0463 -0.6867
11354TIP3    H155553   1.051   0.788   1.637 -0.8030  0.4256 -0.8028
11354TIP3    H255554   1.183   0.718   1.611 -2.1231 -2.4434 -0.2669
11355TIP3   OH255555   4.737   2.618  16.194  0.1127  0.4332 -0.1582
11355TIP3    H155556   4.773   2.541  16.238  0.3769  0.7131  0.1170
11355TIP3    H255557   4.729   2.684  16.263 -0.3876  0.5617 -0.3352
11356TIP3   OH255558   4.915   5.300  11.488 -0.2723 -0.2946  0.1382
11356TIP3    H155559   4.992   5.282  11.542  1.0402 -0.9592 -1.8478
11356TIP3    H255560   4.907   5.223  11.432 -0.2448  1.2239 -2.0727
11357TIP3   OH255561   3.860   3.883   4.533 -0.4281  0.4948 -0.0045
11357TIP3    H155562   3.775   3.924   4.519 -0.5617 -0.0513 -0.8707
11357TIP3    H255563   3.845   3.790   4.514 -0.0429  0.0893  1.5007
11358TIP3   OH255564   1.478   6.282  16.555  0.5464  0.0746  0.1885
11358TIP3    H155565   1.452   6.355  16.499  1.9044  0.7818  0.4378
11358TIP3    H255566   1.479   6.206  16.496 -0.8532  0.2282 -0.0744
11359TIP3   OH255567   2.599   6.704   4.681  0.6913 -0.3797  0.4614
11359TIP3    H155568   2.673   6.763   4.691  2.4922 -2.3999 -0.2119
11359TIP3    H255569   2.623   6.626   4.731 -0.9520 -1.1349  0.1504
11360TIP3   OH255570   5.099   4.789  11.962  0.1833 -0.5991  0.8257
11360TIP3    H155571   5.096   4.724  11.892 -1.7551 -0.8726  1.1204
11360TIP3    H255572   5.116   4.738  12.041 -2.6633 -1.0279  1.2656
11361TIP3   OH255573   6.304   0.487  12.829 -0.0163 -0.3750 -0.2717
11361TIP3    H155574   6.390   0.518  12.856  0.0805 -1.2891  0.4944
11361TIP3    H255575   6.244   0.558  12.854  0.1312 -0.9694  1.9567
11362TIP3   OH255576   2.132   2.105   4.892  0.4000  0.7062 -0.3154
11362TIP3    H155577   2.209   2.057   4.922 -0.9107 -1.1681  0.2395
11362TIP3    H255578   2.086   2.130   4.973  0.1343  1.3230 -0.6468
11363TIP3   OH255579   3.391   4.573   2.438 -0.2499 -0.0042  1.2970
11363TIP3    H155580   3.344   4.649   2.403 -0.7888 -0.7983  0.2343
11363TIP3    H255581   3.322   4.511   2.461  0.2477 -1.5773 -1.1762
11364TIP3   OH255582   6.470   0.565   0.576 -0.0043  0.5328  0.6401
11364TIP3    H155583   6.471   0.554   0.671  1.7768 -1.9073  0.4321
11364TIP3    H255584   6.447   0.478   0.542  2.0855  0.5914 -1.1516
11365TIP3   OH255585   1.749   1.994   4.303 -0.1106  0.1302  0.2923
11365TIP3    H155586   1.788   2.008   4.389  1.1022  0.1941 -0.2379
11365TIP3    H255587   1.697   2.073   4.288  1.7452  1.3616 -0.0782
11366TIP3   OH255588   1.652   0.185   5.625 -0.5470  0.2096  0.2587
11366TIP3    H155589   1.732   0.188   5.677  0.3700  0.9097 -1.1260
11366TIP3    H255590   1.582   0.172   5.689  0.6956 -0.9124  1.4690
11367TIP3   OH255591   0.272   2.995  14.798 -0.3242  0.0555  0.3413
11367TIP3    H155592   0.348   3.047  14.770 -1.1382  1.0766 -0.0392
11367TIP3    H255593   0.268   2.924  14.734  0.4209 -0.1177  0.4756
11368TIP3   OH255594   4.081   1.657   1.751  0.3389  0.1452  0.3641
11368TIP3    H155595   4.170   1.624   1.742 -0.2370 -2.3273  2.3708
11368TIP3    H255596   4.048   1.616   1.831 -1.9447  2.5953  0.8463
11369TIP3   OH255597   1.871   0.654   3.732  0.3147 -0.1613  0.4776
11369TIP3    H155598   1.944   0.697   3.775  1.4872 -2.0944  0.5474
11369TIP3    H255599   1.879   0.679   3.640  0.8038 -0.0124  0.5619
11370TIP3   OH255600   2.224   1.402   5.592 -0.5973 -0.1578 -0.3139
11370TIP3    H155601   2.258   1.444   5.513  0.1032 -0.2241 -0.0544
11370TIP3    H255602   2.274   1.321   5.600  0.1213  0.3694  0.7925
11371TIP3   OH255603   3.054   1.500  11.737  0.0772 -0.2962  0.5417
11371TIP3    H155604   3.077   1.472  11.648  0.0354 -0.9796  0.7376
11371TIP3    H255605   3.029   1.419  11.781  2.4382 -0.3948  1.9016
11372TIP3   OH255606   1.571   6.257  11.484  0.0501  0.0803 -0.0073
11372TIP3    H155607   1.657   6.217  11.496 -0.2620 -0.5978 -0.0240
11372TIP3    H255608   1.516   6.187  11.449 -0.1136  0.9262 -1.5184
11373TIP3   OH255609   2.047   5.776   3.386 -0.3634 -0.4789  0.2912
11373TIP3    H155610   2.042   5.701   3.326 -3.4052 -1.1621  1.2196
11373TIP3    H255611   1.978   5.834   3.356  0.9214  1.2524  0.5663
11374TIP3   OH255612   1.175   3.426  15.215  0.0942 -0.0665  0.2905
11374TIP3    H155613   1.182   3.469  15.129  2.4230 -1.4428 -0.3120
11374TIP3    H255614   1.082   3.429  15.236 -0.4733  0.8283 -2.0275
11375TIP3   OH255615   3.677   4.868  14.459  0.8048 -0.1911 -0.0677
11375TIP3    H155616   3.604   4.928  14.448 -0.7829 -1.9746  0.3268
11375TIP3    H255617   3.740   4.895  14.392 -0.4689  0.9868 -0.8484
11376TIP3   OH255618   6.486   4.324   4.835 -0.0360 -0.0908  0.4444
11376TIP3    H155619   6.544   4.298   4.763  0.8729 -3.3948  2.1698
11376TIP3    H255620   6.546   4.343   4.907 -1.0188 -0.2376  1.3130
11377TIP3   OH255621   1.608   1.981  14.348  0.3701  0.4129 -0.4533
11377TIP3    H155622   1.625   2.042  14.421  1.1735 -0.8266  0.4309
11377TIP3    H255623   1.663   1.905  14.367 -1.5712 -1.1771 -0.7961
11378TIP3   OH255624   6.084   0.823   5.485 -0.5522  0.3963  0.0483
11378TIP3    H155625   6.155   0.759   5.482 -1.0610 -0.2942  1.5749
11378TIP3    H255626   6.114   0.896   5.431  1.3170  0.1258  0.6726
11379TIP3   OH255627   4.375   0.691  14.462  0.0781  0.0550  0.1003
11379TIP3    H155628   4.316   0.761  14.434 -0.6162 -0.0325  1.2722
11379TIP3    H255629   4.385   0.704  14.556  0.2493 -1.1843  0.2733
11380TIP3   OH255630   6.682   3.542  16.742  0.6491  0.1194  0.1902
11380TIP3    H155631   6.628   3.483  16.794  1.6409  0.2356  1.4055
11380TIP3    H255632   6.772   3.520  16.768  1.1111  0.9265 -0.6887
11381TIP3   OH255633   5.314   2.439  16.309  0.2842  0.6325  0.2174
11381TIP3    H155634   5.397   2.410  16.270  0.8642  0.5540  1.4646
11381TIP3    H255635   5.253   2.440  16.236  0.9528 -0.9876 -0.4124
11382TIP3   OH255636   0.031   5.043   3.386  0.1081  0.0348 -0.1087
11382TIP3    H155637   0.123   5.065   3.374  0.3076  0.5436  1.8528
11382TIP3    H255638  -0.003   5.115   3.439 -1.6321  0.2514 -1.4363
11383TIP3   OH255639   1.319   2.021   1.244 -0.5626 -0.1248  0.2424
11383TIP3    H155640   1.315   2.073   1.164  0.6549 -1.3158 -0.6410
11383TIP3    H255641   1.249   1.957   1.235 -0.3373 -0.3467  0.0607
11384TIP3   OH255642   3.262   6.253   2.925 -0.4652 -0.3186  0.0379
11384TIP3    H155643   3.237   6.190   2.857  0.0892 -0.8383  0.3024
11384TIP3    H255644   3.179   6.282   2.963 -0.7779 -0.1009 -0.7830
11385TIP3   OH255645   3.647   5.147   2.410  0.5626  0.0274  0.2406
11385TIP3    H155646   3.673   5.236   2.430 -0.8765 -0.0269  2.8114
11385TIP3    H255647   3.672   5.096   2.487 -1.0279 -1.2483 -0.0130
11386TIP3   OH255648   2.401   4.301   4.411  0.2849 -0.1747 -0.1755
11386TIP3    H155649   2.451   4.380   4.428 -0.1561 -0.2406  1.6144
11386TIP3    H255650   2.458   4.230   4.439 -0.0420 -0.3651  0.0142
11387TIP3   OH255651   1.021   2.227  14.324 -0.3312 -0.4011  0.2628
11387TIP3    H155652   1.052   2.185  14.244  1.8219  0.9005  0.3361
11387TIP3    H255653   1.027   2.159  14.391  1.4430 -0.5157  0.0392
11388TIP3   OH255654   5.744   6.681  12.687 -0.3136 -0.0529  0.2032
11388TIP3    H155655   5.763   6.603  12.739  1.3684 -0.2603 -0.6349
11388TIP3    H255656   5.652   6.672  12.664 -0.3007 -1.5205  0.5903
11389TIP3   OH255657   1.962   0.763  13.564  0.3901  0.3491  0.2261
11389TIP3    H155658   2.018   0.725  13.496 -0.6261 -0.1806 -0.3320
11389TIP3    H255659   1.877   0.722  13.551 -0.0625  0.9267  1.2503
11390TIP3   OH255660   6.459   5.070   5.991 -0.0470  0.2576 -0.1898
11390TIP3    H155661   6.367   5.091   6.012  0.3819  1.5259  0.5319
11390TIP3    H255662   6.468   4.978   6.015 -1.3188 -0.0943 -0.9417
11391TIP3   OH255663   0.918   1.024   4.593  0.4124 -0.3739  0.5602
11391TIP3    H155664   0.829   0.995   4.575 -0.3013  1.2797  1.2499
11391TIP3    H255665   0.968   0.942   4.601 -0.4979 -1.3021 -2.1794
11392TIP3   OH255666   5.991   6.309  15.443  0.0719  0.3164 -0.1016
11392TIP3    H155667   5.900   6.331  15.423  0.2624 -0.9254 -2.7200
11392TIP3    H255668   6.039   6.391  15.428 -0.5657  1.0047  1.3916
11393TIP3   OH255669   0.389   2.045  15.351  0.1914  0.4459 -0.2082
11393TIP3    H155670   0.355   2.125  15.310  1.3120  0.7234 -0.6370
11393TIP3    H255671   0.484   2.054  15.346  0.3539 -1.1486 -0.7181
11394TIP3   OH255672   4.189   5.281  13.459 -0.1379  0.1877  0.0348
11394TIP3    H155673   4.141   5.198  13.459  0.3738 -0.1323 -1.3415
11394TIP3    H255674   4.266   5.263  13.513  0.4039 -0.5142 -0.9390
11395TIP3   OH255675   0.133   1.012   0.415  0.1030  0.3690  0.5223
11395TIP3    H155676   0.146   1.028   0.508 -1.0571 -0.7350  0.9010
11395TIP3    H255677   0.094   0.925   0.410 -0.7311  0.7824 -0.9210
11396TIP3   OH255678   5.780   6.113   3.739 -0.2857  0.1931 -0.0287
11396TIP3    H155679   5.863   6.066   3.741 -0.5508 -0.3572 -0.8864
11396TIP3    H255680   5.734   6.076   3.663 -1.6559 -0.1070  0.9050
11397TIP3   OH255681   3.630   4.033   4.458  0.1716 -0.5370 -0.8418
11397TIP3    H155682   3.573   4.029   4.382  0.3985  0.0836 -1.0536
11397TIP3    H255683   3.576   4.002   4.531 -0.4718  0.1345 -1.0175
11398TIP3   OH255684   4.022   6.581  13.756 -0.2671  0.0253  0.0184
11398TIP3    H155685   3.986   6.575  13.844 -2.5695  0.3161 -0.8488
11398TIP3    H255686   3.946   6.585  13.698  1.1285 -1.5985 -2.1188
11399TIP3   OH255687   5.405   5.246   6.323 -0.4108  0.3131 -0.4314
11399TIP3    H155688   5.428   5.176   6.384 -3.0430  0.8764  1.3731
11399TIP3    H255689   5.310   5.243   6.317 -0.4260  2.1064 -2.3545
11400TIP3   OH255690   1.266   5.593  14.158  0.2528 -0.1231 -0.0227
11400TIP3    H155691   1.263   5.686  14.178  1.3518 -0.4389  1.8202
11400TIP3    H255692   1.335   5.584  14.093 -1.3490  0.5616 -1.9246
11401TIP3   OH255693   0.697   1.976   4.374 -0.3840 -0.1672  0.5866
11401TIP3    H155694   0.776   1.981   4.322 -1.2491  0.1040 -0.7485
11401TIP3    H255695   0.712   2.035   4.447 -0.2837  1.8048 -0.9531
11402TIP3   OH255696   6.109   4.761  16.232  0.1779 -0.1442  0.5024
11402TIP3    H155697   6.121   4.680  16.184 -1.3256  0.2706 -0.6503
11402TIP3    H255698   6.158   4.827  16.182 -1.0881  0.2149 -0.3267
11403TIP3   OH255699   1.412   2.840   5.421 -0.4843  0.2571 -0.3055
11403TIP3    H155700   1.384   2.751   5.445 -0.9483  0.5102  0.0972
11403TIP3    H255701   1.357   2.863   5.346 -0.3215  0.1837 -0.4483
11404TIP3   OH255702   1.957   0.531  11.866  0.5792  0.7996 -0.0266
11404TIP3    H155703   1.891   0.595  11.842  0.4259  0.9660  0.7833
11404TIP3    H255704   1.937   0.511  11.958  1.2033  0.3032  0.0040
11405TIP3   OH255705   4.395   5.974   5.010 -0.2431  0.0652 -0.4716
11405TIP3    H155706   4.381   5.973   4.916  0.1529  1.2338 -0.5649
11405TIP3    H255707   4.312   6.007   5.046  0.1645  1.2345 -0.5590
11406TIP3   OH255708   1.759   5.036   5.298 -0.4132  0.0206  0.3237
11406TIP3    H155709   1.733   4.960   5.350  0.8322 -0.5752  0.1074
11406TIP3    H255710   1.694   5.103   5.320 -0.9025 -0.7579  1.3362
11407TIP3   OH255711   2.179   6.291   1.883  0.0924  0.1242 -0.4912
11407TIP3    H155712   2.245   6.313   1.817  0.6294  1.0130  0.3255
11407TIP3    H255713   2.118   6.233   1.836  1.5831 -0.9680 -1.1916
11408TIP3   OH255714   3.642   5.621  11.138 -0.0413  0.5706  0.1388
11408TIP3    H155715   3.578   5.550  11.130  1.4069 -1.1064  2.1315
11408TIP3    H255716   3.596   5.699  11.107 -1.5795 -1.2595 -2.5881
11409TIP3   OH255717   5.863   6.618   5.150  0.0459 -0.3269 -0.1040
11409TIP3    H155718   5.926   6.689   5.142  0.7506 -0.8660  0.5964
11409TIP3    H255719   5.859   6.581   5.062  2.9290 -2.1291  0.3984
11410TIP3   OH255720   5.133   0.844  16.079 -0.1514 -0.1363  0.2073
11410TIP3    H155721   5.177   0.929  16.077 -0.9725  0.2950  0.1746
11410TIP3    H255722   5.119   0.827  16.172 -0.0796 -0.1839  0.2086
11411TIP3   OH255723   6.272   6.550  17.256  0.0680 -0.3802 -0.4024
11411TIP3    H155724   6.258   6.639  17.288 -1.5782 -0.4951 -0.7414
11411TIP3    H255725   6.314   6.505  17.329 -1.5619 -0.0363  0.8029
11412TIP3   OH255726   2.961   0.166   3.920  0.2416  0.2339 -0.1956
11412TIP3    H155727   2.975   0.194   3.829 -0.8943  0.7189 -0.2349
11412TIP3    H255728   2.893   0.098   3.913  1.6037 -1.2101  0.0962
11413TIP3   OH255729   0.830   3.546   3.616  0.4071 -0.1333  0.4023
11413TIP3    H155730   0.889   3.601   3.668 -1.8788  0.9799  2.0101
11413TIP3    H255731   0.767   3.512   3.680 -1.7963  0.2542 -1.4361
11414TIP3   OH255732   4.904   1.084   1.385 -0.2333 -0.4632 -0.1331
11414TIP3    H155733   4.877   1.055   1.472 -0.4670 -2.1844 -0.7454
11414TIP3    H255734   4.990   1.043   1.371  0.7659  1.4378  0.0526
11415TIP3   OH255735   5.684   3.974   1.220  0.3500 -0.1998  0.6677
11415TIP3    H155736   5.657   4.062   1.194  1.7247 -0.0801 -0.5028
11415TIP3    H255737   5.620   3.917   1.179 -0.8765  0.2518  1.8918
11416TIP3   OH255738   4.594   4.438   4.779  0.0082  1.0149  0.4673
11416TIP3    H155739   4.597   4.343   4.771  1.2461  1.1980 -3.2806
11416TIP3    H255740   4.512   4.456   4.825 -0.8040 -1.8141  0.3202
11417TIP3   OH255741   0.489   2.079   2.246  0.1487  0.2784 -0.0575
11417TIP3    H155742   0.460   2.167   2.225 -1.4658 -0.2361 -0.1315
11417TIP3    H255743   0.427   2.021   2.201 -0.3253 -0.8705  1.9430
11418TIP3   OH255744   5.165   3.839   1.804 -0.4743 -0.6001 -0.3719
11418TIP3    H155745   5.212   3.835   1.720  0.6827  5.0109 -0.3891
11418TIP3    H255746   5.074   3.853   1.779 -0.0108  1.9757 -0.9173
11419TIP3   OH255747   2.843   5.109  14.016  0.0916  0.2296  0.3153
11419TIP3    H155748   2.831   5.194  13.974 -0.9009  0.0556  0.2235
11419TIP3    H255749   2.785   5.112  14.092  1.7457  0.4850  1.6326
11420TIP3   OH255750   4.085   1.458  14.775  0.4526  0.4372  0.4485
11420TIP3    H155751   4.067   1.396  14.846 -1.6474  1.0165  0.4634
11420TIP3    H255752   4.112   1.538  14.820  0.3165  0.4281  0.5487
11421TIP3   OH255753   6.117   5.466   5.220 -0.1211 -1.4580 -0.2735
11421TIP3    H155754   6.112   5.393   5.281 -0.4654 -0.8794  0.4066
11421TIP3    H255755   6.177   5.528   5.261  0.7642 -1.6797 -1.2037
11422TIP3   OH255756   1.706   4.559   4.329  0.0912 -0.4548 -0.4204
11422TIP3    H155757   1.623   4.604   4.312 -0.6407 -1.7640 -0.5071
11422TIP3    H255758   1.685   4.496   4.398  0.8138 -1.3408 -0.9888
11423TIP3   OH255759   0.391   0.893   5.554  0.4375 -0.2148  0.4074
11423TIP3    H155760   0.334   0.863   5.482 -0.3800  1.3338  0.3647
11423TIP3    H255761   0.389   0.989   5.547  1.6901 -0.0891  1.4865
11424TIP3   OH255762   1.178   2.600   4.583  0.1140  0.1194 -0.1023
11424TIP3    H155763   1.120   2.662   4.626 -1.0457 -0.8799 -0.1550
11424TIP3    H255764   1.166   2.518   4.631 -0.0350 -0.6130 -1.3190
11425TIP3   OH255765   3.433   0.908   4.071 -0.1394  0.1113  0.4013
11425TIP3    H155766   3.499   0.976   4.085  0.1030  0.3022 -1.4154
11425TIP3    H255767   3.480   0.839   4.024 -1.1238  0.0944 -0.5914
11426TIP3   OH255768   2.564   3.131   1.884 -0.0945 -0.5754 -0.1952
11426TIP3    H155769   2.576   3.144   1.978 -0.2652  0.5510 -0.3196
11426TIP3    H255770   2.470   3.116   1.874  0.0688 -1.7573 -0.0792
11427TIP3   OH255771   0.752   1.657   4.946 -0.3829  0.7677  0.2630
11427TIP3    H155772   0.778   1.628   4.858 -0.7672 -0.0234  0.4079
11427TIP3    H255773   0.708   1.582   4.984 -1.2692  1.5016  0.7072
11428TIP3   OH255774   0.196   0.476  11.071  0.6544 -0.0398  0.2941
11428TIP3    H155775   0.127   0.530  11.033 -1.4230 -2.5003  0.2681
11428TIP3    H255776   0.234   0.430  10.996  2.3999  1.2818  0.3122
11429TIP3   OH255777   5.030   1.145  14.812  0.1915  0.1995 -0.1533
11429TIP3    H155778   5.121   1.114  14.811 -0.2327 -1.1389  0.5274
11429TIP3    H255779   4.996   1.121  14.726 -0.7428 -3.3509  1.0205
11430TIP3   OH255780   4.172   2.068  16.734  0.5343 -0.3417  0.7001
11430TIP3    H155781   4.142   2.153  16.702  0.1157 -1.1319 -1.1957
11430TIP3    H255782   4.253   2.051  16.685  1.4931 -0.3837  2.2148
11431TIP3   OH255783   5.922   2.959  17.233 -0.3172 -0.0034 -0.1083
11431TIP3    H155784   5.930   2.939  17.326  0.3680  1.5006  0.1945
11431TIP3    H255785   5.849   3.021  17.228  0.0344  0.3883 -0.4756
11432TIP3   OH255786   0.600   2.861  15.377 -0.2393  0.3653  0.1998
11432TIP3    H155787   0.570   2.778  15.415  0.1514  0.6454  1.1221
11432TIP3    H255788   0.524   2.919  15.384  0.4776  1.1250  2.6895
11433TIP3   OH255789   2.003   1.698  16.252  0.4884 -0.3347  0.1427
11433TIP3    H155790   2.007   1.613  16.210  4.2345  0.6878 -2.1030
11433TIP3    H255791   1.979   1.759  16.183  2.7900  0.9204  0.3274
11434TIP3   OH255792   0.500   1.954  11.506  0.3257  0.3562 -0.3179
11434TIP3    H155793   0.490   1.943  11.411  1.7057  1.1404 -0.5806
11434TIP3    H255794   0.538   1.871  11.536  2.0113  0.8951 -0.8368
11435TIP3   OH255795   4.090   5.090   4.441 -0.1914  0.2636  0.4809
11435TIP3    H155796   4.029   5.061   4.373  0.3948  0.5148 -0.1705
11435TIP3    H255797   4.174   5.051   4.416 -0.1217 -0.2516  1.4835
11436TIP3   OH255798   5.481   2.610  15.986  0.2930  0.1057 -0.2696
11436TIP3    H155799   5.441   2.671  16.048 -0.8653 -0.1695 -0.7354
11436TIP3    H255800   5.459   2.645  15.900  0.6825 -0.2982 -0.5384
11437TIP3   OH255801   1.142   6.494   2.926  0.4254 -0.5379 -0.3147
11437TIP3    H155802   1.139   6.566   2.863  1.6086 -1.2693 -1.2449
11437TIP3    H255803   1.225   6.507   2.973  2.6148 -3.2492 -3.0156
11438TIP3   OH255804   4.562   5.199  16.664 -0.2478  0.3371  0.1032
11438TIP3    H155805   4.604   5.247  16.735 -0.5643 -0.3238  0.7526
11438TIP3    H255806   4.540   5.114  16.703 -2.0796  0.6169 -0.2522
11439TIP3   OH255807   4.467   2.752  12.759  0.0855  0.0018  0.4665
11439TIP3    H155808   4.495   2.827  12.706  2.7847  0.0434  1.7968
11439TIP3    H255809   4.411   2.790  12.827 -2.9416  0.0183 -1.8465
11440TIP3   OH255810   6.249   3.214   3.016  0.3818 -0.1578 -0.3737
11440TIP3    H155811   6.326   3.259   3.050  1.8174 -1.4829 -1.7565
11440TIP3    H255812   6.177   3.275   3.032  1.3174  0.2949  2.7912
11441TIP3   OH255813   5.679   4.871   4.784 -0.2001  0.8281  0.3007
11441TIP3    H155814   5.692   4.779   4.806 -0.8999  0.8275  0.7390
11441TIP3    H255815   5.664   4.914   4.868  0.1725  1.3524  0.0997
11442TIP3   OH255816   3.249   3.529  12.614  0.1536 -0.3749  0.0711
11442TIP3    H155817   3.279   3.441  12.636  1.6772 -0.1666 -1.0076
11442TIP3    H255818   3.328   3.584  12.619 -0.3539  0.5351 -1.2193
11443TIP3   OH255819   0.246   2.912  11.407  0.0989  0.2644  0.0397
11443TIP3    H155820   0.267   2.960  11.487 -0.0798 -0.1361  0.3303
11443TIP3    H255821   0.177   2.963  11.366 -0.4662 -0.0200  0.6200
11444TIP3   OH255822   2.805   3.202   0.256  0.2678 -0.0662  0.3130
11444TIP3    H155823   2.867   3.145   0.302  0.1258  0.6808  1.4627
11444TIP3    H255824   2.831   3.197   0.164  2.4255  0.7014  0.8449
11445TIP3   OH255825   0.089   2.012   4.399 -0.1917 -0.2640  0.5945
11445TIP3    H155826   0.030   1.985   4.328 -1.7192  0.7229  1.4236
11445TIP3    H255827   0.059   1.962   4.475 -0.7115  1.0420  1.2823
11446TIP3   OH255828   0.118   5.003  14.364 -0.3078 -0.5082 -0.2378
11446TIP3    H155829   0.207   4.990  14.331 -0.6042  1.4455 -1.9744
11446TIP3    H255830   0.125   4.987  14.458  2.3907  1.6370  0.0488
11447TIP3   OH255831   2.355   1.381   3.368 -0.3232 -0.8522 -0.5277
11447TIP3    H155832   2.443   1.346   3.355 -1.6429 -4.4469 -1.0709
11447TIP3    H255833   2.339   1.374   3.462  1.3120  3.9715  0.3829
11448TIP3   OH255834   0.989   5.404   4.063  0.2849 -0.2797 -0.4798
11448TIP3    H155835   0.967   5.312   4.074 -1.5815  0.1115 -0.5269
11448TIP3    H255836   1.025   5.411   3.975 -0.9089 -0.7756 -1.0318
11449TIP3   OH255837   0.591   0.681  12.788 -0.0279 -0.2896 -0.3183
11449TIP3    H155838   0.557   0.666  12.700  0.1054 -1.1957 -0.2223
11449TIP3    H255839   0.686   0.674  12.778  0.1044  1.1832 -0.3849
11450TIP3   OH255840   5.988   3.568   5.883 -0.4963 -0.3761 -0.2335
11450TIP3    H155841   5.957   3.489   5.928  0.5930  0.2185  1.6854
11450TIP3    H255842   6.064   3.596   5.934  0.0199  1.1174 -1.7317
11451TIP3   OH255843   3.651   3.001   0.337  0.1438  0.2101 -0.1768
11451TIP3    H155844   3.623   3.000   0.246  0.7163 -1.3415 -0.3704
11451TIP3    H255845   3.745   2.982   0.333 -0.3031 -2.6148  0.8405
11452TIP3   OH255846   4.896   2.864   5.210 -0.0650  0.3623 -0.4401
11452TIP3    H155847   4.843   2.898   5.138 -3.2794 -3.8508 -0.4545
11452TIP3    H255848   4.855   2.899   5.289 -0.4049  0.1941 -0.5408
11453TIP3   OH255849   2.875   5.801   1.367  0.6718 -0.2828 -0.6337
11453TIP3    H155850   2.908   5.718   1.332  3.2712  0.4328 -0.1023
11453TIP3    H255851   2.882   5.792   1.462  1.0293  0.5625 -0.5735
11454TIP3   OH255852   0.061   1.646   5.947 -0.6265 -0.0868  0.0256
11454TIP3    H155853   0.064   1.580   5.877  1.4795 -0.9414  0.8304
11454TIP3    H255854   0.112   1.719   5.912  0.3296 -0.4687  0.5845
11455TIP3   OH255855   4.385   5.711   3.585 -0.0402  0.4257 -0.1445
11455TIP3    H155856   4.478   5.700   3.603 -0.1436  0.5234  0.4793
11455TIP3    H255857   4.382   5.772   3.511  0.3866  0.6321  0.0037
11456TIP3   OH255858   6.729   2.062  14.603 -0.3431  0.2991 -0.0925
11456TIP3    H155859   6.702   2.137  14.656 -1.7306  1.2020 -1.9400
11456TIP3    H255860   6.659   2.053  14.538  0.8115 -1.3401 -1.1755
11457TIP3   OH255861   1.061   3.175   1.830  0.1503 -0.3614 -0.6959
11457TIP3    H155862   0.988   3.233   1.810  0.4118 -0.0454 -0.7432
11457TIP3    H255863   1.022   3.088   1.836 -0.1900 -0.2281 -0.9611
11458TIP3   OH255864   2.658   3.806  12.816  0.3997  0.0795  0.1883
11458TIP3    H155865   2.626   3.799  12.906  0.2203 -0.3533  0.0926
11458TIP3    H255866   2.612   3.737  12.769  1.6088 -0.6790  0.0806
11459TIP3   OH255867   5.551   0.805  11.246 -0.0619  1.0920  0.1927
11459TIP3    H155868   5.492   0.785  11.174 -0.1697  1.7895  0.0795
11459TIP3    H255869   5.529   0.894  11.271  2.8742  2.5934 -1.8329
11460TIP3   OH255870   2.382   3.493  13.886 -0.3533  0.2042  0.6390
11460TIP3    H155871   2.300   3.467  13.844 -0.0988 -2.5375  1.6553
11460TIP3    H255872   2.387   3.588  13.873 -2.2931  0.0473 -1.8347
11461TIP3   OH255873   0.720   0.214  11.001  0.2908 -0.3179 -0.4790
11461TIP3    H155874   0.695   0.277  11.068  0.7673 -0.4841 -0.1391
11461TIP3    H255875   0.778   0.262  10.942  1.7788 -0.7693  0.5457
11462TIP3   OH255876   5.137   5.218   6.342 -0.4413  0.5261  0.3026
11462TIP3    H155877   5.112   5.208   6.434 -2.2050  0.3688 -0.1440
11462TIP3    H255878   5.055   5.205   6.294  0.7760 -1.2935 -1.4282
11463TIP3   OH255879   0.031   5.446  12.002  0.9494  0.4389  0.2641
11463TIP3    H155880   0.089   5.470  11.929  1.8585 -0.6567  0.6027
11463TIP3    H255881   0.017   5.352  11.992  1.0334  0.2845  1.4585
11464TIP3   OH255882   5.513   3.561   1.493  0.1094 -0.9416  0.3521
11464TIP3    H155883   5.591   3.566   1.438 -0.9626 -0.2476 -1.1876
11464TIP3    H255884   5.544   3.584   1.580  1.5139 -0.0463 -0.3415
11465TIP3   OH255885   4.353   6.093  16.658 -0.0640 -0.5522  0.1276
11465TIP3    H155886   4.262   6.070  16.675 -0.6973  0.9847 -0.9503
11465TIP3    H255887   4.369   6.063  16.568  0.8446 -1.7524  0.6655
11466TIP3   OH255888   6.598   5.569  15.968 -0.2035 -0.1951  0.4910
11466TIP3    H155889   6.670   5.624  15.999 -1.0203  0.1185  1.9176
11466TIP3    H255890   6.638   5.513  15.901  1.3100  0.1246  1.0791
11467TIP3   OH255891   1.699   6.195   1.126 -0.2157  0.1801  0.5199
11467TIP3    H155892   1.689   6.260   1.196  0.7294  0.9361 -0.0187
11467TIP3    H255893   1.792   6.172   1.129 -0.1277  0.3628 -0.6002
11468TIP3   OH255894   3.539   1.134   1.609 -0.1156 -0.1754 -0.3639
11468TIP3    H155895   3.539   1.103   1.699 -0.1423 -0.6336 -0.5190
11468TIP3    H255896   3.447   1.137   1.584 -0.0486 -1.4108 -0.8295
11469TIP3   OH255897   0.660   5.328   4.248 -0.0643 -0.0113  0.1095
11469TIP3    H155898   0.659   5.409   4.196  1.0588  0.0984  0.2291
11469TIP3    H255899   0.674   5.357   4.338 -0.5903 -0.2922  0.2884
11470TIP3   OH255900   5.002   0.895  15.782  0.0784 -0.2962 -0.3371
11470TIP3    H155901   4.998   0.892  15.877  0.2346  1.7019 -0.2328
11470TIP3    H255902   5.031   0.984  15.761 -0.4786 -0.5136 -2.2709
11471TIP3   OH255903   2.008   3.337  15.687  0.0363  0.4439 -0.3196
11471TIP3    H155904   1.956   3.415  15.705  0.1611  0.1537  1.6090
11471TIP3    H255905   2.083   3.369  15.637 -0.6934  1.2807 -0.9086
11472TIP3   OH255906   4.962   5.072   4.638  0.3145  0.2349  0.1021
11472TIP3    H155907   5.028   5.003   4.636  0.8034  0.7049 -0.7563
11472TIP3    H255908   4.957   5.103   4.547 -0.3447  0.9095  0.3543
11473TIP3   OH255909   4.424   2.123   0.239  0.5087  0.3755  0.1582
11473TIP3    H155910   4.363   2.129   0.313  1.1276 -0.7810  0.8059
11473TIP3    H255911   4.489   2.060   0.268  1.1930  0.4742 -1.1021
11474TIP3   OH255912   6.130   6.497  10.941 -0.1237 -0.3915  0.1077
11474TIP3    H155913   6.163   6.456  11.020 -1.3969 -0.4708  0.6346
11474TIP3    H255914   6.104   6.585  10.969 -0.0182 -0.2050 -0.3660
11475TIP3   OH255915   1.461   0.882   5.771 -0.3389  0.0729  0.4594
11475TIP3    H155916   1.442   0.842   5.686  0.4128  0.3731  0.1446
11475TIP3    H255917   1.498   0.810   5.823 -0.1262  0.0649  0.2968
11476TIP3   OH255918   5.972   5.131  11.450  0.0286  0.0927  0.2045
11476TIP3    H155919   6.056   5.114  11.409 -0.0582  1.5086 -0.6011
11476TIP3    H255920   5.994   5.174  11.533  0.0786  1.6771 -0.6144
11477TIP3   OH255921   0.140   3.096  16.943 -0.0486  0.1976  0.3959
11477TIP3    H155922   0.131   3.110  16.848  1.7148  1.7005  0.3839
11477TIP3    H255923   0.176   3.007  16.950 -0.3351  0.0115 -0.3333
11478TIP3   OH255924   6.754   3.975   3.458  0.0807  0.6135 -0.3217
11478TIP3    H155925   6.804   3.951   3.537 -1.7801  0.4297  0.8474
11478TIP3    H255926   6.815   3.957   3.386  1.3092 -0.7029  0.9607
11479TIP3   OH255927   1.505   6.587   3.876 -0.2790 -0.2716  0.6079
11479TIP3    H155928   1.501   6.586   3.781  1.0340 -2.1605  0.5134
11479TIP3    H255929   1.426   6.542   3.905 -0.3220 -0.3275  0.4010
11480TIP3   OH255930   4.250   4.582   5.703  0.2701  0.8251 -0.3520
11480TIP3    H155931   4.275   4.502   5.655 -0.6570  0.7327 -0.7058
11480TIP3    H255932   4.330   4.634   5.705  0.7903  0.0591 -0.4677
11481TIP3   OH255933   0.415   1.196   1.449 -0.3474  0.2123  0.2550
11481TIP3    H155934   0.452   1.281   1.472 -0.8416  0.2283  1.0405
11481TIP3    H255935   0.330   1.217   1.408 -0.5861  0.0978  0.6822
11482TIP3   OH255936   0.163   6.118   0.162 -0.0519 -0.7532  0.8095
11482TIP3    H155937   0.115   6.075   0.232 -1.6947  1.2058  0.9853
11482TIP3    H255938   0.195   6.199   0.201  0.0530 -0.1976 -0.3762
11483TIP3   OH255939   0.564   2.167   6.814 -0.1072  0.4866  0.0894
11483TIP3    H155940   0.604   2.160   6.727 -0.3742  1.1815 -0.0966
11483TIP3    H255941   0.637   2.189   6.872  0.0823 -0.0366  0.0551
11484TIP3   OH255942   0.977   0.142  12.897  0.3219  0.2897  0.1958
11484TIP3    H155943   0.967   0.235  12.917  1.2222  0.5284 -0.3651
11484TIP3    H255944   0.972   0.098  12.981  0.1205  0.8696  0.4931
11485TIP3   OH255945   6.770   0.633  12.369  0.2856  0.0003 -0.0448
11485TIP3    H155946   6.684   0.595  12.350  0.5360 -0.8984  0.5784
11485TIP3    H255947   6.776   0.709  12.310 -1.0977  0.3295  0.2018
11486TIP3   OH255948   4.051   3.644   3.087  0.1803  0.2817 -0.0929
11486TIP3    H155949   4.113   3.645   3.014 -1.4354  1.5903 -1.5524
11486TIP3    H255950   4.030   3.552   3.100  0.3891  0.0142 -1.4342
11487TIP3   OH255951   5.882   1.583   5.547  0.6688  0.1277 -0.2736
11487TIP3    H155952   5.855   1.520   5.613  0.7935  1.8016  1.4487
11487TIP3    H255953   5.966   1.550   5.515  0.2847 -1.0584 -0.1141
11488TIP3   OH255954   2.640   2.882  12.139  0.1588 -0.3264  0.0808
11488TIP3    H155955   2.639   2.937  12.217  0.2343  1.3474 -1.0415
11488TIP3    H255956   2.550   2.884  12.107 -0.8832 -4.2295  2.1663
11489TIP3   OH255957   2.545   3.849  17.274  0.1085 -0.2296 -0.5601
11489TIP3    H155958   2.635   3.822  17.252  0.6260  0.6059  0.4072
11489TIP3    H255959   2.531   3.929  17.223  0.7862  0.9143  0.9671
11490TIP3   OH255960   3.022   0.298   0.196 -0.1044 -0.4063  0.3030
11490TIP3    H155961   3.062   0.358   0.133 -1.4629 -0.0071 -0.2413
11490TIP3    H255962   3.095   0.253   0.237  0.9159  1.0070  0.1009
11491TIP3   OH255963   6.362   0.767  11.566  0.2566  0.3688  0.3672
11491TIP3    H155964   6.436   0.707  11.556  0.2228  0.2297  0.9098
11491TIP3    H255965   6.351   0.806  11.480 -0.1299 -0.8855 -0.1834
11492TIP3   OH255966   0.171   0.452  15.771 -0.2270 -0.0224  0.3899
11492TIP3    H155967   0.261   0.433  15.746 -0.2878 -0.7775  0.7409
11492TIP3    H255968   0.146   0.381  15.830  0.3752  2.2929  3.7700
11493TIP3   OH255969   6.149   1.570  12.854 -0.4595  0.3505 -0.5213
11493TIP3    H155970   6.187   1.511  12.789  0.6270 -0.3406  0.6981
11493TIP3    H255971   6.114   1.643  12.803  1.6329  0.5414 -1.7673
11494TIP3   OH255972   2.107   4.389  16.971 -0.6174  0.0809 -0.0106
11494TIP3    H155973   2.151   4.428  17.047  1.8214 -1.6641 -0.3814
11494TIP3    H255974   2.128   4.447  16.898  0.1156 -0.1191  0.0338
11495TIP3   OH255975   4.112   4.664  13.610 -0.4522 -0.0694 -0.4599
11495TIP3    H155976   4.030   4.622  13.585 -0.6438 -0.3669  0.5860
11495TIP3    H255977   4.108   4.751  13.569 -2.7408  1.1411  1.9826
11496TIP3   OH255978   1.836   4.455   2.543  0.2237 -0.3480  0.1030
11496TIP3    H155979   1.758   4.427   2.497  0.2403 -1.0460  0.4914
11496TIP3    H255980   1.845   4.548   2.520 -2.1089  0.4542  1.9464
11497TIP3   OH255981   5.495   5.789   3.645  0.3539  0.1823 -0.2321
11497TIP3    H155982   5.495   5.842   3.724  0.9521 -1.2862  0.7915
11497TIP3    H255983   5.546   5.840   3.582  1.3348  0.6307  0.8804
11498TIP3   OH255984   2.132   6.377   3.062  0.2386 -0.6688  0.0535
11498TIP3    H155985   2.168   6.460   3.030 -1.9920  0.3630  0.0135
11498TIP3    H255986   2.161   6.371   3.153  0.6701  0.0064 -0.0322
11499TIP3   OH255987   0.947   1.544  17.093 -0.6295 -0.3836  0.7768
11499TIP3    H155988   0.922   1.558  17.184  0.3145  0.6631  0.8944
11499TIP3    H255989   0.873   1.579  17.042 -0.6438  0.1190  1.1376
11500TIP3   OH255990   3.528   0.527   4.609  0.0490 -0.1004 -0.0708
11500TIP3    H155991   3.444   0.530   4.655  0.5344  0.7778  0.7835
11500TIP3    H255992   3.512   0.571   4.526 -0.8858 -1.8586 -0.8724
11501TIP3   OH255993   2.789   5.593  16.341  0.3406  0.8549 -0.3447
11501TIP3    H155994   2.726   5.653  16.302 -1.1923 -0.3746  0.1348
11501TIP3    H255995   2.806   5.529  16.272  0.9016  1.0520 -0.3928
11502TIP3   OH255996   4.757   3.492   5.552  0.1086 -0.2513  0.7832
11502TIP3    H155997   4.774   3.583   5.574  0.7448 -0.2371  0.2847
11502TIP3    H255998   4.834   3.465   5.500 -0.2578 -0.9446  0.5794
11503TIP3   OH255999   4.016   1.925   2.582 -0.2470 -0.4690 -0.0093
11503TIP3    H156000   4.074   1.984   2.629 -0.0924 -0.9727  0.4332
11503TIP3    H256001   4.074   1.864   2.537 -0.4039 -2.1045  1.8649
11504TIP3   OH256002   2.416   6.244  16.879 -0.3617 -0.5301  0.3377
11504TIP3    H156003   2.453   6.282  16.959 -0.1043  0.1976 -0.1259
11504TIP3    H256004   2.488   6.192  16.842  0.4090  1.2846 -0.8303
11505TIP3   OH256005   5.272   1.225  16.637 -0.1928 -0.8701  0.1077
11505TIP3    H156006   5.243   1.196  16.724  0.5586 -3.3485 -0.4033
11505TIP3    H256007   5.220   1.173  16.576 -2.1892  2.2534 -1.1034
11506TIP3   OH256008   4.881   5.823   6.903 -0.2420 -0.0914  0.2464
11506TIP3    H156009   4.872   5.772   6.984 -0.2037 -1.8985 -0.8357
11506TIP3    H256010   4.893   5.758   6.834 -1.5538  1.3183 -1.4250
11507TIP3   OH256011   6.478   3.016  17.274 -0.1375  0.0632  0.1038
11507TIP3    H156012   6.460   2.967  17.193  0.5618 -1.3945  0.7848
11507TIP3    H256013   6.460   3.107  17.251 -1.1416 -0.4541 -1.3339
11508TIP3   OH256014   4.853   4.879   5.423 -0.7357 -0.5572  0.3247
11508TIP3    H156015   4.787   4.813   5.403 -1.3847  0.1441  0.0987
11508TIP3    H256016   4.828   4.914   5.508  0.0863 -1.1779  0.8317
11509TIP3   OH256017   0.720   3.181   3.545 -0.4114 -0.1278  0.0518
11509TIP3    H156018   0.803   3.228   3.534 -1.9832  2.8972  0.1735
11509TIP3    H256019   0.726   3.108   3.484  2.5746 -0.4285  0.5360
11510TIP3   OH256020   1.109   0.537   2.699 -0.0902 -0.2393  0.0405
11510TIP3    H156021   1.131   0.605   2.635  1.0588 -0.3599  0.2862
11510TIP3    H256022   1.036   0.490   2.660 -2.6153  2.6124  0.8904
11511TIP3   OH256023   4.477   6.420   0.154  0.1135  0.0809  0.2243
11511TIP3    H156024   4.494   6.326   0.154 -0.8047 -0.1480  1.9415
11511TIP3    H256025   4.546   6.458   0.100  0.5773 -1.5639 -0.3907
11512TIP3   OH256026   0.706   6.476  14.017 -0.2260  0.0078  0.1250
11512TIP3    H156027   0.696   6.561  13.973  1.3348  1.1645  1.8294
11512TIP3    H256028   0.734   6.417  13.947  0.4160  1.3386 -0.8020
11513TIP3   OH256029   1.816   4.342   1.383  0.3087  0.2590  0.4767
11513TIP3    H156030   1.825   4.363   1.290  0.1104  0.1431  0.4299
11513TIP3    H256031   1.780   4.253   1.384  4.6139 -1.7381  0.6463
11514TIP3   OH256032   1.941   3.710   4.078  0.4956  0.6584 -0.1663
11514TIP3    H156033   1.988   3.792   4.063  1.4238  0.1344 -0.1834
11514TIP3    H256034   1.851   3.729   4.050  0.5602  1.8275  0.3328
11515TIP3   OH256035   4.428   6.089   0.359  0.2231 -0.5380 -0.5368
11515TIP3    H156036   4.463   6.108   0.272 -0.5279  1.0004 -0.5394
11515TIP3    H256037   4.336   6.066   0.343 -0.3066  1.1325 -0.0586
11516TIP3   OH256038   4.100   4.818   6.028  0.1359 -0.4456 -0.6887
11516TIP3    H156039   4.033   4.859   6.084  1.2800  0.6241 -0.0659
11516TIP3    H256040   4.052   4.790   5.950 -0.5337  3.6376 -2.0022
11517TIP3   OH256041   5.009   3.097   3.418  0.3928 -0.1290 -0.0814
11517TIP3    H156042   4.965   3.084   3.502  0.2285  0.2474 -0.1057
11517TIP3    H256043   5.094   3.134   3.441 -0.2255  1.4099 -0.1367
11518TIP3   OH256044   0.008   5.918   2.101 -0.1095 -0.4920  0.4362
11518TIP3    H156045  -0.011   5.974   2.026 -0.0781 -0.8263  0.1761
11518TIP3    H256046  -0.035   5.961   2.175 -0.3899 -0.3182  0.1710
11519TIP3   OH256047   6.622   2.327  16.763 -0.0480  0.3789 -0.4360
11519TIP3    H156048   6.572   2.408  16.768  0.6132  0.7507  0.4764
11519TIP3    H256049   6.710   2.354  16.736 -0.0738 -0.1483 -1.0719
11520TIP3   OH256050   2.867   0.722  15.313 -0.6167 -0.0752 -0.5214
11520TIP3    H156051   2.845   0.751  15.402  0.3239  1.7760 -0.8387
11520TIP3    H256052   2.880   0.627  15.322  1.1971  0.2874  1.7422
11521TIP3   OH256053   3.562   1.031  13.085 -0.0328  0.5413 -0.5829
11521TIP3    H156054   3.651   1.017  13.053  0.2385  0.2004  0.2720
11521TIP3    H256055   3.508   0.973  13.032  0.5130 -0.6221  0.0727
11522TIP3   OH256056   1.557   3.511   3.929  0.5959 -0.9573  1.2892
11522TIP3    H156057   1.642   3.495   3.887 -0.5991 -1.1160 -1.2381
11522TIP3    H256058   1.547   3.438   3.990  1.3585 -2.1364  0.0652
11523TIP3   OH256059   1.508   4.049  15.989  0.0202 -0.2023 -0.5852
11523TIP3    H156060   1.556   4.035  16.071 -0.9142 -2.6237 -0.3887
11523TIP3    H256061   1.438   4.109  16.013  2.1987  2.5944 -0.6589
11524TIP3   OH256062   5.113   6.246   3.349 -0.3362 -0.0267 -0.3071
11524TIP3    H156063   5.060   6.172   3.319  0.4198 -0.7757  0.1480
11524TIP3    H256064   5.051   6.318   3.359 -0.9832 -0.4063 -1.3915
11525TIP3   OH256065   4.989   2.255  14.403 -0.6451  0.0624  0.0933
11525TIP3    H156066   4.956   2.233  14.490 -0.3959  0.4435  0.2932
11525TIP3    H256067   5.077   2.289  14.420 -0.7168  0.4395 -0.2741
11526TIP3   OH256068   5.517   3.473  11.821  0.0259 -0.1391 -0.2870
11526TIP3    H156069   5.493   3.387  11.786 -1.5616  0.5601 -0.9975
11526TIP3    H256070   5.573   3.511  11.755  0.1018 -0.3196 -0.3279
11527TIP3   OH256071   5.682   4.992  16.459  0.5327 -0.1565 -0.0517
11527TIP3    H156072   5.742   4.918  16.466  0.2516 -0.6260 -2.0105
11527TIP3    H256073   5.715   5.056  16.521  1.5629 -1.4026  0.7232
11528TIP3   OH256074   4.348   0.247  13.896 -0.2369 -0.1823  0.1322
11528TIP3    H156075   4.384   0.165  13.861  0.1656 -0.1496  0.4552
11528TIP3    H256076   4.257   0.247  13.868 -0.4481 -1.1169  0.7672
11529TIP3   OH256077   2.156   6.469  16.331  0.2056 -0.3028  0.0506
11529TIP3    H156078   2.114   6.545  16.292 -1.5566 -0.7616  0.9654
11529TIP3    H256079   2.204   6.504  16.407 -0.4081 -0.0693  0.3346
11530TIP3   OH256080   5.692   2.896   1.167  0.3491  0.7466  0.2545
11530TIP3    H156081   5.688   2.802   1.155 -1.1052  0.6212  1.3211
11530TIP3    H256082   5.719   2.907   1.258 -1.3380  1.2724  0.7331
11531TIP3   OH256083   5.279   2.273   6.454  0.5376  0.1593  0.0442
11531TIP3    H156084   5.366   2.272   6.495  1.0347  1.3248 -0.9023
11531TIP3    H256085   5.288   2.217   6.377 -0.0829 -1.1450  0.8856
11532TIP3   OH256086   4.329   2.810   2.553 -0.5872  0.3084  0.5175
11532TIP3    H156087   4.326   2.736   2.613  2.7739 -0.7015 -0.3715
11532TIP3    H256088   4.294   2.777   2.471  1.6276 -0.6419 -0.1052
11533TIP3   OH256089   0.150   5.964   4.077  0.3954  0.1659 -0.2362
11533TIP3    H156090   0.104   5.964   4.161 -2.0054 -0.9539 -1.4379
11533TIP3    H256091   0.235   5.924   4.095  0.3777  0.9905  1.8428
11534TIP3   OH256092   1.700   5.248   4.398  0.0476  0.6675 -0.2828
11534TIP3    H156093   1.786   5.246   4.438 -0.3439  0.8607  0.5974
11534TIP3    H256094   1.647   5.301   4.458 -1.1431 -0.9143  0.1473
11535TIP3   OH256095   6.313   5.754   0.521  0.1268  0.1532  0.3127
11535TIP3    H156096   6.403   5.745   0.551  0.4910  2.1675 -0.0529
11535TIP3    H256097   6.292   5.669   0.483  1.8310 -0.3902  0.5027
11536TIP3   OH256098   5.073   6.639  13.400 -0.2511 -0.2561 -0.0736
11536TIP3    H156099   5.113   6.705  13.344 -2.5644 -0.0797 -1.6379
11536TIP3    H256100   5.006   6.686  13.449 -0.3846 -1.0145  0.4986
11537TIP3   OH256101   3.273   1.147   2.503 -0.3224 -0.5647  0.2528
11537TIP3    H156102   3.269   1.052   2.510 -1.1349 -0.4926  0.9909
11537TIP3    H256103   3.343   1.164   2.440  0.7628 -1.6070  1.1446
11538TIP3   OH256104   0.022   1.806  15.638 -0.8440 -0.1789 -0.2019
11538TIP3    H156105   0.072   1.882  15.609 -0.6680  0.1534  0.9039
11538TIP3    H256106   0.071   1.731  15.606 -1.1727  0.1605 -1.5583
11539TIP3   OH256107   4.960   6.583  15.675  0.2605  0.2036 -0.0166
11539TIP3    H156108   4.890   6.647  15.688 -1.0982 -1.0921 -0.5616
11539TIP3    H256109   4.943   6.547  15.588 -1.1747 -3.2856  1.5061
11540TIP3   OH256110   3.803   4.144   2.525  0.5266 -0.0199  0.0920
11540TIP3    H156111   3.829   4.091   2.600  1.4127  0.2712  0.0046
11540TIP3    H256112   3.780   4.229   2.562 -0.4927 -0.3294  0.1873
11541TIP3   OH256113   6.213   5.936  11.705  0.2525  0.1030  0.2889
11541TIP3    H156114   6.198   6.029  11.719  1.6495  0.8682 -2.4767
11541TIP3    H256115   6.146   5.911  11.641  0.2436 -0.6671  0.5884
11542TIP3   OH256116   4.989   0.143   1.052  0.5085  0.0574 -0.2031
11542TIP3    H156117   4.959   0.228   1.082  0.5190 -0.6220  1.9093
11542TIP3    H256118   4.951   0.080   1.114 -0.1885 -1.6012 -2.1638
11543TIP3   OH256119   5.955   1.873  15.353 -0.2224 -0.0248  0.5207
11543TIP3    H156120   5.992   1.797  15.306  1.4591  0.0490  1.6312
11543TIP3    H256121   6.012   1.946  15.327 -2.0747  1.0181 -0.8699
11544TIP3   OH256122   1.480   2.420  10.601 -0.7631  0.1708  0.4372
11544TIP3    H156123   1.443   2.347  10.552  0.5735  0.5627 -1.2521
11544TIP3    H256124   1.517   2.380  10.679 -0.8851 -0.8178 -0.0037
11545TIP3   OH256125   6.484   3.123  12.698 -0.1548  0.2305 -0.4759
11545TIP3    H156126   6.513   3.098  12.610 -0.8133  0.4247 -0.7555
11545TIP3    H256127   6.412   3.184  12.683 -0.7722 -0.3089  0.2042
11546TIP3   OH256128   3.741   4.699  11.910  0.0245 -0.2394  0.1328
11546TIP3    H156129   3.742   4.667  11.820  3.0420  2.5759 -1.0367
11546TIP3    H256130   3.794   4.636  11.958  1.2617 -0.0004 -0.8654
11547TIP3   OH256131   3.426   1.368   6.325 -0.1738  0.2201  0.1581
11547TIP3    H156132   3.380   1.440   6.369  0.1688  0.8774 -0.5327
11547TIP3    H256133   3.397   1.289   6.372 -0.7111  0.7805  0.8006
11548TIP3   OH256134   6.644   5.526   4.018 -0.0228 -0.4105 -0.0429
11548TIP3    H156135   6.685   5.447   3.984 -0.5379 -0.3990 -0.7132
11548TIP3    H256136   6.561   5.496   4.057 -1.1326  0.0088 -1.9840
11549TIP3   OH256137   4.355   4.779  12.596 -0.0131 -0.0817 -0.1960
11549TIP3    H156138   4.365   4.864  12.551  0.6001 -1.4309 -2.8209
11549TIP3    H256139   4.369   4.799  12.689  0.8433  2.5665 -0.8056
11550TIP3   OH256140   1.615   3.657  14.798 -0.1023 -0.3479 -0.1981
11550TIP3    H156141   1.596   3.738  14.750  3.0277  0.8509  0.3810
11550TIP3    H256142   1.659   3.601  14.735 -0.9719 -1.0674 -0.1924
11551TIP3   OH256143   2.444   1.394   5.084 -0.1225  0.7837 -0.3140
11551TIP3    H156144   2.419   1.384   5.176  0.3139 -0.8831 -0.3574
11551TIP3    H256145   2.446   1.489   5.070 -2.0037  1.0602  0.8886
11552TIP3   OH256146   5.247   6.541  11.712 -0.3828  0.0051 -0.1871
11552TIP3    H156147   5.188   6.493  11.769  2.9823 -0.9857  2.7559
11552TIP3    H256148   5.319   6.481  11.694  0.7748  1.7743 -1.9626
11553TIP3   OH256149   4.577   6.394   4.171 -0.0709 -0.1002 -0.6071
11553TIP3    H156150   4.503   6.432   4.218  0.3767  1.0139 -0.7707
11553TIP3    H256151   4.627   6.347   4.238  0.7760  1.8007  0.1636
11554TIP3   OH256152   1.410   1.863   2.369  0.0682  0.7294  0.8005
11554TIP3    H156153   1.421   1.958   2.366  0.5171  0.6507 -0.9382
11554TIP3    H256154   1.353   1.842   2.295  1.9982 -0.5606 -0.4308
11555TIP3   OH256155   6.780   3.295   6.644 -0.2178 -0.0870  0.3598
11555TIP3    H156156   6.702   3.349   6.656 -1.2881 -1.7365  1.3052
11555TIP3    H256157   6.795   3.295   6.549 -0.4838  1.4202  0.2984
11556TIP3   OH256158   2.298   5.595   2.834 -0.1315  0.4078  0.2448
11556TIP3    H156159   2.264   5.635   2.754  1.4797 -1.3347 -1.4260
11556TIP3    H256160   2.241   5.629   2.904 -1.3724  2.2918 -1.5469
11557TIP3   OH256161   6.767   0.827   6.244  0.0595  0.1870 -0.1174
11557TIP3    H156162   6.729   0.741   6.224 -0.9061  0.6845 -0.4804
11557TIP3    H256163   6.717   0.888   6.189  1.0165  0.9320 -0.1731
11558TIP3   OH256164   5.963   2.633  12.059  0.0079 -0.1387  0.0179
11558TIP3    H156165   5.914   2.668  11.986  0.0619  1.5719  0.7684
11558TIP3    H256166   6.054   2.629  12.028 -0.1893 -0.8510 -0.4917
11559TIP3   OH256167   6.202   4.803  12.873 -0.2724  0.6967 -0.1440
11559TIP3    H156168   6.205   4.730  12.935  0.7015  1.5514  0.8463
11559TIP3    H256169   6.149   4.870  12.916 -0.7435  0.7769 -0.8351
11560TIP3   OH256170   6.773   5.964   0.288  0.2657 -0.6122  0.4190
11560TIP3    H156171   6.721   5.974   0.368 -0.0031 -0.9437  0.2862
11560TIP3    H256172   6.727   5.897   0.237 -0.5087  0.7403 -0.7676
11561TIP3   OH256173   4.250   6.759  16.522 -0.0922  0.3690 -0.3109
11561TIP3    H156174   4.286   6.674  16.550 -0.7043  0.7111  1.6101
11561TIP3    H256175   4.328   6.812  16.504  0.3045 -0.1502 -0.1690
11562TIP3   OH256176   6.046   4.434  12.277  0.4423  0.3360 -0.1907
11562TIP3    H156177   6.005   4.485  12.208  0.9150  0.5306 -0.3316
11562TIP3    H256178   6.139   4.431  12.253  0.3263 -1.1327 -0.5312
11563TIP3   OH256179   3.351   0.022   5.317  0.2056  0.5414  0.0924
11563TIP3    H156180   3.337   0.051   5.228 -1.7229 -0.3667  0.0465
11563TIP3    H256181   3.285   0.068   5.369 -2.5903 -3.0064  0.0946
11564TIP3   OH256182   1.701   2.673  13.131  0.4596  0.2700 -0.0312
11564TIP3    H156183   1.749   2.607  13.081  0.8965 -0.2994  1.1047
11564TIP3    H256184   1.753   2.687  13.209  1.4819  3.5131 -1.1152
11565TIP3   OH256185   0.048   0.794  12.580 -0.5994  0.0292  0.0793
11565TIP3    H156186   0.120   0.735  12.603  0.5492  1.4728  0.3163
11565TIP3    H256187   0.027   0.771  12.490 -1.5913 -2.1135  0.7863
11566TIP3   OH256188   1.043   5.259   2.496 -0.0886 -0.2696  0.7742
11566TIP3    H156189   1.057   5.165   2.513 -2.0918 -0.4442  1.7236
11566TIP3    H256190   1.072   5.302   2.576  1.4092  0.0101  0.1064
11567TIP3   OH256191   1.459   6.178   3.040 -0.0628 -0.7468 -0.6382
11567TIP3    H156192   1.373   6.201   3.075  0.7799  1.9366 -0.0821
11567TIP3    H256193   1.442   6.151   2.950 -1.3566  1.8900 -1.2997
11568TIP3   OH256194   6.559   0.994  10.737 -0.4204  0.2316 -0.2738
11568TIP3    H156195   6.602   0.911  10.755 -2.1819 -0.8834 -0.9277
11568TIP3    H256196   6.628   1.059  10.746  1.4702 -1.4613 -1.5373
11569TIP3   OH256197   1.810   4.089  17.202 -0.2069 -0.8868  0.3111
11569TIP3    H156198   1.862   4.131  17.271  0.1640  1.0845 -1.0725
11569TIP3    H256199   1.732   4.057  17.246 -0.1504  0.6531  1.6204
11570TIP3   OH256200   3.765   0.402  11.580  0.3503 -0.5620 -0.3987
11570TIP3    H156201   3.849   0.445  11.559  0.3597 -0.2343  0.2878
11570TIP3    H256202   3.730   0.453  11.653 -0.7904 -0.2571 -1.1426
11571TIP3   OH256203   6.109   2.195   2.332  0.6438  0.2509 -0.4681
11571TIP3    H156204   6.068   2.239   2.406 -0.3067 -1.3099 -0.0105
11571TIP3    H256205   6.187   2.153   2.368  0.7481  0.3488 -0.5784
11572TIP3   OH256206   3.349   6.752   2.387  0.5765  0.0376  0.1027
11572TIP3    H156207   3.399   6.820   2.342  0.6549 -0.7439 -1.0112
11572TIP3    H256208   3.376   6.670   2.346 -0.6212 -0.5338  0.3946
11573TIP3   OH256209   3.463   3.845  16.387 -0.0731 -0.0700  0.1113
11573TIP3    H156210   3.485   3.777  16.452 -0.5325 -0.3695 -0.0415
11573TIP3    H256211   3.387   3.810  16.341  0.1284  0.2334 -0.4573
11574TIP3   OH256212   3.810   6.553   5.685 -0.5134  0.0589 -0.3256
11574TIP3    H156213   3.806   6.626   5.747  0.6376 -0.0951 -0.0477
11574TIP3    H256214   3.719   6.522   5.679 -0.4763 -0.8680  2.4438
11575TIP3   OH256215   2.500   0.960  15.796  0.4264 -0.1571  0.6837
11575TIP3    H156216   2.562   0.888  15.807  0.3559 -0.2017  0.7958
11575TIP3    H256217   2.423   0.919  15.757  0.9277  0.1183 -0.6659
11576TIP3   OH256218   0.086   3.345  13.035  0.0068 -0.6746 -0.0491
11576TIP3    H156219   0.003   3.304  13.009  0.4140 -1.8888  0.5332
11576TIP3    H256220   0.128   3.281  13.092  0.6604  0.5721  0.8974
11577TIP3   OH256221   3.833   3.532  14.072  0.1782 -0.2947  0.0985
11577TIP3    H156222   3.857   3.620  14.102  1.2790 -0.1543 -1.1151
11577TIP3    H256223   3.917   3.488  14.057 -0.3279 -2.0038  1.8630
11578TIP3   OH256224   0.080   5.286  14.273 -0.8617 -0.0086  0.4560
11578TIP3    H156225   0.121   5.295  14.359  0.2395  0.5412 -0.1056
11578TIP3    H256226   0.077   5.191  14.258  0.3407 -0.0634  0.4667
11579TIP3   OH256227   4.346   4.987  15.187  0.2744  0.7685 -0.3032
11579TIP3    H156228   4.392   5.062  15.148  1.1118 -0.3326 -1.5203
11579TIP3    H256229   4.254   5.004  15.169  0.3455  2.0102  0.3739
11580TIP3   OH256230   3.396   4.116   1.928  0.0758 -0.1274  0.3995
11580TIP3    H156231   3.424   4.137   1.838 -4.8410  0.2812 -1.3810
11580TIP3    H256232   3.382   4.202   1.968 -2.5515 -0.0660 -0.4190
11581TIP3   OH256233   5.180   5.699   1.920 -0.6321 -0.1209 -0.5794
11581TIP3    H156234   5.182   5.722   1.828 -0.8148  1.4466 -0.2111
11581TIP3    H256235   5.264   5.655   1.935 -0.4993 -0.1705 -1.4176
11582TIP3   OH256236   3.735   6.562  16.974  0.0183  0.2053 -0.4017
11582TIP3    H156237   3.722   6.488  17.034 -2.0923  1.8346  1.3357
11582TIP3    H256238   3.823   6.595  16.995  0.1439 -0.5327  0.2894
11583TIP3   OH256239   0.197   5.210   2.059 -0.3342  0.3603  0.2519
11583TIP3    H156240   0.176   5.302   2.042 -0.5609  0.2841  0.1134
11583TIP3    H256241   0.113   5.171   2.083 -0.6040 -0.2185 -1.4679
11584TIP3   OH256242   5.538   2.273  13.290 -0.3001 -0.4203  0.1980
11584TIP3    H156243   5.499   2.361  13.292 -0.4683 -0.4480 -1.0909
11584TIP3    H256244   5.547   2.253  13.197  3.0295 -0.3246  0.4046
11585TIP3   OH256245   6.380   6.161  10.898  1.1250  0.1022  0.1068
11585TIP3    H156246   6.405   6.075  10.865 -0.1853  0.3205 -1.6144
11585TIP3    H256247   6.299   6.182  10.851  1.4751  2.3299  0.3934
11586TIP3   OH256248   2.189   6.617  15.465  0.1049  0.3175  0.0374
11586TIP3    H156249   2.262   6.555  15.462 -0.5112 -0.3911 -1.1961
11586TIP3    H256250   2.156   6.610  15.555 -0.0408 -1.2793 -0.1142
11587TIP3   OH256251   1.249   5.754   4.942  0.0473  0.3274 -0.4149
11587TIP3    H156252   1.186   5.782   4.875 -0.2759  1.2658  0.2474
11587TIP3    H256253   1.290   5.676   4.906 -2.5022 -1.1700 -0.2729
11588TIP3   OH256254   6.171   3.917  17.343 -0.3519  0.0225  0.1261
11588TIP3    H156255   6.224   3.917  17.264 -2.4961  0.4679 -1.4057
11588TIP3    H256256   6.131   4.004  17.346 -0.9589 -0.2633  1.2438
11589TIP3   OH256257   0.756   2.292   4.897  0.5396 -0.3853 -0.9367
11589TIP3    H156258   0.678   2.320   4.849  0.7880 -0.9572 -1.6970
11589TIP3    H256259   0.727   2.283   4.988 -0.7053 -2.1360 -1.4676
11590TIP3   OH256260   1.593   4.568   3.236  0.6802  0.2522  0.1213
11590TIP3    H156261   1.575   4.637   3.172 -1.6309 -0.1982  0.1982
11590TIP3    H256262   1.607   4.489   3.183 -0.7390 -0.0186  0.1175
11591TIP3   OH256263   2.305   0.238   1.095  0.1300  0.2058  0.3724
11591TIP3    H156264   2.275   0.153   1.063 -0.1170 -0.5981  2.6145
11591TIP3    H256265   2.395   0.223   1.123  0.4458  0.9660 -0.1999
11592TIP3   OH256266   5.667   3.415  16.116  0.3520  0.2906  0.4567
11592TIP3    H156267   5.752   3.452  16.140  0.1769  2.5430 -1.9908
11592TIP3    H256268   5.606   3.487  16.127 -0.3591  0.2651 -2.5499
11593TIP3   OH256269   3.217   5.799   4.793 -0.2368  0.2028  0.2333
11593TIP3    H156270   3.274   5.773   4.865  0.0798 -0.0943 -0.1212
11593TIP3    H256271   3.194   5.890   4.812 -1.5394 -0.3695  1.6122
11594TIP3   OH256272   1.686   2.570  14.409 -0.3732 -0.8395 -0.6097
11594TIP3    H156273   1.765   2.619  14.391 -0.7321 -0.5954 -1.5608
11594TIP3    H256274   1.689   2.553  14.504  0.4289 -0.1896 -0.5116
11595TIP3   OH256275   0.136   4.580  13.151 -0.1698  0.1061 -0.3472
11595TIP3    H156276   0.062   4.558  13.207  0.4380  0.5698  0.6514
11595TIP3    H256277   0.190   4.501  13.151 -0.6024 -0.2110 -1.0280
11596TIP3   OH256278   0.006   6.359  10.755  0.0968  0.4620 -0.7068
11596TIP3    H156279   0.055   6.293  10.803  0.3818  1.8472  1.0144
11596TIP3    H256280   0.073   6.409  10.708  0.2060  1.3203  0.3272
11597TIP3   OH256281   3.856   0.394  16.604  0.3106 -0.0423  0.1074
11597TIP3    H156282   3.948   0.367  16.597  0.2937  0.1984 -1.3839
11597TIP3    H256283   3.817   0.328  16.662  1.2453 -0.6221  0.1127
11598TIP3   OH256284   4.085   3.907  11.499  0.5123  0.4042 -0.6529
11598TIP3    H156285   4.155   3.967  11.474  0.7700  0.0715 -0.7397
11598TIP3    H256286   4.012   3.964  11.522  0.8546  0.7589 -0.4307
11599TIP3   OH256287   6.779   0.524  13.130 -0.2806 -0.0552  0.3227
11599TIP3    H156288   6.773   0.615  13.159 -0.9799 -0.0407  0.1555
11599TIP3    H256289   6.816   0.529  13.042  0.0111  0.0386  0.4485
11600TIP3   OH256290   3.443   4.414  10.508 -0.5144  0.0311  0.1359
11600TIP3    H156291   3.524   4.409  10.457  0.0571  1.4025  0.8463
11600TIP3    H256292   3.376   4.378  10.451  0.4025 -0.0758 -0.9048
11601TIP3   OH256293   4.321   3.657   4.803 -0.1921 -0.1308  0.5520
11601TIP3    H156294   4.294   3.707   4.880  0.5231  1.3274 -0.1176
11601TIP3    H256295   4.296   3.712   4.729 -1.6948 -1.9025 -0.3561
11602TIP3   OH256296   5.972   5.564  15.214 -0.4648  0.0643  0.3663
11602TIP3    H156297   5.920   5.494  15.175 -0.1301 -1.0333  1.8026
11602TIP3    H256298   5.907   5.625  15.249 -0.7687 -0.3039  0.4486
11603TIP3   OH256299   3.997   0.414   5.059 -0.5891  0.1457  0.6714
11603TIP3    H156300   3.977   0.448   4.972 -1.3071 -0.5512  0.5596
11603TIP3    H256301   3.971   0.484   5.119  2.1442  1.6694  0.2694
11604TIP3   OH256302   3.182   0.384  15.764 -0.3918 -0.2328 -0.1145
11604TIP3    H156303   3.266   0.382  15.809 -0.7429  1.5503  0.6815
11604TIP3    H256304   3.120   0.416  15.830 -1.6524 -1.1673 -0.7895
11605TIP3   OH256305   5.904   2.017   2.289 -0.7579  0.1385 -0.3763
11605TIP3    H156306   5.828   2.031   2.345 -1.0478  2.0350 -1.1697
11605TIP3    H256307   5.972   2.072   2.327 -0.5734  0.4523 -1.1485
11606TIP3   OH256308   6.513   3.334  14.819  0.3894  0.3313 -0.0089
11606TIP3    H156309   6.563   3.324  14.900  0.1455  0.6218  0.1806
11606TIP3    H256310   6.528   3.424  14.792 -2.0560  1.2503  1.4365
11607TIP3   OH256311   1.362   0.854  14.598 -0.2516  0.4254  0.2175
11607TIP3    H156312   1.287   0.899  14.639 -0.2073 -0.3140  1.1481
11607TIP3    H256313   1.420   0.925  14.571  0.0460  0.9494  2.0851
11608TIP3   OH256314   2.801   5.564  10.534  0.3424  0.1340 -0.3512
11608TIP3    H156315   2.871   5.571  10.599 -1.5003  2.0844  1.5893
11608TIP3    H256316   2.794   5.470  10.517  3.6257 -0.1448 -0.9762
11609TIP3   OH256317   4.962   5.783  11.311  0.2285  0.3506 -0.4348
11609TIP3    H156318   4.928   5.697  11.288  0.7654 -0.2348  0.8920
11609TIP3    H256319   4.890   5.826  11.357 -0.6435  1.3074 -2.5245
11610TIP3   OH256320   0.478   4.799  16.823 -0.1990 -0.5334  0.0911
11610TIP3    H156321   0.449   4.854  16.896 -1.2775 -0.9853  0.0285
11610TIP3    H256322   0.428   4.832  16.748  1.9680  0.9039 -0.8178
11611TIP3   OH256323   6.544   4.595   2.629  1.1739  0.3895 -0.0909
11611TIP3    H156324   6.456   4.559   2.619  1.3195  0.5016 -2.1241
11611TIP3    H256325   6.544   4.632   2.717 -1.4756  2.0584 -0.6572
11612TIP3   OH256326   2.583   1.095   1.086  0.1798  0.0089  0.4144
11612TIP3    H156327   2.491   1.109   1.109  0.2733 -0.8754  1.3751
11612TIP3    H256328   2.582   1.013   1.035  0.5502 -0.5752  1.3254
11613TIP3   OH256329   6.768   4.170   0.200  0.4196 -0.2642  0.4878
11613TIP3    H156330   6.802   4.182   0.289 -1.4844  1.3160  1.0937
11613TIP3    H256331   6.765   4.258   0.164  0.0284 -0.7485 -0.7063
11614TIP3   OH256332   6.518   0.560   4.579 -0.5164  0.6541 -0.4301
11614TIP3    H156333   6.525   0.644   4.624 -2.0682  0.5179  0.1129
11614TIP3    H256334   6.487   0.581   4.491  0.7899  0.7639 -0.8967
11615TIP3   OH256335   4.886   0.585  14.941  0.2742  0.5565  0.0796
11615TIP3    H156336   4.824   0.574  15.013  0.7011  0.4979  0.4446
11615TIP3    H256337   4.927   0.499  14.932 -0.5956  0.2315 -1.0164
11616TIP3   OH256338   1.157   2.808   0.468 -0.4787  0.2392  0.0877
11616TIP3    H156339   1.082   2.752   0.451 -0.3304  0.8532 -3.1731
11616TIP3    H256340   1.132   2.893   0.432  1.1533  0.9110  0.4343
11617TIP3   OH256341   6.572   4.088   3.810 -0.2484  0.8036 -0.6516
11617TIP3    H156342   6.484   4.052   3.800 -0.0561  0.1909 -0.1971
11617TIP3    H256343   6.615   4.029   3.872  0.1267  1.7393 -0.0072
11618TIP3   OH256344   3.059   5.238  15.945 -0.2175 -0.2606 -0.0623
11618TIP3    H156345   2.979   5.284  15.973  0.1110  0.7307 -0.6817
11618TIP3    H256346   3.111   5.231  16.025 -0.2597  0.5065  0.0452
11619TIP3   OH256347   2.317   4.371   5.077  0.2096 -0.6439 -0.1430
11619TIP3    H156348   2.230   4.403   5.098 -0.0998 -0.8148 -1.0993
11619TIP3    H256349   2.362   4.448   5.039 -0.2321 -1.0607 -1.5879
11620TIP3   OH256350   2.833   6.723  12.929 -0.7416  0.5024 -0.1208
11620TIP3    H156351   2.744   6.757  12.919 -1.3821 -1.2877 -1.0817
11620TIP3    H256352   2.882   6.794  12.970 -2.7287  1.3644  0.8972
11621TIP3   OH256353   5.515   1.664   2.191 -0.1463  0.1988  0.3119
11621TIP3    H156354   5.603   1.682   2.159  0.4534 -0.7218  1.3986
11621TIP3    H256355   5.493   1.741   2.244 -0.0238  0.4503  0.0014
11622TIP3   OH256356   2.789   3.575  15.960  0.1215  0.1913 -0.3366
11622TIP3    H156357   2.881   3.581  15.988  0.1906  0.5041 -0.6305
11622TIP3    H256358   2.740   3.620  16.029  0.1636 -0.1852 -0.0590
11623TIP3   OH256359   5.594   1.532   5.393  0.1502 -0.3191  0.4929
11623TIP3    H156360   5.680   1.568   5.414  0.6662 -2.1069  1.6845
11623TIP3    H256361   5.537   1.562   5.463 -0.2533  0.9027 -0.3206
11624TIP3   OH256362   6.499   6.230  14.960 -0.2816  0.1944  0.0175
11624TIP3    H156363   6.407   6.243  14.940 -0.5153  0.9170  1.4530
11624TIP3    H256364   6.511   6.135  14.957 -1.0478  0.1057 -0.2990
11625TIP3   OH256365   2.465   4.740   3.848  0.2831  0.7405 -0.1835
11625TIP3    H156366   2.495   4.680   3.780 -1.0966 -1.6348  1.1974
11625TIP3    H256367   2.375   4.714   3.866  0.0651  2.3862  1.4004
11626TIP3   OH256368   5.741   3.117  15.456  0.2769 -0.0177  0.3641
11626TIP3    H156369   5.834   3.130  15.475  0.0921  0.8481  0.7165
11626TIP3    H256370   5.701   3.103  15.542  0.1976 -1.2573  0.1481
11627TIP3   OH256371   0.946   5.638  13.708  0.0120  0.0944 -0.3108
11627TIP3    H156372   0.894   5.625  13.788 -0.6827  0.6933 -0.6570
11627TIP3    H256373   1.029   5.594  13.727 -0.0198  0.4956  0.8614
11628TIP3   OH256374   2.895   5.408  12.206  0.3408  0.4414 -0.2857
11628TIP3    H156375   2.829   5.339  12.205  1.0716 -0.2708 -0.7883
11628TIP3    H256376   2.958   5.380  12.272  2.2221 -0.9620 -2.5109
11629TIP3   OH256377   5.874   0.718   0.519 -0.0248  0.3746 -0.6506
11629TIP3    H156378   5.803   0.768   0.480 -0.0459 -1.4106 -3.0993
11629TIP3    H256379   5.938   0.708   0.449  1.1345 -0.8356  0.5202
11630TIP3   OH256380   4.317   4.626   5.379 -0.0993  0.2630  0.2262
11630TIP3    H156381   4.248   4.569   5.345  0.2139  0.5767 -0.9705
11630TIP3    H256382   4.375   4.567   5.427  0.0527 -0.3786 -0.7323
11631TIP3   OH256383   4.315   1.740   1.362  0.0874  1.1968 -0.7450
11631TIP3    H156384   4.290   1.725   1.271 -1.9103 -1.4588  0.1176
11631TIP3    H256385   4.245   1.794   1.398 -0.7833 -0.3457 -0.0609
11632TIP3   OH256386   4.134   0.273   0.464  0.3568  0.1479  0.2302
11632TIP3    H156387   4.105   0.195   0.418 -2.0951  1.1562 -0.0973
11632TIP3    H256388   4.145   0.245   0.555 -0.3173 -0.6385  0.0832
11633TIP3   OH256389   0.332   2.359   4.250  0.0426  0.8934 -0.1243
11633TIP3    H156390   0.268   2.387   4.184 -0.3738  0.8603  0.2658
11633TIP3    H256391   0.407   2.328   4.198 -1.5173 -2.2769 -0.7354
11634TIP3   OH256392   4.205   5.905  11.815 -0.1961  0.4152  0.0706
11634TIP3    H156393   4.269   5.834  11.803 -0.9571 -0.3264  0.2992
11634TIP3    H256394   4.176   5.895  11.906 -0.7308  0.6630 -0.0679
11635TIP3   OH256395   6.409   6.249  11.429 -0.1036  0.1541  0.7347
11635TIP3    H156396   6.466   6.202  11.490 -0.1272  0.2796  0.8548
11635TIP3    H256397   6.350   6.299  11.486 -0.6648 -0.3661  0.6229
11636TIP3   OH256398   2.735   5.815  13.770  0.1473  0.3602 -0.1275
11636TIP3    H156399   2.746   5.906  13.744  0.2934 -0.2233 -2.2937
11636TIP3    H256400   2.661   5.784  13.717  1.0542 -1.1703 -0.5461
11637TIP3   OH256401   5.631   1.394  14.543  0.2303  0.8335  0.0340
11637TIP3    H156402   5.572   1.396  14.619  0.2899  0.3590  0.0962
11637TIP3    H256403   5.590   1.453  14.479 -0.8236 -0.2158 -0.2897
11638TIP3   OH256404   6.160   4.020   2.285  0.5768  0.0059 -0.6853
11638TIP3    H156405   6.232   3.998   2.345  0.5170  0.5952 -0.3885
11638TIP3    H256406   6.152   3.943   2.228 -0.1216 -1.0503  0.7853
11639TIP3   OH256407   0.299   2.803   6.351 -0.2826  0.3639  0.5771
11639TIP3    H156408   0.370   2.741   6.369  1.2214  1.4191 -1.3466
11639TIP3    H256409   0.322   2.880   6.403 -1.1695  0.0074  1.5378
11640TIP3   OH256410   5.250   0.540  13.461 -0.1002 -0.4090  0.2746
11640TIP3    H156411   5.229   0.532  13.368  0.5661  0.7287  0.0126
11640TIP3    H256412   5.167   0.563  13.503 -0.2667 -0.2624 -0.1371
11641TIP3   OH256413   3.371   3.724   3.854  0.5214 -0.7862 -0.5003
11641TIP3    H156414   3.297   3.771   3.817  1.1041 -0.2899 -1.0622
11641TIP3    H256415   3.356   3.728   3.949  0.4337  0.3472 -0.5394
11642TIP3   OH256416   6.699   2.406  13.424  0.4401 -0.2911 -0.3562
11642TIP3    H156417   6.748   2.410  13.342 -0.0929 -1.4324 -0.7533
11642TIP3    H256418   6.607   2.397  13.398  0.4058 -2.4500  0.3018
11643TIP3   OH256419   2.849   6.571   1.842  0.2040  0.6381  0.1575
11643TIP3    H156420   2.867   6.664   1.854  0.9879  0.3865  1.1096
11643TIP3    H256421   2.773   6.568   1.784  0.1219  1.8628  0.1778
11644TIP3   OH256422   6.625   4.319   6.188  0.5245  0.0544 -0.4067
11644TIP3    H156423   6.678   4.396   6.207  1.4913 -0.5416 -0.5962
11644TIP3    H256424   6.676   4.245   6.223 -1.4589 -0.3420  1.9112
11645TIP3   OH256425   0.956   4.723  11.461 -0.5568  0.4000 -1.0704
11645TIP3    H156426   0.865   4.726  11.492 -0.7306 -0.0759 -1.5243
11645TIP3    H256427   0.972   4.812  11.427 -1.0701  0.3040 -1.5827
11646TIP3   OH256428   5.521   6.675   1.533 -0.0382 -0.1458 -0.0645
11646TIP3    H156429   5.530   6.580   1.543 -1.5195 -0.0869  2.7147
11646TIP3    H256430   5.430   6.694   1.553  0.1237  1.8565 -0.9176
11647TIP3   OH256431   3.153   1.501  14.535  0.1305  1.1961 -0.3089
11647TIP3    H156432   3.202   1.444  14.475 -0.2906  0.0683  0.3929
11647TIP3    H256433   3.103   1.441  14.590 -0.2507  2.2466  0.5274
11648TIP3   OH256434   6.410   5.119   1.512 -0.1916 -0.0302 -0.0460
11648TIP3    H156435   6.373   5.138   1.598 -1.2488 -1.3635 -0.1645
11648TIP3    H256436   6.480   5.056   1.529 -1.0348 -1.0560 -0.1978
11649TIP3   OH256437   1.839   2.027  14.648 -0.9345 -0.0372 -0.2986
11649TIP3    H156438   1.900   1.966  14.607 -2.1186 -0.8142 -0.9683
11649TIP3    H256439   1.853   2.015  14.742 -1.1654 -1.4187 -0.4104
11650TIP3   OH256440   4.616   1.933  17.172 -0.3648  0.5156  0.1005
11650TIP3    H156441   4.604   1.948  17.266  1.0419  1.0982  0.2024
11650TIP3    H256442   4.688   1.871  17.166  0.4306  1.4704 -0.6128
11651TIP3   OH256443   0.322   4.948  16.995 -0.1866 -0.3821  0.2328
11651TIP3    H156444   0.306   5.038  16.966 -1.1302 -0.6813 -0.2142
11651TIP3    H256445   0.321   4.953  17.090 -1.1440 -0.0677  0.2098
11652TIP3   OH256446   4.736   5.494  14.947 -0.8002  0.3385  0.0180
11652TIP3    H156447   4.795   5.420  14.959 -0.5229  0.9194  2.9159
11652TIP3    H256448   4.690   5.503  15.030 -3.0174  1.6220 -1.2297
11653TIP3   OH256449   2.032   1.031   0.761 -0.2682 -0.0519 -1.0505
11653TIP3    H156450   2.091   0.968   0.803 -1.3558 -0.1100  0.4748
11653TIP3    H256451   1.997   0.983   0.685  0.5880 -0.4949 -1.1796
11654TIP3   OH256452   0.755   3.441   5.502 -0.0728 -0.3878 -0.0144
11654TIP3    H156453   0.780   3.534   5.509 -0.1261 -0.3205 -0.6893
11654TIP3    H256454   0.833   3.398   5.466  1.1183 -1.1662  3.1653
11655TIP3   OH256455   2.607   1.457  13.893  0.5063 -0.0895 -0.1052
11655TIP3    H156456   2.598   1.407  13.975 -0.4778 -1.5013 -1.0249
11655TIP3    H256457   2.634   1.544  13.921 -1.2979 -0.0785  1.8550
11656TIP3   OH256458   1.516   6.439   0.280 -0.3862  0.2699 -0.1541
11656TIP3    H156459   1.511   6.373   0.211  0.1181 -0.0122  0.0747
11656TIP3    H256460   1.440   6.496   0.265 -0.3295  0.1591 -0.8898
11657TIP3   OH256461   4.981   6.109   1.868  0.2551 -0.4401  0.3263
11657TIP3    H156462   4.919   6.062   1.925  0.7745 -2.7119 -0.8712
11657TIP3    H256463   5.002   6.189   1.916  2.1479 -3.0331  4.3344
11658TIP3   OH256464   5.964   1.843   0.287 -1.2346 -0.3193  0.1595
11658TIP3    H156465   5.950   1.894   0.207 -1.0973 -0.6019 -0.0462
11658TIP3    H256466   6.030   1.893   0.335 -1.9792  0.3280  0.5244
11659TIP3   OH256467   3.518   3.388   2.652  0.7346  0.4495 -0.2865
11659TIP3    H156468   3.497   3.457   2.588  0.4634  0.1862 -0.4828
11659TIP3    H256469   3.505   3.306   2.605  0.1894  0.2427  0.2069
11660TIP3   OH256470   6.056   1.028   4.477  0.0506 -0.1687 -0.2150
11660TIP3    H156471   6.116   0.956   4.457 -0.0335 -0.1105 -0.6820
11660TIP3    H256472   5.969   0.993   4.458  0.0753  0.3624 -1.3954
11661TIP3   OH256473   3.549   1.871  14.639 -0.1200 -0.0286  0.0255
11661TIP3    H156474   3.485   1.865  14.710 -0.1609 -2.2779 -0.1408
11661TIP3    H256475   3.596   1.788  14.642 -0.0986 -0.1792 -2.5849
11662TIP3   OH256476   5.412   4.689   1.855  0.0585  0.1706  0.6352
11662TIP3    H156477   5.401   4.715   1.947 -0.4786  1.4368  0.2282
11662TIP3    H256478   5.464   4.609   1.860 -0.8595 -0.3917  2.1008
11663TIP3   OH256479   6.300   6.702  14.929  0.5591  0.5776 -0.0958
11663TIP3    H156480   6.280   6.609  14.919 -0.0898  0.6458  0.5335
11663TIP3    H256481   6.291   6.738  14.840 -1.5392  0.4874  0.0299
11664TIP3   OH256482   3.672   3.714   5.472  0.5075 -0.0200 -0.4843
11664TIP3    H156483   3.600   3.766   5.509  0.8793  0.4271 -0.3784
11664TIP3    H256484   3.747   3.735   5.528  0.7540 -0.3717 -0.6861
11665TIP3   OH256485   3.566   0.932   3.085 -0.0020  0.2969  0.2282
11665TIP3    H156486   3.548   0.943   2.991 -0.0880  2.8295  0.4863
11665TIP3    H256487   3.484   0.951   3.128 -0.0994 -1.3615  0.8618
11666TIP3   OH256488   4.910   0.949  11.110  0.5387 -0.2598 -0.3010
11666TIP3    H156489   4.918   0.854  11.100 -1.0655 -0.3779 -0.8437
11666TIP3    H256490   4.951   0.968  11.194 -0.4677 -1.6680  0.5524
11667TIP3   OH256491   3.318   3.918  13.127 -0.2534 -0.1886  0.7763
11667TIP3    H156492   3.281   3.908  13.039 -0.3861 -1.0294  0.9153
11667TIP3    H256493   3.411   3.897  13.116  0.0434  1.1396  0.5765
11668TIP3   OH256494   1.870   5.027  12.508  0.3502 -0.1377  0.4710
11668TIP3    H156495   1.839   4.947  12.464 -0.4760  0.5470 -0.2364
11668TIP3    H256496   1.805   5.093  12.484  2.1372  1.2589 -0.6616
11669TIP3   OH256497   0.826   0.081  15.249  0.5220 -0.3510  0.2505
11669TIP3    H156498   0.791   0.170  15.259 -0.4975 -0.8280  1.2154
11669TIP3    H256499   0.919   0.090  15.268  0.9741  0.9189 -2.1261
11670TIP3   OH256500   5.216   4.187  12.153  0.2297  0.1866  0.6303
11670TIP3    H156501   5.307   4.162  12.136  0.0157 -1.2647  1.4457
11670TIP3    H256502   5.217   4.225  12.241 -0.1913 -1.3836  1.3389
11671TIP3   OH256503   2.490   4.068  17.046 -0.0197  0.0445  0.1946
11671TIP3    H156504   2.511   3.996  16.987  0.6751 -0.5800  1.1692
11671TIP3    H256505   2.398   4.087  17.029 -0.0709 -0.7248 -0.4407
11672TIP3   OH256506   6.382   6.179  15.444  0.3279  0.2861  0.2392
11672TIP3    H156507   6.406   6.130  15.366 -0.7705  1.2229 -0.7320
11672TIP3    H256508   6.360   6.112  15.509 -0.2914 -0.5235 -0.7735
11673TIP3   OH256509   3.983   4.184  17.138 -0.2069  0.2963 -0.4752
11673TIP3    H156510   3.999   4.276  17.121 -0.4707  0.4814  0.2592
11673TIP3    H256511   4.053   4.157  17.197 -1.2626  0.5570  0.9589
11674TIP3   OH256512   4.893   4.840   0.482  0.1329  0.1494  0.2664
11674TIP3    H156513   4.866   4.769   0.424  1.9302  0.0683 -0.5377
11674TIP3    H256514   4.824   4.844   0.549 -2.1771  0.4278 -1.9672
11675TIP3   OH256515   3.594   1.753   3.467  0.1279 -0.3030  0.2135
11675TIP3    H156516   3.560   1.822   3.410 -0.4899  0.1917  1.1582
11675TIP3    H256517   3.516   1.715   3.508  0.6255  0.2931  1.7851
11676TIP3   OH256518   4.650   4.572   5.187  0.1260  0.0232  0.7377
11676TIP3    H156519   4.643   4.483   5.154  0.7503  0.2463 -0.0149
11676TIP3    H256520   4.572   4.617   5.153  0.8487  0.2995 -0.6248
11677TIP3   OH256521   6.172   3.478   1.675 -0.1738  0.3317  0.4090
11677TIP3    H156522   6.147   3.420   1.602  1.5141  1.5654 -1.2612
11677TIP3    H256523   6.137   3.435   1.753 -0.8785 -1.7863 -0.9779
11678TIP3   OH256524   2.184   3.519   4.683 -0.6669  0.8989 -0.0365
11678TIP3    H156525   2.275   3.519   4.654 -0.4525 -2.8614  0.1407
11678TIP3    H256526   2.185   3.571   4.763  0.8493  2.6952 -1.1577
11679TIP3   OH256527   4.544   2.713   2.927 -0.5110 -0.7756 -0.5694
11679TIP3    H156528   4.599   2.789   2.907 -0.5095 -1.1109 -1.9552
11679TIP3    H256529   4.585   2.673   3.004 -0.1775  0.2855 -0.1794
11680TIP3   OH256530   1.693   2.416  11.828  0.1170 -0.1578  0.0524
11680TIP3    H156531   1.785   2.391  11.832  0.6919  0.8612 -3.5358
11680TIP3    H256532   1.691   2.507  11.858 -0.2043 -0.8449  2.3477
11681TIP3   OH256533   2.957   4.132   2.539  0.3312 -0.0705 -0.5071
11681TIP3    H156534   2.915   4.046   2.531  0.5727 -0.1331 -1.1281
11681TIP3    H256535   3.048   4.117   2.515 -0.0703  0.7483 -2.8060
11682TIP3   OH256536   4.407   5.098   0.769 -0.3069  0.2305  0.2515
11682TIP3    H156537   4.330   5.062   0.812 -0.5433  0.5986  0.1380
11682TIP3    H256538   4.481   5.052   0.809 -0.4924  0.8954  1.3774
11683TIP3   OH256539   6.177   0.910   5.234 -0.1951 -0.0640  0.0418
11683TIP3    H156540   6.249   0.884   5.176  0.3442  0.5412  0.4299
11683TIP3    H256541   6.105   0.932   5.175  0.5238  1.0892 -0.4416
11684TIP3   OH256542   1.891   5.232  17.310  0.8632  0.0663  0.6843
11684TIP3    H156543   1.851   5.315  17.283  2.4077  0.1971 -1.5314
11684TIP3    H256544   1.853   5.167  17.250  0.2404 -0.7489  1.9034
11685TIP3   OH256545   0.516   4.998   6.064 -0.0706  0.0625 -0.2416
11685TIP3    H156546   0.517   4.902   6.064 -0.5484  0.0550 -0.4778
11685TIP3    H256547   0.532   5.022   5.973 -1.9172  0.1632 -0.5885
11686TIP3   OH256548   6.378   1.897  15.066  0.3424  0.9164  0.2097
11686TIP3    H156549   6.331   1.832  15.015  2.3054 -1.3987  1.1754
11686TIP3    H256550   6.407   1.962  15.002 -1.3779  0.7042 -0.8291
11687TIP3   OH256551   5.431   0.009  16.527  0.4248 -0.2037  0.1054
11687TIP3    H156552   5.428   0.084  16.467 -1.5220  1.0580  1.6583
11687TIP3    H256553   5.521   0.010  16.561  0.6063  1.0665 -0.3388
11688TIP3   OH256554   3.258   5.638   1.622  0.0978  0.1487  0.0745
11688TIP3    H156555   3.324   5.604   1.561 -0.3244 -2.8844  1.1577
11688TIP3    H256556   3.295   5.720   1.654  2.0334 -0.0650 -1.4683
11689TIP3   OH256557   2.722   2.037   5.328  0.6629 -0.2883 -0.1489
11689TIP3    H156558   2.802   1.985   5.323  0.6606 -0.1703 -2.0514
11689TIP3    H256559   2.656   1.984   5.282 -0.2484 -0.1509  0.9333
11690TIP3   OH256560   1.131   0.953  17.237  0.3202 -0.1189  0.4715
11690TIP3    H156561   1.203   0.948  17.173 -0.0962  0.3077 -0.0423
11690TIP3    H256562   1.110   1.046  17.241 -0.5954 -0.3064  0.1746
11691TIP3   OH256563   0.925   3.997  17.238 -0.0488 -0.5870  1.0563
11691TIP3    H156564   0.896   4.060  17.303 -0.8002 -0.3993  0.5537
11691TIP3    H256565   0.898   3.912  17.273  0.0979 -0.5440  1.2755
11692TIP3   OH256566   4.447   2.665  15.295  0.0996  0.3432 -0.2973
11692TIP3    H156567   4.406   2.751  15.302 -0.6258 -0.1477  2.9380
11692TIP3    H256568   4.374   2.605  15.279  0.5667  0.2311 -2.2295
11693TIP3   OH256569   6.455   6.635  11.084  0.4407 -0.1087  0.4296
11693TIP3    H156570   6.551   6.641  11.084  0.5199 -0.7440 -1.3000
11693TIP3    H256571   6.425   6.726  11.081  1.0768  0.0920 -1.4401
11694TIP3   OH256572   0.054   5.965  12.477  0.2701  0.3175  0.1179
11694TIP3    H156573   0.111   5.903  12.522 -0.0678  1.9206  2.9483
11694TIP3    H256574   0.111   6.037  12.452 -0.1893  1.1958  1.5217
11695TIP3   OH256575   4.840   5.498   3.929 -0.7025  0.0871  0.0246
11695TIP3    H156576   4.748   5.520   3.912 -0.6487  1.4317  1.2513
11695TIP3    H256577   4.838   5.446   4.009 -0.3519  0.6319  0.3898
11696TIP3   OH256578   4.891   1.148   0.395  0.5818  0.2046  0.4676
11696TIP3    H156579   4.825   1.154   0.465 -1.0772  2.2069 -1.1031
11696TIP3    H256580   4.898   1.054   0.377 -2.8264 -0.1075 -0.0543
11697TIP3   OH256581   2.524   0.658   6.134  0.2393 -0.7973  0.0870
11697TIP3    H156582   2.576   0.715   6.191  0.9140  0.8469 -2.0116
11697TIP3    H256583   2.436   0.662   6.170  0.9974 -1.4331  2.1316
11698TIP3   OH256584   5.036   1.524   4.815 -0.2508 -0.1204  0.5221
11698TIP3    H156585   5.072   1.463   4.880 -1.9492 -0.4255  1.2615
11698TIP3    H256586   5.021   1.471   4.737  0.7355 -0.0186  0.2557
11699TIP3   OH256587   3.629   0.546  13.059 -0.3479 -0.1091 -0.6849
11699TIP3    H156588   3.569   0.485  13.103  0.2023 -0.1130  0.0913
11699TIP3    H256589   3.674   0.591  13.131 -0.3261  0.8015 -1.2505
11700TIP3   OH256590   5.156   6.240   6.148  0.0473 -0.0762 -0.5342
11700TIP3    H156591   5.095   6.270   6.216 -1.8949 -0.4018 -2.0456
11700TIP3    H256592   5.212   6.316   6.132 -1.0958  0.8520 -0.3180
11701TIP3   OH256593   1.760   0.336  11.088 -0.4076  0.0691  0.4087
11701TIP3    H156594   1.827   0.333  11.019 -0.7314  0.9612  0.0405
11701TIP3    H256595   1.808   0.355  11.168 -0.1981  0.5614  0.1690
11702TIP3   OH256596   3.772   0.597   0.994  0.5844  0.1852 -0.1759
11702TIP3    H156597   3.850   0.543   0.982  0.8120  0.7618 -1.4549
11702TIP3    H256598   3.709   0.539   1.037  1.3669 -0.5866 -0.0383
11703TIP3   OH256599   3.864   6.242   2.889  0.8424 -0.0595  0.0223
11703TIP3    H156600   3.856   6.156   2.849  1.1797  0.2391 -0.7211
11703TIP3    H256601   3.779   6.284   2.875  0.5035 -0.4492  0.8446
11704TIP3   OH256602   3.489   2.178   3.880  0.4964  0.0546 -0.2936
11704TIP3    H156603   3.546   2.115   3.835  1.7324  0.7724  0.1941
11704TIP3    H256604   3.517   2.264   3.847 -1.4210  0.3628 -1.2371
11705TIP3   OH256605   6.496   4.006  13.388 -0.2892  0.0269 -0.2496
11705TIP3    H156606   6.566   4.046  13.336  0.7517 -0.5462  0.6743
11705TIP3    H256607   6.431   3.979  13.324  0.8802 -0.5095 -1.2489
11706TIP3   OH256608   0.167   6.169   3.888  0.0490  1.0245  0.4601
11706TIP3    H156609   0.152   6.112   3.964 -0.9330  0.6280 -0.0152
11706TIP3    H256610   0.211   6.113   3.824 -0.9374  0.7912 -0.0168
11707TIP3   OH256611   4.715   2.369   2.484 -0.2016 -0.2378  0.1161
11707TIP3    H156612   4.737   2.454   2.521  0.3555 -0.7004  0.9010
11707TIP3    H256613   4.793   2.315   2.500 -0.9793 -1.2309  0.7587
11708TIP3   OH256614   5.813   1.569  16.015 -0.7681  0.5524  0.4527
11708TIP3    H156615   5.773   1.483  16.000 -0.7003  0.4395  0.9297
11708TIP3    H256616   5.759   1.629  15.963  0.2493 -0.0153 -1.3546
11709TIP3   OH256617   2.397   0.665   0.834 -0.3649  0.2030  0.5743
11709TIP3    H156618   2.322   0.725   0.830 -1.2736 -0.8571  0.9912
11709TIP3    H256619   2.386   0.620   0.917  0.5824 -0.1814  0.4912
11710TIP3   OH256620   1.780   6.644  11.105  0.1295 -0.0913  0.2302
11710TIP3    H156621   1.686   6.659  11.113  0.0386 -0.6258  0.2093
11710TIP3    H256622   1.816   6.671  11.189  0.0196  0.5591  0.0728
11711TIP3   OH256623   2.018   0.389  11.264 -0.5528  0.8891  0.3466
11711TIP3    H156624   2.061   0.376  11.349 -0.5578  0.0076  0.2312
11711TIP3    H256625   2.021   0.483  11.249 -1.3190  1.1746  1.7346
11712TIP3   OH256626   3.483   4.270  15.175 -0.2584  0.2442 -0.1491
11712TIP3    H156627   3.389   4.274  15.196 -0.3867 -2.7561  0.3728
11712TIP3    H256628   3.487   4.277  15.080 -1.0416  0.3162 -0.1830
11713TIP3   OH256629   4.579   0.862  13.808 -0.3360 -0.1667  0.6456
11713TIP3    H156630   4.556   0.950  13.777  1.6009  0.5651  1.1180
11713TIP3    H256631   4.505   0.807  13.782 -0.8476  1.2777 -1.1460
11714TIP3   OH256632   4.638   4.832  11.445  0.3432  0.4113  0.0264
11714TIP3    H156633   4.566   4.888  11.416  0.3159  0.1575 -0.4044
11714TIP3    H256634   4.600   4.744  11.447  1.2638 -0.1139 -2.5205
11715TIP3   OH256635   6.749   4.703  13.458 -0.2185 -0.1564  0.1188
11715TIP3    H156636   6.790   4.780  13.418  1.5888 -1.1684 -0.0918
11715TIP3    H256637   6.792   4.694  13.543 -0.0169 -1.2268 -0.0858
11716TIP3   OH256638   1.952   4.214  16.151  0.1131 -0.1408  1.0413
11716TIP3    H156639   2.027   4.264  16.183  0.9913 -1.6293  1.3857
11716TIP3    H256640   1.880   4.277  16.148  0.6020  0.6218  3.6404
11717TIP3   OH256641   2.153   5.894   2.427  0.0972 -0.5311  1.0740
11717TIP3    H156642   2.124   5.973   2.473 -2.2749 -0.3126 -0.6386
11717TIP3    H256643   2.248   5.905   2.419 -0.1597  2.2200  0.7946
11718TIP3   OH256644   2.823   0.306   5.417 -0.4003 -0.1157  0.6668
11718TIP3    H156645   2.881   0.376   5.446  2.0828 -2.3234  1.3981
11718TIP3    H256646   2.743   0.319   5.468 -0.9561  3.3402 -0.7606
11719TIP3   OH256647   4.929   4.333   1.601  0.2464  0.0633  0.3899
11719TIP3    H156648   4.964   4.244   1.604  0.1996  0.0548  0.6856
11719TIP3    H256649   4.963   4.375   1.680 -2.4285 -0.6954  2.1013
11720TIP3   OH256650   3.487   6.535  12.451  0.6190 -0.0661 -0.3851
11720TIP3    H156651   3.502   6.500  12.363  1.2860 -1.0870  0.1103
11720TIP3    H256652   3.445   6.462  12.498  1.0507  0.1637  0.3732
11721TIP3   OH256653   4.816   3.541  14.370 -0.3189 -0.1354  0.0163
11721TIP3    H156654   4.787   3.464  14.321 -0.1032  0.9373 -1.8705
11721TIP3    H256655   4.910   3.547  14.352 -0.1158 -0.0285  1.0491
11722TIP3   OH256656   5.145   1.475  13.917  0.6940 -0.0107  0.6055
11722TIP3    H156657   5.134   1.463  13.823 -0.1018 -1.8420  0.8896
11722TIP3    H256658   5.176   1.565  13.926 -2.7255  1.5167 -1.1653
11723TIP3   OH256659   1.400   6.493  16.356  0.3857  0.4425 -0.6371
11723TIP3    H156660   1.363   6.491  16.268  0.7706  2.9869 -0.9434
11723TIP3    H256661   1.377   6.580  16.390  1.6380  0.1454  1.1426
11724TIP3   OH256662   1.528   3.185  13.816 -0.4831 -0.6278 -0.3004
11724TIP3    H156663   1.532   3.109  13.758  0.3157  0.3585 -1.6195
11724TIP3    H256664   1.442   3.180  13.857 -1.6799 -0.6568 -2.6288
11725TIP3   OH256665   5.811   1.078  13.920  0.3254  1.1583 -0.0039
11725TIP3    H156666   5.831   1.171  13.929 -1.0900  1.3803  1.5595
11725TIP3    H256667   5.718   1.072  13.944  0.3535 -0.6393 -0.2282
11726TIP3   OH256668   1.765   3.935  16.132 -0.3792 -0.2255  0.5004
11726TIP3    H156669   1.721   4.005  16.180  0.6871  0.8449 -0.0446
11726TIP3    H256670   1.782   3.972  16.045  0.9287 -0.8597  0.4670
11727TIP3   OH256671   5.618   6.538   0.107  0.0960  0.2319 -0.1500
11727TIP3    H156672   5.541   6.554   0.162  1.7080  2.1425  1.6846
11727TIP3    H256673   5.608   6.599   0.033  0.9866  2.2781  1.3481
11728TIP3   OH256674   0.246   0.608  14.295 -0.0164  0.2064 -0.6524
11728TIP3    H156675   0.326   0.658  14.314 -0.4724  0.0800  2.0207
11728TIP3    H256676   0.278   0.522  14.269  0.7946 -0.1155  1.2096
11729TIP3   OH256677   6.310   2.016   1.790 -0.9133 -0.2471  0.1352
11729TIP3    H156678   6.263   2.031   1.872 -0.1919  0.9586  0.3547
11729TIP3    H256679   6.255   2.058   1.723 -0.5183  0.5428  0.2946
11730TIP3   OH256680   2.240   5.492  16.476 -0.1401 -0.3482 -0.2698
11730TIP3    H156681   2.330   5.462  16.462 -0.8184 -2.5196 -0.3653
11730TIP3    H256682   2.243   5.586  16.458  2.1791 -0.2838  0.1307
11731TIP3   OH256683   2.306   3.776   4.548  0.4721 -0.2055 -0.2104
11731TIP3    H156684   2.261   3.752   4.629 -0.4826 -0.8859 -0.9164
11731TIP3    H256685   2.399   3.770   4.570  0.2401  0.4804  1.0691
11732TIP3   OH256686   3.412   4.781   4.278 -0.1612 -0.3103 -1.1037
11732TIP3    H156687   3.397   4.692   4.244 -2.7978 -0.2738 -0.2425
11732TIP3    H256688   3.328   4.807   4.315  1.1374  1.7288  0.6432
11733TIP3   OH256689   4.306   4.204   5.995 -0.0543 -0.2165 -0.1110
11733TIP3    H156690   4.228   4.173   5.949  0.1330 -1.0243  0.1040
11733TIP3    H256691   4.365   4.128   5.997  0.5754  0.2653  0.0814
11734TIP3   OH256692   6.131   1.942  14.751  0.1955  0.1177 -0.3628
11734TIP3    H156693   6.197   1.909  14.690 -1.3426 -0.4669 -1.8079
11734TIP3    H256694   6.109   1.866  14.805 -1.5114 -0.6300 -1.9979
11735TIP3   OH256695   3.130   3.921  12.678  0.7407 -0.3516  0.4143
11735TIP3    H156696   3.067   3.888  12.741 -0.1881  0.7299  0.0942
11735TIP3    H256697   3.195   3.852  12.670 -0.2776 -1.4024  0.9340
11736TIP3   OH256698   2.775   4.941  14.653 -0.0520  0.1720 -0.6940
11736TIP3    H156699   2.822   4.933  14.736  0.8890  0.1347 -1.2196
11736TIP3    H256700   2.803   5.026  14.617  0.0654 -0.1125 -1.2879
11737TIP3   OH256701   0.249   0.892   4.118  0.2512 -0.4190  0.5707
11737TIP3    H156702   0.272   0.876   4.210  1.6770 -1.6794  0.0514
11737TIP3    H256703   0.186   0.823   4.097  1.0195 -1.0352  0.2367
11738TIP3   OH256704   0.140   2.433   5.398 -0.5214 -0.4290 -0.1221
11738TIP3    H156705   0.066   2.456   5.454 -0.3699  0.4045 -0.2638
11738TIP3    H256706   0.138   2.337   5.396 -0.6574 -0.4691  1.1174
11739TIP3   OH256707   1.077   2.494   0.111 -0.2359  0.0493  0.7841
11739TIP3    H156708   1.097   2.401   0.097  0.3973  0.4431 -1.3100
11739TIP3    H256709   1.147   2.541   0.066 -1.8883  1.5073 -0.4414
11740TIP3   OH256710   5.582   2.939   0.158 -0.4160 -0.0208  0.2273
11740TIP3    H156711   5.507   2.882   0.176 -1.2320  1.1401  0.5956
11740TIP3    H256712   5.554   2.991   0.082  0.4246 -0.2746 -0.2703
11741TIP3   OH256713   2.379   3.603  14.186  0.2487 -0.4841  0.9624
11741TIP3    H156714   2.426   3.633  14.108 -0.6654 -1.1427  0.1274
11741TIP3    H256715   2.403   3.510  14.194 -0.8715 -0.8300  0.5234
11742TIP3   OH256716   2.342   2.534  16.083  0.0001  0.0348  0.2737
11742TIP3    H156717   2.252   2.567  16.089 -0.0418 -0.2667  1.6225
11742TIP3    H256718   2.376   2.542  16.172  2.7731  4.1583 -0.8468
11743TIP3   OH256719   3.716   3.428   2.130  0.6905  0.0945 -0.5476
11743TIP3    H156720   3.763   3.511   2.138  0.7387  0.0160 -0.0287
11743TIP3    H256721   3.775   3.363   2.166  0.4782 -0.1050 -0.5590
11744TIP3   OH256722   6.589   2.276   0.144  0.6108  0.1543  0.4187
11744TIP3    H156723   6.648   2.339   0.184  0.7180  0.3182  0.0065
11744TIP3    H256724   6.522   2.260   0.210 -0.8200  2.5696 -0.3412
11745TIP3   OH256725   2.708   4.111   5.430 -0.0044 -0.6232 -0.4301
11745TIP3    H156726   2.653   4.142   5.358 -1.1184  2.5100  1.5814
11745TIP3    H256727   2.646   4.075   5.493  0.4500  0.6664  0.7877
11746TIP3   OH256728   4.501   3.388  11.349  0.0104  0.3696 -0.2017
11746TIP3    H156729   4.490   3.294  11.363  2.1484  0.1383  0.1889
11746TIP3    H256730   4.548   3.419  11.426 -0.7019  1.7990 -0.2990
11747TIP3   OH256731   0.827   2.698   3.816  0.0048  0.0163  0.0131
11747TIP3    H156732   0.858   2.716   3.904  3.6863 -1.2056 -0.8532
11747TIP3    H256733   0.851   2.776   3.765  1.0331 -0.6277 -0.5258
11748TIP3   OH256734   4.572   3.858  14.301  0.8629  0.2032  0.4449
11748TIP3    H156735   4.652   3.905  14.321  1.9088 -0.5448 -1.6851
11748TIP3    H256736   4.575   3.780  14.356  0.4031  1.2751  2.0567
11749TIP3   OH256737   5.876   2.682  11.097 -0.1532 -0.3328 -0.4306
11749TIP3    H156738   5.932   2.745  11.051  0.8533 -0.5742  0.4134
11749TIP3    H256739   5.897   2.598  11.058 -0.8600 -0.2728 -0.9600
11750TIP3   OH256740   4.600   1.313  12.806  0.5044  0.1687 -0.6689
11750TIP3    H156741   4.533   1.322  12.874 -0.3673  0.2902 -1.5186
11750TIP3    H256742   4.646   1.232  12.829 -2.1328 -1.8433 -1.8555
11751TIP3   OH256743   6.423   3.655  11.350 -0.0503  0.1900  0.6238
11751TIP3    H156744   6.494   3.712  11.379  0.4306 -0.3900  0.6015
11751TIP3    H256745   6.374   3.636  11.430  0.5058 -0.3478  0.8450
11752TIP3   OH256746   2.470   2.379  16.566  0.1984 -0.2533  0.5928
11752TIP3    H156747   2.459   2.473  16.580 -1.9534  0.3899 -3.8700
11752TIP3    H256748   2.562   2.369  16.542  0.3658  0.7638  0.7774
11753TIP3   OH256749   0.434   3.075  15.366 -0.3920 -0.0090  0.2931
11753TIP3    H156750   0.439   3.147  15.303  1.4902 -1.1547 -0.9574
11753TIP3    H256751   0.469   3.112  15.447  0.5083  0.5075 -0.3188
11754TIP3   OH256752   4.236   1.926   5.124 -0.5886  0.0232 -0.1591
11754TIP3    H156753   4.193   1.842   5.144  1.1298 -0.8285  0.1153
11754TIP3    H256754   4.310   1.903   5.068  2.1638  0.7649  2.8348
11755TIP3   OH256755   6.597   3.774  17.241  0.6192 -0.1520  0.1344
11755TIP3    H156756   6.564   3.818  17.320  0.9178  0.7279 -0.2250
11755TIP3    H256757   6.646   3.841  17.195  0.5077 -0.6818 -0.7736
11756TIP3   OH256758   5.572   3.266   3.661 -0.3210 -0.0813 -0.7881
11756TIP3    H156759   5.628   3.220   3.599 -0.5670  0.3613 -1.3442
11756TIP3    H256760   5.631   3.291   3.732 -0.2246 -1.4325 -0.3695
11757TIP3   OH256761   1.389   3.397   4.202  0.1680 -1.1162  1.0381
11757TIP3    H156762   1.447   3.407   4.277  0.0970 -0.1382  0.9740
11757TIP3    H256763   1.301   3.389   4.239  0.1147 -0.4623  1.0498
11758TIP3   OH256764   4.973   1.617   2.642  0.9217  0.1423  0.2131
11758TIP3    H156765   4.977   1.712   2.656  1.0995  0.2109 -0.2863
11758TIP3    H256766   4.969   1.580   2.730  0.9036  0.6124  0.4129
11759TIP3   OH256767   6.789   6.479   1.528 -0.2815 -0.1767 -0.2430
11759TIP3    H156768   6.752   6.395   1.557 -4.6168  1.2088 -0.9298
11759TIP3    H256769   6.797   6.470   1.433  1.1633 -0.4005 -0.1174
11760TIP3   OH256770   1.772   3.273   5.612 -0.4240  0.2272 -0.1942
11760TIP3    H156771   1.777   3.181   5.638  0.8922  0.0650 -0.9497
11760TIP3    H256772   1.747   3.319   5.692 -1.8611 -0.8514  0.0202
11761TIP3   OH256773   6.490   3.067  11.091 -0.2378 -0.2199 -0.2817
11761TIP3    H156774   6.583   3.084  11.073 -0.0354  0.2693  1.1038
11761TIP3    H256775   6.488   2.979  11.127 -0.2610 -0.1073 -0.0029
11762TIP3   OH256776   4.698   0.747  10.500  0.4538  0.1835 -0.7191
11762TIP3    H156777   4.734   0.660  10.515  0.0114 -0.0436 -0.9365
11762TIP3    H256778   4.648   0.766  10.579 -0.3586 -0.2344 -1.1144
11763TIP3   OH256779   1.959   2.960   3.739 -0.2256  0.4981 -0.1492
11763TIP3    H156780   1.875   2.970   3.784  1.2546 -0.8036  3.3057
11763TIP3    H256781   1.944   2.890   3.676 -1.3604 -1.0152  1.6856
11764TIP3   OH256782   4.548   1.386   3.055  0.0661  0.1001  0.2298
11764TIP3    H156783   4.541   1.378   2.960  1.7307 -2.8708  0.2478
11764TIP3    H256784   4.589   1.305   3.083  0.7033  1.3808  3.4110
11765TIP3   OH256785   0.144   4.620   2.352 -0.5010  0.1825  0.2381
11765TIP3    H156786   0.192   4.555   2.301 -1.1054 -0.8745  0.9829
11765TIP3    H256787   0.201   4.697   2.351  0.4021 -0.4636 -0.3491
11766TIP3   OH256788   4.522   5.952  16.133  0.0529  0.1433  0.6001
11766TIP3    H156789   4.613   5.983  16.128  0.8579 -2.0882 -0.0518
11766TIP3    H256790   4.492   5.952  16.042 -0.3527  0.1903  0.7356
11767TIP3   OH256791   4.885   4.114   4.259  0.6220  0.2220 -0.2807
11767TIP3    H156792   4.936   4.077   4.187  1.7071 -0.4834  0.8043
11767TIP3    H256793   4.840   4.039   4.298  0.3244  0.5449  0.0091
11768TIP3   OH256794   4.964   3.868   2.934  0.3773 -0.2807 -0.2151
11768TIP3    H156795   5.022   3.902   3.002 -2.2345  0.2552  1.8996
11768TIP3    H256796   4.899   3.816   2.981 -1.3996 -0.1081 -2.3115
11769TIP3   OH256797   3.383   2.707  13.933  0.4275 -0.4203 -0.5760
11769TIP3    H156798   3.293   2.694  13.904 -0.7036  1.6707  1.6029
11769TIP3    H256799   3.434   2.716  13.853 -1.8521  1.3769 -1.9113
11770TIP3   OH256800   1.765   5.287  15.998  0.1232 -0.2294  0.2642
11770TIP3    H156801   1.680   5.323  16.021 -0.2521 -1.3331  0.6611
11770TIP3    H256802   1.819   5.364  15.977 -1.4251  0.4179 -1.6764
11771TIP3   OH256803   6.360   2.163  13.947 -0.5188 -0.1924  0.2820
11771TIP3    H156804   6.352   2.254  13.919  0.2325 -0.1474  0.1937
11771TIP3    H256805   6.451   2.154  13.974 -0.8951 -0.5983  1.4487
11772TIP3   OH256806   0.458   6.111  12.167 -0.3645  0.2415  0.2876
11772TIP3    H156807   0.487   6.145  12.082  1.4169  0.2129  0.8437
11772TIP3    H256808   0.435   6.020  12.149  1.8605 -0.3659  0.1314
11773TIP3   OH256809   3.715   5.467   1.896 -0.2292  0.1575  0.3524
11773TIP3    H156810   3.688   5.385   1.854 -0.3235  0.8329 -0.9557
11773TIP3    H256811   3.699   5.534   1.830  3.2880  0.7979 -0.0331
11774TIP3   OH256812   3.713   0.619  11.779  0.2012 -0.0544 -0.1259
11774TIP3    H156813   3.701   0.623  11.874 -2.2541 -2.3759 -0.2284
11774TIP3    H256814   3.626   0.634  11.742  1.3343  2.3823 -2.1975
11775TIP3   OH256815   5.767   2.265   6.228 -0.3230 -0.0383  0.3138
11775TIP3    H156816   5.762   2.182   6.276 -0.4348 -0.5099 -0.4963
11775TIP3    H256817   5.852   2.301   6.252 -1.2183  0.7956  2.5426
11776TIP3   OH256818   2.039   1.277   6.008 -0.0382 -0.4216 -0.4081
11776TIP3    H156819   2.013   1.256   6.097 -1.3839  0.5083 -0.5486
11776TIP3    H256820   2.133   1.292   6.014 -0.0926 -0.4408  0.8425
11777TIP3   OH256821   0.317   5.269   4.979  0.0155  0.1122  0.1730
11777TIP3    H156822   0.297   5.362   4.969 -1.1746 -0.1965 -0.6653
11777TIP3    H256823   0.333   5.238   4.890 -2.4125 -1.0245  0.0429
11778TIP3   OH256824   1.604   1.344   1.801  0.1578 -0.1406  0.2740
11778TIP3    H156825   1.566   1.345   1.889  2.0387  1.5752  1.1518
11778TIP3    H256826   1.557   1.413   1.754  0.3623  0.1667  0.5158
11779TIP3   OH256827   6.003   2.410  14.098 -0.0343  0.1865 -0.2261
11779TIP3    H156828   5.916   2.380  14.125 -0.2424  0.6132 -0.4109
11779TIP3    H256829   6.059   2.390  14.173 -0.4068  0.4388  0.1246
11780TIP3   OH256830   0.665   2.072  15.358  0.3184  0.5721  0.2941
11780TIP3    H156831   0.653   1.991  15.407 -0.3982  0.7744  0.4613
11780TIP3    H256832   0.724   2.048  15.286 -0.3245 -0.2233  0.0165
11781TIP3   OH256833   4.183   5.667   4.796  0.3604 -0.3252  0.4039
11781TIP3    H156834   4.244   5.710   4.735  1.3976  0.8788  2.2068
11781TIP3    H256835   4.227   5.672   4.881 -1.8150 -0.3470  1.5883
11782TIP3   OH256836   0.975   4.820   5.143 -0.6095  0.4667 -0.2762
11782TIP3    H156837   0.984   4.754   5.211  0.5026 -0.9748 -1.7713
11782TIP3    H256838   0.890   4.802   5.103 -0.7020  0.5289 -0.1121
11783TIP3   OH256839   5.690   1.727  16.954 -0.5006 -0.2823  0.1003
11783TIP3    H156840   5.672   1.745  16.862  1.3144 -0.0906 -0.2414
11783TIP3    H256841   5.668   1.809  16.999 -1.0646 -0.2685 -0.1945
11784TIP3   OH256842   3.611   2.250   0.633  0.7303 -0.4782 -0.6465
11784TIP3    H156843   3.595   2.158   0.655  0.4204 -0.4730 -0.8470
11784TIP3    H256844   3.606   2.253   0.537 -0.2089 -0.0853 -0.6031
11785TIP3   OH256845   5.390   6.632   0.599  0.1414  0.2179  0.1040
11785TIP3    H156846   5.313   6.682   0.626  0.6196  0.5043  0.9696
11785TIP3    H256847   5.455   6.698   0.577  0.4108 -0.0168  0.1860
11786TIP3   OH256848   2.383   3.379   4.052 -0.1243 -0.5091  0.0302
11786TIP3    H156849   2.437   3.380   3.973  1.1715 -0.5835  0.8978
11786TIP3    H256850   2.436   3.422   4.119 -2.1110  1.6600  0.3315
11787TIP3   OH256851   4.594   4.011  13.624 -0.1276 -0.1055  0.1636
11787TIP3    H156852   4.578   3.918  13.606  0.2526 -0.2043  0.3411
11787TIP3    H256853   4.558   4.025  13.711  2.0682 -0.6903  1.2291
11788TIP3   OH256854   4.705   2.342  15.859 -0.3093 -0.2196  0.4146
11788TIP3    H156855   4.701   2.422  15.806 -2.0654 -1.2214 -1.1049
11788TIP3    H256856   4.617   2.331  15.893  0.1911 -0.9405  1.5346
11789TIP3   OH256857   4.993   6.472  11.226  0.3462  0.4127 -0.2289
11789TIP3    H156858   5.079   6.478  11.268  0.2173  0.2199  0.0677
11789TIP3    H256859   4.945   6.548  11.259  0.1815  0.1589  0.1260
11790TIP3   OH256860   6.047   5.065   0.741 -0.2573 -0.5315 -0.1298
11790TIP3    H156861   6.075   5.155   0.755  1.1788 -1.0888  0.8136
11790TIP3    H256862   6.105   5.032   0.672 -0.0631 -1.0417  0.2715
11791TIP3   OH256863   0.428   5.193  12.138  0.0394  0.3573 -0.5037
11791TIP3    H156864   0.379   5.207  12.219  1.0072  1.2670 -0.0606
11791TIP3    H256865   0.413   5.100  12.117 -2.6234  0.8039 -0.9096
11792TIP3   OH256866   2.942   4.628   2.427  0.9991 -0.6717  0.4952
11792TIP3    H156867   2.945   4.533   2.439  0.8293 -0.8743 -0.9669
11792TIP3    H256868   2.908   4.640   2.339  2.7501  0.6992 -0.0470
11793TIP3   OH256869   4.030   2.673   3.928  0.4633  0.2024 -0.1265
11793TIP3    H156870   3.991   2.705   3.847 -0.1905  0.1929  0.1829
11793TIP3    H256871   4.006   2.737   3.994 -0.4899 -0.6781  0.4096
11794TIP3   OH256872   5.891   2.221  13.638 -0.6050  0.3472  0.0537
11794TIP3    H156873   5.805   2.186  13.613 -0.1877 -1.3367  0.8278
11794TIP3    H256874   5.946   2.143  13.648  0.5855  1.2979  1.1523
11795TIP3   OH256875   6.404   3.864   0.136  0.0341 -0.0303 -0.3537
11795TIP3    H156876   6.438   3.781   0.170  0.3864  0.9229  1.8003
11795TIP3    H256877   6.340   3.839   0.070  2.6798 -1.9465 -2.4498
11796TIP3   OH256878   1.496   2.422   3.403 -0.1565 -0.2370  0.0759
11796TIP3    H156879   1.524   2.432   3.312 -2.4455  1.1404 -0.5504
11796TIP3    H256880   1.545   2.346   3.435 -0.2570 -1.5749 -2.7010
11797TIP3   OH256881   0.912   1.291  14.921 -0.0795 -0.1910  0.1497
11797TIP3    H156882   0.879   1.288  14.831  1.0059 -0.1924 -0.2619
11797TIP3    H256883   0.913   1.199  14.949 -0.4389 -0.1885  0.1691
11798TIP3   OH256884   6.279   0.019  12.409  0.3815 -0.5744 -0.2560
11798TIP3    H156885   6.318   0.107  12.402 -1.0730  0.0550 -0.8969
11798TIP3    H256886   6.252   0.013  12.501 -1.3278  0.4986 -0.6455
11799TIP3   OH256887   2.989   4.130  17.230 -0.3767  0.1250  0.0227
11799TIP3    H156888   2.919   4.080  17.189 -0.1195 -0.0660 -0.1871
11799TIP3    H256889   2.953   4.158  17.314 -0.9588  0.6448 -0.3897
11800TIP3   OH256890   0.424   4.710   0.846  0.2121 -0.5263 -0.5778
11800TIP3    H156891   0.518   4.696   0.856  0.0995 -2.0946 -1.4110
11800TIP3    H256892   0.398   4.759   0.924  1.6730 -0.2621 -0.2340
11801TIP3   OH256893   2.800   3.052  14.468 -0.3634 -0.3218 -0.1605
11801TIP3    H156894   2.837   3.121  14.524  0.5458  0.3170 -1.5120
11801TIP3    H256895   2.815   2.972  14.517 -1.3046  0.3852  1.3775
11802TIP3   OH256896   1.603   1.887  11.765 -0.2989 -0.4262 -0.4750
11802TIP3    H156897   1.513   1.866  11.786 -1.1478  2.1266 -1.2101
11802TIP3    H256898   1.654   1.813  11.799 -2.4252 -0.9387  1.8243
11803TIP3   OH256899   2.098   5.020   1.941 -0.7744 -0.3650  0.7769
11803TIP3    H156900   2.142   5.002   1.858 -2.8086 -1.7895 -0.0678
11803TIP3    H256901   2.083   5.115   1.940  1.2438  0.0038  0.6392
11804TIP3   OH256902   6.300   3.472   3.370 -0.1529 -0.5720  0.7723
11804TIP3    H156903   6.208   3.447   3.358  0.2494 -1.9379  0.2360
11804TIP3    H256904   6.348   3.406   3.320  1.0542  1.2670 -0.6400
11805TIP3   OH256905   0.313   5.345  13.575 -0.1548 -0.4468  0.0062
11805TIP3    H156906   0.394   5.294  13.577  0.5319  0.6237  0.9392
11805TIP3    H256907   0.282   5.345  13.665  0.0756  1.0570  0.1198
11806TIP3   OH256908   2.681   3.482  13.503  0.6929  0.3286 -0.9165
11806TIP3    H156909   2.731   3.482  13.585  0.3481  1.0731 -0.6984
11806TIP3    H256910   2.655   3.390  13.491  0.5004  0.2592 -0.0388
11807TIP3   OH256911   3.634   5.972   1.143  0.2351 -1.0514  0.5202
11807TIP3    H156912   3.625   5.968   1.238  2.0495 -1.1638  0.7235
11807TIP3    H256913   3.646   6.065   1.124 -2.4401 -0.7020  0.0898
11808TIP3   OH256914   3.825   6.163  16.149  0.1201 -0.1142  0.1748
11808TIP3    H156915   3.753   6.186  16.090  0.1902 -1.2098 -0.3757
11808TIP3    H256916   3.785   6.105  16.214  0.2263  0.3918  0.6963
11809TIP3   OH256917   5.543   6.671   3.099 -0.8095 -0.9584 -0.6585
11809TIP3    H156918   5.501   6.585   3.090 -1.6978 -0.7384  0.9734
11809TIP3    H256919   5.599   6.662   3.176  0.0132 -0.4177 -1.1883
11810TIP3   OH256920   2.594   4.715   1.411  0.0227 -0.3051  0.3549
11810TIP3    H156921   2.584   4.641   1.351 -2.5796 -0.9330  1.4573
11810TIP3    H256922   2.516   4.713   1.466 -0.4905  3.6472  0.0339
11811TIP3   OH256923   3.405   3.881  15.243  0.1323  0.3419  0.1123
11811TIP3    H156924   3.387   3.925  15.160 -0.0978 -1.0153 -0.5877
11811TIP3    H256925   3.477   3.822  15.224 -0.6303 -0.7754  0.5631
11812TIP3   OH256926   4.141   3.846   4.906 -0.6027  0.1386 -0.6631
11812TIP3    H156927   4.055   3.829   4.868 -0.2579  0.6843 -1.7461
11812TIP3    H256928   4.170   3.927   4.864  0.3809  0.0262 -0.2287
11813TIP3   OH256929   5.232   0.583   2.911 -0.3927 -0.0591  0.9583
11813TIP3    H156930   5.322   0.588   2.944 -0.9183  0.3008  2.4432
11813TIP3    H256931   5.214   0.489   2.902  0.8703 -0.1248 -1.6321
11814TIP3   OH256932   4.426   5.694  11.822  0.3702  0.6347 -0.3325
11814TIP3    H156933   4.409   5.682  11.915 -0.3282  1.5259 -0.3375
11814TIP3    H256934   4.522   5.688  11.814  0.3294 -3.7833 -0.2191
11815TIP3   OH256935   6.584   3.085  16.766 -0.2141  0.3911  0.0498
11815TIP3    H156936   6.629   3.019  16.819 -0.6081  0.2931  0.2594
11815TIP3    H256937   6.514   3.038  16.722 -0.3655  0.6290  0.0337
11816TIP3   OH256938   6.391   0.953  15.030  0.1904 -0.0666 -0.6438
11816TIP3    H156939   6.450   0.901  14.975  0.7099  1.0582 -1.1987
11816TIP3    H256940   6.444   1.030  15.054 -1.2394  1.2967 -1.6821
11817TIP3   OH256941   4.210   6.637  14.825  0.1539 -0.5526  0.3503
11817TIP3    H156942   4.154   6.577  14.873  1.0173 -1.5086  0.2057
11817TIP3    H256943   4.164   6.720  14.826  0.1089 -0.5560  2.7569
11818TIP3   OH256944   5.426   1.304   3.269  0.0873 -0.2109  0.5606
11818TIP3    H156945   5.461   1.392   3.258 -1.8745  0.6449  0.8655
11818TIP3    H256946   5.377   1.307   3.351 -0.1793 -1.5287  0.4696
11819TIP3   OH256947   0.015   1.943  15.992  0.0280  0.4770 -0.7702
11819TIP3    H156948   0.002   1.935  16.087 -1.5936 -2.6439 -1.1121
11819TIP3    H256949   0.094   1.997  15.983  1.9467 -1.4287  2.4625
11820TIP3   OH256950   0.309   6.791   4.808 -0.2651  0.4138  0.2481
11820TIP3    H156951   0.394   6.754   4.830 -1.1189 -1.7691  0.1646
11820TIP3    H256952   0.298   6.774   4.714  0.4681  3.5274 -0.5208
11821TIP3   OH256953   6.065   0.610  13.538 -0.4684  0.2329 -0.1274
11821TIP3    H156954   6.142   0.570  13.578 -0.6389 -0.3223 -0.3540
11821TIP3    H256955   5.999   0.541  13.537 -0.3631  0.1164 -1.6623
11822TIP3   OH256956   3.991   5.912  10.658 -0.4365  0.4911 -0.1107
11822TIP3    H156957   4.066   5.955  10.700 -0.4869 -0.1643  0.6786
11822TIP3    H256958   3.917   5.931  10.716 -0.5990 -0.0378 -0.1367
11823TIP3   OH256959   4.975   0.504   2.350 -0.1376  0.0802 -0.2775
11823TIP3    H156960   4.996   0.410   2.358 -2.2636 -0.4459 -0.2109
11823TIP3    H256961   4.984   0.537   2.440 -1.6878 -0.6462  0.1900
11824TIP3   OH256962   0.344   6.269   2.592  0.2810  0.0841  0.3266
11824TIP3    H156963   0.292   6.349   2.587  0.7336  0.3125 -2.0069
11824TIP3    H256964   0.279   6.199   2.597 -0.4481  0.3260 -3.0829
11825TIP3   OH256965   5.899   2.313   1.658 -0.2719 -0.1692 -0.5417
11825TIP3    H156966   5.869   2.235   1.612 -0.7373  0.3480 -1.1418
11825TIP3    H256967   5.940   2.366   1.590  2.3677 -0.9797  0.3014
11826TIP3   OH256968   3.825   0.028   4.683 -0.2718  0.7338  0.1563
11826TIP3    H156969   3.834  -0.064   4.708 -0.5410  0.8662  0.7650
11826TIP3    H256970   3.745   0.031   4.631 -0.9673  0.8236  1.2060
11827TIP3   OH256971   3.387   4.211   2.374  0.2279 -0.5111  0.2567
11827TIP3    H156972   3.299   4.228   2.341 -0.2095 -1.8153  0.7077
11827TIP3    H256973   3.386   4.245   2.464 -0.4663 -2.2498  0.9547
11828TIP3   OH256974   4.057   4.765   0.088  0.0181  0.1083  0.0279
11828TIP3    H156975   3.968   4.741   0.115  0.1113  0.6329  0.8408
11828TIP3    H256976   4.099   4.793   0.168  0.7334  0.4571 -0.4622
11829TIP3   OH256977   2.970   1.192  15.308 -0.2006 -0.2299  0.2893
11829TIP3    H156978   3.014   1.107  15.309  1.0897  0.4167  0.2244
11829TIP3    H256979   2.977   1.221  15.217 -2.3958 -0.9093 -0.1579
11830TIP3   OH256980   0.375   1.072   2.316 -0.0455 -0.3190  0.1047
11830TIP3    H156981   0.414   1.072   2.404 -1.3520  1.9968  0.7399
11830TIP3    H256982   0.295   1.021   2.326  0.7331 -1.6638 -0.2451
11831TIP3   OH256983   3.551   4.651   3.533 -0.3503  0.3422 -0.0022
11831TIP3    H156984   3.494   4.671   3.459 -0.8300 -0.9095  0.0131
11831TIP3    H256985   3.516   4.571   3.570 -0.0709  0.8933  1.5431
11832TIP3   OH256986   0.069   0.896  14.814 -1.0533  0.0327  0.3985
11832TIP3    H156987   0.147   0.891  14.869 -1.3176 -0.9343  0.6979
11832TIP3    H256988   0.096   0.860  14.730 -0.6117  1.6345 -0.1875
11833TIP3   OH256989   0.800   6.001   2.828  0.2881  0.2881  0.0960
11833TIP3    H156990   0.814   6.081   2.777 -0.1974  1.5167  1.8095
11833TIP3    H256991   0.888   5.964   2.840  0.2769 -1.0408 -3.0798
11834TIP3   OH256992   0.601   5.249   4.726 -0.2961  0.0435 -0.3005
11834TIP3    H156993   0.604   5.343   4.746 -0.6407  0.0996 -0.4959
11834TIP3    H256994   0.685   5.230   4.685 -0.1559  0.2306 -0.0978
11835TIP3   OH256995   3.026   5.806   2.692  0.0179  0.0077 -0.6579
11835TIP3    H156996   3.110   5.783   2.652  1.0350  0.7596  0.9308
11835TIP3    H256997   3.036   5.899   2.715 -1.1588  0.0392 -0.2121
11836TIP3   OH256998   2.561   2.291  14.057 -0.3780 -0.1316  0.7370
11836TIP3    H156999   2.652   2.291  14.027 -1.0158 -3.1970 -1.6642
11836TIP3    H257000   2.520   2.365  14.012  0.3725 -0.2262 -0.1198
11837TIP3   OH257001   5.501   5.404  12.340 -0.1459 -0.2843  0.1394
11837TIP3    H157002   5.589   5.429  12.311  0.3317 -2.9608 -0.9536
11837TIP3    H257003   5.443   5.437  12.272  0.5549 -2.6800 -1.7383
11838TIP3   OH257004   5.046   4.801  11.342  0.3528 -0.6485 -0.2139
11838TIP3    H157005   5.117   4.804  11.407  0.5257 -1.7523 -0.3355
11838TIP3    H257006   5.091   4.803  11.257  0.1117  1.2101 -0.3405
11839TIP3   OH257007   5.502   2.575  13.224 -0.3034  0.0395 -0.2607
11839TIP3    H157008   5.560   2.587  13.300  0.2355 -0.6716 -0.5490
11839TIP3    H257009   5.489   2.663  13.190  2.7396  0.0322 -1.7562
11840TIP3   OH257010   5.286   2.736   2.625 -0.3499 -0.3366 -0.3531
11840TIP3    H157011   5.347   2.702   2.691  0.7176  0.6335 -0.8188
11840TIP3    H257012   5.286   2.831   2.639 -1.2338 -0.2575 -0.8240
11841TIP3   OH257013   1.785   5.833   4.105  0.0816  0.1008 -0.0498
11841TIP3    H157014   1.800   5.865   4.016 -1.9117  0.2364 -0.3670
11841TIP3    H257015   1.724   5.760   4.095 -0.1190  0.0804  1.1951
11842TIP3   OH257016   2.870   4.826  14.435 -0.7378 -0.1132 -0.5007
11842TIP3    H157017   2.843   4.736  14.419 -1.3083 -0.1763  0.6899
11842TIP3    H257018   2.805   4.860  14.497  0.1215  0.7514 -0.0421
11843TIP3   OH257019   3.605   5.051  13.363 -0.5861 -0.5709  0.1146
11843TIP3    H157020   3.639   4.967  13.395  0.4080  0.2378  1.2712
11843TIP3    H257021   3.677   5.089  13.313 -0.6658  0.0382  0.4537
11844TIP3   OH257022   3.904   1.778  12.263  0.3786  0.0492  0.1362
11844TIP3    H157023   3.931   1.771  12.172  0.4857 -2.1053  0.2804
11844TIP3    H257024   3.877   1.870  12.273  0.0099  0.2562 -2.1409
11845TIP3   OH257025   3.335   6.008  14.990  0.0019  0.1429  0.5551
11845TIP3    H157026   3.240   6.017  14.989 -0.0259  0.4230  2.3654
11845TIP3    H257027   3.353   5.938  14.927 -1.0885  2.1389 -2.1697
11846TIP3   OH257028   4.894   2.886  15.423  0.1484 -0.3971 -0.1751
11846TIP3    H157029   4.927   2.797  15.421  0.4830 -0.3330  1.2953
11846TIP3    H257030   4.837   2.893  15.346  2.2158 -1.0140 -1.8483
11847TIP3   OH257031   4.277   2.957  15.543  0.2024 -0.6431 -0.2570
11847TIP3    H157032   4.295   2.896  15.471  2.0009  0.3856 -0.7477
11847TIP3    H257033   4.340   2.934  15.611 -0.1208 -0.2948  0.1665
11848TIP3   OH257034   3.680   2.287  15.992 -0.6709 -0.4158  0.2788
11848TIP3    H157035   3.658   2.282  16.085 -0.5399  0.8817  0.3948
11848TIP3    H257036   3.612   2.342  15.954  0.4193  0.7623 -0.0006
11849TIP3   OH257037   2.587   1.491   5.715  0.2393 -0.6025  0.5189
11849TIP3    H157038   2.551   1.403   5.721  1.2019 -1.0454 -0.0932
11849TIP3    H257039   2.608   1.515   5.806  0.0817 -1.0443  0.6715
11850TIP3   OH257040   4.796   1.295  13.557  0.1902  0.1909  0.7839
11850TIP3    H157041   4.777   1.388  13.542 -0.3693 -0.0926 -0.3988
11850TIP3    H257042   4.829   1.291  13.646  0.3878  1.5551  0.7888
11851TIP3   OH257043   2.055   1.862   2.292  0.0788 -0.5641  0.2855
11851TIP3    H157044   2.121   1.833   2.355 -0.3611 -1.4962  0.3377
11851TIP3    H257045   1.980   1.888   2.345  0.0223 -0.5254  0.1871
11852TIP3   OH257046   0.750   4.744   0.500 -0.1361  0.4416  0.1658
11852TIP3    H157047   0.662   4.709   0.517  0.5410 -1.7579 -0.5132
11852TIP3    H257048   0.740   4.796   0.420 -0.5504 -1.1632 -0.8762
11853TIP3   OH257049   2.291   1.756   3.329 -0.1379  0.5142  0.0871
11853TIP3    H157050   2.364   1.754   3.390 -0.5078  1.6172  0.5960
11853TIP3    H257051   2.216   1.724   3.380  0.0711 -1.1750 -0.5976
11854TIP3   OH257052   4.724   1.326  15.742 -0.4182  0.0857 -0.5438
11854TIP3    H157053   4.740   1.269  15.817 -0.2896 -0.6254 -1.0978
11854TIP3    H257054   4.639   1.367  15.761 -0.0865  0.3938  0.2759
11855TIP3   OH257055   6.755   3.842  15.175  0.3250  0.7447  0.1695
11855TIP3    H157056   6.846   3.819  15.192  0.6169  0.0954 -1.9696
11855TIP3    H257057   6.726   3.778  15.110 -2.3593 -0.4706  2.3543
11856TIP3   OH257058   3.835   0.207   5.226  0.5709 -0.0331  0.3381
11856TIP3    H157059   3.780   0.129   5.224  2.0088 -1.1710  1.8008
11856TIP3    H257060   3.821   0.249   5.141 -2.5516 -0.1834  0.6704
11857TIP3   OH257061   1.359   2.216  15.732  0.8686 -0.5694 -0.0120
11857TIP3    H157062   1.282   2.214  15.790  1.0193 -0.6235  0.1867
11857TIP3    H257063   1.420   2.276  15.774  0.9305 -0.5155 -0.1777
11858TIP3   OH257064   0.458   1.478  13.187  0.0730 -0.6198  0.2806
11858TIP3    H157065   0.413   1.477  13.103  0.5421 -0.9547  0.0297
11858TIP3    H257066   0.543   1.517  13.168 -0.1066  0.0265  0.7550
11859TIP3   OH257067   3.650   0.144   3.392  0.0779 -0.7378  0.3169
11859TIP3    H157068   3.704   0.067   3.376  1.4986  0.3145 -0.2398
11859TIP3    H257069   3.705   0.201   3.446 -0.2970  0.5177 -0.5572
11860TIP3   OH257070   0.553   4.692  12.472  0.3174 -0.4317  0.1742
11860TIP3    H157071   0.587   4.602  12.470  1.9630  0.1226  1.1005
11860TIP3    H257072   0.582   4.730  12.390  1.2740 -0.2091  0.6006
11861TIP3   OH257073   1.177   5.738   5.282 -0.0552  0.1699 -0.2548
11861TIP3    H157074   1.201   5.827   5.305  3.2712 -0.4784 -0.7124
11861TIP3    H257075   1.196   5.731   5.188 -1.7847 -0.6196 -0.5890
11862TIP3   OH257076   1.103   2.263   2.860 -0.1897 -0.4744 -0.6850
11862TIP3    H157077   1.062   2.179   2.882  0.7373 -0.3299  1.9198
11862TIP3    H257078   1.196   2.243   2.849  0.5793  0.4862  2.8136
11863TIP3   OH257079   4.946   0.490   4.799  0.5250  0.3556  0.0742
11863TIP3    H157080   4.878   0.542   4.842  0.3731  0.9493 -0.8483
11863TIP3    H257081   5.026   0.510   4.848  0.4985  1.5958 -0.3482
11864TIP3   OH257082   4.143   2.814   4.448 -0.0798  0.4612 -0.1210
11864TIP3    H157083   4.232   2.829   4.480  0.3253 -0.6719 -0.6633
11864TIP3    H257084   4.111   2.901   4.423  0.8829  0.8698  0.0371
11865TIP3   OH257085   0.219   2.217  13.059  0.2961  0.1810  0.0241
11865TIP3    H157086   0.277   2.142  13.077  0.0079 -0.2572 -0.8303
11865TIP3    H257087   0.279   2.288  13.037  0.5657  0.1600  0.6500
11866TIP3   OH257088   0.178   6.085   1.480  0.7036 -0.8154 -0.1721
11866TIP3    H157089   0.140   6.029   1.547 -0.0096  0.8041  0.8475
11866TIP3    H257090   0.233   6.027   1.428  0.6472 -2.2816  1.3232
11867TIP3   OH257091   3.631   2.366   6.501 -0.0299  0.1148  0.0439
11867TIP3    H157092   3.680   2.302   6.553 -0.7433 -0.4645  0.0233
11867TIP3    H257093   3.698   2.422   6.463  0.5558  0.0099  0.8826
11868TIP3   OH257094   2.618   3.416  15.193  0.0366 -0.7679 -0.4127
11868TIP3    H157095   2.690   3.475  15.173  0.4543 -0.8386  0.7831
11868TIP3    H257096   2.550   3.438  15.130  1.3614 -1.2003 -2.0462
11869TIP3   OH257097   4.060   5.352  11.182 -0.8233 -0.1107 -0.1815
11869TIP3    H157098   4.057   5.320  11.272 -1.1872 -0.5722 -0.3499
11869TIP3    H257099   3.969   5.373  11.161 -0.3481  3.5252  0.7528
11870TIP3   OH257100   4.469   4.835   0.501 -0.2127  0.3652 -0.8635
11870TIP3    H157101   4.420   4.866   0.577 -1.6296 -1.8177 -0.8116
11870TIP3    H257102   4.560   4.853   0.524 -0.6017 -0.0103  1.2739
11871TIP3   OH257103   2.310   4.156  14.260 -0.4790  0.3335  0.3854
11871TIP3    H157104   2.393   4.193  14.230  0.7507 -0.5352  2.4385
11871TIP3    H257105   2.288   4.206  14.339 -1.1278 -0.3893  0.6790
11872TIP3   OH257106   4.479   5.060  11.344  0.0930 -0.1918  0.8407
11872TIP3    H157107   4.384   5.072  11.337  0.3804  2.1417  0.1645
11872TIP3    H257108   4.512   5.076  11.256  1.1804 -0.6291  1.1456
11873TIP3   OH257109   0.322   2.934  13.406  0.2608  0.4990  0.0548
11873TIP3    H157110   0.350   2.859  13.457  0.3438  0.1714 -0.4654
11873TIP3    H257111   0.279   2.992  13.469 -1.5203 -0.8429  0.1514
11874TIP3   OH257112   5.542   0.218  13.584 -0.4806  0.3850 -0.0260
11874TIP3    H157113   5.590   0.136  13.579  1.3004  1.3408  0.5106
11874TIP3    H257114   5.591   0.279  13.529  0.4713  2.0815  2.4866
11875TIP3   OH257115   4.337   6.206  12.062 -0.2730 -0.4092  0.8696
11875TIP3    H157116   4.407   6.247  12.113  1.1543 -1.3863 -0.2257
11875TIP3    H257117   4.317   6.269  11.993  1.1886 -1.0344 -0.1885
11876TIP3   OH257118   2.709   1.517  15.201  0.0154  0.6409 -0.1269
11876TIP3    H157119   2.615   1.526  15.186  0.0705  0.4406 -0.5942
11876TIP3    H257120   2.718   1.434  15.247  0.0367  0.2718 -0.7895
11877TIP3   OH257121   0.109   4.014   3.232 -0.2956 -0.4206 -0.2275
11877TIP3    H157122   0.123   3.957   3.157  1.2556  0.4810 -0.6557
11877TIP3    H257123   0.055   4.085   3.199  1.4390  0.6492 -0.8696
11878TIP3   OH257124   2.367   4.332  11.977 -0.5311  0.1548  0.3625
11878TIP3    H157125   2.412   4.402  12.024 -0.5906  0.6554 -0.3099
11878TIP3    H257126   2.416   4.323  11.895 -0.8157 -0.2607  0.2350
11879TIP3   OH257127   2.143   1.622  16.851 -0.5625  0.9679  0.0556
11879TIP3    H157128   2.124   1.557  16.919 -1.0162  1.1025  0.0593
11879TIP3    H257129   2.074   1.609  16.786  0.8579 -0.3755 -1.2824
11880TIP3   OH257130   5.303   6.717  13.752  0.3443 -0.1157  0.1932
11880TIP3    H157131   5.325   6.681  13.666 -0.0553 -0.6611  0.3138
11880TIP3    H257132   5.387   6.745  13.788  0.4892  0.3141 -0.4596
11881TIP3   OH257133   0.892   5.208   0.872  0.1796  0.6896  0.0596
11881TIP3    H157134   0.987   5.208   0.888  0.1801 -1.3124  0.3096
11881TIP3    H257135   0.882   5.158   0.791 -0.6043  2.0191 -0.7051
11882TIP3   OH257136   6.182   3.293  14.611  0.2010  0.0374 -0.1764
11882TIP3    H157137   6.238   3.267  14.684 -0.3959 -1.0284 -0.0728
11882TIP3    H257138   6.123   3.218  14.599 -0.6040  0.7657 -0.8570
11883TIP3   OH257139   3.117   1.294   5.525  0.1583 -0.2924  0.0384
11883TIP3    H157140   3.186   1.287   5.459 -0.1716 -0.8071 -0.2502
11883TIP3    H257141   3.152   1.357   5.589  0.0884  0.9274 -1.0877
11884TIP3   OH257142   4.041   6.338   4.525  0.6209  0.3950  0.1523
11884TIP3    H157143   4.046   6.398   4.599  0.2106  1.0948 -0.3703
11884TIP3    H257144   4.078   6.256   4.557  1.8126  1.1252  0.6928
11885TIP3   OH257145   3.457   0.515   0.865  0.0274 -0.4372  0.3974
11885TIP3    H157146   3.491   0.481   0.948  0.5772 -2.7601 -0.7150
11885TIP3    H257147   3.372   0.472   0.854 -1.2979  1.8144  0.8978
11886TIP3   OH257148   4.153   3.305  14.749 -0.1291  0.4032 -0.6214
11886TIP3    H157149   4.072   3.301  14.698 -2.8781  0.7643  3.2500
11886TIP3    H257150   4.175   3.214  14.766  1.5065  0.2280 -3.2050
11887TIP3   OH257151   1.394   5.757  14.734 -0.5152  0.2900 -0.1994
11887TIP3    H157152   1.465   5.753  14.798 -1.1175  1.8197  0.6285
11887TIP3    H257153   1.322   5.709  14.775 -0.1709 -0.7320 -0.7689
11888TIP3   OH257154   2.018   0.209   2.087 -0.0417 -0.1021  0.3191
11888TIP3    H157155   2.029   0.302   2.070 -0.2999  0.0918  1.1384
11888TIP3    H257156   1.961   0.206   2.165  0.3290 -0.9276  0.5659
11889TIP3   OH257157   3.305   4.332   0.308 -0.0156 -0.6089 -0.0158
11889TIP3    H157158   3.342   4.272   0.373  0.0434 -1.6831 -1.0149
11889TIP3    H257159   3.210   4.318   0.314 -0.0233 -0.5573 -0.0155
11890TIP3   OH257160   5.948   3.976   4.299  0.0796 -0.9881 -0.0938
11890TIP3    H157161   6.037   3.993   4.327 -0.4742  1.4747  0.4134
11890TIP3    H257162   5.911   4.063   4.283 -2.0740 -1.9588 -0.7862
11891TIP3   OH257163   4.354   3.118   0.222 -0.6671  0.6054  0.2982
11891TIP3    H157164   4.419   3.170   0.173  0.2665 -1.3316 -0.6225
11891TIP3    H257165   4.271   3.138   0.180  0.0021 -0.3644 -1.6040
11892TIP3   OH257166   3.241   5.137   0.064 -0.4724 -0.0080 -1.0319
11892TIP3    H157167   3.216   5.229   0.072 -1.5509 -0.2629 -1.3047
11892TIP3    H257168   3.169   5.096   0.016 -0.7205 -1.2940  0.3568
11893TIP3   OH257169   1.357   5.797   2.098  0.3740 -0.4160  0.3755
11893TIP3    H157170   1.381   5.741   2.024  2.2477 -1.6291  1.8269
11893TIP3    H257171   1.414   5.769   2.169 -1.8374  0.2260  2.5248
11894TIP3   OH257172   5.440   0.702   4.827  0.2066 -0.7012 -0.0816
11894TIP3    H157173   5.393   0.768   4.775  0.0054 -0.3435  0.5519
11894TIP3    H257174   5.495   0.657   4.763  0.8023  0.4751 -0.4368
11895TIP3   OH257175   5.187   5.481   3.199  0.1238 -0.2111 -0.2897
11895TIP3    H157176   5.229   5.550   3.148  1.3252  0.6170  1.7268
11895TIP3    H257177   5.184   5.515   3.288  1.0451 -2.8987  0.8540
11896TIP3   OH257178   2.467   3.640  13.476  0.1446 -0.1703  0.3803
11896TIP3    H157179   2.482   3.705  13.545 -0.4390  0.0131  0.3440
11896TIP3    H257180   2.545   3.585  13.477 -0.2931 -0.7962  1.8710
11897TIP3   OH257181   6.375   3.002  16.566  0.2391  0.1938 -0.2384
11897TIP3    H157182   6.290   2.966  16.539 -0.6198  0.7290  1.5223
11897TIP3    H257183   6.440   2.944  16.527 -1.0060 -1.4528 -0.0084
11898TIP3   OH257184   2.931   4.764  17.212  0.4264  0.2618  0.1133
11898TIP3    H157185   2.898   4.680  17.243 -0.2350 -0.2597 -1.9198
11898TIP3    H257186   3.008   4.743  17.159  0.7486  1.0180  0.2532
11899TIP3   OH257187   4.387   1.466   6.465  0.4356  0.4538  0.7449
11899TIP3    H157188   4.315   1.527   6.452  0.1105  0.3457  1.9472
11899TIP3    H257189   4.461   1.521   6.490  1.1331  0.6885 -1.5473
11900TIP3   OH257190   4.155   0.432  11.941  0.0277  0.1204 -0.2941
11900TIP3    H157191   4.182   0.457  12.029  2.7457 -1.6178 -0.5081
11900TIP3    H257192   4.112   0.347  11.952 -2.4116  1.2613 -0.3879
11901TIP3   OH257193   0.844   4.004  12.821  0.1836 -0.6073  0.3716
11901TIP3    H157194   0.869   3.945  12.892  0.1139  1.1731  1.9540
11901TIP3    H257195   0.905   4.078  12.828 -0.0770 -0.1993 -1.1836
11902TIP3   OH257196   6.689   3.047  17.045  0.6268 -0.1442  0.4953
11902TIP3    H157197   6.759   3.110  17.024  0.5780 -1.0069 -2.7673
11902TIP3    H257198   6.608   3.098  17.039  0.6633 -0.2187 -1.0748
11903TIP3   OH257199   2.468   6.792  11.038 -0.4935  0.1543 -0.7740
11903TIP3    H157200   2.458   6.810  11.131  0.9555  0.9939 -0.7508
11903TIP3    H257201   2.561   6.772  11.027 -0.8907 -1.3252 -1.8391
11904TIP3   OH257202   6.627   1.727  14.006 -0.0697 -0.5536 -0.5149
11904TIP3    H157203   6.645   1.633  14.016 -2.7627 -1.2094 -0.8016
11904TIP3    H257204   6.583   1.751  14.087  0.2441  0.3699 -0.6132
11905TIP3   OH257205   6.473   1.972   3.758 -0.2194 -0.0114 -0.4589
11905TIP3    H157206   6.503   1.882   3.747  2.4561  0.5116  1.6378
11905TIP3    H257207   6.392   1.964   3.809  0.8261 -1.2218  1.1093
11906TIP3   OH257208   3.245   1.246   2.211  0.3414 -0.5926 -0.1924
11906TIP3    H157209   3.330   1.268   2.249  0.3028 -0.3080 -0.2674
11906TIP3    H257210   3.263   1.175   2.151  0.0627 -2.6856  2.0374
11907TIP3   OH257211   5.601   0.923  17.280 -0.3752 -0.0004 -0.7875
11907TIP3    H157212   5.517   0.887  17.250 -1.3594  2.4905 -1.3022
11907TIP3    H257213   5.613   0.887  17.368 -1.0414 -1.8151 -1.3879
11908TIP3   OH257214   4.463   5.165   4.562 -0.0803  0.2588 -0.7648
11908TIP3    H157215   4.397   5.224   4.599 -0.7585 -1.7001  1.3330
11908TIP3    H257216   4.547   5.206   4.585 -0.5296  0.2489  1.0341
11909TIP3   OH257217   3.999   6.343   0.931  0.2599  0.1789  0.4859
11909TIP3    H157218   4.048   6.328   1.012 -0.2669 -1.1389  0.5811
11909TIP3    H257219   4.027   6.272   0.872 -0.0074  0.6198 -0.1844
11910TIP3   OH257220   3.170   0.909   0.507  0.7522 -0.1881 -0.3428
11910TIP3    H157221   3.171   0.814   0.508 -1.4944 -0.3604  3.1549
11910TIP3    H257222   3.260   0.935   0.526  0.9281 -1.7789  1.2471
11911TIP3   OH257223   4.035   1.056  17.258  0.1483  0.7349 -0.6655
11911TIP3    H157224   4.047   1.140  17.214  0.7605  1.6333  1.1230
11911TIP3    H257225   4.122   1.017  17.262 -0.0479  0.2395 -1.0160
11912TIP3   OH257226   4.105   5.658  12.879  0.4246 -0.2534 -0.0703
11912TIP3    H157227   4.095   5.754  12.876  2.1034 -0.0589 -1.9648
11912TIP3    H257228   4.170   5.643  12.948 -2.0497 -0.3577  2.3769
11913TIP3   OH257229   6.224   4.417   5.867 -0.2798  0.2982 -0.2686
11913TIP3    H157230   6.263   4.346   5.815 -2.1551 -0.9267 -0.1100
11913TIP3    H257231   6.181   4.472   5.802  0.4326  0.8236 -0.3084
11914TIP3   OH257232   6.479   0.916  17.165  0.0904 -0.2212  0.7417
11914TIP3    H157233   6.513   0.889  17.250 -0.6254  1.0903  1.4776
11914TIP3    H257234   6.534   0.990  17.140  1.0059 -1.2804 -0.4868
11915TIP3   OH257235   6.646   5.096  16.936 -0.1926  0.0915  0.1544
11915TIP3    H157236   6.651   5.179  16.889 -0.1924 -0.0983 -0.1813
11915TIP3    H257237   6.552   5.078  16.942 -0.2348  0.5511  0.9993
11916TIP3   OH257238   6.398   1.442   3.753 -0.5468  0.1046  0.1534
11916TIP3    H157239   6.486   1.452   3.718 -0.9252 -0.5172 -1.0439
11916TIP3    H257240   6.349   1.516   3.718 -0.8194 -0.2737 -0.2716
11917TIP3   OH257241   0.628   4.359   3.445  0.2226  0.6557 -0.1493
11917TIP3    H157242   0.653   4.451   3.453  0.8233  0.6405 -1.5007
11917TIP3    H257243   0.605   4.348   3.353 -0.2474 -0.4620  0.0756
11918TIP3   OH257244   5.068   5.030   6.654  0.6809  0.3745 -0.5502
11918TIP3    H157245   5.144   5.086   6.668  1.2334 -0.5768  0.3852
11918TIP3    H257246   4.994   5.091   6.655  1.3678  1.2513 -0.9808
11919TIP3   OH257247   1.598   5.109  11.180 -0.1179  0.6609  0.3422
11919TIP3    H157248   1.579   5.107  11.086  1.5684  0.0129 -0.0329
11919TIP3    H257249   1.598   5.017  11.206  0.0119  0.8016  0.8459
11920TIP3   OH257250   4.902   1.654  13.412 -0.7214 -0.6692  0.4625
11920TIP3    H157251   4.828   1.641  13.471 -0.6462 -1.8738  0.3198
11920TIP3    H257252   4.867   1.710  13.342 -1.6267 -1.5435  0.1867
11921TIP3   OH257253   2.899   5.121   5.089  0.1408 -0.3808  0.6418
11921TIP3    H157254   2.853   5.039   5.070 -0.0886 -0.5387  1.8231
11921TIP3    H257255   2.877   5.179   5.016 -0.1971 -1.1591  0.1139
11922TIP3   OH257256   4.597   6.367   1.749  0.2450  0.0751 -0.0864
11922TIP3    H157257   4.524   6.425   1.726  0.6779  0.5157 -0.3433
11922TIP3    H257258   4.569   6.280   1.718 -0.0533  0.2934 -0.4292
11923TIP3   OH257259   5.588   5.786  11.315 -0.8072  0.7021  0.3011
11923TIP3    H157260   5.496   5.797  11.342 -0.9369  4.8703 -1.1185
11923TIP3    H257261   5.586   5.800  11.220  1.2105 -0.3528  0.0633
11924TIP3   OH257262   5.919   3.864  13.413 -0.6713 -0.3135 -0.8557
11924TIP3    H157263   5.852   3.814  13.460 -0.3679  0.2124  0.1712
11924TIP3    H257264   5.983   3.798  13.385 -0.2026 -0.5240  0.6067
11925TIP3   OH257265   3.646   0.998  14.643 -0.3630 -0.3037  0.3707
11925TIP3    H157266   3.687   0.912  14.634 -1.0176 -0.5157 -0.7832
11925TIP3    H257267   3.579   0.986  14.709 -0.7940 -0.8234 -0.1550
11926TIP3   OH257268   0.611   2.767  17.018  0.2842 -0.6504  0.2409
11926TIP3    H157269   0.691   2.742  16.972  1.1169  0.8459  0.7898
11926TIP3    H257270   0.577   2.685  17.054  0.1429 -1.7134 -2.1333
11927TIP3   OH257271   6.535   2.701  15.859  0.3923  0.3621 -0.1741
11927TIP3    H157272   6.491   2.616  15.858 -1.0924  1.0851 -1.8687
11927TIP3    H257273   6.508   2.741  15.942  0.3848 -0.4378  0.2226
11928TIP3   OH257274   1.379   4.392  15.065  0.0787 -0.0665  0.4159
11928TIP3    H157275   1.379   4.302  15.033 -1.4575  0.2468 -0.5666
11928TIP3    H257276   1.448   4.435  15.015 -0.5178 -0.2263 -0.5516
11929TIP3   OH257277   3.885   5.682  14.444 -0.9570 -0.0731  0.0444
11929TIP3    H157278   3.962   5.737  14.427 -0.3960 -0.2624  1.7539
11929TIP3    H257279   3.845   5.669  14.358 -0.3938  1.9518 -0.5698
11930TIP3   OH257280   5.238   5.172  14.589  0.2196  0.2706  0.0610
11930TIP3    H157281   5.235   5.141  14.680  0.9090  0.7843  0.2659
11930TIP3    H257282   5.235   5.267  14.596 -1.1407  0.2934 -0.5354
11931TIP3   OH257283   2.424   5.848   3.440  0.8393 -0.2691 -1.3800
11931TIP3    H157284   2.462   5.888   3.518  0.1708  0.1139 -1.2409
11931TIP3    H257285   2.473   5.766   3.428 -0.5645 -1.5449  0.8203
11932TIP3   OH257286   5.948   4.145   3.367 -0.1946 -0.2529 -0.3283
11932TIP3    H157287   5.904   4.222   3.329  1.0573  0.9880  0.6443
11932TIP3    H257288   5.938   4.157   3.461 -0.0157 -1.3387 -0.1611
11933TIP3   OH257289   2.501   4.415  13.530 -0.1071 -0.5357  0.3070
11933TIP3    H157290   2.441   4.486  13.554 -0.1334 -0.1878 -0.7462
11933TIP3    H257291   2.485   4.400  13.437  1.8876  0.0307 -0.1828
11934TIP3   OH257292   6.138   4.486  13.748 -0.2736 -0.2225  0.6161
11934TIP3    H157293   6.087   4.468  13.827 -1.3851  0.6011  0.1015
11934TIP3    H257294   6.173   4.400  13.723 -2.8037 -1.1620  0.0276
11935TIP3   OH257295   2.417   2.498  13.969 -0.1160 -0.1857 -0.0521
11935TIP3    H157296   2.458   2.539  14.045  3.2160 -0.9621 -1.2576
11935TIP3    H257297   2.408   2.568  13.905  0.7753 -0.3011 -0.3107
11936TIP3   OH257298   4.525   2.827  11.201 -0.1970 -0.2473  0.2286
11936TIP3    H157299   4.592   2.783  11.150  0.4538 -0.0641  0.9171
11936TIP3    H257300   4.453   2.842  11.138  0.0522 -1.1936 -0.3003
11937TIP3   OH257301   3.328   2.119  16.310  0.5913  0.3852  0.3958
11937TIP3    H157302   3.249   2.151  16.268  0.5802 -0.1380  0.0041
11937TIP3    H257303   3.302   2.102  16.401  0.6899  1.7844  0.7092
11938TIP3   OH257304   3.783   1.233   1.527  0.8459 -0.4259  0.5410
11938TIP3    H157305   3.718   1.186   1.580 -0.4826  0.5690 -0.1772
11938TIP3    H257306   3.829   1.289   1.590 -0.2915  0.2732  0.7750
11939TIP3   OH257307   2.758   0.607   0.264 -0.2176 -0.0878 -0.6693
11939TIP3    H157308   2.823   0.675   0.276 -0.5469 -0.0949  1.4040
11939TIP3    H257309   2.797   0.548   0.200  0.5795  1.3743 -1.5842
11940TIP3   OH257310   1.349   0.812  15.028  0.8501  0.5608 -0.5488
11940TIP3    H157311   1.377   0.720  15.034  1.5953  0.7983 -0.2770
11940TIP3    H257312   1.257   0.807  15.002  1.2204 -0.2452 -1.8169
11941TIP3   OH257313   6.250   0.328  12.355 -0.2684  0.1486 -0.1402
11941TIP3    H157314   6.205   0.360  12.277  1.9525  2.0400 -0.7433
11941TIP3    H257315   6.203   0.368  12.428 -0.1272  1.3987 -0.7125
11942TIP3   OH257316   5.350   4.833  15.243 -0.0530  0.1586 -0.0639
11942TIP3    H157317   5.327   4.923  15.266  2.4656  0.7307  0.5122
11942TIP3    H257318   5.355   4.788  15.327  1.7378  0.3149 -0.0541
11943TIP3   OH257319   2.525   0.173  16.021 -0.2487 -0.5556 -0.6373
11943TIP3    H157320   2.456   0.108  16.010 -0.4907 -0.4885  0.4454
11943TIP3    H257321   2.503   0.218  16.102  1.2044 -0.7121 -0.1290
11944TIP3   OH257322   0.255   3.005   4.765  0.2656  0.0431 -0.2626
11944TIP3    H157323   0.315   3.007   4.691  0.7042  1.6685  0.0886
11944TIP3    H257324   0.306   3.041   4.838  0.1088 -2.2668  1.0686
11945TIP3   OH257325   1.063   4.417   3.508  0.3755 -0.4022 -0.1671
11945TIP3    H157326   1.153   4.441   3.489  0.3394 -0.6666 -0.6825
11945TIP3    H257327   1.069   4.333   3.554  0.3719 -0.5859 -0.5038
11946TIP3   OH257328   0.471   5.808  15.801  0.5583 -0.2535  0.3948
11946TIP3    H157329   0.428   5.887  15.767  0.2002 -0.4866  0.3071
11946TIP3    H257330   0.411   5.775  15.868  0.8198 -0.3224  0.5965
11947TIP3   OH257331   0.245   1.594   0.298  0.4084 -0.2053 -0.2958
11947TIP3    H157332   0.318   1.537   0.274  0.8910  1.2419 -2.5503
11947TIP3    H257333   0.230   1.649   0.221 -0.8890  1.8276  1.2799
11948TIP3   OH257334   4.835   2.004   0.791  0.9876  0.0999 -0.5354
11948TIP3    H157335   4.904   1.950   0.829  1.1883  1.4636  1.2166
11948TIP3    H257336   4.794   2.047   0.867 -2.2329 -1.0933 -1.4369
11949TIP3   OH257337   5.693   2.410  11.607 -0.3854 -0.0425 -0.7845
11949TIP3    H157338   5.670   2.322  11.577  1.4740 -1.4045  1.4545
11949TIP3    H257339   5.655   2.416  11.694 -1.1599  1.7359 -1.2031
11950TIP3   OH257340   2.407   2.646  12.219 -0.6462 -0.0239  0.0092
11950TIP3    H157341   2.359   2.689  12.290 -0.4517  0.0146  0.1180
11950TIP3    H257342   2.370   2.558  12.215 -1.2007  0.2268 -0.3647
11951TIP3   OH257343   3.411   1.486  11.042  0.9756 -0.2380 -0.0953
11951TIP3    H157344   3.426   1.397  11.009  1.8382  0.2067 -0.9475
11951TIP3    H257345   3.325   1.482  11.085  0.9913 -1.4702 -0.1571
11952TIP3   OH257346   3.806   0.138  15.393  0.0319 -0.0734 -0.1189
11952TIP3    H157347   3.874   0.077  15.420 -0.5566 -1.0112 -0.7093
11952TIP3    H257348   3.798   0.199  15.467  0.9434 -0.4268  0.2855
11953TIP3   OH257349   3.332   2.656  16.269 -0.1080  0.0441  0.3813
11953TIP3    H157350   3.253   2.709  16.273 -0.2279 -0.1765  1.1513
11953TIP3    H257351   3.327   2.599  16.346  1.1778  0.5677  0.8840
11954TIP3   OH257352   4.432   5.526   6.857  0.1680  0.1675  0.3969
11954TIP3    H157353   4.378   5.447   6.859  2.5472 -1.5666  0.2154
11954TIP3    H257354   4.395   5.583   6.925 -2.1582 -0.6707 -0.0847
11955TIP3   OH257355   6.692   5.371  13.684  0.8304  0.1720  0.0343
11955TIP3    H157356   6.720   5.392  13.595  1.1666  0.0761  0.1150
11955TIP3    H257357   6.655   5.452  13.718  1.3542  0.4023  0.0559
11956TIP3   OH257358   0.985   2.212  17.266  0.2395  0.5945 -0.1144
11956TIP3    H157359   0.897   2.231  17.299  0.0498 -0.8175  0.2992
11956TIP3    H257360   1.037   2.197  17.345  0.2594 -0.8885 -0.3811
11957TIP3   OH257361   4.513   6.465   2.157  0.3503 -0.0565 -0.9340
11957TIP3    H157362   4.552   6.440   2.240 -1.0897 -1.3175 -0.5899
11957TIP3    H257363   4.587   6.473   2.097  1.2200 -1.7095 -0.1643
11958TIP3   OH257364   2.123   3.683  13.578 -0.8914 -0.3789  0.2833
11958TIP3    H157365   2.114   3.738  13.657  0.7621 -2.1336  1.8051
11958TIP3    H257366   2.169   3.739  13.515 -1.1086  0.6616  1.0149
11959TIP3   OH257367   2.189   2.633  10.538  0.2966  0.4430  0.0546
11959TIP3    H157368   2.273   2.678  10.525  0.3752  0.9131  1.9183
11959TIP3    H257369   2.214   2.545  10.566  0.1797  0.5303  0.4395
11960TIP3   OH257370   3.242   0.869   5.055 -0.0594 -0.1475  0.5427
11960TIP3    H157371   3.324   0.907   5.025 -0.4930 -0.1388 -0.7326
11960TIP3    H257372   3.178   0.894   4.987 -1.4671  1.1799  2.2737
11961TIP3   OH257373   4.676   4.783   5.861  0.4450  0.2416  0.3528
11961TIP3    H157374   4.646   4.839   5.932  0.7103  0.9237 -0.0670
11961TIP3    H257375   4.599   4.770   5.806  0.7626  1.5661 -0.4437
11962TIP3   OH257376   2.219   2.342   5.227 -0.2827  0.7291 -0.1688
11962TIP3    H157377   2.171   2.413   5.269  0.0648 -0.2010  1.9687
11962TIP3    H257378   2.292   2.325   5.287  0.6711 -0.2309 -1.5512
11963TIP3   OH257379   5.745   4.117   4.028  0.0434  0.0402  0.6858
11963TIP3    H157380   5.751   4.059   4.105 -1.0088  0.1886  0.9003
11963TIP3    H257381   5.661   4.095   3.989 -0.8230  2.0552  1.2987
11964TIP3   OH257382   0.905   5.669   4.271 -0.0424 -0.2979  0.7275
11964TIP3    H157383   0.831   5.634   4.222 -0.8978  2.0161  0.2113
11964TIP3    H257384   0.867   5.732   4.332  1.4566  1.0459  0.3716
11965TIP3   OH257385   1.758   4.290   0.784 -0.1966 -0.0120  0.8905
11965TIP3    H157386   1.676   4.302   0.736 -0.6639 -0.0645  1.6571
11965TIP3    H257387   1.822   4.264   0.717 -1.0114 -0.8436  0.4160
11966TIP3   OH257388   5.470   5.117  11.315 -0.2857  0.0633  0.2099
11966TIP3    H157389   5.408   5.056  11.275  0.9599 -0.4371 -1.0612
11966TIP3    H257390   5.535   5.060  11.357  0.4093  0.5225 -0.2284
11967TIP3   OH257391   5.200   0.579   4.410  0.2767  0.2680 -0.1921
11967TIP3    H157392   5.214   0.546   4.322 -2.4442  0.2987 -0.7143
11967TIP3    H257393   5.222   0.672   4.405  1.2548  0.0294 -0.5129
11968TIP3   OH257394   0.976   1.985  14.464  0.5182  0.4385 -0.0327
11968TIP3    H157395   0.936   1.967  14.549  0.2067  0.7745 -0.1088
11968TIP3    H257396   0.925   1.934  14.402  1.0422 -0.1866  0.0355
11969TIP3   OH257397   5.991   0.020  14.964  0.6863  0.0551 -0.6642
11969TIP3    H157398   6.077  -0.020  14.955 -0.3799 -3.3112  1.8719
11969TIP3    H257399   5.998   0.075  15.042  0.2558 -1.5059  0.5372
11970TIP3   OH257400   4.663   4.521   4.512  0.0077  0.1635 -0.0356
11970TIP3    H157401   4.738   4.463   4.501 -0.4087 -0.6223  1.1464
11970TIP3    H257402   4.624   4.496   4.595 -0.8384  1.4069 -0.0204
11971TIP3   OH257403   4.436   0.882  12.600 -0.4283  0.7310 -0.5813
11971TIP3    H157404   4.399   0.970  12.595 -0.2618  0.7650 -1.3427
11971TIP3    H257405   4.528   0.894  12.578 -0.1235  0.5430  0.5689
11972TIP3   OH257406   2.176   4.941  10.426  0.5503  0.3396  0.1744
11972TIP3    H157407   2.234   5.008  10.391  0.0271 -0.0519 -1.5380
11972TIP3    H257408   2.098   4.989  10.453  1.6170  0.8793  2.5638
11973TIP3   OH257409   3.321   5.971  16.407 -0.2189  0.4514 -0.2962
11973TIP3    H157410   3.326   5.886  16.451 -0.5472  0.2932 -0.5584
11973TIP3    H257411   3.231   6.000  16.420 -0.2405  0.5347 -0.6093
11974TIP3   OH257412   0.935   1.665  12.930 -0.1857  0.0285 -0.0911
11974TIP3    H157413   0.970   1.751  12.906  0.7196  0.2321  1.7444
11974TIP3    H257414   0.991   1.602  12.884 -0.5841  0.3849 -1.0974
11975TIP3   OH257415   3.335   0.698   1.241 -0.3483  0.1182 -0.1213
11975TIP3    H157416   3.394   0.772   1.224 -0.5250  0.9339  2.3856
11975TIP3    H257417   3.386   0.641   1.299 -0.8883 -0.8075 -0.5488
11976TIP3   OH257418   2.970   0.793   0.244  0.2011  0.0001  0.0217
11976TIP3    H157419   3.063   0.775   0.259  0.1702 -0.0711  0.1318
11976TIP3    H257420   2.965   0.825   0.154  0.4534  0.9318  0.3287
11977TIP3   OH257421   1.791   1.900   3.694 -0.8860  0.3622 -0.2835
11977TIP3    H157422   1.808   1.971   3.756  1.2036  1.0218 -1.5227
11977TIP3    H257423   1.705   1.921   3.657 -0.6097  1.8783 -0.1403
11978TIP3   OH257424   6.387   6.696   2.211 -0.6334  0.3355 -0.5387
11978TIP3    H157425   6.316   6.742   2.256 -0.5622  0.7788 -0.8743
11978TIP3    H257426   6.467   6.728   2.253 -0.6730 -2.0402  1.6198
11979TIP3   OH257427   6.601   3.766   0.549 -0.0407 -0.3834 -0.4972
11979TIP3    H157428   6.540   3.816   0.496 -0.0961  0.2800  0.1840
11979TIP3    H257429   6.546   3.705   0.599 -0.0174 -0.7722 -0.9419
11980TIP3   OH257430   1.409   2.639  12.675 -0.0141  0.2100  0.4003
11980TIP3    H157431   1.404   2.601  12.587  0.4861  0.2034  0.3719
11980TIP3    H257432   1.339   2.704  12.677  0.1859  0.4492 -0.1232
11981TIP3   OH257433   0.923   3.562  13.414 -0.0506 -0.4584  0.0323
11981TIP3    H157434   0.934   3.579  13.321 -0.1346  1.6451  0.3510
11981TIP3    H257435   0.946   3.470  13.425  0.0625 -0.7156 -2.0340
11982TIP3   OH257436   4.994   1.528   4.338  0.3983  0.4881 -0.5503
11982TIP3    H157437   4.991   1.500   4.429  1.5602  0.1118 -0.6130
11982TIP3    H257438   4.918   1.486   4.298  0.9335 -0.8949 -0.1638
11983TIP3   OH257439   3.162   2.459   4.080 -0.2140 -0.0117  0.3338
11983TIP3    H157440   3.149   2.382   4.025  0.8218  0.9192 -1.2860
11983TIP3    H257441   3.256   2.460   4.099 -0.3865  0.2774  1.2440
11984TIP3   OH257442   5.851   4.019   5.832  0.3289 -0.2016  0.4608
11984TIP3    H157443   5.937   4.004   5.792 -1.4243  0.2059 -4.1444
11984TIP3    H257444   5.834   4.112   5.816 -1.3812 -0.5324  0.1381
11985TIP3   OH257445   0.483   2.962   2.308  0.4029 -0.2898 -0.5607
11985TIP3    H157446   0.488   2.952   2.403 -0.6485 -0.1960 -0.4874
11985TIP3    H257447   0.565   2.923   2.276  0.5146 -0.8364  0.3433
11986TIP3   OH257448   5.909   3.346   6.011  0.1737 -0.0706 -0.2071
11986TIP3    H157449   5.841   3.281   5.992  1.0281 -0.3390 -2.6547
11986TIP3    H257450   5.987   3.294   6.030 -0.1252  0.2433  2.2089
11987TIP3   OH257451   5.242   5.322   2.809  0.4388 -0.3076  0.1447
11987TIP3    H157452   5.274   5.411   2.824 -1.8436  0.3361  1.6874
11987TIP3    H257453   5.195   5.300   2.889  0.3344 -2.6519 -0.5024
11988TIP3   OH257454   5.642   1.395   3.028  0.1678 -0.0557  0.0207
11988TIP3    H157455   5.631   1.323   2.965  0.5395 -0.7134  0.6887
11988TIP3    H257456   5.563   1.448   3.018  0.5095  0.2286 -1.4557
11989TIP3   OH257457   6.354   4.412  16.543 -0.6878  0.4064  0.2329
11989TIP3    H157458   6.382   4.458  16.623 -0.5198 -1.3845  1.2607
11989TIP3    H257459   6.426   4.351  16.525 -0.8517  0.6058 -1.1546
11990TIP3   OH257460   1.398   5.347  10.662 -0.1871 -0.4615  0.2216
11990TIP3    H157461   1.420   5.434  10.629  0.9477 -0.9628 -0.4182
11990TIP3    H257462   1.343   5.308  10.594 -0.2437 -0.4358  0.2533
11991TIP3   OH257463   3.716   0.648  14.672 -0.5230 -0.1824 -0.0398
11991TIP3    H157464   3.643   0.589  14.653  0.6347 -1.8338  0.3536
11991TIP3    H257465   3.682   0.709  14.737 -1.2633 -1.5933  0.9435
11992TIP3   OH257466   4.925   5.762   4.030 -0.1334  0.6559  0.0114
11992TIP3    H157467   4.905   5.675   3.994 -0.4734  1.2048 -1.1641
11992TIP3    H257468   4.912   5.752   4.124 -1.3166 -0.2594 -0.2203
11993TIP3   OH257469   6.800   0.097   1.412  0.2037  0.3947 -0.1126
11993TIP3    H157470   6.770   0.067   1.325  1.5726  2.1708 -1.2563
11993TIP3    H257471   6.873   0.039   1.433  2.8960  2.7344 -2.3514
11994TIP3   OH257472   2.457   1.035  16.729  0.5695  0.1003 -0.7850
11994TIP3    H157473   2.496   1.080  16.653  2.3170  0.1296  0.0690
11994TIP3    H257474   2.525   1.041  16.797 -0.1941 -1.5837  0.1802
11995TIP3   OH257475   3.396   5.159   0.415 -0.1018 -0.2676 -0.7735
11995TIP3    H157476   3.421   5.071   0.441 -1.3229 -0.6775 -0.9010
11995TIP3    H257477   3.302   5.152   0.395 -0.3830  1.2101 -0.1080
11996TIP3   OH257478   6.015   2.434   4.195  0.1919 -0.0708  0.0765
11996TIP3    H157479   5.929   2.450   4.157  0.1805  0.8872  0.4890
11996TIP3    H257480   6.046   2.520   4.222  1.0414 -0.4821  0.4496
11997TIP3   OH257481   3.017   3.868  15.496  0.1061 -0.5355  0.3467
11997TIP3    H157482   3.087   3.857  15.560 -0.1032 -0.6789  0.5538
11997TIP3    H257483   3.053   3.927  15.430  1.4927 -2.8677 -1.0979
11998TIP3   OH257484   4.498   2.971  14.864  0.1318 -0.0480  0.0223
11998TIP3    H157485   4.508   2.929  14.779 -2.7011 -0.2884 -0.2960
11998TIP3    H257486   4.578   2.950  14.911  0.8862 -1.6671 -1.8457
11999TIP3   OH257487   0.750   4.820  15.248  0.2781  0.7785  0.7835
11999TIP3    H157488   0.820   4.823  15.183 -0.1334 -0.6839  0.2339
11999TIP3    H257489   0.702   4.902  15.236 -0.5429  0.0168 -1.6347
12000TIP3   OH257490   0.536   3.350  14.481  0.3742  0.3270  0.4177
12000TIP3    H157491   0.617   3.387  14.447  2.2142 -2.4429  1.3979
12000TIP3    H257492   0.518   3.401  14.560  1.7569  0.3864  0.7320
12001TIP3   OH257493   4.877   2.545   6.626 -0.1524  0.0439 -0.2369
12001TIP3    H157494   4.816   2.551   6.700 -0.9235 -1.2577 -0.7339
12001TIP3    H257495   4.823   2.563   6.549 -0.2677 -2.4777 -0.8154
12002TIP3   OH257496   1.365   4.856  11.692 -0.0721 -0.0915  0.1455
12002TIP3    H157497   1.310   4.849  11.770 -0.3458 -1.1767 -0.1351
12002TIP3    H257498   1.367   4.768  11.656  2.0760 -0.1580  0.2880
12003TIP3   OH257499   6.643   6.648   0.759  0.3363 -0.2289 -0.1285
12003TIP3    H157500   6.649   6.740   0.786  0.6311 -0.4868  0.7427
12003TIP3    H257501   6.550   6.629   0.758  0.3083 -0.5524  2.0762
12004TIP3   OH257502   5.047   1.877   5.083 -0.3066 -0.3326  0.1395
12004TIP3    H157503   5.100   1.833   5.149  1.2557  0.1858 -0.7165
12004TIP3    H257504   5.107   1.939   5.041 -2.1591  1.9998  0.6801
12005TIP3   OH257505   1.853   5.126  16.804  0.5966 -0.1279 -0.3531
12005TIP3    H157506   1.897   5.132  16.719  0.5038 -1.5178 -0.5196
12005TIP3    H257507   1.923   5.143  16.868  0.9707 -0.4620 -0.6681
12006TIP3   OH257508   0.502   0.659  14.968  0.1949 -0.2368 -0.0286
12006TIP3    H157509   0.533   0.749  14.960 -0.2306 -0.0653  0.2109
12006TIP3    H257510   0.435   0.663  15.036  0.9467 -0.9270  0.7830
12007TIP3   OH257511   2.967   5.892  12.786  0.0930 -0.1403 -0.1713
12007TIP3    H157512   2.963   5.796  12.780 -0.6472 -0.0270 -2.4768
12007TIP3    H257513   3.053   5.914  12.751  0.2579  0.0432  0.3458
12008TIP3   OH257514   3.181   4.413   5.080  0.3134 -0.2432  0.3854
12008TIP3    H157515   3.177   4.508   5.080  0.7608 -0.2192 -0.1236
12008TIP3    H257516   3.175   4.388   5.172 -1.7196  0.1807  0.4242
12009TIP3   OH257517   1.837   6.498  15.974 -0.3079 -0.5554 -0.4127
12009TIP3    H157518   1.829   6.568  16.039 -0.0037  0.3667 -1.3422
12009TIP3    H257519   1.751   6.493  15.932 -0.1141 -0.2000 -0.8668
12010TIP3   OH257520   5.194   2.084   5.888  0.1482 -0.6640  0.2342
12010TIP3    H157521   5.230   2.002   5.922 -0.6532 -0.9580  0.4177
12010TIP3    H257522   5.165   2.132   5.966  1.6088  0.3072  0.2150
12011TIP3   OH257523   0.424   1.269   3.315  0.0497  0.5795 -0.0140
12011TIP3    H157524   0.363   1.234   3.381 -0.8086  1.5572 -0.2658
12011TIP3    H257525   0.481   1.195   3.294 -0.6533 -0.1872  0.6868
12012TIP3   OH257526   1.285   3.085   2.261 -0.2627  0.2149  0.2292
12012TIP3    H157527   1.341   3.053   2.190  0.0923 -1.0362  1.0469
12012TIP3    H257528   1.223   3.144   2.218  0.3646 -0.0027 -1.0139
12013TIP3   OH257529   0.490   6.737   0.008  0.2583  0.1533  0.4000
12013TIP3    H157530   0.571   6.730   0.058 -0.5522 -0.4669  1.6710
12013TIP3    H257531   0.465   6.829   0.014  1.3341  0.5562 -0.8073
12014TIP3   OH257532   6.711   3.324   4.173  0.2083 -0.1513  0.0517
12014TIP3    H157533   6.627   3.353   4.207 -0.8487 -1.6427 -1.1698
12014TIP3    H257534   6.693   3.239   4.133  1.7405  0.5839 -2.4296
12015TIP3   OH257535   4.175   2.152   3.730  0.1729  0.1818 -0.2885
12015TIP3    H157536   4.122   2.148   3.810 -1.7489 -1.1336 -1.5402
12015TIP3    H257537   4.116   2.188   3.664  1.6150  0.9171 -1.2294
12016TIP3   OH257538   4.072   6.428   6.284  0.4854  0.0584 -0.6385
12016TIP3    H157539   4.035   6.360   6.339  1.3364  0.6685  0.7557
12016TIP3    H257540   3.997   6.480   6.256 -0.0414 -0.7314 -0.7043
12017TIP3   OH257541   3.988   4.820  12.368 -0.3617  0.4386 -0.0015
12017TIP3    H157542   4.045   4.753  12.407  0.1654  0.9977  0.2001
12017TIP3    H257543   4.036   4.850  12.290 -1.6130 -0.9927 -1.3872
12018TIP3   OH257544   0.102   2.429   6.131  0.1346  0.0086  0.4467
12018TIP3    H157545   0.053   2.511   6.135  0.9515  0.5020  0.6761
12018TIP3    H257546   0.074   2.380   6.208  0.4377  0.5464  0.9070
12019TIP3   OH257547   2.742   3.090   3.321 -0.0427 -0.3965  0.3848
12019TIP3    H157548   2.787   3.103   3.237  1.0311 -1.3622  0.7906
12019TIP3    H257549   2.803   3.124   3.386 -0.3374 -0.7944  0.8739
12020TIP3   OH257550   1.867   1.300  17.297  0.2544 -0.2569 -0.5495
12020TIP3    H157551   1.924   1.367  17.257  0.3667  0.2987  0.4915
12020TIP3    H257552   1.898   1.295  17.387 -0.6706 -0.7294 -0.2566
12021TIP3   OH257553   1.742   3.771  12.391  0.3483  0.0547 -0.2506
12021TIP3    H157554   1.666   3.798  12.339  1.0747  2.5860 -0.1408
12021TIP3    H257555   1.817   3.783  12.332  0.8280 -0.8888  0.1439
12022TIP3   OH257556   3.987   3.475  11.727 -0.4651 -0.3839 -0.1742
12022TIP3    H157557   4.047   3.542  11.694 -0.0157 -1.4520 -1.6213
12022TIP3    H257558   3.930   3.454  11.654 -0.2892 -1.8956  0.0685
12023TIP3   OH257559   3.787   6.304   3.340  1.0044  0.2763  0.5915
12023TIP3    H157560   3.762   6.393   3.313 -0.1785 -0.1867  0.0545
12023TIP3    H257561   3.878   6.294   3.312  0.2454  0.2764 -2.1853
12024TIP3   OH257562   2.935   3.565   0.843 -0.7089  0.0618 -0.1463
12024TIP3    H157563   2.855   3.533   0.802  0.0846 -0.1566 -1.6157
12024TIP3    H257564   2.908   3.642   0.893 -1.7308  0.3916 -1.1731
12025TIP3   OH257565   4.738   6.104  13.834  0.0581 -0.3579 -0.4713
12025TIP3    H157566   4.770   6.182  13.789 -1.9805  2.2765  2.1778
12025TIP3    H257567   4.814   6.047  13.843  1.5248  1.0804 -2.9423
12026TIP3   OH257568   1.740   5.928  15.563  0.3986 -0.0395 -0.4016
12026TIP3    H157569   1.770   6.000  15.508  0.9291 -0.1734 -0.2993
12026TIP3    H257570   1.793   5.935  15.643  0.8900 -0.8824 -0.6302
12027TIP3   OH257571   3.807   3.822  13.619 -0.7471  0.0531 -0.1116
12027TIP3    H157572   3.787   3.806  13.712 -0.5083  0.3494 -0.0060
12027TIP3    H257573   3.825   3.736  13.583  0.1050  0.0267  0.3452
12028TIP3   OH257574   1.443   3.355   2.852 -0.4259  0.2685  0.1792
12028TIP3    H157575   1.383   3.398   2.791  0.6320  0.8434 -0.4964
12028TIP3    H257576   1.481   3.283   2.802  0.8528  1.0714 -0.0658
12029TIP3   OH257577   2.725   4.662   4.888 -0.0262  0.3601 -0.1776
12029TIP3    H157578   2.758   4.645   4.800 -1.8891 -2.0907 -0.5287
12029TIP3    H257579   2.750   4.585   4.939 -2.8886 -0.5010  0.1351
12030TIP3   OH257580   0.096   2.028  16.850 -0.7795  0.3703 -0.1461
12030TIP3    H157581   0.175   1.990  16.890 -2.0094 -1.3723  0.7493
12030TIP3    H257582   0.088   1.984  16.766 -1.4576 -0.4365  0.3151
12031TIP3   OH257583   5.396   5.884   1.856 -0.3804 -0.0859 -0.1491
12031TIP3    H157584   5.342   5.858   1.930 -0.3392 -1.2205 -0.4905
12031TIP3    H257585   5.348   5.955   1.814 -1.7188 -1.1839 -0.5524
12032TIP3   OH257586   3.235   5.914  13.221 -0.2715  0.1283 -0.0614
12032TIP3    H157587   3.263   5.829  13.188  0.7712  0.3104  0.3034
12032TIP3    H257588   3.163   5.895  13.281 -0.1653 -0.4755 -0.1200
12033TIP3   OH257589   1.484   0.215  16.773 -0.1081  0.1788  0.1336
12033TIP3    H157590   1.421   0.169  16.718  0.4381 -0.6518  0.1852
12033TIP3    H257591   1.489   0.162  16.853 -1.4340  1.7506  1.3143
12034TIP3   OH257592   0.011   3.752  13.605  0.3928 -0.3800  0.0565
12034TIP3    H157593   0.009   3.724  13.514  4.5109  0.0458 -0.3357
12034TIP3    H257594  -0.040   3.833  13.606  0.0804 -0.5079 -1.7902
12035TIP3   OH257595   0.101   6.801  16.770 -0.4601  0.0564  0.1749
12035TIP3    H157596   0.116   6.732  16.835  1.9586  1.6867  1.4753
12035TIP3    H257597   0.124   6.760  16.687 -1.1666 -1.3087  0.6145
12036TIP3   OH257598   1.107   5.989   3.583 -0.6940  0.5073 -0.4463
12036TIP3    H157599   1.116   6.048   3.658  0.4726  0.6639 -0.6831
12036TIP3    H257600   1.083   6.047   3.511 -0.6193  0.5364 -0.4481
12037TIP3   OH257601   0.814   2.271  12.125 -0.3835  0.4763 -0.0433
12037TIP3    H157602   0.813   2.367  12.116  0.2773  0.4943  0.0658
12037TIP3    H257603   0.721   2.247  12.123 -0.7874  1.4007  2.8863
12038TIP3   OH257604   4.288   2.861  11.846  0.2405  0.3997 -0.1999
12038TIP3    H157605   4.205   2.888  11.886  0.6131  1.4915 -0.1297
12038TIP3    H257606   4.277   2.881  11.753 -0.9095 -2.8368 -0.8829
12039TIP3   OH257607   2.901   2.629   5.937 -0.1663 -0.3443  0.2074
12039TIP3    H157608   2.846   2.613   5.861  0.1745 -0.4086 -0.0261
12039TIP3    H257609   2.840   2.661   6.004 -0.1119  2.0782 -0.8117
12040TIP3   OH257610   4.158   4.682  15.075  0.3124 -0.4582 -0.3551
12040TIP3    H157611   4.246   4.699  15.041  0.7081 -1.7492 -0.0463
12040TIP3    H257612   4.167   4.688  15.170 -0.0241 -0.2114 -0.3381
12041TIP3   OH257613   3.999   2.505  13.628  0.0702 -0.5519 -0.2705
12041TIP3    H157614   4.023   2.418  13.597 -0.2189 -1.2785  1.3951
12041TIP3    H257615   4.020   2.503  13.722 -0.1679  1.0906 -0.1550
12042TIP3   OH257616   1.755   6.553  11.917 -0.1843  0.0842 -0.4494
12042TIP3    H157617   1.712   6.496  11.854 -2.8438  0.8054  0.5744
12042TIP3    H257618   1.707   6.539  11.999  2.2634  0.1906  1.1164
12043TIP3   OH257619   2.569   5.768   1.650 -0.1696  0.1496 -0.2481
12043TIP3    H157620   2.623   5.694   1.622  0.6127 -0.1098  1.7686
12043TIP3    H257621   2.628   5.821   1.704 -1.3757  0.9697  0.2955
12044TIP3   OH257622   2.225   1.610   5.793  1.1084  0.2913  0.5472
12044TIP3    H157623   2.295   1.560   5.750 -0.0447 -0.7543 -0.2063
12044TIP3    H257624   2.147   1.555   5.782  0.1328  1.4976  1.2100
12045TIP3   OH257625   2.416   2.341  13.246 -0.3566  0.1625 -0.3775
12045TIP3    H157626   2.498   2.386  13.271  0.9529 -2.4080  0.3123
12045TIP3    H257627   2.395   2.287  13.322 -1.5578 -0.7992 -1.3581
12046TIP3   OH257628   6.735   3.821  14.212 -0.2409  0.0548  0.0643
12046TIP3    H157629   6.794   3.752  14.240  1.1928  1.4198  0.5539
12046TIP3    H257630   6.665   3.821  14.278 -1.4666 -2.2879 -1.1139
12047TIP3   OH257631   6.619   1.618  15.577  0.1828 -0.7656 -0.2124
12047TIP3    H157632   6.657   1.604  15.490 -1.6580  1.3899 -1.4645
12047TIP3    H257633   6.619   1.713  15.588 -0.2796 -0.9731  1.8541
12048TIP3   OH257634   6.347   5.354  14.512  0.6844 -0.4089 -0.4261
12048TIP3    H157635   6.432   5.380  14.476 -0.0508 -1.3380 -3.0823
12048TIP3    H257636   6.358   5.261  14.535  1.2101  0.2193  2.1941
12049TIP3   OH257637   3.379   4.634  13.337 -0.5237  0.3039 -0.3543
12049TIP3    H157638   3.371   4.545  13.370 -0.9063  1.3075  2.5139
12049TIP3    H257639   3.365   4.626  13.243 -1.9218 -2.4808 -0.0110
12050TIP3   OH257640   1.688   5.216   0.474  0.1968 -0.1731 -0.1408
12050TIP3    H157641   1.774   5.175   0.459  1.2769  0.9425  2.2823
12050TIP3    H257642   1.679   5.215   0.570 -3.3252 -1.7612 -0.3458
12051TIP3   OH257643   3.537   0.763   3.883 -0.2543  0.0030 -1.1693
12051TIP3    H157644   3.549   0.759   3.789  1.4904  0.1264 -0.9844
12051TIP3    H257645   3.484   0.686   3.904  1.0175 -1.1636 -2.0448
12052TIP3   OH257646   4.347   4.662  12.283  0.2337  0.0106  0.5079
12052TIP3    H157647   4.420   4.601  12.289 -0.6979 -1.3613 -1.3133
12052TIP3    H257648   4.292   4.641  12.358  0.7097 -0.2930  0.7787
12053TIP3   OH257649   4.678   0.196   0.222  0.5761 -0.8294  0.0481
12053TIP3    H157650   4.720   0.110   0.213  0.0199 -0.9636 -1.7718
12053TIP3    H257651   4.588   0.176   0.249  0.0953 -0.9532 -1.5131
12054TIP3   OH257652   4.852   4.452   3.677 -0.4745 -0.0489  0.3761
12054TIP3    H157653   4.944   4.443   3.653 -0.4993 -0.2385  0.3490
12054TIP3    H257654   4.805   4.449   3.594 -0.6410 -1.7460  0.4962
12055TIP3   OH257655   3.421   1.906  14.876 -0.3728 -0.1354  0.1861
12055TIP3    H157656   3.386   1.964  14.942 -0.4765 -1.4002  1.2772
12055TIP3    H257657   3.361   1.831  14.874  0.0592 -0.4809 -0.7739
12056TIP3   OH257658   0.037   0.245  16.680  0.2276  0.3948 -0.1511
12056TIP3    H157659   0.034   0.161  16.633  3.9263  0.7090 -1.2632
12056TIP3    H257660   0.031   0.221  16.773 -0.2386 -0.9348 -0.5062
12057TIP3   OH257661   3.168   1.759   1.785  0.2025 -0.3389 -0.1465
12057TIP3    H157662   3.101   1.713   1.835 -0.7800  0.3470 -0.7903
12057TIP3    H257663   3.145   1.851   1.792  1.0466 -0.0895 -0.4365
12058TIP3   OH257664   1.562   1.844  13.473 -0.2824 -0.0255  0.1025
12058TIP3    H157665   1.637   1.856  13.415 -1.7119 -1.3752 -2.1834
12058TIP3    H257666   1.508   1.922  13.458  0.6047  0.9624  1.7726
12059TIP3   OH257667   5.972   0.015   2.597 -0.0078 -0.0763 -0.0534
12059TIP3    H157668   5.937  -0.018   2.679  1.2490  0.5085  0.7465
12059TIP3    H257669   6.059   0.048   2.619  0.5889 -0.4026 -1.7230
12060TIP3   OH257670   4.421   6.474  13.721  0.0825  0.1571  0.2527
12060TIP3    H157671   4.475   6.458  13.644 -0.4737 -0.3599 -0.0395
12060TIP3    H257672   4.437   6.399  13.778  2.0162  1.4784  1.5623
12061TIP3   OH257673   0.022   4.028   0.666  0.1736 -0.2913  0.1018
12061TIP3    H157674  -0.068   4.005   0.644  0.1436  0.6768 -0.9171
12061TIP3    H257675   0.033   4.117   0.631  1.3961 -0.2344  0.5713
12062TIP3   OH257676   5.320   6.232  12.197 -0.6725 -0.5070  0.0326
12062TIP3    H157677   5.411   6.205  12.204 -0.5941 -0.1733  0.2948
12062TIP3    H257678   5.270   6.156  12.225 -0.5047 -1.0142 -1.0053
12063TIP3   OH257679   6.207   6.291   2.744  0.8315 -0.0366 -0.1505
12063TIP3    H157680   6.217   6.289   2.839 -0.4358 -0.1475 -0.0006
12063TIP3    H257681   6.155   6.370   2.728 -1.0027 -1.2685 -0.5170
12064TIP3   OH257682   0.574   1.098   1.864  0.6087  0.1291  0.0419
12064TIP3    H157683   0.580   1.188   1.896 -0.4363  0.5018 -0.7221
12064TIP3    H257684   0.609   1.044   1.934  1.2674  1.1367  0.5030
12065TIP3   OH257685   6.052   0.892   3.783 -0.6988 -0.4014  0.3160
12065TIP3    H157686   6.078   0.881   3.692 -3.4453  2.3841 -0.9731
12065TIP3    H257687   5.998   0.816   3.803 -1.1458 -0.3906 -0.8158
12066TIP3   OH257688   4.067   4.632  14.566  0.0373  0.6086  0.0256
12066TIP3    H157689   4.049   4.606  14.476  0.3532  0.6857 -0.0601
12066TIP3    H257690   4.019   4.569  14.619  1.1343 -0.4138 -0.1761
12067TIP3   OH257691   4.304   1.433  17.303  0.0171  0.1354  0.4282
12067TIP3    H157692   4.391   1.472  17.297 -0.7845  2.4649  2.2069
12067TIP3    H257693   4.317   1.354  17.357  0.8640  1.2448  1.9307
12068TIP3   OH257694   5.198   3.213  16.880 -0.2649  0.4778  0.4538
12068TIP3    H157695   5.251   3.146  16.922 -1.2974 -0.1420  0.7996
12068TIP3    H257696   5.112   3.206  16.922 -0.8269  0.9849 -0.5640
12069TIP3   OH257697   1.575   2.678  15.266  0.0753 -0.3357  0.1409
12069TIP3    H157698   1.624   2.725  15.199  0.6016  0.6930  1.2020
12069TIP3    H257699   1.639   2.663  15.336 -0.3413 -1.7876  0.2547
12070TIP3   OH257700   5.725   5.558  11.346  0.0189 -0.2268 -0.1275
12070TIP3    H157701   5.703   5.648  11.320  1.4607  0.5670  1.1681
12070TIP3    H257702   5.660   5.535  11.412 -0.6799 -0.3395 -0.8568
12071TIP3   OH257703   1.447   3.209   0.813 -0.2123  0.5761 -0.4431
12071TIP3    H157704   1.369   3.264   0.822 -0.5042  0.1831 -0.5397
12071TIP3    H257705   1.416   3.130   0.770  0.1221  0.1660  0.0481
12072TIP3   OH257706   4.152   2.602  12.999 -0.4037 -0.0096  0.0821
12072TIP3    H157707   4.230   2.646  13.031  0.6008 -0.4385 -1.6613
12072TIP3    H257708   4.184   2.520  12.961 -1.7142 -0.3078 -0.4440
12073TIP3   OH257709   0.673   1.771  15.317  0.2727 -0.2490  0.6920
12073TIP3    H157710   0.590   1.777  15.270  0.4290  3.1153  0.6004
12073TIP3    H257711   0.709   1.687  15.292 -3.0881 -1.8715  0.7778
12074TIP3   OH257712   3.820   0.790   4.017  0.0044  0.1969  0.9845
12074TIP3    H157713   3.756   0.798   3.946  1.0846  0.2551 -0.0231
12074TIP3    H257714   3.841   0.880   4.040  1.5012  0.2484 -0.3926
12075TIP3   OH257715   1.735   5.944  12.229 -0.8577  0.3140  0.9178
12075TIP3    H157716   1.729   6.010  12.160  0.8323 -0.5070 -0.0799
12075TIP3    H257717   1.643   5.923  12.249 -1.6155 -1.3722 -3.0900
12076TIP3   OH257718   0.100   4.945  13.426 -0.0393 -0.2292  0.2884
12076TIP3    H157719   0.091   4.986  13.512 -1.9200 -0.5754  0.3106
12076TIP3    H257720   0.182   4.978  13.392 -0.4618  1.9166  1.1813
12077TIP3   OH257721   5.832   4.700  15.306 -0.3195 -0.3533 -0.4369
12077TIP3    H157722   5.795   4.614  15.285 -1.2516 -0.4120  1.2164
12077TIP3    H257723   5.773   4.763  15.266 -0.5149 -0.4746 -0.3400
12078TIP3   OH257724   2.347   4.113   4.643  0.2855  0.0377  0.0205
12078TIP3    H157725   2.296   4.048   4.691  1.0006  0.0144  0.7613
12078TIP3    H257726   2.319   4.197   4.680  0.5848  0.0431  0.2328
12079TIP3   OH257727   6.064   2.571  14.615  0.2415  0.0760  0.0138
12079TIP3    H157728   6.033   2.505  14.677  3.0439  0.4061  1.9607
12079TIP3    H257729   6.128   2.526  14.561  1.7727  0.9575  0.9941
12080TIP3   OH257730   6.104   1.682   5.913  0.2312 -0.0871  0.0952
12080TIP3    H157731   6.103   1.690   5.817 -1.5074  2.5916  0.2305
12080TIP3    H257732   6.153   1.760   5.942 -0.2169 -0.2835  1.4110
12081TIP3   OH257733   2.570   5.997   3.247 -0.5996  0.0574 -0.1636
12081TIP3    H157734   2.547   5.918   3.295 -0.7463  0.1338 -0.1082
12081TIP3    H257735   2.648   5.973   3.197  0.1395  0.2478  0.8629
12082TIP3   OH257736   3.551   5.220  12.250 -0.1123 -0.2149  0.3442
12082TIP3    H157737   3.544   5.210  12.155  2.2679  0.7223 -0.0187
12082TIP3    H257738   3.473   5.178  12.285 -1.5872  0.2931 -2.0696
12083TIP3   OH257739   6.716   6.656  13.069  0.2170 -0.6432  0.5333
12083TIP3    H157740   6.800   6.638  13.027 -0.0912  1.5860 -1.2207
12083TIP3    H257741   6.730   6.635  13.161  2.8703  0.1443  0.3738
12084TIP3   OH257742   5.699   1.134  11.221  1.1568  0.1036  0.0478
12084TIP3    H157743   5.745   1.079  11.157  1.1337  1.8814 -1.5865
12084TIP3    H257744   5.608   1.107  11.214  1.4938 -1.6996  1.5066
12085TIP3   OH257745   1.651   6.506  15.281  0.0213 -0.8095 -0.1376
12085TIP3    H157746   1.689   6.542  15.361 -0.9990 -0.6651  0.3013
12085TIP3    H257747   1.670   6.412  15.286  1.3927 -0.5716 -0.5519
12086TIP3   OH257748   4.954   1.325  17.069  1.0429 -0.9292 -0.5178
12086TIP3    H157749   5.039   1.362  17.093  0.3898  0.1706  0.1685
12086TIP3    H257750   4.963   1.231  17.086  2.5313 -1.0356 -1.6975
12087TIP3   OH257751   4.997   0.275   0.140 -0.2403  0.1604 -1.1320
12087TIP3    H157752   4.932   0.315   0.083 -0.7555 -0.3325 -0.9002
12087TIP3    H257753   4.969   0.297   0.229 -0.5918 -0.7749 -0.9938
12088TIP3   OH257754   1.175   3.885  13.999  0.4249  0.2619  0.0372
12088TIP3    H157755   1.144   3.916  13.914 -0.7192  1.1193  0.7283
12088TIP3    H257756   1.270   3.882  13.991  0.2830 -0.9335 -1.6712
12089TIP3   OH257757   4.935   4.259  14.268 -0.2910 -0.7929  0.4849
12089TIP3    H157758   4.849   4.265  14.228 -1.3937 -1.2784  2.6439
12089TIP3    H257759   4.971   4.348  14.263 -0.6327 -0.7174 -0.9606
12090TIP3   OH257760   0.865   0.607   6.280 -0.4517  0.7612  0.3387
12090TIP3    H157761   0.942   0.601   6.336 -2.5725  0.2682  3.4897
12090TIP3    H257762   0.854   0.518   6.245 -0.2256  0.5093  0.8802
12091TIP3   OH257763   5.416   5.173   3.311 -0.4019  0.1817  0.1631
12091TIP3    H157764   5.342   5.113   3.308  0.4039 -0.8398  0.1054
12091TIP3    H257765   5.398   5.230   3.386 -1.0653 -0.2727  0.3600
12092TIP3   OH257766   6.260   2.241  13.096 -0.6771  0.1690 -0.0131
12092TIP3    H157767   6.209   2.267  13.020  0.3135 -0.5162 -0.9351
12092TIP3    H257768   6.349   2.271  13.078 -0.0810 -1.3877  0.1022
12093TIP3   OH257769   5.329   1.504   1.154 -0.1433  0.1293  0.1842
12093TIP3    H157770   5.338   1.599   1.152 -1.0932  0.3990  3.2960
12093TIP3    H257771   5.235   1.489   1.139 -0.4087 -0.0998  1.8816
12094TIP3   OH257772   1.021   5.342   5.573 -0.0072 -0.1610 -0.5721
12094TIP3    H157773   1.042   5.266   5.628  0.7942  1.3952  1.3844
12094TIP3    H257774   0.925   5.345   5.572 -0.0835 -1.7770 -1.5698
12095TIP3   OH257775   1.305   4.260  11.729  0.2895 -0.2046 -0.5608
12095TIP3    H157776   1.295   4.319  11.805  2.5219 -1.2036  0.6023
12095TIP3    H257777   1.303   4.319  11.653 -0.8156  0.9607  0.3123
12096TIP3   OH257778   6.685   2.058   0.912  0.6615  0.2932  0.0136
12096TIP3    H157779   6.765   2.053   0.859 -1.1443 -1.3256 -2.8083
12096TIP3    H257780   6.662   2.151   0.911  0.3146  0.2871 -2.8850
12097TIP3   OH257781   4.171   1.811   5.494  0.0246  0.2937 -0.1923
12097TIP3    H157782   4.187   1.893   5.541  1.7769  0.5293 -1.1353
12097TIP3    H257783   4.076   1.798   5.501 -0.1118  1.7166  1.0704
12098TIP3   OH257784   0.437   5.641  13.432 -0.2643  0.0718  0.1458
12098TIP3    H157785   0.357   5.628  13.482 -0.4428  0.0396 -0.1423
12098TIP3    H257786   0.500   5.677  13.494  0.5903 -3.0896  1.2693
12099TIP3   OH257787   2.435   2.008  14.511 -0.3350  0.5821 -0.4025
12099TIP3    H157788   2.358   2.060  14.490  0.0443  1.1729 -0.3492
12099TIP3    H257789   2.405   1.945  14.577 -0.4231  1.8290  0.7807
12100TIP3   OH257790   3.086   5.012   4.622  0.0041 -0.4627 -0.3539
12100TIP3    H157791   3.119   5.088   4.573 -0.7279 -0.4107 -0.7875
12100TIP3    H257792   2.994   5.034   4.639  0.3615 -0.2435  1.5186
12101TIP3   OH257793   2.439   0.014  11.745 -0.0670  0.1232  0.5015
12101TIP3    H157794   2.453   0.030  11.838  0.2632  0.4742  0.3924
12101TIP3    H257795   2.454   0.099  11.703 -0.1864 -0.0395  0.1263
12102TIP3   OH257796   1.711   6.294  13.919 -0.2504 -0.4648 -0.2623
12102TIP3    H157797   1.774   6.341  13.865 -1.0832  0.3455 -0.5609
12102TIP3    H257798   1.634   6.283  13.862  0.3947 -3.5323 -0.7365
12103TIP3   OH257799   1.877   4.394   4.892  0.0655  0.1802  0.0522
12103TIP3    H157800   1.941   4.454   4.930 -1.7459  1.1356  1.8003
12103TIP3    H257801   1.903   4.308   4.924 -0.1446  0.7028  1.7020
12104TIP3   OH257802   5.802   0.008  11.684 -0.0382  0.5175  0.1439
12104TIP3    H157803   5.864   0.063  11.638  0.0990  0.7220  0.5653
12104TIP3    H257804   5.802   0.042  11.774 -1.3371  1.0328 -0.0272
12105TIP3   OH257805   5.111   1.420  14.666 -0.6690  0.1122  0.3785
12105TIP3    H157806   5.091   1.370  14.587 -0.3467  0.8930 -0.2112
12105TIP3    H257807   5.028   1.429  14.711 -0.6712 -1.2475  0.6688
12106TIP3   OH257808   5.010   5.123  14.320  0.6320 -0.3284 -0.6456
12106TIP3    H157809   4.971   5.081  14.243  0.5017 -0.9958 -0.2260
12106TIP3    H257810   5.006   5.056  14.388 -0.5927  0.7198  0.3734
12107TIP3   OH257811   2.015   0.588  11.500  0.1339  0.0022 -0.1556
12107TIP3    H157812   1.920   0.599  11.488  0.0552  0.3883  0.7074
12107TIP3    H257813   2.027   0.494  11.513 -0.1744 -0.0119  0.0424
12108TIP3   OH257814   1.734   3.459  16.044  0.4931 -0.1562 -0.3664
12108TIP3    H157815   1.711   3.425  15.957  0.6954 -0.5173 -0.2795
12108TIP3    H257816   1.672   3.531  16.058 -2.3032 -2.5410  0.8439
12109TIP3   OH257817   3.108   5.238   4.456  0.1140  0.3718  0.3380
12109TIP3    H157818   3.025   5.270   4.422  0.7613  0.7859 -0.9239
12109TIP3    H257819   3.173   5.266   4.391  0.7906 -3.1100 -0.6719
12110TIP3   OH257820   6.581   2.714   0.287 -0.0264  0.3197  0.0206
12110TIP3    H157821   6.649   2.778   0.267  1.6739 -0.9121  1.5745
12110TIP3    H257822   6.534   2.752   0.362  0.9268 -0.1574  0.8869
12111TIP3   OH257823   6.378   0.298   0.554 -0.4721  0.2075 -0.1226
12111TIP3    H157824   6.413   0.209   0.560 -0.0377  0.4890  2.6791
12111TIP3    H257825   6.284   0.288   0.568 -0.4184  0.1834  0.2285
12112TIP3   OH257826   6.330   6.685   0.692 -0.0006  0.0083 -0.5262
12112TIP3    H157827   6.396   6.733   0.641  1.6085  0.0175  1.4421
12112TIP3    H257828   6.313   6.741   0.768  0.2671 -1.5083  0.6940
12113TIP3   OH257829   0.865   3.648  16.619 -0.1305  0.0419 -0.0619
12113TIP3    H157830   0.940   3.635  16.678  1.4403  0.1370 -1.9461
12113TIP3    H257831   0.886   3.595  16.542 -0.8621  1.8972 -1.6026
12114TIP3   OH257832   2.629   3.153  15.898  0.3455 -0.2082 -0.0297
12114TIP3    H157833   2.719   3.167  15.868  0.1947  0.1658 -0.3128
12114TIP3    H257834   2.594   3.089  15.836 -0.0755  0.8237 -0.8845
12115TIP3   OH257835   2.825   6.761  15.483  0.2081 -0.4919  0.7576
12115TIP3    H157836   2.863   6.764  15.396 -1.8313 -0.1833 -0.1922
12115TIP3    H257837   2.840   6.672  15.514  2.9255  0.0128  1.0898
12116TIP3   OH257838   4.831   6.074   1.238  0.2955 -0.9991 -0.1102
12116TIP3    H157839   4.761   6.058   1.176 -0.1435  1.2652 -0.2902
12116TIP3    H257840   4.910   6.082   1.184 -0.0327  0.6418 -0.3898
12117TIP3   OH257841   0.116   2.288  12.102  0.1012 -0.3375 -0.3451
12117TIP3    H157842   0.080   2.340  12.030  0.4917  0.7593  0.2260
12117TIP3    H257843   0.042   2.279  12.163  0.0276 -0.4561 -0.4532
12118TIP3   OH257844   1.278   4.168   4.358 -0.0943 -0.2918  0.1354
12118TIP3    H157845   1.291   4.218   4.278  0.2151 -0.1748  0.2558
12118TIP3    H257846   1.200   4.206   4.398 -0.1756 -0.2676 -0.0476
12119TIP3   OH257847   4.243   5.285   4.190 -0.6699  0.0099  0.3957
12119TIP3    H157848   4.292   5.326   4.119  0.0975  0.8434  1.3825
12119TIP3    H257849   4.300   5.215   4.221 -0.3285  0.6182  1.1718
12120TIP3   OH257850   0.587   4.335  12.056 -0.2508  0.4621 -0.2454
12120TIP3    H157851   0.656   4.288  12.103  0.9067  2.0594 -0.2357
12120TIP3    H257852   0.588   4.297  11.968  1.0039  0.7668 -0.3870
12121TIP3   OH257853   0.917   3.768   2.454 -0.7222  0.1600  0.1003
12121TIP3    H157854   0.833   3.755   2.500 -0.4108 -0.0510  0.6180
12121TIP3    H257855   0.966   3.688   2.473 -0.7212 -0.0889 -0.8998
12122TIP3   OH257856   0.491   5.989   4.512  0.8369 -0.3202 -0.2795
12122TIP3    H157857   0.474   6.037   4.593  0.3863  0.8535 -1.0585
12122TIP3    H257858   0.513   6.056   4.448 -1.3392 -0.9597 -1.8085
12123TIP3   OH257859   3.341   0.337  11.436  0.5459  0.2030 -0.4245
12123TIP3    H157860   3.395   0.287  11.498  2.2826  1.7283 -0.6256
12123TIP3    H257861   3.258   0.289  11.433  2.6304 -3.8300 -2.0749
12124TIP3   OH257862   3.248   3.515   0.568  0.0782  0.4081 -0.3309
12124TIP3    H157863   3.229   3.422   0.556 -2.4157  0.9387 -0.9242
12124TIP3    H257864   3.325   3.531   0.513  0.7177 -1.3249  0.0003
12125TIP3   OH257865   5.154   6.660   4.060 -0.2643  0.3672 -0.2516
12125TIP3    H157866   5.081   6.707   4.098 -0.0733 -1.0999  2.1148
12125TIP3    H257867   5.226   6.672   4.122  0.3689 -1.3004 -0.6027
12126TIP3   OH257868   4.923   0.675  13.488  0.3270 -0.1287  0.3767
12126TIP3    H157869   4.891   0.591  13.453  0.3571  0.4288 -1.0588
12126TIP3    H257870   4.847   0.733  13.484  0.5720  0.1935  0.3836
12127TIP3   OH257871   2.006   2.736   1.976  0.2449  0.2954 -0.4588
12127TIP3    H157872   1.931   2.700   1.929  1.7142  0.4408 -3.1219
12127TIP3    H257873   1.968   2.789   2.045 -2.0723 -4.2474  2.2641
12128TIP3   OH257874   1.096   3.894  13.220  0.0137 -0.2147 -0.0451
12128TIP3    H157875   1.118   3.879  13.312 -0.2391  1.3635  0.2972
12128TIP3    H257876   1.149   3.969  13.194 -1.0202  0.2968 -0.7484
12129TIP3   OH257877   5.910   2.473  13.443 -0.5616  0.0542  0.3025
12129TIP3    H157878   5.830   2.505  13.402 -0.7972 -0.6422  0.2123
12129TIP3    H257879   5.882   2.400  13.498  0.4201 -2.6335 -2.4669
12130TIP3   OH257880   6.782   1.122   1.232  0.2755  0.5024 -0.2523
12130TIP3    H157881   6.837   1.201   1.239  1.5699 -0.3750 -0.1423
12130TIP3    H257882   6.840   1.051   1.261 -0.6369 -0.5815 -1.0534
12131TIP3   OH257883   2.464   5.780   0.625 -0.2862 -0.7465  0.1372
12131TIP3    H157884   2.380   5.770   0.669 -0.5299  0.0733 -0.1210
12131TIP3    H257885   2.441   5.794   0.533 -0.0483  2.1069  0.4129
12132TIP3   OH257886   6.501   1.511   5.692 -0.0881  0.3537  0.2165
12132TIP3    H157887   6.571   1.554   5.641 -0.0828  0.7531  0.5607
12132TIP3    H257888   6.536   1.506   5.781 -0.3903  0.2977  0.3312
12133TIP3   OH257889   5.216   0.479   4.153  0.2766 -0.2036 -0.3184
12133TIP3    H157890   5.216   0.386   4.132 -2.1332 -0.1444 -0.8492
12133TIP3    H257891   5.244   0.522   4.072 -0.3944 -0.3900 -0.6533
12134TIP3   OH257892   3.830   2.616  15.483  0.3738  0.0812 -0.1808
12134TIP3    H157893   3.878   2.695  15.508  0.8320 -0.8662  2.2489
12134TIP3    H257894   3.865   2.547  15.540 -1.9561 -1.2374 -0.1845
12135TIP3   OH257895   0.724   0.497   2.476  0.0506  0.2514  0.4723
12135TIP3    H157896   0.671   0.431   2.431 -1.5752  1.7845  0.0436
12135TIP3    H257897   0.755   0.453   2.555 -3.2889 -0.2848  1.6500
12136TIP3   OH257898   4.987   4.412  12.200 -0.3620 -0.1090  0.1491
12136TIP3    H157899   5.033   4.334  12.170  0.0400 -0.0447  0.5975
12136TIP3    H257900   4.966   4.395  12.292  1.7603  1.2203  0.9435
12137TIP3   OH257901   0.613   4.178   4.300 -0.2698  0.0313  0.7137
12137TIP3    H157902   0.636   4.271   4.295 -1.8986  0.4157 -0.5393
12137TIP3    H257903   0.686   4.133   4.258 -0.2152  0.9120 -0.1848
12138TIP3   OH257904   0.588   5.009  10.625 -0.8152 -0.1211  0.3296
12138TIP3    H157905   0.636   4.927  10.614 -3.2841 -1.7530  1.0766
12138TIP3    H257906   0.645   5.062  10.682  0.4264 -1.6421  0.5682
12139TIP3   OH257907   4.934   6.718   3.579  0.2183  0.1410 -0.2936
12139TIP3    H157908   4.860   6.697   3.523  0.7054  1.3300 -1.4271
12139TIP3    H257909   4.901   6.787   3.637 -0.2229 -0.9448  0.8044
12140TIP3   OH257910   0.107   2.034  14.409 -0.0647 -0.3896  0.5076
12140TIP3    H157911   0.062   2.074  14.484 -0.2482 -2.8120  1.7681
12140TIP3    H257912   0.041   1.979  14.368  0.6347 -0.7586 -0.1474
12141TIP3   OH257913   1.170   5.458  13.360 -0.0921 -0.3865  0.7618
12141TIP3    H157914   1.169   5.367  13.330 -0.6997  0.2470 -1.3483
12141TIP3    H257915   1.186   5.452  13.454  0.4064 -2.6405  0.6062
12142TIP3   OH257916   0.928   4.470  13.811 -0.1163 -0.4122 -0.1513
12142TIP3    H157917   0.888   4.384  13.825 -3.2832  0.8343 -0.8491
12142TIP3    H257918   0.864   4.519  13.760  2.5585  1.6812 -1.7797
12143TIP3   OH257919   5.008   3.948  16.597  0.0624 -0.0960 -0.1752
12143TIP3    H157920   5.075   3.880  16.591  1.7094  1.4756 -0.3357
12143TIP3    H257921   4.960   3.927  16.677  1.1891 -0.8904  0.3168
12144TIP3   OH257922   0.106   1.993   0.757 -0.0669  0.2602 -0.2497
12144TIP3    H157923   0.057   1.917   0.728 -0.4488 -0.2442  1.5967
12144TIP3    H257924   0.173   2.005   0.690 -0.6189 -1.0745 -1.0858
12145TIP3   OH257925   3.967   1.593   2.586 -0.0167  0.5371 -0.0671
12145TIP3    H157926   4.056   1.626   2.578  0.0125  0.6036  0.4875
12145TIP3    H257927   3.976   1.498   2.577  0.0914  0.5561 -0.1589
12146TIP3   OH257928   6.176   0.443  15.546 -0.8565 -0.0807 -0.6298
12146TIP3    H157929   6.186   0.393  15.465  0.7079  0.1041 -0.5747
12146TIP3    H257930   6.177   0.534  15.518  0.0335 -0.0100 -0.3699
12147TIP3   OH257931   2.114   1.711  12.397  0.3982 -0.5679 -0.0725
12147TIP3    H157932   2.139   1.624  12.427  1.4556 -0.6738 -1.1740
12147TIP3    H257933   2.197   1.755  12.379 -0.1387  0.4114 -0.2529
12148TIP3   OH257934   5.339   1.228   1.746 -0.1396 -0.3714 -0.1411
12148TIP3    H157935   5.387   1.145   1.747 -0.0653 -0.3586 -1.1947
12148TIP3    H257936   5.393   1.288   1.797 -0.3361 -1.0363  0.8698
12149TIP3   OH257937   2.874   4.465   5.034  0.5888 -0.1202 -0.4649
12149TIP3    H157938   2.900   4.423   5.116  0.1016  2.5043  1.1301
12149TIP3    H257939   2.930   4.425   4.968  1.9562 -1.3558  1.3460
12150TIP3   OH257940   6.752   0.664  17.024  0.6318 -0.0701 -0.6737
12150TIP3    H157941   6.721   0.716  17.099  0.4364 -0.6181 -0.3717
12150TIP3    H257942   6.841   0.639  17.049  0.5604 -0.2670 -0.6160
12151TIP3   OH257943   0.131   3.742   5.678  0.2340  0.2983 -0.0681
12151TIP3    H157944   0.047   3.783   5.699  0.3987  0.2429  0.7546
12151TIP3    H257945   0.195   3.790   5.730  0.9567  1.3485 -1.8432
12152TIP3   OH257946   3.023   4.952  16.859 -0.4805  0.1778 -0.4728
12152TIP3    H157947   2.960   5.016  16.890  0.3612  1.2422 -0.9026
12152TIP3    H257948   3.108   4.991  16.876  0.1842 -1.9034  1.5871
12153TIP3   OH257949   0.007   2.463  11.931  0.3300  0.1587  0.5558
12153TIP3    H157950   0.019   2.530  11.999 -0.0426 -0.0257  0.8036
12153TIP3    H257951   0.073   2.484  11.866  1.3164 -0.2255  1.4142
12154TIP3   OH257952   4.524   4.132  12.791 -0.5680  0.1408  0.0694
12154TIP3    H157953   4.601   4.079  12.771 -1.4222 -0.8593 -0.6973
12154TIP3    H257954   4.545   4.219  12.759 -0.3891 -0.5140 -1.6571
12155TIP3   OH257955   6.655   0.850   5.540  0.1024 -0.3081  0.2036
12155TIP3    H157956   6.700   0.793   5.603 -0.4300 -0.3693  0.5338
12155TIP3    H257957   6.646   0.795   5.461  1.8065  0.1425 -0.3658
12156TIP3   OH257958   4.760   5.247   2.374  0.5178 -0.1118  0.6488
12156TIP3    H157959   4.731   5.233   2.284  0.2284 -0.3053  0.7736
12156TIP3    H257960   4.684   5.226   2.428  0.3952  0.8981  0.8978
12157TIP3   OH257961   5.782   5.039   0.221 -0.0876  0.3158 -0.3217
12157TIP3    H157962   5.746   4.963   0.266 -0.9824  0.6088 -0.5280
12157TIP3    H257963   5.793   5.105   0.290  1.3528 -0.2181 -0.0147
12158TIP3   OH257964   0.357   4.070  12.738  0.9226  0.0031 -0.2472
12158TIP3    H157965   0.275   4.023  12.722  1.0053 -0.1041 -0.3504
12158TIP3    H257966   0.370   4.064  12.833  0.9947 -0.2830 -0.2749
12159TIP3   OH257967   2.720   1.487  11.722  0.4945 -0.0024 -0.9371
12159TIP3    H157968   2.814   1.469  11.711  1.2236  2.7814 -0.0549
12159TIP3    H257969   2.701   1.460  11.812  1.0249  1.3827 -0.3826
12160TIP3   OH257970   4.048   6.532   1.775 -0.2422 -0.1312 -0.0067
12160TIP3    H157971   4.039   6.583   1.856 -1.1656 -1.1059  0.5271
12160TIP3    H257972   4.094   6.453   1.802 -1.6307 -1.0207 -0.1590
12161TIP3   OH257973   2.573   4.130  11.175  0.4300  0.1353  0.0511
12161TIP3    H157974   2.639   4.090  11.231 -0.6272 -0.9304  0.5938
12161TIP3    H257975   2.532   4.197  11.230 -0.0079 -0.3007  0.2616
12162TIP3   OH257976   5.213   5.922  16.963  0.0388 -0.1057 -0.1135
12162TIP3    H157977   5.266   5.943  17.041 -1.7342  0.8472  0.9051
12162TIP3    H257978   5.247   5.981  16.896  0.9546 -0.2577  0.1898
12163TIP3   OH257979   4.093   1.444  16.277  0.4999 -0.4638 -0.2739
12163TIP3    H157980   4.021   1.458  16.339  0.7049 -0.1990 -0.0948
12163TIP3    H257981   4.067   1.366  16.228  0.9469 -1.4671  1.0327
12164TIP3   OH257982   4.795   5.581  14.452  0.4429 -0.0279  0.1534
12164TIP3    H157983   4.759   5.543  14.532 -0.7584  1.9353  0.5980
12164TIP3    H257984   4.888   5.597  14.473  0.0524  0.8693  1.3511
12165TIP3   OH257985   5.089   6.480   0.796  0.5177 -0.2701 -0.0954
12165TIP3    H157986   5.183   6.464   0.803  1.1792  2.7908 -0.5914
12165TIP3    H257987   5.075   6.499   0.703 -0.5991 -0.5914 -0.0074
12166TIP3   OH257988   5.835   6.132   3.385 -0.0270  0.3883  0.4595
12166TIP3    H157989   5.868   6.053   3.343 -1.8560 -0.7251  0.9817
12166TIP3    H257990   5.808   6.103   3.472  1.3541  2.1008  1.5242
12167TIP3   OH257991   5.661   1.746  12.026  0.0497 -0.3072 -0.1917
12167TIP3    H157992   5.613   1.694  11.961 -1.0192  0.2042  0.1615
12167TIP3    H257993   5.658   1.835  11.993  3.2623 -0.6080 -1.6063
12168TIP3   OH257994   6.753   5.626  13.153 -0.1186 -0.0393 -0.1579
12168TIP3    H157995   6.801   5.706  13.134  2.0354 -1.4449 -0.8751
12168TIP3    H257996   6.757   5.618  13.249 -2.0441  1.6496  0.1340
12169TIP3   OH257997   5.639   2.588  13.469 -0.0240  0.0914 -0.4066
12169TIP3    H157998   5.603   2.566  13.555  0.4607  0.1598 -0.1874
12169TIP3    H257999   5.642   2.684  13.468  2.1190  0.0655  0.3959
12170TIP3   OH258000   3.146   4.908  14.359  0.2280 -0.2554  0.3936
12170TIP3    H158001   3.071   4.873  14.407 -0.1342 -0.5210 -0.3524
12170TIP3    H258002   3.211   4.927  14.427 -0.4357 -0.2067  1.0305
12171TIP3   OH258003   6.500   3.033  16.097  0.3071  0.3898 -0.1980
12171TIP3    H158004   6.456   2.949  16.104  0.1817  0.3612 -1.2390
12171TIP3    H258005   6.586   3.013  16.059  0.3999  0.6985 -0.1597
12172TIP3   OH258006   5.096   6.341  17.024 -0.2729 -0.3075 -0.2754
12172TIP3    H158007   5.058   6.391  16.951 -1.6953 -1.2301 -0.2036
12172TIP3    H258008   5.038   6.266  17.034  2.5599 -2.8268 -1.3543
12173TIP3   OH258009   2.367   3.716   1.496  0.2714 -0.5258 -0.6337
12173TIP3    H158010   2.289   3.674   1.532  0.7932 -0.2852  0.8630
12173TIP3    H258011   2.429   3.644   1.480 -0.3993 -0.7777 -2.3146
12174TIP3   OH258012   1.504   1.309  17.017 -0.2678  0.3135 -0.8318
12174TIP3    H158013   1.488   1.400  16.991  1.3483  1.7080  2.4607
12174TIP3    H258014   1.590   1.289  16.982 -0.4749  0.1586 -1.2598
12175TIP3   OH258015   5.185   0.655  15.877 -0.1437 -0.2777  0.2750
12175TIP3    H158016   5.143   0.722  15.824  2.0967 -0.3570 -1.7691
12175TIP3    H258017   5.178   0.688  15.967 -1.4160  1.3539 -0.3692
12176TIP3   OH258018   1.560   5.749  14.926  0.1818 -0.0461 -0.1568
12176TIP3    H158019   1.553   5.797  15.009  0.6072 -0.1750 -0.0418
12176TIP3    H258020   1.625   5.799  14.876 -1.4158  1.1074 -1.1718
12177TIP3   OH258021   2.806   1.482  13.037 -0.3132  0.4775 -0.3199
12177TIP3    H158022   2.900   1.461  13.032 -0.4307 -1.6616  3.0454
12177TIP3    H258023   2.766   1.424  12.971  0.4893 -1.3486  0.7104
12178TIP3   OH258024   0.415   3.463  17.269 -0.3077 -0.1511 -1.1004
12178TIP3    H158025   0.407   3.451  17.175 -0.9491 -1.4178 -0.9041
12178TIP3    H258026   0.334   3.425  17.305  0.0434  0.0903 -0.0270
12179TIP3   OH258027   6.717   1.595  12.803 -0.0780  0.3831 -0.1101
12179TIP3    H158028   6.722   1.667  12.867  1.6352  0.1099  0.1185
12179TIP3    H258029   6.808   1.578  12.780 -0.5925 -0.4298 -1.6413
12180TIP3   OH258030   3.186   6.197  14.271  0.3162 -0.0580 -0.4177
12180TIP3    H158031   3.268   6.178  14.318  1.5290  0.8702 -2.0712
12180TIP3    H258032   3.117   6.181  14.336  1.8639  0.3725  1.4226
12181TIP3   OH258033   1.375   6.721   4.224  0.1035  0.3059  0.2136
12181TIP3    H158034   1.411   6.760   4.144  1.3675  0.6907  0.9324
12181TIP3    H258035   1.420   6.637   4.232  0.2635  0.4349  0.7050
12182TIP3   OH258036   3.549   0.277   0.359 -0.3589 -0.4250 -0.3096
12182TIP3    H158037   3.637   0.288   0.323 -0.4078  0.4801 -0.1734
12182TIP3    H258038   3.493   0.327   0.299 -0.7235 -0.6454 -0.1538
12183TIP3   OH258039   5.541   4.081   4.346  0.1719 -0.2012 -0.2704
12183TIP3    H158040   5.555   4.006   4.288 -2.3520 -0.8536 -0.1652
12183TIP3    H258041   5.469   4.129   4.306 -0.3256  0.4144  1.2821
12184TIP3   OH258042   3.420   0.492   3.886 -0.1989  0.5847  0.1505
12184TIP3    H158043   3.395   0.405   3.917  2.1100 -0.2841 -0.1781
12184TIP3    H258044   3.343   0.525   3.841 -0.9629 -1.5631 -0.2560
12185TIP3   OH258045   1.002   5.691  16.125  0.5671 -0.0016 -0.6929
12185TIP3    H158046   0.965   5.619  16.073  0.1332  0.3493 -0.8790
12185TIP3    H258047   1.094   5.694  16.098  1.0854 -1.6849  0.6728
12186TIP3   OH258048   2.856   4.672  11.398  0.5370  0.0230 -0.2943
12186TIP3    H158049   2.776   4.662  11.450  0.6035 -0.6612 -0.3090
12186TIP3    H258050   2.826   4.674  11.307  0.4042  1.4012 -0.2408
12187TIP3   OH258051   3.895   2.100  16.901 -0.4222  0.1318  0.1278
12187TIP3    H158052   3.961   2.031  16.892  0.3105  0.7794  0.4307
12187TIP3    H258053   3.817   2.055  16.934 -0.7718 -0.9833 -2.0352
12188TIP3   OH258054   3.725   0.884  11.632 -0.1917  0.2671  0.1303
12188TIP3    H158055   3.634   0.874  11.604  0.6272 -0.8036 -2.4489
12188TIP3    H258056   3.746   0.802  11.677  0.1149 -0.4921 -1.3328
12189TIP3   OH258057   2.486   2.066  11.368 -0.2063 -0.5123  0.3247
12189TIP3    H158058   2.427   2.037  11.298 -1.7300  2.0309  0.4481
12189TIP3    H258059   2.542   2.131  11.327 -0.3835  0.2178  1.2114
12190TIP3   OH258060   6.717   2.334  10.577 -0.1589  0.5151 -0.2151
12190TIP3    H158061   6.748   2.422  10.596 -0.2768 -0.1287  3.8210
12190TIP3    H258062   6.795   2.279  10.583  0.5117  0.3299 -5.4307
12191TIP3   OH258063   0.018   5.615  14.486 -0.1073 -0.5942 -0.2172
12191TIP3    H158064  -0.018   5.684  14.431 -3.9542 -0.5127  2.0558
12191TIP3    H258065  -0.038   5.539  14.470  1.2838 -1.8562  0.5795
12192TIP3   OH258066   2.518   3.598   1.027 -0.2181 -0.1688 -0.1043
12192TIP3    H158067   2.600   3.585   1.076  0.4723 -0.7252 -1.3667
12192TIP3    H258068   2.468   3.660   1.081  0.3124 -1.0802  1.5060
12193TIP3   OH258069   3.967   4.333   1.018  0.0886  0.0358  0.2067
12193TIP3    H158070   4.004   4.269   1.078 -0.2065 -0.3831 -0.0516
12193TIP3    H258071   3.880   4.298   0.996  0.6812 -0.4751 -1.4427
12194TIP3   OH258072   3.965   1.717   0.245  0.5469  0.0622  0.0032
12194TIP3    H158073   3.981   1.638   0.193  0.8236 -0.9463  1.5455
12194TIP3    H258074   3.893   1.694   0.304  0.7878  0.8725  0.6437
12195TIP3   OH258075   6.304   3.362  13.310 -0.3706 -0.1184 -0.3422
12195TIP3    H158076   6.228   3.358  13.369 -1.5518 -0.9713 -1.8168
12195TIP3    H258077   6.364   3.423  13.351 -1.2087 -0.5689  1.6452
12196TIP3   OH258078   6.798   0.026  15.004 -0.3696 -0.6389 -0.6148
12196TIP3    H158079   6.734   0.041  14.934 -1.3481 -0.1319  0.3550
12196TIP3    H258080   6.802  -0.069  15.014 -1.6916 -0.6511 -0.0575
12197TIP3   OH258081   4.115   6.606   0.921  0.8603  0.0435  0.2057
12197TIP3    H158082   4.130   6.656   1.001  1.1710 -1.1682  0.9294
12197TIP3    H258083   4.052   6.538   0.946  1.0391 -0.4151 -0.5457
12198TIP3   OH258084   3.153   5.338  15.096 -0.2805  0.3469  0.3150
12198TIP3    H158085   3.242   5.373  15.102  0.2810 -1.1465  1.7030
12198TIP3    H258086   3.118   5.348  15.185 -0.7803 -0.7808  0.2603
12199TIP3   OH258087   3.873   4.863  11.249 -0.0703 -0.5837 -0.0166
12199TIP3    H158088   3.803   4.899  11.302  3.6211  2.8236  3.1876
12199TIP3    H258089   3.896   4.933  11.188  1.3282 -1.0777 -0.1127
12200TIP3   OH258090   0.060   1.182   3.001 -0.6831 -0.2180 -0.0584
12200TIP3    H158091   0.113   1.181   2.921 -1.3532  1.1163 -0.5362
12200TIP3    H258092  -0.030   1.183   2.969 -0.9545  1.3443  0.6764
12201TIP3   OH258093   0.618   2.347   1.129 -0.4749 -0.0701 -0.2186
12201TIP3    H158094   0.627   2.442   1.118  0.6741 -0.1454 -0.0094
12201TIP3    H258095   0.634   2.311   1.042 -1.8237 -0.0334 -0.5028
12202TIP3   OH258096   0.756   1.243   5.056  0.0382 -0.9132  0.0539
12202TIP3    H158097   0.728   1.209   5.141  0.2298  0.4000  0.6767
12202TIP3    H258098   0.763   1.338   5.069  0.2829 -0.7034 -1.3726
12203TIP3   OH258099   1.588   5.820   3.097  0.2490  0.0382  0.2729
12203TIP3    H158100   1.586   5.852   3.187  2.0292  1.5066 -0.1451
12203TIP3    H258101   1.651   5.748   3.098  1.0691  0.7301  0.0475
12204TIP3   OH258102   2.987   1.912  12.786  0.3486  0.1901  0.0903
12204TIP3    H158103   3.075   1.940  12.757  0.7218 -0.3629  0.6671
12204TIP3    H258104   2.935   1.992  12.782  0.0384 -0.0665 -3.2687
12205TIP3   OH258105   0.705   5.306   3.465 -0.2255 -0.8019 -0.2441
12205TIP3    H158106   0.661   5.368   3.407  2.8450  2.8944  0.9574
12205TIP3    H258107   0.680   5.334   3.553  0.7155 -1.7252  0.3285
12206TIP3   OH258108   4.762   3.190   6.244 -0.3186 -0.5078 -0.4292
12206TIP3    H158109   4.778   3.246   6.168 -0.2225  1.0317  0.6875
12206TIP3    H258110   4.702   3.240   6.299  0.1049 -1.3141  0.8057
12207TIP3   OH258111   5.610   6.751  16.056 -0.3610  0.2352 -0.3196
12207TIP3    H158112   5.632   6.740  15.964  0.5104  0.6762 -0.1765
12207TIP3    H258113   5.657   6.681  16.101  0.7479  1.1289 -0.0221
12208TIP3   OH258114   3.697   5.275  16.199 -0.3373  0.1781  0.1400
12208TIP3    H158115   3.697   5.305  16.289 -2.0063  0.1998  0.1674
12208TIP3    H258116   3.741   5.344  16.150  0.4340  0.2405  0.8976
12209TIP3   OH258117   0.949   3.972   3.365 -0.0815  0.0663 -0.3346
12209TIP3    H158118   0.885   3.905   3.343 -0.5115  0.4500 -0.2585
12209TIP3    H258119   0.901   4.035   3.419 -0.3264  1.6257 -2.2591
12210TIP3   OH258120   1.304   4.959   3.465  0.0204 -0.4476 -0.1396
12210TIP3    H158121   1.303   4.893   3.396  0.1284 -2.7728  1.9291
12210TIP3    H258122   1.366   4.925   3.530 -2.0080  0.2266  2.3311
12211TIP3   OH258123   3.661   1.300  15.561 -0.6943 -0.0802 -0.3181
12211TIP3    H158124   3.741   1.322  15.514 -0.9319 -0.7066 -1.0345
12211TIP3    H258125   3.591   1.344  15.513 -0.6599  1.8192  1.2303
12212TIP3   OH258126   2.792   3.721  17.334  0.1853  0.0165  0.1060
12212TIP3    H158127   2.794   3.767  17.418  0.7927  0.3730 -0.0953
12212TIP3    H258128   2.861   3.655  17.342  1.0087  0.7802 -0.5093
12213TIP3   OH258129   0.600   5.224  16.157 -0.3388 -0.7438 -0.5581
12213TIP3    H158130   0.526   5.167  16.136 -0.3238 -1.3176  0.8581
12213TIP3    H258131   0.591   5.241  16.251  0.2329  0.7766 -0.7597
12214TIP3   OH258132   1.512   0.531   0.246 -0.1787 -0.4133 -0.1599
12214TIP3    H158133   1.601   0.497   0.248 -0.2557 -0.6467 -0.5456
12214TIP3    H258134   1.519   0.620   0.282  0.3567 -0.1101 -0.9717
12215TIP3   OH258135   3.047   2.732  17.042  0.0019 -0.5983  0.1811
12215TIP3    H158136   3.026   2.819  17.008  1.3335 -1.2996 -2.8559
12215TIP3    H258137   3.005   2.728  17.127 -0.5258  2.8173  0.2259
12216TIP3   OH258138   3.440   5.404   2.166  0.0373  0.0572  0.2561
12216TIP3    H158139   3.386   5.457   2.107  1.5863  0.5757 -0.7642
12216TIP3    H258140   3.408   5.424   2.254 -0.7246  1.1364 -0.2549
12217TIP3   OH258141   2.165   4.304   3.009  0.3165 -0.6046  0.3569
12217TIP3    H158142   2.144   4.353   2.930  1.6322 -1.4468 -0.5454
12217TIP3    H258143   2.098   4.235   3.012  0.2075 -0.5157  0.0295
12218TIP3   OH258144   4.956   5.680  17.086  0.3190  0.1873  0.4812
12218TIP3    H158145   4.925   5.591  17.099  1.2588 -0.7270 -2.6009
12218TIP3    H258146   4.876   5.733  17.084 -0.2535 -0.5701  2.2048
12219TIP3   OH258147   5.535   1.491   0.395  0.3570  0.1809  0.5201
12219TIP3    H158148   5.599   1.471   0.326  0.4077  0.8473  0.3708
12219TIP3    H258149   5.473   1.551   0.353 -1.8947 -2.4352 -0.1574
12220TIP3   OH258150   1.096   4.498  16.766  0.4985  0.0349  0.2364
12220TIP3    H158151   1.104   4.413  16.809  2.5816  0.3806  0.6679
12220TIP3    H258152   1.165   4.497  16.699  1.2071  1.6952  0.8726
12221TIP3   OH258153   2.362   6.629   5.240  0.3969 -0.1463  0.4157
12221TIP3    H158154   2.307   6.550   5.233  0.3861 -0.0954 -0.2052
12221TIP3    H258155   2.300   6.699   5.263 -0.1507  0.2432 -1.9068
12222TIP3   OH258156   0.483   2.992   4.268  0.7964  0.0542 -0.6447
12222TIP3    H158157   0.563   3.023   4.310  0.4133  0.2144 -0.0172
12222TIP3    H258158   0.438   3.072   4.241  0.3479  0.0112 -0.0431
12223TIP3   OH258159   3.516   3.063   5.841  0.3710 -0.5071 -0.4245
12223TIP3    H158160   3.535   3.102   5.926 -3.1160 -0.7277  0.6175
12223TIP3    H258161   3.444   3.115   5.805 -1.0283 -2.8225 -1.2761
12224TIP3   OH258162   2.429   4.250   1.095  0.7911 -0.0267 -0.0608
12224TIP3    H158163   2.395   4.161   1.086 -1.0966  0.6938 -0.4291
12224TIP3    H258164   2.491   4.259   1.023  0.9995 -1.0304 -0.0219
12225TIP3   OH258165   5.495   3.948  12.383 -0.4963  0.0762 -0.2247
12225TIP3    H158166   5.571   3.912  12.336 -0.1252  0.7777 -0.1699
12225TIP3    H258167   5.479   3.885  12.454 -0.1257 -0.2099 -0.3918
12226TIP3   OH258168   2.718   3.316  16.082  0.4128  0.2973  0.0193
12226TIP3    H158169   2.660   3.253  16.040  0.5564 -0.1373  0.4547
12226TIP3    H258170   2.699   3.399  16.039 -0.8139  0.2488  0.4326
12227TIP3   OH258171   3.426   5.701  11.822 -0.2872 -0.2894  0.7968
12227TIP3    H158172   3.428   5.606  11.809 -1.8624 -0.4735  1.6427
12227TIP3    H258173   3.481   5.736  11.752  0.5426 -1.8244  0.6271
12228TIP3   OH258174   6.772   2.243   2.190  0.3277  0.1863  0.0139
12228TIP3    H158175   6.798   2.320   2.239 -0.6739  0.9914 -0.6647
12228TIP3    H258176   6.677   2.238   2.202  0.3569 -0.8592 -0.0777
12229TIP3   OH258177   2.828   3.164  12.547 -0.4168  0.2320 -0.3143
12229TIP3    H158178   2.826   3.129  12.636  0.2998 -0.5407 -0.5889
12229TIP3    H258179   2.795   3.253  12.555  2.3972  1.2401  1.2184
12230TIP3   OH258180   5.582   5.473  13.208 -0.7703  0.0043 -0.4467
12230TIP3    H158181   5.524   5.404  13.240  0.4263 -0.6006  0.5449
12230TIP3    H258182   5.531   5.554  13.217 -1.9017 -0.6425 -0.8513
12231TIP3   OH258183   1.388   3.675  14.960 -0.5462 -0.1902  0.2155
12231TIP3    H158184   1.474   3.692  14.923 -1.0774  2.1437 -0.0743
12231TIP3    H258185   1.335   3.646  14.886 -0.9389  2.0145 -0.4312
12232TIP3   OH258186   2.749   2.451  16.587  0.2147  0.4803 -0.2486
12232TIP3    H158187   2.828   2.452  16.533  0.5929  1.7532  0.3006
12232TIP3    H258188   2.770   2.392  16.660 -0.4730 -1.6499 -1.6728
12233TIP3   OH258189   6.580   0.797   0.480 -0.0776 -0.1923 -0.1831
12233TIP3    H158190   6.670   0.809   0.510  0.1412  1.3797 -1.3354
12233TIP3    H258191   6.555   0.711   0.513  1.8368 -0.6597  0.1663
12234TIP3   OH258192   6.406   4.733  12.684  0.3082  0.1793 -0.8175
12234TIP3    H158193   6.387   4.639  12.681  0.9878 -0.0234  0.5454
12234TIP3    H258194   6.326   4.771  12.721  0.4084  0.0161 -0.4291
12235TIP3   OH258195   5.669   2.357  12.788 -0.4089 -0.4229  0.8520
12235TIP3    H158196   5.714   2.437  12.760 -1.6840 -0.1770 -0.6524
12235TIP3    H258197   5.739   2.292  12.797  0.5728  0.6809  1.4736
12236TIP3   OH258198   0.061   2.288  13.892  0.9601  0.1871 -0.5829
12236TIP3    H158199   0.128   2.356  13.897  0.7596  0.2943  0.9503
12236TIP3    H258200  -0.003   2.322  13.830 -0.6540  2.8332  2.2979
12237TIP3   OH258201   2.387   5.130   2.538  0.0562 -0.2462 -0.2124
12237TIP3    H158202   2.470   5.084   2.545 -0.1946 -0.4249  2.2219
12237TIP3    H258203   2.410   5.218   2.508  1.0701 -0.3960  0.0927
12238TIP3   OH258204   0.906   3.840   1.037 -0.2102  0.4640  0.3541
12238TIP3    H158205   0.875   3.907   0.976  1.2753  0.2532 -0.6829
12238TIP3    H258206   0.831   3.825   1.095 -0.9757  2.1687 -0.0999
12239TIP3   OH258207   4.212   3.121   2.463 -0.0886 -0.3155  0.2522
12239TIP3    H158208   4.248   3.146   2.548  0.7651 -0.3191 -0.1029
12239TIP3    H258209   4.246   3.033   2.448  0.0769 -0.1666 -0.2610
12240TIP3   OH258210   0.132   6.535  15.868 -0.0443  0.0601 -0.3566
12240TIP3    H158211   0.125   6.478  15.791  0.2246 -0.2202 -0.1733
12240TIP3    H258212   0.168   6.479  15.937 -1.4873 -0.0327  0.3444
12241TIP3   OH258213   1.226   3.946  15.582 -0.1115  0.2799  0.1174
12241TIP3    H158214   1.318   3.936  15.606 -0.2773 -2.1480 -0.0491
12241TIP3    H258215   1.222   4.033  15.542  2.5738 -0.3880 -1.9072
12242TIP3   OH258216   3.967   0.181   1.571  0.1610  0.2429 -1.1901
12242TIP3    H158217   3.919   0.250   1.616  0.3509  0.5522 -1.4634
12242TIP3    H258218   3.955   0.200   1.478  0.1767 -0.1174 -1.2680
12243TIP3   OH258219   5.612   3.068   4.105  0.0712 -0.1961 -0.6059
12243TIP3    H158220   5.537   3.080   4.047  0.2796  1.4046 -0.5910
12243TIP3    H258221   5.576   3.024   4.182 -1.0348  1.2018 -0.2822
12244TIP3   OH258222   0.450   3.309   3.455 -0.2830 -0.1183 -0.4936
12244TIP3    H158223   0.533   3.265   3.473 -0.4592 -0.8562 -1.4624
12244TIP3    H258224   0.395   3.288   3.531  0.1710 -0.2196 -0.1885
12245TIP3   OH258225   4.958   4.522  16.036  0.4487  0.7918  0.6119
12245TIP3    H158226   4.872   4.564  16.029  0.4226  0.8370  1.2059
12245TIP3    H258227   4.991   4.522  15.946 -1.1947 -1.4219 -0.0967
12246TIP3   OH258228   0.124   4.483   2.587 -0.1909  0.1292  0.9381
12246TIP3    H158229   0.100   4.543   2.516  0.2641 -1.0618 -0.2667
12246TIP3    H258230   0.192   4.530   2.635  0.3354  0.5007 -0.1225
12247TIP3   OH258231   6.324   5.839   1.471 -0.3627 -0.6051 -0.1285
12247TIP3    H158232   6.290   5.865   1.557  1.8340  1.1953  0.3165
12247TIP3    H258233   6.383   5.766   1.490  1.1075  0.5881  0.1975
12248TIP3   OH258234   6.240   4.913  16.590 -0.1708  0.3528 -0.1570
12248TIP3    H158235   6.239   4.981  16.522 -0.6905 -0.9005 -1.4691
12248TIP3    H258236   6.187   4.949  16.661 -2.2647  0.5327 -1.6941
12249TIP3   OH258237   1.897   1.407  10.806 -0.0041  0.4012  0.0248
12249TIP3    H158238   1.916   1.497  10.779 -0.5816  0.2301 -0.9857
12249TIP3    H258239   1.984   1.370  10.825  0.3564  0.7941 -0.7862
12250TIP3   OH258240   2.859   6.007   6.473  0.1409 -0.7060  0.2684
12250TIP3    H158241   2.803   5.988   6.398  0.2362  1.6822 -0.5150
12250TIP3    H258242   2.918   6.077   6.442 -0.2042  0.7886  2.6966
12251TIP3   OH258243   0.341   0.544  13.191  0.1554 -0.8842  0.0728
12251TIP3    H158244   0.395   0.608  13.144  0.2483 -0.0856  1.2124
12251TIP3    H258245   0.289   0.597  13.252 -0.6141 -1.8062  0.2429
12252TIP3   OH258246   3.375   0.925  14.864 -0.1591  0.9641 -0.2748
12252TIP3    H158247   3.326   0.945  14.784 -0.8238 -0.1761 -0.1667
12252TIP3    H258248   3.308   0.901  14.928  0.5442 -2.1381 -0.5448
12253TIP3   OH258249   6.179   5.802  16.215  0.8261  0.1744  0.1046
12253TIP3    H158250   6.130   5.809  16.133 -0.4335  0.5947  0.8509
12253TIP3    H258251   6.237   5.879  16.214  0.2727  0.6001 -0.0577
12254TIP3   OH258252   3.739   5.378  11.749  0.2539  0.6512 -0.2094
12254TIP3    H158253   3.731   5.380  11.845 -0.0190 -1.9432 -0.1096
12254TIP3    H258254   3.831   5.398  11.733  0.2221  1.4761  0.5683
12255TIP3   OH258255   5.350   4.470  15.111 -0.7021  0.4950 -0.2421
12255TIP3    H158256   5.351   4.379  15.142  0.5474  0.5460 -0.0895
12255TIP3    H258257   5.322   4.521  15.187  0.5877  0.4336  0.2929
12256TIP3   OH258258   6.372   6.406  13.662 -0.5445 -0.0140 -0.1664
12256TIP3    H158259   6.347   6.441  13.747 -0.2191  0.2248 -0.1691
12256TIP3    H258260   6.313   6.449  13.600 -1.3951 -0.8588  0.0249
12257TIP3   OH258261   6.626   1.768  15.130 -0.0141  0.1231  0.3797
12257TIP3    H158262   6.587   1.750  15.215 -1.1649  2.0722  0.3551
12257TIP3    H258263   6.553   1.806  15.079  0.4178 -1.7228 -1.7604
12258TIP3   OH258264   0.532   2.427  14.618  0.4928 -0.1540 -0.1644
12258TIP3    H158265   0.522   2.333  14.605  1.6093 -0.3329  0.2206
12258TIP3    H258266   0.495   2.443  14.705  1.6290 -0.4831  0.3911
12259TIP3   OH258267   1.393   3.272  13.493 -0.4481 -0.0010 -0.0423
12259TIP3    H158268   1.320   3.255  13.552 -0.3840  0.2039  0.0988
12259TIP3    H258269   1.405   3.190  13.445 -0.1032 -0.3826  0.6704
12260TIP3   OH258270   0.876   0.845  16.373 -0.2873 -0.3201 -0.0458
12260TIP3    H158271   0.787   0.858  16.407 -0.3348 -0.3201 -0.1702
12260TIP3    H258272   0.873   0.879  16.284 -0.1999 -0.4531 -0.0993
12261TIP3   OH258273   2.676   2.109  14.550 -0.6636 -0.2306  0.8683
12261TIP3    H158274   2.702   2.170  14.480  0.3211 -1.9305 -0.3239
12261TIP3    H258275   2.595   2.070  14.519 -0.9326 -0.0492  1.3234
12262TIP3   OH258276   2.460   3.739  13.798  0.1313 -0.1789 -0.4670
12262TIP3    H158277   2.468   3.833  13.814 -0.0854  0.0939 -1.8360
12262TIP3    H258278   2.540   3.715  13.752  0.5752 -0.8551  0.6183
12263TIP3   OH258279   1.224   3.185   2.597  0.5774  0.0101  0.2432
12263TIP3    H158280   1.227   3.167   2.503  0.1621  1.6937 -0.1272
12263TIP3    H258281   1.245   3.278   2.604 -1.4043  0.4048  1.6435
12264TIP3   OH258282   3.244   3.078  13.731  0.0835 -0.0286 -0.4305
12264TIP3    H158283   3.265   3.015  13.800 -1.3878 -0.5019 -0.3841
12264TIP3    H258284   3.320   3.137  13.729  1.5634 -1.8416 -0.5677
12265TIP3   OH258285   2.924   0.276  12.066  0.1030 -0.5227  0.0753
12265TIP3    H158286   2.922   0.365  12.102 -0.2271 -0.5404  0.0958
12265TIP3    H258287   2.989   0.230  12.119 -0.0681 -0.4253  0.3672
12266TIP3   OH258288   0.741   4.348   2.204 -0.3874 -0.1073  0.3125
12266TIP3    H158289   0.769   4.269   2.251 -0.1578 -0.4856 -0.4530
12266TIP3    H258290   0.781   4.420   2.253 -1.3513 -0.3946  1.5582
12267TIP3   OH258291   5.525   4.599   0.719  0.0204 -0.0816  0.2073
12267TIP3    H158292   5.453   4.663   0.724 -0.0840 -0.1745 -0.0581
12267TIP3    H258293   5.599   4.643   0.760  0.1637  0.5236 -0.6531
12268TIP3   OH258294   1.073   2.426  14.655  0.1231  0.2426 -0.4196
12268TIP3    H158295   1.009   2.402  14.722  0.1365  0.5464 -0.2967
12268TIP3    H258296   1.026   2.489  14.600 -1.1411 -2.5491 -2.8179
12269TIP3   OH258297   4.908   5.391   5.876 -0.1837 -0.4912  0.5791
12269TIP3    H158298   4.818   5.422   5.867  0.1661  0.2676 -0.5530
12269TIP3    H258299   4.960   5.471   5.882  0.6582 -0.8218 -1.5396
12270TIP3   OH258300   0.875   4.908  15.980 -0.0756  0.4586  0.3162
12270TIP3    H158301   0.784   4.885  15.996 -1.1283  4.1211  0.5171
12270TIP3    H258302   0.881   4.918  15.885  0.2310 -0.1386  0.2708
12271TIP3   OH258303   1.800   3.979   0.349 -0.5634 -0.6974 -0.2500
12271TIP3    H158304   1.846   4.041   0.292 -1.0572  0.3793  0.4659
12271TIP3    H258305   1.812   3.894   0.308  1.7891 -0.4228 -0.2482
12272TIP3   OH258306   0.281   3.073  13.998  0.1214  0.4601 -0.3033
12272TIP3    H158307   0.322   3.019  14.065  0.1589 -1.1963 -1.6247
12272TIP3    H258308   0.343   3.073  13.925 -0.8080  0.5594 -1.1095
12273TIP3   OH258309   4.151   2.321  11.936  0.2061 -0.5048  0.0121
12273TIP3    H158310   4.244   2.298  11.943 -0.0476 -1.1967  1.5906
12273TIP3    H258311   4.137   2.386  12.006 -0.3926  0.0013 -0.5627
12274TIP3   OH258312   5.820   2.673   0.823  0.3418  0.0955 -0.8905
12274TIP3    H158313   5.814   2.767   0.842  1.3285 -0.1065  0.5884
12274TIP3    H258314   5.891   2.666   0.760  0.6076  0.3151 -0.6215
12275TIP3   OH258315   4.058   2.596  14.383  0.5497 -0.3483 -0.4049
12275TIP3    H158316   4.014   2.658  14.440  0.0932 -2.1628  1.3032
12275TIP3    H258317   4.016   2.608  14.297 -0.2612  0.9171  0.1437
12276TIP3   OH258318   3.828   5.436  10.504 -0.4462 -0.1378 -0.3560
12276TIP3    H158319   3.887   5.408  10.434 -3.2565 -0.9521 -2.5682
12276TIP3    H258320   3.854   5.527  10.522  2.2827 -0.8456 -0.2026
12277TIP3   OH258321   3.792   6.571  16.400  0.4950  0.1773  0.1762
12277TIP3    H158322   3.881   6.537  16.401  0.9365  1.2724  1.0344
12277TIP3    H258323   3.803   6.666  16.396 -0.6331  0.3245  0.2192
12278TIP3   OH258324   6.643   6.035  16.581 -0.0631 -0.0982  0.2245
12278TIP3    H158325   6.672   6.075  16.499 -1.6024 -0.5923 -0.5951
12278TIP3    H258326   6.671   6.098  16.649  2.4057 -0.3020 -0.4823
12279TIP3   OH258327   2.024   4.267   2.495 -0.3479  0.0020  0.6162
12279TIP3    H158328   2.105   4.317   2.482 -0.1120 -0.5226 -0.0218
12279TIP3    H258329   1.966   4.326   2.541  0.0419  0.7433  0.1711
12280TIP3   OH258330   2.530   4.524  11.786  0.3165  0.5079 -0.2883
12280TIP3    H158331   2.518   4.608  11.830  2.7605  0.1577  1.2417
12280TIP3    H258332   2.491   4.536  11.699 -0.2344  2.8705  0.2259
12281TIP3   OH258333   6.731   5.888  13.787 -0.1297  0.0628 -0.0402
12281TIP3    H158334   6.689   5.971  13.767 -0.1829 -0.0903 -0.5878
12281TIP3    H258335   6.776   5.903  13.871  0.2531  0.7845 -0.3648
12282TIP3   OH258336   6.338   6.309   4.322 -0.0161 -0.4410  0.2240
12282TIP3    H158337   6.361   6.385   4.374  0.7065 -0.0744 -0.6147
12282TIP3    H258338   6.288   6.344   4.248  0.4685 -0.7577 -0.2593
12283TIP3   OH258339   6.618   5.502  11.457  0.6442 -0.2919  0.6466
12283TIP3    H158340   6.685   5.570  11.447  0.6872 -0.1630  1.7539
12283TIP3    H258341   6.535   5.549  11.451  0.5331 -0.6387 -2.3181
12284TIP3   OH258342   3.525   0.026   0.148  0.3292  0.5461  0.1397
12284TIP3    H158343   3.543   0.117   0.172 -0.5526  0.0995  2.7644
12284TIP3    H258344   3.429   0.020   0.147  0.3568 -0.1124 -1.1948
12285TIP3   OH258345   3.122   2.011   6.217  0.3246 -0.5907  0.4901
12285TIP3    H158346   3.077   1.949   6.275  0.3974 -0.6951  0.4353
12285TIP3    H258347   3.165   2.073   6.276  0.0055 -0.4147  0.5429
12286TIP3   OH258348   4.829   1.773  17.155 -0.5926 -0.0591  0.4531
12286TIP3    H158349   4.911   1.800  17.113 -0.5450  0.4111  0.8347
12286TIP3    H258350   4.857   1.728  17.235 -0.6824 -0.9035  0.0110
12287TIP3   OH258351   0.622   2.599  16.656 -0.6275  0.0540 -0.0523
12287TIP3    H158352   0.690   2.635  16.714 -1.7915 -0.4986  1.7509
12287TIP3    H258353   0.664   2.591  16.571  1.9296 -1.3238  1.2305
12288TIP3   OH258354   5.388   4.307   2.952 -0.0972  0.2153  0.3125
12288TIP3    H158355   5.304   4.318   2.907 -0.5095 -1.1748  0.7045
12288TIP3    H258356   5.369   4.327   3.044  0.4188  1.6083  0.1459
12289TIP3   OH258357   4.728   6.725  13.117 -0.1585  0.5627 -0.6783
12289TIP3    H158358   4.698   6.779  13.189  2.4740  0.1613  0.8673
12289TIP3    H258359   4.649   6.701  13.069 -1.8519  1.9523  1.2863
12290TIP3   OH258360   1.130   3.412  11.913 -0.3422  0.4538 -0.3066
12290TIP3    H158361   1.077   3.334  11.933  0.1250  0.0415 -0.6455
12290TIP3    H258362   1.201   3.410  11.978  0.6101 -0.3328 -1.3323
12291TIP3   OH258363   0.335   5.919  15.221  0.9359 -0.4653  0.2831
12291TIP3    H158364   0.325   5.956  15.134  1.3258  2.3383  1.3230
12291TIP3    H258365   0.276   5.970  15.276  0.6317 -2.2259  1.6662
12292TIP3   OH258366   4.695   1.197  16.823  0.2857  0.3277 -0.5375
12292TIP3    H158367   4.787   1.200  16.850 -0.1373  0.1621  1.0257
12292TIP3    H258368   4.645   1.204  16.905 -1.0903 -0.2715 -1.2749
12293TIP3   OH258369   6.122   4.429  10.859  0.1030  0.2592  0.8584
12293TIP3    H158370   6.094   4.521  10.856  0.2350  0.2712 -0.9330
12293TIP3    H258371   6.099   4.394  10.773  1.8704 -0.8388  0.7919
12294TIP3   OH258372   1.927   2.496   5.204  0.2000  0.4694  0.5552
12294TIP3    H158373   1.857   2.561   5.197 -0.4350 -0.3463 -1.1752
12294TIP3    H258374   1.976   2.504   5.123 -1.3285 -2.7275 -0.8718
12295TIP3   OH258375   4.320   2.255   0.026  0.8728  0.3831 -0.6196
12295TIP3    H158376   4.384   2.319   0.057  2.4156 -0.3943 -2.0122
12295TIP3    H258377   4.344   2.173   0.070  0.2947  0.2643 -0.5118
12296TIP3   OH258378   0.667   3.884   6.030 -1.1017  0.4207  1.0188
12296TIP3    H158379   0.606   3.844   6.091 -0.7080 -0.4052  0.8918
12296TIP3    H258380   0.667   3.826   5.954 -2.2535  1.9033 -0.1643
12297TIP3   OH258381   5.541   0.845   4.288 -0.0944 -1.0592  0.0770
12297TIP3    H158382   5.541   0.785   4.213 -3.1422  0.1735 -1.0519
12297TIP3    H258383   5.462   0.824   4.337  0.6494 -0.2917  1.6889
12298TIP3   OH258384   4.049   4.183  12.262 -0.4236  0.5067  0.3018
12298TIP3    H158385   3.969   4.229  12.235 -0.7222  0.7464  1.4916
12298TIP3    H258386   4.072   4.129  12.188  0.7510  3.5678 -1.7801
12299TIP3   OH258387   5.985   3.631   5.619  0.0079  0.0226  0.4136
12299TIP3    H158388   5.990   3.608   5.712  0.1585  0.8818  0.6271
12299TIP3    H258389   5.929   3.563   5.581  0.4965 -0.7360  0.9939
12300TIP3   OH258390   6.555   4.081   0.843 -0.1454  0.4486 -0.4514
12300TIP3    H158391   6.476   4.082   0.789 -0.1039 -1.5929 -0.6415
12300TIP3    H258392   6.600   4.162   0.821 -1.0158  0.5195 -2.1461
12301TIP3   OH258393   6.120   4.424  15.623 -0.4904  0.4869 -0.0257
12301TIP3    H158394   6.034   4.461  15.604 -0.4876  0.6381  0.2586
12301TIP3    H258395   6.160   4.485  15.685 -0.5006 -0.0068  0.4788
12302TIP3   OH258396   2.206   1.449   0.090  0.2079 -0.1045  0.0813
12302TIP3    H158397   2.234   1.461   0.181 -1.8238 -1.6681  1.0218
12302TIP3    H258398   2.220   1.356   0.073 -0.6133 -0.0913 -0.7482
12303TIP3   OH258399   3.424   5.166  12.540 -0.0959 -0.5867 -0.0285
12303TIP3    H158400   3.477   5.087  12.544 -0.6702 -0.9391  1.1845
12303TIP3    H258401   3.487   5.238  12.549  0.2580 -0.9757  0.7054
12304TIP3   OH258402   3.516   4.640  12.098  0.4135 -0.0919 -0.2764
12304TIP3    H158403   3.506   4.547  12.117 -0.5600 -0.5588 -2.6286
12304TIP3    H258404   3.593   4.645  12.041 -2.1364 -0.2833 -4.1264
12305TIP3   OH258405   5.632   4.272  14.278 -0.3672 -0.5373 -0.4631
12305TIP3    H158406   5.629   4.213  14.353  0.5272  1.2784  1.0967
12305TIP3    H258407   5.543   4.272  14.243 -1.2962 -0.0296  1.7760
12306TIP3   OH258408   4.822   3.405   0.957 -0.2222  0.1524 -0.5379
12306TIP3    H158409   4.904   3.434   0.998 -0.6134  0.9010 -0.2821
12306TIP3    H258410   4.753   3.438   1.015 -0.6945 -1.0782 -0.3675
12307TIP3   OH258411   4.450   6.444   0.771  0.1108  0.1745 -0.0861
12307TIP3    H158412   4.384   6.412   0.709  0.0073 -1.2543  0.7119
12307TIP3    H258413   4.529   6.395   0.749  0.5584  0.9196 -0.1807
12308TIP3   OH258414   4.661   5.821   4.463  0.5870 -0.1291  0.1071
12308TIP3    H158415   4.633   5.824   4.371  0.6835  1.6002  0.0969
12308TIP3    H258416   4.579   5.814   4.512  0.5208 -0.8405 -0.0908
12309TIP3   OH258417   5.686   5.604  17.019 -0.2822  0.1960 -0.1698
12309TIP3    H158418   5.711   5.516  16.992  1.5087  0.8536 -0.7650
12309TIP3    H258419   5.722   5.614  17.107 -0.6195  0.3031 -0.0381
12310TIP3   OH258420   2.406   0.331  12.522  0.0725  0.1853 -0.5842
12310TIP3    H158421   2.335   0.267  12.510  0.7524 -1.3325  2.4797
12310TIP3    H258422   2.470   0.308  12.455  0.6126 -2.9469  0.8350
12311TIP3   OH258423   2.746   2.396   5.313  0.5492  0.4617  0.2238
12311TIP3    H158424   2.786   2.479   5.338  0.5471  0.9081 -1.1731
12311TIP3    H258425   2.819   2.336   5.304  0.4859  0.0636  2.0223
12312TIP3   OH258426   6.641   6.286   4.168 -0.2085  0.1032 -0.2590
12312TIP3    H158427   6.621   6.237   4.247 -1.0681 -0.2026 -0.6477
12312TIP3    H258428   6.561   6.280   4.115  0.5510 -0.2031 -1.4103
12313TIP3   OH258429   4.024   2.073  15.353 -0.3376  0.0696  0.5987
12313TIP3    H158430   4.020   2.008  15.423 -0.0025  1.0253  1.5315
12313TIP3    H258431   3.974   2.034  15.282  0.7400 -1.6678  0.7313
12314TIP3   OH258432   5.590   0.035  12.248  0.7210  0.2317  0.5789
12314TIP3    H158433   5.515   0.005  12.298  0.7954 -0.9429  0.0154
12314TIP3    H258434   5.615   0.118  12.290 -1.0428  0.8039  0.5900
12315TIP3   OH258435   2.802   1.385   4.381 -0.3279  0.0049  0.1433
12315TIP3    H158436   2.730   1.338   4.423 -0.5823 -0.0324 -0.3250
12315TIP3    H258437   2.874   1.323   4.379 -0.1974  0.1298  0.8536
12316TIP3   OH258438   3.461   0.548  14.670  0.4737  0.2537  0.3987
12316TIP3    H158439   3.384   0.587  14.710  0.6629  1.1960 -0.1271
12316TIP3    H258440   3.480   0.471  14.724 -3.2938 -2.5516 -1.7890
12317TIP3   OH258441   1.057   0.754  15.698  0.0332  0.1288  0.6418
12317TIP3    H158442   0.966   0.733  15.677 -0.4248  1.2214  1.4527
12317TIP3    H258443   1.061   0.752  15.793  0.6307  0.9603  0.6506
12318TIP3   OH258444   0.856   1.693  17.317 -0.1417 -0.1336  0.7105
12318TIP3    H158445   0.762   1.681  17.304 -0.5954  2.6544  0.8107
12318TIP3    H258446   0.877   1.632  17.388 -1.6769 -1.3426  0.2082
12319TIP3   OH258447   0.271   4.655   5.210  0.2968  0.3365 -0.4512
12319TIP3    H158448   0.208   4.695   5.269  0.5361  0.1120 -0.0424
12319TIP3    H258449   0.226   4.651   5.126 -0.3998 -0.2492 -0.0594
12320TIP3   OH258450   4.152   0.030  13.630  0.0894 -0.0742 -0.2926
12320TIP3    H158451   4.147  -0.005  13.541  2.1162 -0.7819 -0.1707
12320TIP3    H258452   4.138  -0.046  13.686 -1.4571  0.4160  0.0472
12321TIP3   OH258453   3.307   4.768  13.939 -0.3123  0.7311  0.0108
12321TIP3    H158454   3.374   4.721  13.889 -0.6880  0.8839 -0.6589
12321TIP3    H258455   3.309   4.729  14.026 -0.2810 -0.1898 -0.3949
12322TIP3   OH258456   4.705   1.067  15.911 -0.8889 -0.0817  0.5199
12322TIP3    H158457   4.667   1.038  15.829  1.0353  1.9165 -1.1931
12322TIP3    H258458   4.658   1.016  15.978 -1.8953 -2.4550 -1.7967
12323TIP3   OH258459   5.893   1.690   4.419  0.0842  0.3225 -0.0898
12323TIP3    H158460   5.859   1.614   4.372  0.3270  0.6894 -0.8804
12323TIP3    H258461   5.816   1.731   4.458 -0.1394  0.0981 -0.2926
12324TIP3   OH258462   6.069   5.103  11.149 -0.0898 -0.2505 -0.0563
12324TIP3    H158463   6.032   5.059  11.073 -0.0885 -1.0425  0.3881
12324TIP3    H258464   6.125   5.171  11.113 -1.0802  0.2127 -0.7418
12325TIP3   OH258465   3.998   1.230   5.652  0.3043  0.2005  0.5935
12325TIP3    H158466   3.976   1.149   5.606  0.3377  0.4738  0.0859
12325TIP3    H258467   3.916   1.256   5.695 -0.1019  0.6658 -0.4403
12326TIP3   OH258468   2.843   3.090   3.030  0.3761 -0.3937 -0.5204
12326TIP3    H158469   2.925   3.132   3.003  0.6893  0.1921  1.2058
12326TIP3    H258470   2.775   3.137   2.981  0.9750 -0.0200 -1.0134
12327TIP3   OH258471   0.264   3.043   1.292 -0.0293  0.9135 -0.3470
12327TIP3    H158472   0.281   3.017   1.383 -1.2463 -2.9334 -1.0204
12327TIP3    H258473   0.174   3.074   1.293  0.5564  2.7010  0.0052
12328TIP3   OH258474   0.709   5.189  12.178  0.3175 -0.6149 -0.0779
12328TIP3    H158475   0.619   5.179  12.147  0.0560  1.5868 -0.2031
12328TIP3    H258476   0.760   5.208  12.099  0.6301 -0.4455  0.1622
12329TIP3   OH258477   6.462   0.513  13.498 -0.1607  0.1682 -0.1936
12329TIP3    H158478   6.451   0.425  13.462 -1.7735  0.7166 -1.1428
12329TIP3    H258479   6.550   0.539  13.471  0.1488 -0.9576 -0.3193
12330TIP3   OH258480   5.013   0.829   5.735 -0.4571  0.5496  0.0179
12330TIP3    H158481   4.959   0.759   5.771  1.3403  0.3621  2.7178
12330TIP3    H258482   5.078   0.784   5.681 -0.8761  0.4252 -0.3870
12331TIP3   OH258483   3.311   0.240  14.514  0.1302  0.0881 -0.6157
12331TIP3    H158484   3.285   0.158  14.555 -1.7270 -0.0106 -1.8910
12331TIP3    H258485   3.356   0.214  14.434  1.3891  0.3209 -0.0114
12332TIP3   OH258486   0.073   4.260  15.498 -0.0768 -0.0360  0.7496
12332TIP3    H158487   0.134   4.199  15.540 -0.7685 -1.1032  0.2417
12332TIP3    H258488   0.071   4.233  15.406  0.3531  1.3926  0.3037
12333TIP3   OH258489   6.061   2.631   5.647 -0.0145 -0.0723  0.8329
12333TIP3    H158490   6.022   2.543   5.651  1.1676 -0.6580 -0.1563
12333TIP3    H258491   6.154   2.617   5.664  0.1236  1.0593  1.1007
12334TIP3   OH258492   4.640   5.816  12.648 -0.0349  0.1176 -0.2797
12334TIP3    H158493   4.566   5.796  12.706  0.4793 -1.2635 -0.0650
12334TIP3    H258494   4.706   5.856  12.705 -0.5308  1.2369 -0.4487
12335TIP3   OH258495   1.145   0.276   0.017 -0.1624 -0.5400 -0.3669
12335TIP3    H158496   1.080   0.225   0.064 -0.2500  1.1429  1.4636
12335TIP3    H258497   1.201   0.313   0.086  0.4449  1.0597 -1.6530
12336TIP3   OH258498   3.331   0.649  13.624  0.0305  0.0271 -0.1886
12336TIP3    H158499   3.346   0.742  13.640  0.5199 -0.1620  0.4619
12336TIP3    H258500   3.254   0.628  13.676  0.0144  0.0268 -0.2121
12337TIP3   OH258501   3.795   4.202  16.262  0.1869  0.4892 -0.0731
12337TIP3    H158502   3.704   4.202  16.233 -0.0013 -0.6849  0.4766
12337TIP3    H258503   3.790   4.181  16.355  0.9804  1.1747  0.1394
12338TIP3   OH258504   1.880   4.984  14.605 -0.5848  0.1584  0.1871
12338TIP3    H158505   1.858   5.034  14.526 -0.6986  1.7496  1.1817
12338TIP3    H258506   1.893   5.050  14.672  1.5108 -1.0453  1.0592
12339TIP3   OH258507   3.486   1.680   3.878 -0.3126 -0.6112  0.0538
12339TIP3    H158508   3.453   1.675   3.789  1.4666 -0.7027 -0.6305
12339TIP3    H258509   3.512   1.771   3.889 -1.8492 -0.2340  1.0279
12340TIP3   OH258510   1.179   2.792  10.486 -0.0242 -0.0257  0.2727
12340TIP3    H158511   1.233   2.865  10.518 -0.1811  0.6461 -0.9247
12340TIP3    H258512   1.111   2.782  10.552 -0.8395  1.8918 -0.1949
12341TIP3   OH258513   4.687   0.934  16.737  0.5238  0.0569  0.6555
12341TIP3    H158514   4.631   0.922  16.814 -0.2608 -0.5926  0.0056
12341TIP3    H258515   4.717   1.025  16.743  0.6169 -0.0403  1.8138
12342TIP3   OH258516   5.892   1.420   3.981  0.0481  0.8958  0.3034
12342TIP3    H158517   5.983   1.429   4.009  0.2581 -1.3312  0.4582
12342TIP3    H258518   5.857   1.350   4.035 -1.8738  1.9201  0.4505
12343TIP3   OH258519   4.323   0.901  16.312 -0.4142 -0.2590  0.3653
12343TIP3    H158520   4.350   0.901  16.404 -2.5279 -2.7377  1.1317
12343TIP3    H258521   4.277   0.984  16.300  1.4121  0.8953  0.9699
12344TIP3   OH258522   1.359   5.779  17.224  0.3463 -0.1916 -0.0888
12344TIP3    H158523   1.454   5.770  17.211 -0.0865 -2.2384 -2.6843
12344TIP3    H258524   1.345   5.873  17.233  2.4876  0.3084 -1.2659
12345TIP3   OH258525   4.477   6.239  13.865  0.2622 -0.0674  0.8031
12345TIP3    H158526   4.456   6.146  13.868  1.6046 -0.4116  0.5174
12345TIP3    H258527   4.570   6.242  13.841 -0.6376  1.4160 -3.3771
12346TIP3   OH258528   3.821   3.953  15.870 -0.0553  0.4502  0.1089
12346TIP3    H158529   3.852   4.011  15.940  0.8602  0.1676 -0.0612
12346TIP3    H258530   3.886   3.883  15.866 -0.7186 -0.1547 -0.2496
12347TIP3   OH258531   4.515   6.268  15.064 -0.0958  0.2794  0.6126
12347TIP3    H158532   4.589   6.306  15.016 -0.6737  2.6468  1.4327
12347TIP3    H258533   4.553   6.238  15.146  0.4154 -1.2293 -0.1433
12348TIP3   OH258534   6.429   1.499   3.351  0.5632 -0.6150  0.2168
12348TIP3    H158535   6.443   1.505   3.257 -1.8386 -0.6005 -0.2068
12348TIP3    H258536   6.450   1.586   3.384  1.3250 -0.5950 -0.3047
12349TIP3   OH258537   0.946   5.726  14.072 -0.6549  0.0265 -0.1272
12349TIP3    H158538   0.936   5.818  14.048 -0.5711 -0.0032 -0.2783
12349TIP3    H258539   1.017   5.725  14.136 -1.8191  0.2835  1.2136
12350TIP3   OH258540   1.132   6.005  15.489 -0.2659  0.3871  0.4762
12350TIP3    H158541   1.197   6.001  15.419  0.4427 -1.2782  1.1796
12350TIP3    H258542   1.180   6.035  15.565 -0.6729  0.5911  0.6588
12351TIP3   OH258543   5.787   5.884   2.111  0.5858  0.4113 -0.3910
12351TIP3    H158544   5.824   5.805   2.151 -1.4030  0.4924  1.8879
12351TIP3    H258545   5.743   5.853   2.033 -1.8466 -1.2140  1.4758
12352TIP3   OH258546   0.307   2.866  16.213 -0.1980 -0.4633  0.0193
12352TIP3    H158547   0.314   2.955  16.177  0.1304 -0.3509  0.3546
12352TIP3    H258548   0.213   2.853  16.227 -0.2398 -0.1368  0.0507
12353TIP3   OH258549   6.620   2.734   1.821  0.1820 -0.3552 -0.0740
12353TIP3    H158550   6.604   2.796   1.892  3.0353  0.7881 -0.3085
12353TIP3    H258551   6.656   2.656   1.864 -1.0138 -0.8971 -0.0196
12354TIP3   OH258552   6.476   3.941   5.763  0.6374  0.3985 -0.3879
12354TIP3    H158553   6.454   3.922   5.854 -1.8556 -1.1912 -1.2066
12354TIP3    H258554   6.444   4.030   5.749  0.7596  0.5412  0.2044
12355TIP3   OH258555   6.396   1.999  13.736  0.6359  0.4688 -0.4321
12355TIP3    H158556   6.436   2.072  13.783  1.3613  0.4973 -1.0725
12355TIP3    H258557   6.468   1.938  13.721 -0.1455 -0.8336  0.9334
12356TIP3   OH258558   0.166   5.558  12.578 -0.2142 -0.1575  0.2735
12356TIP3    H158559   0.242   5.532  12.631 -0.7251 -0.1038  1.0427
12356TIP3    H258560   0.148   5.648  12.605 -0.9978 -0.4158  0.6265
12357TIP3   OH258561   3.549   1.793   2.503 -0.2064 -0.4389  0.3276
12357TIP3    H158562   3.584   1.726   2.445 -1.6214 -1.1531  0.2603
12357TIP3    H258563   3.626   1.836   2.539  0.7029 -0.7447 -1.1880
12358TIP3   OH258564   4.442   6.412   2.471 -0.1102  0.3729  0.4786
12358TIP3    H158565   4.367   6.385   2.419  1.0673 -2.6026  0.1479
12358TIP3    H258566   4.410   6.409   2.562 -1.0263  1.5721  0.2210
12359TIP3   OH258567   6.223   5.654   0.808 -0.0118 -0.0181 -0.1146
12359TIP3    H158568   6.243   5.736   0.852 -1.9204 -0.1436  1.1053
12359TIP3    H258569   6.209   5.678   0.716 -1.0912  1.1273  0.3294
12360TIP3   OH258570   4.784   0.997  15.546 -0.6280 -0.5603  0.4286
12360TIP3    H158571   4.861   1.041  15.583 -1.2445  0.1572  0.8730
12360TIP3    H258572   4.818   0.912  15.517  0.4655 -0.0085  0.0246
12361TIP3   OH258573   3.626   3.719   0.598 -0.1022 -0.1447 -0.1582
12361TIP3    H158574   3.718   3.740   0.614 -0.2050  0.8121 -0.7813
12361TIP3    H258575   3.602   3.770   0.521 -0.8005 -1.3740 -0.7973
12362TIP3   OH258576   2.617   2.953   4.618  0.2501  0.3497 -0.1155
12362TIP3    H158577   2.689   3.013   4.637 -0.0741 -0.3823  4.3732
12362TIP3    H258578   2.541   2.992   4.661 -0.9510 -1.1931 -0.7452
12363TIP3   OH258579   2.670   0.000  15.086  0.1968  0.3063  0.0474
12363TIP3    H158580   2.583  -0.040  15.092  0.5773 -0.9502 -2.1214
12363TIP3    H258581   2.726  -0.056  15.140 -0.0794  0.4250  0.4676
12364TIP3   OH258582   0.685   1.092  15.285 -0.4809 -0.1524 -0.1206
12364TIP3    H158583   0.719   1.007  15.254  0.8181 -0.1010  1.0706
12364TIP3    H258584   0.763   1.142  15.308 -1.2796  1.0002  0.1524
12365TIP3   OH258585   5.846   4.553   5.232 -0.1198  0.7714 -0.2481
12365TIP3    H158586   5.858   4.582   5.322  2.3988  1.7141 -0.8140
12365TIP3    H258587   5.807   4.465   5.240  0.3143  0.7222  1.7484
12366TIP3   OH258588   6.205   3.133  12.563 -0.6406 -0.0300 -0.5973
12366TIP3    H158589   6.273   3.087  12.513 -1.3696 -1.6784 -0.1510
12366TIP3    H258590   6.209   3.223  12.531 -0.6091 -0.8376 -3.1796
12367TIP3   OH258591   5.541   5.382   2.555  0.2698 -0.1397 -0.0045
12367TIP3    H158592   5.575   5.427   2.478 -0.7097 -0.8292 -0.8670
12367TIP3    H258593   5.604   5.403   2.624  0.7159  1.1883 -0.7670
12368TIP3   OH258594   6.755   0.872  12.235 -0.6161  0.2591 -0.4450
12368TIP3    H158595   6.750   0.917  12.150  0.1369  0.8934 -0.1659
12368TIP3    H258596   6.778   0.941  12.297 -2.3187  0.0407  0.4974
12369TIP3   OH258597   4.628   4.420  16.385 -0.5633 -0.2248 -0.4060
12369TIP3    H158598   4.552   4.479  16.387 -1.0752 -0.8543 -0.8838
12369TIP3    H258599   4.704   4.479  16.394 -1.1366  0.2049  2.5115
12370TIP3   OH258600   2.632   4.699   3.244  0.3850 -0.4808  0.1986
12370TIP3    H158601   2.630   4.749   3.162  0.5037 -0.6227  0.1083
12370TIP3    H258602   2.572   4.626   3.229  0.2497 -0.3932  0.3126
12371TIP3   OH258603   4.365   4.958   2.601 -0.1937  0.2166  0.5741
12371TIP3    H158604   4.399   4.893   2.662  0.6546  0.1616  0.0599
12371TIP3    H258605   4.356   5.038   2.654  0.9201  0.2823  0.6971
12372TIP3   OH258606   0.103   3.584  15.363  0.3272  0.2745  0.4736
12372TIP3    H158607   0.024   3.637  15.372  0.4787  0.6946 -0.6425
12372TIP3    H258608   0.122   3.555  15.453 -2.3576 -1.7100  0.5284
12373TIP3   OH258609   3.137   1.249   5.030  0.3150  0.1082  0.0569
12373TIP3    H158610   3.047   1.222   5.052 -0.5437  0.5540 -2.5460
12373TIP3    H258611   3.156   1.320   5.091 -1.9761  1.4497 -0.6723
12374TIP3   OH258612   6.248   6.581  16.374  0.3248 -0.1672 -0.1627
12374TIP3    H158613   6.281   6.493  16.356  1.3635  0.1678  0.0919
12374TIP3    H258614   6.286   6.635  16.305 -0.7621  0.0056 -0.6585
12375TIP3   OH258615   4.048   2.277  12.389 -0.4493 -0.3831  0.2579
12375TIP3    H158616   4.086   2.200  12.347  1.4981  0.6536 -0.0177
12375TIP3    H258617   4.069   2.349  12.330  1.1567  0.9101  2.2626
12376TIP3   OH258618   3.856   2.499   5.465  0.4345  0.3531 -0.4067
12376TIP3    H158619   3.811   2.456   5.392  1.4102 -1.4082 -0.0398
12376TIP3    H258620   3.787   2.518   5.529  0.1176 -2.2082  0.1090
12377TIP3   OH258621   5.455   2.048   3.135 -0.6935 -0.0894  0.7389
12377TIP3    H158622   5.551   2.043   3.138 -0.7588 -1.1719  2.3402
12377TIP3    H258623   5.429   1.965   3.097 -0.9945  0.6001 -0.6054
12378TIP3   OH258624   4.401   5.350  15.711 -0.4428  0.2478  0.3177
12378TIP3    H158625   4.488   5.345  15.752  0.1596  0.0317 -0.9222
12378TIP3    H258626   4.394   5.440  15.682 -0.5604  0.2266  0.2830
12379TIP3   OH258627   1.413   3.931   5.449  0.1511 -0.2618 -0.0894
12379TIP3    H158628   1.422   3.838   5.470  2.0127  0.0259  0.6165
12379TIP3    H258629   1.363   3.934   5.368 -1.4967 -1.7772  0.8098
12380TIP3   OH258630   0.643   5.188   3.988  0.6841 -0.4232 -0.2388
12380TIP3    H158631   0.662   5.217   4.077 -1.8240 -0.5236  0.4058
12380TIP3    H258632   0.569   5.242   3.960  3.0502  1.5105 -3.3723
12381TIP3   OH258633   4.375   0.681  13.731  0.1706  0.7017  0.1804
12381TIP3    H158634   4.286   0.710  13.752  0.6502  1.1144  1.7334
12381TIP3    H258635   4.388   0.603  13.784  0.8529  0.8274  0.2071
12382TIP3   OH258636   1.620   4.257  11.850 -0.0605  0.7029  0.7381
12382TIP3    H158637   1.592   4.166  11.866 -0.0028  0.8357  1.6015
12382TIP3    H258638   1.704   4.265  11.895  1.3539  0.3667 -1.6726
12383TIP3   OH258639   3.148   6.060  12.266  0.5011  0.0080 -0.5350
12383TIP3    H158640   3.235   6.091  12.239  1.5940 -1.0875  1.4972
12383TIP3    H258641   3.124   6.117  12.339  0.3829 -0.8376  0.1073
12384TIP3   OH258642   5.734   6.173   5.813 -0.5214  0.4018  0.2787
12384TIP3    H158643   5.783   6.212   5.740 -2.0286  2.3307  0.2176
12384TIP3    H258644   5.781   6.202   5.891 -1.3034  1.9787  0.2086
12385TIP3   OH258645   0.884   4.480   0.501  0.0949 -0.3188 -0.2253
12385TIP3    H158646   0.842   4.565   0.512  0.3213 -0.1303 -0.7911
12385TIP3    H258647   0.978   4.498   0.504  0.1664 -0.3889 -1.3626
12386TIP3   OH258648   1.408   0.135  11.312 -0.2959  0.1306  0.4468
12386TIP3    H158649   1.334   0.179  11.355 -1.3894 -3.2729  2.5023
12386TIP3    H258650   1.486   0.171  11.355 -1.1599 -0.0470  2.2953
12387TIP3   OH258651   0.356   5.410   3.627 -0.3202  0.0666  0.3434
12387TIP3    H158652   0.445   5.385   3.654 -0.2071  1.2664  1.1378
12387TIP3    H258653   0.358   5.403   3.531  0.5546 -0.1646  0.3632
12388TIP3   OH258654   1.594   4.546  16.339 -0.0527 -0.4361 -0.0583
12388TIP3    H158655   1.644   4.517  16.263 -0.3554 -2.6421  0.5231
12388TIP3    H258656   1.640   4.510  16.414  0.9301  2.6829  1.0144
12389TIP3   OH258657   0.077   5.312   3.222  0.0932 -0.3029  0.1911
12389TIP3    H158658  -0.017   5.300   3.233 -0.1784 -0.2578 -1.7433
12389TIP3    H258659   0.086   5.355   3.136  1.9657 -2.1346 -0.6149
12390TIP3   OH258660   2.311   6.304   1.620 -0.0909 -0.1049 -0.2451
12390TIP3    H158661   2.406   6.301   1.620 -0.1076 -1.4023  0.6150
12390TIP3    H258662   2.289   6.381   1.567  1.4308  0.8700  0.4770
12391TIP3   OH258663   2.761   1.391   5.392 -0.1030  0.0053  0.3204
12391TIP3    H158664   2.813   1.384   5.472  0.3169  0.7637  0.1159
12391TIP3    H258665   2.723   1.304   5.381  0.8481 -0.4693  0.6560
12392TIP3   OH258666   0.023   1.669  16.801 -0.4764 -0.0296  0.5988
12392TIP3    H158667   0.116   1.673  16.820  0.2126 -3.5777 -1.1988
12392TIP3    H258668   0.011   1.729  16.727  0.5681 -0.2649  0.2340
12393TIP3   OH258669   1.828   2.045   5.675 -0.1861  0.1465 -0.0640
12393TIP3    H158670   1.883   1.974   5.642 -0.2069 -0.8032  1.7931
12393TIP3    H258671   1.885   2.122   5.673  1.3719 -0.8380  1.9605
12394TIP3   OH258672   4.589   5.935   3.718 -0.2155 -0.4490 -0.2054
12394TIP3    H158673   4.669   5.934   3.771  0.7251 -1.5819 -1.5504
12394TIP3    H258674   4.520   5.962   3.778  1.1736  0.5589  1.0074
12395TIP3   OH258675   5.908   4.299   1.029  0.1843 -0.2515 -0.1600
12395TIP3    H158676   5.817   4.321   1.010 -0.2265 -0.0772  1.8201
12395TIP3    H258677   5.956   4.381   1.015 -0.2579  0.1284  0.4922
12396TIP3   OH258678   3.558   0.060  12.306 -0.3695 -0.0362 -0.2078
12396TIP3    H158679   3.643   0.015  12.312  0.3381  1.1022 -1.1652
12396TIP3    H258680   3.494  -0.005  12.336  0.8023 -1.0216  0.2557
12397TIP3   OH258681   3.903   4.559  15.039  0.1036 -0.0315  0.4557
12397TIP3    H158682   3.991   4.589  15.062  0.7076 -0.1877 -1.4486
12397TIP3    H258683   3.908   4.540  14.945 -1.9013 -0.2974  0.3558
12398TIP3   OH258684   2.920   4.431  15.338 -0.8024 -0.3348  0.5589
12398TIP3    H158685   2.927   4.378  15.259 -0.1244 -0.3805  0.6461
12398TIP3    H258686   2.963   4.379  15.406  1.4453  1.0552  0.2773
12399TIP3   OH258687   0.097   2.653  13.028  0.6028  0.5079 -0.8364
12399TIP3    H158688   0.128   2.723  13.086  0.7317 -1.2058  1.3309
12399TIP3    H258689   0.138   2.671  12.944  0.5266  3.0674 -0.3953
12400TIP3   OH258690   6.046   6.252   1.118 -0.8753 -0.1115  0.1597
12400TIP3    H158691   6.020   6.343   1.107  1.5387  0.5997 -0.3684
12400TIP3    H258692   5.966   6.206   1.142 -2.6272  1.7256 -1.8354
12401TIP3   OH258693   1.319   2.765   4.175  0.3959 -0.4188 -0.0627
12401TIP3    H158694   1.301   2.693   4.235  2.1636 -0.3299  0.6079
12401TIP3    H258695   1.395   2.737   4.125 -0.2256  0.0832 -1.3279
12402TIP3   OH258696   0.571   5.624  12.384  0.5152  0.2220 -0.2056
12402TIP3    H158697   0.574   5.625  12.479  0.1360  0.0639 -0.1888
12402TIP3    H258698   0.479   5.606  12.363  0.7789 -0.7273 -0.5907
12403TIP3   OH258699   0.586   3.416   1.897  0.2269  0.3373 -0.6374
12403TIP3    H158700   0.602   3.476   1.824  0.0527 -1.6479 -2.4291
12403TIP3    H258701   0.491   3.401   1.895  0.5077 -1.7018 -1.7691
12404TIP3   OH258702   3.250   4.124   4.032 -0.3634  0.8324  0.0889
12404TIP3    H158703   3.329   4.081   3.999 -0.1736  1.4065 -0.2302
12404TIP3    H258704   3.248   4.208   3.986 -1.4806  0.5782 -0.3551
12405TIP3   OH258705   6.634   1.730   2.481 -0.6994  0.0827 -0.5337
12405TIP3    H158706   6.720   1.764   2.456 -0.3212 -1.7536 -1.9905
12405TIP3    H258707   6.605   1.680   2.404 -2.1064 -1.1137  0.7015
12406TIP3   OH258708   2.224   0.321   4.920 -0.4734  0.2356 -0.2754
12406TIP3    H158709   2.151   0.361   4.968 -1.0774  1.1209 -1.8869
12406TIP3    H258710   2.297   0.380   4.935  0.7038 -1.8316  3.3080
12407TIP3   OH258711   6.335   1.811   1.195 -0.4041 -0.3691  0.0030
12407TIP3    H158712   6.389   1.788   1.120  0.5141 -1.9813  1.1018
12407TIP3    H258713   6.291   1.892   1.169  2.6996  1.1781 -0.8738
12408TIP3   OH258714   1.930   4.649   5.546  0.1197  0.3383  0.2003
12408TIP3    H158715   1.975   4.615   5.623 -0.8859  0.6969  0.9691
12408TIP3    H258716   1.970   4.734   5.530 -0.7303  0.9772  1.3190
12409TIP3   OH258717   2.259   3.651   6.892  0.1299  0.4155 -0.2683
12409TIP3    H158718   2.193   3.711   6.855  0.3711  0.8331 -0.0337
12409TIP3    H258719   2.311   3.624   6.817  1.6387  2.5271 -0.0598
12410TIP3   OH258720   3.740   3.423   2.957  0.3200 -0.3181 -0.3174
12410TIP3    H158721   3.786   3.358   3.010  0.8994 -0.3000 -0.7883
12410TIP3    H258722   3.769   3.405   2.867 -0.9286 -0.5929 -0.6888
12411TIP3   OH258723   1.467   0.878   3.870 -0.0016  0.2393  0.6849
12411TIP3    H158724   1.523   0.863   3.794  1.2123 -0.9588  1.7643
12411TIP3    H258725   1.386   0.830   3.850 -0.1106  0.8049 -0.2767
12412TIP3   OH258726   2.383   6.720  13.517 -0.3496  0.3429 -0.2400
12412TIP3    H158727   2.349   6.641  13.475  1.0470 -0.5307  0.2061
12412TIP3    H258728   2.336   6.724  13.601 -2.0176  1.2397 -1.1628
12413TIP3   OH258729   6.123   3.642  11.908  0.7030  0.8700 -0.4684
12413TIP3    H158730   6.144   3.593  11.828 -0.0275 -0.0449 -0.1200
12413TIP3    H258731   6.043   3.601  11.940  1.6699  0.3833  1.4310
12414TIP3   OH258732   1.889   1.652   0.535  0.0483  0.2884 -0.1899
12414TIP3    H158733   1.840   1.574   0.564  1.5281 -1.7022 -2.5943
12414TIP3    H258734   1.889   1.645   0.439  0.4220  3.2051 -0.4830
12415TIP3   OH258735   6.293   5.159   2.529 -0.1684  0.4582  0.3085
12415TIP3    H158736   6.351   5.191   2.598 -2.1399  5.0662  0.2025
12415TIP3    H258737   6.337   5.185   2.447 -0.4531  0.1516  0.0548
12416TIP3   OH258738   6.241   2.034  15.453 -0.1371 -0.3395  0.5382
12416TIP3    H158739   6.211   2.124  15.458  1.0314  0.0380  1.2320
12416TIP3    H258740   6.222   2.006  15.363 -1.1259  0.3602  0.5240
12417TIP3   OH258741   0.935   1.539   0.468 -0.1104 -0.0623  0.4966
12417TIP3    H158742   1.000   1.528   0.538  0.9305 -0.7563 -0.5384
12417TIP3    H258743   0.969   1.612   0.416  0.2909 -0.9373 -0.5053
12418TIP3   OH258744   6.220   1.695   6.609 -0.1184 -0.1852 -0.0850
12418TIP3    H158745   6.250   1.638   6.681 -1.0693  0.0145  0.4821
12418TIP3    H258746   6.125   1.698   6.619 -0.1371  0.9746 -0.5109
12419TIP3   OH258747   2.239   6.762  15.246 -0.9702  0.5345  0.4656
12419TIP3    H158748   2.315   6.725  15.201 -0.7744  1.7195 -0.2329
12419TIP3    H258749   2.241   6.723  15.333 -0.7930 -1.0731 -0.2110
12420TIP3   OH258750   6.450   6.005   2.349  0.0922  0.2074 -0.3982
12420TIP3    H158751   6.503   6.058   2.290 -1.5413  1.0297 -1.1862
12420TIP3    H258752   6.365   6.049   2.351 -0.4341 -0.7858  1.2047
12421TIP3   OH258753   2.508   4.993   4.716  0.2865 -0.2205  0.3434
12421TIP3    H158754   2.545   5.045   4.787  1.9014  1.4899 -1.6497
12421TIP3    H258755   2.485   5.056   4.648 -0.2227 -1.8732 -1.1007
12422TIP3   OH258756   6.069   3.421  15.114  0.3283  0.1495  0.3701
12422TIP3    H158757   6.073   3.395  15.022 -0.0226 -0.5952  0.5602
12422TIP3    H258758   5.980   3.402  15.141  0.5367  0.0041  0.9739
12423TIP3   OH258759   3.049   2.689   2.063 -0.2713  0.1123 -0.0055
12423TIP3    H158760   3.116   2.681   1.995 -0.3402 -1.0663  0.0426
12423TIP3    H258761   2.988   2.755   2.030  0.2659  0.3212 -0.5989
12424TIP3   OH258762   2.642   3.050   2.379 -0.1287  0.6421  0.2912
12424TIP3    H158763   2.700   3.080   2.309 -1.8123  1.3433 -0.8561
12424TIP3    H258764   2.702   3.017   2.447  1.5836  1.0853 -0.9346
12425TIP3   OH258765   4.961   1.703   3.242  0.8006  0.2802 -0.0059
12425TIP3    H158766   5.023   1.648   3.290  1.2521  0.5166 -0.3106
12425TIP3    H258767   4.884   1.707   3.299  1.0494 -0.0446  0.3615
12426TIP3   OH258768   5.719   5.005  15.745  0.2136 -0.1713  0.4141
12426TIP3    H158769   5.635   5.039  15.715  0.1218 -0.4741  0.3234
12426TIP3    H258770   5.735   5.050  15.828  1.4268  2.1820 -0.9850
12427TIP3   OH258771   0.951   3.452  12.271  0.0414  0.5898  0.5719
12427TIP3    H158772   0.877   3.500  12.309 -1.8665 -0.1430 -1.9095
12427TIP3    H258773   0.997   3.518  12.219 -2.2554  0.0686 -2.3854
12428TIP3   OH258774   3.011   6.691  16.438  0.6246 -0.2151  0.0095
12428TIP3    H158775   3.082   6.635  16.470 -1.0107 -1.0926  2.3980
12428TIP3    H258776   2.990   6.655  16.352  1.5904 -1.3718  0.2275
12429TIP3   OH258777   5.087   6.779  14.699  0.0212 -0.4271 -0.3050
12429TIP3    H158778   5.085   6.748  14.790  1.8837 -1.1764 -0.4860
12429TIP3    H258779   5.096   6.874  14.707  1.0148 -0.5569  0.3250
12430TIP3   OH258780   0.706   3.376  13.224 -0.4359  0.1742 -0.1993
12430TIP3    H158781   0.646   3.394  13.296 -1.4061  0.6574 -1.0947
12430TIP3    H258782   0.791   3.361  13.266 -0.6292  1.9730  0.9320
12431TIP3   OH258783   4.062   1.730   0.808  0.5482 -0.2721 -0.3876
12431TIP3    H158784   4.122   1.720   0.735  1.4040  0.5295  0.1943
12431TIP3    H258785   4.096   1.804   0.859 -1.4607  0.8581 -0.5616
12432TIP3   OH258786   3.781   0.126   2.519 -0.2484  0.5134 -0.3978
12432TIP3    H158787   3.711   0.066   2.541  0.2817 -0.3192 -0.9419
12432TIP3    H258788   3.857   0.092   2.566  0.8373 -1.1111 -3.1192
12433TIP3   OH258789   0.971   1.104  15.659  0.4730 -0.1808 -0.1233
12433TIP3    H158790   0.942   1.170  15.722 -1.9505 -0.7317 -0.5658
12433TIP3    H258791   1.065   1.095  15.675  0.3580  1.3791  1.7946
12434TIP3   OH258792   4.030   4.555  14.278 -0.5752 -0.4866  0.3148
12434TIP3    H158793   3.986   4.601  14.207 -0.1942 -0.1434  0.2942
12434TIP3    H258794   4.086   4.491  14.234 -1.1184 -0.9941  0.3438
12435TIP3   OH258795   4.736   1.263  16.253  0.9640  0.4032 -0.7609
12435TIP3    H158796   4.771   1.301  16.173  2.5247  0.8789  0.1006
12435TIP3    H258797   4.790   1.186  16.269  1.0282  0.6136  0.1059
12436TIP3   OH258798   1.647   4.649   1.421  0.6528 -0.0793 -0.0430
12436TIP3    H158799   1.717   4.607   1.371  0.6709  0.2152 -0.2648
12436TIP3    H258800   1.634   4.733   1.378  0.1438 -0.1448 -0.0182
12437TIP3   OH258801   5.904   1.053   2.097  0.4223 -0.7356  0.6969
12437TIP3    H158802   5.935   1.086   2.181  0.9206 -0.1271  0.2817
12437TIP3    H258803   5.982   1.051   2.041 -0.2781  1.0025 -0.4248
12438TIP3   OH258804   3.635   5.881  15.398 -0.2206  0.2127  0.2589
12438TIP3    H158805   3.563   5.880  15.335 -0.2800  0.0475  0.3278
12438TIP3    H258806   3.714   5.872  15.345 -0.3579 -1.6421  0.3276
12439TIP3   OH258807   1.607   0.604  12.231  0.2580 -0.0988 -0.2479
12439TIP3    H158808   1.622   0.566  12.145 -0.2514  0.9216 -0.8184
12439TIP3    H258809   1.512   0.609  12.239  0.3055  1.0634 -0.2169
12440TIP3   OH258810   4.312   2.066  15.744 -0.2169  0.0418  0.0033
12440TIP3    H158811   4.256   2.019  15.805  0.9587 -0.0916  1.0208
12440TIP3    H258812   4.397   2.021  15.750  0.0881  0.4228 -1.2600
12441TIP3   OH258813   4.361   6.010  12.905  0.1763 -0.4288  0.0863
12441TIP3    H158814   4.280   5.998  12.856 -1.0781 -1.0274  2.1827
12441TIP3    H258815   4.385   5.923  12.935  1.2157 -0.1606  0.0796
12442TIP3   OH258816   4.432   2.456   1.478  0.4351 -0.0234  0.0074
12442TIP3    H158817   4.338   2.458   1.497  0.2774 -1.1304 -0.6183
12442TIP3    H258818   4.439   2.490   1.389  0.5581 -0.5206 -0.1761
12443TIP3   OH258819   3.535   3.111   2.358 -0.0125 -0.0020  0.1999
12443TIP3    H158820   3.496   3.028   2.331 -0.3398 -0.7419  2.6715
12443TIP3    H258821   3.508   3.174   2.291 -2.0246 -1.3307 -0.3111
12444TIP3   OH258822   6.754   4.714   3.828  0.1075  0.2099 -0.1474
12444TIP3    H158823   6.807   4.698   3.750 -1.6276  0.7913 -1.5152
12444TIP3    H258824   6.665   4.688   3.803 -0.6085  0.9844  1.4325
12445TIP3   OH258825   6.776   5.019  14.118  0.0582 -0.9473  0.0889
12445TIP3    H158826   6.828   4.966  14.178  1.8685  0.5823 -0.0343
12445TIP3    H258827   6.786   4.977  14.033  4.0199  1.0263 -0.6681
12446TIP3   OH258828   4.594   5.855   4.192 -1.1210  0.1895  0.0828
12446TIP3    H158829   4.610   5.811   4.108 -0.5724  1.1761 -0.3414
12446TIP3    H258830   4.609   5.948   4.174 -0.5362  0.3720  1.3804
12447TIP3   OH258831   2.324   6.075   0.241 -0.1258  0.4976  0.2674
12447TIP3    H158832   2.240   6.051   0.280 -0.0984 -0.1967 -0.0872
12447TIP3    H258833   2.303   6.143   0.177 -0.2846  1.0132  0.8529
12448TIP3   OH258834   4.168   6.776   4.789  0.7633 -0.1569 -0.2532
12448TIP3    H158835   4.223   6.821   4.853  0.9952  0.6125 -0.9863
12448TIP3    H258836   4.082   6.818   4.798  0.9010  0.2271 -0.7281
12449TIP3   OH258837   1.232   2.356   3.751  0.2341  0.2594  0.3459
12449TIP3    H158838   1.196   2.305   3.678  0.3945 -0.4739  0.7589
12449TIP3    H258839   1.304   2.302   3.783 -0.3518  0.1767  1.5717
12450TIP3   OH258840   6.033   0.100  12.939  0.0605  0.5924  0.5484
12450TIP3    H158841   6.064   0.186  12.968  2.3701  0.2831 -0.8139
12450TIP3    H258842   5.981   0.118  12.860 -0.7838  0.8419  1.1450
12451TIP3   OH258843   1.225   6.504   1.724  0.0445  0.0799 -0.1847
12451TIP3    H158844   1.314   6.474   1.706  0.3477  0.2125  0.9768
12451TIP3    H258845   1.227   6.529   1.817 -1.3946 -0.6194  0.0581
12452TIP3   OH258846   3.171   2.950  11.925 -0.3041  0.4889 -0.1222
12452TIP3    H158847   3.152   2.876  11.867  1.9914  0.8260 -1.4170
12452TIP3    H258848   3.177   2.911  12.013  0.3595 -0.8074 -0.7131
12453TIP3   OH258849   4.219   2.210  13.616  0.0541  0.4418 -0.0019
12453TIP3    H158850   4.287   2.143  13.623  0.2577  0.5720 -0.6615
12453TIP3    H258851   4.188   2.222  13.706 -0.3848 -0.9381  0.0608
12454TIP3   OH258852   0.558   1.705   2.551  0.3219 -0.4792 -0.0812
12454TIP3    H158853   0.648   1.674   2.566  0.1088 -0.8721  0.4340
12454TIP3    H258854   0.564   1.801   2.558  0.5556 -0.5524  0.8097
12455TIP3   OH258855   6.514   6.221   0.321  0.4109 -0.0093  0.0559
12455TIP3    H158856   6.505   6.193   0.230  4.1762  1.8943 -1.1198
12455TIP3    H258857   6.555   6.147   0.365 -1.1307 -0.8201  0.1770
12456TIP3   OH258858   2.138   5.445   4.977  0.1127  0.1321  0.1905
12456TIP3    H158859   2.149   5.538   4.958 -0.2451  0.0229 -0.5785
12456TIP3    H258860   2.076   5.443   5.050 -1.0194  0.4488 -0.7513
12457TIP3   OH258861   5.936   0.450   3.287 -0.2941  0.1079  0.2576
12457TIP3    H158862   5.984   0.485   3.362 -0.7628  0.0170  0.6074
12457TIP3    H258863   5.994   0.384   3.249 -0.0688  0.1317  0.5596
12458TIP3   OH258864   0.139   5.108  15.648 -0.3943 -0.6282 -0.0014
12458TIP3    H158865   0.085   5.030  15.666 -0.0096 -0.9639 -0.2878
12458TIP3    H258866   0.228   5.079  15.668 -0.2128 -0.3563 -0.4290
12459TIP3   OH258867   6.284   4.205   5.072 -0.1464  0.0777  0.0306
12459TIP3    H158868   6.350   4.145   5.036  1.4873  0.5034  2.1128
12459TIP3    H258869   6.308   4.291   5.038  0.5831  0.2688  0.9659
12460TIP3   OH258870   4.988   3.056   0.319 -0.1164  0.1628 -0.5551
12460TIP3    H158871   5.012   3.005   0.396 -1.2659  0.0349 -0.2567
12460TIP3    H258872   4.941   2.994   0.263  2.3685 -0.2935 -2.3167
12461TIP3   OH258873   1.488   1.784  12.700  0.0830 -0.1547 -0.1304
12461TIP3    H158874   1.421   1.752  12.640  0.9797  0.3647 -1.4695
12461TIP3    H258875   1.554   1.825  12.643  0.2736  1.6923  1.2934
12462TIP3   OH258876   1.174   5.733   4.282  0.3325  0.1985  0.5095
12462TIP3    H158877   1.193   5.727   4.376 -1.3264  0.2519  0.8928
12462TIP3    H258878   1.087   5.695   4.274 -0.5227  2.2451 -0.6466
12463TIP3   OH258879   3.423   6.445  14.401  0.0697  0.8148  0.0308
12463TIP3    H158880   3.440   6.467  14.309  1.5154  0.0683  0.0881
12463TIP3    H258881   3.410   6.350  14.400  0.0958  0.8070  0.6000
12464TIP3   OH258882   2.822   0.364  12.465 -0.3829 -0.0915  0.1759
12464TIP3    H158883   2.875   0.372  12.544  1.3986  0.3919 -1.0164
12464TIP3    H258884   2.824   0.271  12.444  0.7828  0.0399 -0.3585
12465TIP3   OH258885   2.551   4.423  16.825  0.0961  0.2836 -0.8313
12465TIP3    H158886   2.519   4.504  16.788 -1.8473  0.3706  0.8655
12465TIP3    H258887   2.567   4.444  16.918  0.6600 -0.9743 -0.6230
12466TIP3   OH258888   5.587   5.409  13.556 -0.5732  0.1951 -0.0916
12466TIP3    H158889   5.534   5.464  13.614  1.3695  2.2962 -0.1621
12466TIP3    H258890   5.623   5.470  13.492 -0.2741 -1.6117 -1.7252
12467TIP3   OH258891   3.894   6.771   5.510  0.2412  0.2803 -0.0343
12467TIP3    H158892   3.812   6.819   5.501  0.3891  0.7258  0.8327
12467TIP3    H258893   3.869   6.688   5.553  0.1169 -0.0082 -0.6572
12468TIP3   OH258894   0.412   5.620   0.637 -0.6166 -0.4647 -0.5008
12468TIP3    H158895   0.417   5.633   0.732  0.4600  0.3513 -0.6602
12468TIP3    H258896   0.347   5.550   0.626  1.0414 -2.3510  0.9818
12469TIP3   OH258897   6.545   6.239   5.833  0.0097 -0.2885 -0.6977
12469TIP3    H158898   6.561   6.327   5.798 -2.8184  1.7871  2.6154
12469TIP3    H258899   6.462   6.213   5.794 -0.2544 -0.5173  0.0157
12470TIP3   OH258900   3.104   5.402  14.809 -0.1147  0.3502  0.1402
12470TIP3    H158901   3.169   5.466  14.781 -0.0280  0.9440  1.5868
12470TIP3    H258902   3.126   5.384  14.901 -1.0267 -0.6562  0.1833
12471TIP3   OH258903   1.481   4.876   2.599  0.1334  0.2804  0.3778
12471TIP3    H158904   1.403   4.831   2.630 -0.3598 -1.1232 -2.5478
12471TIP3    H258905   1.552   4.813   2.612  0.0602 -0.0028 -0.5349
12472TIP3   OH258906   1.427   4.350   4.174 -0.4642  0.5150 -0.1919
12472TIP3    H158907   1.360   4.415   4.154  0.4015  1.5764  0.2198
12472TIP3    H258908   1.452   4.314   4.089 -0.8136  0.8610 -0.4445
12473TIP3   OH258909   0.982   0.241   5.975 -0.1010 -0.5012 -0.3388
12473TIP3    H158910   0.924   0.264   6.047 -0.6039 -0.5101 -0.7412
12473TIP3    H258911   1.050   0.309   5.977 -0.6121  0.0167 -0.4236
12474TIP3   OH258912   1.362   2.979   0.153 -0.7222  0.4724 -0.5913
12474TIP3    H158913   1.387   3.071   0.140 -1.3537  0.4525 -2.1228
12474TIP3    H258914   1.444   2.933   0.169 -0.2440  1.0659 -1.3241
12475TIP3   OH258915   1.605   6.127   4.129  0.3731 -0.3868  0.1012
12475TIP3    H158916   1.581   6.037   4.151 -2.2496  0.8848  3.2312
12475TIP3    H258917   1.699   6.132   4.147  0.2142 -2.0812  1.7062
12476TIP3   OH258918   3.164   1.019   4.604  0.8626  0.4702  0.3329
12476TIP3    H158919   3.145   1.014   4.698  0.3353 -0.9097  0.1652
12476TIP3    H258920   3.125   0.940   4.567 -0.9926  2.0880 -1.4172
12477TIP3   OH258921   1.672   6.765   1.947  0.1976 -0.0452  0.3610
12477TIP3    H158922   1.647   6.730   1.861  2.4081 -1.0594  0.0644
12477TIP3    H258923   1.657   6.693   2.008 -0.9526  0.5344  0.8130
12478TIP3   OH258924   3.796   5.578  12.496 -0.0748 -0.1820  0.1454
12478TIP3    H158925   3.769   5.497  12.454  1.0071 -1.6128  2.0773
12478TIP3    H258926   3.885   5.562  12.526  0.6875  2.2074 -0.5654
12479TIP3   OH258927   5.626   5.572  12.676 -0.2233  0.2105  0.0430
12479TIP3    H158928   5.571   5.502  12.712  1.4331 -0.4703  1.4106
12479TIP3    H258929   5.636   5.634  12.749  1.0938  0.1293 -0.0483
12480TIP3   OH258930   0.799   4.785  13.372 -0.3404 -0.8967 -0.3077
12480TIP3    H158931   0.762   4.833  13.299  0.0531 -0.6562 -0.3548
12480TIP3    H258932   0.725   4.740  13.412 -0.8596  0.3861  0.2254
12481TIP3   OH258933   6.153   5.220   1.331 -0.1704 -0.5093  0.1657
12481TIP3    H158934   6.173   5.135   1.293  0.8074 -1.5171  2.7353
12481TIP3    H258935   6.226   5.238   1.390 -1.0354  1.4666  0.7183
12482TIP3   OH258936   3.689   5.064   4.427  0.7412 -0.0477  0.2721
12482TIP3    H158937   3.670   5.141   4.374 -0.9639 -1.2154 -0.8928
12482TIP3    H258938   3.755   5.016   4.377  0.7852 -0.0298  0.3131
12483TIP3   OH258939   2.682   5.036  15.816 -0.4263 -0.0306 -0.6402
12483TIP3    H158940   2.747   4.980  15.774  1.4112 -0.1591  2.1031
12483TIP3    H258941   2.612   4.975  15.842  0.0569 -0.5160 -0.4618
12484TIP3   OH258942   1.631   0.087   0.918 -0.5656  0.3739 -0.1903
12484TIP3    H158943   1.602   0.078   1.009 -1.1495 -0.2980 -0.4337
12484TIP3    H258944   1.682   0.168   0.917 -1.1017  0.7343  0.5949
12485TIP3   OH258945   5.015   4.180  15.881 -0.0149 -1.0185 -0.0183
12485TIP3    H158946   5.060   4.231  15.948 -1.7717  0.7349 -0.0862
12485TIP3    H258947   5.030   4.089  15.906  1.8423 -0.4725  1.0489
12486TIP3   OH258948   5.923   5.384   5.745 -0.5886  0.3046 -0.1291
12486TIP3    H158949   5.970   5.300   5.743 -0.4800  0.3660 -0.1597
12486TIP3    H258950   5.837   5.364   5.708  0.1107  0.6304 -2.0565
12487TIP3   OH258951   0.349   1.303  11.402  0.2094  0.1159 -0.0321
12487TIP3    H158952   0.399   1.371  11.447 -0.8808 -0.7922  2.7597
12487TIP3    H258953   0.384   1.221  11.436  2.2844 -0.9900 -4.1645
12488TIP3   OH258954   0.408   1.345   6.572  0.3663 -0.7462 -0.2202
12488TIP3    H158955   0.449   1.394   6.643  0.4522 -0.6975 -0.3027
12488TIP3    H258956   0.465   1.269   6.559 -0.6016 -1.7400  0.9808
12489TIP3   OH258957   5.671   3.665   1.736  0.3010  0.0646  0.1500
12489TIP3    H158958   5.635   3.653   1.824  1.0687  1.3531  0.6625
12489TIP3    H258959   5.689   3.758   1.730  0.6558 -0.0759 -1.2362
12490TIP3   OH258960   2.708   1.365   3.868  0.6529  0.5226  0.5751
12490TIP3    H158961   2.756   1.297   3.915  0.4029  0.0722  0.1822
12490TIP3    H258962   2.765   1.442   3.873  2.8102 -0.7234 -2.3090
12491TIP3   OH258963   4.926   4.208  16.457  0.2325 -0.1878  0.4268
12491TIP3    H158964   4.959   4.252  16.536  0.0234 -0.9192  0.9332
12491TIP3    H258965   4.934   4.115  16.477  2.1088 -0.4549 -1.1988
12492TIP3   OH258966   0.997   5.128  16.183  0.1531  0.0765  0.1615
12492TIP3    H158967   0.945   5.071  16.239 -0.4566  0.7313  0.2722
12492TIP3    H258968   1.000   5.082  16.098  0.3995 -0.5246  0.4891
12493TIP3   OH258969   6.457   3.279   3.172  0.6530  0.5131  0.3296
12493TIP3    H158970   6.503   3.201   3.140 -0.3180  0.0478  0.0245
12493TIP3    H258971   6.527   3.336   3.204  1.5664  0.4093 -1.3623
12494TIP3   OH258972   1.808   3.132  13.559  0.0989 -0.3677  0.4859
12494TIP3    H158973   1.760   3.068  13.506  2.6427 -3.3487  1.4471
12494TIP3    H258974   1.770   3.123  13.647  0.0783 -0.1287  0.5013
12495TIP3   OH258975   4.339   6.276  14.505 -0.0777 -0.3637  0.5256
12495TIP3    H158976   4.294   6.254  14.587 -0.6217 -1.1851  0.0214
12495TIP3    H258977   4.301   6.359  14.478 -0.7148 -0.6494  0.5284
12496TIP3   OH258978   6.240   2.752   3.357 -0.0919 -0.1794  0.8254
12496TIP3    H158979   6.170   2.773   3.295  0.1038 -2.8004 -0.3885
12496TIP3    H258980   6.203   2.685   3.414  0.6339  0.2559  1.8435
12497TIP3   OH258981   6.671   2.673  12.088 -0.8055 -0.6783  0.1007
12497TIP3    H158982   6.600   2.737  12.080 -0.4006 -0.2955 -0.5106
12497TIP3    H258983   6.751   2.725  12.084 -0.4821 -1.0739  1.0822
12498TIP3   OH258984   1.941   5.422   3.750  0.1008 -0.1195 -0.1245
12498TIP3    H158985   1.897   5.428   3.665  1.2130  1.2139 -0.6564
12498TIP3    H258986   2.029   5.457   3.734  1.0364 -1.7639  1.1254
12499TIP3   OH258987   4.545   1.236  13.174  0.5566 -0.2648  0.6176
12499TIP3    H158988   4.529   1.323  13.211  0.1889 -0.7820  1.7241
12499TIP3    H258989   4.535   1.177  13.248  2.4247 -1.1155  0.2463
12500TIP3   OH258990   3.089   2.525   2.317 -0.0148  0.5068  0.1045
12500TIP3    H158991   3.108   2.497   2.228  1.3567  0.0900  0.5091
12500TIP3    H258992   3.005   2.483   2.338  1.0056 -1.7018 -0.0217
12501TIP3   OH258993   2.185   1.347  12.919 -0.2834  0.1650  0.8226
12501TIP3    H158994   2.269   1.354  12.873  0.5434 -0.1405  2.2435
12501TIP3    H258995   2.163   1.437  12.941 -0.4704  0.2712  0.2355
12502TIP3   OH258996   5.256   4.959  13.297  0.0793  0.9119  0.2201
12502TIP3    H158997   5.291   5.023  13.358 -0.0106  0.5093  0.6947
12502TIP3    H258998   5.184   5.005  13.253  0.6101  1.4431 -0.1225
12503TIP3   OH258999   2.962   5.547  13.560 -0.2977  0.1303  0.0180
12503TIP3    H159000   2.933   5.531  13.650  1.3175  0.6552  0.6545
12503TIP3    H259001   2.957   5.642  13.549 -1.4392  0.0027 -0.8124
12504TIP3   OH259002   0.519   2.659  13.921 -0.4393  0.4310  0.1320
12504TIP3    H159003   0.549   2.708  13.998  0.8572 -0.0601 -0.0522
12504TIP3    H259004   0.577   2.583  13.916  0.1534  0.9848 -1.9341
12505TIP3   OH259005   0.504   0.091  12.119 -0.9199  0.5484  0.0862
12505TIP3    H159006   0.408   0.090  12.128 -0.8477  0.1826  0.8829
12505TIP3    H259007   0.520   0.156  12.050 -1.7042  1.1529  0.4444
12506TIP3   OH259008   4.652   4.096   5.408  0.3379 -0.2989 -0.4071
12506TIP3    H159009   4.571   4.077   5.360 -0.0741 -1.3460  0.6679
12506TIP3    H259010   4.722   4.080   5.344 -0.2794  0.8558 -1.4206
12507TIP3   OH259011   2.535   0.065   3.888 -0.1868  0.9985 -0.0434
12507TIP3    H159012   2.468   0.055   3.821  1.0128  0.3342 -1.1925
12507TIP3    H259013   2.549  -0.024   3.922  0.1129  1.1236  0.1670
12508TIP3   OH259014   0.659   0.747   5.426 -0.0264  0.2500 -0.1007
12508TIP3    H159015   0.706   0.727   5.506  1.4542  1.0136 -0.7467
12508TIP3    H259016   0.567   0.753   5.453  0.5621  1.6319  1.7547
12509TIP3   OH259017   4.358   5.995  13.895  0.1160 -0.2299 -0.1480
12509TIP3    H159018   4.396   5.909  13.918 -1.7403 -1.4871 -1.4897
12509TIP3    H259019   4.312   6.022  13.974  1.0461 -0.2378  0.4212
12510TIP3   OH259020   6.218   6.430   6.535 -0.1552  0.2723  0.0671
12510TIP3    H159021   6.286   6.492   6.508  0.7176 -0.8982 -0.4748
12510TIP3    H259022   6.263   6.346   6.543 -1.1075 -0.1145  1.8133
12511TIP3   OH259023   3.070   2.655  12.693  0.5301  0.0493  0.8435
12511TIP3    H159024   3.121   2.598  12.750 -2.3084 -2.9765  0.6956
12511TIP3    H259025   3.035   2.596  12.626 -1.5381  2.2356 -0.1562
12512TIP3   OH259026   3.555   6.349   6.024 -0.0488  0.2815  0.0778
12512TIP3    H159027   3.528   6.439   6.044  0.8122  0.7769 -0.8847
12512TIP3    H259028   3.533   6.337   5.931  0.0286 -0.4316  0.1431
12513TIP3   OH259029   4.132   2.964   3.540 -0.0663 -0.2483  0.2403
12513TIP3    H159030   4.177   2.915   3.471  1.8603 -0.1947  1.3887
12513TIP3    H259031   4.146   2.912   3.619  0.7734  1.3764  1.2164
12514TIP3   OH259032   6.258   5.683   3.591  0.1292 -0.0510  0.2708
12514TIP3    H159033   6.320   5.715   3.525 -0.2469 -0.4309 -0.2702
12514TIP3    H259034   6.313   5.662   3.666  0.7623 -1.0536 -0.4516
12515TIP3   OH259035   5.617   3.081   2.760  0.3335  0.1766 -0.3667
12515TIP3    H159036   5.691   3.024   2.782  0.8988  0.2219 -1.9955
12515TIP3    H259037   5.618   3.084   2.664  0.2164  2.7704 -0.3431
12516TIP3   OH259038   0.964   6.137   6.216  0.0729 -0.5811 -0.0323
12516TIP3    H159039   1.026   6.161   6.285  0.0468 -0.9337  0.1153
12516TIP3    H259040   0.916   6.062   6.252 -0.8254  0.0340  0.0744
12517TIP3   OH259041   4.694   5.012  14.459  0.2507  0.1484 -0.3580
12517TIP3    H159042   4.703   5.098  14.500 -0.8868  0.4838 -0.7779
12517TIP3    H259043   4.732   5.023  14.372  0.7864  0.0118 -0.1443
12518TIP3   OH259044   4.763   4.599   0.360  0.4058 -0.9525  0.0304
12518TIP3    H159045   4.789   4.518   0.317  0.2767 -0.5931 -0.7327
12518TIP3    H259046   4.675   4.582   0.394  0.3217 -1.0784 -0.2553
12519TIP3   OH259047   6.135   1.949   3.456  0.6264  0.1662  0.1756
12519TIP3    H159048   6.074   1.992   3.516  1.3140  0.4982  0.6522
12519TIP3    H259049   6.080   1.898   3.397 -0.0504 -0.4108  1.2803
12520TIP3   OH259050   0.874   1.562   1.370  0.5320  0.0344  0.3834
12520TIP3    H159051   0.854   1.653   1.347  0.8063  0.6993  2.5505
12520TIP3    H259052   0.818   1.510   1.312 -2.6859  1.6740  1.7805
12521TIP3   OH259053   0.166   2.029   6.505 -0.0550 -0.0207  0.2049
12521TIP3    H159054   0.260   2.035   6.490 -0.0102  1.1148  0.7707
12521TIP3    H259055   0.139   2.119   6.524 -1.6751  0.1014 -2.2635
12522TIP3   OH259056   4.639   2.437  12.432 -0.4743  0.1857  0.1016
12522TIP3    H159057   4.580   2.362  12.443  0.3835 -0.5159  0.0088
12522TIP3    H259058   4.601   2.487  12.359 -0.1681 -1.0508 -0.9454
12523TIP3   OH259059   1.719   2.907   1.982  0.1761  0.4678  0.0590
12523TIP3    H159060   1.677   2.828   1.949 -0.4554  1.1034 -0.6919
12523TIP3    H259061   1.800   2.876   2.024 -0.0610 -0.5622 -0.2248
12524TIP3   OH259062   2.834   1.833   2.763  0.3405  0.0042 -0.0306
12524TIP3    H159063   2.844   1.750   2.716  0.0714  0.4099 -0.8228
12524TIP3    H259064   2.825   1.899   2.694  0.2935  0.6634  0.5901
12525TIP3   OH259065   6.096   3.669  17.213 -0.0873  0.4617  0.2626
12525TIP3    H159066   6.045   3.727  17.156  1.6199  0.5782 -1.2137
12525TIP3    H259067   6.116   3.724  17.289 -1.1396  0.7855  0.3263
12526TIP3   OH259068   2.832   4.500   3.212  0.3500 -0.3414  0.6283
12526TIP3    H159069   2.787   4.453   3.141  2.4552  0.2111 -1.1870
12526TIP3    H259070   2.762   4.549   3.256 -0.9797 -0.0946 -1.5657
12527TIP3   OH259071   1.502   3.922  11.186 -0.2829 -0.2029  0.3027
12527TIP3    H159072   1.410   3.946  11.197 -0.3820 -0.4779  0.0870
12527TIP3    H259073   1.503   3.869  11.106 -0.2162 -1.7321  1.2771
12528TIP3   OH259074   3.357   3.384  14.210 -0.1009  0.1512  0.1366
12528TIP3    H159075   3.422   3.316  14.229  0.2977  0.0641 -1.4493
12528TIP3    H259076   3.287   3.339  14.163 -0.2568  0.6624 -0.1297
12529TIP3   OH259077   5.659   4.521  15.172 -0.4312  0.6956  0.1681
12529TIP3    H159078   5.576   4.480  15.150 -0.1530  0.5556 -0.6363
12529TIP3    H259079   5.726   4.460  15.140 -0.0137  1.8046 -1.1636
12530TIP3   OH259080   5.803   6.257  17.097  0.0315 -0.6055 -0.4212
12530TIP3    H159081   5.807   6.319  17.170 -0.2220  0.5106 -1.3090
12530TIP3    H259082   5.811   6.171  17.137 -0.6405 -0.0525  0.9792
12531TIP3   OH259083   2.627   2.060  16.735 -0.5172 -0.6226  0.1993
12531TIP3    H159084   2.564   2.064  16.807 -0.5763 -1.8031  0.2248
12531TIP3    H259085   2.600   1.984  16.683 -0.2942  0.0261 -0.9125
12532TIP3   OH259086   4.413   0.211   1.309  0.1405 -0.3563  0.0566
12532TIP3    H159087   4.388   0.139   1.368 -1.0285  1.2221  1.5623
12532TIP3    H259088   4.333   0.261   1.297  0.6299  0.0254 -2.0230
12533TIP3   OH259089   5.763   6.095   2.541  0.7331 -0.7024  0.1238
12533TIP3    H159090   5.738   6.007   2.513 -0.0924 -0.5924  0.5130
12533TIP3    H259091   5.682   6.145   2.540  1.3293  0.2752 -0.8605
12534TIP3   OH259092   6.062   1.176   0.607  0.1753  0.1296 -0.0427
12534TIP3    H159093   6.086   1.163   0.515 -0.8481  1.5415 -0.5539
12534TIP3    H259094   6.132   1.230   0.643 -0.8219  2.0416 -0.8235
12535TIP3   OH259095   4.369   0.058  11.650  0.5346  0.0050  0.9068
12535TIP3    H159096   4.274   0.045  11.659  0.1017  0.1370 -2.3863
12535TIP3    H259097   4.392   0.010  11.571  3.0739  0.7674  1.1186
12536TIP3   OH259098   4.602   3.600   5.795 -0.0959  0.2783 -0.1835
12536TIP3    H159099   4.595   3.620   5.888 -0.3974  0.9736 -0.3479
12536TIP3    H259100   4.655   3.671   5.759 -1.2384  0.8506 -0.7928
12537TIP3   OH259101   2.771   0.665   4.376 -0.0743  0.2753  0.2109
12537TIP3    H159102   2.751   0.686   4.467  0.9769  0.8532  0.3261
12537TIP3    H259103   2.844   0.603   4.381 -0.5886 -0.3758 -0.2257
12538TIP3   OH259104   4.339   1.419   6.036 -0.3002  0.5026  1.0633
12538TIP3    H159105   4.298   1.478   6.099  0.3414  1.6562  0.4373
12538TIP3    H259106   4.284   1.425   5.958 -0.5768 -0.2102  1.2001
12539TIP3   OH259107   1.821   1.975  12.262  0.0927  0.4038  0.4227
12539TIP3    H159108   1.868   2.048  12.301  0.9741  1.2372 -2.0440
12539TIP3    H259109   1.741   2.014  12.226  0.0604 -0.0262  0.0110
12540TIP3   OH259110   4.370   5.183   5.629 -0.3523 -0.8403 -0.1333
12540TIP3    H159111   4.369   5.277   5.612  0.8272 -0.7182  0.3927
12540TIP3    H259112   4.292   5.167   5.682 -0.7959 -0.2392 -0.5944
12541TIP3   OH259113   6.695   3.143   5.667 -0.2138 -0.0575 -0.0057
12541TIP3    H159114   6.762   3.188   5.719 -0.1592  1.2352 -1.1423
12541TIP3    H259115   6.613   3.182   5.694 -0.4113 -0.8246  0.5467
12542TIP3   OH259116   2.997   3.839   5.499  0.0102  0.2337 -0.4982
12542TIP3    H159117   3.022   3.873   5.413  1.7529  0.6584  0.1250
12542TIP3    H259118   2.915   3.792   5.484 -0.7258  1.9179 -2.0075
12543TIP3   OH259119   2.158   2.796   5.814 -0.0759  0.1570  0.1139
12543TIP3    H159120   2.100   2.787   5.739  0.4280  1.7754 -0.5104
12543TIP3    H259121   2.245   2.780   5.780 -0.0000 -1.0792  0.8041
12544TIP3   OH259122   0.965   6.682   3.884  0.0409 -0.1580  0.5232
12544TIP3    H159123   1.035   6.739   3.916  1.6180 -1.9610  0.4883
12544TIP3    H259124   1.011   6.611   3.839 -1.8920 -0.6549 -0.8102
12545TIP3   OH259125   2.177   5.682   3.053 -0.0957  0.3861  0.3035
12545TIP3    H159126   2.092   5.655   3.090 -0.7850  0.6912 -0.9833
12545TIP3    H259127   2.242   5.633   3.104 -1.1105 -0.7980  0.5265
12546TIP3   OH259128   3.621   2.909  15.027  0.8317 -0.6583  0.5819
12546TIP3    H159129   3.578   2.954  15.100 -1.2396 -0.5223 -0.6458
12546TIP3    H259130   3.688   2.855  15.069 -0.2651 -0.5711  2.5934
12547TIP3   OH259131   2.649   4.819  16.435 -0.0016 -0.4232  0.2763
12547TIP3    H159132   2.625   4.788  16.522 -0.0438  0.3994  0.5714
12547TIP3    H259133   2.699   4.899  16.451  0.0341 -0.2886 -0.4539
12548TIP3   OH259134   5.990   4.715   0.702  0.0594  0.2815  0.0939
12548TIP3    H159135   5.994   4.764   0.619 -1.2945 -1.5612 -1.1471
12548TIP3    H259136   6.034   4.632   0.683 -3.1247 -1.5785  0.0389
12549TIP3   OH259137   5.544   0.904   2.933  0.6515 -0.1189  0.3402
12549TIP3    H159138   5.504   0.834   2.984  1.7155 -1.2170 -0.2860
12549TIP3    H259139   5.510   0.984   2.972 -1.0834 -0.9727  0.6913
12550TIP3   OH259140   1.868   0.304  14.410 -0.0448 -0.0667 -0.0141
12550TIP3    H159141   1.922   0.227  14.393  2.0110  1.3021  0.0058
12550TIP3    H259142   1.878   0.321  14.504  1.0211  1.2386 -0.3284
12551TIP3   OH259143   4.585   2.624  13.549  0.1298  0.2558  0.0646
12551TIP3    H159144   4.535   2.698  13.515 -0.3165 -0.7767 -1.6597
12551TIP3    H259145   4.525   2.550  13.543  1.0098 -0.5096  0.4357
12552TIP3   OH259146   6.694   1.468  14.097  0.1462  0.2450 -0.3551
12552TIP3    H159147   6.646   1.393  14.133  0.7711 -0.8406 -1.7130
12552TIP3    H259148   6.709   1.524  14.173 -2.8937  0.4726  0.2061
12553TIP3   OH259149   2.712   3.646   0.239 -0.4485  0.0758 -0.1789
12553TIP3    H159150   2.699   3.629   0.332 -0.8560 -0.0275 -0.2560
12553TIP3    H259151   2.716   3.741   0.233 -2.1948  0.1664 -0.2881
12554TIP3   OH259152   2.464   3.656   3.572  0.3439 -0.0217  0.5014
12554TIP3    H159153   2.455   3.561   3.564 -0.8823  0.1678 -0.8040
12554TIP3    H259154   2.552   3.674   3.541  1.0301 -0.8295  1.9009
12555TIP3   OH259155   1.282   6.787   5.795  0.3046  0.1627  0.2872
12555TIP3    H159156   1.274   6.822   5.706  0.5384 -0.9361 -0.1877
12555TIP3    H259157   1.348   6.842   5.837 -0.1959  1.0323 -0.0376
12556TIP3   OH259158   0.143   0.939  14.218 -0.1122  0.4186  0.3407
12556TIP3    H159159   0.189   1.006  14.167  0.6584  1.1151  1.8829
12556TIP3    H259160   0.189   0.858  14.200 -0.0316  0.6032 -0.2918
12557TIP3   OH259161   3.694   1.735   4.803 -0.0036  0.0564 -0.3319
12557TIP3    H159162   3.731   1.694   4.881  0.0980  1.7806  0.5867
12557TIP3    H259163   3.606   1.761   4.829 -1.4514 -2.7213 -2.0459
12558TIP3   OH259164   0.219   0.544  16.066  0.7922  0.1346 -0.8395
12558TIP3    H159165   0.177   0.628  16.044  1.6538  0.3023 -1.8893
12558TIP3    H259166   0.146   0.482  16.072  0.1518  0.9427 -0.1012
12559TIP3   OH259167   1.770   0.287   6.192 -0.1406 -0.2943 -0.6724
12559TIP3    H159168   1.684   0.305   6.232 -0.5814 -1.9386 -0.8100
12559TIP3    H259169   1.805   0.214   6.242  1.1838  0.3361 -0.6494
12560TIP3   OH259170   6.701   0.290   2.518 -0.1562 -0.2655  0.1233
12560TIP3    H159171   6.783   0.316   2.477 -0.6766  0.5483 -0.4329
12560TIP3    H259172   6.647   0.369   2.516 -0.5727 -0.4902  1.4570
12561TIP3   OH259173   3.915   2.668   2.288  0.2392 -0.3634  0.2850
12561TIP3    H159174   3.851   2.636   2.224  0.8463 -0.2364 -0.4110
12561TIP3    H259175   3.879   2.751   2.319 -0.3117 -0.6780  0.4979
12562TIP3   OH259176   0.359   5.154   4.125  0.1015  0.0162 -0.2049
12562TIP3    H159177   0.282   5.138   4.071  1.4662 -2.4955 -1.5665
12562TIP3    H259178   0.383   5.245   4.107 -1.8603  0.4802 -0.6123
12563TIP3   OH259179   4.263   5.713  16.841 -0.3451 -0.0533 -0.0304
12563TIP3    H159180   4.347   5.756  16.829 -0.8717  0.8111 -0.7281
12563TIP3    H259181   4.201   5.766  16.790 -0.9871 -1.7424 -1.0840
12564TIP3   OH259182   6.402   2.828  15.321  0.1789 -0.1590 -0.6616
12564TIP3    H159183   6.427   2.778  15.399  0.3176 -0.3583 -0.8300
12564TIP3    H259184   6.459   2.794  15.252 -0.9852 -1.0748 -1.2082
12565TIP3   OH259185   1.464   5.430  12.490  0.6753  0.5580 -0.2172
12565TIP3    H159186   1.546   5.389  12.461  0.9691  1.2139 -0.3186
12565TIP3    H259187   1.399   5.360  12.483  1.1828  0.0913 -0.3446
12566TIP3   OH259188   6.615   4.770   0.581 -0.1509 -0.2513 -0.1334
12566TIP3    H159189   6.573   4.819   0.511  1.3750 -0.4824 -1.2792
12566TIP3    H259190   6.616   4.829   0.656 -1.1612  0.2691 -0.5150
12567TIP3   OH259191   4.424   2.823  13.930 -0.6927 -0.0965 -0.2203
12567TIP3    H159192   4.367   2.870  13.870 -0.6037 -1.9994 -1.9105
12567TIP3    H259193   4.488   2.888  13.958 -3.0943  1.8662  1.0425
12568TIP3   OH259194   3.091   5.031   5.431 -0.2256 -0.1189 -0.1787
12568TIP3    H159195   3.093   5.125   5.412  0.9104  0.2110  1.3222
12568TIP3    H259196   3.172   4.997   5.392  1.5641  0.3731  2.7627
12569TIP3   OH259197   5.365   3.357  17.268 -0.3135 -0.1778  0.3998
12569TIP3    H159198   5.376   3.446  17.299  0.5527  0.1618 -0.8027
12569TIP3    H259199   5.273   3.336  17.286 -0.5376  0.9704  0.6514
12570TIP3   OH259200   4.417   5.733  15.252  0.7635  0.6465  0.0286
12570TIP3    H159201   4.379   5.818  15.231  0.8937  0.7083  0.0424
12570TIP3    H259202   4.378   5.710  15.337  0.8024  0.7360  0.0704
12571TIP3   OH259203   2.547   3.000   3.787 -0.4724 -0.7760  0.2897
12571TIP3    H159204   2.528   3.032   3.699 -0.3455 -0.2813  0.4390
12571TIP3    H259205   2.555   3.079   3.840 -4.9961 -1.0227  1.7667
12572TIP3   OH259206   2.180   1.924   3.108 -0.2842 -0.2678 -0.0188
12572TIP3    H159207   2.215   2.006   3.142  0.8897 -0.5519 -0.4896
12572TIP3    H259208   2.217   1.857   3.164 -1.0086 -0.5113  0.1840
12573TIP3   OH259209   2.739   1.833   0.164  0.1646  0.0302  0.3985
12573TIP3    H159210   2.729   1.792   0.078 -0.3133  3.5639 -1.4268
12573TIP3    H259211   2.822   1.880   0.159 -1.1445  2.5560  0.7040
12574TIP3   OH259212   0.350   5.453   1.029  0.0168  0.8353  0.2405
12574TIP3    H159213   0.266   5.417   1.057 -0.2004  0.7831 -0.4544
12574TIP3    H259214   0.390   5.487   1.109 -0.0785 -0.3141  0.7974
12575TIP3   OH259215   2.509   6.418   0.825 -0.6767  0.1384 -0.3094
12575TIP3    H159216   2.595   6.444   0.858 -2.1103  3.2096  1.4858
12575TIP3    H259217   2.485   6.342   0.877  1.6635 -2.1046 -2.2428
12576TIP3   OH259218   3.281   1.602  16.925  0.3485 -0.6388  0.4589
12576TIP3    H159219   3.348   1.605  16.857 -0.3049  1.6710 -0.1574
12576TIP3    H259220   3.223   1.530  16.899  0.0755  0.2407 -1.4975
12577TIP3   OH259221   3.882   6.738  14.671 -0.3260 -0.2286  0.2970
12577TIP3    H159222   3.801   6.686  14.668  0.1514 -0.9673 -0.0240
12577TIP3    H259223   3.900   6.759  14.580 -0.4134  0.3584  0.4091
12578TIP3   OH259224   4.575   1.923   2.104 -0.0383 -0.2238  0.3045
12578TIP3    H159225   4.565   1.910   2.198 -0.7168 -0.3572  0.2152
12578TIP3    H259226   4.510   1.990   2.081  0.8448  0.5969  0.1050
12579TIP3   OH259227   6.153   2.527  15.934 -0.2420 -0.5126  0.1568
12579TIP3    H159228   6.105   2.583  15.873  1.2691  0.6795 -0.0034
12579TIP3    H259229   6.095   2.518  16.009 -0.4826  1.4575  0.2662
12580TIP3   OH259230   2.104   5.165   4.445 -0.3284  0.5478  0.5326
12580TIP3    H159231   2.039   5.095   4.451 -0.9050  0.9192 -0.9264
12580TIP3    H259232   2.052   5.245   4.442  0.0850  0.8055 -1.5333
12581TIP3   OH259233   4.544   4.238  16.661 -0.1393  0.0755  0.4882
12581TIP3    H159234   4.483   4.170  16.689  1.2650 -0.5903  2.0740
12581TIP3    H259235   4.558   4.220  16.568 -1.8249 -0.1301  0.2345
12582TIP3   OH259236   2.459   1.335  13.496 -0.3069  0.2854  0.2602
12582TIP3    H159237   2.491   1.303  13.412 -1.5545  0.2333 -0.2197
12582TIP3    H259238   2.502   1.420  13.507  2.0918 -0.9334  0.9733
12583TIP3   OH259239   5.638   2.849  12.575 -0.5270 -0.7298  0.2036
12583TIP3    H159240   5.633   2.889  12.661  1.0160 -3.1068  1.4878
12583TIP3    H259241   5.643   2.923  12.514  1.5078  1.0227  2.3596
12584TIP3   OH259242   3.112   2.340   3.091 -0.1336  0.1862  0.2666
12584TIP3    H159243   3.140   2.249   3.098 -1.1577 -0.2895 -1.3424
12584TIP3    H259244   3.191   2.387   3.065 -0.0640 -0.6313 -1.1104
12585TIP3   OH259245   0.337   1.951   2.686 -0.1578  0.8920 -0.3825
12585TIP3    H159246   0.280   1.881   2.716  0.2535  0.8255  0.2456
12585TIP3    H259247   0.302   2.030   2.728 -0.1914  0.9598 -0.5348
12586TIP3   OH259248   1.014   4.759  16.689  0.0486  0.2030  0.8971
12586TIP3    H159249   1.002   4.667  16.713 -1.9171  0.5355  1.3038
12586TIP3    H259250   1.065   4.755  16.608 -2.1453 -1.4262 -0.5434
12587TIP3   OH259251   5.826   3.830   2.449 -0.2223 -0.1769  0.2756
12587TIP3    H159252   5.757   3.799   2.508 -0.3067  0.6776  0.6431
12587TIP3    H259253   5.781   3.852   2.368 -0.1914 -0.8098  0.0854
12588TIP3   OH259254   5.286   5.881   0.514 -0.0946  0.3628 -0.1893
12588TIP3    H159255   5.324   5.893   0.601 -2.0928 -0.7400  0.8937
12588TIP3    H259256   5.226   5.807   0.523 -1.9005  1.4953 -1.9840
12589TIP3   OH259257   3.887   6.726  13.091  0.4580  0.3413  0.4591
12589TIP3    H159258   3.825   6.798  13.092 -1.2590 -1.0581 -0.5343
12589TIP3    H259259   3.917   6.718  13.182 -1.7926  0.2588  1.2432
12590TIP3   OH259260   0.347   4.006  15.177  0.2291  0.7282 -0.4597
12590TIP3    H159261   0.326   3.917  15.208  0.6662  0.6506 -0.3816
12590TIP3    H259262   0.364   3.995  15.083  2.1876  0.3854 -0.0997
12591TIP3   OH259263   0.275   2.250  12.780  0.0595  0.2618 -0.0814
12591TIP3    H159264   0.370   2.244  12.774 -0.0094 -0.6441 -0.3541
12591TIP3    H259265   0.257   2.252  12.874  0.3197 -0.1220 -0.0207
12592TIP3   OH259266   4.391   2.248  15.544  0.8035 -0.5396  0.5174
12592TIP3    H159267   4.357   2.194  15.615  0.4448 -1.5983 -0.4089
12592TIP3    H259268   4.314   2.273  15.493  1.1977 -1.6978 -0.7431
12593TIP3   OH259269   2.459   3.272  12.275  0.3328  0.4990  0.5713
12593TIP3    H159270   2.461   3.257  12.181  0.4135 -0.0924  0.6602
12593TIP3    H259271   2.367   3.263  12.299  0.4688 -0.6699  0.7360
12594TIP3   OH259272   4.045   2.730   3.072 -0.1077 -0.2519 -0.1599
12594TIP3    H159273   3.971   2.791   3.068  1.5129  1.7555 -1.3944
12594TIP3    H259274   4.049   2.691   2.985 -0.4133 -1.2778  0.2707
12595TIP3   OH259275   3.708   3.796   6.290  0.2510 -0.0487 -0.4378
12595TIP3    H159276   3.742   3.711   6.261  1.7783  0.3371  0.1468
12595TIP3    H259277   3.712   3.792   6.385  1.1657  0.9896 -0.4172
12596TIP3   OH259278   5.862   5.659   3.210 -0.0919 -0.5296  0.6349
12596TIP3    H159279   5.801   5.643   3.283  1.0475  0.9226  1.9760
12596TIP3    H259280   5.947   5.632   3.244  0.6471  1.2296  0.2829
12597TIP3   OH259281   2.208   5.192  16.807 -1.0317 -0.0292  0.5980
12597TIP3    H159282   2.303   5.182  16.810 -0.9970  0.4462  1.3471
12597TIP3    H259283   2.185   5.171  16.717 -0.0158  1.4970 -0.0555
12598TIP3   OH259284   3.335   3.913   6.249 -0.6706 -0.0751  0.3941
12598TIP3    H159285   3.302   3.991   6.295  2.0087  0.7214  1.1481
12598TIP3    H259286   3.355   3.851   6.319 -0.0126 -0.2821  0.0271
12599TIP3   OH259287   0.650   3.876  12.359  0.0646 -0.6077 -0.4335
12599TIP3    H159288   0.694   3.937  12.418 -0.2973 -2.1778  1.5862
12599TIP3    H259289   0.560   3.909  12.354 -0.1565 -0.9820  0.7250
12600TIP3   OH259290   4.109   1.324   4.864  0.1929  0.7303 -0.2789
12600TIP3    H159291   4.153   1.387   4.807  1.0391  1.0620  0.7105
12600TIP3    H259292   4.162   1.245   4.859  0.2331  0.7385 -0.0168
12601TIP3   OH259293   0.368   5.351  11.467  0.5183  0.2568 -0.0017
12601TIP3    H159294   0.383   5.421  11.530 -1.1495  1.5306 -0.9247
12601TIP3    H259295   0.451   5.341  11.421  1.8721 -0.9394  2.5308
12602TIP3   OH259296   5.340   2.378  15.923  0.4805 -0.0977 -0.2969
12602TIP3    H159297   5.405   2.319  15.885  0.7202 -1.0061  1.4315
12602TIP3    H259298   5.391   2.453  15.956  0.7201 -0.8404  1.1179
12603TIP3   OH259299   3.587   3.892   3.792 -0.3792 -0.1546 -0.8908
12603TIP3    H159300   3.676   3.862   3.807 -0.5135  0.1533  0.7776
12603TIP3    H259301   3.536   3.812   3.781 -0.1179 -0.3942 -0.3903
12604TIP3   OH259302   2.587   6.197   3.467 -0.0790  0.0007 -0.1986
12604TIP3    H159303   2.677   6.223   3.445 -0.6379  2.9209  0.5541
12604TIP3    H259304   2.562   6.138   3.396  2.8452 -2.0794  0.3059
12605TIP3   OH259305   5.033   1.139  15.685 -0.4113 -0.2516  0.9062
12605TIP3    H159306   5.096   1.123  15.614 -0.7275  0.0346  0.5581
12605TIP3    H259307   4.998   1.226  15.666  0.4777  0.4145  2.1455
12606TIP3   OH259308   5.572   2.943  15.945  0.0526  0.2564 -0.1880
12606TIP3    H159309   5.504   2.952  16.012 -0.8696 -2.1724 -0.6850
12606TIP3    H259310   5.654   2.937  15.994 -0.6090 -1.4613  0.7613
12607TIP3   OH259311   5.760   6.392  12.825 -0.4849 -0.1323  0.4387
12607TIP3    H159312   5.691   6.361  12.766 -0.6640  1.4555 -0.2563
12607TIP3    H259313   5.841   6.380  12.775 -0.2388 -1.7978  1.1726
12608TIP3   OH259314   4.650   2.852  11.987  0.0479 -0.1934 -0.0546
12608TIP3    H159315   4.689   2.860  12.074  1.0555  2.3998 -0.6559
12608TIP3    H259316   4.557   2.873  12.000  0.4609  1.6218  0.2399
12609TIP3   OH259317   5.145   0.096  16.445  0.0445  0.1343  0.1248
12609TIP3    H159318   5.147   0.124  16.537 -2.0004 -1.5190  0.7781
12609TIP3    H259319   5.216   0.144  16.403  1.2865  0.6748  2.6437
12610TIP3   OH259320   0.534   0.767  15.318  0.3218 -0.1259  0.6295
12610TIP3    H159321   0.511   0.794  15.407  1.4694 -2.1320  1.6025
12610TIP3    H259322   0.617   0.810  15.300  0.5478 -0.4311  0.9172
12611TIP3   OH259323   2.625   0.306   4.033 -0.5071  0.2966  0.2307
12611TIP3    H159324   2.684   0.371   3.993  0.3477 -1.1369 -0.9760
12611TIP3    H259325   2.596   0.252   3.959 -1.4791 -0.4583  1.1423
12612TIP3   OH259326   0.253   6.011  15.815  0.1791  0.8069  0.6651
12612TIP3    H159327   0.180   6.059  15.853 -0.2516 -0.5089  1.5882
12612TIP3    H259328   0.264   5.935  15.872  2.1395  0.8448  0.4181
12613TIP3   OH259329   0.984   1.296   5.874 -0.3634  0.4452  0.6464
12613TIP3    H159330   1.043   1.347   5.930  0.4259 -0.1950  0.4208
12613TIP3    H259331   0.940   1.361   5.820  1.1584  0.8619 -0.1380
12614TIP3   OH259332   0.290   3.902   2.739  0.3722 -0.8587  0.0673
12614TIP3    H159333   0.376   3.894   2.699  0.3379 -2.8053  0.2617
12614TIP3    H259334   0.228   3.885   2.668  0.2539 -2.0060  0.4118
12615TIP3   OH259335   3.370   3.341   3.289  0.3019 -0.4355  0.2978
12615TIP3    H159336   3.383   3.370   3.199  1.0967 -0.1737  0.4947
12615TIP3    H259337   3.318   3.410   3.330 -1.6316 -1.3676 -0.4165
12616TIP3   OH259338   6.533   5.221   0.216  0.4211 -0.2469 -0.5199
12616TIP3    H159339   6.574   5.247   0.133  0.6595 -0.8889 -0.6065
12616TIP3    H259340   6.449   5.267   0.216  0.2416 -0.5599 -1.3102
12617TIP3   OH259341   4.300   3.979   3.459  0.1365 -0.0037 -0.2705
12617TIP3    H159342   4.240   4.014   3.393 -0.3223 -0.2470  0.0106
12617TIP3    H259343   4.243   3.946   3.528  0.5985 -0.2198  0.0140
12618TIP3   OH259344   4.717   3.963   2.445 -0.5429  0.1057 -0.0992
12618TIP3    H159345   4.743   4.054   2.449 -0.2989  0.0925 -1.0473
12618TIP3    H259346   4.624   3.963   2.468 -0.4934  0.5600  0.1029
12619TIP3   OH259347   1.871   5.978  12.498 -0.1356 -0.0760 -0.1981
12619TIP3    H159348   1.842   5.890  12.519  0.8869 -0.2823  0.3839
12619TIP3    H259349   1.827   5.998  12.415 -0.3253 -1.1471 -0.3704
12620TIP3   OH259350   3.228   3.251   1.753  0.6528 -0.3307 -0.0610
12620TIP3    H159351   3.211   3.267   1.846 -1.1690  1.4534 -0.6279
12620TIP3    H259352   3.270   3.331   1.722  1.4243 -0.9864 -0.7670
12621TIP3   OH259353   4.100   0.800   0.621 -0.3096  0.4415  0.2712
12621TIP3    H159354   4.004   0.805   0.614 -0.5476 -1.6040  1.1128
12621TIP3    H259355   4.126   0.739   0.552  0.0825 -0.8257  1.4951
12622TIP3   OH259356   0.431   6.668  13.805 -0.0093 -0.0640  0.3618
12622TIP3    H159357   0.369   6.661  13.732  0.2439  2.0058 -0.1152
12622TIP3    H259358   0.517   6.674  13.764  0.5778 -2.7341  1.0154
12623TIP3   OH259359   4.391   2.495   2.303  0.2864 -0.5902 -0.1714
12623TIP3    H159360   4.445   2.552   2.248  0.1317 -0.6753 -0.4147
12623TIP3    H259361   4.321   2.466   2.245 -1.6125  1.6840  0.8314
12624TIP3   OH259362   0.404   2.439  14.880  0.4043  0.3145  0.0037
12624TIP3    H159363   0.348   2.516  14.870  1.6453  1.2422 -0.0780
12624TIP3    H259364   0.402   2.421  14.974 -1.1662 -0.5775 -0.1687
12625TIP3   OH259365   1.007   4.217  12.950  0.4290 -0.1985 -0.6279
12625TIP3    H159366   0.941   4.240  13.016 -0.7653 -2.1209 -1.0769
12625TIP3    H259367   1.084   4.190  13.001 -0.2058 -0.9029 -0.0208
12626TIP3   OH259368   0.181   1.614   3.576  0.3429 -0.3100 -0.5796
12626TIP3    H159369   0.111   1.607   3.512  0.8456  0.3076 -1.2125
12626TIP3    H259370   0.232   1.533   3.565  0.7897  0.0719 -1.4121
12627TIP3   OH259371   4.478   2.246  13.255 -0.0671 -0.4308 -0.5106
12627TIP3    H159372   4.540   2.303  13.302 -0.2502 -0.1046 -0.6610
12627TIP3    H259373   4.515   2.238  13.167  0.7696 -1.7971 -0.0732
12628TIP3   OH259374   4.684   3.526   6.089 -0.0914  0.2539  0.2000
12628TIP3    H159375   4.708   3.516   6.181 -0.4680  0.1290  0.2857
12628TIP3    H259376   4.767   3.537   6.044  0.0474  1.2976  0.6782
12629TIP3   OH259377   5.247   6.044  13.488  0.2419 -0.0406 -0.7358
12629TIP3    H159378   5.260   5.960  13.532  0.7370 -0.3832 -1.5066
12629TIP3    H259379   5.174   6.085  13.533  1.2241 -0.0247  0.9206
12630TIP3   OH259380   5.011   6.507   1.902  0.0251  0.5099 -0.3778
12630TIP3    H159381   4.920   6.511   1.872  0.5700  0.1717 -2.1480
12630TIP3    H259382   5.008   6.445   1.975 -0.9992 -0.3610 -1.1187
12631TIP3   OH259383   3.390   1.947   1.006 -0.1817  0.4634 -0.5330
12631TIP3    H159384   3.406   1.907   1.091 -0.0339  0.3513 -0.6131
12631TIP3    H259385   3.442   1.895   0.945  1.5503  1.9125 -0.3771
12632TIP3   OH259386   6.100   5.429   3.510  0.2614 -0.1145  0.1318
12632TIP3    H159387   6.075   5.375   3.586 -1.3222 -0.1173 -0.3556
12632TIP3    H259388   6.158   5.495   3.547 -0.3384 -0.2197  1.3467
12633TIP3   OH259389   2.855   4.831   6.251 -0.2168  0.3531 -0.4624
12633TIP3    H159390   2.772   4.879   6.249 -0.3050  0.2299  0.1060
12633TIP3    H259391   2.915   4.889   6.299  0.3070  0.8728 -1.6984
12634TIP3   OH259392   4.591   6.283  11.113  0.0886  0.1703  0.3544
12634TIP3    H159393   4.578   6.372  11.144  0.6200  0.5133 -0.3805
12634TIP3    H259394   4.674   6.286  11.065 -0.0037 -0.6673  0.1219
12635TIP3   OH259395   4.460   6.107  12.642  0.3876 -0.2114  0.8184
12635TIP3    H159396   4.513   6.032  12.668  0.0268 -0.7508  0.0255
12635TIP3    H259397   4.413   6.132  12.721  1.7086  0.2024  1.5167
12636TIP3   OH259398   6.553   2.451   5.116 -0.0576 -0.8570  0.1535
12636TIP3    H159399   6.477   2.502   5.145 -0.0650 -0.9022  0.2130
12636TIP3    H259400   6.629   2.500   5.146 -0.0668 -1.4854  1.2539
12637TIP3   OH259401   6.213   6.732   0.136  0.0333 -0.6079  0.2174
12637TIP3    H159402   6.309   6.732   0.138  0.0444  0.3629  2.6651
12637TIP3    H259403   6.189   6.824   0.128 -0.6914 -0.7662  0.5252
12638TIP3   OH259404   0.286   3.467  13.738 -0.1815  0.4514  0.7423
12638TIP3    H159405   0.267   3.446  13.830 -1.3936  0.2719  0.4670
12638TIP3    H259406   0.211   3.432  13.690 -0.0597  1.4732 -0.2134
12639TIP3   OH259407   6.111   5.066  17.242  0.1855 -0.2975 -0.0084
12639TIP3    H159408   6.044   5.116  17.195 -1.3765 -0.6031  1.7890
12639TIP3    H259409   6.077   5.056  17.330  2.0960 -1.4924  0.6661
12640TIP3   OH259410   3.706   3.880   3.148  0.6798  0.4029 -0.3653
12640TIP3    H159411   3.743   3.891   3.236 -2.3279 -2.2290  1.4212
12640TIP3    H259412   3.652   3.958   3.136  1.1140  0.7852  0.0800
12641TIP3   OH259413   0.769   6.661   4.082  0.0858 -0.5484  0.2070
12641TIP3    H159414   0.774   6.566   4.087  1.4799 -0.4184  1.8554
12641TIP3    H259415   0.830   6.685   4.012  1.2736 -0.7760  1.1322
12642TIP3   OH259416   4.659   5.847  15.221  0.3798 -0.2657 -0.1237
12642TIP3    H159417   4.663   5.835  15.126 -0.6189 -1.3717 -0.0488
12642TIP3    H259418   4.572   5.814  15.246  1.7029 -2.7971  1.5405
12643TIP3   OH259419   2.170   2.674  15.256 -0.6966  0.5538  0.4623
12643TIP3    H159420   2.078   2.657  15.237 -0.1143  0.0358 -2.2499
12643TIP3    H259421   2.181   2.643  15.346 -3.0314  0.1233  0.6652
12644TIP3   OH259422   0.986   2.829  13.791  0.1957 -0.3238 -0.1797
12644TIP3    H159423   0.904   2.838  13.841 -0.6017 -1.6216 -1.1826
12644TIP3    H259424   0.963   2.771  13.718  1.7446  0.1947 -1.1212
12645TIP3   OH259425   3.358   3.074   4.729 -0.0384 -0.6209  0.4456
12645TIP3    H159426   3.275   3.065   4.682  0.5443 -0.6322 -0.6269
12645TIP3    H259427   3.381   3.166   4.721 -0.4546 -0.3976  1.6583
12646TIP3   OH259428   2.493   0.524  14.203 -0.5565 -0.0228 -0.1277
12646TIP3    H159429   2.497   0.591  14.272  0.8102  1.1236 -1.2503
12646TIP3    H259430   2.418   0.470  14.226 -0.1319  0.2910  2.2856
12647TIP3   OH259431   6.598   0.699   5.318 -0.3053 -0.2792 -0.4597
12647TIP3    H159432   6.582   0.613   5.357 -0.3759  0.6452  1.7115
12647TIP3    H259433   6.658   0.682   5.246  0.3187 -2.0593  0.4145
12648TIP3   OH259434   0.756   4.707   3.436  0.1574  0.0131  0.0650
12648TIP3    H159435   0.833   4.700   3.379  0.8941  2.1021  0.6894
12648TIP3    H259436   0.687   4.662   3.389  0.9962  0.8022 -2.0381
12649TIP3   OH259437   6.568   2.280   1.618 -0.0377 -0.1321  0.5587
12649TIP3    H159438   6.563   2.203   1.561 -1.4328 -0.1898  0.7381
12649TIP3    H259439   6.657   2.277   1.653 -0.1466 -1.8223  0.7883
12650TIP3   OH259440   5.157   0.959  13.029 -0.1215  0.2252 -0.6470
12650TIP3    H159441   5.179   0.872  13.063 -0.1478 -0.0730 -1.3742
12650TIP3    H259442   5.156   0.948  12.934  0.6603  1.2107 -0.7837
12651TIP3   OH259443   6.692   3.565   1.008 -0.5515  0.1268 -0.2260
12651TIP3    H159444   6.608   3.520   1.006 -1.4906  1.6338 -4.5481
12651TIP3    H259445   6.720   3.568   0.917  2.7672  2.3133  0.6825
12652TIP3   OH259446   3.887   3.122  15.030 -0.6704  0.0797  0.2790
12652TIP3    H159447   3.818   3.058  15.048 -1.0143  0.3420 -0.0854
12652TIP3    H259448   3.948   3.076  14.972 -1.4761  0.4163 -0.8646
12653TIP3   OH259449   0.435   5.746   0.120  0.2320 -0.7054  0.3788
12653TIP3    H159450   0.361   5.783   0.072  0.6319 -0.0572  0.2576
12653TIP3    H259451   0.394   5.700   0.194 -0.2481  0.3850  0.8083
12654TIP3   OH259452   4.107   6.161  10.972 -0.3754 -0.2300 -0.0095
12654TIP3    H159453   4.150   6.086  10.931  1.5892  0.0509  1.4296
12654TIP3    H259454   4.110   6.143  11.065 -1.2191  0.9691  0.2769
12655TIP3   OH259455   5.009   2.435   3.171 -0.4977  0.3869 -0.0750
12655TIP3    H159456   5.034   2.430   3.263  0.5586 -0.2039 -0.3790
12655TIP3    H259457   5.089   2.462   3.126 -1.4747  2.6322 -0.6287
12656TIP3   OH259458   4.446   3.304  16.651  0.0574  0.5585 -0.6961
12656TIP3    H159459   4.395   3.382  16.628 -2.8895 -0.5523  1.4508
12656TIP3    H259460   4.496   3.330  16.728  1.3325  1.1052 -1.6828
12657TIP3   OH259461   6.314   5.752   4.055  0.1462 -0.2831 -0.5819
12657TIP3    H159462   6.364   5.670   4.050 -0.6173 -0.8819  0.8208
12657TIP3    H259463   6.237   5.737   4.001 -1.0098 -1.3238  1.2236
12658TIP3   OH259464   3.655   3.383  16.090  0.3480  0.8363  0.0740
12658TIP3    H159465   3.644   3.432  16.171 -0.9378 -0.9252  1.0437
12658TIP3    H259466   3.565   3.361  16.064  0.8521 -0.5234 -0.5985
12659TIP3   OH259467   2.109   4.545   4.985 -0.3963  0.1749 -0.0138
12659TIP3    H159468   2.172   4.588   4.928 -0.7198  1.2065  0.3728
12659TIP3    H259469   2.118   4.590   5.069 -1.0247 -0.2580  0.2949
12660TIP3   OH259470   0.753   5.073   4.885 -0.1305 -0.4128  0.2874
12660TIP3    H159471   0.691   5.070   4.958 -0.3718 -1.6426  0.0591
12660TIP3    H259472   0.714   5.134   4.822 -1.2355 -1.3148  0.0597
12661TIP3   OH259473   3.008   3.245  11.314  0.1999 -0.4832 -0.3124
12661TIP3    H159474   3.058   3.188  11.256  0.0350 -1.5467  0.5647
12661TIP3    H259475   2.927   3.198  11.330 -0.1386  0.2160  0.0588
12662TIP3   OH259476   4.648   0.071  11.715 -0.4356 -0.2443  1.0186
12662TIP3    H159477   4.668  -0.013  11.674 -0.8799  0.3309 -0.4654
12662TIP3    H259478   4.554   0.084  11.700 -0.3296  0.6167  1.0101
12663TIP3   OH259479   4.933   4.064  14.966 -0.4633  0.1549 -0.5530
12663TIP3    H159480   4.989   4.137  14.991 -0.7303 -0.0273  0.6217
12663TIP3    H259481   4.954   4.049  14.874  0.0881  1.2604 -0.6293
12664TIP3   OH259482   4.078   0.214  14.475 -0.5213  0.0495 -0.0424
12664TIP3    H159483   4.162   0.175  14.448  0.2176  0.4295  1.5962
12664TIP3    H259484   4.096   0.308  14.482 -0.8444  0.0486  1.0629
12665TIP3   OH259485   3.373   1.979  14.451  0.3686  0.0459  0.2091
12665TIP3    H159486   3.454   1.930  14.457 -1.0226 -2.4592 -0.1404
12665TIP3    H259487   3.373   2.035  14.529  1.9041 -0.7258  0.8021
12666TIP3   OH259488   0.141   4.335  12.711  0.0367  0.0655  0.2913
12666TIP3    H159489   0.232   4.311  12.726  0.4781  0.6308 -1.3341
12666TIP3    H259490   0.096   4.251  12.701  0.1824 -0.2492  1.9468
12667TIP3   OH259491   6.617   2.965   0.623 -0.4438  0.2147 -0.4765
12667TIP3    H159492   6.609   3.004   0.710  1.1837 -1.7206  0.6228
12667TIP3    H259493   6.693   2.908   0.629  0.5999  1.0767 -3.6156
12668TIP3   OH259494   4.153   4.547  16.701  0.1697 -0.2213 -0.6093
12668TIP3    H159495   4.131   4.465  16.746  0.6453 -0.5004 -0.8797
12668TIP3    H259496   4.249   4.548  16.697  0.1768  0.4512 -0.4218
12669TIP3   OH259497   5.346   2.074   5.109  0.0473 -0.1074 -0.0274
12669TIP3    H159498   5.408   2.117   5.168 -0.6031 -0.3446  0.8606
12669TIP3    H259499   5.340   1.984   5.143 -1.6277  0.2140  0.6210
12670TIP3   OH259500   3.214   5.691  12.594 -0.5832  0.0717  0.4371
12670TIP3    H159501   3.262   5.733  12.665  2.0192 -1.6463 -0.1639
12670TIP3    H259502   3.169   5.763  12.550  0.7627  1.7022  1.5848
12671TIP3   OH259503   4.487   1.502  13.242 -0.3037  0.0260  0.4313
12671TIP3    H159504   4.531   1.560  13.179  0.0462 -0.3334  0.3383
12671TIP3    H259505   4.414   1.553  13.275 -2.0738 -0.5903 -2.1463
12672TIP3   OH259506   0.764   0.542  14.328 -0.5886  0.5670 -0.3821
12672TIP3    H159507   0.858   0.552  14.345 -0.2447  0.2945 -1.9554
12672TIP3    H259508   0.734   0.480  14.394  0.3982  0.4563 -0.0210
12673TIP3   OH259509   2.084   0.728  14.435 -0.2617  0.0376  0.7475
12673TIP3    H159510   2.011   0.701  14.379 -0.3756  1.3145  0.2475
12673TIP3    H259511   2.152   0.755  14.373  1.7976 -3.6799  1.0704
12674TIP3   OH259512   4.403   0.644  16.373 -0.0728 -0.0629  0.1230
12674TIP3    H159513   4.388   0.721  16.319  0.1133 -0.4188 -0.4473
12674TIP3    H259514   4.315   0.616  16.400 -0.0379  2.0239  2.7806
12675TIP3   OH259515   0.590   5.879   0.317 -0.2006  0.2270  0.3589
12675TIP3    H159516   0.537   5.815   0.269  0.8434  0.5986 -1.3611
12675TIP3    H259517   0.530   5.914   0.383 -1.0240 -1.9352  0.8476
12676TIP3   OH259518   0.341   1.361   0.036  0.4386  0.0475 -0.1000
12676TIP3    H159519   0.299   1.287   0.078 -3.2865  1.6617 -0.5693
12676TIP3    H259520   0.383   1.409   0.108 -0.2614 -0.6082  0.7614
12677TIP3   OH259521   3.883   0.524   1.289  0.1836  0.2689 -0.6042
12677TIP3    H159522   3.908   0.497   1.200 -0.9339  0.0477 -0.8780
12677TIP3    H259523   3.870   0.442   1.336 -0.1658  0.3643 -0.5286
12678TIP3   OH259524   1.309   5.734  15.859  0.3089 -0.2122  0.2479
12678TIP3    H159525   1.388   5.681  15.851 -0.4539 -1.0796 -2.2932
12678TIP3    H259526   1.322   5.807  15.798 -0.1987  0.5732  1.0412
12679TIP3   OH259527   6.530   5.724   1.032  0.1798 -0.0514 -0.2698
12679TIP3    H159528   6.465   5.793   1.021 -0.5061 -0.5724  0.3859
12679TIP3    H259529   6.508   5.659   0.966  1.1838  0.6071 -1.2739
12680TIP3   OH259530   6.320   6.129   0.722 -0.4280  0.4048  0.1085
12680TIP3    H159531   6.411   6.128   0.693 -0.2824 -0.1227  0.5794
12680TIP3    H259532   6.276   6.066   0.664 -0.8040  1.6827 -1.0654
12681TIP3   OH259533   6.653   5.158  12.998 -0.5196  0.2767  0.5850
12681TIP3    H159534   6.707   5.112  13.062  0.0115 -0.8130 -0.5964
12681TIP3    H259535   6.663   5.251  13.020  3.6074  0.3514 -0.7967
12682TIP3   OH259536   3.751   2.849   2.370  0.1402 -0.5133 -0.4250
12682TIP3    H159537   3.805   2.894   2.434  0.3976 -1.7597  0.2790
12682TIP3    H259538   3.662   2.857   2.404  0.0767  0.1728 -0.7449
12683TIP3   OH259539   6.369   5.688  15.115 -0.3934 -0.0523 -0.1690
12683TIP3    H159540   6.359   5.743  15.193  1.7188 -1.1390  0.9641
12683TIP3    H259541   6.456   5.710  15.081 -0.4541 -1.0435 -1.0198
12684TIP3   OH259542   2.661   3.878   1.178  0.1204  0.0994 -0.2453
12684TIP3    H159543   2.690   3.951   1.233 -1.1956  1.4305 -1.2119
12684TIP3    H259544   2.568   3.868   1.199 -0.3269  0.4162 -1.9087
12685TIP3   OH259545   2.761   4.477   0.955 -0.0755 -0.1941 -0.3290
12685TIP3    H159546   2.776   4.569   0.976 -0.4930 -0.2291  0.1146
12685TIP3    H259547   2.666   4.469   0.945 -0.0627 -0.6270 -0.1303
12686TIP3   OH259548   1.301   0.273   2.287 -0.5956 -0.4993 -0.0868
12686TIP3    H159549   1.294   0.368   2.275 -0.5030 -0.2891  1.3428
12686TIP3    H259550   1.384   0.261   2.333  0.6037 -1.5214 -2.4021
12687TIP3   OH259551   4.058   1.737   5.201  0.3887 -0.6757 -0.3586
12687TIP3    H159552   3.992   1.703   5.140 -0.6127  3.0854 -1.6604
12687TIP3    H259553   4.012   1.743   5.285  0.1205 -1.1339 -0.4708
12688TIP3   OH259554   2.123   2.941  13.248  0.0403  0.0850 -0.0896
12688TIP3    H159555   2.139   2.851  13.276  0.9185 -0.0837 -1.0656
12688TIP3    H259556   2.114   2.990  13.330  0.3817 -0.7433  0.4619
12689TIP3   OH259557   3.916   3.610   0.398  0.2711 -0.0829 -0.0588
12689TIP3    H159558   3.926   3.516   0.413  0.6359  0.0011  0.2487
12689TIP3    H259559   3.898   3.617   0.304  0.9430 -0.4183 -0.2270
12690TIP3   OH259560   1.614   5.159  15.716  0.6289  0.4555 -0.1169
12690TIP3    H159561   1.519   5.170  15.718  0.6985  0.9918  0.7434
12690TIP3    H259562   1.635   5.107  15.793  0.9680 -0.3048 -0.7082
12691TIP3   OH259563   2.861   4.762  13.007 -0.1499 -0.2293 -0.3353
12691TIP3    H159564   2.941   4.760  12.953  0.4212  0.6657  0.4480
12691TIP3    H259565   2.893   4.769  13.097 -1.1075  1.9335 -0.1023
12692TIP3   OH259566   3.109   2.849  15.810 -0.4096 -0.3094  0.4183
12692TIP3    H159567   3.159   2.930  15.822 -0.4991 -0.4077  1.5914
12692TIP3    H259568   3.176   2.780  15.807 -0.4342 -0.4362  1.9438
12693TIP3   OH259569   6.728   4.927  16.765  0.5502 -0.4419  0.1025
12693TIP3    H159570   6.702   4.989  16.833 -0.8015 -1.4024  0.5089
12693TIP3    H259571   6.655   4.866  16.760  0.8287 -0.6664 -1.9011
12694TIP3   OH259572   2.286   1.435  15.555 -0.2793  0.2939  0.3260
12694TIP3    H159573   2.335   1.483  15.489 -1.2984 -0.0051 -0.6787
12694TIP3    H259574   2.248   1.504  15.610  0.2477  0.5554  0.3715
12695TIP3   OH259575   3.484   4.247  17.341  0.0119  0.1282 -0.3409
12695TIP3    H159576   3.395   4.273  17.365 -0.1579 -1.1014  0.4511
12695TIP3    H259577   3.535   4.259  17.422 -0.1392 -2.1712  0.1610
12696TIP3   OH259578   2.812   3.497  13.781  0.3760  0.3003 -0.6671
12696TIP3    H159579   2.873   3.437  13.824  0.0513 -0.3004 -1.0357
12696TIP3    H259580   2.751   3.522  13.851  0.1134 -0.3232 -0.6720
12697TIP3   OH259581   2.408   5.637  13.346  0.2935  0.1055 -0.1688
12697TIP3    H159582   2.398   5.578  13.421  1.0732 -0.2737 -0.3550
12697TIP3    H259583   2.333   5.617  13.290  0.5971 -0.7962 -0.2762
12698TIP3   OH259584   5.083   4.985  12.429 -0.3716 -0.2846  0.5393
12698TIP3    H159585   5.116   5.074  12.442 -1.1731  0.0788  0.1387
12698TIP3    H259586   5.050   4.959  12.515  2.1924 -1.2127  1.3442
12699TIP3   OH259587   2.988   3.311  13.911 -0.0144  0.0149  0.0918
12699TIP3    H159588   2.990   3.255  13.988  0.3413  0.2844  0.2789
12699TIP3    H259589   3.079   3.317  13.883 -0.1463 -0.1286 -0.3891
12700TIP3   OH259590   1.269   0.106   3.653 -0.1010  0.4109  0.0532
12700TIP3    H159591   1.220   0.180   3.619  0.7132  1.4186  1.0007
12700TIP3    H259592   1.356   0.141   3.672  1.0037 -1.2872 -1.4623
12701TIP3   OH259593   3.890   3.920  14.144 -0.1779 -0.0382  0.5110
12701TIP3    H159594   3.932   4.000  14.111  1.1921 -0.2492  1.6337
12701TIP3    H259595   3.895   3.859  14.071  0.3634  0.3471  0.2117
12702TIP3   OH259596   4.474   2.145   1.406 -0.1374 -0.1670 -0.0528
12702TIP3    H159597   4.512   2.123   1.491 -1.5645 -1.9736  0.1787
12702TIP3    H259598   4.405   2.207   1.426  0.5697  0.6522 -0.1038
12703TIP3   OH259599   0.382   2.054  16.772 -0.2270 -0.6520  0.1349
12703TIP3    H159600   0.466   2.062  16.817  0.6228  0.3469 -1.5329
12703TIP3    H259601   0.387   1.970  16.727 -0.3401 -0.8283  0.4492
12704TIP3   OH259602   1.495   6.407  17.097 -0.3805 -0.4198  0.8877
12704TIP3    H159603   1.529   6.478  17.152  1.2345 -0.4697  0.0145
12704TIP3    H259604   1.404   6.397  17.126 -0.1536  0.8334  2.2142
12705TIP3   OH259605   5.796   4.808  14.579 -0.4888  0.4110 -1.0010
12705TIP3    H159606   5.874   4.863  14.581  0.1330 -0.4619 -0.8939
12705TIP3    H259607   5.768   4.802  14.670  1.1230 -1.7694 -0.5827
12706TIP3   OH259608   6.176   0.704  14.912 -0.0549  0.3877 -0.1921
12706TIP3    H159609   6.093   0.751  14.907 -0.1492  0.0579 -2.8891
12706TIP3    H259610   6.233   0.748  14.849  0.5934 -1.6491 -1.0938
12707TIP3   OH259611   2.551   3.291  14.901  0.0045 -0.0992  0.5659
12707TIP3    H159612   2.570   3.382  14.924 -0.6698  0.1920  0.0098
12707TIP3    H259613   2.637   3.253  14.882  0.3447  0.2533  1.3846
12708TIP3   OH259614   2.842   1.163   3.098 -0.1005  0.1815 -0.0939
12708TIP3    H159615   2.926   1.169   3.144 -0.4619  3.0833  0.3854
12708TIP3    H259616   2.836   1.244   3.048 -1.7219 -0.9089 -1.8352
12709TIP3   OH259617   0.357   1.667   2.783  0.6661  0.5892  0.0526
12709TIP3    H159618   0.395   1.661   2.871  1.8323 -0.2043 -0.4798
12709TIP3    H259619   0.428   1.643   2.725 -0.8125 -1.6427 -0.9756
12710TIP3   OH259620   4.733   0.289  15.411  0.8090  0.1675  0.2231
12710TIP3    H159621   4.766   0.355  15.472 -1.8384  0.3668  1.5799
12710TIP3    H259622   4.776   0.207  15.438  0.7087  0.5116  1.4910
12711TIP3   OH259623   5.412   4.319  11.814  0.2838 -0.2210  0.2506
12711TIP3    H159624   5.439   4.402  11.775 -0.9982  0.6092  1.0636
12711TIP3    H259625   5.494   4.280  11.846  1.0105  0.3040 -0.8941
12712TIP3   OH259626   4.713   0.734  14.153  0.0419  0.2840 -0.4145
12712TIP3    H159627   4.684   0.659  14.205 -0.1713 -0.5431 -1.6870
12712TIP3    H259628   4.641   0.797  14.158 -1.4640 -1.1753 -2.4010
12713TIP3   OH259629   5.650   1.690  14.377  0.4839  0.3473 -0.5648
12713TIP3    H159630   5.672   1.770  14.331 -0.4125  0.4366 -0.8505
12713TIP3    H259631   5.558   1.674  14.356  1.0374 -1.5847 -1.7828
12714TIP3   OH259632   3.162   4.552  11.126 -0.1790  0.3567  0.0702
12714TIP3    H159633   3.084   4.523  11.174  0.6127 -1.0302  0.5714
12714TIP3    H259634   3.132   4.629  11.077 -1.4772  0.7589  1.3976
12715TIP3   OH259635   2.103   4.383   0.086 -0.2177 -0.3384  0.2130
12715TIP3    H159636   2.131   4.470   0.116 -1.4013  1.1556 -2.5975
12715TIP3    H259637   2.008   4.389   0.083 -0.2766 -1.4621 -0.7165
12716TIP3   OH259638   5.398   4.785   4.776 -0.5857  0.0065 -0.2844
12716TIP3    H159639   5.473   4.842   4.761 -1.4164  0.9115 -1.1106
12716TIP3    H259640   5.326   4.824   4.727 -2.5785  1.1405  3.1313
12717TIP3   OH259641   0.589   2.421   0.200  0.0282  0.3859  0.5205
12717TIP3    H159642   0.534   2.377   0.265 -1.4166 -2.5042 -2.3232
12717TIP3    H259643   0.527   2.472   0.147  0.6135  0.0274 -0.5345
12718TIP3   OH259644   0.550   2.373   1.405 -0.2635 -0.1928 -0.0119
12718TIP3    H159645   0.491   2.447   1.390  0.5829  0.8080  1.3874
12718TIP3    H259646   0.582   2.350   1.318 -2.0360 -0.2077 -0.6923
12719TIP3   OH259647   1.400   0.557  17.313 -0.1993  0.3523  0.1332
12719TIP3    H159648   1.421   0.520  17.399 -0.3576  1.5617  0.7110
12719TIP3    H259649   1.406   0.651  17.326 -0.1423  0.5424 -1.2179
12720TIP3   OH259650   3.875   4.597  14.072  0.2459  0.3084 -0.2687
12720TIP3    H159651   3.833   4.518  14.037  0.7819 -0.0105 -0.2046
12720TIP3    H259652   3.867   4.661  14.001  0.0085  0.1294 -0.4067
12721TIP3   OH259653   4.450   0.538   3.869  0.0623 -0.3375  0.0826
12721TIP3    H159654   4.400   0.457   3.878 -1.5373  0.6652  0.8515
12721TIP3    H259655   4.484   0.555   3.956  0.8144 -0.4287 -0.1883
12722TIP3   OH259656   5.268   2.591   4.678  0.2306 -0.3249  0.4131
12722TIP3    H159657   5.268   2.555   4.767 -0.6162  0.7960  0.8846
12722TIP3    H259658   5.334   2.660   4.681 -0.9614  0.8344  0.6657
12723TIP3   OH259659   1.796   1.189  15.264 -0.3915  0.0428 -0.1031
12723TIP3    H159660   1.771   1.099  15.285 -0.2259  0.1629  0.6256
12723TIP3    H259661   1.721   1.224  15.216  0.2875 -1.0574 -2.0657
12724TIP3   OH259662   4.120   1.382   2.136  0.3028 -0.3216  0.1213
12724TIP3    H159663   4.212   1.389   2.109  0.2069 -3.8820 -1.8351
12724TIP3    H259664   4.111   1.290   2.164 -2.6309 -0.0360  0.3876
12725TIP3   OH259665   0.781   2.574  12.046 -0.1325  0.2414 -0.3915
12725TIP3    H159666   0.760   2.639  12.113 -0.1851 -0.2120  0.0307
12725TIP3    H259667   0.845   2.618  11.990  1.1284  0.0862  0.8654
12726TIP3   OH259668   3.800   2.622   3.234 -0.4176 -0.0078 -0.4811
12726TIP3    H159669   3.857   2.697   3.251  1.4253 -1.3512 -0.3777
12726TIP3    H259670   3.780   2.627   3.141 -1.2495  1.1839 -0.2697
12727TIP3   OH259671   3.193   6.105   4.306  0.6450  0.4007 -0.3536
12727TIP3    H159672   3.215   6.012   4.306 -0.3806  0.1229  0.5153
12727TIP3    H259673   3.273   6.150   4.279  0.9529 -0.7664 -1.4479
12728TIP3   OH259674   3.240   0.740  16.385 -0.0942  0.0790 -0.0636
12728TIP3    H159675   3.189   0.807  16.340 -0.8052  0.5232  1.3459
12728TIP3    H259676   3.326   0.780  16.399  0.6923 -0.6438 -2.3766
12729TIP3   OH259677   0.710   0.321  16.534  0.1649  0.0272 -0.0033
12729TIP3    H159678   0.644   0.353  16.595  2.0924  0.0671  2.1723
12729TIP3    H259679   0.792   0.323  16.583  1.3453 -2.8721 -1.5973
12730TIP3   OH259680   1.129   4.398  12.238 -0.4191  0.3631 -0.0287
12730TIP3    H159681   1.167   4.473  12.284  1.0362  0.5491 -1.4438
12730TIP3    H259682   1.128   4.425  12.146  0.8546 -1.6346 -0.6732
12731TIP3   OH259683   3.584   5.193   3.361 -0.1102  0.2151  0.0531
12731TIP3    H159684   3.516   5.162   3.301  0.7716 -1.1141 -0.3005
12731TIP3    H259685   3.664   5.196   3.308  0.3149  0.7502  0.7090
12732TIP3   OH259686   4.688   5.305   3.060 -0.1330  0.5343 -0.0404
12732TIP3    H159687   4.715   5.232   3.115  1.8028  0.7037 -0.6503
12732TIP3    H259688   4.615   5.271   3.009  0.4011 -0.8275  0.0441
12733TIP3   OH259689   1.470   3.315  11.399 -0.8525 -0.6706  0.6609
12733TIP3    H159690   1.510   3.244  11.448  0.0678 -0.4928  0.2024
12733TIP3    H259691   1.449   3.277  11.314  1.0210 -0.0633 -0.1326
12734TIP3   OH259692   5.682   4.954  10.761 -0.7317 -0.0512 -0.2080
12734TIP3    H159693   5.703   5.021  10.825  0.7371  0.4337 -1.1401
12734TIP3    H259694   5.639   5.002  10.689 -0.3648 -0.2176 -0.5442
12735TIP3   OH259695   3.663   0.648   2.327 -0.3920 -0.2046 -0.6077
12735TIP3    H159696   3.604   0.606   2.389  1.4463 -0.1263  1.3025
12735TIP3    H259697   3.606   0.699   2.270 -2.1885 -0.6072  0.7636
12736TIP3   OH259698   3.028   3.855   4.230  0.0714 -0.1223  0.1556
12736TIP3    H159699   3.113   3.891   4.255 -0.1681  1.9124 -1.6551
12736TIP3    H259700   2.971   3.875   4.304  0.1133  2.8186 -0.4968
12737TIP3   OH259701   2.902   3.629  14.873 -0.3918 -0.4166  0.3015
12737TIP3    H159702   2.915   3.652  14.781  2.2080 -1.6914  0.2674
12737TIP3    H259703   2.973   3.673  14.919 -1.2911 -0.3010  1.6513
12738TIP3   OH259704   4.578   5.875   0.218  0.2657 -0.1439 -0.1110
12738TIP3    H159705   4.502   5.854   0.272  0.7975 -1.1005  0.2883
12738TIP3    H259706   4.644   5.906   0.280  0.3458  0.2784 -0.4039
12739TIP3   OH259707   1.345   1.639   5.979  0.6157 -0.1613 -0.2719
12739TIP3    H159708   1.414   1.701   6.002 -0.0578  0.6881 -0.4868
12739TIP3    H259709   1.265   1.678   6.014 -0.0760 -0.0444 -1.8912
12740TIP3   OH259710   4.832   4.860   2.950  0.4897 -0.0156 -0.5484
12740TIP3    H159711   4.916   4.860   2.904  1.8357  0.8124  1.7372
12740TIP3    H259712   4.845   4.799   3.023 -1.4384 -1.0410 -1.0106
12741TIP3   OH259713   5.990   3.667  16.588  0.1276  0.1424  0.2386
12741TIP3    H159714   5.980   3.745  16.642 -0.2686  0.4939 -0.3273
12741TIP3    H259715   5.901   3.648  16.558  0.3622  0.0454 -0.4092
12742TIP3   OH259716   2.135   1.136   1.159 -0.1928  1.0708  0.9964
12742TIP3    H159717   2.171   1.118   1.245  1.1839 -0.5708  0.1499
12742TIP3    H259718   2.202   1.188   1.115  0.5062 -0.5555 -0.0049
12743TIP3   OH259719   0.708   4.305   1.940  0.4635 -0.0482  0.4225
12743TIP3    H159720   0.704   4.347   2.026  2.2567  0.0643  0.4732
12743TIP3    H259721   0.767   4.360   1.889  1.4275 -1.5085 -0.0791
12744TIP3   OH259722   0.277   4.464   0.025  0.4175 -0.4052  0.1580
12744TIP3    H159723   0.205   4.408   0.056 -0.1338 -0.1366 -0.6217
12744TIP3    H259724   0.346   4.403  -0.001 -0.1276 -0.7305 -0.5555
12745TIP3   OH259725   2.468   6.220  11.803  0.0344 -0.1144  0.1179
12745TIP3    H159726   2.515   6.229  11.720 -0.7117 -1.0700 -0.4237
12745TIP3    H259727   2.377   6.244  11.782  0.2664  1.9821  1.2121
12746TIP3   OH259728   1.693   0.251  15.559 -0.3286 -0.1137 -0.1675
12746TIP3    H159729   1.619   0.200  15.594  0.1023 -0.9369 -0.4285
12746TIP3    H259730   1.681   0.250  15.465 -1.0537  1.4404 -0.1232
12747TIP3   OH259731   0.646   0.346  16.914  0.2451  0.5280  0.7498
12747TIP3    H159732   0.593   0.383  16.843  1.1366  0.5059  0.0533
12747TIP3    H259733   0.617   0.394  16.992 -2.7548 -1.3537  0.9502
12748TIP3   OH259734   1.943   4.633   3.130  0.2376 -0.3471 -0.0369
12748TIP3    H159735   1.891   4.606   3.206 -0.7914 -0.5865 -0.8070
12748TIP3    H259736   1.891   4.605   3.054  0.5298  1.2233 -0.8542
12749TIP3   OH259737   3.280   1.562   2.920  0.5873  0.2195 -0.4063
12749TIP3    H159738   3.353   1.554   2.982  1.9105 -0.7700 -1.9785
12749TIP3    H259739   3.289   1.485   2.863 -0.7715  0.8973 -1.5989
12750TIP3   OH259740   1.805   6.145  11.742 -0.4218 -0.3606  0.2018
12750TIP3    H159741   1.815   6.137  11.647 -1.0819 -0.8479  0.1700
12750TIP3    H259742   1.843   6.231  11.763  1.4899 -1.0654 -0.2262
12751TIP3   OH259743   2.950   5.531  15.480  0.3184 -0.4397 -0.1372
12751TIP3    H159744   2.893   5.592  15.527  0.1340 -0.0639 -0.8399
12751TIP3    H259745   3.005   5.493  15.548  1.1397  1.2527  0.1930
12752TIP3   OH259746   0.264   6.411  11.852 -0.1510 -0.3229 -0.0678
12752TIP3    H159747   0.200   6.363  11.904  0.0201 -0.4814 -0.0038
12752TIP3    H259748   0.274   6.359  11.772 -1.5650  0.6919 -0.9682
12753TIP3   OH259749   4.975   5.272   2.550  0.5052  0.3265  0.2248
12753TIP3    H159750   4.918   5.275   2.473 -0.1283 -1.2745  0.5913
12753TIP3    H259751   4.956   5.353   2.598 -0.0526  0.7090 -0.6252
12754TIP3   OH259752   1.290   2.867  14.816 -0.2958  0.1825  0.6420
12754TIP3    H159753   1.354   2.901  14.753  0.3401 -1.6114  0.2699
12754TIP3    H259754   1.295   2.927  14.891  1.7362  0.1564  0.5648
12755TIP3   OH259755   5.565   0.439  16.891  0.2511  0.2495  0.9888
12755TIP3    H159756   5.633   0.503  16.912  0.1598  1.0531 -0.8917
12755TIP3    H259757   5.612   0.370  16.844 -0.1368  0.6939 -0.1038
12756TIP3   OH259758   6.382   1.608  17.238 -0.3676  0.2335 -0.2234
12756TIP3    H159759   6.339   1.687  17.271 -0.1435  0.0700  0.4756
12756TIP3    H259760   6.318   1.569  17.178 -0.6181  0.7579 -0.3005
12757TIP3   OH259761   3.958   3.020   6.442  0.3601  0.6807  0.9058
12757TIP3    H159762   4.013   2.968   6.382  0.1169 -0.3642  1.5710
12757TIP3    H259763   3.869   2.990   6.425  0.1899  1.0685  1.1155
12758TIP3   OH259764   6.008   1.312  14.775  0.2308 -0.1519  0.1787
12758TIP3    H159765   5.952   1.263  14.836 -0.0853 -0.2374 -0.1761
12758TIP3    H259766   5.979   1.403  14.785 -0.2269 -0.2428 -0.2664
12759TIP3   OH259767   6.043   4.481  14.002 -0.4384 -0.0825 -0.4363
12759TIP3    H159768   6.006   4.459  14.088 -1.3572 -1.0043 -1.0347
12759TIP3    H259769   6.045   4.576  14.000 -0.5874 -0.0536  0.5408
12760TIP3   OH259770   1.247   4.987  15.399  0.9770 -0.6085  0.2976
12760TIP3    H159771   1.221   4.956  15.312 -0.0677  0.8638  0.0395
12760TIP3    H259772   1.343   4.984  15.398  0.9434 -2.1723 -0.2893
12761TIP3   OH259773   4.022   5.520  17.338 -0.1433 -0.1186  0.2249
12761TIP3    H159774   4.022   5.427  17.363 -0.3844 -0.0914  0.3283
12761TIP3    H259775   3.970   5.563  17.405 -2.2229 -0.2825 -1.1984
12762TIP3   OH259776   2.223   2.952   3.854 -0.7623  0.3681  0.5907
12762TIP3    H159777   2.130   2.953   3.833 -0.7746  1.5477  0.6283
12762TIP3    H259778   2.236   3.028   3.911  0.5101  1.2348 -0.7590
12763TIP3   OH259779   2.759   3.421   5.824  0.6638  0.4405  0.4250
12763TIP3    H159780   2.846   3.428   5.785  0.0051 -0.1898 -1.2471
12763TIP3    H259781   2.703   3.389   5.753 -1.0101  1.1446  1.3618
12764TIP3   OH259782   2.228   3.307   2.561  0.0545 -0.0290 -0.1442
12764TIP3    H159783   2.214   3.392   2.519 -1.1336 -0.8449 -1.5315
12764TIP3    H259784   2.297   3.266   2.508  0.1327 -0.1931  0.0865
12765TIP3   OH259785   3.908   6.115  16.584  0.7668 -0.0013  0.2305
12765TIP3    H159786   3.872   6.065  16.511 -1.7348  1.9159  0.0316
12765TIP3    H259787   3.832   6.145  16.632  2.2582  1.5810  1.7201
12766TIP3   OH259788   4.034   4.097   0.028  0.6494 -0.9918 -0.3259
12766TIP3    H159789   4.117   4.144   0.037 -0.5899  1.3642 -0.5184
12766TIP3    H259790   3.967   4.164   0.034 -1.2132 -2.5333 -2.1330
12767TIP3   OH259791   5.313   3.386   1.260 -0.3672 -0.4294  0.3420
12767TIP3    H159792   5.322   3.321   1.329  1.0660 -1.5921 -0.8694
12767TIP3    H259793   5.277   3.337   1.186 -0.5966  0.4753 -0.1569
12768TIP3   OH259794   0.794   5.904   4.695 -0.2197 -0.2596 -0.0463
12768TIP3    H159795   0.818   5.855   4.773 -1.1761 -0.5905  0.0546
12768TIP3    H259796   0.771   5.991   4.728  2.0871  0.5049 -0.2937
12769TIP3   OH259797   5.018   4.045  12.466  0.1076 -0.3214  0.1851
12769TIP3    H159798   5.109   4.030  12.438 -0.3088  0.5461 -1.8324
12769TIP3    H259799   5.006   4.140  12.459 -0.3403 -0.1561  2.5750
12770TIP3   OH259800   2.864   3.241  15.128  0.1417 -0.7862  1.1973
12770TIP3    H159801   2.769   3.246  15.116  0.0366 -1.4979  1.6646
12770TIP3    H259802   2.876   3.176  15.197  1.1264 -3.2649 -1.1289
12771TIP3   OH259803   4.116   3.930   3.670  0.6061 -0.0561  0.2525
12771TIP3    H159804   4.149   3.951   3.757 -1.3919  0.7334  0.8562
12771TIP3    H259805   4.036   3.981   3.661 -0.0353 -1.2770 -1.4638
12772TIP3   OH259806   5.315   3.459  15.569  0.2295 -0.1014 -0.6779
12772TIP3    H159807   5.384   3.400  15.599  0.1019 -0.3550 -0.8784
12772TIP3    H259808   5.309   3.444  15.474  0.3965  0.4468 -0.7825
12773TIP3   OH259809   3.756   4.002   5.416 -0.2224  0.5671  0.2867
12773TIP3    H159810   3.720   3.971   5.499 -0.4035 -0.7102 -0.2400
12773TIP3    H259811   3.851   4.002   5.430 -0.2661  0.6277  0.5861
12774TIP3   OH259812   5.374   1.418   1.570  0.1850  0.2048  0.7329
12774TIP3    H159813   5.303   1.480   1.589  0.8772  1.0800  0.5537
12774TIP3    H259814   5.350   1.338   1.616 -0.2122  0.9509  1.8607
12775TIP3   OH259815   0.941   4.443   3.806 -0.5889 -0.4885  0.5812
12775TIP3    H159816   0.970   4.456   3.896  0.6635  0.5209  0.0676
12775TIP3    H259817   0.953   4.349   3.790 -2.3001 -0.9978  1.9054
12776TIP3   OH259818   6.182   6.619  13.552 -0.0328  0.2485 -0.1494
12776TIP3    H159819   6.132   6.562  13.610  2.0600 -1.3379  0.1896
12776TIP3    H259820   6.123   6.635  13.478 -2.0437  0.7575  1.4809
12777TIP3   OH259821   2.299   0.187  13.394  0.1005  0.6017  0.7076
12777TIP3    H159822   2.388   0.218  13.377  0.6045 -1.4738 -0.7232
12777TIP3    H259823   2.311   0.104  13.440 -1.1977  1.5969  3.0386
12778TIP3   OH259824   5.278   3.114   2.114 -0.4212  0.3188  0.4647
12778TIP3    H159825   5.279   3.206   2.088 -0.5142 -0.5568 -3.1588
12778TIP3    H259826   5.370   3.087   2.109 -0.6504 -0.2870 -0.7134
12779TIP3   OH259827   6.396   5.687   0.121 -0.1782  0.2309 -0.0771
12779TIP3    H159828   6.340   5.714   0.048 -0.6985  0.3815  0.3683
12779TIP3    H259829   6.375   5.749   0.191 -0.5600 -0.6312  0.5909
12780TIP3   OH259830   6.207   2.927  16.344  0.2138 -0.0822  0.4819
12780TIP3    H159831   6.161   2.874  16.279  0.3258 -0.4759  0.7190
12780TIP3    H259832   6.238   3.003  16.296 -1.0256  0.3892  0.3926
12781TIP3   OH259833   4.949   5.569  14.049 -0.2345 -0.3133  0.6424
12781TIP3    H159834   4.997   5.493  14.015 -0.2574 -0.0844  0.0863
12781TIP3    H259835   4.926   5.545  14.139 -0.8111 -1.2351  0.2628
12782TIP3   OH259836   0.506   2.447  15.137 -0.4822  0.3679 -0.0082
12782TIP3    H159837   0.587   2.405  15.166 -0.5334  0.0350 -0.3468
12782TIP3    H259838   0.531   2.537  15.116 -0.1397  0.1819 -0.3996
12783TIP3   OH259839   4.407   0.736   2.627  0.3384 -0.2522  0.2489
12783TIP3    H159840   4.363   0.736   2.712  2.1549  1.2978  1.2587
12783TIP3    H259841   4.456   0.654   2.625  0.1575 -0.3714  0.6131
12784TIP3   OH259842   2.344   0.332  11.839 -0.7545  0.1712 -0.7865
12784TIP3    H159843   2.357   0.398  11.907 -0.0209 -1.1630  0.4200
12784TIP3    H259844   2.284   0.373  11.776 -1.1830  1.5605  0.4857
12785TIP3   OH259845   4.970   4.326   1.053  0.2976  0.1614 -0.1243
12785TIP3    H159846   4.922   4.270   0.991  1.1288  0.3346 -0.9467
12785TIP3    H259847   4.966   4.280   1.136 -0.0179 -0.5543 -0.5286
12786TIP3   OH259848   4.861   5.160   1.718 -0.2505  0.0876  0.9334
12786TIP3    H159849   4.792   5.136   1.779 -0.0647 -0.4363  0.9450
12786TIP3    H259850   4.911   5.229   1.763 -1.5417  1.4260  0.3881
12787TIP3   OH259851   1.185   3.971  16.844  0.0521  0.3061 -0.6016
12787TIP3    H159852   1.266   3.925  16.822 -0.1009  0.3887 -1.3579
12787TIP3    H259853   1.167   4.026  16.767 -0.6616  0.3701 -0.3944
12788TIP3   OH259854   1.116   1.400   0.653  0.1669 -0.2808  0.1210
12788TIP3    H159855   1.207   1.400   0.622  0.4616 -0.4993  0.9679
12788TIP3    H259856   1.076   1.326   0.608  0.1470  0.3709 -0.9741
12789TIP3   OH259857   2.719   1.752   5.830 -0.6362 -0.5565  0.0205
12789TIP3    H159858   2.800   1.760   5.779 -0.6328 -0.9207 -0.0336
12789TIP3    H259859   2.739   1.684   5.895 -0.5322  0.1315  0.7159
12790TIP3   OH259860   2.702   2.356   4.532 -0.0426 -0.6903  0.1621
12790TIP3    H159861   2.624   2.410   4.548  0.4278 -0.1304  0.5867
12790TIP3    H259862   2.774   2.418   4.530  0.5577 -1.3392  1.0272
12791TIP3   OH259863   4.281   5.514   5.795  0.1867 -0.2046 -0.1839
12791TIP3    H159864   4.268   5.576   5.867  4.4510  0.5851  0.1956
12791TIP3    H259865   4.302   5.432   5.839  1.8703  0.0468 -0.4416
12792TIP3   OH259866   1.087   3.196  15.625 -0.0546  0.1279 -0.1111
12792TIP3    H159867   1.114   3.183  15.534  1.0392  0.9374  0.0810
12792TIP3    H259868   0.991   3.191  15.622 -0.0684  0.7345 -1.4113
12793TIP3   OH259869   6.074   2.866  13.058  0.6783  0.8970 -0.5339
12793TIP3    H159870   6.122   2.789  13.091 -1.1702  0.5029  1.4626
12793TIP3    H259871   6.143   2.925  13.027  2.2009 -1.2543 -1.5310
12794TIP3   OH259872   5.467   5.404   1.085  0.7975  0.1126 -0.5844
12794TIP3    H159873   5.517   5.475   1.045  3.3662 -0.8213  0.7481
12794TIP3    H259874   5.528   5.331   1.089 -0.5321 -0.9824  1.6012
12795TIP3   OH259875   6.301   2.974  11.798 -0.0231 -0.1658  0.1602
12795TIP3    H159876   6.209   2.951  11.814 -0.1577  0.8618  0.9724
12795TIP3    H259877   6.299   3.028  11.719 -0.4387  1.7540  1.4213
12796TIP3   OH259878   6.788   6.544  14.633 -0.5549 -0.6800 -0.1697
12796TIP3    H159879   6.724   6.610  14.660 -0.6774 -0.7098 -0.3903
12796TIP3    H259880   6.863   6.596  14.603 -0.5484 -0.6438 -0.0924
12797TIP3   OH259881   1.609   4.363  11.579  0.4041  0.0524  0.4684
12797TIP3    H159882   1.613   4.313  11.661  1.1007  0.0088  0.4082
12797TIP3    H259883   1.517   4.389  11.572 -0.5157 -2.9600 -0.5233
12798TIP3   OH259884   1.878   5.305  13.229  0.4680  0.0150 -0.6558
12798TIP3    H159885   1.892   5.211  13.230 -1.9980 -0.4930 -3.0214
12798TIP3    H259886   1.940   5.338  13.164  1.1847  0.0317  0.0204
12799TIP3   OH259887   2.191   5.272  15.742 -0.6198 -0.1544  0.3924
12799TIP3    H159888   2.199   5.185  15.781  1.3373  0.2788  1.0471
12799TIP3    H259889   2.246   5.268  15.664  0.7582  0.9463  1.2766
12800TIP3   OH259890   4.482   1.031   5.104 -0.0174  0.3953  0.2370
12800TIP3    H159891   4.468   1.125   5.117  2.0351  1.0584 -1.7246
12800TIP3    H259892   4.493   0.997   5.193 -2.0577  1.7197  1.0900
12801TIP3   OH259893   4.730   1.454   3.680  0.4200 -0.5101  0.3990
12801TIP3    H159894   4.771   1.444   3.594 -0.0043  0.6782  0.0341
12801TIP3    H259895   4.800   1.488   3.736  0.2364  0.4967  0.0414
12802TIP3   OH259896   4.905   0.728   0.618  0.2121 -0.0576 -0.2726
12802TIP3    H159897   4.825   0.780   0.619  0.7579  0.8255 -0.8094
12802TIP3    H259898   4.905   0.681   0.701 -0.0894  1.1284  0.4120
12803TIP3   OH259899   1.943   5.078   1.010  0.4834 -0.7444 -0.6621
12803TIP3    H159900   2.012   5.143   0.999 -1.8216  2.2231  0.9326
12803TIP3    H259901   1.878   5.101   0.944 -0.9803 -0.5248  0.8065
12804TIP3   OH259902   1.551   2.497  16.120  0.3328  0.5185 -1.1089
12804TIP3    H159903   1.627   2.536  16.076 -0.1669 -0.2465 -2.7407
12804TIP3    H259904   1.540   2.548  16.200  2.4874  0.7214 -0.8902
12805TIP3   OH259905   4.403   4.797   3.284  0.2360 -0.3739  0.0736
12805TIP3    H159906   4.471   4.863   3.294 -0.0797  0.3614 -2.1110
12805TIP3    H259907   4.327   4.845   3.251 -0.0654 -1.7706 -1.3997
12806TIP3   OH259908   2.956   2.561   5.029 -0.3611  0.2255 -0.1652
12806TIP3    H159909   2.870   2.576   5.070 -1.1768 -1.1463 -1.3077
12806TIP3    H259910   2.936   2.525   4.943  1.3558  1.4119 -1.1323
12807TIP3   OH259911   4.891   4.640   5.699 -0.1859 -0.2970 -0.3777
12807TIP3    H159912   4.802   4.674   5.706 -0.7857 -1.9009  0.2132
12807TIP3    H259913   4.947   4.713   5.727 -1.4071  0.2462  0.7618
12808TIP3   OH259914   1.646   6.576  12.178  0.4421  0.1275 -0.3234
12808TIP3    H159915   1.680   6.491  12.206 -1.2376 -1.0293 -1.6276
12808TIP3    H259916   1.713   6.638  12.206  1.7686 -1.6084  0.5958
12809TIP3   OH259917   4.505   1.421   1.432 -0.3372  0.0804 -1.2318
12809TIP3    H159918   4.592   1.401   1.467 -0.2489 -1.4180 -2.2172
12809TIP3    H259919   4.492   1.514   1.451  0.5701 -0.1589  0.8461
12810TIP3   OH259920   2.211   3.173   3.652 -0.0319 -0.0417 -0.0364
12810TIP3    H159921   2.220   3.145   3.743  0.2915 -1.5644 -0.5120
12810TIP3    H259922   2.253   3.103   3.601 -0.2519  0.7586 -1.3598
12811TIP3   OH259923   5.958   2.759   3.618 -0.1865  0.2510  0.1223
12811TIP3    H159924   5.939   2.679   3.667  2.0413 -0.8542 -0.6496
12811TIP3    H259925   5.905   2.752   3.539 -0.9814  0.1962  0.6513
12812TIP3   OH259926   5.176   1.893   2.793 -0.1078 -0.3604  0.0126
12812TIP3    H159927   5.180   1.822   2.857 -0.8262 -1.6654 -1.3373
12812TIP3    H259928   5.087   1.928   2.802 -0.9875 -1.9895 -1.6952
12813TIP3   OH259929   2.812   1.372   1.561 -0.1707  0.1602 -0.0506
12813TIP3    H159930   2.771   1.350   1.477  0.6650 -2.1079  0.0845
12813TIP3    H259931   2.904   1.383   1.540 -0.0041 -0.1246  0.5218
12814TIP3   OH259932   3.289   3.046   0.055  0.2535  0.1703 -0.0318
12814TIP3    H159933   3.375   3.075   0.024 -0.6291  2.7639 -0.3065
12814TIP3    H259934   3.270   2.968   0.003  1.3850  0.9623 -1.7521
12815TIP3   OH259935   4.814   6.362   3.186 -0.3502 -0.6208  0.1462
12815TIP3    H159936   4.819   6.406   3.270  0.4633  1.0585 -0.7318
12815TIP3    H259937   4.821   6.432   3.121 -1.1128 -1.8387 -1.3378
12816TIP3   OH259938   1.715   1.684  13.178 -0.4473  0.0538 -0.0146
12816TIP3    H159939   1.699   1.670  13.085  2.7096 -1.5392 -0.4530
12816TIP3    H259940   1.661   1.617  13.222 -3.8821  2.3487 -0.3409
12817TIP3   OH259941   5.188   3.865  14.141  0.1335  0.3158 -0.1618
12817TIP3    H159942   5.220   3.908  14.221 -0.0035  1.0209 -0.4854
12817TIP3    H259943   5.117   3.808  14.172 -0.1501  0.8432  0.1747
12818TIP3   OH259944   5.164   5.711   1.647 -0.0079 -0.4548 -0.4538
12818TIP3    H159945   5.130   5.800   1.639  1.0219 -0.0548 -0.5630
12818TIP3    H259946   5.100   5.656   1.603  0.4019  0.4873 -2.3018
12819TIP3   OH259947   1.675   5.791  16.849  0.0918  0.3880 -0.0091
12819TIP3    H159948   1.664   5.702  16.883 -0.3663 -0.8784 -3.0893
12819TIP3    H259949   1.594   5.836  16.869  1.4936  1.3876  4.5246
12820TIP3   OH259950   2.482   0.741  13.895 -0.9814 -0.0038 -0.5957
12820TIP3    H159951   2.562   0.752  13.843 -0.6457  0.9873  0.1072
12820TIP3    H259952   2.513   0.730  13.985 -1.6674  1.7092 -0.1172
12821TIP3   OH259953   4.204   5.305   0.370  0.7524 -0.6856  0.7123
12821TIP3    H159954   4.262   5.247   0.419 -0.7810  0.4905  4.2067
12821TIP3    H259955   4.252   5.387   0.362  0.8647 -0.7614  0.6208
12822TIP3   OH259956   4.239   3.824  11.932 -0.4193 -0.6070  0.9091
12822TIP3    H159957   4.307   3.775  11.888 -0.7586  0.7010 -1.2208
12822TIP3    H259958   4.273   3.840  12.020 -0.0178 -3.9143  1.4527
12823TIP3   OH259959   6.057   4.562   5.054 -0.1455  0.5820  0.0890
12823TIP3    H159960   5.989   4.556   5.121 -0.5914 -0.0484 -0.4159
12823TIP3    H259961   6.035   4.494   4.991  0.4138  1.0028 -0.5742
12824TIP3   OH259962   4.645   3.570  12.563  0.1038 -0.1379 -1.1268
12824TIP3    H159963   4.637   3.478  12.588  0.6229  0.4811  1.7217
12824TIP3    H259964   4.705   3.570  12.488  1.2209 -2.0343 -0.3033
12825TIP3   OH259965   4.194   3.139  15.827 -0.2291 -0.2108  0.2377
12825TIP3    H159966   4.158   3.060  15.868  0.6894 -1.0706 -0.5435
12825TIP3    H259967   4.236   3.187  15.899 -1.2739 -0.1451  0.8117
12826TIP3   OH259968   0.784   1.695   4.241  0.0964 -0.3069 -0.3492
12826TIP3    H159969   0.710   1.750   4.217 -1.7251 -2.1348  0.7308
12826TIP3    H259970   0.846   1.704   4.169 -1.4460  0.8087 -1.5940
12827TIP3   OH259971   1.959   4.850  15.800 -0.0657 -0.6180  0.9338
12827TIP3    H159972   1.964   4.941  15.769  2.4781 -0.7472  0.8284
12827TIP3    H259973   1.867   4.840  15.826 -0.3762  2.0636  1.2085
12828TIP3   OH259974   2.230   4.990  10.926 -0.1122  0.3208  0.3165
12828TIP3    H159975   2.253   5.071  10.882 -0.2680  0.0422 -0.2860
12828TIP3    H259976   2.312   4.959  10.964  0.4068 -0.3333 -1.2669
12829TIP3   OH259977   0.408   4.618  11.451 -0.5306  1.0511 -0.1726
12829TIP3    H159978   0.380   4.607  11.541 -1.5689  1.2362 -0.4681
12829TIP3    H259979   0.328   4.635  11.402 -0.1937 -0.5855 -1.3870
12830TIP3   OH259980   3.284   4.346   3.384  0.1693 -0.0583  0.4298
12830TIP3    H159981   3.200   4.374   3.347  0.5309 -0.4149 -0.7145
12830TIP3    H259982   3.342   4.339   3.308  0.8906 -1.0493  1.0503
12831TIP3   OH259983   3.563   0.030  16.007  0.4289  0.4429  0.2153
12831TIP3    H159984   3.558  -0.019  15.925  0.4773 -1.8470  1.4768
12831TIP3    H259985   3.491  -0.004  16.059  2.4556 -0.8616  2.4089
12832TIP3   OH259986   3.075   1.147  16.612  0.3585  0.1457  0.6315
12832TIP3    H159987   3.159   1.109  16.635  1.8606  1.8272 -1.5609
12832TIP3    H259988   3.050   1.105  16.530  1.0439  2.2517 -0.7539
12833TIP3   OH259989   4.814   1.110  11.510  0.1754  0.3077  0.2126
12833TIP3    H159990   4.736   1.083  11.460  0.0967  0.8446  0.0323
12833TIP3    H259991   4.825   1.042  11.576  1.6644 -1.7162 -1.9708
12834TIP3   OH259992   0.500   5.702  16.197 -0.3590  0.2566  0.2397
12834TIP3    H159993   0.576   5.759  16.203 -0.6912  0.8015 -0.5315
12834TIP3    H259994   0.535   5.617  16.171 -0.1252  0.8272 -1.3783
12835TIP3   OH259995   6.370   4.683   3.223  0.1551 -0.3788 -0.0018
12835TIP3    H159996   6.456   4.643   3.239  0.1448 -0.9663 -1.2665
12835TIP3    H259997   6.339   4.710   3.309  0.9946 -1.4371  0.6522
12836TIP3   OH259998   4.201   6.509  11.181 -0.3815  0.2199  0.2149
12836TIP3    H159999   4.164   6.596  11.199 -1.1979 -0.1384  0.3231
12836TIP3    H260000   4.145   6.449  11.230 -1.2587 -0.5821 -1.6899
12837TIP3   OH260001   1.112   5.107  15.002  0.4084 -0.4752  0.8411
12837TIP3    H160002   1.193   5.066  14.972 -1.7997 -2.5469 -3.1744
12837TIP3    H260003   1.074   5.044  15.063  0.2864 -1.1664  0.0732
12838TIP3   OH260004   1.464   5.523   2.559  0.0859 -0.3144  0.0318
12838TIP3    H160005   1.507   5.608   2.554 -0.4054 -0.0472  0.2494
12838TIP3    H260006   1.404   5.522   2.485 -0.0343 -0.4029  0.1310
12839TIP3   OH260007   6.143   3.799   2.077 -0.3862  0.1703 -1.0380
12839TIP3    H160008   6.155   3.716   2.123  1.5042  0.1047 -1.5385
12839TIP3    H260009   6.049   3.805   2.061 -1.0146 -0.2096  2.0107
12840TIP3   OH260010   1.967   5.586   3.185  0.4972  0.0934 -0.1381
12840TIP3    H160011   1.880   5.597   3.146 -0.4530  0.9084  2.0433
12840TIP3    H260012   1.969   5.495   3.215  0.7916 -0.2020 -1.0212
12841TIP3   OH260013   0.481   4.252  15.989 -0.3693 -0.1793 -0.5153
12841TIP3    H160014   0.393   4.221  16.013 -1.3381  2.8423  0.3582
12841TIP3    H260015   0.532   4.243  16.069  0.0382 -1.5713 -0.9131
12842TIP3   OH260016   0.095   1.358   1.312  0.2738  0.1134 -0.1775
12842TIP3    H160017   0.083   1.452   1.303 -0.5130  0.2011  1.4564
12842TIP3    H260018   0.079   1.340   1.405  1.5333 -1.4720 -0.2198
12843TIP3   OH260019   1.319   5.747   2.957  0.1943 -0.4052  0.0353
12843TIP3    H160020   1.399   5.775   3.002  0.4369 -1.1918  0.1112
12843TIP3    H260021   1.333   5.654   2.939 -0.6621 -0.5259 -0.0456
12844TIP3   OH260022   5.018   2.830   6.702  0.2267  0.2457  0.4161
12844TIP3    H160023   5.010   2.744   6.744  1.8221 -1.1304 -1.8960
12844TIP3    H260024   5.003   2.813   6.609  0.3474  2.5442 -0.0822
12845TIP3   OH260025   5.689   1.062  14.651  0.5470 -0.1235  0.3326
12845TIP3    H160026   5.675   1.003  14.577  1.1672  0.7694 -0.5207
12845TIP3    H260027   5.673   1.149  14.616  0.0530  0.2705  1.4681
12846TIP3   OH260028   2.525   5.798   3.835 -0.7137  0.4010  0.3892
12846TIP3    H160029   2.444   5.815   3.883 -0.0702  0.6599  1.4357
12846TIP3    H260030   2.584   5.760   3.901 -0.9405 -2.7371 -1.0369
12847TIP3   OH260031   3.082   0.178   1.374 -0.3938 -0.1482  0.9387
12847TIP3    H160032   3.102   0.228   1.453  4.0539 -0.6792  0.4096
12847TIP3    H260033   3.088   0.086   1.401 -1.0337 -0.3715  0.3705
12848TIP3   OH260034   6.335   6.080   5.687  0.0075 -0.2290  0.0955
12848TIP3    H160035   6.274   6.144   5.650 -1.6530 -2.3370 -0.9925
12848TIP3    H260036   6.280   6.016   5.731  1.7247 -0.0446  2.7461
12849TIP3   OH260037   1.983   4.177   2.011 -0.7185  0.1859  0.2710
12849TIP3    H160038   2.004   4.252   2.066  0.4002 -0.8314  1.2761
12849TIP3    H260039   2.046   4.183   1.939  1.0149 -1.0590  1.5953
12850TIP3   OH260040   4.012   4.320   3.893  0.0222  0.4021  0.2723
12850TIP3    H160041   3.993   4.227   3.878 -1.9621  1.1299 -2.2689
12850TIP3    H260042   4.090   4.337   3.841 -0.7832  0.5789 -0.9014
12851TIP3   OH260043   0.287   0.775  12.260  0.1204 -0.0835  0.0253
12851TIP3    H160044   0.290   0.841  12.329  2.2632  0.4813 -0.5223
12851TIP3    H260045   0.286   0.692  12.307  1.0853  0.3002  0.7697
12852TIP3   OH260046   0.346   2.900   4.494  0.1154  0.4545  0.2189
12852TIP3    H160047   0.401   2.960   4.444  0.6064 -1.0172 -1.1088
12852TIP3    H260048   0.268   2.887   4.439 -0.2969  0.4132  0.8045
12853TIP3   OH260049   2.333   6.399  11.020  0.7287 -0.5070  0.4313
12853TIP3    H160050   2.387   6.363  11.091 -0.4923 -2.6353  0.3673
12853TIP3    H260051   2.382   6.376  10.940  0.4828 -1.0825  0.4428
12854TIP3   OH260052   6.711   1.074   1.563 -0.1621  0.3996  0.3009
12854TIP3    H160053   6.783   1.133   1.588 -0.0783  0.4493 -0.0581
12854TIP3    H260054   6.755   0.991   1.546 -0.0608  0.6739 -0.8554
12855TIP3   OH260055   4.176   2.100  12.630 -0.1984 -0.5048 -0.3440
12855TIP3    H160056   4.100   2.134  12.677  0.6856  0.1343  0.6599
12855TIP3    H260057   4.201   2.170  12.569 -0.1868 -0.5702 -0.4156
12856TIP3   OH260058   6.556   5.603  13.355  0.2391 -0.1073  0.4722
12856TIP3    H160059   6.546   5.508  13.365 -1.6874  0.0165  0.0704
12856TIP3    H260060   6.545   5.638  13.443  0.2618 -0.2085  0.5152
12857TIP3   OH260061   5.017   4.431  16.296  0.4100 -0.1429  0.2585
12857TIP3    H160062   4.995   4.436  16.203  2.5784 -2.4107 -0.4984
12857TIP3    H260063   4.972   4.353  16.327  1.6811 -0.8388  0.4300
12858TIP3   OH260064   5.019   6.218  14.670 -0.1260 -0.7957 -0.1210
12858TIP3    H160065   4.985   6.177  14.749  2.8297 -1.5233  0.8684
12858TIP3    H260066   5.050   6.145  14.616  0.6650 -0.1412 -0.5738
12859TIP3   OH260067   2.504   4.884  14.387  0.7709 -0.3703 -0.1322
12859TIP3    H160068   2.546   4.953  14.337  1.4796 -0.6438  0.0790
12859TIP3    H260069   2.410   4.898  14.374  0.7320  2.3276  2.0761
12860TIP3   OH260070   4.999   4.323  15.196  0.0061  0.0874  0.7374
12860TIP3    H160071   5.055   4.261  15.149 -0.5057 -0.2923  0.6224
12860TIP3    H260072   4.935   4.268  15.241 -0.6561  0.5516  0.3715
12861TIP3   OH260073   2.854   4.287   4.257 -0.2880  0.6198  0.3535
12861TIP3    H160074   2.772   4.275   4.210 -0.2903 -0.5185  0.6159
12861TIP3    H260075   2.911   4.218   4.223  0.1906  0.7038  0.9714
12862TIP3   OH260076   0.756   2.235   0.922  0.0056 -0.0354  0.3909
12862TIP3    H160077   0.754   2.141   0.906 -1.3199  0.4377 -3.3369
12862TIP3    H260078   0.838   2.264   0.882  0.9071  0.3779  2.4019
12863TIP3   OH260079   2.002   4.307  14.344  0.0847  0.4717 -0.1318
12863TIP3    H160080   2.042   4.350  14.268  1.8408  1.4377  1.2413
12863TIP3    H260081   2.075   4.294  14.405 -1.5241  1.3504  2.1212
12864TIP3   OH260082   4.211   1.990  14.305  0.1119 -0.3509  0.2125
12864TIP3    H160083   4.192   2.083  14.291  1.4065 -0.3640 -1.9635
12864TIP3    H260084   4.284   1.971  14.246 -1.4396 -3.2161 -0.9762
12865TIP3   OH260085   5.382   6.454  16.103  0.3890  0.2485 -0.3348
12865TIP3    H160086   5.349   6.537  16.068 -0.4407 -0.9779 -2.7279
12865TIP3    H260087   5.477   6.459  16.090  0.1716  0.0953 -2.3589
12866TIP3   OH260088   4.556   5.387   5.140 -0.0836 -0.0462  0.0889
12866TIP3    H160089   4.623   5.372   5.073 -0.5832  0.1238 -0.4560
12866TIP3    H260090   4.591   5.345   5.219  1.5510  1.6934  0.3432
12867TIP3   OH260091   1.193   5.251   1.041  0.3357 -0.5896 -0.3970
12867TIP3    H160092   1.214   5.316   0.974 -2.2247 -0.4192 -1.1083
12867TIP3    H260093   1.221   5.168   1.002 -1.6856 -0.5757 -2.0444
12868TIP3   OH260094   2.929   1.480   3.475 -0.5933  0.0451  0.3435
12868TIP3    H160095   2.980   1.494   3.555 -1.5091 -1.3993  1.2292
12868TIP3    H260096   2.987   1.431   3.417 -0.7588 -1.1137  1.1327
12869TIP3   OH260097   6.553   4.246  11.646  0.0068 -0.2666 -0.1220
12869TIP3    H160098   6.531   4.221  11.735  0.8164  0.2898  0.2456
12869TIP3    H260099   6.469   4.260  11.603 -0.3912 -0.6691  0.5082
12870TIP3   OH260100   5.903   4.624   3.843 -0.9978  0.3110 -0.5712
12870TIP3    H160101   5.959   4.558   3.802 -1.6096 -0.6051  0.0261
12870TIP3    H260102   5.963   4.694   3.870 -0.4061  0.2620 -1.7046
12871TIP3   OH260103   0.880   2.988   2.802 -0.5987  0.5071 -0.9851
12871TIP3    H160104   0.838   3.016   2.720 -2.2718  1.5310  0.1515
12871TIP3    H260105   0.926   3.066   2.834  0.3621  0.0067 -1.1163
12872TIP3   OH260106   5.864   4.302   3.016  0.9296 -0.5219 -0.2436
12872TIP3    H160107   5.800   4.340   2.955  1.1726  0.9441  0.3769
12872TIP3    H260108   5.899   4.226   2.969 -2.2294 -2.2514 -0.0721
12873TIP3   OH260109   2.796   0.481   3.891  0.1397 -0.5851  0.4778
12873TIP3    H160110   2.774   0.572   3.874 -1.2698 -0.9236  0.3180
12873TIP3    H260111   2.881   0.484   3.933 -0.0382  0.8310  0.7865
12874TIP3   OH260112   6.002   3.542   5.325 -0.2090 -0.1252  0.1919
12874TIP3    H160113   5.934   3.484   5.293  0.6664  0.0395 -2.1199
12874TIP3    H260114   6.076   3.529   5.266  0.4455  2.4496  0.2956
12875TIP3   OH260115   4.707   6.441  10.597  0.6627  0.6086 -0.2021
12875TIP3    H160116   4.777   6.466  10.536 -0.5964 -0.3087 -2.1121
12875TIP3    H260117   4.641   6.509  10.587 -0.1031 -0.2035 -0.8716
12876TIP3   OH260118   3.852   2.038  15.831  0.5833 -0.0233  0.5082
12876TIP3    H160119   3.797   1.992  15.894  1.5632 -1.9314  0.0348
12876TIP3    H260120   3.912   2.091  15.884  0.2250 -0.2161  1.1050
12877TIP3   OH260121   0.109   2.708  14.401 -0.5485  0.0428  0.4326
12877TIP3    H160122   0.022   2.716  14.362 -0.3476  0.1399  0.0022
12877TIP3    H260123   0.129   2.796  14.432 -0.4989  0.0755  0.3078
12878TIP3   OH260124   4.882   1.444   5.226  0.3728  0.4933  0.7772
12878TIP3    H160125   4.874   1.472   5.135 -2.0359  0.5548  0.9644
12878TIP3    H260126   4.925   1.358   5.220  0.0553  0.4010 -0.4292
12879TIP3   OH260127   4.299   4.608   2.448  0.2348 -0.3491 -0.1560
12879TIP3    H160128   4.258   4.639   2.530  0.0027 -1.3026  0.1026
12879TIP3    H260129   4.232   4.622   2.382 -0.7322 -2.3086  0.3412
12880TIP3   OH260130   4.707   0.368  10.828 -0.5593 -0.1842 -0.1860
12880TIP3    H160131   4.652   0.425  10.774 -0.5013  2.3500  2.2160
12880TIP3    H260132   4.788   0.417  10.840  0.3753 -1.7747  0.2145
12881TIP3   OH260133   1.992   0.577  14.661 -0.1037 -0.4233 -0.6239
12881TIP3    H160134   1.980   0.610  14.572 -1.1831 -1.2331 -0.7874
12881TIP3    H260135   2.070   0.522  14.656  0.0266 -0.2101 -0.9878
12882TIP3   OH260136   0.882   4.590   5.972 -0.3340  0.2410 -0.0027
12882TIP3    H160137   0.970   4.611   6.003  0.2025  1.4944 -2.1629
12882TIP3    H260138   0.874   4.495   5.984  0.5056  0.3709  2.0467
12883TIP3   OH260139   1.672   4.186   5.659 -0.3901  0.2110  0.1035
12883TIP3    H160140   1.743   4.243   5.689 -0.9872  0.9504  0.1365
12883TIP3    H260141   1.625   4.162   5.739 -0.6732  0.3973 -0.0071
12884TIP3   OH260142   3.779   3.243  12.665 -0.5527 -0.3576  0.3889
12884TIP3    H160143   3.782   3.325  12.616 -4.2413 -0.1779  0.1441
12884TIP3    H260144   3.778   3.175  12.597 -1.1537 -0.3574  0.3885
12885TIP3   OH260145   3.020   3.823  14.084  0.1179 -0.4327  0.6819
12885TIP3    H160146   2.940   3.826  14.031 -0.7118 -1.0439  1.8390
12885TIP3    H260147   3.050   3.913  14.087  0.6993 -0.4984 -1.5297
12886TIP3   OH260148   6.649   4.792   0.003  0.0898 -0.2575 -0.3742
12886TIP3    H160149   6.708   4.765  -0.068 -1.0720  0.8526 -1.8232
12886TIP3    H260150   6.706   4.796   0.081  1.9093  0.6821 -1.6771
12887TIP3   OH260151   4.110   3.325   3.997 -0.2975 -0.0914  0.1712
12887TIP3    H160152   4.199   3.295   3.977 -0.5498 -1.3339  0.8383
12887TIP3    H260153   4.120   3.374   4.079 -0.5335 -2.2022  1.5387
12888TIP3   OH260154   2.167   6.061  16.024  1.0060  0.3636 -0.0540
12888TIP3    H160155   2.122   6.137  15.986 -0.2929  0.6619  1.8936
12888TIP3    H260156   2.234   6.098  16.080  0.4291  0.1103  0.8334
12889TIP3   OH260157   0.970   2.052  11.678 -0.2531 -0.0467  0.3439
12889TIP3    H160158   1.012   1.985  11.624 -0.7655  1.0700 -1.5091
12889TIP3    H260159   1.034   2.122  11.686 -0.9263  0.7207 -0.6737
12890TIP3   OH260160   2.985   0.223   4.176 -0.0870 -0.3315 -0.1159
12890TIP3    H160161   2.990   0.140   4.222 -0.5209  0.0012  0.5428
12890TIP3    H260162   2.946   0.202   4.091  0.6987 -0.9439 -0.3353
12891TIP3   OH260163   3.454   6.229   5.757  0.3284 -0.6136 -0.0198
12891TIP3    H160164   3.505   6.150   5.742  0.2124 -0.7433  0.2682
12891TIP3    H260165   3.382   6.202   5.813  0.6471 -0.1742  0.6132
12892TIP3   OH260166   3.213   1.926   2.313  0.2158  0.1521 -0.3910
12892TIP3    H160167   3.252   1.942   2.399 -1.3637 -2.0056  0.8320
12892TIP3    H260168   3.255   1.989   2.255  1.6560  1.3871  1.8671
12893TIP3   OH260169   4.607   1.759  16.357  0.1249  1.2087 -0.1104
12893TIP3    H160170   4.692   1.789  16.325  0.8481  1.2370  1.7089
12893TIP3    H260171   4.615   1.760  16.453 -2.1055  1.7303  0.1370
12894TIP3   OH260172   2.220   6.287   1.281  0.4983 -0.0886  0.3707
12894TIP3    H160173   2.236   6.210   1.336 -0.7179  0.6519  1.8170
12894TIP3    H260174   2.289   6.284   1.215  1.1238 -1.8149  1.0485
12895TIP3   OH260175   4.609   6.517  12.333  0.3253  0.0338  0.2372
12895TIP3    H160176   4.550   6.452  12.372 -1.4389  0.2554 -1.8977
12895TIP3    H260177   4.561   6.600  12.339 -0.2791 -0.0025 -2.7420
12896TIP3   OH260178   3.511   2.170  13.429  0.1290 -0.7332  0.4018
12896TIP3    H160179   3.460   2.114  13.372 -0.5268 -1.1790  1.3920
12896TIP3    H260180   3.548   2.111  13.495  0.9448 -0.2521  0.3987
12897TIP3   OH260181   1.320   6.566  16.053 -0.3539 -0.0205 -0.0589
12897TIP3    H160182   1.228   6.547  16.037 -0.6009  0.6979  0.4853
12897TIP3    H260183   1.322   6.659  16.075  0.5512  0.0601 -0.4350
12898TIP3   OH260184   4.645   0.557   0.471 -0.4178 -0.2153  0.0819
12898TIP3    H160185   4.673   0.471   0.501  0.1216  0.7832  2.6497
12898TIP3    H260186   4.550   0.555   0.480 -0.5224 -0.8725 -0.9411
12899TIP3   OH260187   1.554   1.617   0.750  0.2192  0.1259  0.2171
12899TIP3    H160188   1.613   1.543   0.765  1.5267  1.3069  1.1288
12899TIP3    H260189   1.523   1.605   0.660  2.2193 -0.2828 -0.4681
12900TIP3   OH260190   5.404   4.435  11.306 -0.2065  0.6678 -0.6892
12900TIP3    H160191   5.474   4.434  11.372  0.2533  1.0839 -1.1562
12900TIP3    H260192   5.345   4.364  11.332  0.8295 -0.2443 -0.7572
12901TIP3   OH260193   4.419   1.133  13.414  0.0073  0.8817  0.3478
12901TIP3    H160194   4.346   1.073  13.430  1.0944 -0.8000 -0.7237
12901TIP3    H260195   4.479   1.118  13.487  1.1820 -0.8715 -0.8674
12902TIP3   OH260196   5.245   3.451   5.985  0.2537  0.0816  0.1820
12902TIP3    H160197   5.242   3.390   5.912  0.1013  1.1603 -0.7492
12902TIP3    H260198   5.178   3.419   6.046 -0.3428 -0.2558 -0.6305
12903TIP3   OH260199   0.562   6.253   2.205  0.1111 -0.7716 -0.2464
12903TIP3    H160200   0.574   6.279   2.114  2.8687 -3.9840 -0.9896
12903TIP3    H260201   0.606   6.321   2.256  2.1195 -0.9602 -1.6354
12904TIP3   OH260202   0.271   2.461  13.937 -0.3188  0.3422 -0.2576
12904TIP3    H160203   0.247   2.515  14.012  0.0823  1.0649 -0.6367
12904TIP3    H260204   0.360   2.489  13.915 -0.9921  1.3311 -2.0058
12905TIP3   OH260205   0.974   2.611   4.244 -0.6934 -0.0226 -0.0575
12905TIP3    H160206   1.027   2.688   4.266 -0.2587 -0.1722 -0.5684
12905TIP3    H260207   0.952   2.573   4.329 -1.8717  1.2923  0.2521
12906TIP3   OH260208   6.341   5.380  17.059 -0.6611 -0.2336  0.0813
12906TIP3    H160209   6.354   5.327  17.138 -0.7401  0.1756  0.3752
12906TIP3    H260210   6.422   5.431  17.052 -0.2528 -0.9596 -0.6508
12907TIP3   OH260211   1.667   2.697  11.895  0.1322 -0.5142  0.1131
12907TIP3    H160212   1.694   2.771  11.949  0.4148 -0.6090  0.1013
12907TIP3    H260213   1.644   2.735  11.811 -0.1943 -0.3796  0.2602
12908TIP3   OH260214   0.618   2.399   5.365  0.3235  0.8635  0.0097
12908TIP3    H160215   0.644   2.339   5.435 -0.5174  1.2937  0.7185
12908TIP3    H260216   0.579   2.473   5.412 -0.6324  0.9764 -0.9391
12909TIP3   OH260217   3.685   6.193  10.569 -0.0681  0.0390  0.1622
12909TIP3    H160218   3.687   6.288  10.560 -1.3034  0.1893  1.1428
12909TIP3    H260219   3.745   6.161  10.502  0.6196  1.5184  0.0321
12910TIP3   OH260220   0.426   2.743  11.272  0.2305 -0.4594 -0.1378
12910TIP3    H160221   0.355   2.796  11.308 -0.0306 -0.8868 -0.0109
12910TIP3    H260222   0.485   2.728  11.347  0.2842 -0.3814 -0.1641
12911TIP3   OH260223   0.702   1.480   2.738  0.7331 -0.4891 -0.3789
12911TIP3    H160224   0.757   1.468   2.661 -0.1703  1.4216 -1.3792
12911TIP3    H260225   0.737   1.418   2.802  1.5529 -2.0980 -2.2697
12912TIP3   OH260226   0.275   2.745  15.247  0.1479  0.2170 -0.1719
12912TIP3    H160227   0.350   2.710  15.295 -0.5878  1.4160  1.9798
12912TIP3    H260228   0.293   2.724  15.155  3.3777  0.9491  0.1859
12913TIP3   OH260229   6.243   5.552  16.160  0.4080 -0.7335 -0.7749
12913TIP3    H160230   6.236   5.638  16.202  0.6176 -1.2694  0.4128
12913TIP3    H260231   6.333   5.549  16.128  0.6145 -0.7598 -0.2125
12914TIP3   OH260232   1.778   3.285  13.920 -0.1287 -0.5364  0.4446
12914TIP3    H160233   1.727   3.209  13.890 -0.3922  0.2714 -1.2808
12914TIP3    H260234   1.869   3.257  13.913 -0.2576 -1.1878  1.2528
12915TIP3   OH260235   0.726   4.460  16.013  0.5405  0.0434  0.0084
12915TIP3    H160236   0.711   4.534  15.955 -0.3817  0.3020  0.5460
12915TIP3    H260237   0.637   4.430  16.037  0.8943 -0.9786  0.1056
12916TIP3   OH260238   0.104   1.287   4.861 -0.1396 -0.0321  0.1334
12916TIP3    H160239   0.131   1.282   4.770 -1.9565 -0.1893 -0.4475
12916TIP3    H260240   0.169   1.344   4.903  2.3175 -2.1234 -0.5685
12917TIP3   OH260241   1.500   5.796   2.605 -0.1409 -0.3937 -0.3454
12917TIP3    H160242   1.414   5.786   2.645 -0.0281 -0.5147 -0.1285
12917TIP3    H260243   1.549   5.848   2.668 -0.2729  0.2895 -0.7933
12918TIP3   OH260244   0.509   0.811  15.603 -0.0331 -0.1027 -0.1971
12918TIP3    H160245   0.467   0.748  15.662 -0.0513  0.0775 -0.0171
12918TIP3    H260246   0.576   0.853  15.657 -0.3308  0.3638 -0.1809
12919TIP3   OH260247   1.075   2.174   0.163  0.0882  0.3005 -0.5401
12919TIP3    H160248   1.146   2.145   0.221 -0.6971  2.1752  1.5209
12919TIP3    H260249   0.997   2.172   0.218 -1.2283 -0.2798 -2.3358
12920TIP3   OH260250   0.742   6.773  12.494  0.1286  0.4322 -0.1262
12920TIP3    H160251   0.717   6.830  12.421  0.4497 -0.8927 -1.3310
12920TIP3    H260252   0.838   6.771  12.490  0.2797  1.9273  1.6300
12921TIP3   OH260253   1.788   6.544   1.578 -0.3071  0.2425 -0.0685
12921TIP3    H160254   1.820   6.593   1.654  1.2030 -0.3823 -0.2600
12921TIP3    H260255   1.849   6.567   1.508 -1.1164  0.0768 -0.8373
12922TIP3   OH260256   4.455   6.717  13.020 -0.3120  0.2731 -0.9443
12922TIP3    H160257   4.431   6.706  12.928 -3.7054  2.4358 -0.5143
12922TIP3    H260258   4.371   6.709  13.067  0.8478  1.9406  1.6441
12923TIP3   OH260259   5.917   3.493  12.004 -0.1739 -0.2434 -0.6353
12923TIP3    H160260   5.836   3.518  11.961 -0.0426  0.9636 -0.2160
12923TIP3    H260261   5.888   3.450  12.085 -0.4432  1.6576  0.3440
12924TIP3   OH260262   3.575   5.574   3.063 -0.0914 -0.3177 -0.2370
12924TIP3    H160263   3.562   5.625   3.143 -0.2475 -0.0360 -0.4429
12924TIP3    H260264   3.487   5.562   3.027 -0.4596 -3.1911  1.3051
12925TIP3   OH260265   0.124   4.860   6.148 -0.5016  0.4715  0.5494
12925TIP3    H160266   0.055   4.832   6.208  0.4239 -2.1210  0.5290
12925TIP3    H260267   0.205   4.849   6.198  0.0897  0.7862 -0.3222
12926TIP3   OH260268   2.478   6.073   4.367  0.1681  0.3781 -0.2080
12926TIP3    H160269   2.449   6.144   4.424  0.7288  0.1659  0.3509
12926TIP3    H260270   2.425   6.082   4.289 -0.3884  0.8757  0.2181
12927TIP3   OH260271   3.487   1.029   4.993  0.2456 -0.0661  0.1487
12927TIP3    H160272   3.520   1.119   5.003  0.4860 -0.1179 -0.1716
12927TIP3    H260273   3.565   0.974   5.000  0.0245 -0.2983  0.9531
12928TIP3   OH260274   5.046   1.612   3.640  0.3200 -0.2640 -0.2889
12928TIP3    H160275   5.034   1.555   3.564 -0.3122 -1.3318  0.5961
12928TIP3    H260276   5.001   1.694   3.615  1.0128 -0.2199 -1.4571
12929TIP3   OH260277   2.531   2.910  12.383  0.2720  0.0991  0.4361
12929TIP3    H160278   2.476   2.952  12.450 -1.4018  0.0257 -0.8288
12929TIP3    H260279   2.484   2.829  12.361  0.3945  0.4717 -1.3099
12930TIP3   OH260280   5.642   2.965  11.433  0.0571 -0.4934  0.5290
12930TIP3    H160281   5.598   2.890  11.391 -0.8128  0.0157  0.5014
12930TIP3    H260282   5.733   2.938  11.439 -0.2205 -1.5237  0.4316
12931TIP3   OH260283   5.997   3.610  15.618 -0.5219  0.2423  0.4285
12931TIP3    H160284   6.008   3.705  15.625 -0.0537  0.6093 -3.1931
12931TIP3    H260285   6.039   3.588  15.535 -1.1883 -3.0731  0.8593
12932TIP3   OH260286   5.004   5.650  12.761  1.1647  0.7563  0.0069
12932TIP3    H160287   4.916   5.651  12.799  0.6655 -1.4247 -0.8996
12932TIP3    H260288   5.013   5.736  12.719 -1.1824  0.5115 -1.2068
12933TIP3   OH260289   1.966   0.188   1.471  0.2589 -0.4270  0.8638
12933TIP3    H160290   1.906   0.202   1.398  2.7219  2.7583 -0.8063
12933TIP3    H260291   1.959   0.094   1.490 -0.4331 -1.5044 -3.5938
12934TIP3   OH260292   6.277   6.771  14.679 -0.5120  0.7174 -0.1748
12934TIP3    H160293   6.217   6.751  14.607  0.0465 -0.0878 -0.4189
12934TIP3    H260294   6.259   6.863  14.699 -0.5998  0.9922 -1.4170
12935TIP3   OH260295   2.623   1.612   5.307 -0.2039 -0.3870  0.2607
12935TIP3    H160296   2.632   1.631   5.400 -0.9835 -0.2018  0.2983
12935TIP3    H260297   2.692   1.548   5.290 -1.2113 -1.8257  1.3670
12936TIP3   OH260298   2.669   3.599  11.368 -0.2541  0.0254  0.4526
12936TIP3    H160299   2.742   3.660  11.378 -0.5016  0.4362 -0.2356
12936TIP3    H260300   2.708   3.522  11.326 -0.1621  0.1215  0.3645
12937TIP3   OH260301   3.290   1.235  15.530  0.2174  0.7919  0.1187
12937TIP3    H160302   3.224   1.167  15.528  0.8681  0.0627 -3.1584
12937TIP3    H260303   3.358   1.202  15.588 -0.8610  0.1119  1.0150
12938TIP3   OH260304   0.335   5.137  12.733  0.1431 -0.9963 -0.1543
12938TIP3    H160305   0.411   5.192  12.717 -1.5558  1.2623 -1.0220
12938TIP3    H260306   0.330   5.129  12.828  1.2510 -0.9132 -0.0749
12939TIP3   OH260307   4.828   5.687   5.364  0.0864  0.0278 -0.1954
12939TIP3    H160308   4.785   5.646   5.439 -0.1609  2.2799  0.9953
12939TIP3    H260309   4.756   5.714   5.307  0.1390  0.3455 -0.1137
12940TIP3   OH260310   3.214   2.811  13.535  0.1889  0.5416  0.2368
12940TIP3    H160311   3.164   2.879  13.580 -0.2015  0.2721  0.2086
12940TIP3    H260312   3.279   2.782  13.599 -0.7095 -0.2184  0.8245
12941TIP3   OH260313   6.509   3.645  16.028  0.0603 -0.1134 -0.2052
12941TIP3    H160314   6.576   3.712  16.014  0.5059 -0.5901 -0.4000
12941TIP3    H260315   6.430   3.682  15.990  0.2061  0.4651  0.0412
12942TIP3   OH260316   2.040   5.038   3.329  0.1475  0.1742 -0.0857
12942TIP3    H160317   2.077   4.978   3.265 -1.0463  1.2226 -1.8800
12942TIP3    H260318   1.960   4.995   3.360 -0.6342  0.7060 -1.2682
12943TIP3   OH260319   1.232   5.612  15.399  0.0690 -0.1922  0.1720
12943TIP3    H160320   1.163   5.594  15.336 -1.8341  0.9906  1.8100
12943TIP3    H260321   1.265   5.698  15.374  2.1692 -1.3866 -1.5587
12944TIP3   OH260322   4.882   2.814  13.309  0.0321 -0.1132  0.2603
12944TIP3    H160323   4.792   2.843  13.325 -0.2633  0.1024 -1.5827
12944TIP3    H260324   4.877   2.718  13.313 -0.1879 -0.0886  0.6134
12945TIP3   OH260325   5.631   6.178   6.752 -0.0403  0.0967 -0.1513
12945TIP3    H160326   5.702   6.178   6.688  2.5435  1.1195  2.4963
12945TIP3    H260327   5.639   6.093   6.795 -0.4915  0.1849  0.1076
12946TIP3   OH260328   4.648   2.557  17.059 -0.5419 -0.7067  0.0487
12946TIP3    H160329   4.616   2.585  17.145 -2.5097 -3.2319  0.2747
12946TIP3    H260330   4.578   2.500  17.025  1.0690 -1.4173 -2.3402
12947TIP3   OH260331   0.623   6.317   5.167 -0.3072  0.8113  0.4190
12947TIP3    H160332   0.558   6.327   5.236 -0.0303  0.5896  0.7195
12947TIP3    H260333   0.655   6.405   5.151 -0.2223  0.8382  0.7267
12948TIP3   OH260334   6.457   1.510   1.067  0.2298 -0.4264  0.0606
12948TIP3    H160335   6.381   1.499   1.009  0.7799 -0.8694 -0.5909
12948TIP3    H260336   6.519   1.443   1.038  0.2579 -1.1004  1.5956
12949TIP3   OH260337   2.441   4.912   0.949 -0.1995 -0.0710 -0.0607
12949TIP3    H160338   2.497   4.965   1.006 -0.2561  1.5442 -1.4385
12949TIP3    H260339   2.500   4.878   0.881 -0.3609 -0.9275  0.2098
12950TIP3   OH260340   3.871   1.140   4.815  0.6380  0.2708  0.0714
12950TIP3    H160341   3.911   1.193   4.883  0.6543 -2.0539  2.0164
12950TIP3    H260342   3.944   1.110   4.761  0.6469  1.9257 -0.9193
12951TIP3   OH260343   1.739   6.323  12.134 -0.4050 -0.1715 -0.5330
12951TIP3    H160344   1.711   6.273  12.058 -0.2669 -0.5633 -0.3263
12951TIP3    H260345   1.816   6.276  12.167 -1.0956 -0.6195  0.4829
12952TIP3   OH260346   4.161   6.241  13.413  0.0536  0.1850 -0.0480
12952TIP3    H160347   4.178   6.278  13.499  0.5721 -0.4936  0.1529
12952TIP3    H260348   4.081   6.285  13.383 -0.0683  0.5080  0.7270
12953TIP3   OH260349   3.857   6.599   6.257 -0.0226  0.0439 -0.1330
12953TIP3    H160350   3.776   6.566   6.295  0.6597 -0.1712  1.2119
12953TIP3    H260351   3.863   6.690   6.288 -0.2855  0.4228 -1.1465
12954TIP3   OH260352   5.872   3.520  15.855 -0.0968 -0.3540 -0.4731
12954TIP3    H160353   5.803   3.585  15.851  1.5019  1.4212 -0.8050
12954TIP3    H260354   5.921   3.531  15.774  0.5895 -1.5602 -0.2589
12955TIP3   OH260355   3.731   3.250  11.998  0.2398  0.0237  0.3937
12955TIP3    H160356   3.704   3.246  12.090  0.8843 -1.3008  0.5435
12955TIP3    H260357   3.651   3.230  11.950 -0.8001  3.3486  0.4835
12956TIP3   OH260358   6.781   1.428   4.391  0.4421  0.2408 -0.7116
12956TIP3    H160359   6.731   1.435   4.310 -0.6356  3.2931  0.0842
12956TIP3    H260360   6.872   1.436   4.364  0.1470  0.3719 -1.6928
12957TIP3   OH260361   1.917   4.523   0.426  0.1337 -0.3951  0.1838
12957TIP3    H160362   1.900   4.430   0.443  0.6259 -0.6235 -0.5105
12957TIP3    H260363   1.867   4.543   0.347 -1.2823  0.3727  1.2324
12958TIP3   OH260364   2.646   5.620  16.638 -0.3686 -0.7897  0.0224
12958TIP3    H160365   2.580   5.684  16.661 -0.9768 -1.0584 -0.9253
12958TIP3    H260366   2.710   5.668  16.586 -0.7180 -0.9012 -0.5139
12959TIP3   OH260367   1.592   5.661   4.707  0.6079  0.5526 -0.0379
12959TIP3    H160368   1.578   5.755   4.694 -0.8160  0.5003  0.9567
12959TIP3    H260369   1.634   5.654   4.792 -0.3878  0.2360  0.4425
12960TIP3   OH260370   4.096   1.879   2.314  0.0425 -0.1509 -0.8397
12960TIP3    H160371   4.156   1.953   2.305 -1.8510  1.9365  1.9611
12960TIP3    H260372   4.054   1.873   2.228  1.6573  0.6763 -1.7376
12961TIP3   OH260373   5.506   4.660  12.871  0.2363 -0.5511 -0.0062
12961TIP3    H160374   5.524   4.601  12.798  0.1040 -2.3926  1.4046
12961TIP3    H260375   5.471   4.604  12.940 -1.6659  1.4435  0.7813
12962TIP3   OH260376   6.698   2.579  13.874 -0.2236  0.0436  0.0447
12962TIP3    H160377   6.670   2.543  13.958 -0.4417  1.0672  0.4248
12962TIP3    H260378   6.784   2.617  13.891  0.2466 -0.7501 -0.4826
12963TIP3   OH260379   3.039   3.665   2.825 -0.3674  0.4007  0.2022
12963TIP3    H160380   3.040   3.750   2.869  1.5165  0.2108  0.6140
12963TIP3    H260381   2.964   3.619   2.863 -0.3708  1.2420  1.2576
12964TIP3   OH260382   3.253   5.928  16.130  1.0026  0.6552 -0.0767
12964TIP3    H160383   3.223   5.837  16.122  0.2664  0.9592 -0.9223
12964TIP3    H260384   3.315   5.926  16.203 -0.1254 -0.2418  0.9117
12965TIP3   OH260385   0.369   4.225   6.087  0.3970  0.0810 -0.4227
12965TIP3    H160386   0.435   4.251   6.151  0.3736 -1.0932  0.0893
12965TIP3    H260387   0.301   4.291   6.094  1.8567  1.8258 -1.5561
12966TIP3   OH260388   5.288   6.701  12.862 -0.0959  0.1063 -0.4391
12966TIP3    H160389   5.213   6.673  12.808 -0.5247 -0.6522  0.5021
12966TIP3    H260390   5.362   6.703  12.802 -1.0054  1.6345 -1.5702
12967TIP3   OH260391   0.259   3.258  14.460 -0.5088  0.5347 -0.0519
12967TIP3    H160392   0.338   3.310  14.446 -0.9789  2.4371  3.2304
12967TIP3    H260393   0.202   3.281  14.386  0.0484  3.3618  0.2699
12968TIP3   OH260394   5.080   1.613   0.727  0.0180 -0.2356  0.0924
12968TIP3    H160395   5.099   1.570   0.644 -3.4055 -0.1641 -0.8689
12968TIP3    H260396   4.994   1.653   0.715 -0.7971 -0.4742  3.7482
12969TIP3   OH260397   1.457   1.603  15.722  0.1263  0.1991  0.9136
12969TIP3    H160398   1.366   1.572  15.733  0.3639 -2.1837 -2.3529
12969TIP3    H260399   1.450   1.676  15.662  0.4145 -1.0029 -0.6364
12970TIP3   OH260400   4.578   5.002   3.384  0.3993 -0.0833 -0.6427
12970TIP3    H160401   4.645   5.043   3.439  0.7302 -0.6714 -0.6091
12970TIP3    H260402   4.610   5.012   3.294  1.0764 -1.3373 -0.5556
12971TIP3   OH260403   2.204   6.030  14.990 -0.0039  0.0135 -0.5731
12971TIP3    H160404   2.117   6.001  15.019  1.0672 -2.6927  0.2076
12971TIP3    H260405   2.187   6.074  14.907 -2.1464 -0.3336 -0.3846
12972TIP3   OH260406   6.684   5.075  14.574  0.4632  0.0325 -0.2559
12972TIP3    H160407   6.715   5.142  14.635  0.0188  0.0520 -0.0444
12972TIP3    H260408   6.734   4.997  14.596  0.0180 -0.0719  0.4114
12973TIP3   OH260409   6.500   2.428   3.891  0.3617  0.3735  0.4555
12973TIP3    H160410   6.411   2.465   3.890 -1.0786 -2.7142  0.7573
12973TIP3    H260411   6.511   2.390   3.803  2.3549  2.5762 -0.3442
12974TIP3   OH260412   5.552   2.439   4.161 -0.6250 -0.0585  0.2404
12974TIP3    H160413   5.606   2.453   4.082 -1.1636  2.1682  0.1957
12974TIP3    H260414   5.613   2.403   4.225  0.2962 -0.0726 -0.6130
12975TIP3   OH260415   3.632   4.845   3.281  0.0413 -0.0088  0.0979
12975TIP3    H160416   3.607   4.850   3.374  0.8018 -0.0922  0.3138
12975TIP3    H260417   3.727   4.856   3.282 -0.1144  1.9341 -0.8278
12976TIP3   OH260418   4.668   3.701  16.733  0.6386 -0.3446  0.4032
12976TIP3    H160419   4.730   3.629  16.725 -0.1741 -0.8950 -1.5220
12976TIP3    H260420   4.717   3.778  16.705  1.1747 -0.2952  1.3982
12977TIP3   OH260421   4.243   2.543  17.236  0.1112 -0.1575  0.1424
12977TIP3    H160422   4.259   2.462  17.284 -0.1033  0.0817  0.6259
12977TIP3    H260423   4.236   2.610  17.304 -2.2021 -0.1134 -0.0687
12978TIP3   OH260424   3.011   2.631   5.569 -0.2590  0.2653  0.4334
12978TIP3    H160425   2.938   2.618   5.508  0.1433 -0.3888  0.0902
12978TIP3    H260426   2.987   2.711   5.617 -0.4903  0.9158 -0.7085
12979TIP3   OH260427   2.904   1.093  11.278  0.3641  0.1592 -0.4621
12979TIP3    H160428   2.921   1.173  11.229 -0.4767  1.2481  0.9425
12979TIP3    H260429   2.991   1.061  11.303  0.6765  1.3494  0.0452
12980TIP3   OH260430   6.478   6.133   1.146  0.4349 -0.2559 -0.5721
12980TIP3    H160431   6.493   6.213   1.094 -2.2879  1.4144  0.9505
12980TIP3    H260432   6.458   6.066   1.081  0.1666  0.9821 -1.8284
12981TIP3   OH260433   1.779   6.587   3.677 -0.0688 -0.2114  0.5144
12981TIP3    H160434   1.847   6.639   3.635 -1.4097  1.7583  0.6024
12981TIP3    H260435   1.697   6.621   3.640 -1.0501 -1.9481  0.9743
12982TIP3   OH260436   0.462   2.388  11.673 -0.5897 -0.2234 -0.5227
12982TIP3    H160437   0.369   2.395  11.695 -0.5573 -0.6250 -0.2460
12982TIP3    H260438   0.508   2.416  11.752 -0.4715  0.7820 -0.9402
12983TIP3   OH260439   1.403   3.015   5.011  0.1572 -0.1691  0.3545
12983TIP3    H160440   1.479   3.062   5.045 -1.5659  2.5386  0.7381
12983TIP3    H260441   1.359   2.981   5.089 -0.6879  1.0495  0.4403
12984TIP3   OH260442   0.432   1.770  13.023 -0.0359 -0.2941  0.1440
12984TIP3    H160443   0.367   1.798  12.959  0.6650  0.5965 -0.1973
12984TIP3    H260444   0.495   1.719  12.972  0.3044  0.0739  0.1907
12985TIP3   OH260445   0.186   3.130   6.688 -0.4174  0.5426 -0.3643
12985TIP3    H160446   0.227   3.161   6.607 -1.6281  0.7747 -0.9189
12985TIP3    H260447   0.122   3.197   6.710 -0.8164 -0.0187  0.2225
12986TIP3   OH260448   0.306   2.260  15.232  0.1871 -0.0897  0.0150
12986TIP3    H160449   0.236   2.298  15.285  1.7662  0.3363  1.9163
12986TIP3    H260450   0.370   2.330  15.222  1.3390 -1.0777  0.2088
12987TIP3   OH260451   3.113   4.922  15.218  0.2117  0.2133 -0.1005
12987TIP3    H160452   3.105   4.993  15.282  1.0759  0.0657  0.1829
12987TIP3    H260453   3.089   4.843  15.267 -0.6274  0.2784 -0.3828
12988TIP3   OH260454   0.279   1.735   2.464  0.0697  0.1926 -0.1710
12988TIP3    H160455   0.344   1.804   2.476 -0.6262  1.2777 -2.2281
12988TIP3    H260456   0.328   1.654   2.480  1.3030  1.0619  0.6616
12989TIP3   OH260457   1.272   1.111  14.408 -0.4617 -0.1331 -0.3315
12989TIP3    H160458   1.327   1.167  14.353 -0.3263 -0.5301 -0.6032
12989TIP3    H260459   1.306   1.123  14.497 -0.1659 -0.1040 -0.4483
12990TIP3   OH260460   6.170   1.242   5.140 -0.4023  0.0372  0.0960
12990TIP3    H160461   6.106   1.252   5.210  0.3559 -0.3470  0.8632
12990TIP3    H260462   6.155   1.317   5.082 -0.9792  0.4080  0.7150
12991TIP3   OH260463   1.664   4.101   3.656 -0.4930 -0.4626  0.1919
12991TIP3    H160464   1.747   4.150   3.661 -0.7498  0.0052 -0.0249
12991TIP3    H260465   1.651   4.067   3.744  0.8218 -2.0409 -0.1842
12992TIP3   OH260466   6.725   5.633   2.081 -0.2097  0.3753 -0.2430
12992TIP3    H160467   6.737   5.724   2.109  1.9353 -0.2261  1.0178
12992TIP3    H260468   6.689   5.639   1.993 -0.0005  2.4439 -0.2201
12993TIP3   OH260469   5.050   6.800  13.807 -0.2824 -0.0009 -0.3293
12993TIP3    H160470   5.008   6.726  13.852 -0.0054 -0.2691 -0.5059
12993TIP3    H260471   5.133   6.765  13.775  0.7189  0.8865  1.1952
12994TIP3   OH260472   1.300   6.171  13.003 -0.3767 -0.2295 -0.6279
12994TIP3    H160473   1.317   6.234  12.933  0.0317  0.1048 -0.2308
12994TIP3    H260474   1.382   6.164  13.050 -0.2980 -1.3669 -0.8962
12995TIP3   OH260475   5.866   2.540   4.633 -0.3302 -0.1169  0.1032
12995TIP3    H160476   5.960   2.522   4.626 -0.4482 -1.0305  0.7116
12995TIP3    H260477   5.856   2.629   4.599  0.7691  0.0364  0.1481
12996TIP3   OH260478   3.432   3.834   1.614 -0.1590  0.4177 -0.1151
12996TIP3    H160479   3.430   3.743   1.644 -2.3003  0.7551  0.9370
12996TIP3    H260480   3.488   3.879   1.678 -1.3639  0.3398  1.0349
12997TIP3   OH260481   3.705   6.112   3.136  0.1564 -0.0681  0.0254
12997TIP3    H160482   3.772   6.155   3.083 -1.7342  0.4099 -2.1068
12997TIP3    H260483   3.694   6.170   3.212  1.9008 -0.0145  0.2769
12998TIP3   OH260484   0.203   6.241  10.561 -0.2432 -0.6471  0.3674
12998TIP3    H160485   0.185   6.335  10.557 -1.1161 -0.8408 -2.0252
12998TIP3    H260486   0.296   6.233  10.542 -0.2640 -0.2788  0.1148
12999TIP3   OH260487   6.489   3.341  16.841  0.2562 -0.0621 -0.0583
12999TIP3    H160488   6.420   3.372  16.782  0.0753 -0.2359  0.0599
12999TIP3    H260489   6.495   3.247  16.823 -1.7168 -0.6978  2.1014
13000TIP3   OH260490   5.357   2.109   3.740  0.3032  0.4644 -0.2729
13000TIP3    H160491   5.282   2.157   3.776  0.5839  0.4272  0.3927
13000TIP3    H260492   5.401   2.073   3.818  1.0110  0.4946 -0.6520
13001TIP3   OH260493   4.024   2.677   4.231  0.4627  0.0256  0.2716
13001TIP3    H160494   4.051   2.751   4.286 -0.2517  0.7480 -0.3176
13001TIP3    H260495   4.105   2.644   4.194  0.6808  1.5844 -0.7592
13002TIP3   OH260496   4.899   2.404  12.373 -0.8573  0.0600 -0.3517
13002TIP3    H160497   4.886   2.335  12.308 -1.0945 -1.3340  1.1048
13002TIP3    H260498   4.810   2.434  12.394 -0.7380  1.0644 -1.2122
13003TIP3   OH260499   4.846   3.947   3.464  0.2817 -0.9128 -0.2561
13003TIP3    H160500   4.789   3.917   3.393 -1.0945 -1.0813  0.8765
13003TIP3    H260501   4.880   4.031   3.433 -0.0025 -1.1541 -1.2691
13004TIP3   OH260502   2.567   3.418   3.816  0.2398 -0.3583 -0.1356
13004TIP3    H160503   2.493   3.401   3.758 -2.3983  2.9827  1.8515
13004TIP3    H260504   2.600   3.504   3.788  0.4540  0.1987  1.6865
13005TIP3   OH260505   2.907   0.507  16.305  0.2160  0.1270 -0.3222
13005TIP3    H160506   2.922   0.598  16.278 -0.0802  0.0377 -0.7939
13005TIP3    H260507   2.844   0.473  16.242  2.3988 -1.2648 -1.9037
13006TIP3   OH260508   2.253   0.819  14.812  0.1572  0.1212  0.7768
13006TIP3    H160509   2.335   0.846  14.854  0.6288 -0.1959  0.0901
13006TIP3    H260510   2.192   0.807  14.885  0.2477  1.9012  1.1907
13007TIP3   OH260511   0.315   1.333   2.477  0.3238  0.0869  0.1322
13007TIP3    H160512   0.351   1.346   2.565  1.0880  0.7376 -0.2657
13007TIP3    H260513   0.391   1.312   2.423  0.0702  1.1528 -0.6673
13008TIP3   OH260514   4.656   4.718   0.108  0.0771  0.1752  0.0715
13008TIP3    H160515   4.697   4.700   0.192  1.4386  0.3698 -0.5226
13008TIP3    H260516   4.728   4.716   0.045 -0.8265  0.5641 -1.0150
13009TIP3   OH260517   5.404   0.525  12.363  0.4229 -0.0277 -0.0503
13009TIP3    H160518   5.456   0.596  12.324  0.3343  2.0119  3.1493
13009TIP3    H260519   5.329   0.516  12.306  1.3137  1.2385 -1.5113
13010TIP3   OH260520   1.504   0.347   6.119 -0.4344 -0.1889  0.0928
13010TIP3    H160521   1.458   0.300   6.188 -0.5808  1.8035  1.4145
13010TIP3    H260522   1.448   0.421   6.098  1.0395  0.9616  0.0396
13011TIP3   OH260523   2.481   4.410  15.670  0.3653  0.1133 -0.2518
13011TIP3    H160524   2.531   4.334  15.701  0.5613 -0.0122 -0.8553
13011TIP3    H260525   2.414   4.424  15.737 -0.6197 -1.5197 -0.8143
13012TIP3   OH260526   5.674   3.715  14.630  0.2792 -0.1791  0.6671
13012TIP3    H160527   5.588   3.719  14.671 -0.3763 -0.3243 -0.6292
13012TIP3    H260528   5.664   3.651  14.560  0.5160  1.9662 -1.4832
13013TIP3   OH260529   3.132   2.069   3.378 -0.7710 -0.3151  0.4265
13013TIP3    H160530   3.137   1.977   3.406 -2.3129 -0.4313  0.4351
13013TIP3    H260531   3.078   2.066   3.298 -0.1773  0.5040 -0.0200
13014TIP3   OH260532   3.741   5.775   4.476 -0.3889 -0.4065  0.4042
13014TIP3    H160533   3.832   5.786   4.446  0.3031  0.0041  2.5213
13014TIP3    H260534   3.690   5.830   4.415  0.5838 -1.5302 -1.5251
13015TIP3   OH260535   0.353   5.788   1.200 -0.3428  0.3797  0.6145
13015TIP3    H160536   0.362   5.870   1.248  0.0402  0.9907 -0.4588
13015TIP3    H260537   0.442   5.753   1.195 -0.4898 -0.0524  0.9813
13016TIP3   OH260538   5.330   4.470  15.869 -0.4024 -0.2350 -0.0121
13016TIP3    H160539   5.276   4.469  15.947 -0.5446  0.6391 -0.0958
13016TIP3    H260540   5.405   4.525  15.892 -0.1538 -0.4465 -0.3017
13017TIP3   OH260541   4.582   6.117  14.526 -0.6679  0.2551 -0.5316
13017TIP3    H160542   4.521   6.180  14.489 -1.1254  2.0673  2.8750
13017TIP3    H260543   4.667   6.161  14.524 -0.2726 -0.5230 -1.3923
13018TIP3   OH260544   2.380   5.893  11.146  0.6165 -0.5895  0.6593
13018TIP3    H160545   2.361   5.925  11.057 -0.9080 -0.7913  0.8829
13018TIP3    H260546   2.383   5.798  11.137  1.7053 -0.5610  0.6170
13019TIP3   OH260547   2.874   5.170   5.810 -0.0200  0.3775  0.8779
13019TIP3    H160548   2.926   5.091   5.794  1.3100  0.9126  2.3343
13019TIP3    H260549   2.786   5.147   5.780  0.8360 -0.8420 -0.8878
13020TIP3   OH260550   3.766   2.853   1.494  0.3845 -0.4991 -0.1159
13020TIP3    H160551   3.861   2.848   1.482  0.2083  0.0409 -1.8642
13020TIP3    H260552   3.746   2.947   1.491 -0.2601 -0.6367 -0.2202
13021TIP3   OH260553   4.795   3.589  15.375  0.0975 -0.0101 -0.5960
13021TIP3    H160554   4.758   3.502  15.363  0.5025 -0.1573 -0.7814
13021TIP3    H260555   4.889   3.576  15.378  0.1656  0.4259 -0.6588
13022TIP3   OH260556   6.462   6.301   3.150  0.0174  0.2511  0.2788
13022TIP3    H160557   6.519   6.364   3.194 -2.1075  1.7251  1.0697
13022TIP3    H260558   6.463   6.224   3.207  1.0172  0.3424  0.3994
13023TIP3   OH260559   5.010   0.323  14.919  0.0127 -0.8363 -0.5480
13023TIP3    H160560   4.981   0.296  15.006 -1.1295  1.1407 -0.2471
13023TIP3    H260561   5.102   0.348  14.931  0.0631 -1.2412 -0.0710
13024TIP3   OH260562   1.268   6.748  17.112  0.0589 -0.4789  0.3924
13024TIP3    H160563   1.299   6.665  17.075 -0.3663  0.1904 -1.5721
13024TIP3    H260564   1.321   6.815  17.068 -1.1618  0.4189  0.2350
13025TIP3   OH260565   2.577   3.508   1.903  0.5977 -0.5845 -0.0789
13025TIP3    H160566   2.492   3.475   1.875  0.4294  0.7418 -1.2363
13025TIP3    H260567   2.560   3.552   1.987  0.6163 -2.3285  0.8875
13026TIP3   OH260568   4.514   6.664   4.033  0.8184  0.8227  0.5457
13026TIP3    H160569   4.592   6.610   4.025  1.3614  1.2415  2.4503
13026TIP3    H260570   4.456   6.615   4.091  0.9941  1.8855  1.6696
13027TIP3   OH260571   4.835   1.334   5.827  0.3816 -0.5604  0.0910
13027TIP3    H160572   4.787   1.291   5.756 -0.6854 -0.1579  0.5548
13027TIP3    H260573   4.901   1.270   5.853 -0.2840 -1.3717 -0.1655
13028TIP3   OH260574   1.428   3.269  12.329 -0.0807  0.0157 -0.1382
13028TIP3    H160575   1.499   3.233  12.276  0.3699  1.0538 -0.2483
13028TIP3    H260576   1.355   3.208  12.315  0.3618 -0.3144 -1.0859
13029TIP3   OH260577   5.810   0.118   3.150  0.2277  0.0672 -0.7120
13029TIP3    H160578   5.849   0.034   3.174  1.9379  0.7173 -1.0269
13029TIP3    H260579   5.716   0.106   3.164  0.6040 -1.2564  1.2011
13030TIP3   OH260580   6.184   6.132  10.713 -0.2421  0.0721  0.2187
13030TIP3    H160581   6.189   6.060  10.650 -1.4005 -0.3929  0.6410
13030TIP3    H260582   6.097   6.169  10.701 -0.6431 -0.2854  1.8246
13031TIP3   OH260583   0.067   0.485  15.224  0.3930  0.9186  0.0404
13031TIP3    H160584   0.144   0.432  15.205 -0.2047  0.3317 -0.8485
13031TIP3    H260585   0.030   0.506  15.138 -1.1084  0.1790  0.4586
13032TIP3   OH260586   5.625   1.332  13.138 -0.1179 -0.1209 -0.5901
13032TIP3    H160587   5.594   1.305  13.052  0.0231 -1.9829 -0.0991
13032TIP3    H260588   5.692   1.398  13.120 -0.2531 -0.3149 -1.8884
13033TIP3   OH260589   3.475   0.817  11.577  0.6303 -0.6535  0.0759
13033TIP3    H160590   3.396   0.862  11.608  0.2937 -0.5953 -0.8538
13033TIP3    H260591   3.453   0.724  11.583  1.1704 -0.7126  1.5816
13034TIP3   OH260592   4.665   6.532  17.360  0.0628 -0.6963  0.3263
13034TIP3    H160593   4.683   6.482  17.281 -0.7805  0.9037 -0.9230
13034TIP3    H260594   4.746   6.524  17.412  2.3003  1.4917 -2.4761
13035TIP3   OH260595   3.050   3.030   1.505 -0.1832  0.2875  0.5589
13035TIP3    H160596   3.008   3.096   1.560  0.8962  1.3337  0.1663
13035TIP3    H260597   3.144   3.044   1.518  0.2003  1.7361 -2.7903
13036TIP3   OH260598   0.126   5.342  13.179 -0.5597 -0.2839  0.4561
13036TIP3    H160599   0.106   5.249  13.170  1.5641 -0.9524  1.9456
13036TIP3    H260600   0.112   5.360  13.272  1.1334  0.3216  0.6151
13037TIP3   OH260601   1.700   4.397  11.026  0.3618 -0.3056 -0.6011
13037TIP3    H160602   1.794   4.409  11.037 -0.0523  1.7611  1.3037
13037TIP3    H260603   1.682   4.428  10.937  1.2433  1.0223 -0.3331
13038TIP3   OH260604   3.285   0.482  12.121  0.6350  0.0461 -0.0876
13038TIP3    H160605   3.247   0.458  12.036 -0.4959  1.3380  0.0068
13038TIP3    H260606   3.331   0.404  12.150  0.4246 -0.6553 -1.5592
13039TIP3   OH260607   5.144   2.504  11.526 -0.5459  0.6030  0.0656
13039TIP3    H160608   5.156   2.543  11.440 -2.0446  1.1973  0.0986
13039TIP3    H260609   5.076   2.557  11.567 -2.5340 -1.8843  0.2062
13040TIP3   OH260610   1.080   0.350   3.759 -0.4056  0.1114  0.0973
13040TIP3    H160611   1.085   0.405   3.837  2.3039 -0.4316  0.3992
13040TIP3    H260612   1.050   0.265   3.791  0.7863 -0.1363  0.6028
13041TIP3   OH260613   2.461   2.514  15.653 -0.5332  0.5363 -0.2218
13041TIP3    H160614   2.526   2.562  15.602 -0.7514  1.3104  0.2132
13041TIP3    H260615   2.460   2.426  15.614 -0.1089  0.8715 -1.0107
13042TIP3   OH260616   5.719   6.415   4.260 -0.2441 -0.4367  0.0799
13042TIP3    H160617   5.720   6.371   4.345 -1.1756 -0.7314 -0.0472
13042TIP3    H260618   5.689   6.504   4.280 -1.2369 -0.7316 -0.0184
13043TIP3   OH260619   3.663   0.285   1.625  0.8753  0.0741  0.1363
13043TIP3    H160620   3.569   0.293   1.638  0.7981  0.2075 -0.4469
13043TIP3    H260621   3.702   0.310   1.708  0.3295 -2.5138  1.2711
13044TIP3   OH260622   5.451   1.883  12.390 -0.0121 -0.0278  0.3695
13044TIP3    H160623   5.378   1.931  12.427 -0.4015  0.0499 -0.4874
13044TIP3    H260624   5.480   1.825  12.461  0.2089  1.1576  1.2757
13045TIP3   OH260625   3.299   2.652  15.354  0.0434  0.1284  0.1776
13045TIP3    H160626   3.379   2.621  15.310  0.3945  2.1696 -0.7826
13045TIP3    H260627   3.230   2.638  15.289 -0.3140 -1.1816  0.8199
13046TIP3   OH260628   1.861   0.970   3.035 -0.1807  0.2276  0.5233
13046TIP3    H160629   1.827   0.983   2.947 -0.3207  1.9372  0.8018
13046TIP3    H260630   1.940   0.916   3.023  0.5139  1.4877 -0.7959
13047TIP3   OH260631   4.487   3.550   0.847 -0.2731 -0.0866 -0.5026
13047TIP3    H160632   4.392   3.556   0.859 -0.3536 -0.7131 -0.8192
13047TIP3    H260633   4.499   3.492   0.772  0.3883 -1.2323  0.4570
13048TIP3   OH260634   0.482   2.848  13.718  0.2588  0.1680 -0.2066
13048TIP3    H160635   0.438   2.910  13.776 -0.9089 -0.8710  0.0442
13048TIP3    H260636   0.497   2.770  13.772  0.3694 -0.3232 -0.9307
13049TIP3   OH260637   0.326   5.924   4.303  0.6979  0.1072  0.4315
13049TIP3    H160638   0.375   5.933   4.385  0.2108  0.2748  0.7026
13049TIP3    H260639   0.246   5.973   4.317 -0.6408 -2.0617  0.8648
13050TIP3   OH260640   4.652   5.238  15.915  0.1863  0.7939  0.1047
13050TIP3    H160641   4.686   5.297  15.848  0.8510  0.9534  0.5716
13050TIP3    H260642   4.719   5.238  15.983 -0.3288  0.3764  0.6218
13051TIP3   OH260643   2.091   2.967  15.124 -0.4404 -0.4379 -0.0937
13051TIP3    H160644   2.161   2.930  15.177  1.2561  0.8211 -1.3556
13051TIP3    H260645   2.111   3.061  15.120 -1.7453 -0.1786 -1.1460
13052TIP3   OH260646   5.682   6.781   6.352 -0.1194 -0.0142 -0.2883
13052TIP3    H160647   5.613   6.715   6.341 -0.2565  0.0899 -0.0568
13052TIP3    H260648   5.656   6.853   6.295 -0.5944  0.3367  0.3588
13053TIP3   OH260649   5.694   1.313  12.566 -0.6437  0.1884 -0.4649
13053TIP3    H160650   5.614   1.352  12.533 -3.0624 -1.0910  3.2147
13053TIP3    H260651   5.708   1.354  12.651  3.2291  0.9715 -1.2773
13054TIP3   OH260652   4.004   3.436   4.259 -0.3112  0.0674 -0.2332
13054TIP3    H160653   4.059   3.509   4.288 -2.7013  1.2934  1.5391
13054TIP3    H260654   4.017   3.369   4.326  1.9477 -1.3185 -1.9041
13055TIP3   OH260655   0.058   5.202   4.748  0.2236  0.3245 -0.5595
13055TIP3    H160656   0.022   5.180   4.662 -0.2339 -0.1813 -0.2486
13055TIP3    H260657   0.152   5.203   4.735  0.1715 -0.0580 -0.9997
13056TIP3   OH260658   6.434   5.827   4.326  0.0408  0.3360 -0.1436
13056TIP3    H160659   6.393   5.912   4.342 -2.4761 -0.8597  0.2767
13056TIP3    H260660   6.401   5.800   4.240  0.9955 -0.1483 -0.3795
13057TIP3   OH260661   1.694   2.854   0.644  0.1609  0.8279 -0.0772
13057TIP3    H160662   1.707   2.914   0.717 -2.0020  1.8197 -0.4132
13057TIP3    H260663   1.606   2.875   0.611 -0.3463 -1.9337 -0.7646
13058TIP3   OH260664   2.242   3.527   3.794 -0.1749  0.6306  0.2196
13058TIP3    H160665   2.220   3.606   3.844  1.6380  1.1752  0.2313
13058TIP3    H260666   2.158   3.491   3.767 -1.2403  0.5753  3.2377
13059TIP3   OH260667   5.184   1.727   1.383  0.4523 -0.5373  0.5754
13059TIP3    H160668   5.195   1.704   1.290 -1.5555 -0.3102  0.2451
13059TIP3    H260669   5.158   1.819   1.381  0.7273 -0.4378  1.4042
13060TIP3   OH260670   0.158   1.744  14.880 -0.0350  0.0818  0.4582
13060TIP3    H160671   0.138   1.682  14.950 -2.0046  1.1622  0.9085
13060TIP3    H260672   0.077   1.793  14.867  0.6410  0.7278 -1.7755
13061TIP3   OH260673   3.373   3.242   6.222 -0.8435  0.2290  0.2343
13061TIP3    H160674   3.324   3.209   6.298 -0.1101  0.4231  0.8076
13061TIP3    H260675   3.369   3.337   6.230  1.2296  0.2784  1.3960
13062TIP3   OH260676   2.076   2.096   3.673  0.0717  0.0185 -0.2681
13062TIP3    H160677   2.023   2.035   3.622 -1.1286  0.5457  0.3289
13062TIP3    H260678   2.073   2.178   3.623 -0.8519  0.4482  0.4802
13063TIP3   OH260679   5.131   2.086  16.759 -0.5055 -0.1998  0.8075
13063TIP3    H160680   5.162   2.171  16.790  1.2733 -1.0301  1.4820
13063TIP3    H260681   5.086   2.105  16.677  0.4387  1.3306  0.6008
13064TIP3   OH260682   1.824   5.756   0.488  0.0289  0.2546 -0.2229
13064TIP3    H160683   1.862   5.752   0.400  1.4609  0.8442  0.3361
13064TIP3    H260684   1.876   5.821   0.534 -1.5035  0.8855  0.7118
13065TIP3   OH260685   5.267   0.531  16.169  0.1786 -0.4329 -0.0371
13065TIP3    H160686   5.235   0.531  16.260  0.0129  0.3812 -0.0957
13065TIP3    H260687   5.328   0.604  16.165  0.4152 -0.6557 -0.5076
13066TIP3   OH260688   2.058   1.024  12.787 -0.0058 -0.4574  0.1882
13066TIP3    H160689   2.042   0.932  12.769  0.6445 -0.7423  1.0033
13066TIP3    H260690   2.153   1.030  12.797 -0.0267  0.3314 -0.0041
13067TIP3   OH260691   6.723   4.639  10.416  0.0572  0.3876  0.7760
13067TIP3    H160692   6.665   4.610  10.487  0.9528  0.1941  1.4456
13067TIP3    H260693   6.739   4.731  10.434  1.4334  0.0022  1.6736
13068TIP3   OH260694   3.248   5.813   3.505 -0.0992  0.3088  0.2029
13068TIP3    H160695   3.324   5.760   3.528  0.1823  1.0939  1.1730
13068TIP3    H260696   3.178   5.779   3.560  0.0591  0.8452  0.7592
13069TIP3   OH260697   5.622   2.770   3.469 -0.0802  0.2358 -0.4053
13069TIP3    H160698   5.585   2.833   3.406 -0.6548  2.3281  1.8351
13069TIP3    H260699   5.656   2.825   3.540  1.2389 -1.9643  0.7756
13070TIP3   OH260700   2.660   0.353   3.672 -0.3674  0.0584 -0.9651
13070TIP3    H160701   2.693   0.415   3.738 -2.6811 -0.2637  0.6486
13070TIP3    H260702   2.606   0.407   3.615  0.7405  0.1424 -1.9609
13071TIP3   OH260703   3.079   2.039  14.600  0.1434  0.2024 -0.4818
13071TIP3    H160704   3.044   1.959  14.562  1.4104  0.5851 -2.6258
13071TIP3    H260705   3.065   2.029  14.694  0.6264 -2.7017 -0.6329
13072TIP3   OH260706   2.477   2.800  10.560 -0.1907  0.1482  0.5351
13072TIP3    H160707   2.490   2.853  10.639  1.1864 -0.5683  0.8211
13072TIP3    H260708   2.524   2.719  10.578 -0.4303 -0.2984 -0.7646
13073TIP3   OH260709   2.102   5.129  11.123 -0.2214 -0.5342  0.0671
13073TIP3    H160710   2.096   5.218  11.088 -0.7702 -0.1287  1.1589
13073TIP3    H260711   2.127   5.076  11.047 -0.8615  0.3871 -0.8267
13074TIP3   OH260712   5.730   1.831   3.952 -1.0290 -1.0594 -0.0216
13074TIP3    H160713   5.738   1.741   3.921  1.3386 -1.3715  1.3257
13074TIP3    H260714   5.796   1.880   3.902  1.0729 -1.0774  2.5368
13075TIP3   OH260715   3.591   2.027   1.348  0.1531 -0.2071 -0.4891
13075TIP3    H160716   3.652   2.068   1.286 -0.7610 -1.4293 -2.2713
13075TIP3    H260717   3.643   1.959   1.391  0.3973 -0.3753 -1.0451
13076TIP3   OH260718   3.826   2.928   1.074  0.2315 -0.2150  0.4260
13076TIP3    H160719   3.760   2.934   1.005 -0.4516 -0.2503  1.0636
13076TIP3    H260720   3.864   3.016   1.078  1.3243 -0.5877 -0.9876
13077TIP3   OH260721   4.262   3.907   3.946 -0.0890  0.0463 -0.1382
13077TIP3    H160722   4.337   3.885   3.891 -0.7498  0.9836 -1.4754
13077TIP3    H260723   4.227   3.823   3.975  0.7974 -0.4370 -0.4460
13078TIP3   OH260724   2.428   0.243  16.257 -0.2305  0.2148 -0.1399
13078TIP3    H160725   2.427   0.246  16.352 -1.3453 -0.2230 -0.1123
13078TIP3    H260726   2.353   0.297  16.230 -0.5240 -0.4516 -0.7174
13079TIP3   OH260727   5.334   4.445   3.433 -0.1614  0.3266  0.0399
13079TIP3    H160728   5.399   4.440   3.504  1.0772  1.4698 -0.9443
13079TIP3    H260729   5.339   4.536   3.403  1.5008 -0.7285 -3.4063
13080TIP3   OH260730   2.503   4.231  16.442  0.3783 -0.0539 -0.2989
13080TIP3    H160731   2.497   4.224  16.537  1.2617 -1.2259 -0.3075
13080TIP3    H260732   2.578   4.176  16.419  1.3297  1.6343 -1.5071
13081TIP3   OH260733   1.676   3.457  10.957  0.5029 -0.1269  0.2386
13081TIP3    H160734   1.755   3.459  10.904  0.2539  1.0514 -0.1114
13081TIP3    H260735   1.628   3.537  10.932 -0.4481 -0.4539  0.9602
13082TIP3   OH260736   2.523   2.540   2.162 -0.1091 -0.7535 -0.0490
13082TIP3    H160737   2.487   2.628   2.178  1.0537 -0.3494  0.5087
13082TIP3    H260738   2.469   2.482   2.216  0.7035 -0.0164  1.6419
13083TIP3   OH260739   2.833   0.335   4.563 -0.4012 -0.0270  0.2001
13083TIP3    H160740   2.837   0.262   4.500 -2.4637 -1.4361  1.5726
13083TIP3    H260741   2.740   0.357   4.568  0.1542  2.6285 -0.0094
13084TIP3   OH260742   4.456   0.834  14.182  0.2834 -0.2024  0.2083
13084TIP3    H160743   4.380   0.841  14.239  0.8138  1.0047  0.8160
13084TIP3    H260744   4.426   0.869  14.098  0.2725  0.7131  0.5763
13085TIP3   OH260745   2.564   6.553  15.624  0.3262 -0.1884 -0.0115
13085TIP3    H160746   2.545   6.645  15.644 -1.9999 -0.5975 -0.1004
13085TIP3    H260747   2.636   6.530  15.684  0.4418  1.4552  0.5430
13086TIP3   OH260748   4.837   5.891  11.537 -0.2973  0.1122 -0.4179
13086TIP3    H160749   4.842   5.967  11.478  0.7028 -0.2198 -0.7806
13086TIP3    H260750   4.857   5.926  11.623 -1.7469  0.6005 -0.2605
13087TIP3   OH260751   2.230   1.685  14.968 -0.3404  0.1445  0.3952
13087TIP3    H160752   2.278   1.671  15.049  1.7936 -2.5718 -1.1786
13087TIP3    H260753   2.169   1.611  14.962  0.5012 -0.4711 -1.0746
13088TIP3   OH260754   5.554   6.341   3.756  0.4510  0.5536 -0.0201
13088TIP3    H160755   5.620   6.274   3.775 -0.8881 -1.0775 -0.8564
13088TIP3    H260756   5.592   6.393   3.686  1.2254  0.2540  0.1652
13089TIP3   OH260757   4.207   1.615  11.346  0.0497 -0.2394 -0.0483
13089TIP3    H160758   4.292   1.658  11.344 -0.3506  0.5481 -0.5768
13089TIP3    H260759   4.167   1.644  11.428 -0.4243  0.8311 -0.6374
13090TIP3   OH260760   3.262   2.027  13.306 -0.1160  0.1493 -0.3315
13090TIP3    H160761   3.195   2.071  13.254 -1.5705  1.4472  2.4251
13090TIP3    H260762   3.213   1.979  13.373  1.6661 -1.2353  0.0767
13091TIP3   OH260763   3.706   5.359  16.836  0.0534 -0.4168 -0.4699
13091TIP3    H160764   3.779   5.348  16.776  0.0482  0.6895 -0.7138
13091TIP3    H260765   3.699   5.276  16.882  0.0657 -1.2827 -1.9836
13092TIP3   OH260766   0.313   4.525  13.609 -0.1309  0.2129 -0.0342
13092TIP3    H160767   0.241   4.485  13.560 -0.7804 -0.5154  1.4500
13092TIP3    H260768   0.392   4.490  13.568 -0.6656 -0.8514 -0.1997
13093TIP3   OH260769   5.482   6.010  12.301 -0.3510  0.2879  0.5047
13093TIP3    H160770   5.522   6.022  12.215 -0.4431  0.7944  0.5266
13093TIP3    H260771   5.460   5.917  12.305 -0.6217  0.3179 -0.1441
13094TIP3   OH260772   1.416   0.311  13.536  0.4475 -0.8981 -0.0754
13094TIP3    H160773   1.511   0.302  13.542  0.5111 -0.1759  0.0835
13094TIP3    H260774   1.394   0.269  13.452  1.1892  0.8911 -1.2233
13095TIP3   OH260775   1.077   1.387  16.799  0.0582  0.0966 -0.1366
13095TIP3    H160776   1.004   1.363  16.856 -1.7403  1.8642 -1.5365
13095TIP3    H260777   1.103   1.474  16.830  1.5936 -0.5099  0.3333
13096TIP3   OH260778   4.358   5.494  16.080  0.3116 -0.6551  0.0076
13096TIP3    H160779   4.268   5.525  16.073 -0.6299 -2.6924  1.7586
13096TIP3    H260780   4.397   5.511  15.995 -0.9287  2.4977 -0.0580
13097TIP3   OH260781   5.202   4.233  14.389 -0.1853  0.1879  0.2118
13097TIP3    H160782   5.123   4.201  14.346 -1.2562 -0.0018  2.1828
13097TIP3    H260783   5.238   4.299  14.329 -0.7707 -1.0476 -1.5685
13098TIP3   OH260784   5.384   5.313   4.601  0.1767  0.3532 -0.1408
13098TIP3    H160785   5.390   5.362   4.519 -2.2370  1.1139  0.0517
13098TIP3    H260786   5.356   5.225   4.575  2.6679 -0.4873 -0.3213
13099TIP3   OH260787   5.480   2.651  11.347 -0.1594 -0.2369 -0.1727
13099TIP3    H160788   5.435   2.570  11.371  0.4746 -0.9245 -1.2593
13099TIP3    H260789   5.480   2.651  11.251 -2.5820  2.4095 -0.3289
13100TIP3   OH260790   3.429   6.146  14.365 -0.7280 -0.2940 -0.2556
13100TIP3    H160791   3.443   6.069  14.309 -0.3827 -0.6720  0.3392
13100TIP3    H260792   3.473   6.124  14.447 -1.5781  0.0876  0.3112
13101TIP3   OH260793   4.957   0.885   0.983  0.3583  0.4986  0.2179
13101TIP3    H160794   4.925   0.961   0.935 -0.8084 -0.9031 -1.3183
13101TIP3    H260795   5.030   0.919   1.035  1.2203  2.2486 -1.9811
13102TIP3   OH260796   5.222   5.414  15.237  0.6637  0.4505 -0.4999
13102TIP3    H160797   5.167   5.393  15.312 -0.6455 -0.0222 -1.5505
13102TIP3    H260798   5.278   5.485  15.268  0.1386  0.2957  0.8977
13103TIP3   OH260799   3.467   4.625  17.272  0.6570 -0.0450  0.2595
13103TIP3    H160800   3.390   4.598  17.323 -0.4064  2.2891  0.0581
13103TIP3    H260801   3.515   4.682  17.332  2.4558 -1.7074  0.4791
13104TIP3   OH260802   1.155   0.145   0.363 -0.4576 -0.3712  0.0850
13104TIP3    H160803   1.199   0.061   0.366 -0.4059 -0.3320  0.4502
13104TIP3    H260804   1.225   0.210   0.372 -0.0910 -0.1550 -2.9633
13105TIP3   OH260805   5.969   1.096  12.924  0.2361 -0.7098  0.3841
13105TIP3    H160806   6.017   1.070  13.003  0.6950 -1.8572 -0.2473
13105TIP3    H260807   5.948   1.013  12.881  0.3806 -0.0942 -0.9242
13106TIP3   OH260808   4.033   6.449  11.430  0.3807  0.1499 -0.7797
13106TIP3    H160809   3.967   6.433  11.362 -0.3900 -1.0293  0.2104
13106TIP3    H260810   3.983   6.457  11.511  1.4257 -0.4818 -0.0407
13107TIP3   OH260811   0.936   6.362   5.333  0.5799 -0.2918  0.3321
13107TIP3    H160812   0.894   6.281   5.303 -0.1377  0.2586 -0.1817
13107TIP3    H260813   0.886   6.432   5.290 -0.9721  0.6013  3.2924
13108TIP3   OH260814   4.046   6.155  15.207  0.2070  0.5918 -0.1195
13108TIP3    H160815   4.116   6.219  15.217 -0.5693  1.1697  2.4562
13108TIP3    H260816   4.031   6.150  15.113  1.6978  2.6505 -0.5339
13109TIP3   OH260817   3.647   4.750  16.455  0.2015  0.3520 -0.4645
13109TIP3    H160818   3.589   4.745  16.379  0.7894  0.6295 -0.9500
13109TIP3    H260819   3.684   4.662  16.463 -1.4406 -0.2614  0.8128
13110TIP3   OH260820   0.708   6.728  15.470 -0.1212 -0.0354  0.1779
13110TIP3    H160821   0.744   6.794  15.411  1.1343 -0.5228  0.3729
13110TIP3    H260822   0.613   6.733  15.456  0.1031  0.2518 -1.4577
13111TIP3   OH260823   5.802   5.329  13.306 -0.0875 -0.1627 -0.2562
13111TIP3    H160824   5.728   5.384  13.280 -0.9325 -0.7055  0.9242
13111TIP3    H260825   5.830   5.364  13.390  0.9640 -0.0217 -0.6484
13112TIP3   OH260826   4.676   0.723  16.112  0.1790  0.6216  0.4484
13112TIP3    H160827   4.608   0.656  16.110 -0.3425  0.8361  4.0385
13112TIP3    H260828   4.752   0.681  16.072 -1.8050  0.2383 -3.3197
13113TIP3   OH260829   3.737   2.452  16.642 -0.4796  1.0147  0.1602
13113TIP3    H160830   3.765   2.544  16.645 -0.1891  0.8996  1.2763
13113TIP3    H260831   3.783   2.410  16.715 -1.8301  0.3254  0.6549
13114TIP3   OH260832   3.995   0.802  16.362  0.2022 -0.2499  0.2155
13114TIP3    H160833   4.028   0.892  16.370  2.6034 -0.9923 -0.3383
13114TIP3    H260834   3.937   0.791  16.437  0.3576  1.5724  0.6493
13115TIP3   OH260835   0.781   5.370   2.600 -0.6849 -0.1746  0.0367
13115TIP3    H160836   0.700   5.344   2.557  0.2429 -4.6492  0.5222
13115TIP3    H260837   0.850   5.345   2.539  0.4281 -0.8763  1.5190
13116TIP3   OH260838   0.267   4.414   0.541 -0.0128  0.3098 -0.0058
13116TIP3    H160839   0.223   4.380   0.620  1.8351  1.5957  1.6772
13116TIP3    H260840   0.353   4.372   0.543  0.7097  1.7241 -0.3002
13117TIP3   OH260841   5.963   1.885  12.996 -0.0749  0.4618 -0.1936
13117TIP3    H160842   6.033   1.932  13.042 -0.0385  0.7539 -0.5433
13117TIP3    H260843   5.992   1.882  12.905  1.1360 -2.4323  0.1787
13118TIP3   OH260844   2.970   0.428  15.034 -0.2895  0.2225  0.0905
13118TIP3    H160845   3.052   0.476  15.047 -0.7568  0.5185  2.2321
13118TIP3    H260846   2.931   0.423  15.121 -2.7581  0.4448 -0.9261
13119TIP3   OH260847   1.548   1.173   0.213 -0.1855 -0.1008 -0.2272
13119TIP3    H160848   1.524   1.155   0.122  1.9266  0.4700 -0.9515
13119TIP3    H260849   1.548   1.269   0.219  0.1087 -0.1295  0.2546
13120TIP3   OH260850   4.882   0.728   3.913  0.1752 -0.0590 -0.4823
13120TIP3    H160851   4.807   0.781   3.940  0.2880 -0.0605 -0.1606
13120TIP3    H260852   4.844   0.644   3.887 -0.1869  0.6918 -2.5490
13121TIP3   OH260853   5.112   0.603   2.130 -0.8840  0.1936 -0.0871
13121TIP3    H160854   5.179   0.663   2.162  0.2269 -0.3013 -1.3997
13121TIP3    H260855   5.059   0.583   2.208 -0.4405  1.7516  0.6651
13122TIP3   OH260856   3.077   6.520   0.733 -0.0367  0.5624  0.0474
13122TIP3    H160857   3.111   6.504   0.822 -1.1494 -0.3085  0.3433
13122TIP3    H260858   2.986   6.491   0.737  0.7545 -2.9896 -2.2813
13123TIP3   OH260859   0.408   0.893   2.961  0.7838 -0.0777  0.1290
13123TIP3    H160860   0.480   0.927   2.908  1.2734  1.1751  1.5201
13123TIP3    H260861   0.413   0.798   2.951  1.9078  0.0484 -0.7033
13124TIP3   OH260862   2.592   4.012  13.971  0.0417  0.1786  0.3139
13124TIP3    H160863   2.628   4.093  13.935 -0.3802 -0.2364 -1.0824
13124TIP3    H260864   2.499   4.031  13.985  0.3698  0.6548  2.1919
13125TIP3   OH260865   1.758   6.237   6.215  0.1981  0.3454  0.1101
13125TIP3    H160866   1.780   6.276   6.130 -1.3039  0.5094 -0.2244
13125TIP3    H260867   1.799   6.150   6.211 -0.8691 -0.1376 -1.3158
13126TIP3   OH260868   6.701   3.082   0.075  0.5776  0.0071  0.0281
13126TIP3    H160869   6.627   3.064   0.017  0.6451  1.1907 -0.4682
13126TIP3    H260870   6.779   3.065   0.022  0.6401  0.8500 -0.1681
13127TIP3   OH260871   6.541   3.373  16.044 -0.0874 -0.0974 -0.0186
13127TIP3    H160872   6.555   3.468  16.042 -0.0246 -0.1129 -0.8941
13127TIP3    H260873   6.447   3.363  16.058 -0.1846  0.1077 -0.5043
13128TIP3   OH260874   2.304   3.238   0.571 -0.1107 -0.5065 -0.0913
13128TIP3    H160875   2.365   3.225   0.499 -0.3272  0.3249 -0.4321
13128TIP3    H260876   2.329   3.322   0.610 -0.9173 -0.2363 -0.1335
13129TIP3   OH260877   0.281   3.676  10.879 -0.1030  0.1502 -0.2555
13129TIP3    H160878   0.225   3.647  10.952  0.3572  0.6827  0.3211
13129TIP3    H260879   0.327   3.753  10.914 -0.3027  0.7600 -1.3050
13130TIP3   OH260880   3.308   5.279   3.452 -0.1284 -0.1239  0.4413
13130TIP3    H160881   3.320   5.296   3.359  1.8704 -1.7975  0.3195
13130TIP3    H260882   3.336   5.360   3.495  0.3882  0.1263 -0.3530
13131TIP3   OH260883   6.264   5.938  15.002 -0.4100  0.3827 -0.2106
13131TIP3    H160884   6.290   5.879  14.931 -0.7360  0.5737 -0.4921
13131TIP3    H260885   6.292   5.894  15.082  0.4368  0.4016 -0.4860
13132TIP3   OH260886   5.778   5.343  16.930 -0.1769  0.4296  0.2025
13132TIP3    H160887   5.846   5.307  16.987 -1.0894 -1.0819  0.3830
13132TIP3    H260888   5.702   5.287  16.944 -0.5234  0.1753 -2.3014
13133TIP3   OH260889   2.584   4.281   3.685 -0.4606  0.3442 -0.1428
13133TIP3    H160890   2.509   4.286   3.626 -0.0798 -0.6349 -0.7249
13133TIP3    H260891   2.595   4.188   3.703  1.3848  0.3424 -1.0739
13134TIP3   OH260892   3.448   0.387  13.167 -0.1349  0.8950 -0.3713
13134TIP3    H160893   3.403   0.308  13.137  1.1467  0.4448 -1.2048
13134TIP3    H260894   3.408   0.407  13.252 -0.5883 -0.5657 -0.2162
13135TIP3   OH260895   5.113   1.983  13.958 -0.0768 -0.8134 -0.3274
13135TIP3    H160896   5.117   1.978  13.862 -1.4687  0.5272 -0.5007
13135TIP3    H260897   5.060   1.906  13.983 -1.0535 -0.3169 -0.7977
13136TIP3   OH260898   4.669   3.890   4.681 -0.3701  0.1196 -0.1538
13136TIP3    H160899   4.743   3.836   4.653 -0.3012  0.1010  0.0587
13136TIP3    H260900   4.592   3.838   4.658 -0.2796 -1.2848  2.3646
13137TIP3   OH260901   3.493   4.886   6.315 -0.3985  0.3298 -0.1725
13137TIP3    H160902   3.422   4.910   6.375 -1.3646 -1.0387 -0.7082
13137TIP3    H260903   3.534   4.810   6.356 -1.5542 -1.0965 -1.5391
13138TIP3   OH260904   0.228   0.958   2.068 -0.1538  0.3703  0.0413
13138TIP3    H160905   0.158   0.995   2.013  0.8908 -0.1090 -1.6872
13138TIP3    H260906   0.253   1.030   2.126 -1.9018  0.6262  0.5316
13139TIP3   OH260907   0.739   4.398  14.476 -0.8757 -0.2409 -0.0105
13139TIP3    H160908   0.760   4.459  14.406 -0.2452  0.9720  1.1972
13139TIP3    H260909   0.650   4.422  14.503 -0.2611  0.8567  1.1345
13140TIP3   OH260910   0.998   1.746   5.792 -0.4347  0.1970  0.2166
13140TIP3    H160911   0.973   1.666   5.839 -0.0895 -0.1024 -0.1010
13140TIP3    H260912   0.922   1.803   5.799 -1.9566 -1.3681 -2.2465
13141TIP3   OH260913   1.389   6.571   2.227  1.0409 -0.3930  0.0939
13141TIP3    H160914   1.433   6.597   2.308  1.6197  0.7996 -0.5841
13141TIP3    H260915   1.345   6.489   2.250  1.2027 -0.0938  1.6047
13142TIP3   OH260916   5.412   6.562  13.526 -0.6005  0.5795 -0.3021
13142TIP3    H160917   5.417   6.467  13.534  2.8054  0.6427 -0.4546
13142TIP3    H260918   5.478   6.584  13.460 -1.5750  3.0536 -0.5633
13143TIP3   OH260919   5.099   3.695  11.455 -0.4292 -0.6647  0.0882
13143TIP3    H160920   5.019   3.746  11.472  0.9872  2.0948 -0.8823
13143TIP3    H260921   5.167   3.738  11.507  0.5809 -2.6882  0.5604
13144TIP3   OH260922   6.631   0.266  11.582  0.3042  0.1150  0.0136
13144TIP3    H160923   6.567   0.335  11.600 -1.1659 -0.0075 -3.7560
13144TIP3    H260924   6.705   0.312  11.541  0.7118 -0.2271  0.3531
13145TIP3   OH260925   1.875   0.072  12.511 -0.0581  0.3544 -0.6478
13145TIP3    H160926   1.856   0.045  12.421 -1.2955  0.5348 -0.4610
13145TIP3    H260927   1.883   0.168  12.506 -0.0441  0.3565 -0.5880
13146TIP3   OH260928   4.839   4.591   1.163 -0.3093  0.2941 -0.8824
13146TIP3    H160929   4.758   4.549   1.190  1.0078 -0.3743  2.7149
13146TIP3    H260930   4.893   4.520   1.129  0.6984 -0.5366  2.0930
13147TIP3   OH260931   2.826   5.078   1.076 -0.2608 -0.0235 -0.0457
13147TIP3    H160932   2.868   5.069   0.991 -1.1148 -1.4081 -0.3564
13147TIP3    H260933   2.879   5.142   1.123  1.0739 -0.3324 -1.0843
13148TIP3   OH260934   6.046   3.040  13.786 -0.8531  0.0764  0.2664
13148TIP3    H160935   6.073   3.130  13.769 -0.8952  0.0323 -0.0362
13148TIP3    H260936   6.127   2.989  13.780 -1.1329 -0.2001 -1.6374
13149TIP3   OH260937   4.954   6.300   2.075  0.2714 -0.0167  0.4784
13149TIP3    H160938   4.866   6.325   2.102  0.4623  0.7150  0.4522
13149TIP3    H260939   5.007   6.307   2.154  0.1706 -1.2035  0.6723
13150TIP3   OH260940   0.124   3.361   0.514  0.2887  0.5326 -0.1544
13150TIP3    H160941   0.063   3.348   0.441 -0.8136 -1.4151  1.0193
13150TIP3    H260942   0.072   3.403   0.582  1.0633  1.5089 -0.1472
13151TIP3   OH260943   2.189   2.783  11.184  0.0486  0.2138  0.2644
13151TIP3    H160944   2.192   2.821  11.097  0.5782 -0.4118  0.0057
13151TIP3    H260945   2.275   2.742  11.196 -0.0339  0.2502  1.0555
13152TIP3   OH260946   0.392   1.778  13.272 -0.4249  0.8327 -0.5039
13152TIP3    H160947   0.476   1.785  13.319 -1.9001 -2.2601  3.1071
13152TIP3    H260948   0.417   1.762  13.181  2.8214  1.8548  0.0785
13153TIP3   OH260949   3.237   4.783   1.812 -0.5230  0.5557  0.0678
13153TIP3    H160950   3.307   4.813   1.871  1.0499 -0.1521 -1.3388
13153TIP3    H260951   3.213   4.862   1.763  0.6220  0.4436 -0.7084
13154TIP3   OH260952   0.374   3.683  15.842  0.5605 -0.2141  0.4834
13154TIP3    H160953   0.303   3.620  15.850 -0.1700  0.4693 -0.3729
13154TIP3    H260954   0.431   3.647  15.774 -0.0869  0.2481 -0.3140
13155TIP3   OH260955   6.160   5.283   1.009  0.0268  0.4732 -0.3168
13155TIP3    H160956   6.153   5.278   1.105 -1.5590 -2.1154 -0.4808
13155TIP3    H260957   6.220   5.212   0.985 -0.1315  0.6513 -1.2825
13156TIP3   OH260958   0.280   0.106   5.908 -0.0979 -0.0857 -0.3844
13156TIP3    H160959   0.371   0.130   5.921 -0.3462  0.1471  1.0854
13156TIP3    H260960   0.249   0.081   5.995 -2.1867  2.4833 -0.2704
13157TIP3   OH260961   0.357   4.835  13.089 -0.1926  0.1370  0.0500
13157TIP3    H160962   0.262   4.829  13.092 -0.5402  2.2529 -2.5666
13157TIP3    H260963   0.385   4.757  13.040 -0.8503  0.6073 -1.1221
13158TIP3   OH260964   6.223   0.591   5.176 -0.3715  0.3030  0.5289
13158TIP3    H160965   6.267   0.670   5.146 -1.4330  0.4620 -0.6822
13158TIP3    H260966   6.227   0.596   5.271 -0.2079  1.6791  0.4630
13159TIP3   OH260967   6.155   4.497  16.058 -0.1245 -0.0492  0.7293
13159TIP3    H160968   6.218   4.540  15.999 -0.5563 -0.6002 -0.1488
13159TIP3    H260969   6.209   4.468  16.132  0.9805 -1.7581 -0.6342
13160TIP3   OH260970   2.997   3.554   5.016  0.1272  0.2600 -0.7261
13160TIP3    H160971   3.004   3.560   5.112  0.9396  0.4677 -0.7922
13160TIP3    H260972   3.087   3.561   4.985 -0.0483 -0.6406 -1.4735
13161TIP3   OH260973   1.649   3.580   6.833 -0.0852  0.2981 -0.0331
13161TIP3    H160974   1.691   3.665   6.821  0.3002  0.3869  1.5860
13161TIP3    H260975   1.565   3.588   6.789  0.3336  1.1884 -0.7117
13162TIP3   OH260976   2.249   2.874  13.953  0.0505  0.2314 -0.1352
13162TIP3    H160977   2.214   2.869  14.042 -0.4024  0.4448 -0.2993
13162TIP3    H260978   2.301   2.954  13.953  1.4388 -0.6308  0.4155
13163TIP3   OH260979   1.553   2.626  15.781 -0.0677  0.1012  0.0093
13163TIP3    H160980   1.646   2.645  15.788  0.0899 -0.6909  0.2208
13163TIP3    H260981   1.546   2.534  15.807 -0.7422 -0.2065 -1.1878
13164TIP3   OH260982   3.446   2.383  15.913 -0.2439 -0.1704  0.2484
13164TIP3    H160983   3.357   2.415  15.932  0.2548  0.1724  2.2310
13164TIP3    H260984   3.436   2.289  15.905 -0.5028 -0.4265  2.7535
13165TIP3   OH260985   0.419   4.010  13.003 -0.0154 -0.0224  0.2667
13165TIP3    H160986   0.497   4.003  13.058  0.1223  1.3603  0.2896
13165TIP3    H260987   0.346   3.991  13.061  0.2918 -1.6371  0.1760
13166TIP3   OH260988   5.299   2.601   3.638  0.5935  0.5033  0.1787
13166TIP3    H160989   5.205   2.587   3.652  0.9160  0.3242  2.4158
13166TIP3    H260990   5.336   2.513   3.629  0.6936  0.5374  0.2573
13167TIP3   OH260991   4.563   2.226   2.324  0.4382 -0.1528  0.5211
13167TIP3    H160992   4.611   2.298   2.365  1.2499 -1.0206  1.1384
13167TIP3    H260993   4.566   2.156   2.389  0.9608 -1.2514 -0.6548
13168TIP3   OH260994   3.773   6.572   1.164 -0.5236 -0.6331 -0.4608
13168TIP3    H160995   3.680   6.584   1.181 -0.4920 -1.3304  0.2880
13168TIP3    H260996   3.777   6.535   1.076 -0.8662  0.5731 -1.0003
13169TIP3   OH260997   3.221   4.618  14.500  0.2344  0.2767 -0.7877
13169TIP3    H160998   3.181   4.679  14.562 -0.8556 -0.7836 -0.3998
13169TIP3    H260999   3.285   4.568  14.552 -0.2809 -0.2303 -0.6246
13170TIP3   OH261000   3.182   3.168   2.251 -0.3858  0.4857  0.2540
13170TIP3    H161001   3.230   3.102   2.200  0.8116 -0.4267  2.4576
13170TIP3    H261002   3.126   3.117   2.309 -0.7406  1.4530  0.7770
13171TIP3   OH261003   2.358   1.830   5.008  0.3073  0.4490 -0.7576
13171TIP3    H161004   2.286   1.832   5.071  1.7527  0.2361  0.9900
13171TIP3    H261005   2.331   1.766   4.942 -1.1266  0.4484 -0.2019
13172TIP3   OH261006   4.190   1.887  14.967  0.0703 -0.0815 -0.2001
13172TIP3    H161007   4.171   1.849  15.052 -0.6329 -1.2281 -0.8424
13172TIP3    H261008   4.266   1.944  14.982 -1.0544  1.0445  1.5002
13173TIP3   OH261009   4.728   3.911   6.239  0.6745  0.3572  0.0605
13173TIP3    H161010   4.668   3.836   6.246 -1.6945  1.9845 -1.2510
13173TIP3    H261011   4.814   3.872   6.226 -0.7112 -2.2323 -2.6538
13174TIP3   OH261012   4.419   3.129   1.939  0.1582  0.1649 -0.5206
13174TIP3    H161013   4.434   3.083   2.022 -0.1009 -1.1401 -1.1613
13174TIP3    H261014   4.497   3.182   1.927  0.5598 -0.2439  0.1760
13175TIP3   OH261015   2.197   2.055  14.879  0.5129 -0.0351  0.1873
13175TIP3    H161016   2.251   2.131  14.897 -0.6804  1.1402 -0.9134
13175TIP3    H261017   2.108   2.089  14.875 -0.3083 -1.8373  1.5903
13176TIP3   OH261018   3.243   1.989  12.687 -0.1926  0.0324 -0.2119
13176TIP3    H161019   3.309   1.980  12.619 -0.6120 -1.0281 -0.5018
13176TIP3    H261020   3.195   2.068  12.664 -0.5626 -0.5126 -1.3715
13177TIP3   OH261021   3.923   0.755  12.155  0.0296 -0.2126  0.2514
13177TIP3    H161022   3.856   0.782  12.093  0.7553 -1.8455 -1.3318
13177TIP3    H261023   4.003   0.798  12.125 -0.1372  1.2727  1.7931
13178TIP3   OH261024   4.057   5.793  15.529  0.1366 -0.4586  0.3793
13178TIP3    H161025   4.145   5.754  15.532  0.3368 -0.1522 -0.9899
13178TIP3    H261026   3.998   5.720  15.551  0.6133 -1.1556 -0.5771
13179TIP3   OH261027   2.350   3.450   0.768  0.6266  0.1563 -0.1007
13179TIP3    H161028   2.413   3.497   0.823  0.2338 -0.6597  1.0984
13179TIP3    H261029   2.334   3.509   0.694 -0.7734  2.5504  1.9087
13180TIP3   OH261030   6.288   2.529   1.502 -0.5500  0.3098 -0.6712
13180TIP3    H161031   6.253   2.563   1.584 -2.3128 -0.8644 -0.8833
13180TIP3    H261032   6.274   2.599   1.439 -0.0301  0.8619 -0.1871
13181TIP3   OH261033   3.078   3.934   2.260  0.5080 -0.2215 -0.7193
13181TIP3    H161034   3.133   3.913   2.184  2.7301  0.4253  0.6067
13181TIP3    H261035   3.086   4.028   2.270  0.5894 -0.3447  0.5369
13182TIP3   OH261036   2.448   5.650   4.731 -0.6695  0.1391  0.2071
13182TIP3    H161037   2.381   5.712   4.702  0.8781  1.4846 -0.6992
13182TIP3    H261038   2.472   5.680   4.818 -0.8777 -0.0292  0.3233
13183TIP3   OH261039   0.732   1.670   2.974 -0.5013  0.2423 -0.4218
13183TIP3    H161040   0.812   1.676   2.922  0.2665 -3.1306  0.1581
13183TIP3    H261041   0.663   1.649   2.911 -0.5909  1.2393 -0.6722
13184TIP3   OH261042   4.886   1.192  12.391  0.2300  0.2791 -0.0949
13184TIP3    H161043   4.898   1.240  12.309  0.9552  0.4939  0.1301
13184TIP3    H261044   4.832   1.249  12.445 -0.8019 -0.1376 -0.6432
13185TIP3   OH261045   1.978   4.415  12.573 -0.2971  0.2807 -0.0896
13185TIP3    H161046   1.991   4.374  12.659 -1.2156  0.6523  0.2415
13185TIP3    H261047   1.884   4.429  12.567 -0.3428 -0.4935 -1.5265
13186TIP3   OH261048   3.748   5.970  10.771  0.2018 -0.2686 -0.5899
13186TIP3    H161049   3.724   6.054  10.811  2.3652  1.0466 -1.8666
13186TIP3    H261050   3.702   5.970  10.687  0.4790 -0.2070 -0.7409
13187TIP3   OH261051   3.836   0.945  16.150 -0.0560  0.3419  0.1657
13187TIP3    H161052   3.931   0.955  16.155  0.0044 -0.5799  1.2653
13187TIP3    H261053   3.815   0.956  16.057  1.3504 -1.2467 -0.3815
13188TIP3   OH261054   6.694   5.259   2.504  0.7360 -0.1714  0.0832
13188TIP3    H161055   6.702   5.173   2.463 -1.2763 -0.2943 -0.1104
13188TIP3    H261056   6.721   5.321   2.435  0.0244 -0.5362 -0.5411
13189TIP3   OH261057   4.235   3.497   0.933 -0.0968 -0.5099 -0.0597
13189TIP3    H161058   4.198   3.414   0.904 -0.7127 -0.1504 -0.3107
13189TIP3    H261059   4.159   3.550   0.957  0.1212  0.8257 -2.1167
13190TIP3   OH261060   3.148   2.882  14.212  0.0042  0.1026  0.1561
13190TIP3    H161061   3.089   2.864  14.139 -2.6883  2.1208  1.6638
13190TIP3    H261062   3.176   2.795  14.242  0.5833 -0.8096 -2.6734
13191TIP3   OH261063   3.847   3.243  14.317  0.0164 -0.5822  0.4974
13191TIP3    H161064   3.841   3.300  14.394 -0.2476  0.2996 -0.1451
13191TIP3    H261065   3.937   3.255  14.285  0.5906 -2.0638  1.4718
13192TIP3   OH261066   2.603   3.691  16.749  0.4631 -0.5396 -0.0757
13192TIP3    H161067   2.531   3.629  16.756 -0.4798  0.5272  0.0845
13192TIP3    H261068   2.653   3.662  16.673  0.1795 -1.6181  0.1354
13193TIP3   OH261069   2.647   0.340   0.663 -0.0846  0.1234  0.8228
13193TIP3    H161070   2.655   0.250   0.630  1.0466  0.0951  1.1463
13193TIP3    H261071   2.648   0.331   0.758  1.3767  0.5785  0.8627
13194TIP3   OH261072   3.461   5.033  11.392 -0.1461 -0.0544  0.9668
13194TIP3    H161073   3.466   5.122  11.359  2.6305 -0.0808  1.0316
13194TIP3    H261074   3.378   4.999  11.359 -0.4877  1.9968 -0.4597
13195TIP3   OH261075   1.851   1.841  14.295 -0.4983  0.5197  0.7767
13195TIP3    H161076   1.866   1.921  14.244 -0.3157  0.9511  1.4868
13195TIP3    H261077   1.910   1.849  14.370  1.2141 -1.3553 -0.2658
13196TIP3   OH261078   5.760   5.127   1.876  0.1289  0.5108  0.3250
13196TIP3    H161079   5.744   5.161   1.964 -0.7146  2.5577 -0.5470
13196TIP3    H261080   5.855   5.132   1.865  0.3088 -0.4138  1.3323
13197TIP3   OH261081   1.962   3.627   3.571  0.0032 -0.4949 -0.4860
13197TIP3    H161082   1.900   3.700   3.574 -0.1017 -0.5249 -1.5640
13197TIP3    H261083   2.048   3.668   3.559 -0.0334 -0.5399 -0.9026
13198TIP3   OH261084   6.430   1.682  14.344  0.1607 -0.0550  0.1599
13198TIP3    H161085   6.406   1.686  14.252  1.7727 -0.9628 -0.3346
13198TIP3    H261086   6.401   1.595  14.372  0.5182 -0.1481  0.2469
13199TIP3   OH261087   4.191   1.428   1.006  0.0018  0.1000 -0.1802
13199TIP3    H161088   4.214   1.388   1.090 -1.5247 -1.5668 -0.4842
13199TIP3    H261089   4.269   1.477   0.979 -0.3486  3.2010  3.5451
13200TIP3   OH261090   0.685   2.906   6.513 -0.0083 -0.6317  0.4934
13200TIP3    H161091   0.654   2.815   6.508 -0.0593 -0.5544 -1.4024
13200TIP3    H261092   0.612   2.958   6.481  0.7857 -0.1414 -0.5791
13201TIP3   OH261093   5.125   2.443   3.419  0.1955 -0.0003  0.1287
13201TIP3    H161094   5.220   2.455   3.415  0.1138  0.6720  0.1290
13201TIP3    H261095   5.090   2.531   3.431 -0.3104 -0.4774  2.6863
13202TIP3   OH261096   1.321   0.410   5.687  0.1714  0.3171  0.2187
13202TIP3    H161097   1.334   0.357   5.608 -1.3550  3.2481 -2.2574
13202TIP3    H261098   1.231   0.390   5.715 -0.3996  1.4257 -0.7078
13203TIP3   OH261099   4.413   4.675  13.611 -0.1522 -0.6221  0.3539
13203TIP3    H161100   4.445   4.699  13.698  0.4147 -0.4617  0.1092
13203TIP3    H261101   4.318   4.680  13.618 -0.0953 -0.1103  0.8177
13204TIP3   OH261102   1.606   5.528   2.178 -0.8587 -0.3970 -0.0602
13204TIP3    H161103   1.583   5.576   2.257  1.0836 -1.2610  1.1118
13204TIP3    H261104   1.675   5.468   2.205 -1.0618 -1.7099 -2.1276
13205TIP3   OH261105   1.514   2.746   0.980  0.0064 -0.2327 -0.1867
13205TIP3    H161106   1.504   2.713   0.891  0.2254 -0.9308  0.0447
13205TIP3    H261107   1.432   2.724   1.024  0.6977 -1.8423  0.3914
13206TIP3   OH261108   4.446   2.965   0.437  0.1778 -0.1455  0.5608
13206TIP3    H161109   4.417   2.996   0.351  1.2290 -2.3386 -0.6498
13206TIP3    H261110   4.541   2.973   0.435  0.2214 -0.3128  1.5002
13207TIP3   OH261111   5.952   6.652   6.488  0.0864 -0.4483 -0.0776
13207TIP3    H161112   6.039   6.692   6.489 -0.3046  0.4124  0.6244
13207TIP3    H261113   5.894   6.719   6.525 -0.5100 -1.8496  1.6221
13208TIP3   OH261114   1.984   5.789   5.166 -0.7916 -0.1418  0.5887
13208TIP3    H161115   2.046   5.855   5.199 -1.1046  1.0701 -1.1122
13208TIP3    H261116   1.903   5.837   5.151 -0.8775 -0.7683 -1.1880
13209TIP3   OH261117   1.306   5.499   4.879 -0.3093  0.0151 -0.2074
13209TIP3    H161118   1.328   5.465   4.792  1.3987 -0.1346  0.2453
13209TIP3    H261119   1.240   5.438   4.912  1.6719 -2.1482  0.0192
13210TIP3   OH261120   2.570   0.272   0.005 -0.0111 -0.2887 -0.0860
13210TIP3    H161121   2.655   0.304   0.036  0.9700 -0.7728 -2.1038
13210TIP3    H261122   2.522   0.352  -0.018 -1.2921  0.1981  3.6073
13211TIP3   OH261123   1.290   2.633   5.147 -0.4969  0.3155 -0.1539
13211TIP3    H161124   1.285   2.613   5.240  0.0457 -0.7485 -0.3373
13211TIP3    H261125   1.261   2.552   5.104  0.7361  0.2616 -0.9182
13212TIP3   OH261126   5.722   3.889  13.155 -0.4637  0.1984  0.0811
13212TIP3    H161127   5.687   3.890  13.245 -0.6182 -0.0414  0.0244
13212TIP3    H261128   5.651   3.924  13.101 -0.0146  1.2894  0.1745
13213TIP3   OH261129   4.030   0.280   1.988 -0.6009 -0.0838  0.4768
13213TIP3    H161130   4.072   0.257   2.071 -2.8842 -2.9095  1.0017
13213TIP3    H261131   4.052   0.207   1.930 -1.8373  0.1512 -0.3120
13214TIP3   OH261132   3.578   1.575  16.445 -0.5017 -0.0684 -0.1781
13214TIP3    H161133   3.513   1.612  16.385 -0.6319 -0.1965 -0.1173
13214TIP3    H261134   3.592   1.485  16.414  0.0947  0.1534 -0.5528
13215TIP3   OH261135   1.921   6.412  11.761 -0.3324  0.1541  0.2430
13215TIP3    H161136   1.893   6.481  11.821  0.6660  1.0606 -0.3077
13215TIP3    H261137   1.988   6.364  11.810 -0.0092  0.4667  0.1114
13216TIP3   OH261138   6.515   5.776  11.413  0.0347 -0.4847 -0.0438
13216TIP3    H161139   6.515   5.839  11.484  0.0081 -0.2024 -0.2946
13216TIP3    H261140   6.607   5.771  11.385  0.0822 -0.7621  0.1562
13217TIP3   OH261141   2.092   1.684  13.153  0.1098  0.7536  0.3248
13217TIP3    H161142   2.164   1.645  13.201 -0.3190 -1.0563 -0.4349
13217TIP3    H261143   2.101   1.650  13.064 -0.5364  2.0848 -0.2759
13218TIP3   OH261144   2.618   5.868   5.475 -0.0656 -0.2772  0.5331
13218TIP3    H161145   2.680   5.915   5.420 -2.0410  0.6074 -1.0887
13218TIP3    H261146   2.532   5.894   5.441 -1.3089 -2.4749  1.7895
13219TIP3   OH261147   5.776   5.272  14.158  0.0041 -0.0463  0.3151
13219TIP3    H161148   5.753   5.253  14.066 -1.7125  1.2466  0.4196
13219TIP3    H261149   5.871   5.264  14.161  0.0396 -0.8149 -1.4094
13220TIP3   OH261150   0.890   2.564   5.733 -0.0237  0.0789  0.2124
13220TIP3    H161151   0.985   2.555   5.722  0.1296  0.3983  1.1763
13220TIP3    H261152   0.855   2.561   5.644  1.0887  2.3480 -0.3570
13221TIP3   OH261153   1.564   5.294   2.513 -0.0979 -0.4937  0.1428
13221TIP3    H161154   1.528   5.381   2.530 -0.2476 -0.2792 -1.2402
13221TIP3    H261155   1.653   5.299   2.549  0.2969  0.6147 -0.9199
13222TIP3   OH261156   0.718   5.135  15.559  0.1608  0.0754 -0.0502
13222TIP3    H161157   0.708   5.209  15.619 -0.0276  0.2485 -0.2945
13222TIP3    H261158   0.643   5.142  15.500 -0.4618 -0.9477  0.6012
13223TIP3   OH261159   3.191   0.168  10.893 -0.1787 -0.5300  0.3172
13223TIP3    H161160   3.134   0.161  10.817  0.1160 -0.7003  0.1101
13223TIP3    H261161   3.242   0.087  10.893  2.8894  1.1656 -1.8024
13224TIP3   OH261162   6.355   2.865  17.022  0.0340 -0.5859 -0.3763
13224TIP3    H161163   6.333   2.929  16.954 -0.8551 -1.2981 -0.7817
13224TIP3    H261164   6.278   2.808  17.026 -0.1809 -0.2249  1.6345
13225TIP3   OH261165   0.207   1.180  16.495 -0.0117  0.2479  0.1123
13225TIP3    H161166   0.233   1.094  16.529 -0.3369  0.2359  0.3273
13225TIP3    H261167   0.266   1.194  16.421  0.3780  0.0596  0.3802
13226TIP3   OH261168   4.611   4.832  15.175 -0.1787  0.4612 -0.8065
13226TIP3    H161169   4.680   4.891  15.145 -0.2009  0.9343  0.0247
13226TIP3    H261170   4.531   4.884  15.171 -0.1914  0.5230 -0.0160
13227TIP3   OH261171   3.343   2.474   3.059 -0.1706 -0.1327 -0.4242
13227TIP3    H161172   3.368   2.382   3.067  0.8415  0.2451  1.2900
13227TIP3    H261173   3.337   2.505   3.150 -1.8168  1.1655 -0.9254
13228TIP3   OH261174   3.600   3.809  14.089 -0.2238  0.0673 -0.0917
13228TIP3    H161175   3.632   3.754  14.161 -1.2869 -0.3240  0.0988
13228TIP3    H261176   3.506   3.817  14.105 -0.0696  2.2248  0.0851
13229TIP3   OH261177   3.003   6.200   1.965 -0.6439  0.0022 -0.1344
13229TIP3    H161178   3.043   6.257   1.899 -0.5352  1.7047  1.3356
13229TIP3    H261179   2.920   6.243   1.986 -0.7338 -0.5756  0.7357
13230TIP3   OH261180   4.825   0.914   4.735 -0.0020 -0.2620  0.2574
13230TIP3    H161181   4.825   0.896   4.641 -2.0327  0.2826  0.1102
13230TIP3    H261182   4.807   0.830   4.776  1.4722 -0.6147  0.2102
13231TIP3   OH261183   1.401   4.429   0.465 -0.0660  0.1300 -0.5437
13231TIP3    H161184   1.401   4.432   0.370  0.2874  1.6604 -0.5241
13231TIP3    H261185   1.327   4.373   0.487 -1.0681  0.9390 -1.7099
13232TIP3   OH261186   5.236   6.150  11.697 -0.3382  0.2118  0.1975
13232TIP3    H161187   5.181   6.225  11.673 -2.9136 -0.7612  2.5491
13232TIP3    H261188   5.286   6.180  11.773 -0.3428 -0.0636  0.3082
13233TIP3   OH261189   4.254   2.678  13.379 -0.2345 -0.0583  0.6780
13233TIP3    H161190   4.202   2.743  13.331  0.3296  0.2281  0.4387
13233TIP3    H261191   4.255   2.601  13.321 -0.5317 -0.1292  0.7629
13234TIP3   OH261192   2.782   3.054   5.096 -0.1489  0.1179  0.3234
13234TIP3    H161193   2.798   3.146   5.079  2.8494 -0.2099  0.6930
13234TIP3    H261194   2.869   3.013   5.087 -0.6503 -2.0716  3.6453
13235TIP3   OH261195   6.492   4.535   6.617  0.2150 -0.2700 -0.2944
13235TIP3    H161196   6.529   4.580   6.541 -1.3154  0.5081 -0.6220
13235TIP3    H261197   6.475   4.604   6.681  0.5618 -0.7893  0.3802
13236TIP3   OH261198   0.777   3.273   5.811 -0.3933 -0.7841 -0.2735
13236TIP3    H161199   0.790   3.317   5.726 -1.7501 -0.7881 -0.4981
13236TIP3    H261200   0.741   3.341   5.868  1.9525 -0.3389  0.8099
13237TIP3   OH261201   4.801   2.503   5.777  0.0027  0.1049 -0.0292
13237TIP3    H161202   4.830   2.548   5.698  0.1925 -0.1610 -0.1082
13237TIP3    H261203   4.714   2.540   5.795 -0.3354 -0.3259 -0.7436
13238TIP3   OH261204   4.337   1.131   1.083  0.1115  0.1247  0.0985
13238TIP3    H161205   4.300   1.043   1.080 -2.7958  1.2639 -0.8561
13238TIP3    H261206   4.358   1.145   1.175  0.3635 -1.4346  0.3118
13239TIP3   OH261207   5.621   2.188  16.003 -0.1253  0.0865  0.5501
13239TIP3    H161208   5.605   2.255  16.070 -2.1826 -0.6394  0.8549
13239TIP3    H261209   5.610   2.105  16.049  1.5170 -0.4982 -0.0341
13240TIP3   OH261210   2.516   3.234   2.686  0.2871 -0.5976 -0.2423
13240TIP3    H161211   2.479   3.250   2.599 -0.7624  0.5232  0.3704
13240TIP3    H261212   2.531   3.139   2.689 -0.9923 -0.8527 -1.1411
13241TIP3   OH261213   6.236   0.043   6.705 -0.0752  0.5078  0.2886
13241TIP3    H161214   6.144   0.019   6.712 -0.3121  0.6706 -1.6614
13241TIP3    H261215   6.283  -0.038   6.721 -0.7143 -0.3619 -1.8861
13242TIP3   OH261216   5.492   5.283   0.119  0.3165 -0.0703 -0.0517
13242TIP3    H161217   5.433   5.345   0.076  0.8965  0.3409 -0.2730
13242TIP3    H261218   5.572   5.333   0.135  0.5845 -0.5987  0.2988
13243TIP3   OH261219   2.294   1.575   2.672 -0.3986 -0.0273  0.1320
13243TIP3    H161220   2.359   1.617   2.728 -0.8679  1.4776 -0.3975
13243TIP3    H261221   2.233   1.533   2.733  0.2942 -0.2830  0.6648
13244TIP3   OH261222   5.889   4.675   6.045 -0.3450  0.5013 -0.1477
13244TIP3    H161223   5.802   4.648   6.014 -0.3154  0.7620 -0.4467
13244TIP3    H261224   5.870   4.739   6.114 -0.3928  0.3682 -0.0340
13245TIP3   OH261225   6.147   1.407  15.059  0.4367  0.7351  0.0781
13245TIP3    H161226   6.211   1.388  14.990  0.8463  0.6269  0.4790
13245TIP3    H261227   6.147   1.328  15.113  0.0483  0.7825  0.1469
13246TIP3   OH261228   2.803   3.158   4.725 -0.3987  0.1960 -0.3384
13246TIP3    H161229   2.739   3.186   4.791 -1.5777 -0.9084 -0.9741
13246TIP3    H261230   2.871   3.225   4.729 -1.5888  1.4341  0.3694
13247TIP3   OH261231   5.545   1.541  16.220 -0.2906 -0.0919  0.1891
13247TIP3    H161232   5.587   1.558  16.304  2.7501 -2.6510 -0.6407
13247TIP3    H261233   5.576   1.611  16.163  1.0268 -0.6409  0.1993
13248TIP3   OH261234   0.775   3.666  16.035 -0.4214  0.1281 -0.6918
13248TIP3    H161235   0.702   3.641  15.979 -1.2969  0.2798  0.3504
13248TIP3    H261236   0.832   3.589  16.037 -0.3679  0.1274 -1.7768
13249TIP3   OH261237   0.739   3.092  16.710  0.0051  0.1706 -0.4276
13249TIP3    H161238   0.683   3.033  16.760  0.7117 -0.0104  0.1639
13249TIP3    H261239   0.717   3.179  16.743  1.8885 -0.0787  1.7141
13250TIP3   OH261240   1.510   0.147   5.183 -0.4134 -0.0519 -0.4860
13250TIP3    H161241   1.423   0.108   5.179 -0.3030 -0.4846  0.7623
13250TIP3    H261242   1.565   0.090   5.129 -0.5635 -0.7738  0.1020
13251TIP3   OH261243   1.500   1.245   0.866 -0.1535 -0.3239 -0.6756
13251TIP3    H161244   1.548   1.163   0.879  0.5226  0.2148  0.3179
13251TIP3    H261245   1.424   1.238   0.924  2.0897  1.4536  2.8038
13252TIP3   OH261246   4.702   5.534   5.556  0.4940 -0.3200  0.1540
13252TIP3    H161247   4.624   5.491   5.592  0.3005 -1.0244 -1.0349
13252TIP3    H261248   4.770   5.466   5.559  1.1192  0.3285  1.2977
13253TIP3   OH261249   3.597   2.956  13.862 -0.2357  0.2273  0.1626
13253TIP3    H161250   3.539   3.025  13.893 -1.3827 -0.9304  0.6815
13253TIP3    H261251   3.576   2.946  13.769 -0.1290  0.4965  0.1082
13254TIP3   OH261252   2.803   3.544   2.940  0.1541  0.2432  0.0372
13254TIP3    H161253   2.803   3.623   2.995  0.6752 -0.3270  0.8858
13254TIP3    H261254   2.781   3.473   3.000  0.7280 -0.3929 -0.4913
13255TIP3   OH261255   0.860   0.632  12.758  0.3368 -0.3096 -0.0227
13255TIP3    H161256   0.901   0.601  12.677 -0.5834 -1.8181  0.0385
13255TIP3    H261257   0.931   0.635  12.822  0.4643 -2.6206  0.0183
13256TIP3   OH261258   5.349   4.217   4.191 -0.1044  0.6740 -0.0763
13256TIP3    H161259   5.314   4.134   4.159  0.3083  1.8484 -4.1079
13256TIP3    H261260   5.271   4.268   4.214 -0.5680  0.3708 -0.9320
13257TIP3   OH261261   6.165   0.564   0.836  0.4722 -0.5068 -0.3788
13257TIP3    H161262   6.149   0.470   0.834 -0.8987 -0.2980  0.0496
13257TIP3    H261263   6.081   0.603   0.816  0.7704  0.6543  0.5216
13258TIP3   OH261264   2.116   1.882  11.718 -0.1820  0.1512 -0.0267
13258TIP3    H161265   2.146   1.898  11.628 -2.6364 -1.3179 -1.2344
13258TIP3    H261266   2.053   1.952  11.734  0.0548  0.2548  0.4394
13259TIP3   OH261267   2.439   5.356  12.713  0.0069  0.0456  0.3949
13259TIP3    H161268   2.365   5.383  12.658 -0.6926 -1.4792  0.5459
13259TIP3    H261269   2.419   5.393  12.800  0.4083  1.2503  0.0012
13260TIP3   OH261270   3.268   2.220  12.872 -0.0824 -0.5269 -0.7042
13260TIP3    H161271   3.248   2.199  12.963  1.0007  0.3510 -0.2491
13260TIP3    H261272   3.186   2.202  12.825 -1.0394  0.1820  0.6315
13261TIP3   OH261273   6.250   4.325  13.297  0.5831  0.0490 -0.6639
13261TIP3    H161274   6.267   4.299  13.387 -2.1491 -0.2300 -0.1433
13261TIP3    H261275   6.201   4.407  13.304 -0.4549 -0.4368 -1.8258
13262TIP3   OH261276   4.114   1.348   5.133  0.4441  0.3688 -0.0116
13262TIP3    H161277   4.101   1.362   5.039  1.7309 -0.7179 -0.3812
13262TIP3    H261278   4.032   1.376   5.173 -0.0214  1.1216 -1.4267
13263TIP3   OH261279   5.611   1.975  11.887 -0.0657  0.0040 -0.3874
13263TIP3    H161280   5.609   1.954  11.794 -0.8918 -0.6033 -0.2429
13263TIP3    H261281   5.532   2.027  11.901 -0.1514 -0.2371  0.0450
13264TIP3   OH261282   6.800   0.172  17.271 -0.1391 -0.2931 -0.4791
13264TIP3    H161283   6.764   0.258  17.249  0.3690 -0.1330 -0.7096
13264TIP3    H261284   6.724   0.115  17.280 -0.7676  0.8770  2.9568
13265TIP3   OH261285   3.425   3.080   1.295 -0.3435 -0.3791  0.6492
13265TIP3    H161286   3.424   3.049   1.386  2.4167  0.5687  1.0930
13265TIP3    H261287   3.421   3.000   1.243 -0.2478 -1.0505  1.6447
13266TIP3   OH261288   1.895   3.712   5.148  0.1529  0.2713  0.3515
13266TIP3    H161289   1.934   3.733   5.063  0.2207  1.6665  0.7008
13266TIP3    H261290   1.804   3.690   5.128 -0.0992  1.5603  0.0053
13267TIP3   OH261291   5.158   3.827  14.852  0.0615  0.1925  0.0271
13267TIP3    H161292   5.129   3.902  14.801 -0.2684 -0.1132 -0.2408
13267TIP3    H261293   5.103   3.754  14.822  0.3880 -0.1607  0.2696
13268TIP3   OH261294   4.087   2.889  15.912 -0.3429  0.2000 -0.0627
13268TIP3    H161295   4.009   2.838  15.935 -0.5311  1.2122  1.7510
13268TIP3    H261296   4.161   2.833  15.939 -0.4116 -0.5903 -1.4187
13269TIP3   OH261297   1.884   6.254  17.265 -0.2460 -0.2372 -0.5385
13269TIP3    H161298   1.930   6.179  17.302  0.3882 -0.5014 -1.7859
13269TIP3    H261299   1.941   6.329  17.284  0.2934 -0.4341 -1.3055
13270TIP3   OH261300   4.679   3.587   1.303 -0.0129  0.4693 -0.1875
13270TIP3    H161301   4.634   3.551   1.380  1.1055  0.1607  0.3369
13270TIP3    H261302   4.617   3.572   1.231 -0.2990 -0.9770  0.3151
13271TIP3   OH261303   5.380   2.618  16.695  0.2445 -0.6382  0.1989
13271TIP3    H161304   5.296   2.664  16.688  0.8189  0.4185  0.0469
13271TIP3    H261305   5.356   2.526  16.703 -0.9886 -0.2548  1.4357
13272TIP3   OH261306   2.455   4.927  16.817  0.3795  0.0572 -0.8883
13272TIP3    H161307   2.492   5.004  16.774  1.9991  0.5530  1.2100
13272TIP3    H261308   2.508   4.916  16.896 -2.3742 -0.7749  1.0018
13273TIP3   OH261309   6.242   1.998   0.830  0.0833  0.2056 -0.3181
13273TIP3    H161310   6.182   2.008   0.904 -1.4495 -0.6557 -1.3653
13273TIP3    H261311   6.309   1.938   0.861 -0.8353 -0.5677  0.2303
13274TIP3   OH261312   2.696   5.983  16.937  0.2356 -0.1690 -0.3892
13274TIP3    H161313   2.685   6.017  17.026 -0.8968 -0.1932 -0.5100
13274TIP3    H261314   2.787   5.954  16.934 -0.3728 -2.5795  1.6243
13275TIP3   OH261315   3.636   0.107  15.178  0.3354 -0.1984 -0.3847
13275TIP3    H161316   3.704   0.120  15.244 -0.8648  2.4216  0.4761
13275TIP3    H261317   3.576   0.180  15.191 -0.4969 -0.1219 -3.7524
13276TIP3   OH261318   2.774   3.957   4.422  0.8370 -0.2754  0.1853
13276TIP3    H161319   2.689   4.000   4.409  0.7866 -0.8080 -1.3907
13276TIP3    H261320   2.814   4.007   4.494 -0.5149  0.4096  0.5093
13277TIP3   OH261321   1.087   1.754  14.722  0.1418 -0.0612  0.0596
13277TIP3    H161322   1.104   1.747  14.628 -2.1802 -1.9929 -0.3211
13277TIP3    H261323   0.994   1.734  14.731 -0.0525  1.5469  2.6654
13278TIP3   OH261324   0.825   3.046  13.965  0.2130  0.2721 -0.0814
13278TIP3    H161325   0.764   3.085  14.028  0.3390 -0.3851  0.4688
13278TIP3    H261326   0.804   3.086  13.882 -0.9026  0.1399  0.1245
13279TIP3   OH261327   2.512   0.059   0.209 -0.5760 -0.1294  0.0570
13279TIP3    H161328   2.540   0.119   0.141 -1.9250 -1.8042 -2.1062
13279TIP3    H261329   2.417   0.053   0.199 -0.4901 -2.7399 -0.0014
13280TIP3   OH261330   0.033   5.409  16.282  0.7870 -0.6502  0.0847
13280TIP3    H161331  -0.002   5.447  16.362  0.4773 -0.1399 -0.2896
13280TIP3    H261332  -0.042   5.367  16.240  0.4279  1.0341 -1.0653
13281TIP3   OH261333   6.103   4.465   3.718  0.2386 -0.1874  0.3620
13281TIP3    H161334   6.178   4.406   3.727 -0.3388 -0.7805  1.5333
13281TIP3    H261335   6.128   4.525   3.648  1.1565 -1.3490 -0.3539
13282TIP3   OH261336   1.920   1.020  13.647 -0.2990 -0.6466 -0.2788
13282TIP3    H161337   1.947   0.935  13.613 -1.4694 -1.6626  1.2320
13282TIP3    H261338   1.955   1.023  13.736 -2.3761 -0.6757  0.5947
13283TIP3   OH261339   4.240   2.155   2.325  0.0447 -0.0433 -0.2072
13283TIP3    H161340   4.261   2.249   2.328  0.7857 -0.2108  0.1808
13283TIP3    H261341   4.238   2.129   2.417 -0.9831 -0.2407 -0.2796
13284TIP3   OH261342   5.591   4.708  10.646  0.2448 -0.0937 -0.4840
13284TIP3    H161343   5.615   4.790  10.691  0.0141 -0.3870  0.1876
13284TIP3    H261344   5.538   4.737  10.571 -2.5894  0.2787  1.4816
13285TIP3   OH261345   6.146   2.255  12.843  0.9470  0.4513  0.0966
13285TIP3    H161346   6.224   2.200  12.852  0.5789  0.1649  1.8860
13285TIP3    H261347   6.106   2.225  12.761  1.0181 -1.6595  0.7685
13286TIP3   OH261348   4.038   4.912   6.788  1.0327 -0.0199 -0.0247
13286TIP3    H161349   3.950   4.930   6.756  1.7195  0.0959 -2.0301
13286TIP3    H261350   4.057   4.824   6.756  0.8113 -1.0392  2.4520
13287TIP3   OH261351   1.462   6.641  14.445 -0.1762 -0.1234  0.5279
13287TIP3    H161352   1.425   6.608  14.364  0.6752 -0.1900  0.1542
13287TIP3    H261353   1.522   6.710  14.418 -0.5663  0.4835  1.1724
13288TIP3   OH261354   0.670   4.479  11.763  0.3421 -1.0774  0.4648
13288TIP3    H161355   0.630   4.452  11.681  1.6088 -0.9650 -0.2041
13288TIP3    H261356   0.600   4.526  11.809 -0.4622 -1.3795 -0.4133
13289TIP3   OH261357   4.275   0.832  13.980 -0.3938  0.8245  0.2047
13289TIP3    H161358   4.207   0.786  14.029 -0.8321  0.5128 -0.6826
13289TIP3    H261359   4.228   0.882  13.913  0.2948 -0.3936 -1.2541
13290TIP3   OH261360   2.921   0.736   0.665 -0.1309  0.1157  0.0358
13290TIP3    H161361   2.889   0.657   0.621 -0.9260  0.7917 -0.6305
13290TIP3    H261362   3.015   0.721   0.676 -0.3032 -1.0185  0.1441
13291TIP3   OH261363   4.478   6.108   3.900  0.2697  0.4650  0.4438
13291TIP3    H161364   4.398   6.057   3.917  1.3764 -0.7364  2.3613
13291TIP3    H261365   4.447   6.199   3.896 -1.3079 -0.0439  0.2177
13292TIP3   OH261366   4.086   0.936   3.231  0.1720 -0.0441  0.1558
13292TIP3    H161367   4.150   0.901   3.293  1.5447  1.3431 -0.4323
13292TIP3    H261368   4.004   0.940   3.282  1.0152  0.0939  1.5652
13293TIP3   OH261369   2.183   6.337  12.707 -0.0776  0.2502  0.1530
13293TIP3    H161370   2.257   6.343  12.647 -0.2394  0.5573 -0.0215
13293TIP3    H261371   2.140   6.254  12.685  0.2061  0.0786  0.2471
13294TIP3   OH261372   5.636   3.225   6.096  0.2192  0.0907  0.2813
13294TIP3    H161373   5.711   3.209   6.153  0.9019  0.8233 -0.3898
13294TIP3    H261374   5.560   3.205   6.151  0.8969 -1.7091  0.6482
13295TIP3   OH261375   1.306   3.499   5.917  0.5591  0.3574  0.4526
13295TIP3    H161376   1.371   3.450   5.866 -0.4887  0.1530 -0.7264
13295TIP3    H261377   1.296   3.448   5.997  0.4248 -0.6839 -0.2071
13296TIP3   OH261378   5.307   6.398  11.415  0.7229 -0.0664  0.4050
13296TIP3    H161379   5.243   6.343  11.461 -1.3764  1.5776 -0.3784
13296TIP3    H261380   5.383   6.400  11.474 -0.1047 -1.6863  1.6244
13297TIP3   OH261381   0.053   3.031   2.123 -0.0922  0.0788  0.0254
13297TIP3    H161382   0.025   3.098   2.185  0.9247  0.4280  0.1400
13297TIP3    H261383  -0.027   3.002   2.080 -0.4862  1.8131 -0.4825
13298TIP3   OH261384   4.712   1.490   4.249  0.0081  0.2978 -0.1662
13298TIP3    H161385   4.776   1.422   4.227  0.4418  0.8199 -0.5515
13298TIP3    H261386   4.645   1.483   4.181 -0.2420 -0.1192  0.1226
13299TIP3   OH261387   3.507   4.630   0.470 -0.1000 -0.2409 -0.4461
13299TIP3    H161388   3.481   4.548   0.512 -0.0726 -0.5517 -1.0191
13299TIP3    H261389   3.477   4.620   0.379 -0.5261  0.5811 -0.4020
13300TIP3   OH261390   1.336   5.132  16.729 -0.5995  0.3718  0.5672
13300TIP3    H161391   1.374   5.062  16.677 -1.0279  2.0576 -2.2325
13300TIP3    H261392   1.408   5.162  16.785 -0.1336 -1.5684  1.0694
13301TIP3   OH261393   6.213   1.659   2.963 -0.5846 -0.1667 -0.1152
13301TIP3    H161394   6.233   1.751   2.944  2.3512 -0.4623  1.0547
13301TIP3    H261395   6.283   1.610   2.920  0.3249 -1.5277  2.7188
13302TIP3   OH261396   5.621   6.013   3.518 -0.1440  0.1282 -0.2568
13302TIP3    H161397   5.640   6.022   3.425  0.2751 -1.0270 -0.2909
13302TIP3    H261398   5.533   6.051   3.528  0.3206  1.4353 -0.8693
13303TIP3   OH261399   3.792   0.849  14.090 -0.4254  0.1978 -0.4141
13303TIP3    H161400   3.740   0.771  14.107 -2.4927  1.2338 -1.5627
13303TIP3    H261401   3.805   0.849  13.995  0.5561  0.6569 -0.2935
13304TIP3   OH261402   1.834   6.425  13.691  0.1973 -0.2154 -0.0139
13304TIP3    H161403   1.863   6.449  13.603 -0.6465 -1.0274 -0.5256
13304TIP3    H261404   1.779   6.499  13.718  0.6525  0.1488 -0.0509
13305TIP3   OH261405   5.452   1.443  12.490 -0.5961 -0.3685  0.3796
13305TIP3    H161406   5.403   1.497  12.552  1.7671  0.8177  1.3288
13305TIP3    H261407   5.423   1.473  12.404 -1.5931  0.2104  0.9050
13306TIP3   OH261408   1.001   3.507   2.497 -0.8924  0.2848  0.1442
13306TIP3    H161409   0.998   3.422   2.452  1.3666  0.2490 -0.0634
13306TIP3    H261410   0.997   3.485   2.590  1.6408 -0.3122  0.1973
13307TIP3   OH261411   0.151   4.247   3.437 -0.2580 -0.9178 -0.0690
13307TIP3    H161412   0.189   4.243   3.525  0.2748  0.0594 -0.2408
13307TIP3    H261413   0.094   4.170   3.432  1.1497 -2.0364  0.4414
13308TIP3   OH261414   0.143   0.968  17.364 -0.5966  0.4150  0.2932
13308TIP3    H161415   0.169   1.028  17.434 -2.6220 -0.3606  1.8039
13308TIP3    H261416   0.189   0.886  17.384  2.3820  1.3752 -1.9192
13309TIP3   OH261417   5.460   0.092  11.252 -0.5468  0.0286  0.1016
13309TIP3    H161418   5.495   0.181  11.249 -0.5914  0.0274 -0.4660
13309TIP3    H261419   5.472   0.058  11.164  0.5428 -0.9602  0.6171
13310TIP3   OH261420   0.379   5.172   5.695  0.5182  0.1269 -0.1005
13310TIP3    H161421   0.400   5.116   5.620  2.3294 -1.3982  1.4399
13310TIP3    H261422   0.341   5.113   5.760  1.1909  0.9132  1.0630
13311TIP3   OH261423   3.571   6.631   2.265 -0.1851  0.0353 -0.3140
13311TIP3    H161424   3.563   6.646   2.171 -0.1422 -0.2027 -0.3574
13311TIP3    H261425   3.621   6.549   2.272  0.3010  0.3478 -0.0783
13312TIP3   OH261426   6.558   0.061  14.846  0.0611 -0.0242 -0.2517
13312TIP3    H161427   6.573  -0.010  14.783 -0.2930 -0.0390 -0.3205
13312TIP3    H261428   6.463   0.069  14.850  0.0706 -0.2796  0.5715
13313TIP3   OH261429   5.857   5.043  14.790 -0.0214  0.3401 -0.1711
13313TIP3    H161430   5.921   4.999  14.735 -1.6038 -0.2354 -1.6519
13313TIP3    H261431   5.798   4.973  14.818 -1.4048  1.1661 -0.8864
13314TIP3   OH261432   3.150   6.088  17.145 -0.0575 -0.0373  0.3853
13314TIP3    H161433   3.211   6.100  17.072  0.4395  0.4008  0.8706
13314TIP3    H261434   3.188   6.017  17.197  0.5434  0.8631  1.1992
13315TIP3   OH261435   1.062   4.153  16.012  0.5161  0.4448 -0.3731
13315TIP3    H161436   1.013   4.182  16.089 -1.5390  0.7035 -1.6906
13315TIP3    H261437   1.070   4.231  15.958 -0.3752 -0.2471 -1.5619
13316TIP3   OH261438   3.390   2.322   0.224 -0.3460 -0.7545 -0.4783
13316TIP3    H161439   3.477   2.351   0.251 -0.0144 -1.8410 -0.3425
13316TIP3    H261440   3.364   2.386   0.158  0.2837 -0.0553 -0.0763
13317TIP3   OH261441   1.131   5.220  15.276 -0.1298  0.3006  1.0086
13317TIP3    H161442   1.189   5.166  15.330 -1.3601  0.3204  2.4346
13317TIP3    H261443   1.142   5.187  15.187 -1.9062 -3.4429  1.9605
13318TIP3   OH261444   2.280   4.493  14.191 -0.6155 -0.2996 -0.5979
13318TIP3    H161445   2.354   4.502  14.131  0.2732 -0.0602  0.5042
13318TIP3    H261446   2.314   4.523  14.275 -1.9895 -0.1418 -0.0797
13319TIP3   OH261447   0.054   3.638  10.455 -0.4218  0.1627 -0.1840
13319TIP3    H161448   0.018   3.714  10.409  0.5523  0.8154  0.0960
13319TIP3    H261449  -0.013   3.571  10.446 -0.8346  0.7064 -1.3872
13320TIP3   OH261450   0.258   2.792   3.199  0.0506  0.2987  0.5460
13320TIP3    H161451   0.213   2.802   3.283  0.2098 -0.3961  0.7262
13320TIP3    H261452   0.219   2.714   3.160  1.0528 -0.3044  0.6915
13321TIP3   OH261453   3.913   4.980  17.322 -0.4732 -0.4090  0.1121
13321TIP3    H161454   3.843   4.930  17.282  0.8571 -0.2940 -2.6177
13321TIP3    H261455   3.967   4.915  17.368 -2.1217 -0.5239  2.0025
13322TIP3   OH261456   6.080   3.039   2.704 -0.0570  0.3489 -0.1565
13322TIP3    H161457   6.069   2.959   2.653  1.7737 -0.3887  0.5356
13322TIP3    H261458   6.025   3.026   2.782  0.1071 -0.1818 -0.1242
13323TIP3   OH261459   3.051   2.572   1.379 -0.2276 -0.4961  0.2467
13323TIP3    H161460   3.082   2.612   1.460 -0.8746  0.4833  0.0219
13323TIP3    H261461   3.131   2.547   1.332  0.1691 -0.1184  0.7161
13324TIP3   OH261462   4.811   0.490  15.209  0.1774 -0.4482  0.2131
13324TIP3    H161463   4.761   0.412  15.186 -2.0393  1.0761 -0.4987
13324TIP3    H261464   4.773   0.520  15.291  1.3059 -0.3551  0.7127
13325TIP3   OH261465   1.719   0.493  14.664  0.3596 -0.0379 -0.0125
13325TIP3    H161466   1.806   0.530  14.646  0.2987  1.1306  1.8780
13325TIP3    H261467   1.681   0.550  14.730 -2.0559 -0.2836 -1.0687
13326TIP3   OH261468   6.676   1.449   3.655  0.2282 -0.0707  0.2155
13326TIP3    H161469   6.661   1.477   3.564  0.2266 -0.3443  0.1294
13326TIP3    H261470   6.735   1.515   3.691  0.2742  0.0102 -0.0039
13327TIP3   OH261471   2.631   6.579  11.649 -0.3441 -0.7299 -0.3715
13327TIP3    H161472   2.541   6.588  11.616 -0.2916  0.6944 -0.1844
13327TIP3    H261473   2.656   6.668  11.674  1.0901 -1.1275 -0.3311
13328TIP3   OH261474   1.279   4.743   4.119  0.3041  0.7433 -0.0698
13328TIP3    H161475   1.280   4.683   4.045 -0.1676  0.0719  0.4484
13328TIP3    H261476   1.187   4.763   4.133  0.1929 -0.5577  1.4172
13329TIP3   OH261477   2.484   3.777  11.852  0.1454  0.4525  0.2606
13329TIP3    H161478   2.510   3.760  11.761 -0.2580 -1.0087  0.3906
13329TIP3    H261479   2.548   3.731  11.905 -1.2617 -1.2003  0.6239
13330TIP3   OH261480   5.083   3.955   0.168  0.3155 -0.0552 -0.2997
13330TIP3    H161481   5.078   4.045   0.200 -2.1696 -0.1059 -0.3525
13330TIP3    H261482   5.064   3.962   0.074 -0.6780 -0.6898 -0.1578
13331TIP3   OH261483   1.437   2.601   1.973  0.2848 -0.5517 -0.0240
13331TIP3    H161484   1.385   2.528   1.939 -1.2753 -0.6011  2.2228
13331TIP3    H261485   1.417   2.674   1.915  0.6021 -1.4651 -1.3380
13332TIP3   OH261486   5.006   6.228  12.041 -0.0190 -0.0207 -0.4345
13332TIP3    H161487   5.069   6.183  12.096 -0.7575 -0.4689  0.0556
13332TIP3    H261488   4.952   6.278  12.102 -0.0094  0.5356 -0.8686
13333TIP3   OH261489   2.817   4.669  11.858 -0.1331 -0.8202 -0.1580
13333TIP3    H161490   2.863   4.669  11.942  0.5695  2.8420 -0.3961
13333TIP3    H261491   2.725   4.681  11.881 -0.1712 -1.5291  0.0965
13334TIP3   OH261492   6.681   4.247  14.209  0.0326 -0.0163 -0.2216
13334TIP3    H161493   6.596   4.213  14.181 -0.2675  1.6012 -1.4250
13334TIP3    H261494   6.668   4.342  14.214  1.8953  0.3212 -0.9459
13335TIP3   OH261495   0.151   3.248   1.743 -0.9181  0.6469  0.1012
13335TIP3    H161496   0.115   3.262   1.830  0.5206  1.0264  0.6569
13335TIP3    H261497   0.242   3.222   1.758 -0.7616  0.3230 -1.2735
13336TIP3   OH261498   1.862   6.559  15.026 -0.0405 -0.1885  0.1513
13336TIP3    H161499   1.895   6.597  15.107 -1.0114  0.9467  0.0430
13336TIP3    H261500   1.768   6.548  15.040  0.1422 -2.3739  0.0753
13337TIP3   OH261501   4.758   6.150  16.087  0.2241 -0.5846  0.9246
13337TIP3    H161502   4.754   6.201  16.006 -0.3027 -0.2040  1.1863
13337TIP3    H261503   4.848   6.118  16.091  0.4804  0.0857  0.6157
13338TIP3   OH261504   5.284   1.959   2.108 -0.3431  0.1505  0.2473
13338TIP3    H161505   5.292   1.875   2.062  0.1956  0.5280 -0.3722
13338TIP3    H261506   5.302   1.938   2.200 -1.1721 -0.5693  0.2500
13339TIP3   OH261507   4.833   5.859  16.216 -0.1659  0.2277  0.0084
13339TIP3    H161508   4.896   5.891  16.280  0.7989 -0.1650 -0.7254
13339TIP3    H261509   4.750   5.857  16.263  0.4660  0.2173  1.1596
13340TIP3   OH261510   3.665   5.729   2.064  0.7970 -0.0441  0.0790
13340TIP3    H161511   3.755   5.760   2.067  1.4366 -1.8647  1.5718
13340TIP3    H261512   3.672   5.638   2.034 -0.5654 -0.1465  0.0056
13341TIP3   OH261513   3.398   1.659   1.107 -0.1161  0.0588  0.4771
13341TIP3    H161514   3.486   1.651   1.069 -0.2540  0.0230  0.1597
13341TIP3    H261515   3.403   1.735   1.164 -0.5424  1.5858 -1.4327
13342TIP3   OH261516   2.249   4.885  11.712 -0.3021  0.2436  0.1098
13342TIP3    H161517   2.174   4.903  11.768  0.0568 -2.3158  1.5592
13342TIP3    H261518   2.214   4.830  11.642  0.2511 -1.5495  1.1725
13343TIP3   OH261519   4.560   0.603  16.692  0.0794  0.0813 -0.0059
13343TIP3    H161520   4.506   0.672  16.731 -0.2307  0.6222 -1.3247
13343TIP3    H261521   4.608   0.565  16.766 -1.3284  0.2754  1.0560
13344TIP3   OH261522   6.548   3.860   3.312 -0.2658 -0.5407  0.1505
13344TIP3    H161523   6.469   3.913   3.303 -0.7263 -1.5020 -1.9034
13344TIP3    H261524   6.606   3.912   3.368 -1.5840  1.0596  0.0824
13345TIP3   OH261525   5.836   2.595   1.414  0.0832  0.0883 -0.0443
13345TIP3    H161526   5.844   2.596   1.319  0.0611  0.4607 -0.0435
13345TIP3    H261527   5.896   2.525   1.442  0.6732  0.4877 -0.2830
13346TIP3   OH261528   1.867   5.636  15.139  0.2722 -0.6102 -0.0400
13346TIP3    H161529   1.795   5.592  15.186 -2.5141 -0.8312 -4.0585
13346TIP3    H261530   1.906   5.568  15.085  1.4914  0.1913 -0.2147
13347TIP3   OH261531   2.491   3.095  16.230  0.3154  0.0231 -0.8201
13347TIP3    H161532   2.564   3.037  16.208  0.9661 -0.5705  2.3617
13347TIP3    H261533   2.532   3.172  16.269 -0.6904  0.9631 -1.5610
13348TIP3   OH261534   0.035   5.059  12.326 -0.0413  0.5746 -0.4148
13348TIP3    H161535  -0.058   5.072  12.306 -0.3820  1.9445  1.7385
13348TIP3    H261536   0.038   5.045  12.420  1.8368 -1.0429 -0.6511
13349TIP3   OH261537   1.156   5.968   1.976  0.8672  0.0141 -0.8190
13349TIP3    H161538   1.132   5.916   1.900  0.8137  0.8005 -1.3481
13349TIP3    H261539   1.230   5.922   2.014  0.3469 -0.8518 -0.8436
13350TIP3   OH261540   6.526   2.434  15.620  0.3160  0.0923 -0.2282
13350TIP3    H161541   6.470   2.468  15.689 -0.6690  1.0373 -1.4429
13350TIP3    H261542   6.505   2.341  15.615  1.7749 -0.4380  1.9594
13351TIP3   OH261543   4.102   1.533   0.058  0.6661 -0.3301  0.2933
13351TIP3    H161544   4.040   1.462   0.044  1.7883 -1.1123 -0.9880
13351TIP3    H261545   4.178   1.509   0.004  1.4309  1.3895  0.5488
13352TIP3   OH261546   6.705   5.918   2.421  0.1092  0.6320  0.0278
13352TIP3    H161547   6.693   5.950   2.510 -1.6832  0.3070 -0.0725
13352TIP3    H261548   6.624   5.939   2.376  1.4414  1.9470 -1.9358
13353TIP3   OH261549   3.558   6.047   3.761  0.3333  0.5643  0.3864
13353TIP3    H161550   3.598   5.974   3.715  1.5771  2.2429 -1.3794
13353TIP3    H261551   3.532   6.011   3.846  0.1742 -2.0704 -0.6978
13354TIP3   OH261552   6.125   3.959   1.249  0.3378 -0.1490 -0.1903
13354TIP3    H161553   6.132   4.053   1.262 -0.9283 -0.2412  1.5603
13354TIP3    H261554   6.195   3.922   1.302  0.8817 -0.1973 -0.9369
13355TIP3   OH261555   0.110   1.490   1.727 -0.1676 -0.3630 -0.6553
13355TIP3    H161556   0.191   1.522   1.766  0.3165  0.4428 -2.2314
13355TIP3    H261557   0.040   1.533   1.777  0.4543  2.1845 -1.8428
13356TIP3   OH261558   1.800   4.929  11.638  0.1229  0.1133  0.2604
13356TIP3    H161559   1.836   4.873  11.570 -0.8649 -0.4651  0.1898
13356TIP3    H261560   1.870   4.936  11.703  1.0855  0.6951 -0.8085
13357TIP3   OH261561   0.882   0.509   4.402  0.2444 -0.2724  0.1088
13357TIP3    H161562   0.836   0.590   4.423 -1.8354 -2.2175  4.0513
13357TIP3    H261563   0.813   0.449   4.376  1.2262 -1.7797  0.8508
13358TIP3   OH261564   2.299   2.918   6.884 -0.5087  0.1611  0.3231
13358TIP3    H161565   2.343   2.979   6.826  0.4113  0.6986  1.5474
13358TIP3    H261566   2.206   2.932   6.867 -0.3650  2.4719  1.0990
13359TIP3   OH261567   6.519   0.255   4.288 -0.5626 -0.0030  0.2627
13359TIP3    H161568   6.611   0.229   4.282  0.2649  2.3100  1.3189
13359TIP3    H261569   6.500   0.251   4.382  0.6208  5.4905  1.1026
13360TIP3   OH261570   6.234   0.751  12.938  0.4645 -0.1260 -0.2348
13360TIP3    H161571   6.273   0.780  13.021  0.2124 -0.3136 -0.0516
13360TIP3    H261572   6.142   0.775  12.945  0.4905  0.0730 -0.5598
13361TIP3   OH261573   6.762   4.972   3.120  1.0597 -0.2676 -0.3024
13361TIP3    H161574   6.788   4.997   3.209  0.6627  2.6750 -0.9380
13361TIP3    H261575   6.792   4.881   3.112  0.0940 -1.0664  3.2052
13362TIP3   OH261576   5.200   0.123  15.187  0.2368  0.0591  0.0158
13362TIP3    H161577   5.248   0.100  15.107  0.2573 -0.8365  0.2769
13362TIP3    H261578   5.108   0.121  15.161  0.3026  1.7730 -0.4852
13363TIP3   OH261579   2.901   2.562  13.922  0.3808  0.0577  0.5164
13363TIP3    H161580   2.966   2.538  13.989  1.4977  0.6499 -0.3147
13363TIP3    H261581   2.851   2.482  13.907  0.7051 -0.3278  1.4180
13364TIP3   OH261582   6.261   0.399  15.271 -0.0853  0.5455 -0.3082
13364TIP3    H161583   6.332   0.463  15.263  0.2217  0.1887 -0.4853
13364TIP3    H261584   6.214   0.405  15.188  0.5053 -0.1083 -0.7040
13365TIP3   OH261585   1.788   3.924   0.625  0.0742  0.5497 -0.1570
13365TIP3    H161586   1.790   3.978   0.546 -1.5367  2.0346  0.7437
13365TIP3    H261587   1.753   3.840   0.595 -1.0262  1.2637 -0.9560
13366TIP3   OH261588   1.388   1.366  15.431  0.4266 -0.2380 -0.6012
13366TIP3    H161589   1.328   1.352  15.505  0.4518 -0.0745 -0.5499
13366TIP3    H261590   1.344   1.325  15.357 -0.1159  0.5590 -0.7334
13367TIP3   OH261591   0.974   3.659   2.034  0.1470 -0.3565  0.0431
13367TIP3    H161592   0.896   3.605   2.024  1.6079 -2.3978 -0.8695
13367TIP3    H261593   1.014   3.661   1.947  1.7571 -0.4039  0.7437
13368TIP3   OH261594   1.891   3.253   1.258  0.2977  0.4285 -0.3488
13368TIP3    H161595   1.910   3.235   1.166  0.0189  0.3648 -0.3945
13368TIP3    H261596   1.796   3.248   1.264  0.3546 -0.1929  0.0761
13369TIP3   OH261597   4.588   6.692   6.191 -0.4510  0.1132 -0.1149
13369TIP3    H161598   4.525   6.754   6.227  0.2333  0.4866  0.4773
13369TIP3    H261599   4.659   6.746   6.157 -0.3238 -0.3075 -0.5411
13370TIP3   OH261600   3.325   5.255  15.841 -0.4824 -0.7458 -0.2368
13370TIP3    H161601   3.359   5.307  15.914 -0.5494  0.7983 -1.2582
13370TIP3    H261602   3.235   5.235  15.865 -0.2325 -1.0540  0.4910
13371TIP3   OH261603   0.791   5.367  14.796 -0.3699  0.2152 -0.2096
13371TIP3    H161604   0.842   5.339  14.720 -0.5112  1.1491 -0.6635
13371TIP3    H261605   0.854   5.373  14.867 -0.3589 -1.3691 -0.0456
13372TIP3   OH261606   3.343   5.875   0.105 -0.1727 -0.3198  0.1119
13372TIP3    H161607   3.316   5.913   0.189 -0.9357 -0.0377 -0.2573
13372TIP3    H261608   3.439   5.880   0.107 -0.2259  2.0392 -0.1066
13373TIP3   OH261609   1.371   5.803   1.518 -0.2729  0.0158 -0.5127
13373TIP3    H161610   1.424   5.775   1.444  0.3557  0.6020 -0.2915
13373TIP3    H261611   1.345   5.893   1.497 -1.1918 -0.2670 -0.6237
13374TIP3   OH261612   5.609   0.830  16.614  0.4847 -0.6281  0.2162
13374TIP3    H161613   5.655   0.909  16.642  0.4193 -0.7822  0.7586
13374TIP3    H261614   5.542   0.862  16.553  1.9151 -0.4914 -1.3761
13375TIP3   OH261615   1.352   4.767   1.447 -0.0919 -0.4608 -0.1951
13375TIP3    H161616   1.348   4.676   1.417 -0.5270  0.0600 -1.8385
13375TIP3    H261617   1.260   4.795   1.447 -0.0462 -0.2527  1.1396
13376TIP3   OH261618   0.189   1.985  13.571  0.6130  0.1543  0.0724
13376TIP3    H161619   0.140   2.017  13.496 -0.3066 -0.8374  0.2174
13376TIP3    H261620   0.270   1.951  13.534 -0.1384 -0.9926 -0.5978
13377TIP3   OH261621   4.727   3.310  16.548  0.2580 -0.4218  0.5902
13377TIP3    H161622   4.634   3.322  16.569 -0.5005  0.5097 -2.6423
13377TIP3    H261623   4.738   3.215  16.542 -0.7261 -0.5199  0.1330
13378TIP3   OH261624   5.654   2.812   5.580  0.7836  0.2727 -0.2122
13378TIP3    H161625   5.573   2.856   5.606  0.2858 -1.4410  1.3242
13378TIP3    H261626   5.629   2.760   5.503 -0.0383 -1.4566  1.1621
13379TIP3   OH261627   3.317   3.047   1.561  0.3247 -0.1668  0.0052
13379TIP3    H161628   3.312   3.113   1.630  1.0995  0.7743 -0.8166
13379TIP3    H261629   3.369   2.976   1.600  1.3847  0.6691  0.1693
13380TIP3   OH261630   3.338   1.365  17.355  0.2833 -0.2388 -0.4202
13380TIP3    H161631   3.262   1.410  17.316 -0.7671 -1.9834 -0.5136
13380TIP3    H261632   3.328   1.378  17.449 -0.3174 -0.7010 -0.4131
13381TIP3   OH261633   5.332   0.281  11.930 -0.1350  0.7708 -0.9035
13381TIP3    H161634   5.344   0.187  11.916 -0.6925  0.5056  0.3030
13381TIP3    H261635   5.238   0.293  11.934 -0.0531  1.2223 -0.0980
13382TIP3   OH261636   5.214   0.850   1.745 -0.3163 -0.1368 -1.1643
13382TIP3    H161637   5.138   0.806   1.784  0.3046 -1.4799 -1.4349
13382TIP3    H261638   5.249   0.905   1.816 -0.6522 -0.6651 -0.5831
13383TIP3   OH261639   4.473   3.168  12.445 -0.5078 -0.0404 -0.4263
13383TIP3    H161640   4.450   3.111  12.372  0.0937  0.8454 -1.3400
13383TIP3    H261641   4.418   3.246  12.434 -0.1859  0.2361 -0.1203
13384TIP3   OH261642   4.032   5.862   4.046 -0.5354 -0.0918  0.4206
13384TIP3    H161643   4.010   5.944   4.001 -0.6619 -0.4200 -0.1164
13384TIP3    H261644   4.116   5.836   4.010 -0.5816 -0.2962  0.4590
13385TIP3   OH261645   4.692   6.395  15.980 -0.0870  0.8931 -0.6429
13385TIP3    H161646   4.606   6.353  15.982  0.5702 -0.4602  0.1167
13385TIP3    H261647   4.686   6.463  16.047 -1.2996  2.4103 -2.1768
13386TIP3   OH261648   3.118   5.383  11.379  0.0888 -0.6161 -0.0455
13386TIP3    H161649   3.188   5.421  11.432 -0.5034 -0.4242  0.6159
13386TIP3    H261650   3.108   5.294  11.413 -0.9793 -0.1677  0.8806
13387TIP3   OH261651   4.673   1.996   1.626 -0.1286 -0.6828 -0.2433
13387TIP3    H161652   4.691   1.912   1.583 -1.2813 -1.6780  1.1285
13387TIP3    H261653   4.744   2.007   1.689  0.0059 -0.6395 -0.4015
13388TIP3   OH261654   1.383   6.571  10.835  0.4950  0.1357 -0.2705
13388TIP3    H161655   1.334   6.538  10.760 -1.3806  0.1250  0.9155
13388TIP3    H261656   1.473   6.541  10.820  0.3541  0.7952 -2.8743
13389TIP3   OH261657   4.195   1.646   2.406 -1.0703 -0.3882 -0.2861
13389TIP3    H161658   4.169   1.724   2.357 -0.9080 -0.5331 -0.6050
13389TIP3    H261659   4.284   1.664   2.435 -0.9127 -0.5887 -0.6406
13390TIP3   OH261660   0.282   0.390  12.732 -0.4238 -0.0390  0.0746
13390TIP3    H161661   0.294   0.350  12.646 -0.6688  0.6239 -0.2814
13390TIP3    H261662   0.352   0.354  12.786  0.4212  0.3811 -0.7178
13391TIP3   OH261663   1.415   5.876  16.897 -0.9081 -0.4652  0.3351
13391TIP3    H161664   1.391   5.953  16.845  0.5825  0.8051  1.4189
13391TIP3    H261665   1.332   5.840  16.928 -1.6140  2.3576  2.0803
13392TIP3   OH261666   0.769   2.013   4.823 -0.3005 -0.0999  0.0175
13392TIP3    H161667   0.758   2.108   4.828 -0.1175 -0.0833  0.0822
13392TIP3    H261668   0.721   1.988   4.744 -1.6872 -0.1422  0.8267
13393TIP3   OH261669   0.118   2.437   4.891 -0.1967  0.2854  0.0865
13393TIP3    H161670   0.162   2.516   4.922  1.1561 -0.2927 -0.2734
13393TIP3    H261671   0.144   2.369   4.954  1.1496 -0.5113 -1.2640
13394TIP3   OH261672   5.080   0.183  16.984 -0.5186 -0.4103 -0.1509
13394TIP3    H161673   5.005   0.158  17.038 -1.0627  1.3368 -0.0357
13394TIP3    H261674   5.099   0.273  17.009  0.6464 -0.3031 -1.2940
13395TIP3   OH261675   2.842   4.696   2.148  0.0722  0.1169 -0.3239
13395TIP3    H161676   2.788   4.769   2.116 -0.2294 -0.7621 -1.8900
13395TIP3    H261677   2.902   4.677   2.077  1.3836 -0.0030  0.7768
13396TIP3   OH261678   0.337   3.607   3.606  0.0063  0.3226  0.0097
13396TIP3    H161679   0.318   3.517   3.635  0.7935 -0.2902 -1.2802
13396TIP3    H261680   0.377   3.596   3.520 -0.0175  1.9384 -0.2306
13397TIP3   OH261681   1.911   4.690  16.121  0.2480 -0.6179 -0.1487
13397TIP3    H161682   1.933   4.743  16.198 -0.8369 -1.1211  0.5279
13397TIP3    H261683   1.996   4.663  16.085  0.9433  2.5521 -1.2594
13398TIP3   OH261684   1.061   0.251   3.487  0.7226 -0.9436 -0.6937
13398TIP3    H161685   1.035   0.256   3.579  2.1576 -2.7353 -0.1126
13398TIP3    H261686   0.982   0.272   3.438 -0.5666 -1.6768  0.9625
13399TIP3   OH261687   3.778   1.822  11.952  0.2230 -0.0354 -0.1106
13399TIP3    H161688   3.793   1.905  11.907  1.2042 -0.6817 -1.0362
13399TIP3    H261689   3.682   1.813  11.955  0.0744  1.5131  0.7957
13400TIP3   OH261690   3.507   3.632  16.537 -0.1871  0.1625 -0.2916
13400TIP3    H161691   3.459   3.553  16.560  0.8182  0.0194  1.4988
13400TIP3    H261692   3.587   3.628  16.590  1.5918  0.6380 -2.7442
13401TIP3   OH261693   5.733   5.105  10.492  0.1385  0.3289  0.0789
13401TIP3    H161694   5.668   5.036  10.477  0.9087 -0.0761 -1.6549
13401TIP3    H261695   5.689   5.167  10.550 -1.3041 -0.5932  0.0277
13402TIP3   OH261696   0.434   2.363   3.341 -0.1537 -0.0694  0.2574
13402TIP3    H161697   0.347   2.384   3.307 -0.1562 -1.5390 -0.7234
13402TIP3    H261698   0.434   2.267   3.350  1.2016 -0.0493  0.7052
13403TIP3   OH261699   0.492   0.775   1.277  0.2270  0.4920 -0.5554
13403TIP3    H161700   0.477   0.817   1.193  0.9521  1.2544 -0.3148
13403TIP3    H261701   0.452   0.835   1.341 -1.0492 -0.4746 -0.3978
13404TIP3   OH261702   5.288   1.694  11.545  0.3524  0.0340  0.1838
13404TIP3    H161703   5.195   1.676  11.536  0.2639 -0.3894  1.6549
13404TIP3    H261704   5.309   1.751  11.471 -0.5678 -1.6754 -1.4574
13405TIP3   OH261705   2.943   0.739   3.689  0.0344  0.1995  0.6495
13405TIP3    H161706   2.918   0.733   3.597  1.1871 -0.8977  0.3730
13405TIP3    H261707   2.862   0.762   3.735 -0.2051  2.6040 -0.8069
13406TIP3   OH261708   3.456   4.697  11.768  0.3165  0.2077  0.4742
13406TIP3    H161709   3.384   4.757  11.750  1.4056  1.3455 -0.2712
13406TIP3    H261710   3.434   4.657  11.852 -0.8536  1.0111  0.5713
13407TIP3   OH261711   2.912   6.238   3.945  0.6705  0.1193 -0.0276
13407TIP3    H161712   2.854   6.254   3.870  0.3845  0.1381  0.1954
13407TIP3    H261713   2.982   6.183   3.909  1.1679  1.0926 -0.5808
13408TIP3   OH261714   0.550   4.682  13.458  0.1874 -0.2040  0.2355
13408TIP3    H161715   0.491   4.736  13.510  1.4409 -1.3984  3.0932
13408TIP3    H261716   0.492   4.628  13.404 -1.3670 -0.8677  2.4496
13409TIP3   OH261717   3.476   1.935  15.761 -0.0468 -0.0880 -0.5935
13409TIP3    H161718   3.566   1.900  15.758 -0.0980 -0.2380 -0.3969
13409TIP3    H261719   3.483   2.022  15.721  1.4280  2.6009  4.5635
13410TIP3   OH261720   4.225   4.135  13.339  0.6391 -0.2467 -0.4483
13410TIP3    H161721   4.168   4.158  13.413  1.4570  1.2344 -0.2443
13410TIP3    H261722   4.313   4.161  13.367  1.2129 -1.1640 -1.3261
13411TIP3   OH261723   3.364   2.457  11.149  0.3921 -0.1727 -0.6503
13411TIP3    H161724   3.355   2.400  11.073 -1.6171 -1.4413  0.4552
13411TIP3    H261725   3.285   2.512  11.147  0.3825 -0.1363  0.4270
13412TIP3   OH261726   0.226   4.099   1.737  0.0843  0.0005  0.1098
13412TIP3    H161727   0.137   4.084   1.706  0.5073  0.7559 -1.5631
13412TIP3    H261728   0.239   4.193   1.730  0.5497  0.0781  1.7007
13413TIP3   OH261729   6.231   4.270  14.104  0.0465 -0.6520  1.2446
13413TIP3    H161730   6.158   4.247  14.047  0.2151 -1.9243  1.5120
13413TIP3    H261731   6.221   4.364  14.119 -1.1872 -0.6932  0.8034
13414TIP3   OH261732   3.908   4.869  17.010 -0.2579  0.0626 -0.3403
13414TIP3    H161733   3.825   4.828  17.036 -1.8662  2.2227 -1.7476
13414TIP3    H261734   3.907   4.866  16.915  1.5520 -0.2625 -0.3756
13415TIP3   OH261735   2.656   3.652  12.008 -0.5427 -0.6118  0.2835
13415TIP3    H161736   2.747   3.663  11.982 -0.5971  0.5498  0.5155
13415TIP3    H261737   2.660   3.613  12.096 -0.3313 -2.5063 -0.5118
13416TIP3   OH261738   2.373   4.766   1.983  0.1379  0.1308 -0.3363
13416TIP3    H161739   2.431   4.708   1.934 -2.0181 -2.2899 -0.2307
13416TIP3    H261740   2.306   4.791   1.920  0.2147  1.3268  0.0353
13417TIP3   OH261741   4.867   6.394   4.787  0.3966  0.6667 -0.3438
13417TIP3    H161742   4.864   6.478   4.831  1.3383 -0.4381  2.0259
13417TIP3    H261743   4.783   6.353   4.807  0.5576  0.4279 -0.1488
13418TIP3   OH261744   4.631   5.552   1.626  0.1015 -0.1861 -0.1718
13418TIP3    H161745   4.544   5.512   1.621  0.4242 -0.8299 -0.6917
13418TIP3    H261746   4.625   5.629   1.569  1.0618 -2.4976 -3.7502
13419TIP3   OH261747   2.473   5.366   2.776  0.0961 -0.1812 -0.1610
13419TIP3    H161748   2.484   5.395   2.685  0.3644  0.6116  0.1166
13419TIP3    H261749   2.403   5.421   2.811  0.0629 -0.4155  0.1436
13420TIP3   OH261750   4.051   4.031  12.016 -0.0868  0.5066  0.1747
13420TIP3    H161751   4.113   3.965  11.987 -0.8122  0.0950 -0.4782
13420TIP3    H261752   4.083   4.113  11.978  0.9785  0.5961  1.2301
13421TIP3   OH261753   3.965   1.342  11.610  0.3162  0.2044 -0.0153
13421TIP3    H161754   3.914   1.358  11.531  1.0966  0.6007 -0.4582
13421TIP3    H261755   3.944   1.252  11.635  0.8095 -0.2778 -1.2594
13422TIP3   OH261756   5.417   4.844  13.100  0.5628 -0.1764 -0.1605
13422TIP3    H161757   5.361   4.876  13.029  2.4911  3.0180 -0.4125
13422TIP3    H261758   5.376   4.880  13.180  1.1863  0.5943 -0.1774
13423TIP3   OH261759   3.554   3.982  15.933  0.1856  0.8746  0.2798
13423TIP3    H161760   3.497   4.017  15.865  0.5421  1.2316  0.1552
13423TIP3    H261761   3.642   3.987  15.895  0.4926  1.8588  1.0673
13424TIP3   OH261762   6.574   2.022   1.774 -0.0342 -0.5431 -0.5112
13424TIP3    H161763   6.482   2.035   1.795  0.3059  1.2312  0.0476
13424TIP3    H261764   6.574   1.966   1.697 -1.5071 -2.1751  0.5950
13425TIP3   OH261765   1.934   6.459   2.197 -0.6084  0.2220  0.5526
13425TIP3    H161766   1.915   6.377   2.243 -0.2280 -1.4047 -2.0201
13425TIP3    H261767   1.873   6.460   2.123  0.1728  1.7006 -0.1284
13426TIP3   OH261768   3.622   4.942  11.854  0.3408 -0.1454 -0.5229
13426TIP3    H161769   3.697   4.893  11.889 -0.1300  0.1858  1.0052
13426TIP3    H261770   3.553   4.876  11.844 -0.0232  0.0245  0.7215
13427TIP3   OH261771   5.300   2.141  17.085  0.0273  0.3526 -0.0485
13427TIP3    H161772   5.296   2.046  17.092 -1.0699  0.4697  1.2571
13427TIP3    H261773   5.385   2.164  17.124  0.5983 -0.1061 -0.9721
13428TIP3   OH261774   2.732   6.039  15.272  0.1554  0.9502  1.5939
13428TIP3    H161775   2.809   6.020  15.326  1.1271 -0.1611 -0.1114
13428TIP3    H261776   2.720   5.960  15.219 -1.3161  1.6656  0.8078
13429TIP3   OH261777   4.673   1.691   5.329  0.2972  0.3810  0.7002
13429TIP3    H161778   4.737   1.718   5.263 -0.3663 -1.0323 -0.5752
13429TIP3    H261779   4.619   1.768   5.342  1.7519  1.3667  1.2489
13430TIP3   OH261780   0.492   1.481  14.487  0.0929 -0.0556 -0.1385
13430TIP3    H161781   0.536   1.397  14.472  1.3425  0.3821  0.8327
13430TIP3    H261782   0.465   1.477  14.579 -1.0146  0.1039 -0.4433
13431TIP3   OH261783   2.418   5.244  13.383  0.0258 -0.1147  0.3725
13431TIP3    H161784   2.450   5.158  13.356 -0.7246 -0.2833  0.0047
13431TIP3    H261785   2.374   5.280  13.306  0.9264  0.9083  0.3076
13432TIP3   OH261786   2.837   4.836   1.332  0.3721  0.2736  0.2207
13432TIP3    H161787   2.742   4.822   1.324  0.4363  0.8831 -2.7024
13432TIP3    H261788   2.870   4.752   1.365 -1.1984  0.3345  2.2103
13433TIP3   OH261789   2.284   4.707  10.444 -0.0024  0.1656  0.0612
13433TIP3    H161790   2.226   4.638  10.414  0.8837  0.1439 -1.7526
13433TIP3    H261791   2.229   4.785  10.449 -1.2060 -0.7590  2.9442
13434TIP3   OH261792   2.192   5.095  16.111  0.3450  0.0707 -0.2784
13434TIP3    H161793   2.185   5.160  16.180 -0.7176 -0.6057  0.2689
13434TIP3    H261794   2.185   5.011  16.156  0.4323 -0.3997 -1.1205
13435TIP3   OH261795   1.313   2.225   5.128  0.4987 -0.6416  0.3488
13435TIP3    H161796   1.291   2.138   5.162  0.0431 -0.9169 -0.5966
13435TIP3    H261797   1.365   2.266   5.197 -1.0438 -0.8637  1.7208
13436TIP3   OH261798   3.552   5.187  14.104 -0.2377  0.1734 -0.2395
13436TIP3    H161799   3.647   5.187  14.091  0.0191  3.4625  0.6775
13436TIP3    H261800   3.537   5.117  14.168  1.5206 -0.4997 -0.4984
13437TIP3   OH261801   0.394   4.570   4.204 -0.6246  0.3371 -0.5949
13437TIP3    H161802   0.337   4.523   4.143 -2.7011  0.6614  0.9705
13437TIP3    H261803   0.370   4.662   4.194  1.7070  0.8964 -1.9074
13438TIP3   OH261804   1.215   1.461   5.233 -0.2599  0.9122  0.5329
13438TIP3    H161805   1.187   1.370   5.228  0.8802  0.5562  0.3992
13438TIP3    H261806   1.241   1.484   5.144  0.0538  1.1637  0.6844
13439TIP3   OH261807   2.843   1.977  16.888 -0.1444 -0.4070 -0.0296
13439TIP3    H161808   2.805   1.925  16.959  0.5630 -2.4526 -1.0496
13439TIP3    H261809   2.768   2.008  16.838 -0.7394  2.1989  2.2428
13440TIP3   OH261810   2.385   4.643   1.604  0.1428 -0.5072  0.1936
13440TIP3    H161811   2.423   4.582   1.667  0.4895  0.3001  0.7944
13440TIP3    H261812   2.292   4.619   1.600  0.6072 -2.2124 -0.9573
13441TIP3   OH261813   2.792   3.672   4.916 -0.5734 -0.1400  0.6126
13441TIP3    H161814   2.867   3.625   4.953  0.5346  0.1632 -1.1164
13441TIP3    H261815   2.830   3.724   4.844 -2.5045 -0.3706 -0.6383
13442TIP3   OH261816   0.657   6.644   5.530  0.3502  0.4092 -0.0715
13442TIP3    H161817   0.723   6.577   5.547  1.2782  0.8844 -1.6495
13442TIP3    H261818   0.691   6.694   5.456 -1.0970  1.5966  0.0149
13443TIP3   OH261819   6.341   2.611   2.845 -0.2076  0.5934  0.1239
13443TIP3    H161820   6.427   2.571   2.855 -0.3283  0.3131  0.0756
13443TIP3    H261821   6.358   2.699   2.811  0.3009  2.0035  3.6465
13444TIP3   OH261822   5.151   6.702  15.369 -0.1030 -0.0500 -0.7027
13444TIP3    H161823   5.225   6.672  15.423 -1.6399  0.5384  1.8936
13444TIP3    H261824   5.131   6.627  15.312  1.7429 -0.6189 -0.6838
13445TIP3   OH261825   3.044   2.374  16.599 -0.0440  0.0957  0.4534
13445TIP3    H161826   3.023   2.332  16.683  1.1397 -1.6190 -0.0617
13445TIP3    H261827   2.995   2.323  16.534  2.2018 -1.2398 -0.2938
13446TIP3   OH261828   2.399   3.151  13.132  0.2120  0.0148  0.6349
13446TIP3    H161829   2.430   3.141  13.222  1.4216 -0.1365  0.2233
13446TIP3    H261830   2.362   3.239  13.130 -0.2127 -0.1314  1.3771
13447TIP3   OH261831   6.167   3.499  10.788 -0.0019 -0.1559  0.2178
13447TIP3    H161832   6.227   3.431  10.820 -0.3702 -1.1043 -1.0385
13447TIP3    H261833   6.169   3.490  10.693  0.0150  1.6872  0.0105
13448TIP3   OH261834   2.088   0.084   4.317 -0.1670  0.1475 -0.4341
13448TIP3    H161835   2.125   0.111   4.233 -0.7139 -0.9256 -1.0524
13448TIP3    H261836   1.996   0.067   4.297 -0.0985 -0.9911  0.1666
13449TIP3   OH261837   6.046   4.218   5.560  0.1037  0.4640 -0.1185
13449TIP3    H161838   5.956   4.247   5.577 -0.2776  0.7774 -2.3253
13449TIP3    H261839   6.082   4.286   5.503  1.8978  0.5088  0.9753
13450TIP3   OH261840   0.116   5.952  14.965 -0.0549  0.1125 -0.4428
13450TIP3    H161841   0.116   6.017  15.036  1.0286 -0.8845  0.5183
13450TIP3    H261842   0.059   5.990  14.898 -1.4254  0.9356  1.0994
13451TIP3   OH261843   2.393   0.374  13.658 -0.5820  0.1062  0.6678
13451TIP3    H161844   2.319   0.370  13.597 -2.3422 -2.0382  2.7363
13451TIP3    H261845   2.459   0.426  13.613 -2.9628  1.2727 -1.7137
13452TIP3   OH261846   6.649   5.123   4.956 -0.5374 -0.1479  0.6459
13452TIP3    H161847   6.713   5.138   4.887 -0.1829 -0.0050  1.0042
13452TIP3    H261848   6.580   5.072   4.913 -0.0840 -0.4919  0.3112
13453TIP3   OH261849   3.127   6.172  16.024  0.7726  0.1958 -0.3368
13453TIP3    H161850   3.140   6.091  16.075 -0.5197  1.2949  1.8721
13453TIP3    H261851   3.034   6.193  16.036  0.8727  1.5222 -1.6683
13454TIP3   OH261852   4.367   3.827   1.630  0.7452 -0.3202 -0.1514
13454TIP3    H161853   4.311   3.759   1.667  0.5213 -0.2589 -0.3780
13454TIP3    H261854   4.419   3.858   1.704  2.2168 -2.0568 -0.3908
13455TIP3   OH261855   0.280   3.996   0.759 -0.9630 -0.0922  0.8816
13455TIP3    H161856   0.263   3.927   0.824 -0.2153 -2.6912 -1.4683
13455TIP3    H261857   0.194   4.022   0.728 -1.2369 -0.4263  1.3529
13456TIP3   OH261858   3.334   1.105  12.603 -0.2542 -0.5713 -0.6750
13456TIP3    H161859   3.352   1.025  12.554  0.6824 -1.2465  0.7184
13456TIP3    H261860   3.276   1.078  12.673 -0.1786  0.0341 -0.3711
13457TIP3   OH261861   2.556   3.652   3.213 -0.1721 -0.0242 -0.2280
13457TIP3    H161862   2.499   3.725   3.190  0.9940  1.0320  0.1605
13457TIP3    H261863   2.496   3.587   3.252 -1.3593  0.3014 -1.4251
13458TIP3   OH261864   0.219   4.899  13.877 -0.5270 -0.3091  0.6922
13458TIP3    H161865   0.242   4.982  13.919 -1.0397 -0.5733  1.4981
13458TIP3    H261866   0.298   4.845  13.886 -0.3480 -0.0737  0.5568
13459TIP3   OH261867   4.518   1.715   0.785  0.2169  0.1308  0.0676
13459TIP3    H161868   4.438   1.722   0.733 -0.8803  0.6763  1.7525
13459TIP3    H261869   4.535   1.804   0.816  1.4775  0.0223 -0.2499
13460TIP3   OH261870   4.616   0.159  13.861  0.0857  0.2178 -0.7496
13460TIP3    H161871   4.703   0.192  13.884 -0.3290  2.0286 -1.5872
13460TIP3    H261872   4.605   0.182  13.769 -1.2579 -0.0394 -0.6720
13461TIP3   OH261873   6.179   1.410  15.859 -0.7392 -0.7343 -0.5737
13461TIP3    H161874   6.127   1.377  15.932 -0.9724 -1.6190 -1.1249
13461TIP3    H261875   6.146   1.499  15.844 -0.7825 -0.5966  0.2967
13462TIP3   OH261876   1.226   5.403   5.386  0.1940 -0.4969  0.7500
13462TIP3    H161877   1.151   5.382   5.442  1.3206 -0.5500  2.3007
13462TIP3    H261878   1.268   5.319   5.371  1.2060 -0.2122  1.8087
13463TIP3   OH261879   0.728   4.395   2.709 -0.3670  0.0751 -0.0556
13463TIP3    H161880   0.719   4.468   2.770 -0.3993  1.2133 -1.3693
13463TIP3    H261881   0.821   4.393   2.686  0.2491 -2.1680  2.1119
13464TIP3   OH261882   0.277   6.014  11.847 -0.4441  0.6314 -0.0843
13464TIP3    H161883   0.336   6.089  11.840 -0.2606  0.4929 -0.0531
13464TIP3    H261884   0.194   6.050  11.876 -0.2025  0.7561  0.4658
13465TIP3   OH261885   2.215   1.548   1.927 -0.0184  0.0760 -0.4496
13465TIP3    H161886   2.266   1.468   1.932  1.9231  1.1209 -1.9077
13465TIP3    H261887   2.229   1.592   2.011 -1.1682 -1.0809  0.3926
13466TIP3   OH261888   0.932   0.551   5.271  0.2245  0.1018 -0.0717
13466TIP3    H161889   0.955   0.596   5.353  1.3268 -0.8821  0.1821
13466TIP3    H261890   0.996   0.585   5.208 -0.8874  1.1772 -0.6617
13467TIP3   OH261891   4.303   1.980   6.399 -0.0653  0.0497 -0.0011
13467TIP3    H161892   4.394   1.972   6.427 -0.4116  1.9321  1.8994
13467TIP3    H261893   4.308   1.984   6.303  1.9442  1.1354  0.0995
13468TIP3   OH261894   1.491   3.106  16.547  0.3267 -0.1405 -0.3391
13468TIP3    H161895   1.481   3.080  16.456 -0.0862  0.7606 -0.5565
13468TIP3    H261896   1.422   3.058  16.593 -0.1271  0.1976 -0.6617
13469TIP3   OH261897   4.727   0.716  10.224 -0.4432  0.2212  0.2080
13469TIP3    H161898   4.747   0.726  10.317 -1.2327 -1.0956  0.5498
13469TIP3    H261899   4.731   0.621  10.209 -1.8499  0.2830 -0.7403
13470TIP3   OH261900   4.260   1.875   3.044  1.0497  0.3016  0.1785
13470TIP3    H161901   4.186   1.850   2.989  1.3138  0.7682 -0.4016
13470TIP3    H261902   4.325   1.806   3.032  1.0931  0.3864 -0.0693
13471TIP3   OH261903   3.923   6.264  11.820 -0.0807  0.0100 -0.1573
13471TIP3    H161904   3.901   6.355  11.840  2.1057  0.3847  0.7980
13471TIP3    H261905   3.841   6.227  11.787 -1.3688  1.9642  0.6222
13472TIP3   OH261906   6.106   4.747   3.155 -0.0377  0.4520 -0.4450
13472TIP3    H161907   6.200   4.733   3.146  0.1732 -0.5809  2.2112
13472TIP3    H261908   6.067   4.665   3.127 -0.0692  0.5396 -0.6552
13473TIP3   OH261909   2.075   3.980   3.224 -0.4924  0.3979  0.3144
13473TIP3    H161910   2.005   3.993   3.161 -1.6554 -0.9320  1.2660
13473TIP3    H261911   2.053   3.898   3.268  2.0796 -0.5113  0.1164
13474TIP3   OH261912   3.639   5.340  12.472  0.7748 -0.0419  0.1008
13474TIP3    H161913   3.596   5.311  12.391  1.6565  1.8087 -1.0958
13474TIP3    H261914   3.572   5.392  12.517  0.2593 -1.1328  0.6435
13475TIP3   OH261915   3.278   3.118   3.710 -0.2183  0.1131 -0.0196
13475TIP3    H161916   3.208   3.058   3.685 -0.8096  0.2602  1.2160
13475TIP3    H261917   3.316   3.080   3.789  2.0062 -0.6594 -1.3463
13476TIP3   OH261918   4.579   0.403  16.156 -0.3558 -0.0278  0.0818
13476TIP3    H161919   4.627   0.396  16.239  0.0475 -2.4754 -0.3091
13476TIP3    H261920   4.528   0.322  16.150  0.0449 -0.1659 -2.3209
13477TIP3   OH261921   3.504   6.349  13.682  0.2979  0.0281 -0.5689
13477TIP3    H161922   3.502   6.349  13.586  0.4606  0.7705 -0.5818
13477TIP3    H261923   3.456   6.270  13.708  1.4291 -0.9265 -1.2787
13478TIP3   OH261924   5.662   4.481  14.813  0.1421  0.7433  0.4197
13478TIP3    H161925   5.616   4.507  14.893  0.5402  0.7794  0.6449
13478TIP3    H261926   5.652   4.386  14.810  0.1525  0.7376  0.5331
13479TIP3   OH261927   6.127   6.186  13.591 -0.1475  0.0722  0.0657
13479TIP3    H161928   6.154   6.276  13.607 -1.8566  0.3846  1.4040
13479TIP3    H261929   6.171   6.162  13.509 -1.6965  3.0080 -1.7942
13480TIP3   OH261930   6.622   5.989   1.341  0.1282 -0.2538 -0.7199
13480TIP3    H161931   6.539   5.968   1.384  0.2174  0.5453 -0.1247
13480TIP3    H261932   6.600   6.062   1.282  0.8472  1.6545  1.2502
13481TIP3   OH261933   0.327   2.179   6.053 -0.1624 -0.1321  0.3916
13481TIP3    H161934   0.401   2.160   5.996 -0.9130  0.0208 -0.6624
13481TIP3    H261935   0.287   2.258   6.016 -0.0449  0.6112  1.7617
13482TIP3   OH261936   5.967   0.263   1.696  0.3583 -0.1202 -0.2216
13482TIP3    H161937   6.022   0.244   1.620 -0.0912 -2.8355  0.0401
13482TIP3    H261938   6.028   0.272   1.769  0.5693 -2.1353 -0.1115
13483TIP3   OH261939   3.295   5.256   1.280  0.1964 -0.1254  0.1796
13483TIP3    H161940   3.322   5.174   1.238 -0.7083 -0.7010  0.6830
13483TIP3    H261941   3.328   5.325   1.222  2.7382 -0.7500  0.7527
13484TIP3   OH261942   2.334   6.466   0.336 -0.2184 -0.2232 -0.1585
13484TIP3    H161943   2.380   6.394   0.294 -0.8848 -1.0558  0.5022
13484TIP3    H261944   2.402   6.529   0.358  0.1603  0.2522 -2.4558
13485TIP3   OH261945   6.740   1.293   3.936 -0.0330 -0.0541  0.0020
13485TIP3    H161946   6.653   1.256   3.924  0.5368 -1.3187 -0.3327
13485TIP3    H261947   6.745   1.365   3.873 -0.6592 -0.2837 -0.3084
13486TIP3   OH261948   3.421   4.184  14.186  0.7270 -0.2444 -0.6424
13486TIP3    H161949   3.515   4.174  14.175  1.2817  3.6170 -0.7770
13486TIP3    H261950   3.407   4.183  14.280  1.2727  1.1792 -0.5218
13487TIP3   OH261951   3.941   3.457  16.978  0.3939  0.4767 -0.1818
13487TIP3    H161952   3.948   3.545  16.942  0.5787  0.6961  0.3712
13487TIP3    H261953   3.992   3.402  16.918 -1.1891  0.4179 -1.5305
13488TIP3   OH261954   5.019   0.426   2.609 -0.1585 -0.1144 -0.0690
13488TIP3    H161955   5.080   0.364   2.649 -0.0147 -1.4629 -2.2456
13488TIP3    H261956   4.937   0.378   2.600 -0.8136  0.8609  0.4955
13489TIP3   OH261957   3.468   6.233   2.505  0.1694  0.1339 -0.5294
13489TIP3    H161958   3.479   6.176   2.581  0.1084  0.2815 -0.4097
13489TIP3    H261959   3.429   6.177   2.438  2.7903 -0.8016 -1.4146
13490TIP3   OH261960   3.107   3.077   4.155  0.1383  0.1208 -0.2190
13490TIP3    H161961   3.167   3.142   4.118  1.0695  0.6924  2.1292
13490TIP3    H261962   3.154   3.041   4.230 -1.4304 -1.3542  0.1204
13491TIP3   OH261963   0.791   5.488  16.527 -0.0221  0.7970 -0.0268
13491TIP3    H161964   0.733   5.440  16.467 -2.1923  5.0895 -1.8507
13491TIP3    H261965   0.739   5.500  16.606  0.4565  0.3160  0.3675
13492TIP3   OH261966   3.499   5.386  13.086 -0.2825  0.3316  0.0302
13492TIP3    H161967   3.546   5.383  13.003 -0.3822 -0.3648 -0.0057
13492TIP3    H261968   3.510   5.476  13.117 -0.9991  0.8502 -1.1609
13493TIP3   OH261969   2.221   5.567  13.543  0.5445 -0.0466  0.7126
13493TIP3    H161970   2.144   5.532  13.499  0.8672 -0.1504  0.2284
13493TIP3    H261971   2.193   5.653  13.575  0.7337  0.6970 -1.0104
13494TIP3   OH261972   5.848   4.918  11.680 -0.2102  0.4100 -0.1210
13494TIP3    H161973   5.903   4.992  11.705  0.1402  1.2838 -3.0359
13494TIP3    H261974   5.909   4.852  11.647 -0.6720 -0.1264  0.0829
13495TIP3   OH261975   0.434   4.535  15.245  0.1022  0.0626 -0.2215
13495TIP3    H161976   0.377   4.591  15.297 -0.4183 -0.1305 -0.5761
13495TIP3    H261977   0.388   4.451  15.240  0.2381  0.0159 -0.8140
13496TIP3   OH261978   0.110   0.796  15.376  0.1591 -0.3128  0.4331
13496TIP3    H161979   0.143   0.851  15.448  0.1784  0.4395 -0.1352
13496TIP3    H261980   0.136   0.707  15.401  1.5017  0.0996  0.6324
13497TIP3   OH261981   0.500   6.397   5.401 -0.3647  0.1085  0.4385
13497TIP3    H161982   0.551   6.478   5.399 -0.5614  0.2293  0.3425
13497TIP3    H261983   0.526   6.355   5.483 -1.3733  0.9768  1.2225
13498TIP3   OH261984   3.528   4.577   3.989 -0.0153 -0.1199 -0.0862
13498TIP3    H161985   3.614   4.591   4.028  0.2005 -1.0004 -0.2247
13498TIP3    H261986   3.489   4.665   3.987  1.0885  0.3858 -0.5428
13499TIP3   OH261987   3.166   2.436  16.977 -0.2669 -0.4672  0.3878
13499TIP3    H161988   3.245   2.442  16.923  0.4026 -1.0621  1.2567
13499TIP3    H261989   3.129   2.524  16.975  0.4150 -0.1835 -0.0599
13500TIP3   OH261990   6.008   3.234  11.755  0.3613 -0.5622  0.1563
13500TIP3    H161991   6.037   3.145  11.778  0.2042 -0.4713  0.7219
13500TIP3    H261992   5.973   3.270  11.836 -0.8770 -0.4820 -0.3879
13501TIP3   OH261993   3.483   3.079  15.706  0.1413 -0.5582 -0.2371
13501TIP3    H161994   3.579   3.085  15.702  0.2205 -1.7704 -0.5511
13501TIP3    H261995   3.465   3.051  15.795  0.0731 -0.2221 -0.1465
13502TIP3   OH261996   3.487   1.526   4.433  0.3984 -0.0849 -0.7678
13502TIP3    H161997   3.482   1.603   4.377  1.4453 -0.5882 -1.5790
13502TIP3    H261998   3.447   1.456   4.381 -0.6751 -0.0817  0.0156
13503TIP3   OH261999   2.640   4.307  13.957 -0.1429  0.3399  0.3538
13503TIP3    H162000   2.606   4.396  13.959 -0.8698  0.0735  0.0824
13503TIP3    H262001   2.676   4.297  13.869  0.2069  0.4545  0.4794
13504TIP3   OH262002   6.707   4.271  10.710 -0.4594 -0.2401  0.0013
13504TIP3    H162003   6.728   4.225  10.791  0.6150  2.3306  1.2907
13504TIP3    H262004   6.644   4.339  10.736  0.0871  0.8049 -1.2551
13505TIP3   OH262005   0.215   3.522   1.365  0.2185  0.2462 -0.2533
13505TIP3    H162006   0.144   3.492   1.423 -1.7987  1.5426 -1.8925
13505TIP3    H262007   0.246   3.442   1.323 -0.2756 -0.3570  0.4999
13506TIP3   OH262008   5.874   6.599   1.675 -0.1476 -0.6695 -0.3180
13506TIP3    H162009   5.855   6.647   1.594  0.8980 -1.5188 -1.1040
13506TIP3    H262010   5.880   6.667   1.743  2.0521  0.4560 -1.5159
13507TIP3   OH262011   4.166   3.114   2.863 -0.1552  0.3269  0.1652
13507TIP3    H162012   4.090   3.057   2.849 -0.0706  0.3670 -0.4893
13507TIP3    H262013   4.138   3.174   2.932  0.2249 -1.3517  1.8529
13508TIP3   OH262014   6.617   4.552   2.886 -0.2322  0.0454  0.5821
13508TIP3    H162015   6.586   4.471   2.927 -0.6964  0.8115  1.7663
13508TIP3    H262016   6.705   4.564   2.920  0.4073 -0.6982 -0.7150
13509TIP3   OH262017   3.724   5.069  12.953 -0.9670  0.5488  0.6945
13509TIP3    H162018   3.701   5.141  12.893  2.1334  0.4102 -0.8822
13509TIP3    H262019   3.745   5.112  13.035  1.4683  1.6343 -0.4115
13510TIP3   OH262020   1.741   5.420   4.756  0.2398  0.1640  0.0629
13510TIP3    H162021   1.709   5.335   4.787  0.6951 -0.9847 -2.3820
13510TIP3    H262022   1.670   5.455   4.703  1.0387  0.0211 -1.1409
13511TIP3   OH262023   3.841   1.897   3.468 -0.0001 -0.5746 -0.0202
13511TIP3    H162024   3.909   1.835   3.495 -0.1236 -1.2157 -1.1308
13511TIP3    H262025   3.769   1.882   3.530  0.6018 -0.3684  0.7389
13512TIP3   OH262026   2.047   4.665  13.778  0.0441 -0.5408 -0.1472
13512TIP3    H162027   2.019   4.738  13.722  0.1591 -1.9472 -2.1222
13512TIP3    H262028   2.140   4.680  13.792  0.2350 -0.6767 -1.1801
13513TIP3   OH262029   6.532   5.653  11.726  0.0655  0.7665 -0.6062
13513TIP3    H162030   6.539   5.647  11.822  2.1044  1.2846 -0.6852
13513TIP3    H262031   6.577   5.734  11.704  1.2120 -0.2395 -2.1395
13514TIP3   OH262032   4.156   3.239  12.550 -0.4624  0.4724 -0.3599
13514TIP3    H162033   4.215   3.314  12.550  0.1292  0.0103  0.1488
13514TIP3    H262034   4.094   3.258  12.480 -0.7127  1.7400  0.1787
13515TIP3   OH262035   6.669   4.223   4.643  0.4440 -0.6032  0.3805
13515TIP3    H162036   6.753   4.186   4.670  0.3895  0.3335  1.9283
13515TIP3    H262037   6.676   4.230   4.548  1.9600 -0.9144  0.4391
13516TIP3   OH262038   4.744   3.143   0.934 -0.5347  0.6987 -0.1288
13516TIP3    H162039   4.762   3.237   0.944 -0.6300  0.5831  1.3166
13516TIP3    H262040   4.649   3.138   0.922 -0.5811  0.7606  0.2042
13517TIP3   OH262041   1.591   5.207  16.852  0.7055 -0.3808  0.7266
13517TIP3    H162042   1.681   5.199  16.820  0.4934 -1.4631  0.3758
13517TIP3    H262043   1.593   5.284  16.909  1.7674 -0.1786  0.4406
13518TIP3   OH262044   5.789   3.961   3.170  0.0666  0.3938 -0.0874
13518TIP3    H162045   5.843   3.997   3.240  0.4247  1.4916 -0.8979
13518TIP3    H262046   5.744   4.038   3.134 -4.3912 -0.6727  2.4119
13519TIP3   OH262047   0.702   5.802   0.050  0.3097 -0.2178  0.1431
13519TIP3    H162048   0.613   5.837   0.055  0.2953 -0.3844  1.5085
13519TIP3    H262049   0.691   5.716   0.009 -0.5060 -1.1915  2.2221
13520TIP3   OH262050   0.425   3.707   1.417  0.2543 -0.2339  0.5120
13520TIP3    H162051   0.351   3.705   1.478  0.2881 -1.4116  0.5388
13520TIP3    H262052   0.397   3.652   1.344  0.4355  0.7221 -0.2863
13521TIP3   OH262053   5.663   5.924  14.970  0.1906 -0.3094 -0.9610
13521TIP3    H162054   5.667   6.007  14.923 -3.2252  1.3268  1.2114
13521TIP3    H262055   5.616   5.865  14.910  1.8989 -0.5002 -2.1805
13522TIP3   OH262056   1.188   6.298  13.210 -0.0822 -0.3299  0.4314
13522TIP3    H162057   1.220   6.259  13.292 -0.1407 -2.6622 -0.5830
13522TIP3    H262058   1.226   6.244  13.141 -1.6660  0.3204 -1.0293
13523TIP3   OH262059   5.480   3.042  14.621  0.1596  0.5838  0.2938
13523TIP3    H162060   5.573   3.049  14.601  0.5703 -1.5601  1.1905
13523TIP3    H262061   5.477   3.014  14.712 -1.4157  1.3728  0.5177
13524TIP3   OH262062   3.563   1.719  13.476 -0.1556  0.0439  0.1883
13524TIP3    H162063   3.524   1.642  13.436 -0.9222  0.6415 -0.2378
13524TIP3    H262064   3.601   1.768  13.403  0.0747  0.2126  0.4189
13525TIP3   OH262065   0.392   1.564   3.302  0.2120 -0.8100  0.3555
13525TIP3    H162066   0.438   1.516   3.370  0.7254 -0.2452  0.4188
13525TIP3    H262067   0.346   1.497   3.252 -0.8879 -1.1578  1.7815
13526TIP3   OH262068   0.475   5.413  13.285 -0.7033  0.4427 -0.0375
13526TIP3    H162069   0.442   5.493  13.325  1.1976  1.1857  0.1526
13526TIP3    H262070   0.521   5.443  13.206 -1.6808 -0.6806 -1.0731
13527TIP3   OH262071   1.171   3.920  15.899 -0.3298 -0.3562 -0.4283
13527TIP3    H162072   1.155   3.994  15.957  0.5363 -0.5203  0.0294
13527TIP3    H262073   1.083   3.886  15.879 -0.7005  0.4716 -0.2351
13528TIP3   OH262074   1.593   5.720  14.271  0.3501 -0.2820  0.1457
13528TIP3    H162075   1.601   5.815  14.264  0.1822 -0.3354 -0.8634
13528TIP3    H262076   1.614   5.687  14.184 -2.7542 -0.9413 -0.4831
13529TIP3   OH262077   4.174   1.827  15.289  0.5508 -0.5234  0.4504
13529TIP3    H162078   4.212   1.872  15.364  1.7140  0.1703 -0.5143
13529TIP3    H262079   4.238   1.760  15.267 -0.0139 -1.0403  0.3713
13530TIP3   OH262080   1.105   2.693  15.805  0.3731 -0.4350  0.0824
13530TIP3    H162081   1.141   2.607  15.784  1.8634  0.2039 -0.0703
13530TIP3    H262082   1.011   2.677  15.813  0.7005 -2.2371  0.9439
13531TIP3   OH262083   4.647   3.018  11.615  0.5597 -0.4825  0.0581
13531TIP3    H162084   4.663   2.988  11.705 -0.4565 -0.1063  0.3744
13531TIP3    H262085   4.715   3.084  11.600 -0.3863  0.8094  1.2337
13532TIP3   OH262086   5.548   1.403   1.847  0.1790  0.1451 -0.3766
13532TIP3    H162087   5.502   1.478   1.808  0.2278  0.9883  1.0809
13532TIP3    H262088   5.635   1.437   1.867  1.5798 -1.4726 -3.2111
13533TIP3   OH262089   4.978   4.676  17.111  0.0297 -0.0453 -0.3329
13533TIP3    H162090   4.943   4.616  17.045  2.3129 -2.2412  0.2862
13533TIP3    H262091   4.992   4.758  17.064 -3.3621  0.1753 -1.1738
13534TIP3   OH262092   5.318   4.235  15.267 -0.1024 -0.1782  0.2588
13534TIP3    H162093   5.276   4.149  15.273  1.0908 -0.9826 -1.9551
13534TIP3    H262094   5.404   4.223  15.308  0.0610 -0.0231 -0.0375
13535TIP3   OH262095   0.802   4.016  11.552 -0.4668 -0.2527 -0.3685
13535TIP3    H162096   0.825   4.011  11.459  1.1203 -1.0135  0.0364
13535TIP3    H262097   0.756   3.934  11.570 -1.1347  0.0702 -0.5496
13536TIP3   OH262098   3.670   5.565  13.928 -0.0439  0.1128  0.6463
13536TIP3    H162099   3.751   5.602  13.893 -0.7362  1.3708  0.3082
13536TIP3    H262100   3.684   5.471  13.926  0.8931  0.2569 -0.6819
13537TIP3   OH262101   3.758   5.522   5.380 -0.1489  0.0555 -0.2229
13537TIP3    H162102   3.684   5.560   5.333 -2.3227 -2.1869  1.1531
13537TIP3    H262103   3.783   5.590   5.442  0.5680  1.7458 -2.2383
13538TIP3   OH262104   1.819   3.717  11.072  0.0974  0.4528 -0.8745
13538TIP3    H162105   1.833   3.802  11.113  0.7188  0.5477 -1.2777
13538TIP3    H262106   1.738   3.728  11.022 -1.3427 -0.0153  1.2319
13539TIP3   OH262107   2.984   3.771   6.433  0.0114 -0.3801 -0.7762
13539TIP3    H162108   2.970   3.858   6.394 -0.0676  0.1306  0.3554
13539TIP3    H262109   3.057   3.734   6.383  0.5429  0.6439 -0.8000
13540TIP3   OH262110   2.865   2.913  17.365 -0.3277 -0.1392  0.4895
13540TIP3    H162111   2.904   3.000  17.369 -0.3839 -0.0428 -0.8270
13540TIP3    H262112   2.771   2.928  17.375 -0.2822 -0.1130  0.8966
13541TIP3   OH262113   5.557   3.284   4.352  0.7457  0.1901 -0.5415
13541TIP3    H162114   5.636   3.285   4.298  0.2372  0.9786 -1.3053
13541TIP3    H262115   5.580   3.336   4.429  1.8738 -1.9434  0.6560
13542TIP3   OH262116   0.242   1.504   4.405  0.2339  0.1023  0.3163
13542TIP3    H162117   0.297   1.575   4.438  0.3246 -0.8698  2.3423
13542TIP3    H262118   0.299   1.456   4.345  0.1714  1.6874 -1.0983
13543TIP3   OH262119   1.233   3.747   3.671 -0.1492  0.3185  0.2557
13543TIP3    H162120   1.277   3.732   3.587 -2.1291  1.3834 -1.0405
13543TIP3    H262121   1.300   3.726   3.737  1.3483 -0.9163 -1.5465
13544TIP3   OH262122   6.303   3.624  16.659 -0.2528 -0.4174 -0.0028
13544TIP3    H162123   6.212   3.653  16.657 -0.4148 -0.6916  1.6678
13544TIP3    H262124   6.298   3.530  16.675  0.3041 -0.1572  1.9347
13545TIP3   OH262125   3.085   6.302  17.350 -0.5398  0.0095 -0.1017
13545TIP3    H162126   3.050   6.263  17.270  0.1635 -0.0937 -0.3695
13545TIP3    H262127   3.180   6.304  17.337 -0.3771 -0.3420  0.8753
13546TIP3   OH262128   2.960   5.972  15.398 -0.9184  0.2506 -0.1342
13546TIP3    H162129   2.990   6.053  15.440 -0.4938 -0.2940  0.6430
13546TIP3    H262130   3.033   5.911  15.408 -1.3532 -0.3340 -0.4296
13547TIP3   OH262131   0.536   5.030  14.662  0.3276 -0.1213  0.1067
13547TIP3    H162132   0.468   4.976  14.623 -0.7307  1.7528 -0.7951
13547TIP3    H262133   0.593   5.054  14.589  1.5615 -1.0450  0.7256
13548TIP3   OH262134   1.506   5.291  13.703  0.4056 -0.4536  0.7014
13548TIP3    H162135   1.582   5.324  13.752  0.8421  0.1025 -0.3107
13548TIP3    H262136   1.527   5.311  13.612 -0.9920 -0.2437  0.4099
13549TIP3   OH262137   2.095   4.621   1.284 -0.0701 -0.6100 -0.3175
13549TIP3    H162138   2.004   4.624   1.256 -0.6166 -0.2490  1.3965
13549TIP3    H262139   2.130   4.708   1.261 -0.9385  0.2456  1.3903
13550TIP3   OH262140   0.991   0.930   4.958 -0.0099 -0.4843 -0.1502
13550TIP3    H162141   0.915   0.882   4.928 -1.0632  0.5086  0.8289
13550TIP3    H262142   1.030   0.873   5.025 -1.1438 -0.1024  0.8723
13551TIP3   OH262143   3.805   0.385  14.142  0.2818 -0.1364  0.0805
13551TIP3    H162144   3.861   0.462  14.131  2.4084 -1.6230 -0.3063
13551TIP3    H262145   3.723   0.409  14.100  1.0683  1.7137 -0.5367
13552TIP3   OH262146   5.643   5.954  12.086 -0.2308  0.6976  0.0875
13552TIP3    H162147   5.637   5.933  11.993 -1.4534 -1.1854  0.5334
13552TIP3    H262148   5.721   5.908  12.116 -0.9454 -0.3560  0.3671
13553TIP3   OH262149   0.316   1.697   4.029 -0.8480  0.6012 -0.8305
13553TIP3    H162150   0.383   1.646   4.075 -0.1348  1.0824 -1.3201
13553TIP3    H262151   0.301   1.772   4.086  0.1967  1.3115 -1.4645
13554TIP3   OH262152   5.368   4.109   3.672 -0.7322  0.4265 -0.3090
13554TIP3    H162153   5.403   4.064   3.749 -0.0587 -2.3531 -2.0836
13554TIP3    H262154   5.273   4.100   3.681 -0.7624  1.5516  0.9110
13555TIP3   OH262155   6.682   6.071   2.670  0.3606 -0.3298 -0.5612
13555TIP3    H162156   6.750   6.034   2.726  0.1323 -2.7639 -1.7395
13555TIP3    H262157   6.677   6.163   2.695  1.8736 -0.7872  1.7425
13556TIP3   OH262158   6.484   0.068  16.941 -0.2961 -0.5045  0.0257
13556TIP3    H162159   6.391   0.050  16.931  0.0946 -2.4906 -0.3246
13556TIP3    H262160   6.495   0.157  16.907 -2.1429  0.0168  0.6691
13557TIP3   OH262161   2.777   2.801   0.234 -0.3175 -0.1362 -0.1145
13557TIP3    H162162   2.800   2.823   0.144 -0.1554 -0.2495 -0.1004
13557TIP3    H262163   2.696   2.750   0.226 -1.2864  1.3286 -0.0867
13558TIP3   OH262164   4.645   4.161  14.588  0.0716 -0.1274  0.4262
13558TIP3    H162165   4.653   4.226  14.658 -0.7145 -0.3698  0.7558
13558TIP3    H262166   4.601   4.208  14.517 -1.0066 -0.4247  0.8696
13559TIP3   OH262167   1.539   3.245  10.869  0.4045 -0.6200 -0.4586
13559TIP3    H162168   1.583   3.329  10.879 -0.8048  0.1175 -1.0041
13559TIP3    H262169   1.609   3.182  10.853  1.3116  0.3318 -0.3022
13560TIP3   OH262170   5.301   3.911   4.525  0.6107 -0.0514 -0.4067
13560TIP3    H162171   5.258   3.959   4.595 -0.1219 -1.6476  0.3002
13560TIP3    H262172   5.230   3.881   4.468  0.7853 -1.9584  0.2878
13561TIP3   OH262173   1.597   3.698  13.679  0.4293 -0.5639 -0.2137
13561TIP3    H162174   1.673   3.693  13.737 -1.0108 -0.6400  1.7630
13561TIP3    H262175   1.577   3.607  13.658  1.7556 -0.4903 -2.0232
13562TIP3   OH262176   1.663   5.555  12.271 -0.0449  0.3603  0.6475
13562TIP3    H162177   1.642   5.599  12.188  0.3647  0.1906  0.4492
13562TIP3    H262178   1.599   5.590  12.333  0.3760  1.3589  0.5383
13563TIP3   OH262179   6.555   6.701   5.349 -0.0972 -0.4573 -0.2734
13563TIP3    H162180   6.510   6.617   5.339 -1.0302 -0.0231  0.1494
13563TIP3    H262181   6.584   6.703   5.440 -0.3500 -0.1893 -0.1981
13564TIP3   OH262182   2.406   6.434  15.444  0.4264  0.4010  0.1927
13564TIP3    H162183   2.470   6.460  15.510 -0.5498 -1.3580  1.9618
13564TIP3    H262184   2.447   6.361  15.398  0.3151  0.3101  0.2363
13565TIP3   OH262185   3.305   0.138  13.957  0.5286 -0.7794 -0.3374
13565TIP3    H162186   3.385   0.149  13.905  0.4311 -0.1809 -0.3715
13565TIP3    H262187   3.241   0.195  13.914  0.2954 -0.6871  0.1343
13566TIP3   OH262188   1.621   0.527   3.690  0.3526 -0.1391 -0.0474
13566TIP3    H162189   1.674   0.481   3.626  1.5322 -1.5152  1.8130
13566TIP3    H262190   1.684   0.565   3.751 -0.7063 -0.8357  1.5613
13567TIP3   OH262191   1.203   2.856   3.843  0.2759  0.0711 -0.6673
13567TIP3    H162192   1.165   2.915   3.908  2.5268  0.3385  0.4732
13567TIP3    H262193   1.244   2.914   3.779  0.0421 -0.2382 -1.1053
13568TIP3   OH262194   3.523   5.565   4.420 -0.0458 -0.1015  0.2113
13568TIP3    H162195   3.573   5.488   4.444  0.4523  0.9249  2.8416
13568TIP3    H262196   3.585   5.638   4.428 -1.0247  0.8059 -0.1058
13569TIP3   OH262197   0.965   5.643  13.320 -0.1393  0.0386 -0.4283
13569TIP3    H162198   0.977   5.659  13.413 -3.3938 -1.0541  0.3255
13569TIP3    H262199   1.049   5.609  13.290  0.2830 -2.0244  2.6916
13570TIP3   OH262200   0.422   2.363   0.406 -0.2610 -0.0601  0.3691
13570TIP3    H162201   0.390   2.453   0.408  1.8860  0.7910  3.0094
13570TIP3    H262202   0.411   2.332   0.496 -0.3794 -2.2428 -0.3564
13571TIP3   OH262203   0.116   2.616   0.095  0.2634  0.0898  0.5300
13571TIP3    H162204   0.107   2.690   0.156  2.5244  2.0192 -1.2931
13571TIP3    H262205   0.033   2.615   0.047  0.1876  1.4894  0.5868
13572TIP3   OH262206   2.548   6.457   3.638  0.1449  0.4264 -0.2832
13572TIP3    H162207   2.588   6.378   3.673 -1.7414  0.1984  1.5870
13572TIP3    H262208   2.502   6.428   3.559 -1.2760 -0.6267  0.8676
13573TIP3   OH262209   1.331   3.848   3.289 -0.3907 -0.2537  0.4132
13573TIP3    H162210   1.336   3.752   3.289 -0.1788 -0.2545  1.3008
13573TIP3    H262211   1.376   3.874   3.370 -0.8019  0.5741  0.3849
13574TIP3   OH262212   4.288   6.228   2.983 -0.4822  0.3499 -0.0320
13574TIP3    H162213   4.266   6.203   2.893 -1.7886  0.8197  0.1442
13574TIP3    H262214   4.377   6.195   2.995  0.2644  1.4937 -1.9687
13575TIP3   OH262215   4.433   3.407   5.762 -0.5275  0.0641 -0.0296
13575TIP3    H162216   4.485   3.487   5.762 -0.2557 -0.1071 -0.7899
13575TIP3    H262217   4.382   3.412   5.843  0.5186  0.3296  0.6319
13576TIP3   OH262218   5.575   2.213   3.367 -0.2966  0.0392 -0.2032
13576TIP3    H162219   5.611   2.144   3.311 -1.2976 -0.7214  0.0637
13576TIP3    H262220   5.649   2.243   3.419  0.1180 -0.9758 -0.1882
13577TIP3   OH262221   2.578   0.457  13.469 -0.5977  0.4317  0.2680
13577TIP3    H162222   2.576   0.488  13.379 -1.9385 -1.2020 -0.3343
13577TIP3    H262223   2.657   0.494  13.507  0.7481  0.0237 -2.0066
13578TIP3   OH262224   5.173   0.554   5.781 -0.4044  0.2259 -0.3169
13578TIP3    H162225   5.204   0.484   5.838 -0.2637  0.3079 -0.2933
13578TIP3    H262226   5.252   0.602   5.756 -0.3952 -0.1602 -1.0547
13579TIP3   OH262227   6.424   0.849  13.175  0.7384  0.0506  1.0221
13579TIP3    H162228   6.423   0.942  13.198 -0.0079  0.1935  0.4542
13579TIP3    H262229   6.505   0.837  13.124  0.1099  0.7313 -0.1903
13580TIP3   OH262230   5.253   3.224  12.786  0.1474  0.1751 -0.2840
13580TIP3    H162231   5.307   3.219  12.707 -2.1205 -0.7037 -1.8698
13580TIP3    H262232   5.185   3.158  12.773 -0.5820  0.3361  2.2068
13581TIP3   OH262233   2.325   4.966  15.081  0.6330 -0.0766  0.1301
13581TIP3    H162234   2.284   4.957  15.167  0.6155 -1.2718  0.0161
13581TIP3    H262235   2.309   5.057  15.056  1.9659  0.7662  2.0695
13582TIP3   OH262236   1.265   2.538  15.483  0.0705  0.2258 -0.1486
13582TIP3    H162237   1.170   2.543  15.476  0.2195  0.9604 -3.4641
13582TIP3    H262238   1.290   2.620  15.525 -0.7098  0.7451 -0.6663
13583TIP3   OH262239   5.647   3.544  11.473  0.2213 -0.7394  0.2061
13583TIP3    H162240   5.586   3.515  11.405 -0.6665  1.1902  0.1115
13583TIP3    H262241   5.732   3.546  11.429 -0.1977 -0.3577 -0.6116
13584TIP3   OH262242   3.238   6.688   0.193 -0.4115  0.4872  0.0015
13584TIP3    H162243   3.192   6.649   0.267 -2.3292 -0.3012 -1.5191
13584TIP3    H262244   3.197   6.650   0.116  2.8493 -0.2655 -1.5361
13585TIP3   OH262245   1.925   6.755   2.088 -0.0060  1.0374  0.9688
13585TIP3    H162246   1.846   6.753   2.034 -0.0751  1.6563  1.0331
13585TIP3    H262247   1.968   6.837   2.062  0.5839  0.7349  0.9768
13586TIP3   OH262248   0.786   3.419  11.155 -0.1646 -0.6187  0.0238
13586TIP3    H162249   0.878   3.393  11.155  0.2284  0.5756 -1.7702
13586TIP3    H262250   0.738   3.337  11.166  1.0794 -1.6119 -1.5385
13587TIP3   OH262251   0.793   2.624   2.774 -0.1975 -0.1529 -0.2074
13587TIP3    H162252   0.831   2.539   2.751  0.2030 -0.3096  0.9972
13587TIP3    H262253   0.863   2.672   2.818 -0.6522  0.5162 -0.1911
13588TIP3   OH262254   2.741   1.145  16.201  0.4340  0.3458  0.0993
13588TIP3    H162255   2.722   1.054  16.176 -0.4131 -0.2273  2.6083
13588TIP3    H262256   2.700   1.197  16.132  1.9048 -1.1232 -2.0247
13589TIP3   OH262257   3.659   0.530  14.989  0.8222 -0.0934 -0.0185
13589TIP3    H162258   3.595   0.577  14.937 -0.8873 -2.3080 -0.0511
13589TIP3    H262259   3.668   0.581  15.069 -0.2304  0.7676 -0.4339
13590TIP3   OH262260   6.279   1.130   5.381 -0.1531  0.5785 -0.5769
13590TIP3    H162261   6.266   1.047   5.334  1.1016  0.2257 -0.3351
13590TIP3    H262262   6.370   1.153   5.364 -0.1050  1.2094  0.4826
13591TIP3   OH262263   5.932   5.863   6.319  0.5398  0.2476  0.5093
13591TIP3    H162264   6.000   5.806   6.284 -0.7281 -1.5354  0.8540
13591TIP3    H262265   5.966   5.952   6.305  1.8909 -0.5150 -1.4197
13592TIP3   OH262266   5.284   0.892   4.688  0.1663 -0.3511  0.0709
13592TIP3    H162267   5.189   0.904   4.681 -0.3496 -2.1215  2.5419
13592TIP3    H262268   5.314   0.966   4.741 -0.1489 -0.7457  0.8070
13593TIP3   OH262269   4.444   4.062  13.071  0.1416  0.1183  0.8008
13593TIP3    H162270   4.360   4.109  13.076  0.1476  0.0615  1.4728
13593TIP3    H262271   4.469   4.068  12.979 -0.8230 -0.2427  0.5004
13594TIP3   OH262272   0.085   3.628  16.350 -0.3162  0.3086 -0.1261
13594TIP3    H162273   0.141   3.673  16.287 -1.2359 -2.2836 -3.0319
13594TIP3    H262274  -0.003   3.658  16.330 -0.6383 -0.7100 -0.2723
13595TIP3   OH262275   0.598   5.263  13.531  0.4307  0.3846  0.6063
13595TIP3    H162276   0.571   5.345  13.490 -1.7270 -0.7161 -0.3215
13595TIP3    H262277   0.609   5.202  13.458  0.9335 -0.4299  1.3531
13596TIP3   OH262278   0.477   6.371   6.571 -0.1298  0.6908  0.0034
13596TIP3    H162279   0.511   6.458   6.550  1.5840  0.0159 -0.2306
13596TIP3    H262280   0.555   6.321   6.596 -0.9361 -1.0386 -0.8041
13597TIP3   OH262281   6.561   6.790  15.787  0.2281  0.5472 -0.2811
13597TIP3    H162282   6.487   6.743  15.748 -0.2821  1.7181 -0.7421
13597TIP3    H262283   6.637   6.755  15.741 -0.1768  0.4526 -0.8998
13598TIP3   OH262284   2.100   3.641  12.512 -0.1237 -0.0753  0.1400
13598TIP3    H162285   2.082   3.731  12.485  0.1851  0.0433  0.3288
13598TIP3    H262286   2.124   3.648  12.604  3.1366  0.0751 -0.6119
13599TIP3   OH262287   4.579   4.696   1.909 -0.0108  0.2405  0.1809
13599TIP3    H162288   4.523   4.768   1.882  1.9401  1.9893  0.5305
13599TIP3    H262289   4.548   4.673   1.997 -1.8509 -0.7006 -0.6605
13600TIP3   OH262290   2.471   1.938   4.262  0.1258 -0.0085  0.3037
13600TIP3    H162291   2.505   1.986   4.337 -0.8802  1.8868 -0.3776
13600TIP3    H262292   2.521   1.971   4.188  0.6634 -1.3893  0.0229
13601TIP3   OH262293   0.499   5.167  11.272  0.5578  0.7079  0.2265
13601TIP3    H162294   0.533   5.121  11.195 -0.7309  1.5716 -0.8938
13601TIP3    H262295   0.566   5.232  11.292  0.5093  1.0686 -0.7291
13602TIP3   OH262296   2.095   1.062  16.652  0.6996 -0.1761 -0.2164
13602TIP3    H162297   2.067   1.052  16.743  0.2988 -0.0964 -0.3284
13602TIP3    H262298   2.134   1.149  16.648 -1.0215  0.6154 -0.5500
13603TIP3   OH262299   5.615   3.567   2.042 -0.3785  0.7456  0.1859
13603TIP3    H162300   5.587   3.476   2.028 -1.5902  1.0021  0.8279
13603TIP3    H262301   5.535   3.618   2.030  0.7471  2.0376 -2.7417
13604TIP3   OH262302   6.779   5.597  15.635 -0.7856  0.6577 -0.3498
13604TIP3    H162303   6.870   5.568  15.643 -1.0909 -0.4125 -0.5846
13604TIP3    H262304   6.728   5.523  15.666 -1.6267  0.7222 -1.5103
13605TIP3   OH262305   6.236   1.871   5.658  0.9736 -0.4963  0.1994
13605TIP3    H162306   6.208   1.903   5.744 -0.0394  0.0747 -0.3224
13605TIP3    H262307   6.259   1.779   5.673  0.8091 -0.4060  1.0803
13606TIP3   OH262308   1.693   6.138   4.548 -0.6118 -0.3305 -0.2222
13606TIP3    H162309   1.695   6.220   4.598 -0.2635 -0.5804  0.1843
13606TIP3    H262310   1.645   6.159   4.468 -1.5356 -0.0285  0.3997
13607TIP3   OH262311   6.332   4.702  11.595 -0.2235  0.5675 -0.1969
13607TIP3    H162312   6.357   4.626  11.543  0.8574  0.0483  1.0165
13607TIP3    H262313   6.372   4.777  11.551  0.3022  0.1914 -0.3627
13608TIP3   OH262314   3.242   5.547   4.489 -0.2429  0.1432 -0.8469
13608TIP3    H162315   3.306   5.611   4.519  1.0350 -1.6054  0.2983
13608TIP3    H262316   3.293   5.472   4.459 -1.6808 -0.2541 -2.4947
13609TIP3   OH262317   4.857   0.707  14.497 -0.0662 -0.2937  0.3765
13609TIP3    H162318   4.803   0.667  14.566  0.2359  1.8386  1.9457
13609TIP3    H262319   4.799   0.769  14.453 -0.0539 -1.1338 -0.8695
13610TIP3   OH262320   6.192   2.498  16.343  0.1507  0.1912 -0.3287
13610TIP3    H162321   6.133   2.520  16.415 -0.8256  0.0889 -1.0751
13610TIP3    H262322   6.280   2.511  16.378 -0.2973 -0.4365  1.0624
13611TIP3   OH262323   0.189   5.740   4.538  0.1207 -0.2443  0.2039
13611TIP3    H162324   0.105   5.778   4.564  0.9054  1.9510 -0.2330
13611TIP3    H262325   0.174   5.708   4.448 -0.9048 -2.3070  1.0333
13612TIP3   OH262326   0.132   0.631  11.618 -0.1885  0.1713 -0.4118
13612TIP3    H162327   0.166   0.550  11.657 -0.3608  0.7845  1.1209
13612TIP3    H262328   0.131   0.693  11.692 -0.1925  1.5229 -1.5153
13613TIP3   OH262329   3.499   6.457  11.219  0.5075 -0.3553 -0.3819
13613TIP3    H162330   3.565   6.483  11.283  0.1075 -0.7503  0.2126
13613TIP3    H262331   3.527   6.496  11.136 -0.0481  1.9227  0.4316
13614TIP3   OH262332   2.506   0.719   0.138  0.0064  0.3358  0.0978
13614TIP3    H162333   2.553   0.791   0.094 -0.1547  0.8735  0.7884
13614TIP3    H262334   2.569   0.686   0.202 -0.7544  1.5043  1.4974
13615TIP3   OH262335   1.923   3.144   1.001  0.2430  0.0587  0.7234
13615TIP3    H162336   1.852   3.159   0.939  0.0153 -0.8787  0.7490
13615TIP3    H262337   2.003   3.163   0.950  0.0824 -1.1000 -0.0117
13616TIP3   OH262338   5.094   0.331   3.892  0.0317 -0.2295 -0.0473
13616TIP3    H162339   5.142   0.248   3.891 -1.4380 -1.1233  0.4397
13616TIP3    H262340   5.110   0.369   3.805 -1.2918 -2.2702 -1.2846
13617TIP3   OH262341   5.448   2.842   0.602 -0.0974 -0.5846 -0.3599
13617TIP3    H162342   5.475   2.798   0.682 -2.2469 -2.0542 -0.3632
13617TIP3    H262343   5.503   2.920   0.598  0.9469 -1.1273  1.8568
13618TIP3   OH262344   0.170   0.438  17.055  0.0831 -0.4475 -0.2306
13618TIP3    H162345   0.163   0.363  16.996 -1.3466 -0.9962  0.5756
13618TIP3    H262346   0.264   0.450  17.069  0.3439 -3.3345  1.1547
13619TIP3   OH262347   5.031   4.518  14.984  0.0706  0.0369 -0.1811
13619TIP3    H162348   5.057   4.428  15.001  0.6699  0.1041 -0.6871
13619TIP3    H262349   5.113   4.563  14.964 -0.4359  0.2146 -2.0192
13620TIP3   OH262350   0.927   6.382   6.075 -0.3181  0.2916  0.1742
13620TIP3    H162351   0.938   6.296   6.115  0.3926 -0.8187 -2.2066
13620TIP3    H262352   0.957   6.444   6.141 -2.6180 -1.0654  2.7004
13621TIP3   OH262353   6.775   3.639   6.042  0.6470  0.0148 -0.4616
13621TIP3    H162354   6.681   3.634   6.060  0.3257  1.1861 -1.6442
13621TIP3    H262355   6.785   3.716   5.987  2.1342 -0.8604 -1.4953
13622TIP3   OH262356   1.590   4.100  14.399 -0.0530  0.8098 -0.3525
13622TIP3    H162357   1.523   4.038  14.370  3.1433 -2.9473 -0.6075
13622TIP3    H262358   1.548   4.150  14.469 -2.7288 -2.2760  0.5006
13623TIP3   OH262359   1.535   1.855   2.037  0.1624  0.1469 -0.6064
13623TIP3    H162360   1.441   1.865   2.052 -0.1865 -0.0519 -2.4458
13623TIP3    H262361   1.576   1.915   2.099 -1.2534  1.5625 -0.9964
13624TIP3   OH262362   1.138   1.916   5.104  0.0687  0.4274  0.2433
13624TIP3    H162363   1.212   1.939   5.160  0.2218  0.3611  0.0684
13624TIP3    H262364   1.103   1.999   5.074  1.5269  0.4604 -1.5949
13625TIP3   OH262365   0.433   4.604  12.963 -0.6328  0.0433 -0.2264
13625TIP3    H162366   0.373   4.544  13.008 -0.4761  0.2875  0.3096
13625TIP3    H262367   0.519   4.581  12.997 -0.2419 -1.1716 -1.9294
13626TIP3   OH262368   2.263   5.588   2.420 -0.1806  0.1257  0.0521
13626TIP3    H162369   2.249   5.608   2.513 -0.2847 -1.2083  0.3412
13626TIP3    H262370   2.314   5.663   2.387  0.2685  0.3983  1.2985
13627TIP3   OH262371   0.637   4.055  16.545  0.7947  0.5064  0.1625
13627TIP3    H162372   0.596   4.120  16.602  0.7386  0.1285  0.5601
13627TIP3    H262373   0.567   3.994  16.524  0.5187  1.2773 -1.2836
13628TIP3   OH262374   0.061   5.183  16.125  0.5298 -0.2871 -0.0196
13628TIP3    H162375   0.101   5.115  16.071  0.8757  1.5131 -2.1746
13628TIP3    H262376   0.097   5.265  16.091 -1.2249  1.0889  1.2672
13629TIP3   OH262377   1.077   1.718  14.404 -0.3041 -0.3450 -0.5602
13629TIP3    H162378   1.129   1.798  14.417  1.0771 -0.9775 -1.8949
13629TIP3    H262379   0.992   1.750  14.373 -1.0648  0.7443  2.3334
13630TIP3   OH262380   4.182   0.143  15.627 -0.6892 -0.7382  0.2471
13630TIP3    H162381   4.162   0.122  15.535 -0.8488 -0.0930  0.1317
13630TIP3    H262382   4.125   0.085  15.677 -1.7933  0.0231 -0.0753
13631TIP3   OH262383   3.206   3.678  16.662 -0.0723  0.3504  0.2357
13631TIP3    H162384   3.207   3.665  16.567  0.0606  0.8581  0.1647
13631TIP3    H262385   3.149   3.754  16.675  0.3016  0.5839  0.5198
13632TIP3   OH262386   5.234   6.651  16.345 -0.5089 -0.0300 -0.1037
13632TIP3    H162387   5.204   6.738  16.372  0.1262 -0.0263  0.6213
13632TIP3    H262388   5.257   6.662  16.252 -2.7219 -0.0537 -0.7131
13633TIP3   OH262389   5.665   5.574   1.011  0.3022  0.5385  0.0653
13633TIP3    H162390   5.707   5.614   0.935 -0.6380 -1.4261 -1.5885
13633TIP3    H262391   5.700   5.622   1.086 -0.6282  4.3320 -1.6781
13634TIP3   OH262392   6.366   1.591   1.623  0.4701 -0.1631  0.1092
13634TIP3    H162393   6.370   1.512   1.569  0.8349 -0.5707  0.7190
13634TIP3    H262394   6.402   1.660   1.568 -2.7578  0.3337 -1.6811
13635TIP3   OH262395   4.079   5.734   2.802  0.1511 -0.5228  0.5027
13635TIP3    H162396   4.059   5.650   2.761 -2.5635 -0.8713  2.3224
13635TIP3    H262397   4.172   5.749   2.781 -0.0849 -2.3709 -2.5309
13636TIP3   OH262398   0.017   5.284  16.836  0.6919  0.0061 -0.1161
13636TIP3    H162399   0.050   5.207  16.883 -2.3366 -1.9529 -0.8765
13636TIP3    H262400   0.089   5.310  16.779  3.0549  0.0092  2.6444
13637TIP3   OH262401   0.554   1.505  13.834  0.4441 -0.3454  0.8867
13637TIP3    H162402   0.460   1.502  13.852  0.2668  0.0254  0.0792
13637TIP3    H262403   0.566   1.444  13.761  0.4975  1.0542 -0.3183
13638TIP3   OH262404   1.988   5.089  10.743 -0.3888 -0.8375  0.5152
13638TIP3    H162405   1.916   5.125  10.795 -1.2295 -1.2597 -0.3189
13638TIP3    H262406   2.044   5.164  10.723 -1.1599 -0.3060  0.3003
13639TIP3   OH262407   1.492   3.543   4.822  0.2387  0.4516 -0.2230
13639TIP3    H162408   1.574   3.586   4.846 -0.6290  1.8566  0.3226
13639TIP3    H262409   1.441   3.543   4.903 -0.9010  1.0010 -0.9161
13640TIP3   OH262410   5.867   6.337   2.006 -0.2613 -0.3768 -0.1394
13640TIP3    H162411   5.961   6.354   1.993 -0.4117 -0.7408 -1.9271
13640TIP3    H262412   5.864   6.275   2.078  1.0740 -2.3465 -1.6778
13641TIP3   OH262413   5.906   1.309  16.956 -0.1973  0.2355  0.0534
13641TIP3    H162414   5.877   1.390  16.998 -0.9057  0.1355 -0.2299
13641TIP3    H262415   5.876   1.240  17.015  0.6461  0.1819  0.4336
13642TIP3   OH262416   4.347   6.212  11.316 -0.2128  0.4027  0.1515
13642TIP3    H162417   4.317   6.255  11.396 -0.8067 -0.8462  0.6303
13642TIP3    H262418   4.327   6.119  11.329 -0.1278  0.1331 -1.3585
13643TIP3   OH262419   1.647   5.233  14.844 -0.1163 -0.3709  0.6437
13643TIP3    H162420   1.593   5.311  14.831  0.1100  0.2604  3.0408
13643TIP3    H262421   1.702   5.228  14.766 -1.0158  1.1228 -0.1329
13644TIP3   OH262422   6.545   4.243   6.500 -0.2586 -0.0559  0.3504
13644TIP3    H162423   6.531   4.254   6.406 -0.2627 -0.5042  0.2963
13644TIP3    H262424   6.495   4.165   6.523 -0.9948  0.5616  0.9053
13645TIP3   OH262425   0.503   2.321  17.011  0.0784  0.2063  0.2041
13645TIP3    H162426   0.583   2.272  17.033 -0.1050 -0.4918 -0.6185
13645TIP3    H262427   0.487   2.376  17.087  0.5612 -0.6795  0.9719
13646TIP3   OH262428   4.229   6.290   5.623  0.2904  0.0879 -0.5420
13646TIP3    H162429   4.154   6.239   5.654  0.3983 -0.1103 -0.6066
13646TIP3    H262430   4.195   6.339   5.548  0.8378 -1.8838 -2.1697
13647TIP3   OH262431   2.709   5.321   2.921  0.0595 -0.9610  0.7720
13647TIP3    H162432   2.626   5.341   2.877  0.0152 -0.7335  0.9605
13647TIP3    H262433   2.684   5.296   3.010  0.2294 -0.4245  0.9728
13648TIP3   OH262434   0.240   1.366   3.126  0.5466 -0.0226 -0.1068
13648TIP3    H162435   0.298   1.313   3.181  1.5151  0.7693 -0.3434
13648TIP3    H262436   0.160   1.314   3.119  1.7106 -1.8133 -0.9337
13649TIP3   OH262437   3.450   4.736   5.299 -0.5562  0.0143 -1.1182
13649TIP3    H162438   3.541   4.749   5.328 -0.6193  2.8363 -1.9155
13649TIP3    H262439   3.409   4.688   5.371  1.0539  0.5656  0.2427
13650TIP3   OH262440   5.332   1.309  14.138  0.0150  0.0501 -0.8664
13650TIP3    H162441   5.274   1.238  14.166 -1.5436  1.4027 -0.5019
13650TIP3    H262442   5.341   1.297  14.044  0.1663 -0.8836 -0.7486
13651TIP3   OH262443   5.993   5.899  15.370 -0.5146 -0.6737  0.8235
13651TIP3    H162444   5.947   5.869  15.292 -1.2293 -0.7121  1.2536
13651TIP3    H262445   6.075   5.850  15.370 -1.0311 -1.5547  0.7371
13652TIP3   OH262446   1.995   6.629  15.268  0.0494 -0.0158  0.9041
13652TIP3    H162447   2.025   6.710  15.228  0.3832 -0.4699  0.2153
13652TIP3    H262448   2.062   6.609  15.334  0.2957 -0.0645  0.6378
13653TIP3   OH262449   6.664   1.254   4.980  0.0967 -0.5014 -0.6222
13653TIP3    H162450   6.750   1.295   4.976 -0.2825  0.4864  0.4872
13653TIP3    H262451   6.632   1.255   4.890  0.5955  0.5887 -0.8033
13654TIP3   OH262452   6.167   6.538  10.442 -0.5642 -0.5896 -0.0420
13654TIP3    H162453   6.157   6.559  10.349 -2.2080  0.9101  0.4096
13654TIP3    H262454   6.082   6.501  10.467 -0.3225 -0.4799  0.9811
13655TIP3   OH262455   4.332   2.107   4.779  0.3716  0.7192 -0.2974
13655TIP3    H162456   4.316   2.031   4.835  0.8354  0.5798 -0.3440
13655TIP3    H262457   4.427   2.105   4.763  0.2899  0.9285 -0.8375
13656TIP3   OH262458   2.008   4.542  15.080 -0.2256  0.1375  0.3294
13656TIP3    H162459   2.058   4.485  15.139 -0.8015  0.3118  1.0098
13656TIP3    H262460   1.921   4.503  15.079 -0.1628  0.0126 -0.5999
13657TIP3   OH262461   1.825   1.218   5.041 -0.0241  0.2304  0.0164
13657TIP3    H162462   1.851   1.279   5.110  0.0052  0.0474  0.1664
13657TIP3    H262463   1.756   1.263   4.994  0.2448  0.5320 -0.0958
13658TIP3   OH262464   6.461   4.996   0.050  0.2871  0.2283  0.6936
13658TIP3    H162465   6.532   4.936   0.027 -1.9508 -1.9940 -0.9415
13658TIP3    H262466   6.476   5.073  -0.005  2.5658  0.8155  1.9835
13659TIP3   OH262467   2.159   2.403   2.514 -0.0060 -0.0125 -0.2247
13659TIP3    H162468   2.209   2.417   2.594 -0.1336 -0.0904 -0.1322
13659TIP3    H262469   2.114   2.320   2.528 -1.8385  1.0438  0.5556
13660TIP3   OH262470   0.340   2.697   6.680 -0.2408 -0.0529 -0.0060
13660TIP3    H162471   0.343   2.792   6.692  0.4970 -0.0821  0.0640
13660TIP3    H262472   0.408   2.679   6.616  0.3955 -0.6537  0.8199
13661TIP3   OH262473   6.158   2.310  15.379 -0.3585  0.6476 -0.4146
13661TIP3    H162474   6.126   2.365  15.450 -0.9567 -0.7808  0.4681
13661TIP3    H262475   6.080   2.263  15.348  0.2574 -0.2629 -0.6275
13662TIP3   OH262476   4.149   3.478   2.654 -0.3810  0.2353  0.4095
13662TIP3    H162477   4.215   3.413   2.632 -0.4873  0.7743 -1.8107
13662TIP3    H262478   4.199   3.552   2.690 -0.0213 -0.2182  0.8422
13663TIP3   OH262479   1.585   0.025   1.181  0.5369 -0.1031 -0.2237
13663TIP3    H162480   1.631  -0.018   1.253 -0.0379 -0.3484  0.0042
13663TIP3    H262481   1.500   0.050   1.218 -0.3034 -1.4017 -1.1525
13664TIP3   OH262482   0.119   3.696  11.513 -0.1626 -0.0263 -0.1252
13664TIP3    H162483   0.164   3.613  11.496  1.8004  0.4072  2.2764
13664TIP3    H262484   0.127   3.708  11.608 -1.5927  2.2776 -0.2166
13665TIP3   OH262485   4.283   2.381  12.900  0.0263 -0.4380 -0.2993
13665TIP3    H162486   4.320   2.414  12.818 -1.5034 -1.8121 -1.6213
13665TIP3    H262487   4.285   2.286  12.891  0.1637 -0.6285  1.4459
13666TIP3   OH262488   2.500   6.337   4.069 -0.6434  0.4029  0.1438
13666TIP3    H162489   2.427   6.317   4.127  1.5955  0.6285  3.3270
13666TIP3    H262490   2.528   6.252   4.035 -0.7390  0.0111  1.0383
13667TIP3   OH262491   3.893   3.537  13.568 -0.2108 -0.7757 -0.4419
13667TIP3    H162492   3.891   3.567  13.478 -2.5038  0.9857  0.1161
13667TIP3    H262493   3.828   3.466  13.572 -0.3805 -0.6068 -0.1163
13668TIP3   OH262494   3.111   1.083  14.856 -0.0993 -0.0590  0.0683
13668TIP3    H162495   3.098   0.990  14.871  0.1722 -0.0320  0.4994
13668TIP3    H262496   3.151   1.089  14.769 -1.0884 -0.2709 -0.4116
13669TIP3   OH262497   3.236   2.146   6.437  0.6328  0.5476 -0.4706
13669TIP3    H162498   3.316   2.166   6.389  0.7488  0.2020 -0.4319
13669TIP3    H262499   3.267   2.123   6.525  0.4974  0.3470 -0.4747
13670TIP3   OH262500   1.583   5.359  15.517 -0.1944 -0.5135  0.0021
13670TIP3    H162501   1.614   5.311  15.595  0.4063  0.5869  0.4561
13670TIP3    H262502   1.601   5.451  15.536 -1.5143 -0.0563 -0.7723
13671TIP3   OH262503   2.522   4.958   5.409 -0.3734 -0.1310  0.0827
13671TIP3    H162504   2.463   4.916   5.473  0.3946  0.5331  1.2593
13671TIP3    H262505   2.496   5.050   5.411 -1.6444 -0.3757 -2.0459
13672TIP3   OH262506   5.549   2.476   1.431  0.8516  0.7954  0.5799
13672TIP3    H162507   5.547   2.381   1.423  0.4642  0.8196  0.3530
13672TIP3    H262508   5.641   2.500   1.415  0.8827  0.4898  0.2915
13673TIP3   OH262509   0.721   6.733   2.923 -0.1092 -0.3342 -0.1106
13673TIP3    H162510   0.733   6.755   2.831 -0.7357 -2.2713 -0.7185
13673TIP3    H262511   0.796   6.677   2.944  0.1370  0.2629  0.6257
13674TIP3   OH262512   0.345   0.358  10.535  0.2871  0.5514 -0.1624
13674TIP3    H162513   0.308   0.294  10.474 -0.7223  0.9327  0.0315
13674TIP3    H262514   0.274   0.377  10.597  0.3868  2.2360 -0.5095
13675TIP3   OH262515   4.635   5.271   5.760 -0.0385  0.4704  0.2700
13675TIP3    H162516   4.629   5.301   5.851  2.9889 -2.8911  1.8269
13675TIP3    H262517   4.573   5.199   5.755  0.6767 -0.1413  0.0815
13676TIP3   OH262518   1.777   3.293   0.519 -0.0585  0.5480 -0.6524
13676TIP3    H162519   1.862   3.336   0.506 -1.1110  3.3483  0.8215
13676TIP3    H262520   1.766   3.239   0.441  2.3712  1.3250 -1.6504
13677TIP3   OH262521   5.150   1.288  15.960 -0.0293 -0.4925  0.2444
13677TIP3    H162522   5.223   1.321  16.011  2.3747 -3.5974 -0.9209
13677TIP3    H262523   5.143   1.349  15.887  0.5335  0.5425  1.0245
13678TIP3   OH262524   0.466   4.387  13.442  0.0174  0.6278  0.3423
13678TIP3    H162525   0.466   4.358  13.351 -2.0257  1.5064  0.0084
13678TIP3    H262526   0.547   4.351  13.479  1.5102  1.2380 -2.1046
13679TIP3   OH262527   4.811   0.236   4.825 -0.1507  0.1200 -0.0692
13679TIP3    H162528   4.850   0.324   4.828 -2.1679  1.0518  0.3148
13679TIP3    H262529   4.874   0.184   4.774  0.5543  2.0674 -1.3114
13680TIP3   OH262530   0.117   3.237   5.814 -0.2513  0.1987  0.6419
13680TIP3    H162531   0.210   3.247   5.837  0.6092 -0.0941 -2.3263
13680TIP3    H262532   0.090   3.324   5.786  0.2254 -0.4064 -1.9069
13681TIP3   OH262533   4.180   1.990   0.992 -0.5294  0.1214  0.3636
13681TIP3    H162534   4.120   2.018   0.923  1.2184 -1.0163 -1.7688
13681TIP3    H262535   4.203   2.070   1.038 -1.4106  1.0092 -0.6766
13682TIP3   OH262536   1.760   5.567   0.046 -0.0277  0.1035 -0.2042
13682TIP3    H162537   1.854   5.583   0.033  0.1763 -1.3923 -0.7729
13682TIP3    H262538   1.725   5.652   0.074  1.3297  0.9172 -0.8586
13683TIP3   OH262539   2.620   2.440   1.565  0.1951  0.0891  0.0671
13683TIP3    H162540   2.667   2.433   1.648 -0.7173  0.9502  0.6770
13683TIP3    H262541   2.678   2.398   1.501  1.8528  1.1814  0.7676
13684TIP3   OH262542   2.628   6.411  12.685  0.0227  0.3087 -0.0141
13684TIP3    H162543   2.663   6.425  12.598  0.9963  1.8683  0.5903
13684TIP3    H262544   2.703   6.383  12.737 -0.3673  0.2228  0.5155
13685TIP3   OH262545   4.388   1.325  10.974  0.1538 -0.3165  0.6749
13685TIP3    H162546   4.300   1.338  11.008 -0.1585 -1.4731  0.3578
13685TIP3    H262547   4.376   1.273  10.895  1.0383  0.5543 -0.0626
13686TIP3   OH262548   6.420   5.004  16.299  0.4457  0.0401  0.1390
13686TIP3    H162549   6.426   4.916  16.337  1.6133 -0.6655 -1.5604
13686TIP3    H262550   6.439   4.991  16.206  0.9735  2.1452 -0.0882
13687TIP3   OH262551   2.647   3.500   0.789 -0.2488 -0.2986  0.4016
13687TIP3    H162552   2.594   3.561   0.841 -1.4431 -0.5754 -0.4495
13687TIP3    H262553   2.650   3.420   0.842  0.3851  0.1069  1.0093
13688TIP3   OH262554   4.103   0.930   4.804  0.8803  0.8046 -0.1200
13688TIP3    H162555   4.159   1.007   4.792  1.6708  0.0274 -1.6470
13688TIP3    H262556   4.112   0.908   4.896  2.5481  1.1287 -0.1764
13689TIP3   OH262557   3.323   4.676  11.343  0.0254 -0.3457  1.0050
13689TIP3    H162558   3.276   4.592  11.350 -0.4585 -0.0698  1.1214
13689TIP3    H262559   3.261   4.735  11.300  1.2316 -0.6786 -1.3489
13690TIP3   OH262560   1.514   3.371  11.721 -0.2819 -0.3623  0.1948
13690TIP3    H162561   1.541   3.293  11.673  0.4120 -0.2197  0.3492
13690TIP3    H262562   1.523   3.442  11.658  1.7444  0.0057  0.8302
13691TIP3   OH262563   1.084   1.705   0.312  0.0648 -0.1168 -0.2061
13691TIP3    H162564   1.178   1.701   0.294 -0.1024  0.2125 -1.1984
13691TIP3    H262565   1.044   1.717   0.226 -0.9586 -1.2588  0.0949
13692TIP3   OH262566   2.332   1.644   1.578 -0.2540 -0.7081  0.6524
13692TIP3    H162567   2.261   1.610   1.522 -0.4771 -0.5181  0.8162
13692TIP3    H262568   2.287   1.677   1.656  0.1836 -2.3875  1.6646
13693TIP3   OH262569   6.372   0.412   6.382 -0.0944  0.1082 -0.3481
13693TIP3    H162570   6.317   0.453   6.314 -1.2452  1.3026  1.2106
13693TIP3    H262571   6.323   0.335   6.409 -0.7496  0.8407  0.6195
13694TIP3   OH262572   5.313   2.848  14.033 -0.0165  0.2063  0.5339
13694TIP3    H162573   5.242   2.830  13.971  0.6953 -0.6226 -0.0661
13694TIP3    H262574   5.387   2.874  13.979  0.9020 -1.4490  0.9291
13695TIP3   OH262575   6.623   5.605   1.308 -0.8218  0.8527 -0.2791
13695TIP3    H162576   6.607   5.520   1.267 -0.0589 -0.1340  1.3779
13695TIP3    H262577   6.618   5.668   1.236  1.1477 -0.8569 -2.0126
13696TIP3   OH262578   4.259   2.508  14.111  0.4174  0.0346  0.3477
13696TIP3    H162579   4.303   2.429  14.079 -0.2683  0.2136 -1.1460
13696TIP3    H262580   4.284   2.515  14.203  0.1029 -2.1830  0.6419
13697TIP3   OH262581   1.995   1.000  16.414  1.1454 -0.5457  0.3164
13697TIP3    H162582   2.038   1.008  16.499  1.5812  0.8206 -0.0115
13697TIP3    H262583   1.901   0.998  16.435  1.2297  0.2876  0.8083
13698TIP3   OH262584   3.962   3.817   1.601 -0.0880  0.6804  0.0671
13698TIP3    H162585   3.994   3.770   1.525 -0.8205  2.8556 -1.7010
13698TIP3    H262586   4.029   3.883   1.619 -0.3684  0.8041  0.7020
13699TIP3   OH262587   6.579   6.334  17.196  0.6217 -0.1372 -0.4947
13699TIP3    H162588   6.655   6.326  17.253 -0.2744  0.5690  0.8618
13699TIP3    H262589   6.590   6.418  17.152  0.3251  0.2707  0.1945
13700TIP3   OH262590   3.245   3.234  13.997  0.2914 -0.1105  0.5423
13700TIP3    H162591   3.286   3.150  13.976  1.9097  0.6961  0.3074
13700TIP3    H262592   3.274   3.293  13.928  0.0222  0.8864  1.2579
13701TIP3   OH262593   6.541   2.927   4.035 -0.2630 -0.2367 -0.5317
13701TIP3    H162594   6.583   2.893   4.114  1.2469 -0.8458 -1.5556
13701TIP3    H262595   6.572   2.870   3.965 -3.2655 -1.0695 -1.3006
13702TIP3   OH262596   0.402   4.909  12.220 -0.2750  0.3478  0.1674
13702TIP3    H162597   0.404   4.962  12.300 -0.3972 -1.7753  1.6625
13702TIP3    H262598   0.489   4.870  12.216  0.4412  1.9579 -1.9214
13703TIP3   OH262599   3.981   5.755  12.156 -0.3882 -0.0085 -0.0738
13703TIP3    H162600   3.903   5.794  12.195  0.6121  0.1949  1.8745
13703TIP3    H262601   4.041   5.829  12.142 -0.3528 -0.2189 -1.1249
13704TIP3   OH262602   1.345   2.218  14.428 -0.2188 -0.4963  0.2707
13704TIP3    H162603   1.353   2.296  14.373 -0.3115 -0.9637 -0.4153
13704TIP3    H262604   1.385   2.244  14.512 -2.4522  1.0903  0.9229
13705TIP3   OH262605   6.325   6.454   5.645  0.1955  0.3354  0.1949
13705TIP3    H162606   6.342   6.542   5.680 -0.4784  0.6600 -0.2642
13705TIP3    H262607   6.249   6.423   5.693 -0.7239  0.7751 -0.9256
13706TIP3   OH262608   5.325   6.533   2.177  0.8665  0.0964  0.1953
13706TIP3    H162609   5.247   6.493   2.216  0.0379  0.9292 -0.5763
13706TIP3    H262610   5.393   6.467   2.189  0.3946 -0.1286  2.0703
13707TIP3   OH262611   5.355   5.396  12.102 -1.0339 -0.1051 -0.1276
13707TIP3    H162612   5.405   5.393  12.020  0.1022  0.0513  0.5446
13707TIP3    H262613   5.321   5.307  12.113  0.2277 -0.5791  0.0773
13708TIP3   OH262614   0.668   5.298   0.617 -0.2281 -0.2518  0.1646
13708TIP3    H162615   0.631   5.217   0.582 -0.3719 -0.3349  0.4971
13708TIP3    H262616   0.626   5.308   0.703 -2.3202  1.6071 -0.9565
13709TIP3   OH262617   0.832   2.488  17.352 -0.5511 -0.3598 -0.4685
13709TIP3    H162618   0.798   2.400  17.368 -1.0023 -0.1060  0.0081
13709TIP3    H262619   0.907   2.496  17.411 -0.3661 -0.5034 -0.6809
13710TIP3   OH262620   1.491   5.354   0.297 -0.5413 -0.3169 -0.4412
13710TIP3    H162621   1.557   5.420   0.280 -1.3243  0.3401 -1.0127
13710TIP3    H262622   1.535   5.289   0.351  0.1495  0.8184  0.3953
13711TIP3   OH262623   0.525   2.760   5.060  0.3492  0.5287 -0.2352
13711TIP3    H162624   0.475   2.837   5.088  0.8990  0.8165 -0.0258
13711TIP3    H262625   0.565   2.727   5.141 -0.7581 -0.6427 -0.1197
13712TIP3   OH262626   3.953   2.939  17.108  0.3459  0.7485  0.7779
13712TIP3    H162627   3.941   2.870  17.042 -1.4348  1.1705  0.5971
13712TIP3    H262628   3.889   3.006  17.084  0.7840  1.6541  2.0134
13713TIP3   OH262629   5.754   2.951   0.884  0.3848 -0.1993  0.3259
13713TIP3    H162630   5.715   2.924   0.968 -1.6926 -0.8386 -0.7738
13713TIP3    H262631   5.717   3.037   0.866  2.1075  0.6979  0.7819
13714TIP3   OH262632   0.911   1.987  12.859 -0.2734  0.2035  0.9097
13714TIP3    H162633   0.987   1.933  12.837  0.5125  0.8567  1.9075
13714TIP3    H262634   0.934   2.074  12.828  0.0995  0.7549  2.6439
13715TIP3   OH262635   4.466   1.224   0.843 -0.1325 -0.1069  0.0428
13715TIP3    H162636   4.399   1.281   0.806 -1.1146 -0.9126  0.5187
13715TIP3    H262637   4.424   1.185   0.920  1.0871 -0.1942  0.6771
13716TIP3   OH262638   3.935   4.473   1.633 -0.6070  0.0740  0.0049
13716TIP3    H162639   3.996   4.508   1.698  1.6610  0.9509 -2.4332
13716TIP3    H262640   3.946   4.378   1.638  0.0854  0.1679  0.3892
13717TIP3   OH262641   2.374   4.768   5.629  0.0855  0.2835 -0.3288
13717TIP3    H162642   2.348   4.722   5.549  0.3705 -0.5232  0.0302
13717TIP3    H262643   2.426   4.704   5.677 -0.9050  0.4225  0.9722
13718TIP3   OH262644   4.839   4.041   0.487 -0.0707  0.2970  0.3120
13718TIP3    H162645   4.913   4.079   0.439 -0.1516  0.0512 -0.0107
13718TIP3    H262646   4.879   3.998   0.562 -0.0207  1.5044  1.0103
13719TIP3   OH262647   4.240   1.730   0.271 -0.1427 -0.0030 -0.0361
13719TIP3    H162648   4.147   1.709   0.262  0.1948 -0.9720 -1.5695
13719TIP3    H262649   4.252   1.740   0.366 -1.4992 -1.4028  0.3358
13720TIP3   OH262650   5.766   0.499   4.382 -0.3419  0.4035 -0.2911
13720TIP3    H162651   5.718   0.507   4.300  0.2005  0.0257 -0.6534
13720TIP3    H262652   5.855   0.528   4.361  0.2246 -1.1990 -0.2732
13721TIP3   OH262653   1.818   5.216   2.663 -0.2903  0.3720  0.2890
13721TIP3    H162654   1.909   5.244   2.654  0.2726 -1.6862 -0.8911
13721TIP3    H262655   1.817   5.165   2.744  0.0453 -1.1110 -0.6150
13722TIP3   OH262656   3.353   4.960  14.540  0.3052 -0.4440  0.3579
13722TIP3    H162657   3.351   4.873  14.579 -1.6401 -0.7962 -0.4335
13722TIP3    H262658   3.378   5.018  14.613  0.6596 -1.5328  1.1254
13723TIP3   OH262659   1.202   5.430   4.287  0.0333  0.3365 -0.3823
13723TIP3    H162660   1.156   5.423   4.203  0.5208 -0.3570 -0.6028
13723TIP3    H262661   1.133   5.452   4.350 -0.2155  1.6345 -1.0834
13724TIP3   OH262662   3.678   3.518   4.816  0.4452  0.0989 -0.1402
13724TIP3    H162663   3.720   3.524   4.901 -0.9321 -1.7907  0.7510
13724TIP3    H262664   3.590   3.553   4.830 -0.3582 -1.7492 -0.3114
13725TIP3   OH262665   5.292   1.447   5.514 -0.1914  0.0460  0.8291
13725TIP3    H162666   5.370   1.394   5.532 -0.1648  0.1898  1.1395
13725TIP3    H262667   5.248   1.401   5.443  1.2858  1.0840 -0.8698
13726TIP3   OH262668   1.420   1.672   5.708  0.8455 -0.0126  0.0679
13726TIP3    H162669   1.368   1.753   5.708  0.7405 -0.0710  0.9691
13726TIP3    H262670   1.385   1.621   5.781  1.2523 -0.6551 -0.1795
13727TIP3   OH262671   2.379   4.942  12.798  0.0542  0.4837 -0.1615
13727TIP3    H162672   2.445   4.939  12.868 -0.7374 -0.0970  0.5838
13727TIP3    H262673   2.370   5.035  12.778  0.9884  0.5836 -0.1774
13728TIP3   OH262674   6.627   1.854  11.320  0.1070 -0.3261 -0.3211
13728TIP3    H162675   6.587   1.887  11.400  0.9922 -0.7940  0.3301
13728TIP3    H262676   6.554   1.817  11.270 -0.2006 -2.0043  1.2485
13729TIP3   OH262677   5.775   6.235   4.951  0.2259 -1.1240 -0.0159
13729TIP3    H162678   5.752   6.222   5.043  0.5871  1.5871  0.5576
13729TIP3    H262679   5.771   6.330   4.939  1.1376 -1.3314 -2.5695
13730TIP3   OH262680   1.266   5.017   0.943  0.2916  0.5134 -0.1614
13730TIP3    H162681   1.309   4.981   0.865 -0.7097  2.2498 -1.5951
13730TIP3    H262682   1.228   4.940   0.986  1.5426 -0.5881 -0.9268
13731TIP3   OH262683   1.080   1.613   5.435 -0.2852 -0.0842 -0.6346
13731TIP3    H162684   1.069   1.530   5.481  2.2968  0.5615  1.4062
13731TIP3    H262685   1.127   1.590   5.355 -1.8466 -0.8296 -1.3776
13732TIP3   OH262686   0.313   2.120  12.001 -0.4145 -0.3183 -0.2136
13732TIP3    H162687   0.296   2.141  11.909 -0.8829  1.1441  0.1823
13732TIP3    H262688   0.235   2.150  12.047 -0.0759 -0.8019  0.7005
13733TIP3   OH262689   5.179   2.674  15.878 -0.1357  0.5483  0.0085
13733TIP3    H162690   5.109   2.711  15.932  0.8543  1.3533  0.7773
13733TIP3    H262691   5.141   2.594  15.842 -1.8765  1.5853 -0.6189
13734TIP3   OH262692   3.069   5.688   4.034  0.5661  0.6061  0.1342
13734TIP3    H162693   3.079   5.752   4.105  1.4655 -0.1779  0.7411
13734TIP3    H262694   3.141   5.707   3.974 -1.3410  2.6169 -1.7456
13735TIP3   OH262695   0.487   5.299   6.602 -0.1916  0.0493 -0.3355
13735TIP3    H162696   0.519   5.351   6.676 -0.7784 -1.2303  0.8682
13735TIP3    H262697   0.563   5.289   6.545 -0.3607  3.3502 -1.3668
13736TIP3   OH262698   3.538   0.265  13.542  0.0735 -0.2447  0.0098
13736TIP3    H162699   3.584   0.349  13.550 -0.1892  0.0502 -1.3978
13736TIP3    H262700   3.607   0.203  13.518 -0.1199  0.0875 -1.5212
13737TIP3   OH262701   3.474   3.443   4.456 -0.1751 -0.0858  0.7781
13737TIP3    H162702   3.567   3.431   4.433 -0.1782  1.8348 -0.5081
13737TIP3    H262703   3.427   3.412   4.379 -0.4122  1.8113  0.0950
13738TIP3   OH262704   4.408   0.211  16.303  0.4174  0.4493  0.0361
13738TIP3    H162705   4.429   0.214  16.397  1.6600 -1.1622 -0.1558
13738TIP3    H262706   4.415   0.119  16.280  1.3374  0.9718 -1.9179
13739TIP3   OH262707   2.050   5.721   5.544 -0.1192  0.2567 -0.3816
13739TIP3    H162708   2.101   5.802   5.544 -0.8763  0.8610  2.4614
13739TIP3    H262709   2.115   5.651   5.541  0.6856  0.9964 -0.4968
13740TIP3   OH262710   5.279   4.189  14.102  0.4142  0.1357  0.4832
13740TIP3    H162711   5.263   4.273  14.145 -0.0549 -0.7608  2.1573
13740TIP3    H262712   5.203   4.177  14.044  0.5311  0.8885  0.1670
13741TIP3   OH262713   2.926   3.391   6.913 -0.1175 -0.6398 -0.1636
13741TIP3    H162714   2.888   3.306   6.938  1.0425 -1.6942 -1.7979
13741TIP3    H262715   2.998   3.369   6.855  0.1373  1.4983 -0.7389
13742TIP3   OH262716   0.845   3.215  14.327 -0.2585 -0.5669  0.4101
13742TIP3    H162717   0.920   3.162  14.302 -0.8896 -2.3888  2.0392
13742TIP3    H262718   0.774   3.184  14.270 -0.1716 -0.0355  0.0074
13743TIP3   OH262719   0.459   4.313   2.480  0.2140 -0.0720 -0.4486
13743TIP3    H162720   0.368   4.287   2.465 -0.6800  1.4624  1.7728
13743TIP3    H262721   0.487   4.259   2.554  0.5924  0.5250 -0.1527
13744TIP3   OH262722   5.758   1.893  14.813  0.2020 -0.3250 -0.2046
13744TIP3    H162723   5.804   1.839  14.878  0.4408  1.2535  0.9926
13744TIP3    H262724   5.710   1.830  14.760  0.0067 -1.6899  1.4930
13745TIP3   OH262725   2.290   5.198   0.869 -0.0902 -0.6760  0.3511
13745TIP3    H162726   2.364   5.154   0.910 -2.1838 -4.1314  0.8436
13745TIP3    H262727   2.278   5.152   0.786 -0.5266  1.1495 -0.6456
13746TIP3   OH262728   6.420   1.094   0.178 -0.0738  0.4466 -0.2502
13746TIP3    H162729   6.410   1.056   0.266 -0.5549  2.7316  0.7758
13746TIP3    H262730   6.514   1.110   0.170  0.1277 -0.8830 -0.6817
13747TIP3   OH262731   2.020   3.609  13.989  0.3223 -0.6740 -0.1812
13747TIP3    H162732   2.040   3.638  14.078 -0.2457 -0.2616 -0.1891
13747TIP3    H262733   2.076   3.662  13.933  1.2726 -1.4847 -0.0331
13748TIP3   OH262734   4.919   6.072  15.835 -0.6285  0.2262 -0.3471
13748TIP3    H162735   4.995   6.118  15.797 -0.5775  1.0549  0.7166
13748TIP3    H262736   4.846   6.131  15.819 -0.3308  1.4111  2.2677
13749TIP3   OH262737   2.211   0.959  15.450  0.0911  0.0972  0.5541
13749TIP3    H162738   2.162   1.030  15.490  0.6049  0.2011  1.0212
13749TIP3    H262739   2.274   1.002  15.391 -1.4234 -0.0956 -1.3042
13750TIP3   OH262740   6.788   3.971   4.811 -0.6686  0.0208 -0.1794
13750TIP3    H162741   6.712   3.998   4.863 -0.8422  1.5080 -1.1183
13750TIP3    H262742   6.863   3.985   4.869 -1.0254 -0.5415  0.4294
13751TIP3   OH262743   0.396   3.138  11.110 -0.3512 -0.0905  0.3068
13751TIP3    H162744   0.334   3.117  11.040 -1.2206 -0.3555  1.1309
13751TIP3    H262745   0.390   3.064  11.170 -0.7750  0.8315  1.4374
13752TIP3   OH262746   5.864   4.352   4.975  0.4557  0.1631 -0.0348
13752TIP3    H162747   5.820   4.388   4.898  1.5470  1.4495 -0.1060
13752TIP3    H262748   5.797   4.300   5.019 -0.6363  0.6870 -1.0225
13753TIP3   OH262749   6.043   4.154  13.889 -0.0389  0.1305 -0.4847
13753TIP3    H162750   6.007   4.164  13.801 -0.4843  1.2166 -0.1961
13753TIP3    H262751   5.970   4.170  13.948  0.6556  1.3084  0.0968
13754TIP3   OH262752   2.044   2.923  11.416  0.2749 -0.5579 -0.7043
13754TIP3    H162753   2.087   2.978  11.351  1.2372 -2.0191 -1.3660
13754TIP3    H262754   1.951   2.924  11.390  0.5829 -0.8015 -1.9023
13755TIP3   OH262755   6.587   5.964   0.504 -0.0753 -0.4644 -0.2952
13755TIP3    H162756   6.594   6.045   0.556  0.9960 -0.1801 -0.8496
13755TIP3    H262757   6.589   5.894   0.569  0.0687 -0.0774  0.1229
13756TIP3   OH262758   1.266   1.447   2.209  0.9377  0.0737  0.3205
13756TIP3    H162759   1.183   1.450   2.256 -0.4079  0.5590 -1.9448
13756TIP3    H262760   1.305   1.363   2.235 -1.4889 -1.4051 -0.4980
13757TIP3   OH262761   1.782   3.854  13.990 -0.1432 -0.0793  0.1651
13757TIP3    H162762   1.761   3.765  13.961 -0.3210  0.1126 -0.3155
13757TIP3    H262763   1.838   3.842  14.066  1.3942 -0.6083 -0.9962
13758TIP3   OH262764   0.850   2.580  12.541  0.1168 -0.0637 -0.2716
13758TIP3    H162765   0.811   2.494  12.526  0.6478 -0.4830  0.6643
13758TIP3    H262766   0.819   2.633  12.468 -1.7683 -0.5173  0.1463
13759TIP3   OH262767   0.558   2.643   1.079 -0.0325 -0.1833 -0.6143
13759TIP3    H162768   0.569   2.682   1.165  2.2367 -1.2471 -0.3673
13759TIP3    H262769   0.486   2.693   1.039 -0.6158  0.8229  1.5690
13760TIP3   OH262770   3.009   4.643   3.028  0.3581  0.0008  0.6932
13760TIP3    H162771   2.983   4.705   2.960  0.0828 -0.5112  0.3273
13760TIP3    H262772   2.978   4.683   3.109 -0.2052  0.1413  0.4156
13761TIP3   OH262773   4.498   1.218  16.487  0.1046  0.3169 -0.3866
13761TIP3    H162774   4.564   1.252  16.548 -1.7639  2.4560  0.6049
13761TIP3    H262775   4.457   1.146  16.534  0.4436  0.2307 -0.2179
13762TIP3   OH262776   1.267   5.262  12.462  0.9872 -0.1698 -0.4396
13762TIP3    H162777   1.199   5.330  12.469  0.7727 -0.2891 -1.1978
13762TIP3    H262778   1.257   5.229  12.372  1.5497 -0.7198 -0.3004
13763TIP3   OH262779   1.737   0.426  15.862  0.1257  0.9721 -0.2455
13763TIP3    H162780   1.827   0.404  15.840  0.1388  0.5525  0.2043
13763TIP3    H262781   1.686   0.349  15.839 -0.3014  1.6310 -1.5825
13764TIP3   OH262782   0.922   0.298   0.780  0.1241  0.5272  0.5062
13764TIP3    H162783   0.966   0.261   0.857 -0.7226  1.1644  1.3105
13764TIP3    H262784   0.932   0.230   0.712 -1.5443 -1.2994  1.9748
13765TIP3   OH262785   5.491   2.155   6.298 -0.4908  0.2358  0.0742
13765TIP3    H162786   5.512   2.163   6.391  0.1463 -0.3909 -0.0125
13765TIP3    H262787   5.567   2.192   6.253 -1.3999  1.8719 -0.1988
13766TIP3   OH262788   0.812   1.967  17.167  0.1413  0.0686  0.2072
13766TIP3    H162789   0.807   1.949  17.261 -0.9093  0.2813  0.1965
13766TIP3    H262790   0.906   1.976  17.150  0.3334  0.1701  1.2596
13767TIP3   OH262791   5.251   5.345  13.422  0.1680  0.3356 -0.4075
13767TIP3    H162792   5.169   5.338  13.374 -1.0336 -2.2618  1.7715
13767TIP3    H262793   5.313   5.291  13.372 -0.8005 -1.5371  0.3124
13768TIP3   OH262794   4.140   6.097  17.045 -0.2510 -0.4384 -0.1113
13768TIP3    H162795   4.234   6.106  17.034 -0.3022 -0.2855 -0.4289
13768TIP3    H262796   4.123   6.129  17.133  0.3322 -2.8757  0.9797
13769TIP3   OH262797   1.288   3.740   4.336 -0.1457 -1.1661  0.2468
13769TIP3    H162798   1.316   3.694   4.416 -1.3846 -1.2974  0.6291
13769TIP3    H262799   1.211   3.790   4.364  1.5425  1.7709  0.0489
13770TIP3   OH262800   0.128   5.975  14.660 -0.8433 -0.2520 -0.2667
13770TIP3    H162801   0.221   5.994  14.671 -1.0423  0.8861 -0.4072
13770TIP3    H262802   0.115   5.975  14.565 -0.8306 -1.2732 -0.2791
13771TIP3   OH262803   5.306   3.724  15.359 -0.3626 -0.0386 -0.5751
13771TIP3    H162804   5.381   3.666  15.353  0.0051  0.2456  0.8023
13771TIP3    H262805   5.239   3.684  15.304  0.2707 -1.1394 -0.5644
13772TIP3   OH262806   6.520   3.238   4.580 -0.1717 -0.4828 -0.4328
13772TIP3    H162807   6.600   3.212   4.535 -0.3067  0.4052 -1.2272
13772TIP3    H262808   6.517   3.333   4.571 -1.6734 -0.5570 -1.0671
13773TIP3   OH262809   0.445   1.915  11.237 -0.6493  0.2914  0.4676
13773TIP3    H162810   0.478   1.947  11.153  1.4658 -1.9160  0.3268
13773TIP3    H262811   0.394   1.837  11.215  0.3787 -0.6236  1.2124
13774TIP3   OH262812   3.466   2.359   4.965 -0.3625 -0.2419  0.1366
13774TIP3    H162813   3.426   2.438   5.000 -0.7677 -0.1236 -0.5899
13774TIP3    H262814   3.555   2.359   5.002 -1.0213 -0.5450  1.8120
13775TIP3   OH262815   3.907   6.576   5.278 -0.6156 -0.2066 -0.1176
13775TIP3    H162816   3.968   6.632   5.326 -0.0907 -0.8726  0.0014
13775TIP3    H262817   3.892   6.623   5.196  0.2862 -0.1706 -0.2733
13776TIP3   OH262818   5.349   0.373   2.403  0.1106 -0.3798  0.2145
13776TIP3    H162819   5.299   0.411   2.476  0.5041  0.9482 -0.1708
13776TIP3    H262820   5.412   0.441   2.380 -1.0158 -0.1120 -2.3660
13777TIP3   OH262821   1.167   5.508  14.385  0.1014 -0.0955  0.0690
13777TIP3    H162822   1.186   5.414  14.390  2.2074  0.2151 -0.7392
13777TIP3    H262823   1.199   5.534  14.298 -1.7516  1.1242 -0.2935
13778TIP3   OH262824   2.170   1.194   4.939 -0.0242 -0.0802 -0.0008
13778TIP3    H162825   2.177   1.215   5.032  3.4364  2.0298 -0.5757
13778TIP3    H262826   2.096   1.247   4.908 -1.4852 -1.1169  1.5292
13779TIP3   OH262827   6.532   0.814  14.420  0.3528 -0.0472 -0.7013
13779TIP3    H162828   6.614   0.768  14.438  0.9156  1.2294  0.1540
13779TIP3    H262829   6.516   0.799  14.327  0.1326 -2.5172 -0.3432
13780TIP3   OH262830   5.054   4.640   5.394 -0.2485 -0.3739  0.1980
13780TIP3    H162831   5.144   4.657   5.424  0.7370 -1.0359 -2.1352
13780TIP3    H262832   5.022   4.725   5.364  0.3640 -0.4661 -0.7710
13781TIP3   OH262833   0.587   2.702   4.372  0.8712 -0.2189  0.6819
13781TIP3    H162834   0.521   2.771   4.375  0.8341 -0.2933  2.0578
13781TIP3    H262835   0.596   2.681   4.278 -0.8268  0.0031  0.4442
13782TIP3   OH262836   5.791   6.550  13.615  0.0151  0.1182 -0.3827
13782TIP3    H162837   5.755   6.563  13.527  0.6497  1.8400 -0.4218
13782TIP3    H262838   5.728   6.593  13.673  0.2666  0.1457 -0.1262
13783TIP3   OH262839   4.072   1.911  17.053  0.1256  0.1125 -0.6875
13783TIP3    H162840   4.091   1.897  17.145 -2.5335 -0.6815 -0.1747
13783TIP3    H262841   4.095   2.003  17.037  2.3431 -0.2319  0.2269
13784TIP3   OH262842   5.761   0.633  15.602 -0.3116  0.3734  0.3588
13784TIP3    H162843   5.681   0.636  15.549 -1.0659  0.4349  1.4614
13784TIP3    H262844   5.760   0.547  15.642 -0.3361  0.7177  1.1194
13785TIP3   OH262845   0.985   6.588   2.635  0.5200 -0.1312 -0.1118
13785TIP3    H162846   0.955   6.655   2.573  0.4405  1.4820  1.5749
13785TIP3    H262847   1.050   6.633   2.689 -0.8527 -0.8274  2.2676
13786TIP3   OH262848   2.176   3.148   2.810 -0.0127 -0.3619 -0.6546
13786TIP3    H162849   2.202   3.201   2.735  0.9360  3.5147  2.0991
13786TIP3    H262850   2.258   3.134   2.858 -0.9340 -0.3836  0.9830
13787TIP3   OH262851   5.909   1.331   3.144 -0.1823 -0.2104 -0.1442
13787TIP3    H162852   5.916   1.363   3.234  1.2895  0.3186 -0.4169
13787TIP3    H262853   5.829   1.371   3.111  1.5888  3.4756 -0.5000
13788TIP3   OH262854   2.937   3.644   2.262  0.3899 -0.0638 -0.3769
13788TIP3    H162855   2.945   3.645   2.358  0.0609 -1.9649 -0.2955
13788TIP3    H262856   2.906   3.732   2.240 -0.4147  0.1238  1.3502
13789TIP3   OH262857   3.948   3.743  16.958 -0.2818 -0.0041 -0.0003
13789TIP3    H162858   3.874   3.770  17.012  0.3214 -0.3188  1.0254
13789TIP3    H262859   4.022   3.743  17.019  0.4219 -0.3422 -0.8457
13790TIP3   OH262860   0.940   1.170   1.573 -0.3611 -0.0231  0.1770
13790TIP3    H162861   0.909   1.217   1.651 -1.3533 -0.0508 -0.1888
13790TIP3    H262862   0.861   1.138   1.531 -0.0387  1.7704 -1.9977
13791TIP3   OH262863   0.007   4.518   5.342  0.4102 -0.0533 -0.0400
13791TIP3    H162864  -0.036   4.599   5.370 -2.2782 -0.6895 -2.0321
13791TIP3    H262865   0.044   4.539   5.256 -1.2679 -1.1663 -1.0817
13792TIP3   OH262866   5.549   2.268  16.856 -0.2825 -0.1969 -0.2912
13792TIP3    H162867   5.538   2.328  16.929  2.2457  0.7662 -0.6085
13792TIP3    H262868   5.588   2.190  16.894  1.4091  0.4545 -0.5809
13793TIP3   OH262869   3.610   3.209  11.011  0.7461  0.0449 -0.1195
13793TIP3    H162870   3.676   3.223  11.080 -0.4240 -1.1223  1.3033
13793TIP3    H262871   3.527   3.229  11.054  0.0385 -0.0753 -1.4062
13794TIP3   OH262872   1.017   0.721  13.792  0.7527  0.1613 -0.2876
13794TIP3    H162873   0.954   0.774  13.841  0.0129 -1.1387  0.2415
13794TIP3    H262874   1.023   0.763  13.706  0.2474  1.1197  0.1369
13795TIP3   OH262875   2.547   6.701   3.370  0.0697  0.1919  1.2833
13795TIP3    H162876   2.617   6.712   3.434 -0.2208  0.5789  1.5332
13795TIP3    H262877   2.578   6.630   3.313  0.6860  0.3944  1.3618
13796TIP3   OH262878   6.729   2.342   1.242  0.3663  0.4797 -0.2958
13796TIP3    H162879   6.754   2.389   1.321  1.1632  2.0813 -1.4502
13796TIP3    H262880   6.727   2.250   1.269 -0.2528  1.0494  1.7752
13797TIP3   OH262881   5.396   3.269  16.044  0.1132 -0.3183  0.1233
13797TIP3    H162882   5.325   3.333  16.038  2.1920  2.0948 -0.7077
13797TIP3    H262883   5.415   3.263  16.137 -0.6215 -0.3402  0.2756
13798TIP3   OH262884   3.092   0.132  16.348 -0.5131  0.0102 -0.2874
13798TIP3    H162885   3.055   0.052  16.384  0.6259  0.4178  1.9749
13798TIP3    H262886   3.031   0.201  16.377  0.6742  0.4014  1.4170
13799TIP3   OH262887   6.516   6.426  14.583 -0.1243 -0.4797  0.5614
13799TIP3    H162888   6.588   6.484  14.607 -0.5479 -0.2314  1.2500
13799TIP3    H262889   6.453   6.483  14.538  0.5899 -0.9059 -1.0710
13800TIP3   OH262890   1.242   4.603  10.864 -0.3114 -0.3457 -0.2744
13800TIP3    H162891   1.161   4.561  10.891  0.8908 -1.3852  1.9864
13800TIP3    H262892   1.275   4.548  10.793 -0.0082 -1.8449  0.9787
13801TIP3   OH262893   0.249   2.188  17.342 -0.1715 -0.0269 -0.4090
13801TIP3    H162894   0.313   2.216  17.407  2.5096  0.5380 -3.0648
13801TIP3    H262895   0.203   2.268  17.317 -2.4455 -0.5041  1.8365
13802TIP3   OH262896   0.968   4.928   1.099  0.1234  0.1370 -0.3108
13802TIP3    H162897   0.936   5.017   1.083 -1.3383 -0.1355  0.8545
13802TIP3    H262898   0.891   4.879   1.126  1.0492 -1.2905 -0.1478
13803TIP3   OH262899   1.833   2.551   6.568 -0.3070 -0.2476 -0.7037
13803TIP3    H162900   1.821   2.494   6.492 -1.9788 -1.9854  0.7627
13803TIP3    H262901   1.859   2.492   6.638  0.2645  1.1698  0.3159
13804TIP3   OH262902   0.296   6.383  16.880 -0.6521  0.2406  0.4372
13804TIP3    H162903   0.282   6.291  16.857 -1.1818  0.3714  0.2117
13804TIP3    H262904   0.390   6.389  16.897 -0.5389 -0.2519  0.0399
13805TIP3   OH262905   3.798   3.171   0.061 -0.0309  0.2249  0.2534
13805TIP3    H162906   3.713   3.178   0.019  0.5438  1.1545 -0.7971
13805TIP3    H262907   3.836   3.090   0.025  0.1908  0.6746 -0.5487
13806TIP3   OH262908   5.450   2.731   4.878 -0.2895 -0.8178  0.1143
13806TIP3    H162909   5.393   2.805   4.900 -0.5359 -1.1852  0.7321
13806TIP3    H262910   5.474   2.746   4.786 -2.6112 -1.4595 -0.6547
13807TIP3   OH262911   3.863   3.679  14.343  0.1459 -0.0313 -0.2628
13807TIP3    H162912   3.831   3.765  14.369  1.2385  0.1264  0.6363
13807TIP3    H262913   3.788   3.637  14.301 -0.5383  1.1721 -0.2943
13808TIP3   OH262914   5.207   5.388   0.511  0.2818 -0.2555  0.3133
13808TIP3    H162915   5.118   5.370   0.482  0.2003  0.0717  0.3554
13808TIP3    H262916   5.258   5.311   0.483 -0.0238 -0.4691  0.3496
13809TIP3   OH262917   6.655   4.859   1.031 -0.4306  0.1613  0.3425
13809TIP3    H162918   6.622   4.777   0.994 -0.8431  0.9595 -1.1341
13809TIP3    H262919   6.738   4.874   0.987 -0.4122  0.5938  0.5132
13810TIP3   OH262920   6.166   1.938  16.727  0.6260  0.2597 -0.0039
13810TIP3    H162921   6.239   1.883  16.755  1.3018  0.9621 -0.3288
13810TIP3    H262922   6.088   1.885  16.742  1.1464 -0.2430  1.0138
13811TIP3   OH262923   3.324   1.808   6.218  0.5481 -0.1060  0.4880
13811TIP3    H162924   3.383   1.854   6.277 -1.7369  0.1408  2.7814
13811TIP3    H262925   3.263   1.876   6.188 -1.0536 -0.9897  1.5459
13812TIP3   OH262926   1.118   2.549   2.733  0.3458 -0.1180 -0.3747
13812TIP3    H162927   1.054   2.614   2.763  1.1863  0.7753 -0.4776
13812TIP3    H262928   1.105   2.475   2.792 -0.4455  0.2401 -0.0804
13813TIP3   OH262929   1.300   5.157   5.559  0.3218 -0.1038 -0.8438
13813TIP3    H162930   1.385   5.183   5.596 -0.1207  1.5957 -0.9652
13813TIP3    H262931   1.239   5.163   5.632  0.2559 -1.2538 -0.7775
13814TIP3   OH262932   6.425   5.593  10.989  0.8712  0.1651  0.3343
13814TIP3    H162933   6.379   5.670  11.022  0.4968 -0.6374  1.7207
13814TIP3    H262934   6.458   5.621  10.903 -0.2363  1.4883  0.3045
13815TIP3   OH262935   4.765   2.937   6.169  0.4516  0.3944  0.1412
13815TIP3    H162936   4.768   3.029   6.193 -0.5532  0.0194  1.8829
13815TIP3    H262937   4.673   2.913   6.176  0.6968 -0.7616 -0.2776
13816TIP3   OH262938   4.039   0.764   0.307 -0.3481  0.2003 -0.3529
13816TIP3    H162939   3.969   0.781   0.370 -0.2251 -0.7028  0.0447
13816TIP3    H262940   4.092   0.695   0.349  1.7628  2.0097  0.1363
13817TIP3   OH262941   4.975   3.334  12.402  0.5646 -0.4540 -0.1928
13817TIP3    H162942   4.967   3.323  12.307 -2.5857 -0.9286  0.0273
13817TIP3    H262943   5.060   3.296  12.424  1.4782 -0.1346 -2.8103
13818TIP3   OH262944   0.795   1.774  14.338  0.3655 -0.1484 -0.0315
13818TIP3    H162945   0.709   1.740  14.314 -0.9976  1.7959  1.7450
13818TIP3    H262946   0.827   1.816  14.258  0.4357 -2.2030 -1.1634
13819TIP3   OH262947   2.654   2.040   2.878  0.2005 -0.2848  0.6805
13819TIP3    H162948   2.569   2.015   2.841 -0.2161 -0.7787  1.9348
13819TIP3    H262949   2.714   1.973   2.846 -0.0172 -0.3388  0.3773
13820TIP3   OH262950   5.805   1.682  16.286  0.6916  0.3421 -0.4058
13820TIP3    H162951   5.835   1.679  16.195 -1.8419 -0.7160 -1.3044
13820TIP3    H262952   5.869   1.628  16.334  0.9565 -0.7943 -1.9481
13821TIP3   OH262953   4.101   1.358  14.503 -0.4351 -0.5363  0.5847
13821TIP3    H162954   4.073   1.426  14.442 -0.9582 -0.8592  0.4595
13821TIP3    H262955   4.095   1.399  14.589  0.8908  0.1160  0.3804
13822TIP3   OH262956   0.253   1.717   0.057 -0.5552  0.4799  0.2508
13822TIP3    H162957   0.197   1.762  -0.006 -0.6875  1.2911  0.9275
13822TIP3    H262958   0.325   1.681   0.004 -2.1933 -1.4763 -0.7918
13823TIP3   OH262959   6.215   6.326  14.326  0.1740 -0.2690  1.2884
13823TIP3    H162960   6.223   6.234  14.299  0.2433  0.0802  0.0317
13823TIP3    H262961   6.246   6.375  14.250  2.1418  0.7774  2.6916
13824TIP3   OH262962   3.660   0.727   4.233 -0.2701  0.8602 -0.1684
13824TIP3    H162963   3.711   0.752   4.309  2.2423 -2.9807 -0.3388
13824TIP3    H262964   3.717   0.744   4.158 -0.1311 -1.2281 -0.5849
13825TIP3   OH262965   5.421   6.440   3.373  0.4228 -0.4196 -0.2774
13825TIP3    H162966   5.363   6.380   3.420 -0.8779  0.7683 -0.2900
13825TIP3    H262967   5.473   6.384   3.316 -0.9944 -1.5224 -0.5500
13826TIP3   OH262968   5.361   3.012   2.643 -0.3628  0.6651 -0.0691
13826TIP3    H162969   5.455   3.013   2.662 -0.3623  2.1044 -0.0390
13826TIP3    H262970   5.324   3.077   2.703 -1.7153 -1.3879  1.4422
13827TIP3   OH262971   1.784   3.787  12.676  0.5053  0.0528  0.1472
13827TIP3    H162972   1.776   3.692  12.673 -1.0950  0.1860 -0.8960
13827TIP3    H262973   1.805   3.813  12.586  0.8950  0.6931  0.4139
13828TIP3   OH262974   2.046   2.759   1.617  0.0980  0.9817 -0.4737
13828TIP3    H162975   1.977   2.773   1.681 -0.1283 -0.1773 -0.4442
13828TIP3    H262976   2.009   2.790   1.534 -0.6926 -0.1456 -0.5677
13829TIP3   OH262977   5.757   3.380   6.442  0.1476  0.2199 -0.7685
13829TIP3    H162978   5.689   3.440   6.473  0.6711 -0.2422  1.4782
13829TIP3    H262979   5.720   3.293   6.456  1.1561 -0.0342  0.4990
13830TIP3   OH262980   0.354   2.445  13.020  0.2234 -0.2386  0.0975
13830TIP3    H162981   0.387   2.514  12.962 -0.3903 -0.5296 -0.6304
13830TIP3    H262982   0.374   2.475  13.108  0.6658  0.4963 -0.2440
13831TIP3   OH262983   0.570   0.177   4.326  0.5211 -0.7103 -0.2372
13831TIP3    H162984   0.608   0.127   4.399 -0.2246  0.9831  1.4021
13831TIP3    H262985   0.479   0.148   4.322  0.8458 -1.6392 -1.3052
13832TIP3   OH262986   5.336   0.851   3.250 -0.0936  0.0971 -0.2124
13832TIP3    H162987   5.300   0.786   3.311 -2.6292 -0.8133 -2.4441
13832TIP3    H262988   5.417   0.812   3.219 -1.0936 -1.6346 -0.8034
13833TIP3   OH262989   2.045   3.695   3.274  0.2590 -0.6017 -0.0120
13833TIP3    H162990   2.058   3.670   3.366  1.9003 -1.3758 -0.4157
13833TIP3    H262991   2.003   3.618   3.235  0.0092 -0.4618 -0.0194
13834TIP3   OH262992   6.052   5.513   0.073 -0.6163  0.0303 -0.9539
13834TIP3    H162993   6.049   5.597   0.119 -1.8206 -0.3384 -0.3121
13834TIP3    H262994   6.007   5.452   0.132  2.3854 -1.6807 -0.2251
13835TIP3   OH262995   0.381   5.173  14.031  0.1195 -0.3657  0.2546
13835TIP3    H162996   0.445   5.195  13.963 -0.1409  0.1837  0.1774
13835TIP3    H262997   0.406   5.086  14.060  1.7285  0.3480  1.1560
13836TIP3   OH262998   4.636   5.471   5.981  0.4832  0.1911  0.4701
13836TIP3    H162999   4.549   5.436   6.000 -0.8811  2.1612 -1.6669
13836TIP3    H263000   4.638   5.556   6.025  1.9464 -0.3919  1.6629
13837TIP3   OH263001   3.943   4.493  14.765 -0.5130  0.4881  0.2067
13837TIP3    H163002   3.924   4.415  14.712  0.8751  0.1106  0.2396
13837TIP3    H263003   3.859   4.538  14.771 -1.2456 -0.7675 -0.2041
13838TIP3   OH263004   5.942   5.297  17.188  0.4983 -0.3242  0.1725
13838TIP3    H163005   5.866   5.317  17.242  1.3452 -0.4586  1.4559
13838TIP3    H263006   6.013   5.350  17.225  1.1413 -0.5203 -0.7276
13839TIP3   OH263007   1.983   6.059   0.059 -0.3860 -0.1595  0.3623
13839TIP3    H163008   1.947   6.122   0.121  0.8302  0.2752  0.6591
13839TIP3    H263009   1.999   5.980   0.110  0.9208  0.3044  0.7111
13840TIP3   OH263010   0.630   2.499   0.629 -0.1081  0.1612 -0.4745
13840TIP3    H163011   0.558   2.442   0.654 -0.6037 -0.1419 -2.3708
13840TIP3    H263012   0.597   2.587   0.643  0.6091  0.0595  2.3341
13841TIP3   OH263013   3.117   0.726  12.179  0.3558 -0.0265 -0.1837
13841TIP3    H163014   3.188   0.664  12.161 -0.1010 -0.0737 -2.0394
13841TIP3    H263015   3.142   0.805  12.130  0.0900  0.6632  0.7711
13842TIP3   OH263016   1.946   2.094  17.093  0.4740  0.0113  0.1783
13842TIP3    H163017   2.009   2.052  17.034  2.0244  1.1438  0.9705
13842TIP3    H263018   1.934   2.182  17.056 -0.0082  0.0904  0.5159
13843TIP3   OH263019   1.359   4.467  14.010 -0.1111 -0.2772 -0.3710
13843TIP3    H163020   1.444   4.489  13.973 -0.1528  3.0862  1.1906
13843TIP3    H263021   1.372   4.473  14.105 -1.4655 -2.5289  0.0274
13844TIP3   OH263022   0.047   0.804  13.796 -0.2609  0.5362  0.0964
13844TIP3    H163023   0.052   0.898  13.815 -1.1640  1.5534 -3.8128
13844TIP3    H263024   0.137   0.780  13.771 -0.3098  0.7241 -0.2657
13845TIP3   OH263025   0.485   2.018  16.055  0.1920 -0.2784 -0.5423
13845TIP3    H163026   0.424   1.985  15.990 -2.1231  0.6329  1.0463
13845TIP3    H263027   0.467   1.967  16.134  0.9974  0.4950  0.1694
13846TIP3   OH263028   1.833   5.951  14.218 -0.0945  0.5794  0.6597
13846TIP3    H163029   1.877   5.976  14.137 -0.2542 -0.9644  0.0700
13846TIP3    H263030   1.837   6.030  14.273  0.2491  1.5659 -0.7332
13847TIP3   OH263031   1.810   0.595   4.660  0.0761  0.6262 -0.0955
13847TIP3    H163032   1.797   0.540   4.583 -0.5701 -1.6851  1.5727
13847TIP3    H263033   1.722   0.617   4.690  0.2900  0.2495  0.8333
13848TIP3   OH263034   0.429   5.600   5.259  0.5452 -0.3193 -0.3106
13848TIP3    H163035   0.380   5.675   5.225  1.0642 -0.2141 -0.8327
13848TIP3    H263036   0.430   5.613   5.353 -2.1699 -1.3444 -0.0237
13849TIP3   OH263037   1.926   4.996  10.480 -0.5054 -0.5651  0.8070
13849TIP3    H163038   1.902   5.036  10.564 -1.9736  0.8727 -0.2413
13849TIP3    H263039   1.842   4.976  10.439  0.1787 -3.0572  0.4622
13850TIP3   OH263040   0.517   4.287   0.591  0.2472 -0.2044 -0.0526
13850TIP3    H163041   0.604   4.260   0.562 -0.1383 -0.9655 -0.5344
13850TIP3    H263042   0.460   4.213   0.569 -0.8817  1.0238 -1.5011
13851TIP3   OH263043   1.147   4.289   3.121 -0.1384 -0.2873 -0.1730
13851TIP3    H163044   1.158   4.249   3.207 -2.0687  0.7287  0.6105
13851TIP3    H263045   1.223   4.260   3.071  0.9427 -1.0473  1.8084
13852TIP3   OH263046   1.767   3.621   4.326  0.3711 -0.5486 -0.5604
13852TIP3    H163047   1.745   3.714   4.314  1.6821 -0.3968 -2.2762
13852TIP3    H263048   1.685   3.574   4.309 -0.3532  0.2812  0.5178
13853TIP3   OH263049   2.195   0.376   5.403  0.4236  0.0605  0.0524
13853TIP3    H163050   2.139   0.386   5.326  0.3155  0.8672  0.2376
13853TIP3    H263051   2.141   0.404   5.477  0.6193 -0.4553  0.3954
13854TIP3   OH263052   3.398   2.620   6.249  0.1885  0.1591 -1.0212
13854TIP3    H163053   3.340   2.568   6.305 -0.5290  0.8531 -1.1009
13854TIP3    H263054   3.463   2.656   6.310  0.1837 -0.1481 -0.8346
13855TIP3   OH263055   4.689   1.521  15.393  0.0138 -0.0868 -0.5126
13855TIP3    H163056   4.647   1.451  15.343 -0.0679  0.1114 -0.7207
13855TIP3    H263057   4.732   1.476  15.466 -1.2797 -0.2075  0.1995
13856TIP3   OH263058   4.944   4.902   5.152  0.1723  0.5777  0.2616
13856TIP3    H163059   4.891   4.919   5.230  1.2293  0.0977  1.1181
13856TIP3    H263060   4.912   4.964   5.087 -1.5905  0.1498  0.6572
13857TIP3   OH263061   2.819   1.835  12.102  0.1359  0.4077  0.4051
13857TIP3    H163062   2.764   1.817  12.025 -2.5156  0.3197  2.1880
13857TIP3    H263063   2.778   1.911  12.143  2.3689  1.3514  1.0134
13858TIP3   OH263064   3.885   6.055   4.749  0.8619 -0.0316 -0.2045
13858TIP3    H163065   3.900   6.044   4.843  0.6864  1.5299  0.0353
13858TIP3    H263066   3.959   6.108   4.719  2.2729 -2.5393 -1.4848
13859TIP3   OH263067   1.087   3.281   5.845  0.5268 -0.2095 -0.9226
13859TIP3    H163068   1.103   3.240   5.930  0.8840 -1.6121 -1.6387
13859TIP3    H263069   0.992   3.273   5.832  0.3774  0.5747 -0.3972
13860TIP3   OH263070   4.886   2.567  14.897 -0.5789  0.2154  0.4179
13860TIP3    H163071   4.937   2.622  14.956 -1.5234  0.8351  0.6786
13860TIP3    H263072   4.817   2.625  14.864 -0.2769 -0.2039 -1.0405
13861TIP3   OH263073   4.868   1.432   3.410 -0.0539 -0.0088  0.5178
13861TIP3    H163074   4.855   1.446   3.317 -2.0636  1.1947  0.9370
13861TIP3    H263075   4.957   1.396   3.416 -0.2838 -1.1917 -1.9239
13862TIP3   OH263076   1.442   2.987  15.061  0.4734 -0.0517 -0.1191
13862TIP3    H163077   1.426   3.036  15.142  0.6462  0.5641 -0.4519
13862TIP3    H263078   1.523   3.025  15.027  0.4907 -0.4279 -0.4962
13863TIP3   OH263079   0.730   5.230   2.111 -0.2384 -0.8175  0.1269
13863TIP3    H163080   0.735   5.195   2.200 -0.6006 -0.8832  0.1239
13863TIP3    H263081   0.744   5.324   2.121  0.0469 -0.8703  0.2165
13864TIP3   OH263082   5.236   3.304  11.403 -0.2206  0.4660  0.1167
13864TIP3    H163083   5.211   3.212  11.404  0.8751  0.1533  2.0436
13864TIP3    H263084   5.152   3.351  11.401 -0.7921 -0.5386 -0.8335
13865TIP3   OH263085   3.254   5.941  12.702 -0.2969 -0.1312 -0.5646
13865TIP3    H163086   3.288   5.920  12.788 -2.6051 -1.8082  0.0453
13865TIP3    H263087   3.319   5.999  12.663  1.6162 -0.6849  1.6274
13866TIP3   OH263088   5.205   4.535  12.485 -0.1537  0.1138 -0.3659
13866TIP3    H163089   5.200   4.465  12.420  0.7740 -0.0542 -0.2669
13866TIP3    H263090   5.200   4.489  12.569  1.5494  0.0474 -0.2797
13867TIP3   OH263091   4.826   3.893   4.438  0.1101 -0.2176  0.4228
13867TIP3    H163092   4.876   3.836   4.496  0.9056 -0.6240 -0.6328
13867TIP3    H263093   4.791   3.834   4.371  0.1729  0.4039 -0.1645
13868TIP3   OH263094   6.615   0.225   6.628  0.5080  0.3231  0.4610
13868TIP3    H163095   6.658   0.220   6.713  1.2174 -0.6398  0.0697
13868TIP3    H263096   6.617   0.135   6.595  0.1780  0.6655 -0.5310
13869TIP3   OH263097   1.925   1.791  13.949  0.5888 -0.3293 -0.8448
13869TIP3    H163098   1.968   1.729  14.008  1.0538 -0.5483 -1.3992
13869TIP3    H263099   1.997   1.841  13.910  0.4765 -1.5115 -2.6855
13870TIP3   OH263100   1.181   4.359  10.573  0.0421 -0.2203 -0.2868
13870TIP3    H163101   1.219   4.445  10.557  1.1852 -0.7641 -0.6341
13870TIP3    H263102   1.255   4.306  10.606 -1.3999 -0.0462  3.8950
13871TIP3   OH263103   5.166   5.030  12.880 -0.3767 -0.2236  0.4572
13871TIP3    H163104   5.232   4.967  12.850  0.7654  1.0024  0.3220
13871TIP3    H263105   5.216   5.110  12.899 -1.7215  0.4843  1.1356
13872TIP3   OH263106   6.556   4.859  13.210 -0.2436 -0.7945  0.5035
13872TIP3    H163107   6.490   4.808  13.256 -0.6472 -0.3986  0.3660
13872TIP3    H263108   6.555   4.823  13.121 -0.0366 -1.0121  0.5884
13873TIP3   OH263109   2.130   3.488   2.866  0.7251  0.3119 -0.0621
13873TIP3    H163110   2.110   3.470   2.958 -0.9089 -3.6641 -1.0097
13873TIP3    H263111   2.191   3.419   2.840 -1.8623 -1.1517 -2.8388
13874TIP3   OH263112   0.978   1.535  13.221 -0.1732  0.2504  0.1718
13874TIP3    H163113   0.971   1.495  13.308  0.7082 -0.9221 -0.2710
13874TIP3    H263114   0.924   1.614  13.227 -1.1550 -0.4645  1.3962
13875TIP3   OH263115   1.152   2.917   2.410  0.8764  0.0380 -0.0282
13875TIP3    H163116   1.102   2.972   2.469 -0.9686  0.2193 -1.6622
13875TIP3    H263117   1.220   2.975   2.375  0.5334  0.5658  0.1745
13876TIP3   OH263118   5.362   0.010   2.826  0.2505  0.2547 -0.3271
13876TIP3    H163119   5.449  -0.029   2.828  0.4000  0.5857 -0.1290
13876TIP3    H263120   5.340   0.023   2.918  0.3328  0.9068 -0.3936
13877TIP3   OH263121   0.237   3.228   3.157  0.0791  0.5072  0.1783
13877TIP3    H163122   0.227   3.309   3.207  1.6347 -0.0211  1.4185
13877TIP3    H263123   0.238   3.158   3.223 -1.0430 -0.5213 -0.8498
13878TIP3   OH263124   3.930   6.084  10.462  0.0049 -0.0171  0.2585
13878TIP3    H163125   3.925   6.019  10.532 -1.0041  1.0332  1.2200
13878TIP3    H263126   4.022   6.085  10.435  0.5371 -0.0207  1.9946
13879TIP3   OH263127   5.360   0.309   1.046 -0.2326 -0.1346  0.0262
13879TIP3    H163128   5.413   0.307   1.125 -2.1955  0.4294  1.4218
13879TIP3    H263129   5.376   0.396   1.009 -1.0425  0.4774  1.0748
13880TIP3   OH263130   3.527   2.571  15.234  0.1286  0.0718  0.5028
13880TIP3    H163131   3.465   2.500  15.217 -0.2605  0.2177  1.2721
13880TIP3    H263132   3.566   2.589  15.148  1.9243 -2.5968  0.6452
13881TIP3   OH263133   6.085   1.539  12.178  0.3081 -0.1226  0.3385
13881TIP3    H163134   6.048   1.582  12.256  0.4634  0.2260  0.2223
13881TIP3    H263135   6.009   1.525  12.121  0.6129  2.6660 -0.8949
13882TIP3   OH263136   1.658   3.016   2.917  0.2423 -0.1761 -0.0415
13882TIP3    H163137   1.644   3.012   2.822  1.8367  2.4314 -0.4715
13882TIP3    H263138   1.753   3.020   2.927  0.0704  1.9038  1.4811
13883TIP3   OH263139   3.404   6.791  16.263 -0.3387 -0.1256  0.0971
13883TIP3    H163140   3.450   6.798  16.346  0.2946  3.2938 -0.4025
13883TIP3    H263141   3.397   6.697  16.247  1.8171 -0.8413  2.7140
13884TIP3   OH263142   6.650   5.335  14.990 -0.1262 -0.3305 -0.0156
13884TIP3    H163143   6.638   5.305  15.080 -0.3308  1.1286  0.4660
13884TIP3    H263144   6.562   5.353  14.959 -0.1072 -1.3251 -0.7206
13885TIP3   OH263145   3.407   5.375  14.238 -0.1781  0.4220  0.1863
13885TIP3    H163146   3.439   5.307  14.178 -1.0471 -0.4509  0.6885
13885TIP3    H263147   3.322   5.401  14.201  0.4769  1.7911 -0.4159
13886TIP3   OH263148   6.176   5.129  10.862 -0.7731 -1.0610  0.4134
13886TIP3    H163149   6.210   5.157  10.777 -1.1065 -1.1695  0.2445
13886TIP3    H263150   6.236   5.059  10.890  1.7632  1.5531  2.1090
13887TIP3   OH263151   0.469   5.765   6.365  0.1789 -0.2184 -0.6128
13887TIP3    H163152   0.402   5.755   6.297  0.5024 -0.2257 -0.9308
13887TIP3    H263153   0.530   5.693   6.349 -0.0993 -0.6347  0.1021
13888TIP3   OH263154   3.777   5.666   5.646  1.0553  0.2501 -0.1113
13888TIP3    H163155   3.860   5.711   5.662  0.9387  0.3982  0.0752
13888TIP3    H263156   3.775   5.595   5.710  1.0421  0.2418 -0.1210
13889TIP3   OH263157   4.995   6.350   6.330  0.2545 -0.0389  0.3422
13889TIP3    H163158   5.005   6.355   6.425 -0.5950 -0.5300  0.4708
13889TIP3    H263159   4.912   6.394   6.313 -0.3484 -1.2790  0.0008
13890TIP3   OH263160   5.850   3.079   3.460  0.0196  0.1256  0.3088
13890TIP3    H163161   5.818   3.169   3.450  1.8475  0.9706  1.5282
13890TIP3    H263162   5.811   3.049   3.543 -0.0953  0.0156  0.2151
13891TIP3   OH263163   0.527   1.677  14.127 -0.2343 -0.2295 -0.3483
13891TIP3    H163164   0.501   1.590  14.099  0.3273 -0.6152  0.3021
13891TIP3    H263165   0.489   1.688  14.214  2.2141 -1.0809  0.9348
13892TIP3   OH263166   5.204   2.541   6.512 -0.6994  0.4650 -0.3502
13892TIP3    H163167   5.187   2.452   6.480 -1.8969  0.9188 -1.0439
13892TIP3    H263168   5.136   2.556   6.577 -0.6720  0.9666 -0.4352
13893TIP3   OH263169   6.155   4.732  11.842  0.1553  0.1017 -0.4522
13893TIP3    H163170   6.233   4.755  11.792  1.7662  2.4068  2.7868
13893TIP3    H263171   6.186   4.720  11.932 -2.9737 -0.9187  0.6358
13894TIP3   OH263172   2.092   6.570  12.790 -0.2690 -0.4830 -0.4162
13894TIP3    H163173   2.119   6.596  12.878 -1.8808  1.1490 -0.3428
13894TIP3    H263174   2.123   6.480  12.781  3.9427  0.6997  0.1037
13895TIP3   OH263175   1.023   3.606   5.864 -1.0133 -0.3887 -0.0444
13895TIP3    H163176   1.112   3.627   5.836 -0.8922  0.1128  0.6668
13895TIP3    H263177   1.000   3.527   5.815 -0.7244  0.2863 -1.3127
13896TIP3   OH263178   0.629   3.139  11.695 -0.2818  0.3672 -0.7093
13896TIP3    H163179   0.630   3.225  11.736 -0.8351  0.2267 -0.4072
13896TIP3    H263180   0.575   3.085  11.752  1.6747 -0.7290  0.1885
13897TIP3   OH263181   3.103   5.735   3.724  0.8669  0.1687  0.0033
13897TIP3    H163182   3.169   5.726   3.792 -1.0670 -1.9099  1.7660
13897TIP3    H263183   3.034   5.788   3.763  0.4838  0.4296 -0.9858
13898TIP3   OH263184   0.931   5.023   1.519 -0.0905  0.0588 -0.3610
13898TIP3    H163185   0.981   5.082   1.574 -0.7691 -1.9079  2.6319
13898TIP3    H263186   0.996   4.979   1.465  0.8819  0.6123  0.3315
13899TIP3   OH263187   3.086   4.689   4.629 -0.1970  0.3095 -0.1653
13899TIP3    H163188   3.004   4.710   4.675 -0.0331  1.5372 -0.3947
13899TIP3    H263189   3.058   4.644   4.549 -0.4708 -2.2562  1.2619
13900TIP3   OH263190   6.414   4.380   3.729  0.4523 -0.2463 -0.0559
13900TIP3    H163191   6.451   4.461   3.696 -1.8279  1.2351  0.7588
13900TIP3    H263192   6.481   4.343   3.785  1.0610  1.8039  0.6363
13901TIP3   OH263193   0.384   1.332  12.653 -0.1784 -0.4796 -0.1625
13901TIP3    H163194   0.436   1.403  12.615  0.4662  0.0682  1.6446
13901TIP3    H263195   0.436   1.253  12.640  0.1541 -0.2554 -0.1930
13902TIP3   OH263196   0.452   0.760   3.385  0.2543 -0.6313 -0.4743
13902TIP3    H163197   0.469   0.840   3.435  1.5615 -0.7116 -0.7735
13902TIP3    H263198   0.518   0.698   3.415 -0.5820 -1.5342 -0.4363
13903TIP3   OH263199   4.759   5.108   1.160  0.1460  0.2314  0.0945
13903TIP3    H163200   4.843   5.130   1.120  0.6613 -0.8027  0.5506
13903TIP3    H263201   4.762   5.013   1.171 -1.3623  0.0866 -0.4691
13904TIP3   OH263202   3.734   3.833  15.188 -0.1555 -0.3515  0.4363
13904TIP3    H163203   3.719   3.927  15.178 -1.8951 -0.6504 -0.1016
13904TIP3    H263204   3.813   3.815  15.136 -1.1129  0.4583 -1.3971
13905TIP3   OH263205   2.941   3.693   6.962  0.2759  0.5327 -0.4902
13905TIP3    H163206   2.942   3.598   6.968  0.5254  0.4986 -1.0083
13905TIP3    H263207   2.994   3.713   6.885 -1.6987  0.9746 -1.8149
13906TIP3   OH263208   1.455   3.083  15.840 -0.3719  0.1065 -0.1094
13906TIP3    H163209   1.477   3.031  15.918  0.8811  0.5976 -0.1027
13906TIP3    H263210   1.378   3.040  15.803 -1.1090 -0.0117  1.5091
13907TIP3   OH263211   5.697   5.441   1.995  0.5828  0.2044 -0.2926
13907TIP3    H163212   5.671   5.522   1.952 -1.8097 -0.6689 -0.6495
13907TIP3    H263213   5.793   5.440   1.990  0.5439  1.0437 -3.9604
13908TIP3   OH263214   5.939   0.700  11.007  0.6136 -0.0293  0.0626
13908TIP3    H163215   6.013   0.745  11.048  1.1739  0.2860 -1.2327
13908TIP3    H263216   5.956   0.707  10.913 -1.4363  0.6821 -0.3016
13909TIP3   OH263217   4.289   2.853  12.266  0.3622  0.1318  0.1583
13909TIP3    H163218   4.249   2.858  12.353  3.1893 -1.6786  1.7254
13909TIP3    H263219   4.278   2.940  12.229 -1.7917  0.6748  1.8952
13910TIP3   OH263220   3.403   0.401  15.923  0.1048 -0.3750  1.0424
13910TIP3    H163221   3.481   0.352  15.896  0.5071 -1.2631  3.5224
13910TIP3    H263222   3.436   0.485  15.955 -0.5356  1.4865 -2.6656
13911TIP3   OH263223   0.089   0.124   0.171  0.1857 -0.3924  0.2007
13911TIP3    H163224   0.099   0.118   0.075  0.5275 -0.9738  0.2673
13911TIP3    H263225   0.061   0.214   0.186 -0.2604 -0.4035 -0.4810
13912TIP3   OH263226   3.794   6.418  16.650  0.1604 -0.1892  0.5502
13912TIP3    H163227   3.785   6.477  16.575 -0.3987 -1.7874 -0.7153
13912TIP3    H263228   3.873   6.368  16.631 -0.3799 -1.1053  0.6418
13913TIP3   OH263229   2.492   4.484   0.901 -0.3458  0.2454  0.3024
13913TIP3    H163230   2.457   4.542   0.969  1.3312  2.5356 -0.6595
13913TIP3    H263231   2.434   4.498   0.826 -0.5681 -0.1789  0.3895
13914TIP3   OH263232   1.577   4.984  13.986  0.5731  0.2632  0.3925
13914TIP3    H163233   1.510   4.965  13.920  1.4516  1.6527 -0.9544
13914TIP3    H263234   1.587   4.901  14.033 -0.0615 -0.7964 -1.2184
13915TIP3   OH263235   5.566   4.605   2.724 -0.4703 -0.0322  0.5310
13915TIP3    H163236   5.497   4.597   2.790 -0.1024 -0.4113  0.8739
13915TIP3    H263237   5.590   4.698   2.724 -2.2249  0.4761 -0.8668
13916TIP3   OH263238   3.119   1.679  12.435  0.0692 -0.3264 -0.1199
13916TIP3    H163239   3.122   1.593  12.477 -1.4124 -0.4240 -0.1553
13916TIP3    H263240   3.064   1.732  12.492 -0.5350  0.0519 -1.0187
13917TIP3   OH263241   3.694   2.133   3.339 -0.3241 -0.3608 -0.0213
13917TIP3    H163242   3.707   2.039   3.355 -0.0556 -0.3256 -0.0259
13917TIP3    H263243   3.747   2.151   3.261  0.6376  0.0526  0.7069
13918TIP3   OH263244   2.861   2.278   3.413 -0.3163  0.6075  0.1818
13918TIP3    H163245   2.933   2.267   3.475  0.7231  0.4570 -1.0151
13918TIP3    H263246   2.841   2.189   3.384 -1.1449  0.6261  0.6541
13919TIP3   OH263247   2.350   0.196  14.358 -0.2495  0.0753  0.3782
13919TIP3    H163248   2.306   0.281  14.350 -0.3145  0.0843  0.8062
13919TIP3    H263249   2.401   0.188  14.277 -1.8058 -0.3940 -0.5871
13920TIP3   OH263250   4.844   1.519  11.093 -0.1815 -0.4517 -0.5174
13920TIP3    H163251   4.930   1.544  11.126 -0.4705 -0.2518  0.0897
13920TIP3    H263252   4.782   1.563  11.150 -0.6977 -0.1794 -1.2649
13921TIP3   OH263253   5.710   6.716  13.126 -0.3572  0.3867 -0.9033
13921TIP3    H163254   5.775   6.778  13.159  0.1871 -0.5745 -0.0984
13921TIP3    H263255   5.761   6.645  13.087 -0.8375 -0.8460  0.5755
13922TIP3   OH263256   1.061   4.739   3.419  0.5590 -0.2505  0.7877
13922TIP3    H163257   1.062   4.648   3.390 -0.7875  0.0512 -0.2965
13922TIP3    H263258   1.066   4.734   3.514  0.6037 -1.4592  0.7341
13923TIP3   OH263259   6.137   6.260   2.080 -0.2886  0.3582 -0.0625
13923TIP3    H163260   6.216   6.314   2.090 -0.3464  0.2049  1.4710
13923TIP3    H263261   6.118   6.230   2.169 -0.7291 -1.5326 -0.7698
13924TIP3   OH263262   5.983   6.037   2.944  0.1492  0.0170  0.4055
13924TIP3    H163263   6.029   5.957   2.918  1.8076  1.0868 -0.0714
13924TIP3    H263264   6.053   6.100   2.961 -1.1422  1.4307  0.6022
13925TIP3   OH263265   0.676   3.404  10.678 -0.4079 -0.0475 -0.0710
13925TIP3    H163266   0.747   3.344  10.702 -0.0126  0.3909 -0.1352
13925TIP3    H263267   0.615   3.350  10.628 -0.0604 -0.4016 -0.1157
13926TIP3   OH263268   2.769   0.502  10.662  0.1446  0.2119 -0.4154
13926TIP3    H163269   2.747   0.429  10.721 -2.5298  0.3342 -1.1173
13926TIP3    H263270   2.703   0.497  10.592  2.0906  1.1626 -2.4572
13927TIP3   OH263271   1.941   0.502  16.846 -0.8828 -0.0155 -0.1273
13927TIP3    H163272   2.013   0.465  16.896 -0.0578 -0.3640 -1.5230
13927TIP3    H263273   1.982   0.556  16.779 -1.8550 -0.7594 -1.3871
13928TIP3   OH263274   4.728   6.478  14.961  0.4629  0.2945 -0.3569
13928TIP3    H163275   4.797   6.497  14.898  1.7384 -1.6395  0.3295
13928TIP3    H263276   4.741   6.541  15.032  1.2123  0.2928 -0.4896
13929TIP3   OH263277   2.947   2.502  14.622 -0.6693 -0.5059  0.2232
13929TIP3    H163278   3.000   2.468  14.694 -0.4185 -0.2651  0.1591
13929TIP3    H263279   2.932   2.427  14.565  0.3926 -0.4028 -0.2287
13930TIP3   OH263280   3.901   5.678  13.853  0.3764 -0.0757  0.2530
13930TIP3    H163281   3.880   5.755  13.907  1.0209 -0.2999  0.8373
13930TIP3    H263282   3.954   5.712  13.781  0.2349  0.1038  0.2343
13931TIP3   OH263283   5.696   0.398  14.629  0.5166 -0.0347  0.5211
13931TIP3    H163284   5.656   0.484  14.636 -2.5395 -1.3332  0.8292
13931TIP3    H263285   5.726   0.392  14.539  0.8613  1.3532  0.5282
13932TIP3   OH263286   5.397   0.897   0.370  0.2171 -0.0499 -0.5550
13932TIP3    H163287   5.361   0.825   0.423  1.1588 -0.5871 -0.6242
13932TIP3    H263288   5.337   0.970   0.384  0.1409 -0.3570  0.8028
13933TIP3   OH263289   2.106   1.446  12.461 -0.2040  0.5314 -0.3387
13933TIP3    H163290   2.199   1.443  12.441 -0.3717  0.9762 -1.2288
13933TIP3    H263291   2.095   1.383  12.532  0.1308 -2.8520 -2.9751
13934TIP3   OH263292   1.058   1.162   2.079  0.1683  0.4381 -0.3285
13934TIP3    H163293   1.124   1.189   2.015 -1.4359  2.1543 -1.3353
13934TIP3    H263294   1.102   1.095   2.131  1.7813 -0.5074 -2.7330
13935TIP3   OH263295   2.943   1.145   2.743  0.3714 -0.8179 -0.6122
13935TIP3    H163296   2.952   1.057   2.708  1.6818 -0.9732  0.0770
13935TIP3    H263297   2.885   1.135   2.818  1.1162 -1.2189 -0.0877
13936TIP3   OH263298   0.974   6.138  13.286  0.1342  0.4532 -0.5049
13936TIP3    H163299   1.031   6.215  13.281  1.2725 -0.3361 -0.2417
13936TIP3    H263300   0.887   6.170  13.265  0.5602  1.8463 -0.2184
13937TIP3   OH263301   3.856   3.821  14.901  0.0585  0.3812  1.1438
13937TIP3    H163302   3.814   3.768  14.834  0.3021  0.8071  0.6500
13937TIP3    H263303   3.838   3.912  14.874  0.4181  0.5560  1.4881
13938TIP3   OH263304   2.522   1.172  13.239  0.4519 -0.3213 -0.5377
13938TIP3    H163305   2.451   1.114  13.211 -0.8045  1.0788 -0.3459
13938TIP3    H263306   2.597   1.144  13.186 -0.0600 -2.2111 -0.3226
13939TIP3   OH263307   6.390   4.575  15.290  0.2352 -0.1811 -0.2592
13939TIP3    H163308   6.308   4.527  15.300  1.3297 -1.7256  2.6633
13939TIP3    H263309   6.458   4.509  15.306  1.8890  1.7548  1.3204
13940TIP3   OH263310   5.923   6.460   0.601 -0.4313 -0.3426  0.2731
13940TIP3    H163311   5.857   6.446   0.533 -0.6407  2.6567 -0.2716
13940TIP3    H263312   6.006   6.465   0.553 -0.3506 -0.0509  0.4367
13941TIP3   OH263313   0.662   0.566   1.723 -0.1153 -0.2560 -0.5054
13941TIP3    H163314   0.731   0.628   1.745 -1.9084  1.7529 -0.2167
13941TIP3    H263315   0.705   0.501   1.667  1.9963  0.8578 -0.2719
13942TIP3   OH263316   4.818   0.091   3.975  0.7013  0.7508  0.7731
13942TIP3    H163317   4.725   0.091   3.998  0.6019  1.0370  0.3873
13942TIP3    H263318   4.820   0.127   3.886  1.1792  0.7214  0.7725
13943TIP3   OH263319   2.293   0.073   6.575  0.2409  0.3689 -0.2197
13943TIP3    H163320   2.378   0.030   6.569  0.1283 -0.1138  1.2083
13943TIP3    H263321   2.251   0.056   6.491 -0.2283 -3.2908  0.5915
13944TIP3   OH263322   1.112   2.555   3.118 -0.4467  0.0584  0.0681
13944TIP3    H163323   1.065   2.623   3.167  0.5000  0.0230  1.0524
13944TIP3    H263324   1.175   2.604   3.064  1.0118 -0.0330  1.6005
13945TIP3   OH263325   4.179   5.214   3.339 -0.1925 -0.2773 -0.0013
13945TIP3    H163326   4.267   5.253   3.346 -0.2508 -0.3795  1.5348
13945TIP3    H263327   4.130   5.251   3.412 -1.5292 -0.0403 -0.9770
13946TIP3   OH263328   6.769   6.512   4.164 -0.3049  0.0105  0.2037
13946TIP3    H163329   6.862   6.497   4.148 -0.1307  1.4431 -0.2287
13946TIP3    H263330   6.729   6.425   4.156  0.5861 -0.2295 -2.4618
13947TIP3   OH263331   2.184   5.420  11.799 -0.1022 -0.5610 -0.4382
13947TIP3    H163332   2.094   5.442  11.777  0.2560  2.2006  0.3908
13947TIP3    H263333   2.233   5.501  11.782  2.0385 -1.6758  0.0644
13948TIP3   OH263334   0.992   5.596   1.033  0.2980  0.2910  0.4357
13948TIP3    H163335   0.948   5.668   1.080 -0.2691  0.1378  0.1411
13948TIP3    H263336   1.083   5.624   1.028 -0.1710  1.6970 -0.9880
13949TIP3   OH263337   6.680   5.294   4.405  0.0164  0.8222 -0.3901
13949TIP3    H163338   6.742   5.227   4.434 -0.7200  0.6719  0.9093
13949TIP3    H263339   6.717   5.326   4.323  0.1362 -1.5121 -1.3438
13950TIP3   OH263340   5.884   0.023   0.354  0.3995 -0.0060 -0.1161
13950TIP3    H163341   5.881  -0.004   0.446  0.1625  0.8278  0.1254
13950TIP3    H263342   5.799  -0.001   0.319 -0.4734  1.9657  0.5521
13951TIP3   OH263343   6.309   2.467   5.498 -0.2608  0.7894  0.1073
13951TIP3    H163344   6.390   2.518   5.504  1.0339 -1.1008 -0.2767
13951TIP3    H263345   6.273   2.489   5.412  0.5603  0.6721 -0.2741
13952TIP3   OH263346   5.616   6.572  16.868  0.6840  0.1967 -0.3474
13952TIP3    H163347   5.631   6.477  16.875  3.1757  0.5203 -0.3447
13952TIP3    H263348   5.686   6.611  16.921 -2.1427  2.0537  2.2941
13953TIP3   OH263349   3.777   1.058   4.310 -0.1533  0.7866 -0.2660
13953TIP3    H163350   3.759   0.980   4.362  1.1470  0.2184 -0.6170
13953TIP3    H263351   3.744   1.131   4.362  1.4041  0.2762  1.5577
13954TIP3   OH263352   2.583   6.553  13.293 -0.2726 -0.2084 -0.4168
13954TIP3    H163353   2.665   6.580  13.252 -0.4287 -0.3887 -0.8587
13954TIP3    H263354   2.516   6.603  13.247 -0.3016  1.1268  0.9968
13955TIP3   OH263355   2.075   2.375   1.730  0.5948  0.2406  0.1023
13955TIP3    H163356   2.027   2.301   1.766  2.2977 -0.9384  0.1039
13955TIP3    H263357   2.167   2.347   1.734  1.1516  1.7003 -1.4330
13956TIP3   OH263358   0.297   0.313   6.675  0.7221  0.3190  0.2642
13956TIP3    H163359   0.388   0.323   6.648 -0.1760  1.6240 -2.5848
13956TIP3    H263360   0.259   0.252   6.612 -0.8410  1.2700  0.2433
13957TIP3   OH263361   5.462   3.978  15.137 -0.2706 -0.2904  0.1441
13957TIP3    H163362   5.473   4.061  15.090  1.2705 -0.3224  0.3976
13957TIP3    H263363   5.426   3.918  15.071 -0.2772  0.2560 -0.3633
13958TIP3   OH263364   3.309   1.454   1.425  0.0490  0.1558  0.6320
13958TIP3    H163365   3.389   1.462   1.372 -0.2986  1.6095  0.2814
13958TIP3    H263366   3.293   1.542   1.458 -2.6679  0.4855 -1.1986
13959TIP3   OH263367   4.343   3.830   5.785  0.1886 -0.9625 -0.5212
13959TIP3    H163368   4.418   3.881   5.755  0.6418 -1.2257  0.1512
13959TIP3    H263369   4.372   3.790   5.867 -1.2330  0.2144  0.5911
13960TIP3   OH263370   6.607   4.644  13.955 -0.4897  0.3463 -0.2578
13960TIP3    H163371   6.529   4.684  13.993 -0.3392  0.3986 -0.0012
13960TIP3    H263372   6.645   4.711  13.898 -0.5562  0.3678 -0.2760
13961TIP3   OH263373   1.808   2.030   2.806 -0.3266  0.4317 -0.3377
13961TIP3    H163374   1.877   2.092   2.782 -0.2077  0.0578 -1.0032
13961TIP3    H263375   1.812   2.026   2.901  0.5429  0.4499 -0.3590
13962TIP3   OH263376   6.090   0.957  12.185  0.5591 -0.9468  0.5066
13962TIP3    H163377   6.084   1.047  12.218 -1.2494 -0.0728 -1.8701
13962TIP3    H263378   6.182   0.934  12.194  1.6154  2.1229 -0.9769
13963TIP3   OH263379   0.103   0.737  16.552  0.7658 -0.1765  0.1194
13963TIP3    H163380   0.109   0.673  16.623  0.2317 -0.1742  0.1659
13963TIP3    H263381   0.019   0.780  16.564  1.1145  0.5394  0.0847
13964TIP3   OH263382   2.003   2.416  13.298 -0.2124 -0.1751 -0.0421
13964TIP3    H163383   2.020   2.348  13.364  1.6082  0.9316  0.7138
13964TIP3    H263384   1.909   2.431  13.304 -0.5849 -2.2042  0.1669
13965TIP3   OH263385   2.587   2.780   1.271 -0.1954 -0.0471  0.6584
13965TIP3    H163386   2.570   2.689   1.297 -1.5130  0.5350  1.9126
13965TIP3    H263387   2.678   2.779   1.242 -0.2172 -1.7955  0.5323
13966TIP3   OH263388   1.491   4.249  12.485  0.6989  0.5638  0.9749
13966TIP3    H163389   1.480   4.188  12.412  2.5005  3.2320 -1.7772
13966TIP3    H263390   1.403   4.261  12.520 -0.8587  1.2406 -2.6724
13967TIP3   OH263391   1.571   0.444  13.034  0.8431 -0.2337 -0.2245
13967TIP3    H163392   1.516   0.513  12.997  0.3107 -0.5421 -0.0031
13967TIP3    H263393   1.647   0.491  13.069 -0.2280  0.4054  1.2991
13968TIP3   OH263394   3.166   6.677  13.743 -0.8543  0.4541  0.0452
13968TIP3    H163395   3.216   6.756  13.765  1.2837 -0.4093 -1.3583
13968TIP3    H263396   3.081   6.710  13.712  0.1841  2.2703 -1.0318
13969TIP3   OH263397   1.386   2.958   6.660  0.6092 -0.2043  0.0297
13969TIP3    H163398   1.367   2.870   6.628  1.7146 -0.7702  0.8721
13969TIP3    H263399   1.334   2.966   6.740 -1.3036  0.8065 -1.2440
13970TIP3   OH263400   4.074   5.193  15.047  0.4019 -0.2324  0.3700
13970TIP3    H163401   4.092   5.282  15.079  0.7825  0.0630 -0.6464
13970TIP3    H263402   4.007   5.160  15.107 -0.0887  0.9126  0.4861
13971TIP3   OH263403   1.840   3.970   3.433  0.3791 -0.6913  0.2508
13971TIP3    H163404   1.813   3.879   3.417 -1.7559  0.2027 -1.9149
13971TIP3    H263405   1.782   4.000   3.503  0.3443 -0.6991  0.2255
13972TIP3   OH263406   6.117   4.466   2.850 -0.6364  0.0199 -0.4967
13972TIP3    H163407   6.167   4.503   2.777 -0.7831  1.4563  0.0888
13972TIP3    H263408   6.026   4.482   2.828 -0.6361  1.7390  0.6099
13973TIP3   OH263409   4.300   1.644  14.867  0.0660 -0.0348 -0.3675
13973TIP3    H163410   4.268   1.734  14.873  0.6877  0.1210  1.0505
13973TIP3    H263411   4.353   1.643  14.787  1.0312  1.1923  0.2225
13974TIP3   OH263412   4.958   0.843  15.321 -0.3111 -0.3963  0.2891
13974TIP3    H163413   4.983   0.806  15.407  0.6063  0.1608  0.2738
13974TIP3    H263414   4.876   0.798  15.299 -0.1873 -1.0698  1.1295
13975TIP3   OH263415   4.480   3.561  16.286  0.4446 -0.0532 -0.5080
13975TIP3    H163416   4.570   3.531  16.271  0.5437  0.2279 -0.4853
13975TIP3    H263417   4.487   3.620  16.361  0.6291  1.8477 -1.9447
13976TIP3   OH263418   2.920   4.170   2.860 -0.0925  0.2084 -0.3625
13976TIP3    H163419   2.994   4.204   2.910  1.0333 -2.8267  0.2912
13976TIP3    H263420   2.950   4.169   2.769  1.0670 -1.6713 -0.0182
13977TIP3   OH263421   2.544   1.563   6.274 -0.3330  0.3470 -0.3011
13977TIP3    H163422   2.630   1.606   6.279 -0.2814  0.2782 -0.5703
13977TIP3    H263423   2.555   1.484   6.328 -0.7524  1.1882  1.0651
13978TIP3   OH263424   5.346   5.294  16.763 -0.5313  0.6421 -0.2568
13978TIP3    H163425   5.300   5.251  16.691 -2.0124  1.8303 -0.0778
13978TIP3    H263426   5.404   5.357  16.720  0.2035 -0.1529 -0.4534
13979TIP3   OH263427   1.175   4.779   1.028  0.4888  0.2620 -0.2348
13979TIP3    H163428   1.084   4.809   1.030  0.8985  1.8504 -2.2078
13979TIP3    H263429   1.173   4.702   0.971  0.4259  0.5261 -0.5931
13980TIP3   OH263430   0.998   4.627   5.376 -0.5791 -0.3694 -0.3564
13980TIP3    H163431   1.052   4.665   5.446  0.8822 -0.2075 -1.5099
13980TIP3    H263432   0.920   4.682   5.374  0.1569  0.7383  0.0035
13981TIP3   OH263433   0.385   6.777   0.674 -0.1067 -0.6706 -0.0306
13981TIP3    H163434   0.480   6.770   0.674  0.0512  0.2246  2.7242
13981TIP3    H263435   0.354   6.688   0.659  1.2812 -1.7043  2.5184
13982TIP3   OH263436   3.054   1.895  16.738  0.1328  0.3437  0.2567
13982TIP3    H163437   2.981   1.920  16.794  0.1790 -1.0371  0.9821
13982TIP3    H263438   3.131   1.908  16.793  0.0803 -2.3622  1.0889
13983TIP3   OH263439   5.614   3.305  15.865  0.5405  0.3542 -0.4282
13983TIP3    H163440   5.531   3.265  15.893  0.9946  0.4156  1.0795
13983TIP3    H263441   5.639   3.362  15.938  2.1898 -0.0802 -0.6250
13984TIP3   OH263442   4.321   5.959  14.621 -0.2633 -0.0862 -0.0899
13984TIP3    H163443   4.338   6.041  14.575 -1.2645 -0.1412 -0.5852
13984TIP3    H263444   4.323   5.982  14.714  0.6273  0.2512 -0.1815
13985TIP3   OH263445   2.203   3.355   4.434 -0.3429  0.0195  0.4766
13985TIP3    H163446   2.181   3.420   4.501 -0.4358  0.2216  0.2553
13985TIP3    H263447   2.290   3.324   4.458 -0.6747 -0.4579  1.1099
13986TIP3   OH263448   4.069   5.443  10.729 -0.0984  0.2583 -0.2238
13986TIP3    H163449   4.078   5.362  10.679  0.6337 -0.2913  0.7528
13986TIP3    H263450   4.029   5.505  10.668 -2.2255 -1.2810 -0.5255
13987TIP3   OH263451   5.643   0.017   4.635  0.1760 -0.4883 -0.0687
13987TIP3    H163452   5.570   0.051   4.685  0.7156  0.0383  0.3753
13987TIP3    H263453   5.672   0.090   4.581  2.9631  0.6891  2.7320
13988TIP3   OH263454   0.197   2.713  16.584 -0.7708  0.2575  0.3210
13988TIP3    H163455   0.270   2.690  16.640 -0.2579 -0.8776 -0.7746
13988TIP3    H263456   0.226   2.792  16.538 -0.0162 -0.4536 -0.4574
13989TIP3   OH263457   5.741   5.712   0.774 -0.3310  0.4262 -0.8710
13989TIP3    H163458   5.790   5.794   0.784  0.0006  0.0953  0.3639
13989TIP3    H263459   5.791   5.662   0.709  1.4596 -0.2035  0.8549
13990TIP3   OH263460   0.030   0.554  12.844 -0.0177 -0.2241  0.9719
13990TIP3    H163461   0.122   0.544  12.820  0.1902 -0.4418  1.8291
13990TIP3    H263462  -0.019   0.519  12.770  0.5699  0.7782  0.0945
13991TIP3   OH263463   5.574   6.119   4.027  0.1137 -0.4309  0.2174
13991TIP3    H163464   5.513   6.168   4.083 -0.0433 -1.5177  1.0304
13991TIP3    H263465   5.659   6.160   4.043  0.0669 -0.7188  1.2627
13992TIP3   OH263466   1.351   0.316   0.237 -0.5236  0.5821  0.0604
13992TIP3    H163467   1.425   0.256   0.234  0.4104  1.7402 -1.3276
13992TIP3    H263468   1.391   0.403   0.238 -1.8411  1.2626 -1.7504
13993TIP3   OH263469   5.069   2.208  10.656  0.4140 -0.1843  0.2536
13993TIP3    H163470   4.984   2.201  10.698  0.7272 -0.0015  0.9370
13993TIP3    H263471   5.110   2.283  10.698  0.7176  0.0309 -0.4212
13994TIP3   OH263472   0.979   2.899  12.871 -0.0731 -0.6190  0.2914
13994TIP3    H163473   1.041   2.948  12.925  0.2481 -0.0325 -0.5869
13994TIP3    H263474   1.032   2.829  12.832  0.0984  0.0246 -0.6437
13995TIP3   OH263475   6.700   6.239  13.344 -0.1671  0.3483 -0.4486
13995TIP3    H163476   6.656   6.218  13.426  0.1985  0.0912 -0.3166
13995TIP3    H263477   6.791   6.215  13.358  0.6054  3.2062  0.1825
13996TIP3   OH263478   6.721   4.471   4.387 -0.3989 -0.6318  0.2729
13996TIP3    H163479   6.796   4.429   4.345  0.3754  0.1481  0.8318
13996TIP3    H263480   6.728   4.446   4.479  0.4699  1.2035  0.7584
13997TIP3   OH263481   5.437   6.407   3.084  0.1070 -0.0090  0.1583
13997TIP3    H163482   5.439   6.314   3.062  0.3189  0.0201  0.0523
13997TIP3    H263483   5.386   6.447   3.014 -0.6670 -0.1567  0.6285
13998TIP3   OH263484   0.525   2.969   6.069 -0.0387 -0.4274 -0.1912
13998TIP3    H163485   0.452   2.915   6.100  0.7737 -1.2476  0.3619
13998TIP3    H263486   0.509   3.055   6.106 -1.2328 -0.3356 -0.8862
13999TIP3   OH263487   2.705   5.683  13.998 -0.2319  0.3635  0.1939
13999TIP3    H163488   2.754   5.738  13.937  2.2510 -0.6005  1.1855
13999TIP3    H263489   2.727   5.717  14.084 -2.2930  0.6107  0.6496
14000TIP3   OH263490   0.958   2.811  11.603 -0.0502  0.1123 -0.5672
14000TIP3    H163491   1.012   2.796  11.680  1.1913  1.2213 -1.1682
14000TIP3    H263492   0.925   2.900  11.614 -1.1960 -0.3036 -0.5518
14001TIP3   OH263493   4.389   4.656   6.580  0.0479  0.1617 -0.0804
14001TIP3    H163494   4.363   4.731   6.634 -2.5206 -0.0281 -0.9036
14001TIP3    H263495   4.445   4.603   6.638 -0.6476  1.1571  1.5786
14002TIP3   OH263496   3.211   5.817   6.197 -0.2087  0.3143  0.4184
14002TIP3    H163497   3.198   5.768   6.116 -0.7996  0.5775  0.3486
14002TIP3    H263498   3.228   5.907   6.168 -1.6498  0.6725  0.6032
14003TIP3   OH263499   4.734   3.298  15.052  0.3913 -0.0021  0.4405
14003TIP3    H163500   4.673   3.342  15.111  0.5800  0.0329  0.6105
14003TIP3    H263501   4.694   3.307  14.965  0.7182  1.0352  0.3823
14004TIP3   OH263502   0.389   5.039  10.812 -0.1202  0.0776 -0.5654
14004TIP3    H163503   0.475   5.036  10.769  0.8196  0.8377  1.1339
14004TIP3    H263504   0.397   5.111  10.875 -0.4461 -2.5742  2.7409
14005TIP3   OH263505   6.078   6.690   6.190  0.9747 -0.0522 -0.4700
14005TIP3    H163506   6.132   6.623   6.149  0.8052 -1.9640  2.1564
14005TIP3    H263507   6.125   6.714   6.269 -0.8479 -0.0408  0.6771
14006TIP3   OH263508   4.390   0.551  13.024  0.3669  0.1911  0.0076
14006TIP3    H163509   4.404   0.641  13.053 -1.0760  0.6043 -0.5090
14006TIP3    H263510   4.302   0.551  12.985  0.1806 -1.5177  0.3356
14007TIP3   OH263511   1.304   6.045  15.749  0.0192 -0.0495  0.2530
14007TIP3    H163512   1.381   5.990  15.740 -0.5569 -1.1309  1.5933
14007TIP3    H263513   1.333   6.120  15.801  0.1068 -0.6030  1.0120
14008TIP3   OH263514   2.441   6.718  13.081 -0.0821  0.3194 -0.7242
14008TIP3    H163515   2.486   6.712  12.997 -1.7910 -0.6457 -1.6356
14008TIP3    H263516   2.486   6.788  13.128  2.4009 -0.6352 -1.4910
14009TIP3   OH263517   4.443   0.027  15.216 -0.3257  0.2725 -0.0254
14009TIP3    H163518   4.440  -0.047  15.276  1.1072  1.1123  1.1577
14009TIP3    H263519   4.351   0.051  15.204 -0.6974 -0.3395  1.3274
14010TIP3   OH263520   0.618   5.543   0.433  0.0998  0.4758 -0.6100
14010TIP3    H163521   0.592   5.461   0.390 -0.4131  0.4214 -0.2055
14010TIP3    H263522   0.593   5.532   0.524 -1.0248  1.5013 -0.7555
14011TIP3   OH263523   0.637   0.341  12.509  0.8978  0.2233 -0.1118
14011TIP3    H163524   0.543   0.322  12.521  0.7075  1.2271  0.0234
14011TIP3    H263525   0.679   0.299  12.584  0.4001  0.9801  0.6025
14012TIP3   OH263526   0.720   6.620  12.777 -0.6595  0.1808  0.4725
14012TIP3    H163527   0.809   6.649  12.757 -0.6771  1.0486  1.5405
14012TIP3    H263528   0.686   6.588  12.694  0.7798 -0.5435  0.1241
14013TIP3   OH263529   3.294   3.823  14.148 -0.0341  0.8137  0.2224
14013TIP3    H163530   3.198   3.823  14.150 -0.1274 -1.0715 -1.0453
14013TIP3    H263531   3.319   3.747  14.202  0.5973 -0.2348 -1.4712
14014TIP3   OH263532   5.360   4.572   4.104 -0.1779  0.4964  0.0751
14014TIP3    H163533   5.436   4.533   4.147 -1.2452 -0.8376  0.8301
14014TIP3    H263534   5.327   4.502   4.047 -0.6240  1.1959 -0.5462
14015TIP3   OH263535   5.358   2.183   4.234 -0.0656  0.5292 -0.1645
14015TIP3    H163536   5.453   2.169   4.237 -0.0960  0.2555  2.3325
14015TIP3    H263537   5.341   2.222   4.149  2.3002  0.6662 -0.6261
14016TIP3   OH263538   5.722   6.792   3.984  0.0913 -0.3198 -0.3495
14016TIP3    H163539   5.770   6.710   3.988  0.1361 -0.3178 -0.7613
14016TIP3    H263540   5.634   6.770   4.015  0.2324 -0.4178 -0.0119
14017TIP3   OH263541   0.169   2.599  17.167  0.2343  0.5967  0.7466
14017TIP3    H163542   0.114   2.539  17.218  2.3162 -0.7065  1.6189
14017TIP3    H263543   0.146   2.686  17.200 -1.0712  0.0923  1.2589
14018TIP3   OH263544   4.427   2.350   2.576  0.1372 -0.0923  0.0892
14018TIP3    H163545   4.518   2.341   2.604 -0.1736  0.3378  1.3005
14018TIP3    H263546   4.432   2.395   2.492  1.0552 -0.2735  0.0404
14019TIP3   OH263547   2.248   4.360  15.182 -0.4863  0.0945  0.3813
14019TIP3    H163548   2.306   4.416  15.130 -0.1317 -3.2279 -3.3644
14019TIP3    H263549   2.293   4.348  15.265  3.6465 -1.0526 -1.7347
14020TIP3   OH263550   4.504   6.565  16.978 -0.5273 -0.1013 -0.6059
14020TIP3    H163551   4.578   6.608  16.935 -0.1210 -1.7452 -1.6764
14020TIP3    H263552   4.543   6.517  17.050 -0.8904  0.8188  0.2162
14021TIP3   OH263553   5.092   0.909  13.463  0.3369  0.2675  0.0411
14021TIP3    H163554   5.049   0.980  13.415  0.5024  1.0825  1.0589
14021TIP3    H263555   5.024   0.842  13.473  0.8784 -0.9470 -3.2317
14022TIP3   OH263556   2.777   6.463   0.904 -0.7466 -0.1715 -0.0242
14022TIP3    H163557   2.820   6.382   0.932  1.3225 -0.3494 -3.1722
14022TIP3    H263558   2.800   6.526   0.972  1.7036 -1.1360  0.1650
14023TIP3   OH263559   5.193   6.365  13.204 -0.1739 -0.1875  0.0916
14023TIP3    H163560   5.233   6.437  13.154  0.8869 -0.3565  0.6515
14023TIP3    H263561   5.176   6.403  13.290  1.3119 -0.8507  0.7064
14024TIP3   OH263562   1.887   1.435   5.842  0.3280 -0.0050 -0.2206
14024TIP3    H163563   1.878   1.394   5.756 -0.9512 -0.6387  0.1845
14024TIP3    H263564   1.917   1.364   5.899 -1.5820 -0.3709  0.4172
14025TIP3   OH263565   4.025   4.978   1.347 -0.1998 -0.5080 -0.4542
14025TIP3    H163566   3.995   5.000   1.436  0.2347 -2.4781  0.2243
14025TIP3    H263567   4.091   4.911   1.361 -0.6703 -1.4007 -2.3372
14026TIP3   OH263568   4.503   3.467   3.724 -0.2946 -0.2186 -0.1622
14026TIP3    H163569   4.592   3.482   3.692 -0.6009  2.0272 -0.1257
14026TIP3    H263570   4.449   3.470   3.645 -0.5062  0.0748 -0.0075
14027TIP3   OH263571   3.563   2.106  13.718 -0.1293 -0.3730  0.1018
14027TIP3    H163572   3.540   2.187  13.763  0.0854 -0.1859 -0.1219
14027TIP3    H263573   3.654   2.088  13.743  0.0952 -0.1040 -0.4839
14028TIP3   OH263574   0.843   2.331  12.436 -0.3953  0.5926 -0.1829
14028TIP3    H163575   0.846   2.276  12.357 -0.4417  1.9416 -1.1724
14028TIP3    H263576   0.759   2.311  12.477  0.2929 -1.2589  0.4033
14029TIP3   OH263577   6.371   6.747  10.635 -0.5875 -0.1682 -0.2713
14029TIP3    H163578   6.320   6.804  10.694  1.6882  1.5643  0.1489
14029TIP3    H263579   6.428   6.807  10.588 -0.4404 -1.8286 -2.3201
14030TIP3   OH263580   1.402   4.352  16.054 -0.0008  0.2237 -0.3640
14030TIP3    H163581   1.413   4.339  15.960 -1.1260 -1.5068 -0.2957
14030TIP3    H263582   1.324   4.407  16.061 -0.8260 -0.8964 -0.4409
14031TIP3   OH263583   3.105   2.254   5.355 -0.3417 -0.5611  0.1083
14031TIP3    H163584   3.111   2.165   5.389  0.6666  0.0069  1.4835
14031TIP3    H263585   3.112   2.310   5.432 -0.8300  0.7310 -0.7444
14032TIP3   OH263586   3.483   4.746  15.724 -0.4017 -0.2090  0.0092
14032TIP3    H163587   3.533   4.772  15.802 -0.5561 -3.4428  1.3103
14032TIP3    H263588   3.535   4.677  15.684 -1.7921 -0.6577 -1.0674
14033TIP3   OH263589   5.254   1.554  15.885  0.7595 -0.3009  0.4115
14033TIP3    H163590   5.308   1.622  15.845 -2.2394  2.3099  0.3112
14033TIP3    H263591   5.181   1.542  15.824 -0.8551 -0.6307  2.2845
14034TIP3   OH263592   2.918   4.941  12.063 -0.1509 -0.3485  0.1046
14034TIP3    H163593   2.871   4.864  12.095 -1.3931 -0.5548 -2.0421
14034TIP3    H263594   2.977   4.908  11.996 -3.2625  0.7471 -3.5413
14035TIP3   OH263595   6.367   0.204  14.479 -0.6100  0.4717 -0.6744
14035TIP3    H163596   6.444   0.255  14.500 -0.0483 -0.5524 -0.1873
14035TIP3    H263597   6.293   0.256  14.510 -0.0073  0.6385  0.4941
14036TIP3   OH263598   0.963   3.334   5.294 -0.5118  0.0162 -0.2451
14036TIP3    H163599   1.052   3.363   5.316  0.0097 -0.7578 -1.2557
14036TIP3    H263600   0.934   3.397   5.227 -0.2214 -0.4749 -0.8436
14037TIP3   OH263601   0.186   3.916  14.693 -0.2813  0.0697  0.1813
14037TIP3    H163602   0.118   3.877  14.748 -1.3647  0.0198 -1.1395
14037TIP3    H263603   0.208   3.848  14.630 -0.5509  0.8059 -0.7284
14038TIP3   OH263604   4.342   3.087  16.554  0.1230 -0.6716 -0.3258
14038TIP3    H163605   4.383   3.171  16.575 -1.5751  0.3612 -1.0090
14038TIP3    H263606   4.413   3.023  16.565  1.0341  0.6090  1.8158
14039TIP3   OH263607   2.657   3.956   0.598 -0.0194 -0.6580  0.0196
14039TIP3    H163608   2.707   3.922   0.672 -0.4633  0.3203  0.7951
14039TIP3    H263609   2.720   3.964   0.527  1.1927  1.4512  1.2440
14040TIP3   OH263610   4.625   0.511   5.621 -0.3226  0.2706 -0.4250
14040TIP3    H163611   4.548   0.568   5.630 -1.2617 -1.2135  1.8356
14040TIP3    H263612   4.602   0.432   5.671  2.4745 -0.4341 -0.1058
14041TIP3   OH263613   2.921   0.753  16.156  0.1522  0.2769  0.4869
14041TIP3    H163614   2.951   0.721  16.071  0.9444  0.5877  0.6397
14041TIP3    H263615   2.985   0.819  16.181 -0.2746  0.4524  1.1614
14042TIP3   OH263616   2.335   2.041  13.006 -0.4978  0.4040 -0.6348
14042TIP3    H163617   2.369   1.952  13.011  0.2770  0.7085 -0.4140
14042TIP3    H263618   2.307   2.061  13.096  0.7116  0.9123 -0.3548
14043TIP3   OH263619   5.705   2.150   5.023 -0.6170 -0.4553 -0.0620
14043TIP3    H163620   5.656   2.222   4.984  0.5929 -0.0127 -0.8107
14043TIP3    H263621   5.703   2.168   5.117  0.0071  0.7982 -0.2671
14044TIP3   OH263622   3.621   4.953   0.268 -0.1329 -0.9291 -0.2644
14044TIP3    H163623   3.564   4.944   0.344 -1.4970 -0.2171 -1.1556
14044TIP3    H263624   3.686   5.019   0.293  0.3010 -1.7060  0.7380
14045TIP3   OH263625   1.216   3.766   2.216  0.8961 -0.0987 -0.0339
14045TIP3    H163626   1.302   3.723   2.222  1.4613  0.4728 -2.6752
14045TIP3    H263627   1.158   3.700   2.178  1.1106  0.5960 -1.6299
14046TIP3   OH263628   2.015   0.863   0.312 -0.0419  0.5109 -0.2759
14046TIP3    H163629   2.090   0.835   0.259 -0.1349 -2.1883  0.8506
14046TIP3    H263630   1.940   0.860   0.252 -0.0603 -1.9641 -0.2327
14047TIP3   OH263631   1.040   6.658  11.467  0.0744 -0.6307 -0.4239
14047TIP3    H163632   1.110   6.682  11.406 -0.3591 -0.5531 -0.8981
14047TIP3    H263633   1.082   6.600  11.530  1.1014  1.1294  0.6130
14048TIP3   OH263634   1.815   6.405  14.224 -0.6743 -0.2262  0.2444
14048TIP3    H163635   1.734   6.435  14.183  0.3081  0.2451 -1.4570
14048TIP3    H263636   1.794   6.396  14.317 -2.6890 -0.2201 -0.1826
14049TIP3   OH263637   3.968   5.066  16.806  0.7507 -0.5000 -0.2801
14049TIP3    H163638   3.978   5.142  16.749  3.1949  0.9161  1.8577
14049TIP3    H263639   3.876   5.070  16.834  0.2906  0.4394 -1.7505
14050TIP3   OH263640   0.960   1.821  15.236  0.1131  0.5759  0.1834
14050TIP3    H163641   0.991   1.804  15.325  0.2141 -0.1991  0.0001
14050TIP3    H263642   0.872   1.784  15.233  0.0910  0.6427 -0.0320
14051TIP3   OH263643   3.288   0.049   2.676 -0.3433 -0.0398 -0.0487
14051TIP3    H163644   3.313   0.009   2.593  0.8229  1.2410 -0.3452
14051TIP3    H263645   3.279  -0.025   2.737 -2.4108 -1.1343 -1.5488
14052TIP3   OH263646   2.731   4.611   2.683  0.0616 -0.1121  0.1896
14052TIP3    H163647   2.781   4.659   2.749  1.2866  1.2144 -1.6023
14052TIP3    H263648   2.761   4.647   2.599 -0.7933 -2.3169 -1.1511
14053TIP3   OH263649   2.117   5.746  12.465 -0.1786  0.2820 -0.1961
14053TIP3    H163650   2.078   5.719  12.548  2.0317 -0.0728  0.7848
14053TIP3    H263651   2.174   5.674  12.441  3.8799  2.7253  1.1467
14054TIP3   OH263652   3.763   3.948  12.176  0.0869 -0.7221 -0.2524
14054TIP3    H163653   3.755   3.903  12.092  2.3036  0.6625 -1.3040
14054TIP3    H263654   3.856   3.940  12.199 -0.4469 -0.9901  2.0614
14055TIP3   OH263655   0.288   4.478   3.944  0.3365 -0.6516 -0.0511
14055TIP3    H163656   0.195   4.489   3.963  0.0857 -1.1670 -0.9222
14055TIP3    H263657   0.311   4.552   3.888  0.2818 -0.9009 -0.4037
14056TIP3   OH263658   1.985   2.097   3.305  0.0273 -0.3717  0.3586
14056TIP3    H163659   2.075   2.121   3.326 -0.0411 -0.9020  1.3026
14056TIP3    H263660   1.941   2.181   3.288  0.7140 -0.1235 -0.2099
14057TIP3   OH263661   5.627   4.239   1.103 -0.0295 -0.3191  0.2066
14057TIP3    H163662   5.544   4.226   1.057  1.3400 -0.6254 -2.3653
14057TIP3    H263663   5.645   4.332   1.095  0.9700 -0.6091 -1.3964
14058TIP3   OH263664   1.327   1.173   1.348  0.2704  0.2244 -0.0544
14058TIP3    H163665   1.259   1.119   1.389  0.7024 -1.1350 -1.0598
14058TIP3    H263666   1.370   1.216   1.422 -0.2129 -0.6570  0.7829
14059TIP3   OH263667   5.723   3.040   5.299  0.1741  0.1679 -0.5465
14059TIP3    H163668   5.674   2.958   5.302  1.2889 -0.5899  3.3729
14059TIP3    H263669   5.802   3.019   5.249  0.0390 -0.9478 -0.3218
14060TIP3   OH263670   4.826   3.476   2.047  0.0276  0.5790  0.5078
14060TIP3    H163671   4.894   3.478   1.980  0.0469 -1.3195  0.4106
14060TIP3    H263672   4.873   3.470   2.130  0.1416 -3.0911  0.3511
14061TIP3   OH263673   2.584   4.565  15.944  0.2307 -0.4854 -0.2328
14061TIP3    H163674   2.599   4.599  16.032  1.4507  2.3882 -1.4317
14061TIP3    H263675   2.652   4.605  15.891 -0.6323 -1.9182 -2.5843
14062TIP3   OH263676   1.503   6.208   4.354 -0.0553 -0.0571 -0.0436
14062TIP3    H163677   1.542   6.183   4.270  1.3543 -0.9348  0.8347
14062TIP3    H263678   1.410   6.192   4.342  0.1384 -0.3834 -1.3568
14063TIP3   OH263679   0.332   4.259  15.249  0.1640 -0.0454 -0.7681
14063TIP3    H163680   0.326   4.170  15.213 -1.7692 -0.5435  0.5901
14063TIP3    H263681   0.342   4.245  15.343  0.4429  1.1833 -0.6103
14064TIP3   OH263682   5.424   2.310   2.821 -0.4975  0.5430  0.1628
14064TIP3    H163683   5.431   2.215   2.813  0.6316  0.2313  3.5365
14064TIP3    H263684   5.337   2.331   2.787 -0.6465 -1.6031 -0.9257
14065TIP3   OH263685   4.234   5.416   2.292 -0.4139 -0.1229 -0.8307
14065TIP3    H163686   4.247   5.330   2.252  0.1975  0.7319 -2.6243
14065TIP3    H263687   4.213   5.398   2.383  2.9052 -2.1232 -0.2818
14066TIP3   OH263688   1.436   0.317   1.134 -0.6842  0.0026 -0.0194
14066TIP3    H163689   1.464   0.402   1.100  1.7854 -1.3783 -1.7197
14066TIP3    H263690   1.408   0.335   1.223  0.9063  2.4314  0.0824
14067TIP3   OH263691   2.529   3.948  15.895  0.1733  0.0680 -0.0291
14067TIP3    H163692   2.575   3.993  15.824  1.4918 -0.0522  0.7051
14067TIP3    H263693   2.437   3.969  15.882  0.6161  2.0001 -0.4050
14068TIP3   OH263694   0.354   6.744  11.539 -0.0374  0.2042  0.1190
14068TIP3    H163695   0.351   6.805  11.466  0.6568  0.3664  0.2173
14068TIP3    H263696   0.437   6.697  11.529 -0.8180 -1.1514 -0.2871
14069TIP3   OH263697   2.844   2.702  11.989  0.3738  0.5779  0.2550
14069TIP3    H163698   2.841   2.753  11.908  0.1970  3.4413  1.9244
14069TIP3    H263699   2.775   2.739  12.044  1.1316 -0.5623  2.0869
14070TIP3   OH263700   4.039   0.163   4.355  0.1484 -0.4979 -0.7864
14070TIP3    H163701   4.027   0.220   4.431 -0.3226 -0.8059 -0.6289
14070TIP3    H263702   4.128   0.130   4.363  0.3449  0.0255 -0.7516
14071TIP3   OH263703   5.969   4.621  14.395 -0.1029  0.1654 -0.6563
14071TIP3    H163704   6.055   4.651  14.423 -0.6760 -0.0468  1.4605
14071TIP3    H263705   5.914   4.699  14.400 -0.3348  0.0081 -0.7450
14072TIP3   OH263706   1.166   0.746   5.700  0.3419  0.0407 -0.3542
14072TIP3    H163707   1.193   0.726   5.790 -2.1684  0.2743  0.5183
14072TIP3    H263708   1.228   0.813   5.671  1.4552 -0.3343  1.0236
14073TIP3   OH263709   6.564   0.084  14.068 -0.5698 -0.7439 -0.7858
14073TIP3    H163710   6.655   0.114  14.064 -0.7219 -0.1323  0.1019
14073TIP3    H263711   6.560   0.013  14.004 -0.0931  0.8373 -2.6680
14074TIP3   OH263712   6.296   1.404  14.796  0.1611  0.0710  0.4389
14074TIP3    H163713   6.377   1.435  14.754  0.7935  1.3123  2.4401
14074TIP3    H263714   6.229   1.415  14.729  1.3020  0.9267 -0.6231
14075TIP3   OH263715   2.410   3.206  12.009  0.1663 -0.1043 -0.1041
14075TIP3    H163716   2.405   3.290  11.963  2.0267 -0.3462 -0.8138
14075TIP3    H263717   2.328   3.162  11.987 -0.3198  1.0387 -0.6873
14076TIP3   OH263718   1.197   0.159  14.532  0.2967  0.2479  0.4635
14076TIP3    H163719   1.127   0.210  14.490 -0.3809 -0.1749  1.0529
14076TIP3    H263720   1.160   0.071  14.540  0.7998  0.0861  1.0240
14077TIP3   OH263721   5.066   5.952   4.405 -0.7469 -0.1456 -0.0044
14077TIP3    H163722   5.134   6.018   4.393 -0.9850 -0.1283 -1.3172
14077TIP3    H263723   5.110   5.883   4.455  0.3679 -0.2824 -1.1121
14078TIP3   OH263724   2.084   4.204  10.429 -0.0405 -0.3888  0.7147
14078TIP3    H163725   2.116   4.185  10.517 -1.6755 -1.7328  1.0637
14078TIP3    H263726   2.163   4.219  10.377  1.1046 -2.3784  1.7856
14079TIP3   OH263727   6.573   0.803   4.655  0.7230 -0.1386  0.1781
14079TIP3    H163728   6.549   0.845   4.738  2.0989  0.3583  0.3348
14079TIP3    H263729   6.640   0.859   4.618  0.8473 -0.9164 -0.7900
14080TIP3   OH263730   0.305   0.053  13.219  0.4260 -0.0474 -0.0307
14080TIP3    H163731   0.341   0.024  13.135 -3.0011  0.4141 -1.8637
14080TIP3    H263732   0.330   0.146  13.225  2.1778 -0.5152  0.4138
14081TIP3   OH263733   0.283   2.721  15.935  0.2125 -0.4642  0.2327
14081TIP3    H163734   0.269   2.775  16.013  1.1543  0.4142 -0.1990
14081TIP3    H263735   0.197   2.717  15.893  0.0966  0.5406  0.3647
14082TIP3   OH263736   1.388   0.455  11.718  0.4161  0.0709  0.0310
14082TIP3    H163737   1.391   0.550  11.729 -0.7163  0.4401 -2.2322
14082TIP3    H263738   1.363   0.442  11.626  0.2722 -2.4174  0.3468
14083TIP3   OH263739   3.956   3.164  11.241  0.2367 -0.2020 -0.0484
14083TIP3    H163740   3.990   3.108  11.171 -1.0360 -0.6177 -0.3761
14083TIP3    H263741   3.902   3.229  11.195  1.2652  0.9797  0.3781
14084TIP3   OH263742   2.964   4.861  12.659 -0.4250 -0.1759 -0.4165
14084TIP3    H163743   3.033   4.918  12.626  1.1261 -1.0098  1.2407
14084TIP3    H263744   2.884   4.913  12.650  0.7351  1.7395 -0.2478
14085TIP3   OH263745   1.471   4.994   1.532 -0.0818 -0.6212 -0.1503
14085TIP3    H163746   1.401   5.060   1.538  0.8206  0.7360 -2.9529
14085TIP3    H263747   1.427   4.917   1.494 -0.2334  0.0340 -1.3720
14086TIP3   OH263748   3.775   0.618  12.575 -0.0434  0.2081  0.0084
14086TIP3    H163749   3.867   0.623  12.551  0.4852 -1.4485  1.4754
14086TIP3    H263750   3.775   0.584  12.664 -2.0956 -0.4668 -0.1938
14087TIP3   OH263751   2.563   3.575  11.620  0.0733  0.3840  0.4730
14087TIP3    H163752   2.645   3.587  11.669  0.2563 -1.2585  0.6280
14087TIP3    H263753   2.584   3.604  11.531  0.0945  2.2291  1.0303
14088TIP3   OH263754   4.269   5.710   1.556  0.5609 -0.4710  0.8241
14088TIP3    H163755   4.259   5.709   1.460 -1.2648  0.8597  0.9412
14088TIP3    H263756   4.284   5.618   1.579 -1.1518 -1.1836 -0.5838
14089TIP3   OH263757   5.999   4.119   5.069  0.2503  0.8431 -0.0192
14089TIP3    H163758   6.090   4.128   5.097 -0.3560  1.8831  1.7922
14089TIP3    H263759   5.981   4.198   5.018  0.3825  0.5596 -0.5176
14090TIP3   OH263760   1.679   6.522  16.262  0.3605  0.3276 -0.2774
14090TIP3    H163761   1.748   6.465  16.294  0.1835  0.5141  0.4731
14090TIP3    H263762   1.600   6.493  16.309  0.0737  0.5574 -0.6098
14091TIP3   OH263763   1.020   2.762   2.851  0.4495 -0.0320 -0.3797
14091TIP3    H163764   1.066   2.762   2.935 -1.8684 -1.2842  0.9989
14091TIP3    H263765   0.981   2.850   2.846  1.6384  0.4969 -0.8208
14092TIP3   OH263766   1.973   2.218  13.486 -0.3237  0.2887 -0.4579
14092TIP3    H163767   1.894   2.188  13.532  0.2130 -1.0646 -0.3835
14092TIP3    H263768   2.028   2.254  13.555  0.0438 -0.7952 -0.1644
14093TIP3   OH263769   0.223   0.191  14.336  0.5613  0.6194  0.3385
14093TIP3    H163770   0.277   0.113  14.329  1.2432  1.1841 -1.0466
14093TIP3    H263771   0.260   0.239  14.409  1.4743  0.6311 -0.1174
14094TIP3   OH263772   0.402   6.536   5.974 -0.3809  0.3936  0.5629
14094TIP3    H163773   0.471   6.469   5.967 -0.6964 -0.1710  2.2770
14094TIP3    H263774   0.409   6.587   5.894  1.2764 -0.3807  0.1788
14095TIP3   OH263775   2.127   2.343  15.378  0.2316 -0.0308  0.3238
14095TIP3    H163776   2.159   2.291  15.451  1.2051 -0.8114 -0.6343
14095TIP3    H263777   2.032   2.344  15.388  0.3732  0.2186  1.8118
14096TIP3   OH263778   6.497   3.454  11.810  0.0002 -0.8211  0.2192
14096TIP3    H163779   6.467   3.536  11.848 -0.9611 -0.8739 -0.4176
14096TIP3    H263780   6.421   3.396  11.813  0.3857 -1.3638 -0.2613
14097TIP3   OH263781   6.530   4.348   3.286 -0.0184  0.3720 -0.1152
14097TIP3    H163782   6.563   4.319   3.371 -1.4458 -1.1892 -0.0434
14097TIP3    H263783   6.570   4.433   3.273  1.8719 -0.2587  1.1606
14098TIP3   OH263784   3.155   1.690   3.858 -0.1011 -0.2866 -0.0414
14098TIP3    H163785   3.166   1.619   3.794 -0.1503 -1.6367  1.3855
14098TIP3    H263786   3.188   1.654   3.940 -0.8187  1.0940  0.8983
14099TIP3   OH263787   4.589   5.197   5.441  0.1042  0.1106  0.1160
14099TIP3    H163788   4.541   5.167   5.518  0.4440 -1.6557 -0.2996
14099TIP3    H263789   4.677   5.216   5.473  0.8519 -2.5636 -0.0777
14100TIP3   OH263790   6.763   6.318  14.871  0.9690 -0.2845 -0.0145
14100TIP3    H163791   6.768   6.344  14.779  0.3678  1.1346  0.3368
14100TIP3    H263792   6.671   6.299  14.886  0.4296  2.6349  1.0632
14101TIP3   OH263793   6.064   4.747  11.514  0.5590  0.5286  0.7661
14101TIP3    H163794   6.156   4.739  11.539  0.9382  0.7297 -0.4934
14101TIP3    H263795   6.061   4.717  11.423 -0.5465  0.9561  0.6470
14102TIP3   OH263796   1.231   4.548   3.926  0.3213  0.6166 -0.4597
14102TIP3    H163797   1.191   4.609   3.863 -0.3464 -0.2766 -0.9214
14102TIP3    H263798   1.280   4.486   3.872  0.0414  0.0602 -0.0881
14103TIP3   OH263799   2.127   1.890   1.535  0.3184  0.7230 -0.6679
14103TIP3    H163800   2.037   1.887   1.567  0.9298  1.0935  1.2287
14103TIP3    H263801   2.155   1.799   1.532  0.1827  0.6701 -0.3395
14104TIP3   OH263802   5.154   4.352  13.352 -0.0299 -0.3323  0.0892
14104TIP3    H163803   5.170   4.405  13.430  1.5014 -0.9882  0.2494
14104TIP3    H263804   5.070   4.309  13.370  0.2582 -0.4164  1.3586
14105TIP3   OH263805   4.183   6.148   6.075 -0.0717  0.6214  0.4220
14105TIP3    H163806   4.168   6.235   6.038  2.1213  0.8511 -0.0356
14105TIP3    H263807   4.175   6.161   6.169 -0.1210  1.2340  0.3400
14106TIP3   OH263808   4.435   2.838  15.729 -0.0468  0.2259  0.2360
14106TIP3    H163809   4.438   2.743  15.735  1.1413  0.1327 -1.3363
14106TIP3    H263810   4.514   2.862  15.681 -1.9090  1.7416 -2.3353
14107TIP3   OH263811   6.749   1.028  11.986  0.3286 -0.1403  0.2346
14107TIP3    H163812   6.656   1.034  11.962  0.3788 -0.8161 -0.1469
14107TIP3    H263813   6.779   1.119  11.988 -0.7554  0.2466  2.0593
14108TIP3   OH263814   2.041   3.988   4.566 -0.5051 -0.0647  0.0903
14108TIP3    H163815   2.129   3.998   4.529 -0.4294 -0.6857  0.0890
14108TIP3    H263816   1.984   4.034   4.505 -0.5613 -2.1687 -1.5553
14109TIP3   OH263817   5.074   4.892   2.846  0.8665 -0.1306 -0.3871
14109TIP3    H163818   5.145   4.903   2.910 -0.3433 -0.0231  0.9952
14109TIP3    H263819   5.091   4.959   2.780  0.8675  1.3905  1.0756
14110TIP3   OH263820   5.463   0.445   3.989  0.4660 -0.2193 -0.0115
14110TIP3    H163821   5.495   0.448   3.899 -1.4833 -0.2364 -0.7563
14110TIP3    H263822   5.452   0.352   4.008 -0.7631 -0.1829 -0.4225
14111TIP3   OH263823   3.166   0.620  14.248  0.1516 -0.8410  0.2746
14111TIP3    H163824   3.116   0.547  14.287  1.2296 -2.1693 -0.7314
14111TIP3    H263825   3.257   0.597  14.263  0.5528  1.3633  1.7352
14112TIP3   OH263826   4.852   5.799   2.352  0.3812 -0.7783 -0.8855
14112TIP3    H163827   4.871   5.819   2.261  4.1568 -0.9619 -0.3016
14112TIP3    H263828   4.849   5.703   2.356 -0.5523 -0.7539 -0.9313
14113TIP3   OH263829   5.758   1.152   3.813  0.3507 -0.1412 -0.5324
14113TIP3    H163830   5.748   1.061   3.787 -1.2172 -0.2644  0.4035
14113TIP3    H263831   5.752   1.150   3.909  2.5412  0.6980 -0.3252
14114TIP3   OH263832   5.823   2.101  16.562 -0.3505  0.3991  0.2320
14114TIP3    H163833   5.851   2.079  16.651 -1.5589  1.4835  0.9046
14114TIP3    H263834   5.775   2.023  16.532  1.9471 -0.8832 -0.3778
14115TIP3   OH263835   3.662   4.367  11.243  0.3765  0.2058  0.4551
14115TIP3    H163836   3.749   4.401  11.225  0.4653 -0.6788 -0.9595
14115TIP3    H263837   3.676   4.289  11.297  0.6831 -1.2796 -1.6672
14116TIP3   OH263838   2.565   1.467   2.507  0.2419 -0.0330  0.1362
14116TIP3    H163839   2.657   1.446   2.490 -0.0443 -1.0808 -0.1415
14116TIP3    H263840   2.557   1.559   2.480  0.9653 -0.2194 -0.7823
14117TIP3   OH263841   0.020   2.031  11.284  0.3825 -0.3555 -0.3103
14117TIP3    H163842  -0.061   1.979  11.281  0.9323 -1.2211 -0.3524
14117TIP3    H263843  -0.011   2.122  11.286 -0.6167 -0.6899  0.9522
14118TIP3   OH263844   5.707   0.692   2.854 -0.3312 -0.3894  0.7578
14118TIP3    H163845   5.648   0.764   2.874  0.2838  0.6459 -0.9854
14118TIP3    H263846   5.786   0.710   2.904 -1.3598 -1.7643  3.0772
14119TIP3   OH263847   5.159   4.245  14.647 -0.0608  0.3176 -0.2445
14119TIP3    H163848   5.184   4.249  14.555 -0.7638  0.0133 -0.4511
14119TIP3    H263849   5.080   4.192  14.649  1.3636 -1.9323  0.8195
14120TIP3   OH263850   3.078   3.222  14.543  0.2348 -0.0040 -0.4034
14120TIP3    H163851   3.109   3.199  14.455 -1.1377 -0.7484 -0.7214
14120TIP3    H263852   3.090   3.317  14.549  0.7090 -0.0011 -1.2328
14121TIP3   OH263853   3.344   1.910   0.293 -0.4186 -0.3748  0.0614
14121TIP3    H163854   3.339   1.824   0.252  0.5741 -1.2300  1.6413
14121TIP3    H263855   3.346   1.971   0.219  0.1364 -1.7682 -1.1414
14122TIP3   OH263856   1.693   0.469  12.739  0.3588  0.3141 -0.4846
14122TIP3    H163857   1.687   0.472  12.643 -0.3722  0.3849 -0.4385
14122TIP3    H263858   1.711   0.559  12.765 -1.4564  0.6949 -0.4339
14123TIP3   OH263859   5.941   2.089  16.831 -0.1904  0.4822 -0.2509
14123TIP3    H163860   5.958   2.148  16.905  0.1437  0.1222 -0.0345
14123TIP3    H263861   6.027   2.054  16.809 -0.5608 -1.1383  0.6516
14124TIP3   OH263862   3.510   5.933   0.893  0.6401  0.2077 -0.0508
14124TIP3    H163863   3.561   5.857   0.865  0.3657 -0.3612  0.9369
14124TIP3    H263864   3.535   5.944   0.985 -1.0756 -0.1399  0.4805
14125TIP3   OH263865   0.938   5.649   2.845 -0.0205 -0.5278 -0.0098
14125TIP3    H163866   0.992   5.606   2.779  0.2678  0.9758 -0.7804
14125TIP3    H263867   0.848   5.640   2.812 -0.3515 -2.9984  1.2561
14126TIP3   OH263868   0.643   0.551   0.008  0.7899 -0.2621 -0.3275
14126TIP3    H163869   0.710   0.499   0.053  0.1033  1.7074  3.3119
14126TIP3    H263870   0.646   0.637   0.050 -3.5194  0.1580 -0.3903
14127TIP3   OH263871   3.077   5.063  13.325  0.0771  0.8783 -0.1926
14127TIP3    H163872   3.121   5.016  13.255 -0.3575  0.4015 -0.1568
14127TIP3    H263873   3.128   5.043  13.403  0.5235  1.3564 -0.3598
14128TIP3   OH263874   1.061   0.981  12.334 -0.4864 -0.0755  0.2201
14128TIP3    H163875   1.133   1.013  12.279 -1.0355  1.0764  0.1440
14128TIP3    H263876   1.104   0.954  12.415  0.3724 -2.0377 -0.8046
14129TIP3   OH263877   1.723   0.655   2.641  0.5367  0.1758 -0.2205
14129TIP3    H163878   1.704   0.638   2.734 -1.3700 -0.3339 -0.6733
14129TIP3    H263879   1.642   0.690   2.606  1.4517  1.0508 -1.5760
14130TIP3   OH263880   1.615   3.623   0.486  0.4571  0.5434  0.2101
14130TIP3    H163881   1.688   3.562   0.478  0.5462  0.8133 -1.2554
14130TIP3    H263882   1.577   3.627   0.398 -0.5903  1.3135  0.6750
14131TIP3   OH263883   3.077   2.287   1.707 -0.2479  0.1354 -0.5557
14131TIP3    H163884   3.008   2.353   1.699  0.1182  0.7867  1.0782
14131TIP3    H263885   3.156   2.337   1.723 -0.0601 -0.6636  1.3457
14132TIP3   OH263886   5.580   2.354  11.876 -0.6390  0.5686 -1.0608
14132TIP3    H163887   5.542   2.267  11.862  1.0756 -0.1996 -1.2441
14132TIP3    H263888   5.506   2.414  11.866 -2.0524 -0.9083 -0.0516
14133TIP3   OH263889   2.052   5.870  12.799 -0.3044  0.2088 -0.1940
14133TIP3    H163890   2.025   5.952  12.758  1.4940  0.1739 -1.5550
14133TIP3    H263891   2.145   5.881  12.819 -0.0480 -1.4377 -0.2829
14134TIP3   OH263892   0.284   1.095   6.449 -0.3481 -0.0727 -0.0298
14134TIP3    H163893   0.235   1.017   6.425  1.7919 -1.0510 -1.4698
14134TIP3    H263894   0.373   1.064   6.467  0.4251  1.9501 -0.0649
14135TIP3   OH263895   2.323   3.673   5.472 -0.1522  0.1142 -0.3338
14135TIP3    H163896   2.246   3.684   5.415  1.0383 -1.7915 -2.4473
14135TIP3    H263897   2.394   3.717   5.425  0.2597  1.2480  1.2616
14136TIP3   OH263898   5.059   6.300  12.771 -0.2663 -0.1295 -0.0782
14136TIP3    H163899   4.968   6.289  12.745 -0.9756  0.0136  2.1233
14136TIP3    H263900   5.072   6.395  12.770 -0.9485  0.0314  1.9377
14137TIP3   OH263901   3.042   6.378   1.756 -0.1385  0.2259  0.0482
14137TIP3    H163902   2.987   6.446   1.793 -1.7676 -1.1153  0.2274
14137TIP3    H263903   2.988   6.339   1.687  1.6209  0.5839 -1.6023
14138TIP3   OH263904   3.893   3.747  13.321 -0.2396 -0.0835 -0.6397
14138TIP3    H163905   3.939   3.812  13.373 -2.6916  1.8034 -0.6308
14138TIP3    H263906   3.962   3.700  13.274  1.8128  0.4463  1.6619
14139TIP3   OH263907   0.856   6.170  12.815 -0.5156 -0.2200 -0.6764
14139TIP3    H163908   0.926   6.186  12.752  0.2971 -1.4492 -0.1199
14139TIP3    H263909   0.898   6.124  12.887 -1.6596  0.1422  0.2565
14140TIP3   OH263910   2.973   2.583   2.974 -0.1734 -0.4304  0.1109
14140TIP3    H163911   2.979   2.656   3.036  0.6006 -0.2378 -0.1744
14140TIP3    H263912   3.022   2.613   2.897 -0.0458 -1.1615 -0.1037
14141TIP3   OH263913   1.854   4.059  16.689 -0.1590 -0.1091  0.3010
14141TIP3    H163914   1.937   4.044  16.736 -1.0878 -1.2686  1.6532
14141TIP3    H263915   1.837   4.152  16.701 -0.0290 -0.2407  1.7836
14142TIP3   OH263916   6.734   5.450  17.182 -0.5469  0.2769  0.5054
14142TIP3    H163917   6.765   5.498  17.105 -0.1397  0.1600  0.5955
14142TIP3    H263918   6.786   5.370  17.183  1.3483  1.4363  2.3927
14143TIP3   OH263919   2.783   0.306   0.329 -0.7053 -0.7348  0.4488
14143TIP3    H163920   2.849   0.291   0.261 -0.6586  1.2837 -0.0067
14143TIP3    H263921   2.832   0.345   0.401 -0.5289 -3.9434  2.2428
14144TIP3   OH263922   1.824   3.463  11.740 -0.2141 -0.4756 -0.1220
14144TIP3    H163923   1.810   3.376  11.776 -2.4969  0.1506  0.7189
14144TIP3    H263924   1.891   3.452  11.673  0.4118 -2.6309  0.7910
14145TIP3   OH263925   4.486   1.830  11.589  0.2340  0.2236  0.1295
14145TIP3    H163926   4.470   1.797  11.501 -1.1768 -1.8524  1.0596
14145TIP3    H263927   4.543   1.764  11.629  2.0828  1.8788  0.3835
14146TIP3   OH263928   2.548   2.002   6.779  0.4286  0.0214 -0.5050
14146TIP3    H163929   2.480   2.030   6.718  1.8144  1.3622 -1.4818
14146TIP3    H263930   2.594   2.082   6.804  0.5717 -0.6192  1.5396
14147TIP3   OH263931   6.034   2.488  12.655  0.5535  0.6845 -0.5134
14147TIP3    H163932   5.951   2.531  12.677 -0.4745 -1.5482  0.3466
14147TIP3    H263933   6.083   2.486  12.736 -0.1677 -1.2192 -0.0759
14148TIP3   OH263934   2.173   1.547   1.071  0.0940 -0.0626  0.2041
14148TIP3    H163935   2.096   1.504   1.034  1.3466 -2.6401  0.3724
14148TIP3    H263936   2.138   1.600   1.142 -1.5045 -1.8006  0.8130
14149TIP3   OH263937   1.091   0.450  13.611  0.2507 -0.3130  0.2834
14149TIP3    H163938   1.134   0.395  13.676  0.4715  0.6583  0.9887
14149TIP3    H263939   1.163   0.492  13.564  0.1059  0.3072  0.5893
14150TIP3   OH263940   1.798   3.996  15.332  0.4824  0.3151  0.1102
14150TIP3    H163941   1.810   3.953  15.417 -2.0873  0.1787  0.4857
14150TIP3    H263942   1.817   4.088  15.348  1.7002  0.0377  0.3760
14151TIP3   OH263943   1.670   4.307   2.014 -0.1254 -0.1239 -0.0163
14151TIP3    H163944   1.694   4.395   1.983 -0.2239  0.4750  1.5487
14151TIP3    H263945   1.697   4.305   2.105  0.0718 -1.8201 -0.0760
14152TIP3   OH263946   0.727   6.197  15.758  0.3049  0.2718 -0.3325
14152TIP3    H163947   0.773   6.192  15.674  0.4358 -0.4980 -0.2232
14152TIP3    H263948   0.742   6.111  15.798  1.6503  1.1813  1.2302
14153TIP3   OH263949   4.138   1.263  17.096 -0.4070  0.2300 -0.2076
14153TIP3    H163950   4.223   1.306  17.097 -1.2098  1.8708  0.7795
14153TIP3    H263951   4.148   1.191  17.033  1.0103  1.8235 -1.8873
14154TIP3   OH263952   6.573   5.440  10.560  0.6055 -0.6426 -0.0450
14154TIP3    H163953   6.570   5.531  10.589 -1.5067 -0.4290 -0.7479
14154TIP3    H263954   6.665   5.423  10.542  1.2682  0.8125  1.7065
14155TIP3   OH263955   5.374   6.248  16.936 -0.2446 -0.3122  0.4127
14155TIP3    H163956   5.325   6.329  16.924 -0.3731 -0.6824 -2.4333
14155TIP3    H263957   5.464   6.270  16.913 -0.4305 -1.0789 -1.2365
14156TIP3   OH263958   0.067   1.099  14.435  0.1024  0.4113  0.2851
14156TIP3    H163959   0.095   1.032  14.372  1.7921  0.6017  0.7876
14156TIP3    H263960  -0.025   1.077  14.454 -0.4214  0.2600 -2.0945
14157TIP3   OH263961   1.135   3.726  12.587 -0.3565 -0.0076  0.3582
14157TIP3    H163962   1.171   3.690  12.668 -0.7345 -1.2024  0.0266
14157TIP3    H263963   1.116   3.649  12.534  1.0576  0.7961 -1.4055
14158TIP3   OH263964   4.354   5.798   2.686  0.6859 -0.2073 -0.5162
14158TIP3    H163965   4.410   5.722   2.702  0.0906 -0.4486  0.4255
14158TIP3    H263966   4.381   5.862   2.752 -0.1336 -0.3166 -0.0678
14159TIP3   OH263967   2.636   2.740  13.502 -0.1673 -0.1721  0.2712
14159TIP3    H163968   2.549   2.719  13.467 -1.2545  1.7203  1.6402
14159TIP3    H263969   2.639   2.692  13.585  0.1917 -0.4125  0.1177
14160TIP3   OH263970   3.288   4.789   4.008  0.2781 -0.3092  0.1598
14160TIP3    H163971   3.255   4.879   4.006 -2.0197 -1.0686  0.9226
14160TIP3    H263972   3.274   4.760   4.098  0.6878 -1.5391 -0.1484
14161TIP3   OH263973   4.799   2.962  15.947 -0.4483  0.0872  0.0903
14161TIP3    H163974   4.787   2.920  15.862  0.1525  0.9297 -0.4224
14161TIP3    H263975   4.837   2.894  16.002 -1.7089 -0.7491 -0.0298
14162TIP3   OH263976   4.764   3.679  11.368  0.2457  0.4073  0.1229
14162TIP3    H163977   4.841   3.673  11.311 -0.0314 -0.9489 -0.1574
14162TIP3    H263978   4.711   3.748  11.329  1.1105  1.0605  0.0687
14163TIP3   OH263979   5.713   5.885  12.726 -0.0051 -0.4151 -0.1958
14163TIP3    H163980   5.738   5.858  12.637  1.5612  0.4994 -0.0831
14163TIP3    H263981   5.660   5.964  12.713  3.0391  1.7887 -0.3287
14164TIP3   OH263982   2.951   3.003  12.155  0.1720 -0.2840 -0.1952
14164TIP3    H163983   2.856   3.008  12.155  0.2019  0.3899 -0.3679
14164TIP3    H263984   2.976   3.019  12.063  0.3420 -3.0059 -0.7028
14165TIP3   OH263985   3.735   2.812   5.211  0.2719  0.2773 -0.2666
14165TIP3    H163986   3.766   2.763   5.135  0.7037  1.4972 -0.8980
14165TIP3    H263987   3.700   2.894   5.175  0.7850  1.0243  0.8656
14166TIP3   OH263988   1.905   6.707   1.051 -1.0062 -0.2246  0.5769
14166TIP3    H163989   1.923   6.613   1.055 -0.2572 -0.0654  1.1924
14166TIP3    H263990   1.928   6.732   0.962  1.2134 -0.1771  1.1005
14167TIP3   OH263991   3.082   0.930  17.131  0.1619 -0.4143  0.7086
14167TIP3    H163992   3.064   1.018  17.097 -0.5352 -0.8229  0.0000
14167TIP3    H263993   3.106   0.945  17.222 -0.0582  0.5054  0.6323
14168TIP3   OH263994   6.527   3.446  12.814  0.2227 -0.6282 -0.3201
14168TIP3    H163995   6.589   3.374  12.823 -0.8055 -1.2982  1.9593
14168TIP3    H263996   6.545   3.503  12.888 -2.0213 -0.9841  0.5724
14169TIP3   OH263997   3.022   4.358  13.276 -0.2432 -0.5442 -0.7302
14169TIP3    H163998   3.018   4.372  13.182 -1.0720  1.5272 -0.4588
14169TIP3    H263999   2.949   4.299  13.295  0.4529 -1.6545 -1.4716
14170TIP3   OH264000   3.686   5.321   6.071  0.5699 -0.2417  0.1647
14170TIP3    H164001   3.606   5.307   6.121  0.0623  1.6991 -0.0492
14170TIP3    H264002   3.756   5.320   6.137  0.2230 -0.5404  0.5301
14171TIP3   OH264003   3.890   2.179   5.398  0.0405  0.0577  0.8836
14171TIP3    H164004   3.947   2.167   5.321  1.5500  1.2049  1.7810
14171TIP3    H264005   3.814   2.226   5.364 -1.3930 -3.0814 -0.7162
14172TIP3   OH264006   6.148   6.745   3.950  0.2567  0.1516 -0.6163
14172TIP3    H164007   6.234   6.707   3.931 -0.3471  0.1465 -3.8494
14172TIP3    H264008   6.127   6.798   3.873 -2.4964  0.4304  0.2115
14173TIP3   OH264009   5.181   6.779   0.742 -0.3393 -0.4565 -0.6177
14173TIP3    H164010   5.201   6.724   0.817  0.2809  0.2912 -0.2140
14173TIP3    H264011   5.167   6.866   0.779 -0.1441 -0.1023 -1.3492
14174TIP3   OH264012   2.491   5.795   4.430  0.3171 -0.3662 -0.8340
14174TIP3    H164013   2.509   5.888   4.417 -1.6744 -0.0220 -1.5138
14174TIP3    H264014   2.425   5.793   4.499 -0.2170 -1.2060 -1.3476
14175TIP3   OH264015   6.730   3.018   1.814 -0.2404  0.5622  0.1509
14175TIP3    H164016   6.812   3.045   1.774  1.0193 -0.6639  1.7447
14175TIP3    H264017   6.719   2.927   1.787  0.2160 -0.0293  1.8565
14176TIP3   OH264018   5.752   5.808   2.437  0.3562 -0.2129  0.0764
14176TIP3    H164019   5.810   5.810   2.360  0.6992  1.5101  0.3510
14176TIP3    H264020   5.754   5.716   2.465  1.1134 -0.6545 -1.2912
14177TIP3   OH264021   0.123   3.268   2.298 -0.0059  0.5187  0.0742
14177TIP3    H164022   0.090   3.247   2.385 -0.0540  0.8232  0.1317
14177TIP3    H264023   0.219   3.268   2.307 -0.0062  2.7311  0.6782
14178TIP3   OH264024   1.031   1.424   4.966 -0.2740 -0.1100 -0.5551
14178TIP3    H164025   1.014   1.416   4.872  0.1281  1.0334 -0.7476
14178TIP3    H264026   1.041   1.519   4.980  0.7572 -0.3393  0.4356
14179TIP3   OH264027   1.845   4.701   5.248 -0.8459 -0.1166 -0.1792
14179TIP3    H164028   1.933   4.698   5.211 -1.0554  1.2281 -0.8369
14179TIP3    H264029   1.828   4.611   5.277  0.8864 -0.3084  0.3378
14180TIP3   OH264030   2.858   2.351  16.234 -0.2896  0.2605 -0.1521
14180TIP3    H164031   2.909   2.425  16.268 -0.0841 -0.7592  1.9446
14180TIP3    H264032   2.906   2.274  16.264 -1.6187 -0.7298 -0.4815
14181TIP3   OH264033   1.771   6.787  17.039  0.2311 -0.0458  0.0195
14181TIP3    H164034   1.700   6.828  16.990  1.0163  0.1901 -0.9782
14181TIP3    H264035   1.816   6.860  17.082  1.0693  0.0685 -1.0029
14182TIP3   OH264036   6.511   1.775   5.452 -0.3821 -0.3400  0.2611
14182TIP3    H164037   6.442   1.778   5.386 -0.3506 -1.3250  0.1631
14182TIP3    H264038   6.496   1.852   5.506 -1.1918 -0.2177 -0.1174
14183TIP3   OH264039   1.570   3.998   2.538  0.3179 -0.1161  0.3992
14183TIP3    H164040   1.622   4.060   2.487  0.4129  0.4326  1.1362
14183TIP3    H264041   1.481   4.033   2.536 -0.1191 -1.2296 -1.1337
14184TIP3   OH264042   5.663   0.429   3.210 -0.0167  0.0412  0.0702
14184TIP3    H164043   5.650   0.335   3.221 -1.0573  0.1465 -0.1712
14184TIP3    H264044   5.755   0.443   3.233  0.6197 -1.2789 -1.4761
14185TIP3   OH264045   0.233   6.790  12.750 -0.5240  0.1558 -0.2260
14185TIP3    H164046   0.170   6.848  12.706 -0.1998  0.2346 -0.5941
14185TIP3    H264047   0.190   6.705  12.751 -1.2030  0.4997  0.7434
14186TIP3   OH264048   4.841   2.854  16.563  0.3186  0.6860  0.0185
14186TIP3    H164049   4.804   2.894  16.641 -0.6508  2.6903 -1.3595
14186TIP3    H264050   4.764   2.832  16.509  0.9711  0.1052 -0.6972
14187TIP3   OH264051   2.586   3.994   3.696 -0.5941  0.0257  0.2698
14187TIP3    H164052   2.551   3.956   3.778  0.2250 -0.5748  0.3579
14187TIP3    H264053   2.681   3.993   3.708 -0.2693 -2.3934 -1.6345
14188TIP3   OH264054   3.380   6.064   2.301  0.0877 -0.8034  0.0352
14188TIP3    H164055   3.324   6.121   2.247 -0.9401 -0.3423  1.5081
14188TIP3    H264056   3.319   6.001   2.340  0.7007 -0.7843  1.0648
14189TIP3   OH264057   0.674   0.479   0.314  0.1430 -0.0852  0.2067
14189TIP3    H164058   0.587   0.440   0.310 -0.0932  0.2085  1.8362
14189TIP3    H264059   0.722   0.438   0.243 -1.2602 -0.4037 -0.5907
14190TIP3   OH264060   4.613   2.223   4.058  0.4367 -0.3972 -0.5108
14190TIP3    H164061   4.668   2.245   4.134  0.3598 -1.7340 -0.0424
14190TIP3    H264062   4.668   2.243   3.982  1.1106 -0.5450 -0.0703
14191TIP3   OH264063   4.367   2.112   2.082 -0.7689 -0.7841 -0.8658
14191TIP3    H164064   4.341   2.123   2.174 -2.1202 -0.3070 -1.2761
14191TIP3    H264065   4.285   2.113   2.034 -0.0531 -0.6726 -2.1286
14192TIP3   OH264066   5.719   2.545   2.621 -0.0300  0.1261 -0.2634
14192TIP3    H164067   5.650   2.545   2.555  0.9714  0.5284 -1.3566
14192TIP3    H264068   5.796   2.577   2.574  0.9710 -0.5878  0.8452
14193TIP3   OH264069   5.107   0.109   6.276 -0.0495  0.3472 -0.0511
14193TIP3    H164070   5.111   0.177   6.343  1.0609  2.5407 -2.2123
14193TIP3    H264071   5.014   0.090   6.267 -0.3697  1.4698  0.6930
14194TIP3   OH264072   3.851   3.782  12.540  0.1320 -0.5098 -0.4550
14194TIP3    H164073   3.775   3.840  12.533 -1.4890 -2.4654  0.1731
14194TIP3    H264074   3.925   3.838  12.515 -1.4504  1.5159 -0.9393
14195TIP3   OH264075   1.380   0.774  16.860 -0.1338  0.0272 -0.4167
14195TIP3    H164076   1.301   0.753  16.911  1.5177  0.0609  2.3249
14195TIP3    H264077   1.419   0.689  16.840 -0.5352  0.0346 -1.2655
14196TIP3   OH264078   2.973   1.907   0.718  0.1651  0.0660  0.1302
14196TIP3    H164079   3.061   1.930   0.748  0.8038 -3.1200  1.0686
14196TIP3    H264080   2.942   1.844   0.783 -2.3185  0.1628 -0.8819
14197TIP3   OH264081   0.070   2.744  14.008  0.6575 -0.1449 -0.8220
14197TIP3    H164082  -0.004   2.796  14.039 -0.5531 -0.7042 -2.5628
14197TIP3    H264083   0.129   2.737  14.083 -0.5374  1.2450  0.2977
14198TIP3   OH264084   4.605   6.574   1.439  0.3631  0.2201 -0.4740
14198TIP3    H164085   4.529   6.626   1.465 -0.3074 -0.3072 -1.3264
14198TIP3    H264086   4.646   6.625   1.369  2.5589  1.9783  1.8859
14199TIP3   OH264087   6.320   4.134   5.625  0.1752  0.3192  0.4224
14199TIP3    H164088   6.276   4.213   5.593  1.7441  1.2226  0.4262
14199TIP3    H264089   6.383   4.113   5.557  0.3431 -0.4542  0.8132
14200TIP3   OH264090   1.049   1.976   1.444 -0.8987 -0.6641 -0.0913
14200TIP3    H164091   1.070   2.023   1.363 -1.1855 -0.9499 -0.3351
14200TIP3    H264092   1.054   2.043   1.512 -1.2257 -0.2920 -0.4247
14201TIP3   OH264093   2.176   2.218   6.803 -0.0456  0.2319  0.0710
14201TIP3    H164094   2.103   2.167   6.836  2.7656 -2.3032  2.9918
14201TIP3    H264095   2.220   2.160   6.741  0.7273  0.8871 -0.0109
14202TIP3   OH264096   6.371   4.946   0.780  0.6430  0.2024 -0.7939
14202TIP3    H164097   6.324   4.922   0.700 -0.6777 -0.7235  0.1963
14202TIP3    H264098   6.432   5.015   0.753  0.5100 -0.3595 -2.6511
14203TIP3   OH264099   0.993   4.002   4.958 -0.2014  0.4449 -0.1689
14203TIP3    H164100   1.015   3.938   4.890 -1.2735 -0.3518  0.1942
14203TIP3    H264101   1.052   4.075   4.943  1.8330 -1.0577  0.0336
14204TIP3   OH264102   5.358   2.727  16.209 -0.3148  0.0329  0.0720
14204TIP3    H164103   5.347   2.791  16.280  3.2128 -0.6745  1.4396
14204TIP3    H264104   5.371   2.643  16.253  0.1709 -0.7619 -1.4959
14205TIP3   OH264105   5.608   5.271  12.570 -0.3031 -0.1449  0.1657
14205TIP3    H164106   5.685   5.325  12.589 -0.3549 -0.7615  2.3679
14205TIP3    H264107   5.542   5.334  12.540  0.2905  0.7367  0.6628
14206TIP3   OH264108   1.471   5.420  15.042  0.3599 -0.5056 -0.0140
14206TIP3    H164109   1.416   5.469  15.102 -1.3673  1.1111 -2.7342
14206TIP3    H264110   1.495   5.341  15.091  0.0651  1.1963  3.1404
14207TIP3   OH264111   2.922   3.827  12.851  0.2998  0.1038  0.4497
14207TIP3    H164112   2.832   3.797  12.861  0.9469 -1.2821  2.9669
14207TIP3    H264113   2.926   3.911  12.897 -0.0863  1.1125 -1.2824
14208TIP3   OH264114   1.260   5.389  16.966 -0.3436 -0.2063  0.2050
14208TIP3    H164115   1.353   5.368  16.968 -0.5296 -1.0659  0.5485
14208TIP3    H264116   1.256   5.484  16.970  0.5033 -0.1951  1.0242
14209TIP3   OH264117   3.055   0.475   4.699 -0.1526  0.3003 -0.0423
14209TIP3    H164118   2.995   0.431   4.639 -0.4870  0.7064 -0.0117
14209TIP3    H264119   3.007   0.478   4.782 -0.3470  1.1888 -0.1799
14210TIP3   OH264120   1.105   4.095  16.641  0.2220  0.3183 -0.3040
14210TIP3    H164121   1.026   4.044  16.624 -1.7906  3.2425 -0.5528
14210TIP3    H264122   1.075   4.166  16.699  3.2457  0.1883  1.6126
14211TIP3   OH264123   2.393   0.199   4.495 -0.0459 -0.0173 -0.1300
14211TIP3    H164124   2.451   0.241   4.558  0.1547 -0.8625  0.2635
14211TIP3    H264125   2.436   0.211   4.410  0.0123  0.5523 -0.0212
14212TIP3   OH264126   4.005   5.270  11.457 -0.3726 -0.1459 -0.0957
14212TIP3    H164127   3.932   5.290  11.399  0.1527  1.9677 -0.1301
14212TIP3    H264128   3.990   5.326  11.533  0.6086 -0.5327  0.3890
14213TIP3   OH264129   5.296   6.524   1.650 -0.1970 -0.2797  0.2929
14213TIP3    H164130   5.285   6.504   1.743  0.2829 -1.0862  0.1859
14213TIP3    H264131   5.362   6.462   1.620  1.9092  1.9653  0.0777
14214TIP3   OH264132   4.160   3.248   3.501 -0.5046  0.2933 -0.7091
14214TIP3    H164133   4.144   3.159   3.532  1.1965  0.0362 -0.4669
14214TIP3    H264134   4.203   3.237   3.416  0.1529  0.8576 -0.4618
14215TIP3   OH264135   0.570   1.314  17.043 -0.4553  0.3917  0.0784
14215TIP3    H164136   0.537   1.311  16.953  1.1858  0.2860 -0.5467
14215TIP3    H264137   0.655   1.271  17.039 -1.0530 -1.0838  2.0319
14216TIP3   OH264138   6.562   0.087  11.374  0.0349  0.5314  0.2534
14216TIP3    H164139   6.487   0.040  11.411 -0.7724 -0.0352 -1.9929
14216TIP3    H264140   6.587   0.149  11.444 -1.8445  0.0235  1.4662
14217TIP3   OH264141   3.887   3.775  15.503  0.0420 -0.4590 -0.2869
14217TIP3    H164142   3.950   3.790  15.573  1.7474  2.4477 -2.2334
14217TIP3    H264143   3.804   3.809  15.537  0.2673 -1.2870  1.1242
14218TIP3   OH264144   3.877   0.958   3.410 -0.5398  0.4328  0.7057
14218TIP3    H164145   3.931   0.992   3.481  0.1322 -2.1299  1.5248
14218TIP3    H264146   3.787   0.971   3.440 -0.2673 -0.4283  1.9943
14219TIP3   OH264147   3.669   3.225   1.260 -0.1808  0.1294  0.1569
14219TIP3    H164148   3.738   3.201   1.200  0.1764  1.9803 -0.2296
14219TIP3    H264149   3.603   3.156   1.250  1.1520 -1.1416 -0.1695
14220TIP3   OH264150   5.062   4.617  11.732  0.4907 -0.2616 -0.0281
14220TIP3    H164151   5.093   4.561  11.803 -0.6512 -0.0567  0.6550
14220TIP3    H264152   5.112   4.589  11.656  3.5711  1.1120  1.3046
14221TIP3   OH264153   5.464   0.818  12.556 -0.7365  0.0229  0.0692
14221TIP3    H164154   5.516   0.853  12.628 -1.1808  1.6218 -0.3459
14221TIP3    H264155   5.482   0.724  12.557  2.5707  0.5188 -0.3584
14222TIP3   OH264156   5.982   2.625  15.375 -0.5129  0.0316  0.0969
14222TIP3    H164157   5.998   2.576  15.295  0.0676  0.8324 -0.2911
14222TIP3    H264158   5.922   2.695  15.349 -0.1099  0.4545  0.3023
14223TIP3   OH264159   4.705   4.542   0.750 -0.4968 -0.0898 -0.3192
14223TIP3    H164160   4.705   4.472   0.685 -1.0098 -0.0742 -0.3453
14223TIP3    H264161   4.797   4.557   0.770 -0.3742 -0.6262 -0.4688
14224TIP3   OH264162   0.474   1.650   0.827 -0.4158  0.5036  0.2686
14224TIP3    H164163   0.486   1.599   0.907  1.1779 -0.6316 -0.6559
14224TIP3    H264164   0.381   1.642   0.808 -0.3216 -1.5878  0.4851
14225TIP3   OH264165   4.331   3.632   4.062 -0.2484 -0.0621  1.0798
14225TIP3    H164166   4.337   3.536   4.062  1.8294  0.0024  0.1134
14225TIP3    H264167   4.406   3.661   4.115 -0.8457  1.0353  1.3588
14226TIP3   OH264168   5.034   5.201   2.953 -0.4017  0.1939 -0.4261
14226TIP3    H164169   4.960   5.194   2.893 -0.2731  1.2878 -0.7355
14226TIP3    H264170   4.997   5.237   3.033 -0.3256  0.0892 -0.3442
14227TIP3   OH264171   1.568   4.351  12.187  0.3982 -0.0283 -0.4392
14227TIP3    H164172   1.643   4.375  12.132  0.0497 -0.8921 -1.3032
14227TIP3    H264173   1.585   4.396  12.271  1.3196  0.6735 -0.9825
14228TIP3   OH264174   5.759   4.402  11.277  0.2596 -0.0231  0.2609
14228TIP3    H164175   5.783   4.458  11.203 -0.9039  0.8680  0.5212
14228TIP3    H264176   5.724   4.322  11.237 -1.5592  0.9602 -0.2287
14229TIP3   OH264177   5.069   2.983  14.219  0.0033  0.3756 -0.3385
14229TIP3    H164178   5.018   2.988  14.138  0.8116 -1.7651 -1.0521
14229TIP3    H264179   5.153   2.947  14.192  0.6272  0.4987  1.3388
14230TIP3   OH264180   0.544   2.271   4.072 -0.5762  0.0724 -0.2302
14230TIP3    H164181   0.548   2.264   3.976  3.1706  0.0090 -0.2483
14230TIP3    H264182   0.608   2.340   4.093 -1.6930  0.4559  2.2292
14231TIP3   OH264183   4.534   5.673   0.685 -0.4704  0.3896 -0.0807
14231TIP3    H164184   4.497   5.751   0.645 -0.3231  0.2248 -0.5486
14231TIP3    H264185   4.544   5.695   0.777 -2.4016  0.1787  0.2038
14232TIP3   OH264186   6.565   4.214  15.575  0.4565 -0.3238  0.6105
14232TIP3    H164187   6.493   4.152  15.558 -0.3096  1.0746 -1.7908
14232TIP3    H264188   6.643   4.159  15.582 -0.1704 -1.6172 -1.5543
14233TIP3   OH264189   6.119   1.018  16.263 -0.0623  0.2127  0.0104
14233TIP3    H164190   6.199   1.067  16.243  1.1279 -0.5403  2.4517
14233TIP3    H264191   6.149   0.948  16.321 -2.2311 -1.3350 -0.6244
14234TIP3   OH264192   5.621   0.628   5.265 -0.3239 -0.1666  0.7388
14234TIP3    H164193   5.715   0.642   5.260 -0.3854 -0.2399 -1.8357
14234TIP3    H264194   5.612   0.534   5.281  0.0446 -0.2733  0.3383
14235TIP3   OH264195   2.043   4.995  14.083 -0.0291  0.1626 -0.5153
14235TIP3    H164196   1.997   4.925  14.129  0.0693  0.6253  0.3116
14235TIP3    H264197   1.979   5.066  14.077  0.5008  0.7713  0.5460
14236TIP3   OH264198   4.557   6.789  11.324  0.0385  0.6557  0.3580
14236TIP3    H164199   4.511   6.809  11.243  0.6666  0.5495 -0.0365
14236TIP3    H264200   4.569   6.694  11.320 -0.0862  0.6284  0.6633
14237TIP3   OH264201   3.641   0.359   2.621  0.0270  0.5443  0.0959
14237TIP3    H164202   3.605   0.274   2.648  0.9804 -0.0204 -0.3506
14237TIP3    H264203   3.731   0.340   2.596  1.1763  2.1996  2.6564
14238TIP3   OH264204   6.227   5.493  14.202  0.0781 -0.2964 -0.3337
14238TIP3    H164205   6.258   5.403  14.203 -0.5042 -0.5917 -2.8520
14238TIP3    H264206   6.300   5.544  14.166 -0.0684  0.0253 -0.1837
14239TIP3   OH264207   1.827   2.099   4.927  0.1044  0.8877  0.0662
14239TIP3    H164208   1.788   2.159   4.992  0.9855  1.2849  0.2425
14239TIP3    H264209   1.825   2.148   4.845 -1.4088  0.2240 -0.3358
14240TIP3   OH264210   2.823   0.663  14.565 -0.3394  0.3621  0.2677
14240TIP3    H164211   2.875   0.731  14.523  0.1511 -0.5910 -0.6970
14240TIP3    H264212   2.884   0.590  14.578 -1.5878 -1.1156 -1.6884
14241TIP3   OH264213   5.105   6.027  12.254  0.0160 -0.3270  0.2072
14241TIP3    H164214   5.034   6.077  12.293 -1.0254  0.5756 -2.6003
14241TIP3    H264215   5.062   5.951  12.214  1.1955 -1.8855  1.7164
14242TIP3   OH264216   6.728   5.833   4.546 -0.1270  0.2755  0.0936
14242TIP3    H164217   6.719   5.836   4.641 -0.0148  0.5693  0.0981
14242TIP3    H264218   6.649   5.790   4.515  1.4887 -3.4273  0.5686
14243TIP3   OH264219   0.699   4.689  16.366  0.1603  1.5021  0.2299
14243TIP3    H164220   0.781   4.656  16.329  0.6229  0.4554  2.0991
14243TIP3    H264221   0.656   4.734  16.292  2.0736  1.4850 -0.9585
14244TIP3   OH264222   4.183   6.190  11.757 -0.2389  0.4007  0.2325
14244TIP3    H164223   4.112   6.241  11.795 -0.8620 -0.7385  0.6735
14244TIP3    H264224   4.170   6.101  11.792  0.9273 -0.0162 -0.3165
14245TIP3   OH264225   0.646   0.649   0.503 -0.2028  0.6774 -0.1246
14245TIP3    H164226   0.666   0.603   0.421  4.3522  0.8666  0.6122
14245TIP3    H264227   0.672   0.587   0.572  2.4546  2.7529  0.9311
14246TIP3   OH264228   3.625   2.165  15.443 -0.3421  0.1447  0.1057
14246TIP3    H164229   3.625   2.190  15.350  0.8809  0.7949  0.2633
14246TIP3    H264230   3.547   2.110  15.452 -0.8947  0.6651 -1.1413
14247TIP3   OH264231   4.908   2.531  13.223  1.2523  0.4913  0.3851
14247TIP3    H164232   4.951   2.586  13.157 -1.0826 -0.1645 -1.8504
14247TIP3    H264233   4.879   2.454  13.174 -1.3391  0.3493  1.9732
14248TIP3   OH264234   6.636   6.687   3.981  0.1334 -0.4011  0.4049
14248TIP3    H164235   6.617   6.776   4.009 -0.8106 -0.5580  0.2745
14248TIP3    H264236   6.679   6.646   4.056  0.4000  0.1001  0.5270
14249TIP3   OH264237   2.552   4.543   4.373 -0.5441 -0.0190  0.0745
14249TIP3    H164238   2.634   4.553   4.325 -1.2847  1.7717 -0.9309
14249TIP3    H264239   2.520   4.633   4.384 -1.2826 -0.4885  2.4255
14250TIP3   OH264240   2.145   3.431  13.697 -0.1310  0.0116  0.0435
14250TIP3    H164241   2.109   3.516  13.669  0.8687  0.4512  0.0527
14250TIP3    H264242   2.164   3.386  13.615  0.4085  0.2608  0.0323
14251TIP3   OH264243   3.037   1.008  15.935 -0.0582  0.0587 -0.4845
14251TIP3    H164244   3.047   1.015  16.030 -1.8599 -0.2622 -0.2335
14251TIP3    H264245   2.943   1.008  15.921  0.1556 -0.9211 -2.2078
14252TIP3   OH264246   2.803   1.226   6.477 -0.6804 -0.7359 -0.1955
14252TIP3    H164247   2.886   1.209   6.433  0.0878 -0.2985  1.0298
14252TIP3    H264248   2.822   1.214   6.570 -2.2184 -1.5069  0.0485
14253TIP3   OH264249   5.002   2.764   1.622 -0.0907 -0.0026 -0.3957
14253TIP3    H164250   4.947   2.687   1.617 -0.1941  0.0503 -0.0925
14253TIP3    H264251   5.089   2.734   1.596  0.4360 -0.7921  2.0417
14254TIP3   OH264252   1.776   6.103   2.533 -0.3491  0.3242 -0.2448
14254TIP3    H164253   1.704   6.166   2.545 -2.0775 -1.7691  1.1982
14254TIP3    H264254   1.829   6.113   2.612  0.4298  1.2065 -0.8672
14255TIP3   OH264255   0.790   6.163   4.781 -0.1252  0.0776  0.1022
14255TIP3    H164256   0.816   6.252   4.755 -0.8641 -0.0343 -1.0915
14255TIP3    H264257   0.750   6.174   4.867  0.1213  0.8441  0.1262
14256TIP3   OH264258   5.981   4.647   4.222  0.5146  0.3371 -0.2514
14256TIP3    H164259   6.064   4.694   4.229  0.3806  0.5365  0.0645
14256TIP3    H264260   6.006   4.556   4.208  0.7769  0.5342 -1.0957
14257TIP3   OH264261   6.576   1.361  16.797 -0.1741 -0.3123 -0.8407
14257TIP3    H164262   6.643   1.426  16.819 -0.6064  0.6711 -2.2778
14257TIP3    H264263   6.618   1.277  16.816  0.5382  0.3373  0.6889
14258TIP3   OH264264   5.036   3.099   2.753 -0.0104  0.4103 -0.0113
14258TIP3    H164265   5.109   3.048   2.718  0.6165  1.1565  0.1928
14258TIP3    H264266   5.060   3.114   2.845 -1.0638 -0.4943  0.4298
14259TIP3   OH264267   2.746   5.923   3.065  0.1650  0.4886 -0.5861
14259TIP3    H164268   2.767   6.004   3.019  0.1063  1.1896  0.5544
14259TIP3    H264269   2.744   5.856   2.998  2.9906  0.9039 -1.2024
14260TIP3   OH264270   2.114   6.535   1.692 -0.3058  0.4769 -0.2742
14260TIP3    H164271   2.105   6.515   1.598  1.1992  2.0186 -0.8057
14260TIP3    H264272   2.075   6.622   1.701 -0.5396  0.2902  0.5822
14261TIP3   OH264273   4.180   2.224   1.125  0.4574  0.6140  0.3440
14261TIP3    H164274   4.206   2.214   1.216 -1.1953  0.1695  0.8063
14261TIP3    H264275   4.156   2.316   1.116  1.0469  0.7614  0.2194
14262TIP3   OH264276   2.471   0.495  16.004  0.3660 -0.2987  0.1225
14262TIP3    H164277   2.428   0.579  16.018  1.4852  0.3393 -0.0935
14262TIP3    H264278   2.400   0.433  15.988 -0.4742  0.6211  0.2196
14263TIP3   OH264279   1.063   5.708  14.840  0.1666  0.2995 -0.4409
14263TIP3    H164280   1.099   5.677  14.923  0.4196 -1.8023 -1.2750
14263TIP3    H264281   1.022   5.792  14.861 -1.4873 -1.0529  2.2176
14264TIP3   OH264282   4.633   4.372   0.294 -0.4536 -0.1030  0.2118
14264TIP3    H164283   4.579   4.428   0.349 -1.1059 -1.0698  0.5839
14264TIP3    H264284   4.612   4.283   0.322 -0.0099 -0.5728 -0.8756
14265TIP3   OH264285   5.264   3.415   4.790  0.0720  0.3852 -0.4932
14265TIP3    H164286   5.359   3.424   4.789 -0.0561  2.0260 -0.4423
14265TIP3    H264287   5.245   3.369   4.872  0.6963  2.2611  0.7868
14266TIP3   OH264288   4.622   1.095  13.588 -0.4311 -0.0306 -0.2656
14266TIP3    H164289   4.602   1.112  13.680  1.7917 -1.6791  0.6062
14266TIP3    H264290   4.687   1.161  13.565  1.4838 -1.6104  0.4065
14267TIP3   OH264291   2.723   5.329   1.356 -0.0997 -0.1539  0.1379
14267TIP3    H164292   2.647   5.281   1.389 -0.7904 -0.1701 -1.4070
14267TIP3    H264293   2.794   5.264   1.354 -0.2820 -0.3724  0.7225
14268TIP3   OH264294   0.386   2.620  16.780 -0.2059  0.0878 -0.2290
14268TIP3    H164295   0.471   2.634  16.739  0.4902  0.4593  1.2631
14268TIP3    H264296   0.385   2.528  16.804 -0.8167 -0.2483 -1.4723
14269TIP3   OH264297   1.922   5.369   4.548  0.2961 -0.6066  0.2345
14269TIP3    H164298   1.868   5.381   4.626  1.4502 -1.8105  1.2632
14269TIP3    H264299   1.985   5.441   4.551  1.3279 -1.5272  1.2964
14270TIP3   OH264300   3.929   1.258   2.723 -0.1865 -0.1844  0.1705
14270TIP3    H164301   3.910   1.178   2.773 -1.6943 -0.3207 -0.5753
14270TIP3    H264302   3.861   1.319   2.750  0.7046  0.7309  0.4069
14271TIP3   OH264303   2.138   4.872  16.239 -0.2140 -0.2104 -0.4110
14271TIP3    H164304   2.080   4.872  16.315 -1.3530 -2.1322 -1.2078
14271TIP3    H264305   2.187   4.790  16.246  0.8343  0.3512 -0.9221
14272TIP3   OH264306   0.767   3.651   6.489  0.7171 -0.1427 -0.0713
14272TIP3    H164307   0.733   3.737   6.513  0.1943 -0.0973 -0.9225
14272TIP3    H264308   0.859   3.654   6.513  0.7568  0.7439 -0.2985
14273TIP3   OH264309   4.132   1.718  11.588  0.2926  0.6259  0.5708
14273TIP3    H164310   4.150   1.651  11.653  1.6104  1.1037  0.7299
14273TIP3    H264311   4.036   1.727  11.588  0.0041 -1.8298 -0.0943
14274TIP3   OH264312   5.944   0.265   1.091  0.0907 -0.1213 -0.0090
14274TIP3    H164313   5.910   0.295   1.006 -2.5984  1.2454  1.4195
14274TIP3    H264314   5.934   0.341   1.149 -0.2334 -1.6505  2.0509
14275TIP3   OH264315   3.137   2.706   2.781 -0.7021  0.0562 -0.0115
14275TIP3    H164316   3.086   2.691   2.701 -1.0412 -1.0309  0.3798
14275TIP3    H264317   3.149   2.800   2.785 -0.1149  0.0918 -1.6942
14276TIP3   OH264318   3.870   2.929  12.713 -0.1537 -0.2401  0.0913
14276TIP3    H164319   3.827   2.855  12.757  1.0429 -1.0674 -0.0828
14276TIP3    H264320   3.961   2.924  12.742  0.4793 -0.2944 -1.7899
14277TIP3   OH264321   0.271   0.895  12.019  0.1969 -0.4442 -0.7007
14277TIP3    H164322   0.336   0.865  12.083  0.1636 -2.3895 -1.5239
14277TIP3    H264323   0.188   0.894  12.067  0.4020 -0.3272 -0.3380
14278TIP3   OH264324   6.581   3.768   1.659 -0.0190 -0.3552  0.3672
14278TIP3    H164325   6.525   3.766   1.736 -0.7211 -1.2741 -0.1339
14278TIP3    H264326   6.668   3.744   1.691  0.3580  2.0231  1.3122
14279TIP3   OH264327   1.503   4.193   3.961 -0.3983 -0.0053 -0.5278
14279TIP3    H164328   1.457   4.259   3.908 -0.8116  0.6694  0.6338
14279TIP3    H264329   1.465   4.110   3.933 -1.5416  0.4502 -0.3758
14280TIP3   OH264330   3.286   4.486  11.934  0.1124 -0.0157 -0.2688
14280TIP3    H164331   3.265   4.459  12.023  1.5988 -1.9352 -0.4251
14280TIP3    H264332   3.272   4.580  11.933 -0.2806 -0.0074  1.8916
14281TIP3   OH264333   4.431   6.028  11.757  0.6946 -0.1928 -0.1399
14281TIP3    H164334   4.342   6.062  11.772  0.3439 -1.8710  1.9298
14281TIP3    H264335   4.483   6.107  11.741 -1.3436  0.7830 -2.9480
14282TIP3   OH264336   4.356   0.591  15.580  0.6319  0.1539  0.0955
14282TIP3    H164337   4.268   0.627  15.572  0.4741 -0.0089  1.0229
14282TIP3    H264338   4.343   0.505  15.620  1.0071 -0.9229 -1.9398
14283TIP3   OH264339   4.637   3.300  14.793  0.2652  0.0864 -0.2699
14283TIP3    H164340   4.660   3.299  14.700  0.2120  0.2698 -0.2845
14283TIP3    H264341   4.560   3.357  14.798 -1.3152 -1.9131 -0.4852
14284TIP3   OH264342   0.034   2.384  12.634 -0.1505  0.2094 -0.0688
14284TIP3    H164343   0.111   2.434  12.661  0.5665 -0.4159 -0.9044
14284TIP3    H264344   0.033   2.309  12.693  0.0896  0.0257 -0.3006
14285TIP3   OH264345   3.958   0.733  12.990  0.6219 -0.0972 -0.1084
14285TIP3    H164346   4.019   0.736  13.065  1.9586  0.1079 -1.1639
14285TIP3    H264347   3.919   0.820  12.987  2.9043  0.9845 -1.4608
14286TIP3   OH264348   0.234   5.851  12.639 -0.5676 -0.1006  0.2772
14286TIP3    H164349   0.304   5.854  12.575 -0.8180 -0.8757 -0.0467
14286TIP3    H264350   0.270   5.892  12.717 -0.2421  0.7951 -0.3376
14287TIP3   OH264351   2.370   2.920   2.952  0.5396  0.1199 -0.4438
14287TIP3    H164352   2.425   2.846   2.978  0.2890 -1.2677 -3.3871
14287TIP3    H264353   2.405   2.947   2.867 -1.1350  1.5029 -0.7473
14288TIP3   OH264354   6.584   2.147  15.922 -0.0745 -0.4736  1.3351
14288TIP3    H164355   6.651   2.105  15.869 -0.7647  1.9284 -1.7864
14288TIP3    H264356   6.522   2.077  15.943  1.9766 -2.1862  1.9849
14289TIP3   OH264357   4.520   5.526   4.453  0.8174  0.2663  1.0174
14289TIP3    H164358   4.550   5.547   4.365  0.9805 -0.1910  0.9648
14289TIP3    H264359   4.593   5.480   4.494 -0.1648 -1.8714  0.5212
14290TIP3   OH264360   1.679   5.463   0.697 -0.1459 -0.3875  0.0759
14290TIP3    H164361   1.673   5.511   0.614 -0.8381 -1.8503 -0.7456
14290TIP3    H264362   1.609   5.398   0.693  1.4063 -2.1785  0.6806
14291TIP3   OH264363   0.181   4.269  16.781  0.5493 -0.5518 -0.2684
14291TIP3    H164364   0.196   4.360  16.808 -1.4547 -0.5723  1.1530
14291TIP3    H264365   0.173   4.273  16.686  2.5307  0.3965 -0.4427
14292TIP3   OH264366   1.511   1.508  11.786  0.3114 -0.0938 -0.2507
14292TIP3    H164367   1.454   1.471  11.855  0.5879 -0.3629 -0.1634
14292TIP3    H264368   1.507   1.602  11.800 -0.8468 -0.0347 -0.8132
14293TIP3   OH264369   6.785   2.548  16.527  0.4118 -0.0089 -0.1955
14293TIP3    H164370   6.867   2.597  16.528 -0.6660  1.8663  0.8332
14293TIP3    H264371   6.787   2.494  16.606  0.4964  0.3114  0.0193
14294TIP3   OH264372   0.943   0.265  14.393 -0.2381 -0.2249  0.4283
14294TIP3    H164373   0.861   0.217  14.378  1.3532 -2.8546 -0.4889
14294TIP3    H264374   0.942   0.335  14.327 -2.0846  0.3517  1.0053
14295TIP3   OH264375   4.842   4.979   6.156 -0.2357  0.0330 -0.7488
14295TIP3    H164376   4.891   4.904   6.120  0.2970  0.6935 -1.4214
14295TIP3    H264377   4.894   5.055   6.130 -1.0748  0.6748 -0.5484
14296TIP3   OH264378   3.700   5.384   2.153 -0.0085  0.0802 -0.0599
14296TIP3    H164379   3.605   5.389   2.145 -0.0200 -0.4940 -0.2718
14296TIP3    H264380   3.732   5.379   2.063  0.0893 -2.0615  0.0470
14297TIP3   OH264381   6.608   4.105  14.733  0.2669  0.3513  0.4556
14297TIP3    H164382   6.540   4.170  14.753  0.5829 -0.0645  3.3342
14297TIP3    H264383   6.599   4.089  14.639 -1.4865  2.6565  0.1425
14298TIP3   OH264384   5.325   5.515  14.341 -0.3868  0.8074  0.5955
14298TIP3    H164385   5.408   5.475  14.315 -1.0230 -0.0527 -0.2197
14298TIP3    H264386   5.336   5.538  14.433  0.3307 -0.4192  0.8333
14299TIP3   OH264387   0.391   6.778  14.315 -0.0776  0.0110  0.0007
14299TIP3    H164388   0.377   6.685  14.336 -0.9891  0.1556  0.0675
14299TIP3    H264389   0.461   6.777  14.250  1.5683 -0.5697  1.6696
14300TIP3   OH264390   0.607   4.565   1.679  0.5997 -0.1247 -0.0277
14300TIP3    H164391   0.580   4.654   1.656 -0.5757  0.0991  2.0019
14300TIP3    H264392   0.624   4.569   1.773  0.0713 -2.1573  0.1859
14301TIP3   OH264393   4.261   1.420   1.280  0.0824 -0.1616 -0.4542
14301TIP3    H164394   4.338   1.380   1.319 -0.5283 -1.3079 -0.3697
14301TIP3    H264395   4.273   1.514   1.293  0.8499 -0.4004  0.7043
14302TIP3   OH264396   4.752   2.706   3.602  0.7379  0.5960 -0.3011
14302TIP3    H164397   4.661   2.731   3.587  1.1401  1.8727 -0.7998
14302TIP3    H264398   4.747   2.618   3.639 -0.6921  0.6459 -0.3027
14303TIP3   OH264399   3.003   1.861  17.122 -0.3350  0.1398 -0.6603
14303TIP3    H164400   3.095   1.840  17.108  0.2631  0.4767  2.0505
14303TIP3    H264401   2.985   1.933  17.061  1.5721  0.8709 -0.4424
14304TIP3   OH264402   1.054   1.566  12.166 -0.6190 -0.0978  0.2610
14304TIP3    H164403   0.999   1.601  12.095 -1.5150 -0.6977  0.6318
14304TIP3    H264404   0.993   1.515  12.220  0.0001  0.5263  1.5886
14305TIP3   OH264405   6.063   2.251   4.390  0.2729  0.1315 -0.6147
14305TIP3    H164406   6.052   2.311   4.315  0.4371  0.6967 -0.1952
14305TIP3    H264407   5.994   2.276   4.451 -0.6885 -1.1928 -1.1191
14306TIP3   OH264408   3.121   2.157  16.821 -0.2862  0.2232 -0.2694
14306TIP3    H164409   3.071   2.174  16.901 -0.8651 -1.5241 -0.2141
14306TIP3    H264410   3.211   2.179  16.844 -0.5382  0.3435  0.6521
14307TIP3   OH264411   2.653   1.178  11.909  0.0039 -0.1423  0.1803
14307TIP3    H164412   2.638   1.146  11.998  2.1634  0.0353  0.6637
14307TIP3    H264413   2.620   1.268  11.910 -1.4496 -0.6494  0.2948
14308TIP3   OH264414   3.692   2.603   0.316 -0.0052 -0.1632  0.2420
14308TIP3    H164415   3.673   2.510   0.300  0.3951 -0.2294  0.1416
14308TIP3    H264416   3.640   2.625   0.393 -0.9416 -0.1858 -0.3654
14309TIP3   OH264417   6.305   1.678   4.882 -0.0093  0.2910 -0.0925
14309TIP3    H164418   6.341   1.739   4.817  0.9299  1.4632  1.4437
14309TIP3    H264419   6.232   1.726   4.922  0.0452 -0.0051  0.3759
14310TIP3   OH264420   2.257   3.867  12.024 -0.2233  0.3831 -0.1319
14310TIP3    H164421   2.247   3.951  11.979 -1.6380  0.1842 -0.2436
14310TIP3    H264422   2.322   3.819  11.972 -0.4202  0.8931 -0.8695
14311TIP3   OH264423   2.700   6.032   1.354  0.0672 -0.4128 -0.1000
14311TIP3    H164424   2.618   5.982   1.347 -0.3864  0.4958 -2.5744
14311TIP3    H264425   2.768   5.968   1.334 -0.4434 -0.3604 -2.3586
14312TIP3   OH264426   4.939   1.970   1.750 -0.2015 -0.2468 -0.3784
14312TIP3    H164427   4.999   2.025   1.801 -2.9196  1.8678  0.7484
14312TIP3    H264428   4.902   1.909   1.815 -1.2234  0.2500 -0.4812
14313TIP3   OH264429   3.779   4.356  15.365 -0.4347  0.4130 -0.2255
14313TIP3    H164430   3.716   4.410  15.413 -0.0396  0.6845 -0.0097
14313TIP3    H264431   3.855   4.413  15.354 -0.4038  0.2467 -0.9020
14314TIP3   OH264432   0.451   2.177  14.811  0.2680  0.1232 -0.8777
14314TIP3    H164433   0.370   2.126  14.804 -0.3729  1.2096 -1.6290
14314TIP3    H264434   0.423   2.268  14.807  1.2995  0.6262  1.3635
14315TIP3   OH264435   4.946   0.499   1.952 -0.3785 -0.3267  0.5755
14315TIP3    H164436   4.869   0.471   2.001 -0.7428 -0.1560  0.1128
14315TIP3    H264437   5.017   0.500   2.016 -0.7231 -0.6612  0.9652
14316TIP3   OH264438   0.510   2.942  16.821  0.2729 -0.3104  0.4673
14316TIP3    H164439   0.436   2.907  16.771  1.2771 -0.8791 -0.6767
14316TIP3    H264440   0.537   2.871  16.878 -1.1803  0.4972  2.2545
14317TIP3   OH264441   5.179   6.124   5.419  0.3132 -0.1728  0.2868
14317TIP3    H164442   5.162   6.030   5.412  0.6468 -0.2312  0.2121
14317TIP3    H264443   5.093   6.165   5.408  0.3232 -0.4214 -0.8508
14318TIP3   OH264444   0.627   3.133  14.156 -0.5459 -0.2965 -0.2252
14318TIP3    H164445   0.564   3.071  14.192  0.7231 -2.0977 -0.9420
14318TIP3    H264446   0.575   3.188  14.098 -1.8645 -0.1021  1.0724
14319TIP3   OH264447   0.781   1.977  16.535 -0.2678  0.0883 -0.5684
14319TIP3    H164448   0.704   1.993  16.480 -0.5291  0.3612 -0.1358
14319TIP3    H264449   0.855   2.007  16.483 -0.4167 -0.4948 -1.1308
14320TIP3   OH264450   2.954   3.511   6.596 -1.0180 -0.0667 -0.0043
14320TIP3    H164451   2.892   3.584   6.593 -0.0544  0.8397  1.0112
14320TIP3    H264452   3.021   3.534   6.532 -1.3461 -0.6979 -0.5889
14321TIP3   OH264453   2.200   0.107   2.990 -0.4428  0.0699  0.4095
14321TIP3    H164454   2.224   0.186   2.941 -0.7551 -0.8544 -1.2974
14321TIP3    H264455   2.177   0.140   3.078  0.9590  1.6778  0.2360
14322TIP3   OH264456   0.549   3.144  16.133  0.1398  0.4592  0.1271
14322TIP3    H164457   0.633   3.149  16.089  0.0853  2.2583  0.1560
14322TIP3    H264458   0.492   3.096  16.073  0.9054  0.1141 -0.3283
14323TIP3   OH264459   6.315   1.049   2.082 -0.2935 -0.5895  0.2158
14323TIP3    H164460   6.268   1.128   2.107  0.0435 -0.5802  0.8634
14323TIP3    H264461   6.277   0.980   2.137 -1.3537 -1.1104 -1.1414
14324TIP3   OH264462   2.637   5.127  10.744  0.0010 -1.2383  0.8035
14324TIP3    H164463   2.650   5.124  10.839 -0.7309  1.3415  1.0432
14324TIP3    H264464   2.541   5.126  10.734  0.0307  0.0496  0.2130
14325TIP3   OH264465   1.940   3.925  11.216 -0.8057 -0.0463  0.8388
14325TIP3    H164466   2.002   3.986  11.255  0.8519 -2.2244  1.8276
14325TIP3    H264467   1.889   3.892  11.290 -1.8067  0.2395  0.3003
14326TIP3   OH264468   1.551   2.672  16.345 -0.3074  0.3515  0.4308
14326TIP3    H164469   1.630   2.698  16.392  0.8525 -3.0698  0.6073
14326TIP3    H264470   1.480   2.695  16.404  0.7546  0.9539  1.5173
14327TIP3   OH264471   1.091   6.218   2.866 -0.4238  0.0551 -0.1189
14327TIP3    H164472   1.008   6.196   2.908 -1.0559  0.5472 -1.0921
14327TIP3    H264473   1.108   6.308   2.893 -0.1509 -0.0750  0.1532
14328TIP3   OH264474   4.943   4.308  12.454 -0.1372  0.0313 -0.3246
14328TIP3    H164475   4.953   4.365  12.530 -1.1613  0.5176 -0.5421
14328TIP3    H264476   4.856   4.269  12.464 -1.2004  1.6950 -2.2632
14329TIP3   OH264477   5.250   2.903   0.424 -0.1176  0.0055 -0.5534
14329TIP3    H164478   5.327   2.910   0.481 -0.1120  0.1007 -0.5728
14329TIP3    H264479   5.177   2.891   0.485 -0.1519  0.4212 -0.5084
14330TIP3   OH264480   5.800   3.407  14.813 -0.0834  0.4384 -0.6981
14330TIP3    H164481   5.751   3.344  14.865  0.3560  0.6843  0.0344
14330TIP3    H264482   5.870   3.437  14.871  2.1139 -1.2857 -2.2747
14331TIP3   OH264483   3.962   0.498  15.661 -0.6070 -0.2850  0.0740
14331TIP3    H164484   3.903   0.440  15.614  2.1391 -2.6348 -0.8317
14331TIP3    H264485   4.033   0.516  15.598  0.6931  0.6237  1.7083
14332TIP3   OH264486   0.387   0.466  17.260 -0.9112 -0.0028  0.9556
14332TIP3    H164487   0.381   0.371  17.266  0.2380 -0.1342  0.4581
14332TIP3    H264488   0.450   0.491  17.328 -0.7371  0.3215  0.6839
14333TIP3   OH264489   6.415   1.514  13.867 -0.0032  0.7983 -0.0866
14333TIP3    H164490   6.369   1.532  13.785  0.3200  1.5162 -0.1190
14333TIP3    H264491   6.506   1.501  13.840 -0.3376 -2.0095 -0.2092
14334TIP3   OH264492   2.626   5.601   5.558 -0.2397 -0.6293  0.0819
14334TIP3    H164493   2.679   5.531   5.522  0.3520  0.5715 -1.5080
14334TIP3    H264494   2.637   5.674   5.497 -0.2546  1.1068  2.0209
14335TIP3   OH264495   4.149   1.765  13.100 -0.7671 -0.1928  0.3644
14335TIP3    H164496   4.079   1.809  13.147 -0.4612  1.3914 -0.5963
14335TIP3    H264497   4.230   1.807  13.130 -0.5553  0.7334 -1.3865
14336TIP3   OH264498   6.404   2.824   2.704  0.2022 -0.2701 -0.1793
14336TIP3    H164499   6.421   2.912   2.673 -1.1528  0.3037  0.5954
14336TIP3    H264500   6.371   2.777   2.627  1.4044 -0.2620 -0.7126
14337TIP3   OH264501   6.408   4.785  15.101  0.6435  0.0309 -0.0423
14337TIP3    H164502   6.361   4.754  15.024 -1.4585 -0.6750  1.4252
14337TIP3    H264503   6.417   4.708  15.156  1.8399  0.5835  0.5697
14338TIP3   OH264504   1.482   0.627   5.598  0.0785 -0.0264  0.0773
14338TIP3    H164505   1.569   0.643   5.634  0.3657  0.4588 -0.7929
14338TIP3    H264506   1.442   0.564   5.657  1.4913 -1.2224 -0.1842
14339TIP3   OH264507   3.370   1.811   0.642  0.0921 -0.1142  0.2754
14339TIP3    H164508   3.394   1.835   0.732  0.3033  0.6025  0.0363
14339TIP3    H264509   3.278   1.835   0.634  0.0585 -0.2292  0.3177
14340TIP3   OH264510   0.757   2.642  12.807 -0.4573  0.0739 -0.1986
14340TIP3    H164511   0.807   2.629  12.726  1.5687  0.0693  1.0045
14340TIP3    H264512   0.725   2.555  12.830 -0.6025 -0.0108 -0.7082
14341TIP3   OH264513   6.679   5.757   0.128 -0.0633 -0.5272  0.4664
14341TIP3    H164514   6.665   5.789   0.039 -0.8661 -0.6219  0.5520
14341TIP3    H264515   6.593   5.724   0.156  0.1552 -0.4156  1.3064
14342TIP3   OH264516   1.239   6.571  11.063  0.0536 -0.1626  0.5499
14342TIP3    H164517   1.149   6.574  11.029 -0.5246  0.9062  2.0797
14342TIP3    H264518   1.294   6.582  10.985 -1.0852 -1.5510 -0.5146
14343TIP3   OH264519   1.133   4.046   1.086 -0.2021  0.4459  0.2394
14343TIP3    H164520   1.061   4.052   1.023 -1.2524 -0.4744  1.2977
14343TIP3    H264521   1.191   4.119   1.064 -0.8857  0.5425 -1.3438
14344TIP3   OH264522   2.483   3.983   3.428  0.6102  0.0150  0.6010
14344TIP3    H164523   2.435   4.065   3.433  0.2231 -0.2614  1.6029
14344TIP3    H264524   2.523   3.972   3.514  2.1468  0.0206 -0.0789
14345TIP3   OH264525   1.815   6.381  11.082 -0.5811  1.0557  0.1301
14345TIP3    H164526   1.823   6.475  11.072 -1.1391  1.0508 -0.3655
14345TIP3    H264527   1.734   6.368  11.132  0.0042  0.8767  1.0760
14346TIP3   OH264528   0.019   4.046  14.076 -0.3291  0.4174 -0.8978
14346TIP3    H164529   0.016   3.965  14.127 -0.4868  0.3403 -1.0291
14346TIP3    H264530  -0.009   4.114  14.137 -0.3602  0.3491 -0.8363
14347TIP3   OH264531   5.022   1.115   2.792  0.0052  0.4516 -0.1017
14347TIP3    H164532   5.080   1.077   2.858  0.3606  0.2205 -0.5422
14347TIP3    H264533   5.081   1.162   2.733 -0.4781  2.3739  0.8490
14348TIP3   OH264534   2.378   1.364  11.746 -0.0409 -0.5609 -0.3233
14348TIP3    H164535   2.305   1.330  11.695 -0.4181 -0.4356  0.1280
14348TIP3    H264536   2.375   1.459  11.734  0.0798 -0.5610 -0.3535
14349TIP3   OH264537   5.390   1.971   0.494  0.4959  0.1834 -0.7277
14349TIP3    H164538   5.393   1.921   0.412  0.9200  0.0724 -0.6455
14349TIP3    H264539   5.421   1.911   0.561  0.8443  0.4976 -0.5997
14350TIP3   OH264540   0.833   1.126   2.555 -0.1395  1.0083 -0.1868
14350TIP3    H164541   0.877   1.206   2.527  0.3101  1.0127  0.5113
14350TIP3    H264542   0.861   1.114   2.646 -1.6136  1.0278  0.2853
14351TIP3   OH264543   0.534   5.567   1.828  0.1779  0.4223  0.1997
14351TIP3    H164544   0.444   5.591   1.804 -0.6878 -0.7379  2.0344
14351TIP3    H264545   0.524   5.519   1.910  2.2862 -1.6358 -0.6706
14352TIP3   OH264546   1.970   1.986   4.116  0.1006 -0.0286  0.3158
14352TIP3    H164547   1.906   2.005   4.185  0.3502 -0.7719  0.7760
14352TIP3    H264548   2.039   1.937   4.162  0.7918  0.4081 -0.2562
14353TIP3   OH264549   2.496   6.520  11.902 -0.1821  0.0515 -0.1977
14353TIP3    H164550   2.490   6.425  11.898 -0.4296 -0.0609  1.8043
14353TIP3    H264551   2.520   6.546  11.813  0.6370 -1.9285 -0.6226
14354TIP3   OH264552   1.570   0.695   5.973 -0.0506  0.5230  0.1427
14354TIP3    H164553   1.636   0.649   6.025 -0.3159  0.0440  0.0627
14354TIP3    H264554   1.490   0.643   5.985 -0.3454  0.9414  0.0179
14355TIP3   OH264555   2.922   4.522  16.565  0.6389  0.0454 -0.3996
14355TIP3    H164556   2.988   4.492  16.628  2.6318  1.3837 -1.7375
14355TIP3    H264557   2.893   4.606  16.600  0.4991 -0.0028 -0.4013
14356TIP3   OH264558   1.568   3.743  17.029 -0.0128 -0.1727 -0.1712
14356TIP3    H164559   1.601   3.661  17.068  1.5491  0.9851  1.0886
14356TIP3    H264560   1.627   3.760  16.955  0.5795  0.5204  0.4429
14357TIP3   OH264561   6.099   1.570   1.797 -0.4348 -0.1227  0.1002
14357TIP3    H164562   6.179   1.620   1.782  0.9692 -2.6062 -1.2817
14357TIP3    H264563   6.127   1.497   1.852 -2.2335  0.0078  1.2858
14358TIP3   OH264564   4.501   0.314   5.779  0.6718 -0.3814 -0.4544
14358TIP3    H164565   4.523   0.259   5.855  1.0045 -0.2584 -0.4612
14358TIP3    H264566   4.468   0.252   5.714 -0.6424 -0.3550  0.1760
14359TIP3   OH264567   4.190   5.994   0.686 -0.6843  0.1268  0.0539
14359TIP3    H164568   4.105   5.959   0.658 -0.7621  0.3963 -0.0479
14359TIP3    H264569   4.188   6.086   0.659  0.0281 -0.1065 -0.8412
14360TIP3   OH264570   3.447   0.983  11.892 -0.9485 -0.1855  0.3110
14360TIP3    H164571   3.370   0.953  11.941 -0.1931 -0.4522  1.3522
14360TIP3    H264572   3.415   0.992  11.802 -2.5036  0.8505  0.9310
14361TIP3   OH264573   4.280   6.393   2.051 -0.2730  0.3682  0.2465
14361TIP3    H164574   4.360   6.434   2.083 -0.5009  1.6074 -0.6951
14361TIP3    H264575   4.283   6.304   2.086  1.0881  0.6571  0.9283
14362TIP3   OH264576   0.109   2.589  14.814 -0.3475 -0.3858  0.4751
14362TIP3    H164577   0.170   2.658  14.841 -2.1033  0.8064  1.6776
14362TIP3    H264578   0.141   2.561  14.729  2.4363 -0.5641  1.4754
14363TIP3   OH264579   4.373   5.939  14.316  0.3304  0.2603 -0.5772
14363TIP3    H164580   4.442   5.881  14.284  1.6409  1.8752 -0.7921
14363TIP3    H264581   4.406   6.028  14.300 -1.1327  1.1007  0.7419
14364TIP3   OH264582   3.682   0.142  16.528 -0.0175  0.4389 -0.0909
14364TIP3    H164583   3.675   0.118  16.436 -1.2626  0.6300 -0.0728
14364TIP3    H264584   3.741   0.077  16.566  1.1962  0.8597 -1.1795
14365TIP3   OH264585   0.249   0.727   5.357  0.5661 -0.6492 -0.4641
14365TIP3    H164586   0.291   0.675   5.288  0.6703 -1.4024  0.1471
14365TIP3    H264587   0.245   0.667   5.432  1.0010  0.3402  0.3705
14366TIP3   OH264588   2.977   0.189   3.641 -0.3946  0.7812 -0.5416
14366TIP3    H164589   3.038   0.120   3.618 -0.7346  0.3438 -0.1570
14366TIP3    H264590   2.896   0.167   3.594  0.1330  2.1188 -2.1890
14367TIP3   OH264591   2.444   6.281  12.843  1.1121  0.3956  0.3941
14367TIP3    H164592   2.485   6.359  12.805 -0.1834 -0.6317 -3.4733
14367TIP3    H264593   2.351   6.289  12.821  0.8989 -2.0666  0.1548
14368TIP3   OH264594   4.942   5.381   0.465  0.2364 -0.4414 -1.0272
14368TIP3    H164595   4.935   5.344   0.377 -1.5707 -0.4934 -0.8919
14368TIP3    H264596   4.894   5.464   0.460  1.4802  0.3407 -0.4822
14369TIP3   OH264597   1.688   2.756  12.568 -0.3350 -0.1566 -0.7299
14369TIP3    H164598   1.695   2.792  12.656  0.6763 -1.0771 -0.4089
14369TIP3    H264599   1.610   2.702  12.570 -0.5724  0.1880 -0.5442
14370TIP3   OH264600   1.246   4.480   1.449 -0.2700  0.2018 -0.3082
14370TIP3    H164601   1.190   4.497   1.524 -0.0910  0.5548 -0.2526
14370TIP3    H264602   1.249   4.384   1.442  0.2702  0.1436  0.5501
14371TIP3   OH264603   2.478   1.980   1.208  0.1564 -0.0314 -0.2181
14371TIP3    H164604   2.518   1.986   1.121  2.5020  1.3063  0.8637
14371TIP3    H264605   2.462   1.887   1.221 -1.7254 -0.1318 -2.6582
14372TIP3   OH264606   5.688   0.671  13.925 -0.4284  0.1662 -0.2812
14372TIP3    H164607   5.678   0.584  13.964  0.3838  0.3077  0.2763
14372TIP3    H264608   5.685   0.655  13.830 -2.2556 -0.2046 -0.2004
14373TIP3   OH264609   3.095   5.953   4.046  0.4993  0.1089 -0.5339
14373TIP3    H164610   3.089   6.010   4.123  1.1509 -0.4561 -0.0449
14373TIP3    H264611   3.187   5.954   4.022  0.5158 -0.6742 -0.5555
14374TIP3   OH264612   3.451   2.529   4.101 -0.8850 -0.5229 -0.2089
14374TIP3    H164613   3.507   2.453   4.085  1.5804  1.0079  0.5419
14374TIP3    H264614   3.470   2.555   4.191 -1.2585  1.2688 -0.5972
14375TIP3   OH264615   4.548   4.200   3.501  0.4441 -0.3358 -0.8011
14375TIP3    H164616   4.558   4.119   3.451 -1.6789 -1.0851 -0.0938
14375TIP3    H264617   4.478   4.248   3.457  0.4055  0.2431 -0.1286
14376TIP3   OH264618   2.780   5.735   2.844  0.4290  0.1906 -0.2376
14376TIP3    H164619   2.706   5.749   2.784  0.6451 -1.5598 -0.9739
14376TIP3    H264620   2.857   5.762   2.794  0.4289  0.6715  0.0147
14377TIP3   OH264621   4.651   0.842   0.410 -0.0987 -0.1673 -0.0535
14377TIP3    H164622   4.659   0.847   0.315  0.9329 -0.5117  0.0054
14377TIP3    H264623   4.657   0.748   0.430  0.8702 -0.0155  0.4323
14378TIP3   OH264624   2.857   2.635  16.844 -0.2094 -0.3816  0.3838
14378TIP3    H164625   2.775   2.607  16.885 -0.8487  1.9587  0.8383
14378TIP3    H264626   2.916   2.650  16.918  0.1002 -0.4920  0.1577
14379TIP3   OH264627   0.588   4.119  14.067  0.1959 -0.4765  0.2469
14379TIP3    H164628   0.637   4.150  13.992 -0.8216 -2.0342 -1.1298
14379TIP3    H264629   0.514   4.180  14.075  0.5177 -0.0819  0.2591
14380TIP3   OH264630   1.024   5.215  15.858 -1.1859 -0.3687  0.0890
14380TIP3    H164631   0.930   5.198  15.868 -1.9976  3.0082 -0.5732
14380TIP3    H264632   1.036   5.228  15.764 -0.2332  0.0172  0.2578
14381TIP3   OH264633   6.002   3.039   3.729 -0.2006  0.1485 -0.0383
14381TIP3    H164634   6.000   3.003   3.818  0.1246  0.9164  0.2849
14381TIP3    H264635   5.997   2.962   3.672 -0.0929 -0.3702  0.6434
14382TIP3   OH264636   4.188   3.961   2.688 -0.2370  0.0914  0.1354
14382TIP3    H164637   4.141   3.878   2.699 -2.4526  1.4562  1.8336
14382TIP3    H264638   4.207   3.989   2.777  1.3647  0.9816 -0.4520
14383TIP3   OH264639   1.312   4.942   3.898 -0.2246  0.6936 -0.2925
14383TIP3    H164640   1.256   4.901   3.832 -0.1818  1.1996 -0.6503
14383TIP3    H264641   1.332   4.872   3.960 -0.4051  0.2537 -0.7268
14384TIP3   OH264642   4.739   5.984  11.784  0.2633 -0.0458 -0.0741
14384TIP3    H164643   4.669   6.048  11.773 -1.9142 -2.0527  0.9990
14384TIP3    H264644   4.767   5.994  11.875  0.1473 -0.3611 -0.0008
14385TIP3   OH264645   5.592   1.094  15.775 -0.8971 -0.7794  0.6817
14385TIP3    H164646   5.681   1.127  15.767 -1.1303  0.6159  2.9161
14385TIP3    H264647   5.600   0.999  15.763  1.2020 -0.9235  2.5226
14386TIP3   OH264648   2.249   4.848   2.609  0.0066  0.7899 -0.4880
14386TIP3    H164649   2.199   4.913   2.559  0.0241  0.2700 -1.2037
14386TIP3    H264650   2.316   4.818   2.547 -0.5638 -0.5601 -0.4863
14387TIP3   OH264651   0.071   1.069  10.991  0.5414 -0.5542  0.1942
14387TIP3    H164652   0.034   1.118  10.918  0.6806 -1.7318 -0.6895
14387TIP3    H264653   0.074   0.979  10.961  0.5470 -1.0814  1.6836
14388TIP3   OH264654   3.922   2.430   4.756  0.6245 -0.2612 -0.5172
14388TIP3    H164655   3.922   2.499   4.690 -0.0349 -0.1269 -0.3833
14388TIP3    H264656   3.852   2.370   4.729 -0.1428  0.1692  0.4309
14389TIP3   OH264657   4.978   2.660   2.275 -0.3894 -0.0484 -0.2652
14389TIP3    H164658   5.045   2.721   2.243  0.2659 -1.0011 -0.7267
14389TIP3    H264659   4.907   2.717   2.304 -0.1173  0.9297 -1.4144
14390TIP3   OH264660   5.300   1.546   4.252 -0.5545  0.1150 -0.3854
14390TIP3    H164661   5.216   1.568   4.294 -0.6275  0.8304 -0.8911
14390TIP3    H264662   5.366   1.584   4.309 -0.6646  1.3199 -1.0312
14391TIP3   OH264663   4.265   3.502   0.139 -0.5036  0.3845 -0.4417
14391TIP3    H164664   4.171   3.494   0.127 -0.7767 -1.8725  2.3673
14391TIP3    H264665   4.276   3.530   0.230  1.5619  2.3367 -1.1981
14392TIP3   OH264666   6.628   1.303  14.702 -0.0430  0.2250  0.1701
14392TIP3    H164667   6.691   1.375  14.697  0.8850 -0.5929 -0.2383
14392TIP3    H264668   6.671   1.237  14.756 -0.5401 -0.3557 -0.1293
14393TIP3   OH264669   6.226   0.583  15.857  0.1060  0.3074 -0.5952
14393TIP3    H164670   6.206   0.582  15.950  1.9358  1.5534 -0.1366
14393TIP3    H264671   6.157   0.636  15.818  0.3431  1.3473  0.3493
14394TIP3   OH264672   2.362   1.498  10.992  0.3581  0.1757  0.9127
14394TIP3    H164673   2.361   1.524  10.899  3.1434 -1.6508  0.2178
14394TIP3    H264674   2.301   1.425  10.997  1.1431 -0.5580  0.1624
14395TIP3   OH264675   2.976   6.534   5.794  0.0523 -0.1198  0.1633
14395TIP3    H164676   2.890   6.506   5.763 -0.4274 -0.1631  1.4399
14395TIP3    H264677   3.033   6.458   5.779  0.0392  0.1385 -1.2847
14396TIP3   OH264678   3.486   2.341  12.428 -0.3102 -0.4027 -0.1786
14396TIP3    H164679   3.436   2.371  12.504 -1.1257  1.1668 -1.2947
14396TIP3    H264680   3.555   2.285  12.466  1.3086  2.7632  2.0903
14397TIP3   OH264681   3.401   3.988  11.817  0.6323 -0.1214 -0.3055
14397TIP3    H164682   3.474   3.939  11.854  0.9072  1.3418  1.1877
14397TIP3    H264683   3.330   3.977  11.880 -0.0915 -0.5633 -1.1656
14398TIP3   OH264684   0.121   2.197   3.570  0.1655 -0.5468  0.6015
14398TIP3    H164685   0.129   2.226   3.480 -0.2542  0.2330  0.8051
14398TIP3    H264686   0.150   2.106   3.569  0.6563 -0.3872 -0.2183
14399TIP3   OH264687   0.007   6.647  11.283 -0.8785  0.2744  0.0125
14399TIP3    H164688  -0.062   6.635  11.348  0.9931  0.5860  2.2177
14399TIP3    H264689   0.048   6.561  11.277 -0.6593  0.3998 -0.2858
14400TIP3   OH264690   3.109   2.968   0.960 -0.0092 -0.0387  0.0372
14400TIP3    H164691   3.086   3.025   1.034 -0.5880  0.7737 -0.7390
14400TIP3    H264692   3.098   2.879   0.994 -1.4751  0.3227  0.5836
14401TIP3   OH264693   2.022   1.700   3.731 -0.2133 -0.9281  0.0547
14401TIP3    H164694   1.945   1.756   3.718 -0.1672 -1.1564 -1.3104
14401TIP3    H264695   2.043   1.710   3.824 -0.6961  0.6826  0.0295
14402TIP3   OH264696   0.257   4.730   0.000 -0.2425 -0.1973 -0.8162
14402TIP3    H164697   0.256   4.635  -0.000  2.0423 -0.3139 -2.9603
14402TIP3    H264698   0.296   4.753   0.085 -1.5100 -1.0677  0.0503
14403TIP3   OH264699   4.213   4.548   0.029 -0.3735 -1.0637 -0.2673
14403TIP3    H164700   4.180   4.492   0.100 -0.5926 -0.1171  0.3971
14403TIP3    H264701   4.155   4.624   0.030  1.4288  0.3844  0.5677
14404TIP3   OH264702   5.852   1.836   0.596 -0.2454 -0.1725 -0.2373
14404TIP3    H164703   5.876   1.906   0.657 -0.6865  0.7428 -1.0858
14404TIP3    H264704   5.936   1.798   0.570  0.0354  0.3765 -0.1526
14405TIP3   OH264705   1.750   5.616  13.057 -0.1667  0.1534 -0.1836
14405TIP3    H164706   1.705   5.607  13.141 -2.2412  0.6679 -1.1794
14405TIP3    H264707   1.747   5.528  13.019 -0.0887  0.1316 -0.1400
14406TIP3   OH264708   2.564   5.647   4.198  0.3389 -0.3789  0.1629
14406TIP3    H164709   2.542   5.681   4.285 -1.4742 -1.1256  0.0305
14406TIP3    H264710   2.528   5.712   4.138  2.2788  0.5487 -0.0845
14407TIP3   OH264711   0.326   6.511  15.541  0.1152 -0.3413  0.1579
14407TIP3    H164712   0.359   6.599  15.521  0.3626 -0.7796 -1.5605
14407TIP3    H264713   0.404   6.459  15.558  0.0309 -0.4353  0.2620
14408TIP3   OH264714   2.136   4.291  13.233 -0.1667 -0.0695 -0.0286
14408TIP3    H164715   2.053   4.325  13.200 -0.1435  0.1307  0.1145
14408TIP3    H264716   2.202   4.344  13.188 -0.0758 -0.9989 -1.0160
14409TIP3   OH264717   2.710   4.331   1.703  0.3157 -0.4875  0.6859
14409TIP3    H164718   2.632   4.275   1.707 -2.1269  2.4949 -0.9223
14409TIP3    H264719   2.754   4.306   1.622 -0.3057 -0.6426  0.3889
14410TIP3   OH264720   4.591   3.814  10.903 -0.2595  0.3207 -0.2521
14410TIP3    H164721   4.680   3.779  10.898  0.0463  1.0781 -0.2133
14410TIP3    H264722   4.580   3.863  10.822 -0.6883  0.1330 -0.3107
14411TIP3   OH264723   1.511   3.890  14.070 -0.3407  0.3441  0.1030
14411TIP3    H164724   1.595   3.933  14.083 -0.3150  0.1876  0.4681
14411TIP3    H264725   1.516   3.853  13.982  0.9085 -1.7354  0.9878
14412TIP3   OH264726   1.011   6.452  16.207 -0.7331 -0.1956  0.3208
14412TIP3    H164727   1.007   6.491  16.120 -0.4864  0.1952  0.4781
14412TIP3    H264728   1.040   6.362  16.192 -0.4707 -0.0629  0.0150
14413TIP3   OH264729   1.236   2.306   3.412  1.0230  0.7090  0.4272
14413TIP3    H164730   1.310   2.351   3.453  0.6258  2.8921 -1.0756
14413TIP3    H264731   1.262   2.294   3.321  0.1649  0.0126  0.2572
14414TIP3   OH264732   5.789   5.422  12.289  0.4760  0.4552  0.4820
14414TIP3    H164733   5.822   5.373  12.365 -0.5149  1.3212  1.5054
14414TIP3    H264734   5.858   5.412  12.223  1.0653 -0.8782  1.2458
14415TIP3   OH264735   6.410   2.835   0.967  0.0595  0.8752  0.0063
14415TIP3    H164736   6.386   2.835   0.874  1.4309 -0.4071 -0.3908
14415TIP3    H264737   6.500   2.868   0.968  1.7153 -3.1866  0.3022
14416TIP3   OH264738   1.057   4.254   2.409  0.2741  0.8335 -0.2832
14416TIP3    H164739   0.979   4.204   2.386  0.8567  0.3810 -1.3328
14416TIP3    H264740   1.084   4.297   2.328 -0.1303  2.7913  0.5480
14417TIP3   OH264741   0.886   6.682  13.589 -0.0155  0.6521  0.2664
14417TIP3    H164742   0.926   6.767  13.569 -0.6256  0.3648 -2.4982
14417TIP3    H264743   0.954   6.618  13.571 -0.6350  0.3668 -1.1330
14418TIP3   OH264744   6.779   3.600   4.180 -0.6628 -1.2795  0.6094
14418TIP3    H164745   6.762   3.510   4.150 -0.5193 -0.3963 -2.4089
14418TIP3    H264746   6.851   3.630   4.125  1.5037 -0.2845  3.7188
14419TIP3   OH264747   0.361   0.512  11.336  0.2885  0.5584 -0.1222
14419TIP3    H164748   0.277   0.525  11.292 -0.4591  0.9153  1.3569
14419TIP3    H264749   0.412   0.591  11.316  0.3972  0.2310 -1.2245
14420TIP3   OH264750   2.906   6.629   5.456 -0.2333 -0.0280  0.9242
14420TIP3    H164751   2.877   6.606   5.367 -1.5919  0.1764  1.2955
14420TIP3    H264752   2.952   6.711   5.445 -1.3402  0.5660  0.5355
14421TIP3   OH264753   1.324   3.007  17.251  0.5252  0.2395 -0.0823
14421TIP3    H164754   1.247   2.955  17.228  0.3397 -0.1241  1.2724
14421TIP3    H264755   1.339   2.988  17.344  0.2407  2.8775  0.5674
14422TIP3   OH264756   4.309   4.366   0.710  0.5684  0.0907 -0.3523
14422TIP3    H164757   4.403   4.349   0.704  0.7401  1.2723 -1.3835
14422TIP3    H264758   4.296   4.394   0.801  1.2036 -0.0875 -0.2007
14423TIP3   OH264759   2.148   2.675   5.344 -0.3942  0.2135 -0.1383
14423TIP3    H164760   2.057   2.647   5.346 -0.5510  0.7297  0.0642
14423TIP3    H264761   2.149   2.747   5.282  0.0925 -0.5279 -1.0113
14424TIP3   OH264762   4.299   0.631  17.347 -0.1806  0.0950 -0.4651
14424TIP3    H164763   4.225   0.691  17.334 -0.7552 -0.0762  1.6130
14424TIP3    H264764   4.272   0.575  17.420  1.1443 -1.4283 -1.0754
14425TIP3   OH264765   3.758   6.229  11.505  0.0274  0.0758 -0.1739
14425TIP3    H164766   3.709   6.311  11.513  0.1009  0.0514  0.6309
14425TIP3    H264767   3.774   6.202  11.596  0.3458 -0.6248 -0.4335
14426TIP3   OH264768   0.576   4.368   1.486 -0.5067  0.0298  0.6498
14426TIP3    H164769   0.561   4.286   1.533 -0.1372  0.4848  1.5947
14426TIP3    H264770   0.594   4.432   1.555  1.1388  0.4904 -0.1445
14427TIP3   OH264771   1.409   6.593  15.454  0.0613 -0.0988  0.2749
14427TIP3    H164772   1.415   6.603  15.549  1.2088 -1.2354  0.3563
14427TIP3    H264773   1.497   6.563  15.428 -0.6549 -1.2259 -0.9478
14428TIP3   OH264774   1.662   5.610   3.341  0.4700 -0.0970 -0.3006
14428TIP3    H164775   1.602   5.598   3.267  1.4553  0.5084 -1.2334
14428TIP3    H264776   1.677   5.704   3.344  1.0688 -0.2017  0.1691
14429TIP3   OH264777   4.902   2.738   0.743 -0.3253  0.1628 -0.2066
14429TIP3    H164778   4.941   2.698   0.821  0.4026  1.4582  0.1058
14429TIP3    H264779   4.856   2.665   0.701 -1.0196 -0.5091  1.5917
14430TIP3   OH264780   2.012   0.358   0.713 -0.0432  0.0281 -0.3342
14430TIP3    H164781   2.046   0.438   0.671 -0.2285  0.0677 -0.4090
14430TIP3    H264782   1.951   0.322   0.649 -1.5481  0.9392  0.5246
14431TIP3   OH264783   4.689   4.273  11.731  0.2758  0.6014 -0.0843
14431TIP3    H164784   4.757   4.314  11.677  1.5666 -0.1417  0.9115
14431TIP3    H264785   4.617   4.256  11.670  1.6282 -0.0948 -1.5665
14432TIP3   OH264786   3.340   0.224   3.470 -0.2919 -0.0385  0.3337
14432TIP3    H164787   3.376   0.313   3.459 -0.3359 -0.1785 -1.1428
14432TIP3    H264788   3.347   0.208   3.564  2.5431  0.3683  0.3028
14433TIP3   OH264789   4.082   3.415   0.711 -1.1003 -0.1736  0.6638
14433TIP3    H164790   4.056   3.450   0.626  2.0827  0.6504 -0.1208
14433TIP3    H264791   4.019   3.346   0.730 -1.3413 -1.0826 -2.8790
14434TIP3   OH264792   4.861   0.456  16.594 -0.6135 -0.1432 -0.7483
14434TIP3    H164793   4.941   0.467  16.646 -2.3371 -0.0969  2.1280
14434TIP3    H264794   4.828   0.545  16.583 -2.4219 -0.3531  1.9587
14435TIP3   OH264795   3.385   1.965   4.159  0.1108  0.0226 -0.3725
14435TIP3    H164796   3.295   1.956   4.130  0.4081 -0.8664 -1.0719
14435TIP3    H264797   3.436   1.968   4.078  0.7412  0.2000  0.0205
14436TIP3   OH264798   3.032   0.166  11.130  0.1451  0.9223  0.0187
14436TIP3    H164799   2.953   0.218  11.120  0.0538  0.8117  0.1572
14436TIP3    H264800   3.082   0.181  11.050 -0.9463 -0.6074 -0.9970
14437TIP3   OH264801   3.882   0.693  15.866 -1.2458 -0.4499 -0.3459
14437TIP3    H164802   3.883   0.775  15.815 -0.8777  0.6972  1.4156
14437TIP3    H264803   3.931   0.631  15.812 -0.8821  0.7048 -1.4024
14438TIP3   OH264804   1.334   5.156   6.551  0.3161  0.5770  0.0414
14438TIP3    H164805   1.417   5.190   6.517  0.1194  0.7711 -0.2465
14438TIP3    H264806   1.340   5.170   6.646  0.8535  0.0577  0.0848
14439TIP3   OH264807   3.472   0.808   0.698  0.5386  0.1470  0.7252
14439TIP3    H164808   3.493   0.854   0.617 -2.5253 -0.5905 -0.6308
14439TIP3    H264809   3.414   0.868   0.745 -0.3676 -0.7645  0.7822
14440TIP3   OH264810   6.105   3.339   1.003  0.2961 -0.1135  0.1544
14440TIP3    H164811   6.127   3.257   0.958 -2.5292 -1.1439  0.4369
14440TIP3    H264812   6.168   3.403   0.969  1.1066 -1.8511 -1.8645
14441TIP3   OH264813   4.729   2.257   3.289  0.1708  0.0252  0.4515
14441TIP3    H164814   4.634   2.256   3.277  0.3459  0.7335 -1.2889
14441TIP3    H264815   4.760   2.329   3.233  1.8745 -1.2189 -0.3175
14442TIP3   OH264816   4.173   0.829  15.747  0.0535 -0.5428 -0.0316
14442TIP3    H164817   4.211   0.833  15.835 -0.1457  0.3282  0.0192
14442TIP3    H264818   4.249   0.813  15.689  0.2740 -0.4497  0.2308
14443TIP3   OH264819   1.857   3.081   4.318 -0.1334  0.0955  0.7956
14443TIP3    H164820   1.774   3.087   4.272 -0.4009  0.1205  1.2713
14443TIP3    H264821   1.875   2.987   4.324 -0.3908  0.0641  1.1438
14444TIP3   OH264822   4.447   0.702   1.724 -0.4003 -0.2161 -0.4818
14444TIP3    H164823   4.364   0.742   1.750 -0.9295 -1.2368 -0.5703
14444TIP3    H264824   4.504   0.776   1.705 -0.6337  0.5690  1.5577
14445TIP3   OH264825   2.820   2.355   1.368 -0.5108  0.1567  0.4788
14445TIP3    H164826   2.886   2.424   1.357  0.2842 -0.7188 -0.5307
14445TIP3    H264827   2.825   2.305   1.286 -0.2940 -1.7453  1.5929
14446TIP3   OH264828   3.501   5.814   0.373 -0.0460 -0.1687  0.3756
14446TIP3    H164829   3.533   5.898   0.341  0.7188 -0.4948  0.2771
14446TIP3    H264830   3.415   5.834   0.411 -0.1956  0.5224 -0.3048
14447TIP3   OH264831   5.310   0.015   1.187  0.8160  0.2512  0.3088
14447TIP3    H164832   5.303  -0.024   1.100  0.5858  1.1016 -0.0642
14447TIP3    H264833   5.402   0.005   1.211  1.1173  0.9661 -0.4991
14448TIP3   OH264834   0.886   3.136   1.611 -0.1348  0.6181  0.0513
14448TIP3    H164835   0.936   3.073   1.663  1.9394  1.8099 -0.3817
14448TIP3    H264836   0.887   3.216   1.663 -0.5431  1.0026 -0.5248
14449TIP3   OH264837   6.313   1.972   3.968  0.4076  0.1247 -0.0748
14449TIP3    H164838   6.354   1.902   4.018  0.1514 -0.3416 -0.5013
14449TIP3    H264839   6.317   2.049   4.025  0.1625 -0.3801  0.6324
14450TIP3   OH264840   3.207   4.757  11.854  0.0022 -0.1318 -0.5118
14450TIP3    H164841   3.146   4.812  11.804  0.0487  2.4085  1.9421
14450TIP3    H264842   3.206   4.795  11.942  1.3968 -3.1207  0.9434
14451TIP3   OH264843   3.257   4.926   0.667 -0.4394 -0.1880  0.4552
14451TIP3    H164844   3.223   5.015   0.656 -0.3923 -0.2694 -0.5025
14451TIP3    H264845   3.188   4.869   0.633 -0.0067 -0.4384 -0.0388
14452TIP3   OH264846   5.778   3.030   7.032 -0.3502 -0.2268 -0.3219
14452TIP3    H164847   5.682   3.026   7.027 -0.4676  1.3192  0.0290
14452TIP3    H264848   5.808   2.968   6.966 -1.5856 -0.9896 -0.2056
14453TIP3   OH264849   0.003   3.885  16.588  0.5404  0.5837 -0.7477
14453TIP3    H164850   0.000   3.805  16.535 -0.4942  0.4318 -0.4942
14453TIP3    H264851  -0.078   3.881  16.640  1.0332  1.2427  0.0796
14454TIP3   OH264852   0.142   0.245  11.570  0.5589  0.7449 -0.4346
14454TIP3    H164853   0.232   0.279  11.570  0.7602  0.2268 -0.4829
14454TIP3    H264854   0.131   0.208  11.482 -0.3085  2.3561 -1.0290
14455TIP3   OH264855   1.076   0.907   3.379 -0.5870  0.4671 -0.4920
14455TIP3    H164856   1.144   0.880   3.440  0.5140  3.0466 -0.4549
14455TIP3    H264857   1.120   0.913   3.294 -0.6973  2.1552 -0.4702
14456TIP3   OH264858   5.254   5.632   1.313 -0.3176  0.0374  0.3027
14456TIP3    H164859   5.317   5.571   1.352  0.7101  0.3696 -0.7595
14456TIP3    H264860   5.285   5.718   1.341  0.0116  0.2321 -0.6110
14457TIP3   OH264861   0.255   4.789  16.240 -0.1563  0.0936 -0.0939
14457TIP3    H164862   0.234   4.696  16.251 -0.5123  0.1676 -0.1385
14457TIP3    H264863   0.206   4.833  16.310 -1.7061  0.4726 -1.3731
14458TIP3   OH264864   4.195   2.118  13.087 -0.2152 -0.1334 -0.0584
14458TIP3    H164865   4.195   2.165  13.170 -0.6039 -1.2565  0.5947
14458TIP3    H264866   4.122   2.155  13.038  0.6228  1.2298 -0.3241
14459TIP3   OH264867   6.319   6.146   3.794 -0.1653  0.4732 -0.7635
14459TIP3    H164868   6.315   6.124   3.701 -1.7655 -0.8513 -0.4257
14459TIP3    H264869   6.378   6.081   3.831 -1.4490 -0.5654 -0.4823
14460TIP3   OH264870   4.963   3.394   3.479  0.3146 -0.2492  0.1677
14460TIP3    H164871   4.948   3.488   3.469  0.4535 -0.2238  0.1989
14460TIP3    H264872   5.058   3.386   3.488  0.3186 -0.4096 -0.0125
14461TIP3   OH264873   4.704   1.946   4.880  0.3429  0.1686 -0.3099
14461TIP3    H164874   4.675   1.992   4.801  2.7255  1.8073 -0.3466
14461TIP3    H264875   4.734   1.860   4.848  0.0568  0.3079 -0.9716
14462TIP3   OH264876   6.129   1.365   4.132  0.1650  0.1610  1.0185
14462TIP3    H164877   6.128   1.285   4.078 -0.2844  0.9409 -0.1801
14462TIP3    H264878   6.091   1.337   4.216 -2.1784 -0.4309 -0.1341
14463TIP3   OH264879   6.278   5.067   4.387 -0.3680  0.2065 -0.9248
14463TIP3    H164880   6.191   5.047   4.423  0.8186 -2.1263  0.8988
14463TIP3    H264881   6.304   5.147   4.432 -1.4102  0.7748 -1.2824
14464TIP3   OH264882   4.060   6.713   2.264  0.4749 -0.3387  0.0340
14464TIP3    H164883   3.978   6.733   2.308  0.9329 -0.4854  0.9734
14464TIP3    H264884   4.118   6.682   2.333  1.3063 -0.3040 -0.6258
14465TIP3   OH264885   6.715   6.584   0.132  0.2252  0.0345 -0.8518
14465TIP3    H164886   6.697   6.490   0.124  1.0150 -0.2672  0.6289
14465TIP3    H264887   6.805   6.593   0.099  0.1923  0.2547 -0.8800
14466TIP3   OH264888   1.613   5.772   2.324  0.2950 -0.2633  0.1937
14466TIP3    H164889   1.707   5.761   2.311  0.0809 -0.7268 -1.1100
14466TIP3    H264890   1.606   5.820   2.406  1.6853  0.0997  0.1315
14467TIP3   OH264891   3.775   0.643   3.536  0.5980 -0.0672  0.0757
14467TIP3    H164892   3.800   0.569   3.592 -0.2624 -0.4654 -0.0552
14467TIP3    H264893   3.763   0.605   3.449 -1.3440 -0.0740  0.3165
14468TIP3   OH264894   1.939   2.610   2.684  0.1731  0.6387  0.2724
14468TIP3    H164895   2.000   2.539   2.667  0.4253  0.6635  1.0621
14468TIP3    H264896   1.907   2.594   2.773  0.2038  1.4899  0.4429
14469TIP3   OH264897   2.135   1.574  10.722  0.2683 -0.1905  0.7747
14469TIP3    H164898   2.209   1.566  10.662 -0.4168  1.0604 -0.3043
14469TIP3    H264899   2.142   1.497  10.779  1.6195 -0.8043 -0.1524
14470TIP3   OH264900   6.148   6.291  12.490 -0.4331 -0.4283 -0.0227
14470TIP3    H164901   6.111   6.221  12.543 -0.3921 -1.1132 -0.8665
14470TIP3    H264902   6.228   6.253  12.453  0.0620  0.3643  0.2019
14471TIP3   OH264903   4.656   2.756   0.996  0.8256  0.0064  0.6248
14471TIP3    H164904   4.632   2.665   1.016 -1.0032  0.3187  0.0510
14471TIP3    H264905   4.712   2.749   0.918 -1.0699 -0.5556 -0.7739
14472TIP3   OH264906   6.145   4.206  16.011  0.4196 -0.4023  0.0465
14472TIP3    H164907   6.049   4.209  16.014  0.3982 -0.5901 -0.3320
14472TIP3    H264908   6.173   4.293  16.039  0.1280 -0.2300 -0.1883
14473TIP3   OH264909   4.445   0.996  17.146 -0.1595  0.1472  0.7766
14473TIP3    H164910   4.538   0.997  17.166  0.4137  0.7605 -1.6600
14473TIP3    H264911   4.403   0.975  17.230  2.2260 -1.9493  1.5819
14474TIP3   OH264912   5.144   2.264   1.225  0.9066  0.1930  0.0793
14474TIP3    H164913   5.114   2.353   1.206  0.9649  0.4980  1.3453
14474TIP3    H264914   5.166   2.227   1.139 -1.1083  0.6614 -0.6844
14475TIP3   OH264915   0.950   1.855  12.195  0.3806  0.0890 -0.4669
14475TIP3    H164916   1.019   1.788  12.205  0.7741  0.5699  0.1746
14475TIP3    H264917   0.994   1.927  12.151 -0.2992 -0.4274 -2.0543
14476TIP3   OH264918   0.275   3.182   4.134  0.7416 -1.0297  0.1833
14476TIP3    H164919   0.183   3.171   4.112  1.1207 -1.5533 -1.2044
14476TIP3    H264920   0.275   3.254   4.198 -0.3564  1.3994 -2.3200
14477TIP3   OH264921   2.901   5.865   4.773 -0.5277 -0.8447  0.2815
14477TIP3    H164922   2.970   5.802   4.753 -1.0072 -1.3060  0.0654
14477TIP3    H264923   2.917   5.937   4.712 -0.8692 -1.4241 -0.5095
14478TIP3   OH264924   6.468   4.191   2.481 -0.1511 -0.0730 -0.6544
14478TIP3    H164925   6.527   4.234   2.542 -0.1449 -0.8879 -0.0574
14478TIP3    H264926   6.393   4.165   2.534  1.1919 -3.5791 -0.1909
14479TIP3   OH264927   1.748   6.284   1.684  0.2290  0.4074 -0.4033
14479TIP3    H164928   1.738   6.377   1.664 -1.8709  0.0572 -1.3008
14479TIP3    H264929   1.756   6.242   1.599 -0.5019 -0.3725 -0.0992
14480TIP3   OH264930   4.103   5.993  16.745 -0.3248 -0.4217  0.1380
14480TIP3    H164931   4.121   6.019  16.836  0.2513 -0.3806  0.0104
14480TIP3    H264932   4.021   6.037  16.724 -2.6892 -3.4968  1.9607
14481TIP3   OH264933   0.572   2.036  10.995 -0.0492 -0.2205  0.6355
14481TIP3    H164934   0.563   2.107  10.932  2.5770 -1.1313 -0.9456
14481TIP3    H264935   0.583   2.079  11.079 -1.9199  1.0838  0.2656
14482TIP3   OH264936   6.598   1.340   2.662  0.0984 -0.4208 -0.2845
14482TIP3    H164937   6.679   1.308   2.622  1.1961  2.4381 -0.5946
14482TIP3    H264938   6.529   1.300   2.610  1.2824 -2.2566 -0.5670
14483TIP3   OH264939   2.696   2.722   5.535 -0.9040  0.2339 -0.0060
14483TIP3    H164940   2.657   2.641   5.570 -2.1942  1.4583  1.6056
14483TIP3    H264941   2.731   2.698   5.450 -1.0883 -2.0580  0.5085
14484TIP3   OH264942   6.084   5.152  14.221  0.3197  0.3393  0.6710
14484TIP3    H164943   6.158   5.209  14.239  0.9643 -0.0468 -0.6341
14484TIP3    H264944   6.071   5.157  14.126  0.7625 -2.0796  0.4061
14485TIP3   OH264945   6.747   3.784  16.199  0.3058  0.5180  0.2769
14485TIP3    H164946   6.784   3.790  16.111  1.1892  1.5010  0.7090
14485TIP3    H264947   6.703   3.868  16.213  2.9245  1.7280  1.9739
14486TIP3   OH264948   5.967   6.553  13.097 -0.0164  0.5022  0.4308
14486TIP3    H164949   5.997   6.577  13.009  2.4657 -0.0851  1.0300
14486TIP3    H264950   5.921   6.469  13.084 -1.0724  1.1909 -0.4774
14487TIP3   OH264951   4.006   1.574   1.980  0.6048  0.0156 -0.0912
14487TIP3    H164952   3.915   1.572   2.008  0.5838  1.5354  0.0269
14487TIP3    H264953   4.044   1.493   2.015 -0.5735 -0.3942  0.2680
14488TIP3   OH264954   5.103   3.267   0.898 -0.5059 -0.0290 -0.2373
14488TIP3    H164955   5.069   3.356   0.910 -2.4746 -0.6897 -0.5270
14488TIP3    H264956   5.196   3.279   0.877 -0.6693  1.9336 -0.0104
14489TIP3   OH264957   1.281   5.300  15.981  0.0638 -0.3740  0.2490
14489TIP3    H164958   1.186   5.295  15.994  0.0384  0.1487  0.3084
14489TIP3    H264959   1.313   5.212  16.001 -0.4536 -0.6671 -0.1756
14490TIP3   OH264960   6.104   3.638   2.982  0.0729 -0.4211  0.2369
14490TIP3    H164961   6.183   3.691   2.971  2.0271 -2.8615  1.2975
14490TIP3    H264962   6.112   3.570   2.914 -1.2399 -0.5845  0.2217
14491TIP3   OH264963   1.214   2.595  13.190 -0.1254  0.5335 -0.0939
14491TIP3    H164964   1.266   2.675  13.179 -0.2990  0.7166  0.4123
14491TIP3    H264965   1.263   2.529  13.141 -0.0783  0.9861 -0.6750
14492TIP3   OH264966   3.609   2.176  15.130  0.5280 -0.4802 -0.7296
14492TIP3    H164967   3.531   2.193  15.078  0.4954  3.3443  0.2717
14492TIP3    H264968   3.682   2.192  15.069  0.4662  0.6472 -0.5449
14493TIP3   OH264969   0.409   1.984  12.493  0.5264  0.4788 -0.5431
14493TIP3    H164970   0.403   2.077  12.471  1.2713  0.3104 -1.5112
14493TIP3    H264971   0.413   1.939  12.409  1.1059 -0.3697 -0.0827
14494TIP3   OH264972   0.536   5.558  17.334  0.4268  0.2806 -0.6344
14494TIP3    H164973   0.500   5.628  17.388  0.2353  0.0212 -0.4270
14494TIP3    H264974   0.474   5.487  17.343 -0.2283  0.6314 -2.1332
14495TIP3   OH264975   6.340   5.274  16.076  0.2366  0.3339  0.1533
14495TIP3    H164976   6.284   5.331  16.023  0.6957  1.2559  0.6298
14495TIP3    H264977   6.281   5.241  16.145 -0.1457 -0.1699 -0.4041
14496TIP3   OH264978   2.117   0.110  14.177  0.1356 -0.4967  0.2699
14496TIP3    H164979   2.038   0.063  14.150  0.3562 -0.3592 -0.6518
14496TIP3    H264980   2.117   0.104  14.272  0.3766 -2.7779  0.1879
14497TIP3   OH264981   5.813   1.780  12.251  0.5116 -0.2802  0.2041
14497TIP3    H164982   5.754   1.761  12.177  0.7413 -0.1730 -0.0096
14497TIP3    H264983   5.780   1.861  12.288 -1.2203 -1.6461  1.8765
14498TIP3   OH264984   5.902   2.625   2.399 -0.9158 -0.0918  0.1071
14498TIP3    H164985   5.881   2.706   2.352  0.7079  0.0391 -0.4622
14498TIP3    H264986   5.903   2.558   2.331 -0.3566 -0.2386  0.2611
14499TIP3   OH264987   0.814   4.045  12.538  0.1421  0.5573 -0.6343
14499TIP3    H164988   0.875   4.111  12.507  0.4107 -0.4440 -2.3762
14499TIP3    H264989   0.730   4.091  12.545  0.1506  0.9401 -2.5720
14500TIP3   OH264990   5.043   1.066  16.521 -0.1542  0.0139  0.1522
14500TIP3    H164991   5.029   1.127  16.449 -1.3983 -0.7722 -0.2994
14500TIP3    H264992   4.991   1.101  16.594  1.1509  0.8426  0.7353
14501TIP3   OH264993   3.300   3.272  12.693  0.5307 -0.1960 -0.1567
14501TIP3    H164994   3.316   3.219  12.771  1.7545 -0.2040 -0.3799
14501TIP3    H264995   3.364   3.239  12.629  0.2847  0.5407 -0.7943
14502TIP3   OH264996   1.959   0.951  15.801  0.2324 -0.0579 -0.6964
14502TIP3    H164997   1.935   1.036  15.765 -2.8359 -1.0181 -1.1655
14502TIP3    H264998   1.886   0.927  15.858  2.0005 -1.4719  1.1388
14503TIP3   OH264999   0.476   0.988   0.702 -0.0775  0.4456 -0.1536
14503TIP3    H165000   0.407   1.055   0.704 -0.6099 -0.1016  1.0682
14503TIP3    H265001   0.429   0.906   0.716  0.5567 -0.2243 -1.7061
14504TIP3   OH265002   1.004   0.096  10.680  0.7631  0.2248 -0.2330
14504TIP3    H165003   1.003   0.136  10.767  0.1225  1.6492 -0.8584
14504TIP3    H265004   1.077   0.139  10.635 -0.3397  1.2107 -1.1342
14505TIP3   OH265005   1.673   1.985  16.157 -0.1262  0.0306  0.3436
14505TIP3    H165006   1.730   1.983  16.234 -0.4891 -2.3907  0.6334
14505TIP3    H265007   1.585   1.969  16.193 -0.3899 -0.4362 -0.4912
14506TIP3   OH265008   3.306   5.497  16.505  0.0261  0.2965 -0.4651
14506TIP3    H165009   3.390   5.475  16.545 -0.8380  1.0974  1.9829
14506TIP3    H265010   3.268   5.412  16.481  0.5723 -0.2364  0.4924
14507TIP3   OH265011   2.783   6.274   5.019 -0.4235  0.6008  0.3504
14507TIP3    H165012   2.860   6.217   5.023  0.3969  1.7305  1.3342
14507TIP3    H265013   2.709   6.215   5.031  0.2640 -0.5128 -0.6436
14508TIP3   OH265014   6.291   6.170  14.591 -0.4808  0.6582  0.0237
14508TIP3    H165015   6.363   6.224  14.624 -0.7387  0.5364  0.8229
14508TIP3    H265016   6.222   6.233  14.570 -1.1446  0.6267  1.8789
14509TIP3   OH265017   5.810   3.568  12.532 -0.4459 -0.5892  0.2356
14509TIP3    H165018   5.816   3.664  12.527 -0.0751 -0.6773 -1.4043
14509TIP3    H265019   5.825   3.549  12.625 -1.4608  0.9864  0.7677
14510TIP3   OH265020   6.096   2.467   0.008  0.6095 -0.0393 -0.0102
14510TIP3    H165021   6.172   2.418  -0.025  0.2872 -0.8350  0.4026
14510TIP3    H265022   6.091   2.543  -0.049 -0.0057 -1.4411 -1.9579
14511TIP3   OH265023   3.751   2.670   1.780  0.3720  0.2750 -0.0579
14511TIP3    H165024   3.758   2.581   1.745  0.4558 -0.5192  1.8859
14511TIP3    H265025   3.659   2.693   1.767  0.2293 -0.3015 -0.0846
14512TIP3   OH265026   2.769   1.856  11.327 -0.3659 -0.1324 -0.0841
14512TIP3    H165027   2.801   1.933  11.373  1.0656 -0.5775 -0.2894
14512TIP3    H265028   2.726   1.890  11.249 -1.0970  0.5152  0.5791
14513TIP3   OH265029   2.655   2.618  14.710  0.4555  0.1106  0.6951
14513TIP3    H165030   2.628   2.710  14.712 -0.5429 -0.0819 -1.2960
14513TIP3    H265031   2.736   2.619  14.660 -0.1997 -0.2010 -0.3987
14514TIP3   OH265032   0.357   2.215  11.398  0.1265  0.2332  0.4784
14514TIP3    H165033   0.335   2.132  11.440  0.1519  0.8402  1.7059
14514TIP3    H265034   0.430   2.193  11.340 -0.0527 -0.6552  0.5759
14515TIP3   OH265035   5.017   5.401  12.674 -1.0749  0.6809  0.1154
14515TIP3    H165036   5.007   5.496  12.681 -1.6029  0.6576 -0.3007
14515TIP3    H265037   5.112   5.387  12.670 -0.9998  1.1923  0.1127
14516TIP3   OH265038   4.103   3.705  11.702  0.3147  0.0271  0.2704
14516TIP3    H165039   4.114   3.789  11.659  0.8719 -0.5850 -0.8395
14516TIP3    H265040   4.156   3.711  11.782  1.8671  0.0969 -0.7307
14517TIP3   OH265041   0.714   4.119   2.662  0.4514 -0.1010  0.6758
14517TIP3    H165042   0.809   4.111   2.663  0.4049 -0.7402  0.0246
14517TIP3    H265043   0.698   4.209   2.692  1.2054 -0.3323  1.8358
14518TIP3   OH265044   1.741   4.870  12.069 -0.2182 -0.8289 -0.3131
14518TIP3    H165045   1.794   4.790  12.065  0.3493 -0.5183  0.6241
14518TIP3    H265046   1.680   4.862  11.996  0.6243 -1.5516 -0.9544
14519TIP3   OH265047   0.352   4.623   1.962 -0.1527 -0.2546 -0.6054
14519TIP3    H165048   0.330   4.632   1.869  1.1464  0.9331 -0.8369
14519TIP3    H265049   0.448   4.621   1.963 -0.1177  0.6840  0.7677
14520TIP3   OH265050   2.845   0.350  13.753  0.0821 -0.0409  0.3580
14520TIP3    H165051   2.781   0.298  13.801  0.9469 -0.6760  0.8559
14520TIP3    H265052   2.853   0.431  13.803 -0.4948  0.1340  0.1680
14521TIP3   OH265053   0.765   2.403  15.813  0.3175  0.1342  0.1207
14521TIP3    H165054   0.696   2.341  15.790 -0.3514  0.7231  0.4940
14521TIP3    H265055   0.846   2.355  15.799 -0.2000 -1.0670  1.1377
14522TIP3   OH265056   0.138   0.121  13.587  0.6798 -0.1604 -0.5410
14522TIP3    H165057   0.120   0.030  13.610 -0.4635  0.3952  0.9082
14522TIP3    H265058   0.115   0.127  13.494 -0.5623 -1.0369 -0.3177
14523TIP3   OH265059   1.503   3.539   1.778  0.1542 -0.0409 -0.2579
14523TIP3    H165060   1.543   3.586   1.851 -0.7888  0.8145 -0.2614
14523TIP3    H265061   1.439   3.601   1.742 -2.5741 -1.9237  0.9247
14524TIP3   OH265062   5.309   0.255   5.242  0.6837  0.3406 -0.6366
14524TIP3    H165063   5.340   0.251   5.152 -1.6182 -0.1487 -1.4802
14524TIP3    H265064   5.302   0.164   5.269 -0.5524  0.3919 -0.7158
14525TIP3   OH265065   5.751   0.081   1.237 -0.4130  0.2390  0.8794
14525TIP3    H165066   5.685   0.146   1.262 -0.9734 -0.4588  1.2357
14525TIP3    H265067   5.796   0.121   1.162 -0.6504  1.0983  1.1802
14526TIP3   OH265068   5.341   6.195   2.897 -0.0361 -0.4955 -0.0159
14526TIP3    H165069   5.350   6.128   2.828 -1.8829  0.0941 -0.8909
14526TIP3    H265070   5.313   6.274   2.850  0.3633  0.4172  1.2253
14527TIP3   OH265071   4.263   2.073  16.083 -0.6577 -0.5074  0.0426
14527TIP3    H165072   4.187   2.102  16.032  0.1859 -0.1363 -1.0494
14527TIP3    H265073   4.232   2.071  16.173 -1.1795  2.5553  0.0429
14528TIP3   OH265074   2.410   6.190  15.049  0.4027 -0.6892  0.8380
14528TIP3    H165075   2.462   6.195  14.969 -0.4320  0.0556  0.3121
14528TIP3    H265076   2.335   6.136  15.025  1.3717 -2.5852  1.8712
14529TIP3   OH265077   5.597   2.501  10.829  0.1134 -0.1390  0.5622
14529TIP3    H165078   5.625   2.568  10.766  0.2418 -0.1865  0.5691
14529TIP3    H265079   5.661   2.431  10.819  1.3914  0.7135  2.2365
14530TIP3   OH265080   5.383   1.643  14.371  0.7157  0.4750  0.5990
14530TIP3    H165081   5.395   1.630  14.277 -1.5343  2.4794 -0.0821
14530TIP3    H265082   5.334   1.566  14.400  0.6979  0.2376 -0.0536
14531TIP3   OH265083   1.663   0.770  16.285  0.2296  0.3365 -0.2899
14531TIP3    H165084   1.646   0.752  16.378  1.5054 -0.0181 -0.0981
14531TIP3    H265085   1.580   0.754  16.241 -1.0561  2.7372  1.0674
14532TIP3   OH265086   5.763   4.392   4.665 -0.7458 -0.3757 -0.3536
14532TIP3    H165087   5.858   4.396   4.672 -0.8138 -1.0459  1.7853
14532TIP3    H265088   5.743   4.426   4.578  1.5012 -1.2181 -1.2574
14533TIP3   OH265089   4.918   2.989   4.339 -0.7880  0.2951  0.0491
14533TIP3    H165090   4.870   3.060   4.381  1.9516  1.2366  1.8734
14533TIP3    H265091   4.916   3.010   4.246 -0.7302  2.3289  0.4702
14534TIP3   OH265092   6.422   2.242   3.352 -0.4514  0.5706  0.8584
14534TIP3    H165093   6.490   2.205   3.408  0.8250  1.1475 -0.2511
14534TIP3    H265094   6.448   2.333   3.339  0.0125  0.1600 -1.6304
14535TIP3   OH265095   1.020   0.949   1.083  0.2067  0.5734 -0.3712
14535TIP3    H165096   0.936   0.936   1.128 -0.2399  1.2432 -0.9855
14535TIP3    H265097   1.016   0.891   1.007  0.4963  0.2707 -0.1593
14536TIP3   OH265098   5.663   5.578   1.699  0.1260 -0.3082  0.2491
14536TIP3    H165099   5.658   5.483   1.691  0.6979 -0.4095  1.0623
14536TIP3    H265100   5.575   5.609   1.674  0.0077 -1.0210 -0.2377
14537TIP3   OH265101   0.308   0.977   3.545 -0.5657 -0.2591 -0.2721
14537TIP3    H165102   0.255   0.926   3.606 -0.1526 -0.0478  0.2678
14537TIP3    H265103   0.247   1.003   3.476 -1.4495  0.8824  0.8741
14538TIP3   OH265104   0.111   0.393  10.708 -0.1791 -0.3491  0.2912
14538TIP3    H165105   0.025   0.364  10.677 -0.1662  0.7697 -0.8534
14538TIP3    H265106   0.094   0.474  10.756  0.0309 -1.1101  1.6958
14539TIP3   OH265107   0.792   0.736  11.799  0.0349 -0.6169 -0.3574
14539TIP3    H165108   0.878   0.693  11.796  0.4702 -0.0378  1.8627
14539TIP3    H265109   0.799   0.808  11.736  1.2036 -0.5929 -0.2282
14540TIP3   OH265110   1.072   0.738   0.907 -0.4521 -0.4436  0.2572
14540TIP3    H165111   1.059   0.656   0.860 -1.0301 -0.7794  0.9893
14540TIP3    H265112   1.155   0.728   0.952 -0.3973 -0.5211  0.1389
14541TIP3   OH265113   0.140   5.543   5.479 -0.5438 -0.1156  0.2091
14541TIP3    H165114   0.154   5.550   5.573  0.3904  0.5295  0.0389
14541TIP3    H265115   0.201   5.475   5.450 -1.1036 -0.5868  0.1217
14542TIP3   OH265116   2.384   0.766   3.762  0.0438  0.2527 -0.0100
14542TIP3    H165117   2.431   0.765   3.678 -0.3451  1.0490 -0.2511
14542TIP3    H265118   2.425   0.836   3.812 -0.9288  1.0239 -0.2629
14543TIP3   OH265119   0.109   0.969   2.356 -0.0331  0.0878  0.7845
14543TIP3    H165120   0.138   0.893   2.406  0.8865 -0.2146 -0.1645
14543TIP3    H265121   0.059   0.933   2.283  1.0981  0.2955 -0.1368
14544TIP3   OH265122   3.859   3.794   5.667 -0.5819  0.6476  0.0065
14544TIP3    H165123   3.831   3.790   5.758 -0.8891  0.9519 -0.0721
14544TIP3    H265124   3.947   3.756   5.667 -0.9143 -0.1349  0.2842
14545TIP3   OH265125   1.971   3.057  12.757  0.6448  0.6953 -0.0627
14545TIP3    H165126   1.919   3.113  12.700 -2.6008 -1.8620  0.0884
14545TIP3    H265127   1.995   3.113  12.830 -0.2268  2.5181 -1.1007
14546TIP3   OH265128   4.149   2.498   3.773  0.0313  0.2871  0.0024
14546TIP3    H165129   4.237   2.462   3.787  0.0150  0.5706  0.8435
14546TIP3    H265130   4.135   2.557   3.846 -0.2723  1.4033 -0.9239
14547TIP3   OH265131   1.973   6.104  16.930 -0.8277  0.1429  0.1440
14547TIP3    H165132   1.881   6.125  16.945 -0.4666  2.2056 -0.1169
14547TIP3    H265133   1.973   6.043  16.856 -1.9624  0.9048 -0.5180
14548TIP3   OH265134   6.738   6.101  16.318 -0.6114 -0.0487  0.0579
14548TIP3    H165135   6.717   6.180  16.267  2.7888  0.9856  0.0135
14548TIP3    H265136   6.779   6.042  16.255  0.1124 -0.3497  0.7942
14549TIP3   OH265137   4.904   4.314  11.920  0.0436  0.4796 -0.4505
14549TIP3    H165138   4.854   4.350  11.993  0.1569  0.4505 -0.3592
14549TIP3    H265139   4.843   4.315  11.846  0.1147  1.0653 -0.5034
14550TIP3   OH265140   1.212   5.495   1.605 -0.0279  0.0129 -0.4781
14550TIP3    H165141   1.178   5.518   1.518  1.0859  0.6896 -0.7540
14550TIP3    H265142   1.304   5.472   1.590  0.7834  2.0980  0.7596
14551TIP3   OH265143   5.696   4.163  12.428  0.1724  0.4660 -0.0445
14551TIP3    H165144   5.612   4.117  12.439  0.0452  0.2534 -1.5748
14551TIP3    H265145   5.691   4.238  12.487  0.0653 -1.0335  1.9609
14552TIP3   OH265146   1.293   3.844  15.146  0.4697  0.1881  0.2256
14552TIP3    H165147   1.348   3.801  15.080 -0.3003  0.6892 -0.7775
14552TIP3    H265148   1.319   3.804  15.229 -0.3806 -2.3942 -0.6563
14553TIP3   OH265149   2.232   4.798  13.062  0.3187 -0.3731  0.0032
14553TIP3    H165150   2.193   4.885  13.056 -0.5740 -0.8068 -0.6328
14553TIP3    H265151   2.266   4.780  12.974  0.1301 -0.8386  0.0218
14554TIP3   OH265152   5.296   3.296  14.622 -0.5985  0.0083 -0.6796
14554TIP3    H165153   5.262   3.248  14.697  0.0100  0.9648  0.2277
14554TIP3    H265154   5.366   3.240  14.587  1.8291  1.1896  1.8609
14555TIP3   OH265155   1.214   5.999  11.664 -0.2800  1.0274 -0.4866
14555TIP3    H165156   1.162   6.078  11.647  0.6784  1.9659  0.7988
14555TIP3    H265157   1.188   5.972  11.752  0.5840  0.8648 -0.2724
14556TIP3   OH265158   0.360   0.390   0.220  0.1897 -0.1404  0.1017
14556TIP3    H165159   0.293   0.338   0.265 -1.2170  0.1142 -1.5851
14556TIP3    H265160   0.312   0.465   0.186  0.9571 -0.7388 -2.5235
14557TIP3   OH265161   2.029   2.298  16.944  0.1617  0.3293  0.2327
14557TIP3    H165162   2.025   2.374  16.886  0.9467  0.8188  0.8064
14557TIP3    H265163   2.097   2.320  17.008 -0.2607 -0.4558  0.9702
14558TIP3   OH265164   6.285   6.525  16.020  0.2840 -0.2015 -0.2693
14558TIP3    H165165   6.249   6.571  15.944 -0.7391 -0.2049  0.2025
14558TIP3    H265166   6.341   6.456  15.982  1.8041  1.3505 -0.9842
14559TIP3   OH265167   1.254   3.367  16.407  0.4434 -1.1049  0.4840
14559TIP3    H165168   1.232   3.441  16.350 -3.4602 -2.5370 -0.1557
14559TIP3    H265169   1.280   3.297  16.347 -1.2674 -1.8628  0.5778
14560TIP3   OH265170   6.457   4.349  15.088  0.0188 -0.3648  0.4069
14560TIP3    H165171   6.525   4.364  15.022 -0.5180  0.7858  0.0973
14560TIP3    H265172   6.499   4.372  15.171  0.1619 -0.1198  0.2679
14561TIP3   OH265173   0.444   6.134  14.942 -0.1352 -0.5843 -0.2833
14561TIP3    H165174   0.448   6.040  14.960 -0.0922 -1.1588 -2.7976
14561TIP3    H265175   0.470   6.176  15.024 -0.2211 -2.7487  0.9283
14562TIP3   OH265176   6.665   4.991   6.811 -0.0831  0.1771  0.8104
14562TIP3    H165177   6.673   5.081   6.780 -0.5119 -0.9811 -3.1610
14562TIP3    H265178   6.571   4.972   6.805  0.2720 -1.2266 -0.7652
14563TIP3   OH265179   3.239   4.581   4.204 -0.5786 -0.3968 -0.5281
14563TIP3    H165180   3.173   4.571   4.273 -1.4986 -2.3936 -1.6342
14563TIP3    H265181   3.195   4.553   4.124  0.8242  0.7835 -1.7713
14564TIP3   OH265182   6.121   6.052  12.624 -0.1232 -0.0298  0.3641
14564TIP3    H165183   6.065   6.020  12.553  0.3813 -0.0758 -0.0128
14564TIP3    H265184   6.073   6.027  12.704 -0.4195 -0.4817  0.0539
14565TIP3   OH265185   2.689   1.724  13.033 -0.4540  0.6179 -0.1523
14565TIP3    H165186   2.739   1.643  13.023 -3.0304 -1.0456 -0.4607
14565TIP3    H265187   2.717   1.760  13.117  0.8035 -0.5338 -0.0495
14566TIP3   OH265188   5.697   4.060  16.801  0.0753 -0.1555  0.7382
14566TIP3    H165189   5.701   4.073  16.896 -1.2758  1.0951  0.6590
14566TIP3    H265190   5.774   4.106  16.768 -0.7655  1.5764  1.0700
14567TIP3   OH265191   1.401   3.691   0.204  0.2126  0.3719  0.1933
14567TIP3    H165192   1.315   3.650   0.206 -0.0154  0.8342  0.1121
14567TIP3    H265193   1.452   3.638   0.143 -0.0905  0.2347  0.0591
14568TIP3   OH265194   3.429   4.507   5.737  0.0797 -0.1570  0.3626
14568TIP3    H165195   3.488   4.541   5.805  0.8103 -0.8125  0.0687
14568TIP3    H265196   3.351   4.481   5.785  0.6362 -0.7219  0.9826
14569TIP3   OH265197   1.406   3.676  13.313  0.0235 -0.4222  0.0117
14569TIP3    H165198   1.478   3.728  13.348  0.9236 -1.9663  0.5630
14569TIP3    H265199   1.344   3.667  13.385 -0.4120  0.3268 -0.2552
14570TIP3   OH265200   0.146   0.206  12.952  0.6408  0.3680  0.2525
14570TIP3    H165201   0.148   0.224  12.859  1.0892  1.8787  0.5355
14570TIP3    H265202   0.235   0.220  12.982  0.6242 -0.6162  0.8416
14571TIP3   OH265203   2.339   3.795  11.542 -0.1658  0.1365 -0.0176
14571TIP3    H165204   2.350   3.740  11.465 -2.5698 -1.1439  0.4427
14571TIP3    H265205   2.355   3.737  11.616  0.9709  1.0534  0.4858
14572TIP3   OH265206   5.716   4.895   3.944  0.7778  0.5633  0.3021
14572TIP3    H165207   5.736   4.886   4.037  1.3192  1.8325  0.3298
14572TIP3    H265208   5.794   4.865   3.899  0.8182  0.7033  0.2785
14573TIP3   OH265209   2.755   2.862  12.600  0.3725  0.6383  0.8148
14573TIP3    H165210   2.681   2.862  12.661 -0.2103  0.0376  0.1325
14573TIP3    H265211   2.716   2.886  12.516  0.2859 -2.6818 -0.2578
14574TIP3   OH265212   0.712   0.408   0.689  0.1176 -0.2955  0.1410
14574TIP3    H165213   0.800   0.371   0.694  0.0637 -0.2635  1.9110
14574TIP3    H265214   0.692   0.434   0.778 -3.0434 -3.4016  0.5304
14575TIP3   OH265215   6.441   3.509   5.376  0.3207 -0.1263  0.3828
14575TIP3    H165216   6.425   3.427   5.424  2.0723  1.1343  3.4327
14575TIP3    H265217   6.371   3.567   5.405 -0.5228 -0.2659 -1.2564
14576TIP3   OH265218   2.859   4.764  15.626  0.5197 -0.0341  0.5515
14576TIP3    H165219   2.938   4.794  15.672  1.6268 -0.5985 -0.9240
14576TIP3    H265220   2.836   4.837  15.569  0.9574 -0.4957 -0.2259
14577TIP3   OH265221   5.482   6.522  10.602  0.4607 -0.0397 -0.5343
14577TIP3    H165222   5.489   6.481  10.515 -1.2904  0.3271 -0.8761
14577TIP3    H265223   5.446   6.609  10.585  0.9551  0.3829  0.4997
14578TIP3   OH265224   0.715   3.371   0.030 -0.1983 -0.4134  0.1681
14578TIP3    H165225   0.798   3.323   0.024  0.3820  0.3683  1.6072
14578TIP3    H265226   0.739   3.463   0.021 -0.7074 -0.0733  1.8657
14579TIP3   OH265227   0.408   6.078   2.306 -0.1253 -0.6602 -0.1572
14579TIP3    H165228   0.430   6.160   2.262 -1.4144  0.8702  1.8995
14579TIP3    H265229   0.480   6.064   2.367 -0.9222  0.0952  0.9763
14580TIP3   OH265230   4.800   3.923  12.603 -0.3394 -0.0071  0.0343
14580TIP3    H165231   4.880   3.918  12.550 -0.1506 -1.5178  0.4131
14580TIP3    H265232   4.821   3.874  12.682 -2.8887 -4.2938 -1.5835
14581TIP3   OH265233   1.945   0.227  10.892 -0.5321 -0.2986  0.0578
14581TIP3    H165234   1.936   0.263  10.803 -1.2034  0.2573  0.3375
14581TIP3    H265235   1.983   0.140  10.879 -2.3991 -1.0358 -0.9409
14582TIP3   OH265236   1.601   5.574  11.158 -0.6108 -0.0335 -0.0324
14582TIP3    H165237   1.534   5.590  11.225 -1.0688 -0.4268 -0.3908
14582TIP3    H265238   1.585   5.640  11.091 -0.6622 -0.1540 -0.1384
14583TIP3   OH265239   2.312   2.690  16.824  0.0032  0.2710 -0.9163
14583TIP3    H165240   2.291   2.783  16.814 -1.1520 -0.0056 -1.2275
14583TIP3    H265241   2.311   2.675  16.918 -0.8585  0.3587 -0.9028
14584TIP3   OH265242   1.475   2.293  16.380 -0.6647 -0.1617  0.1202
14584TIP3    H165243   1.499   2.383  16.359 -1.4442  0.0620  0.1507
14584TIP3    H265244   1.535   2.268  16.450  0.1848 -0.0020 -0.5378
14585TIP3   OH265245   4.281   3.264  15.383 -0.0838  0.5837  0.7441
14585TIP3    H165246   4.315   3.352  15.395  0.4763  0.4793  0.0120
14585TIP3    H265247   4.190   3.277  15.356  0.2057  0.9791 -0.0868
14586TIP3   OH265248   3.828   1.076   4.007 -0.0363  0.2002 -0.2565
14586TIP3    H165249   3.744   1.088   3.961  1.1044  1.0421 -2.2316
14586TIP3    H265250   3.832   1.150   4.068  0.6636  2.1013 -2.4703
14587TIP3   OH265251   4.542   2.675  16.022  0.0372  0.2111  0.2400
14587TIP3    H165252   4.625   2.662  16.067 -0.4347 -3.0028  0.3707
14587TIP3    H265253   4.476   2.643  16.083 -1.1029  0.5009 -0.7953
14588TIP3   OH265254   6.155   2.965   4.205 -0.0472 -0.1329 -0.6392
14588TIP3    H165255   6.061   2.977   4.216 -0.0288 -0.1765 -0.4213
14588TIP3    H265256   6.194   3.041   4.248  0.0262 -0.2973 -0.4076
14589TIP3   OH265257   0.375   5.666  14.175 -0.4297  0.8119  0.2016
14589TIP3    H165258   0.367   5.635  14.265 -1.4058  1.3931  0.3299
14589TIP3    H265259   0.469   5.667  14.158 -0.2790 -0.2467  0.8705
14590TIP3   OH265260   6.588   2.500   3.466 -0.0068  0.0504  0.3247
14590TIP3    H165261   6.551   2.501   3.378  0.1021  1.9799  0.2713
14590TIP3    H265262   6.569   2.586   3.502  2.2752  0.2671  1.2070
14591TIP3   OH265263   2.524   6.079  14.031  0.3302 -0.3947  0.3433
14591TIP3    H165264   2.580   6.053  13.958  0.2218  0.2265  0.0337
14591TIP3    H265265   2.497   5.997  14.071  0.7021 -0.7267 -0.0811
14592TIP3   OH265266   1.640   0.925   4.541 -0.2339 -0.1672  0.0440
14592TIP3    H165267   1.707   0.859   4.559  0.1031 -0.5861 -2.3868
14592TIP3    H265268   1.559   0.888   4.578  0.3112 -1.0637  0.3736
14593TIP3   OH265269   6.764   0.267  13.174 -0.7602  0.3986 -0.3122
14593TIP3    H165270   6.793   0.237  13.088  1.4786 -0.3646  0.6320
14593TIP3    H265271   6.748   0.361  13.163  1.8355  0.8319 -1.0700
14594TIP3   OH265272   1.077   6.435   4.126  0.1272  0.1978  0.5218
14594TIP3    H165273   1.052   6.387   4.205  1.6875 -0.9273  0.3868
14594TIP3    H265274   0.995   6.473   4.093 -0.7799 -0.5100  1.8837
14595TIP3   OH265275   5.342   0.465  11.713  0.4107 -0.0229  0.2344
14595TIP3    H165276   5.372   0.400  11.776 -0.7165 -0.9619 -0.1620
14595TIP3    H265277   5.377   0.434  11.629 -1.0933 -0.8013 -0.1382
14596TIP3   OH265278   1.600   4.302   4.409  0.3173  0.2458 -0.0996
14596TIP3    H165279   1.550   4.270   4.334 -0.6061  0.1740  0.5249
14596TIP3    H265280   1.534   4.337   4.468  0.6929 -2.1341  1.9185
14597TIP3   OH265281   5.946   3.222  14.075  0.4869  0.9308  0.2213
14597TIP3    H165282   6.008   3.156  14.043  0.2267  0.2264  1.1049
14597TIP3    H265283   6.001   3.286  14.120  0.6942  1.0200 -0.1570
14598TIP3   OH265284   2.725   2.620   6.772  0.2295 -0.0887 -0.0890
14598TIP3    H165285   2.651   2.611   6.832 -3.1214  2.5289 -3.3661
14598TIP3    H265286   2.795   2.658   6.826 -0.8098 -2.2684  3.0622
14599TIP3   OH265287   0.152   1.949   1.056  1.0035  0.4217 -0.5104
14599TIP3    H165288   0.088   1.879   1.042 -1.2444  2.0488  0.9370
14599TIP3    H265289   0.147   2.002   0.976 -0.4374  1.2035  0.0551
14600TIP3   OH265290   5.856   1.252  11.623 -0.0455 -0.0668  0.0677
14600TIP3    H165291   5.766   1.278  11.604 -0.2386  0.9171  2.1192
14600TIP3    H265292   5.871   1.175  11.567 -1.9507  0.0781 -0.7169
14601TIP3   OH265293   4.087   6.354  12.224  0.1956  0.2965 -0.2877
14601TIP3    H165294   3.996   6.325  12.219  0.1754  0.2907  0.0922
14601TIP3    H265295   4.138   6.277  12.198  0.1420 -0.0895  0.6968
14602TIP3   OH265296   6.230   6.417   0.766  0.2869  0.4519 -0.2502
14602TIP3    H165297   6.267   6.360   0.698  1.0068  0.3960  0.1793
14602TIP3    H265298   6.243   6.505   0.733  1.5323  0.4707  0.2366
14603TIP3   OH265299   6.738   1.454  13.080 -0.0526  0.2629 -0.0665
14603TIP3    H165300   6.803   1.525  13.079 -0.4738  0.7284 -3.0992
14603TIP3    H265301   6.657   1.496  13.052 -0.3484 -1.3120 -1.7273
14604TIP3   OH265302   5.615   0.873  10.926  0.2011 -0.3314  0.3252
14604TIP3    H165303   5.529   0.850  10.959 -0.2162  1.1571  0.3754
14604TIP3    H265304   5.608   0.861  10.831 -0.2507  0.2988  0.2709
14605TIP3   OH265305   4.716   3.510   5.048 -0.2293  0.6051 -0.5648
14605TIP3    H165306   4.692   3.458   4.971  1.4726 -2.0386  0.5330
14605TIP3    H265307   4.787   3.567   5.018  2.2520 -2.2220 -0.5657
14606TIP3   OH265308   3.824   1.883   1.207  0.5037  0.1554 -0.6465
14606TIP3    H165309   3.871   1.966   1.213 -0.1054  0.4309  0.7550
14606TIP3    H265310   3.876   1.823   1.261  0.9180 -0.3705 -1.6178
14607TIP3   OH265311   5.141   5.857  10.352 -0.5966  0.0645  0.4871
14607TIP3    H165312   5.084   5.931  10.373 -0.9110  0.7964 -2.4962
14607TIP3    H265313   5.221   5.897  10.319 -0.3347 -0.9178 -0.0913
14608TIP3   OH265314   2.169   3.199   1.237  0.0267  0.1135 -0.0174
14608TIP3    H165315   2.085   3.243   1.225 -0.5407 -0.8448  0.3335
14608TIP3    H265316   2.210   3.246   1.310 -0.7549 -0.1877  0.6308
14609TIP3   OH265317   4.375   2.586   0.115 -0.0079  0.0264 -0.4116
14609TIP3    H165318   4.310   2.655   0.130  0.6384  0.6780 -0.5565
14609TIP3    H265319   4.437   2.596   0.187  0.4758  0.0578 -0.8277
14610TIP3   OH265320   4.337   5.774   3.123  0.3055 -0.5694 -0.4236
14610TIP3    H165321   4.259   5.718   3.132  0.3536 -0.4033  1.4613
14610TIP3    H265322   4.407   5.723   3.164  1.1213 -0.5526 -1.7737
14611TIP3   OH265323   3.910   6.319  15.523 -0.7706 -0.3680  0.0143
14611TIP3    H165324   3.933   6.226  15.517 -0.2935 -0.1798 -1.4093
14611TIP3    H265325   3.815   6.320  15.528 -0.7193 -1.0046  2.3841
14612TIP3   OH265326   2.982   3.262  12.244  0.0842 -0.4851  0.7102
14612TIP3    H165327   3.000   3.180  12.199  0.2384  0.5465 -1.2433
14612TIP3    H265328   2.887   3.273  12.236  0.3422  0.7591 -1.4615
14613TIP3   OH265329   1.748   3.085  12.358  0.0720 -0.5481  0.7611
14613TIP3    H165330   1.718   3.153  12.299  1.9514 -1.1325 -0.9796
14613TIP3    H265331   1.773   3.132  12.438  1.2486  0.8435 -0.3682
14614TIP3   OH265332   4.966   2.174  16.327  0.5942 -0.3107 -0.1700
14614TIP3    H165333   5.052   2.132  16.333  0.8484  0.0966 -0.8669
14614TIP3    H265334   4.904   2.106  16.352  1.1253 -0.5636  0.5069
14615TIP3   OH265335   6.425   2.680   4.249 -0.6146  0.1933 -0.1849
14615TIP3    H165336   6.359   2.655   4.184  0.3005 -0.3545 -0.9253
14615TIP3    H265337   6.374   2.713   4.323 -1.7086  0.0192 -0.8364
14616TIP3   OH265338   2.922   0.242   2.020 -0.2711  0.5344 -0.0122
14616TIP3    H165339   2.838   0.226   2.062  0.3113 -0.9304  0.6540
14616TIP3    H265340   2.983   0.257   2.092  0.0007  1.9687 -0.5016
14617TIP3   OH265341   0.373   4.495  12.131 -0.1673 -0.4155  0.1513
14617TIP3    H165342   0.455   4.461  12.095  0.1763 -1.4861  1.8543
14617TIP3    H265343   0.384   4.590  12.127  1.8954 -0.4957  1.8208
14618TIP3   OH265344   1.240   0.965  16.006 -0.0308 -0.0603  0.1203
14618TIP3    H165345   1.273   1.052  15.984  1.7184 -0.6533  0.2286
14618TIP3    H265346   1.277   0.908  15.939  0.5021 -1.0088  1.1870
14619TIP3   OH265347   1.485   0.966  13.571  0.1919 -0.0994 -0.3032
14619TIP3    H165348   1.559   1.019  13.542 -1.0894  1.9372 -0.0537
14619TIP3    H265349   1.455   0.921  13.492 -0.1346  1.4255 -1.0852
14620TIP3   OH265350   1.942   0.174   2.417 -0.3557  0.7821  0.0323
14620TIP3    H165351   1.930   0.177   2.512 -0.8095  1.8944 -0.0361
14620TIP3    H265352   2.023   0.125   2.404 -0.9149 -0.4040  0.9230
14621TIP3   OH265353   2.256   1.092  13.905 -0.2746  0.3866 -0.0065
14621TIP3    H165354   2.326   1.131  13.853  1.6231 -1.8831  0.6530
14621TIP3    H265355   2.295   1.077  13.991 -0.9762 -2.3360 -0.0508
14622TIP3   OH265356   2.403   5.799  15.329 -0.2396 -0.2734  0.4294
14622TIP3    H165357   2.445   5.817  15.413  0.9221  1.6800 -0.4968
14622TIP3    H265358   2.330   5.740  15.351 -0.6631  1.0388  2.9798
14623TIP3   OH265359   0.829   1.562   1.999 -0.3622  0.0640  0.0727
14623TIP3    H165360   0.814   1.472   1.971 -0.9196 -0.0692  0.8035
14623TIP3    H265361   0.897   1.594   1.939 -0.3377 -0.7551 -0.3484
14624TIP3   OH265362   3.686   0.643   0.066  0.2623 -0.2339 -0.1861
14624TIP3    H165363   3.726   0.558   0.049 -2.6146 -1.4332 -1.7991
14624TIP3    H265364   3.706   0.694  -0.013 -1.7418 -1.0753 -1.3188
14625TIP3   OH265365   3.044   5.780   0.402 -0.3925 -0.2894 -0.1432
14625TIP3    H165366   3.031   5.738   0.316  3.0058 -0.6919 -0.5744
14625TIP3    H265367   3.101   5.854   0.385 -0.2981  0.1156  1.7017
14626TIP3   OH265368   4.514   5.268   3.950 -0.3947  0.1151  0.5313
14626TIP3    H165369   4.450   5.199   3.933 -1.2534  1.0178 -0.0152
14626TIP3    H265370   4.503   5.330   3.877  1.5590 -0.0169  0.0547
14627TIP3   OH265371   5.067   0.295  11.907  0.2872 -0.6403 -0.3126
14627TIP3    H165372   4.986   0.254  11.879  1.0025 -2.0306 -0.4566
14627TIP3    H265373   5.043   0.347  11.983 -0.4400 -2.5361  0.8268
14628TIP3   OH265374   1.934   0.599  16.382 -0.6265  0.0575  0.3673
14628TIP3    H165375   1.842   0.594  16.408 -0.6606 -0.2567  0.1855
14628TIP3    H265376   1.933   0.591  16.286 -0.2523 -2.0916  0.5068
14629TIP3   OH265377   6.005   2.658   0.217  0.2836 -0.7953 -0.0278
14629TIP3    H165378   6.050   2.679   0.299 -0.8995 -0.2047  0.5008
14629TIP3    H265379   6.045   2.576   0.188  2.8905  0.5380 -0.5205
14630TIP3   OH265380   2.348   3.348   4.871  0.2538 -0.0615 -0.1017
14630TIP3    H165381   2.327   3.421   4.813  0.3400 -0.1391 -0.2290
14630TIP3    H265382   2.268   3.295   4.873  0.5950 -0.6260 -0.9792
14631TIP3   OH265383   5.228   3.980  15.348 -0.0396  0.1926  0.1248
14631TIP3    H165384   5.297   3.918  15.328 -0.6612 -0.2461 -0.7553
14631TIP3    H265385   5.237   3.999  15.441  0.2582 -1.0945  0.3709
14632TIP3   OH265386   5.589   4.865  15.447 -0.3191 -0.0524  0.4668
14632TIP3    H165387   5.577   4.878  15.353 -0.4880 -1.9109  0.1988
14632TIP3    H265388   5.615   4.951  15.480 -0.9345  0.7939 -1.1601
14633TIP3   OH265389   0.607   6.043   0.997  0.0577  0.3148  0.5896
14633TIP3    H165390   0.572   6.023   0.910 -1.6379  0.6719  1.1467
14633TIP3    H265391   0.578   6.132   1.014  0.8760  0.4502  1.2878
14634TIP3   OH265392   1.390   6.671   0.472 -0.0976  0.7842 -0.3215
14634TIP3    H165393   1.369   6.651   0.381  0.2036 -1.5617  0.0616
14634TIP3    H265394   1.326   6.737   0.498 -1.0049  0.5552 -1.8664
14635TIP3   OH265395   1.614   5.329  13.199 -0.3546 -0.0324 -0.1382
14635TIP3    H165396   1.610   5.353  13.106 -2.3899  2.1467  0.4257
14635TIP3    H265397   1.707   5.334  13.221 -0.1567  3.3428 -1.2014
14636TIP3   OH265398   3.483   4.995  14.293 -0.5737  0.2223  0.2050
14636TIP3    H165399   3.446   4.917  14.253 -1.5964  0.2026  1.1427
14636TIP3    H265400   3.427   5.012  14.369  1.3607  0.1686  1.7310
14637TIP3   OH265401   3.517   3.234  11.771 -0.1996 -0.3860  0.3203
14637TIP3    H165402   3.584   3.176  11.735  0.2363 -0.1140  0.6780
14637TIP3    H265403   3.481   3.186  11.846  0.8543  0.1857  1.2345
14638TIP3   OH265404   2.287   3.734  15.702 -0.2069  0.1475  0.2810
14638TIP3    H165405   2.263   3.816  15.744 -0.8352 -0.0585  0.3270
14638TIP3    H265406   2.375   3.750  15.667 -0.7817  1.2198 -0.7251
14639TIP3   OH265407   1.864   0.215   0.523  0.2633  0.3554 -0.1607
14639TIP3    H165408   1.795   0.266   0.564 -0.0010 -0.7422  0.8054
14639TIP3    H265409   1.820   0.165   0.454  0.3413  0.6818 -0.4472
14640TIP3   OH265410   1.190   3.312  11.411  0.3001 -0.5405  0.1451
14640TIP3    H165411   1.163   3.369  11.483  0.1078  1.3977 -1.3788
14640TIP3    H265412   1.285   3.303  11.422  0.3313  0.0682  0.4133
14641TIP3   OH265413   2.179   0.752  12.047 -0.4227  0.2784  0.5178
14641TIP3    H165414   2.164   0.686  11.980  0.8451 -1.4819  1.8652
14641TIP3    H265415   2.093   0.790  12.064 -1.0855 -0.6221 -0.6989
14642TIP3   OH265416   5.585   2.159  11.538  0.1945  0.1803 -0.8157
14642TIP3    H165417   5.551   2.112  11.462  2.1250  0.6156 -2.0198
14642TIP3    H265418   5.616   2.089  11.596 -0.3292 -0.1290 -0.8998
14643TIP3   OH265419   6.242   0.072   2.584 -0.6386  0.1647 -0.4430
14643TIP3    H165420   6.286   0.156   2.598  0.5663 -0.2880 -1.3649
14643TIP3    H265421   6.216   0.074   2.492  0.1273 -0.7979 -0.6881
14644TIP3   OH265422   0.197   1.931   0.509  0.1716 -0.1946 -0.0977
14644TIP3    H165423   0.229   1.956   0.422  0.5175  0.5183  0.2294
14644TIP3    H265424   0.249   1.853   0.531  0.0031 -0.4460 -0.5727
14645TIP3   OH265425   5.449   0.621  13.212  0.3792 -0.1068 -0.2315
14645TIP3    H165426   5.433   0.547  13.153  1.2210 -0.9615  0.5954
14645TIP3    H265427   5.542   0.641  13.201 -0.1013  1.7960 -1.5052
14646TIP3   OH265428   2.001   0.168  16.056  0.0174 -0.5111 -0.8035
14646TIP3    H165429   2.092   0.184  16.081 -0.1742 -1.3806  0.6048
14646TIP3    H265430   2.006   0.108  15.982  0.6020 -1.1453 -0.2683
14647TIP3   OH265431   4.378   4.042  17.238 -0.7709 -0.1709 -0.1222
14647TIP3    H165432   4.370   4.031  17.333 -0.9088  0.3224 -0.0762
14647TIP3    H265433   4.373   4.136  17.224 -0.5346 -0.2266 -0.6021
14648TIP3   OH265434   2.233   0.001   0.978 -0.4302 -0.1446  0.2621
14648TIP3    H165435   2.223   0.053   0.898 -0.7798 -0.9322 -0.2185
14648TIP3    H265436   2.260  -0.085   0.947 -0.7708 -0.5199  0.9823
14649TIP3   OH265437   2.515   5.742  13.615 -0.2603 -0.9356 -0.2519
14649TIP3    H165438   2.488   5.652  13.599  1.4692 -1.8706  1.6270
14649TIP3    H265439   2.496   5.788  13.533 -1.8626 -2.8126 -0.9951
14650TIP3   OH265440   3.477   3.509  13.609  0.0507  0.1379 -0.3564
14650TIP3    H165441   3.458   3.585  13.664 -0.6442 -0.6241  0.4738
14650TIP3    H265442   3.398   3.495  13.557  0.1779 -0.0094 -0.5133
14651TIP3   OH265443   0.339   4.642  17.090 -0.2636  0.2968  0.0230
14651TIP3    H165444   0.401   4.654  17.162 -2.0358 -0.8729  1.8517
14651TIP3    H265445   0.391   4.602  17.021  1.3822  0.9296  0.8413
14652TIP3   OH265446   5.313   6.193  12.940  0.1107  0.9278  0.0093
14652TIP3    H165447   5.327   6.170  13.032  3.4023  2.1998 -0.0201
14652TIP3    H265448   5.220   6.215  12.935  0.1597  2.7195  3.5237
14653TIP3   OH265449   6.026   4.903   0.964 -0.1698 -0.7098  0.0073
14653TIP3    H165450   6.077   4.832   0.926  0.6931 -0.9039  1.4563
14653TIP3    H265451   6.027   4.972   0.898 -0.7574 -1.9039 -1.2834
14654TIP3   OH265452   3.360   4.001  15.001 -0.5066 -0.1029  0.2452
14654TIP3    H165453   3.393   4.088  14.980 -0.3736 -0.7616 -2.6756
14654TIP3    H265454   3.268   4.002  14.973 -1.3538 -0.1230  2.7647
14655TIP3   OH265455   6.682   3.901   1.420 -0.0740  0.5198  0.3451
14655TIP3    H165456   6.696   3.872   1.330  0.1515  1.2469  0.1398
14655TIP3    H265457   6.632   3.831   1.460 -0.9309  0.5756 -0.5954
14656TIP3   OH265458   6.094   0.679   1.932  0.1128 -0.1492 -0.1952
14656TIP3    H165459   6.187   0.664   1.951  0.1034  2.0816  2.0957
14656TIP3    H265460   6.064   0.597   1.892  2.9011 -1.1442 -0.4369
14657TIP3   OH265461   1.070   3.107  16.960  0.1132  0.5902  0.4353
14657TIP3    H165462   1.007   3.093  17.030 -0.7696  1.8888 -0.0659
14657TIP3    H265463   1.027   3.072  16.881  0.6636  0.0952  0.3442
14658TIP3   OH265464   5.760   6.764   1.487 -0.4133  0.1931  0.7624
14658TIP3    H165465   5.766   6.789   1.395 -0.2076  0.6659  0.9028
14658TIP3    H265466   5.674   6.723   1.496  0.7487 -2.7708 -0.3456
14659TIP3   OH265467   4.139   5.249   5.799  0.8359 -0.2419 -0.4290
14659TIP3    H165468   4.151   5.344   5.797 -1.3236  0.0711 -1.9285
14659TIP3    H265469   4.081   5.233   5.873 -0.6993 -0.0664 -1.5464
14660TIP3   OH265470   2.246   0.033  16.182 -0.2273  0.0735  0.6261
14660TIP3    H165471   2.310   0.083  16.233 -0.6768 -0.4909  1.7751
14660TIP3    H265472   2.281   0.034  16.093  1.0509  0.3179  1.1044
14661TIP3   OH265473   1.314   3.653  11.626  0.1919  0.4060 -0.2810
14661TIP3    H165474   1.384   3.610  11.576  0.7470 -0.1117  0.9059
14661TIP3    H265475   1.355   3.676  11.709 -0.6504  1.4692 -0.1435
14662TIP3   OH265476   3.993   1.545   6.057  0.0481  0.8265  0.6311
14662TIP3    H165477   4.054   1.602   6.104  0.0178  1.4821 -0.0941
14662TIP3    H265478   4.045   1.511   5.984 -0.2851  0.9356  0.3392
14663TIP3   OH265479   3.779   2.997   5.754 -0.2246  0.5264 -0.5622
14663TIP3    H165480   3.697   3.044   5.773 -0.2334  0.2181  0.1774
14663TIP3    H265481   3.752   2.927   5.693 -0.8226 -0.5552  0.8839
14664TIP3   OH265482   5.568   2.816  16.651 -0.6942 -0.1741  0.7718
14664TIP3    H165483   5.603   2.867  16.724 -0.6713 -0.6796  1.1240
14664TIP3    H265484   5.490   2.773  16.687 -0.6059 -0.5343  0.5415
14665TIP3   OH265485   1.953   1.911  11.921  0.2742  0.3254 -0.1250
14665TIP3    H165486   2.041   1.904  11.956 -0.8735  0.2579  3.1162
14665TIP3    H265487   1.920   1.821  11.921  0.0438  0.4049 -0.8763
14666TIP3   OH265488   3.766   0.874   1.569  0.5335 -0.2639  0.0457
14666TIP3    H165489   3.685   0.909   1.533 -0.0046 -0.9314  0.5808
14666TIP3    H265490   3.748   0.781   1.584  0.9334 -0.1440  1.4354
14667TIP3   OH265491   1.315   0.700  11.837 -0.1258  0.2747 -0.0501
14667TIP3    H165492   1.235   0.669  11.795  0.9083 -2.3389 -0.3138
14667TIP3    H265493   1.323   0.646  11.916  1.5629  0.1999 -0.2454
14668TIP3   OH265494   1.157   6.538  13.116  0.5381 -0.5822 -0.0805
14668TIP3    H165495   1.176   6.453  13.155 -0.6001 -1.4293 -1.2699
14668TIP3    H265496   1.102   6.517  13.040 -1.2098  1.3246  0.5654
14669TIP3   OH265497   2.757   4.350  11.763 -0.3880 -0.2881 -0.3120
14669TIP3    H165498   2.673   4.392  11.784  0.3553  0.7560  0.6612
14669TIP3    H265499   2.813   4.422  11.732  0.5718 -0.7188  0.3710
14670TIP3   OH265500   4.952   6.798  11.623 -0.2185  0.0059  0.0398
14670TIP3    H165501   4.968   6.841  11.539 -0.6188 -0.2000 -0.1452
14670TIP3    H265502   5.030   6.817  11.675  0.0602  0.0805 -0.4009
14671TIP3   OH265503   5.533   5.185  16.241 -0.0491 -0.8868  0.1021
14671TIP3    H165504   5.482   5.104  16.246 -1.1089 -0.2396 -0.0460
14671TIP3    H265505   5.506   5.235  16.318  1.4626 -1.1435  0.8315
14672TIP3   OH265506   1.040   4.708   1.562 -0.3388 -0.0641  0.5172
14672TIP3    H165507   1.053   4.767   1.487  1.3342 -1.4182 -0.3339
14672TIP3    H265508   0.956   4.666   1.546 -0.1367 -0.1088 -0.4775
14673TIP3   OH265509   5.181   3.680   5.850 -0.3960  0.0210  0.0570
14673TIP3    H165510   5.255   3.703   5.793 -0.8551  1.9276  0.1596
14673TIP3    H265511   5.216   3.612   5.908 -0.2427 -2.9423 -3.1997
14674TIP3   OH265512   0.401   0.521   4.290  0.1410 -0.3700 -0.3096
14674TIP3    H165513   0.429   0.596   4.237 -0.6329  0.6223  0.6243
14674TIP3    H265514   0.324   0.487   4.244 -0.2320  0.1780 -0.1077
14675TIP3   OH265515   5.000   6.580   5.534  0.2454  0.7285 -0.3416
14675TIP3    H165516   4.986   6.598   5.627  1.1059  1.5300 -0.3457
14675TIP3    H265517   4.918   6.542   5.504  0.0081  0.3343  0.7770
14676TIP3   OH265518   2.083   0.998  14.621 -0.1921 -0.1425 -0.2012
14676TIP3    H165519   2.130   0.919  14.594  1.3697  0.6848 -0.0231
14676TIP3    H265520   1.993   0.984  14.590  0.8647 -0.3394 -3.7006
14677TIP3   OH265521   3.107   3.559  16.393 -0.0128  0.0577 -0.2950
14677TIP3    H165522   3.013   3.576  16.397 -0.0108 -0.1180  1.7848
14677TIP3    H265523   3.115   3.466  16.416  0.7332  0.4503  1.1465
14678TIP3   OH265524   2.597   1.524  13.302 -0.1370 -0.2229 -0.0271
14678TIP3    H165525   2.680   1.546  13.259  1.2364 -3.2897  0.8394
14678TIP3    H265526   2.610   1.551  13.393  0.1453 -1.1564  0.2201
14679TIP3   OH265527   3.998   2.019   0.399  0.3598  0.1082 -0.1088
14679TIP3    H165528   3.963   1.957   0.335  0.0780 -0.1431  0.2906
14679TIP3    H265529   3.945   2.007   0.477 -1.0353  2.2371 -0.6219
14680TIP3   OH265530   3.405   1.073  16.001  0.4530 -0.0080 -0.2616
14680TIP3    H165531   3.445   1.001  15.952  0.7164 -1.3819  1.8313
14680TIP3    H265532   3.333   1.103  15.945 -0.5220 -2.7969 -0.6631
14681TIP3   OH265533   5.130   0.581  14.493  0.0958 -0.4261  0.3029
14681TIP3    H165534   5.056   0.642  14.495 -0.5791 -1.2339  0.1149
14681TIP3    H265535   5.090   0.494  14.500  1.1245 -0.8088  2.2951
14682TIP3   OH265536   1.085   1.536  12.744  0.3673  0.1271  0.4218
14682TIP3    H165537   1.082   1.481  12.666  0.7687  0.9902 -0.2146
14682TIP3    H265538   1.174   1.525  12.778 -0.1210 -1.0588  1.3693
14683TIP3   OH265539   4.199   5.545   3.444 -0.4501  0.4809  0.3487
14683TIP3    H165540   4.157   5.474   3.493  0.6496 -0.2499  0.2513
14683TIP3    H265541   4.244   5.596   3.511 -0.6928  0.7177  0.3360
14684TIP3   OH265542   0.188   1.165   0.181 -0.6297 -0.2368 -0.0204
14684TIP3    H165543   0.182   1.121   0.266 -0.0265 -0.1662  0.0595
14684TIP3    H265544   0.100   1.200   0.166 -0.6819 -0.0695  0.6701
14685TIP3   OH265545   1.140   6.075   5.766 -0.1951 -0.4681 -0.1845
14685TIP3    H165546   1.084   6.153   5.764 -1.1906 -1.1878 -0.6597
14685TIP3    H265547   1.197   6.085   5.690  0.3962  0.3019  0.3401
14686TIP3   OH265548   1.591   4.841  15.709 -0.0185 -0.3270  0.0133
14686TIP3    H165549   1.635   4.813  15.790  2.1151  1.9348 -0.2427
14686TIP3    H265550   1.610   4.772  15.646  0.0218 -1.1452  0.8959
14687TIP3   OH265551   1.142   6.246  11.516  0.0632  0.2288  0.3596
14687TIP3    H165552   1.069   6.299  11.548 -1.4201 -0.8419 -1.1058
14687TIP3    H265553   1.183   6.299  11.448 -1.4446 -0.4310 -1.1333
14688TIP3   OH265554   1.177   5.246   4.490  0.0245  0.0543 -0.0294
14688TIP3    H165555   1.120   5.185   4.443  1.5457 -2.1992  0.8577
14688TIP3    H265556   1.237   5.279   4.424 -0.4121  0.1068 -0.4037
14689TIP3   OH265557   4.460   6.771  12.371 -0.9361 -0.7313  0.2456
14689TIP3    H165558   4.416   6.804  12.292  1.9588  0.7103 -0.9117
14689TIP3    H265559   4.444   6.839  12.437  0.8441  0.6720 -0.6770
14690TIP3   OH265560   4.883   2.081  17.318 -0.2094 -0.2322  0.2134
14690TIP3    H165561   4.819   2.011  17.331  0.0301 -0.6179 -0.6095
14690TIP3    H265562   4.968   2.039  17.328 -0.0125 -0.4826 -1.9728
14691TIP3   OH265563   3.674   3.611  16.809 -0.1271 -0.0951  0.1268
14691TIP3    H165564   3.595   3.609  16.864 -0.7987 -1.1162 -0.8342
14691TIP3    H265565   3.742   3.646  16.867 -1.4896  1.8177  0.6864
14692TIP3   OH265566   0.486   0.079   1.645  0.0078 -0.2596 -0.6435
14692TIP3    H165567   0.416   0.041   1.592  0.2800 -1.8651  0.0888
14692TIP3    H265568   0.548   0.114   1.581 -1.9602  2.3023 -1.3137
14693TIP3   OH265569   6.489   0.437   5.348 -0.3041  0.1684 -0.5821
14693TIP3    H165570   6.489   0.389   5.265 -0.0516  1.5124 -1.3904
14693TIP3    H265571   6.525   0.375   5.412 -0.2769 -0.8084 -1.5189
14694TIP3   OH265572   0.276   3.983  10.374  0.1032 -0.3165  0.4518
14694TIP3    H165573   0.191   3.999  10.333  0.1894  0.5205  0.5720
14694TIP3    H265574   0.256   3.980  10.468 -0.2076 -2.9589  0.3624
14695TIP3   OH265575   4.418   6.798   0.001 -0.0461 -0.7715 -0.1169
14695TIP3    H165576   4.427   6.703  -0.009 -2.0814 -1.0966  0.4346
14695TIP3    H265577   4.466   6.836  -0.072  2.4810 -2.1102  0.7344
14696TIP3   OH265578   0.146   0.931   3.036 -0.3440  0.4141  0.0917
14696TIP3    H165579   0.108   1.016   3.011 -1.1235  0.0825  0.1100
14696TIP3    H265580   0.233   0.931   2.997 -0.2617  1.3062  0.2506
14697TIP3   OH265581   0.900   4.800  12.966 -0.8957 -0.4026  0.0199
14697TIP3    H165582   0.886   4.705  12.966 -1.5339 -0.3455 -1.6428
14697TIP3    H265583   0.830   4.834  12.911 -0.8461  1.0773  0.8459
14698TIP3   OH265584   3.248   5.238  16.415 -0.3672 -0.2650 -0.0152
14698TIP3    H165585   3.167   5.191  16.393  0.8804 -2.1329 -0.9353
14698TIP3    H265586   3.311   5.168  16.432  0.6458  1.1345  2.4485
14699TIP3   OH265587   1.608   0.463  16.175 -0.2501 -0.1029  0.5584
14699TIP3    H165588   1.643   0.405  16.108 -1.1309  0.0940 -0.0985
14699TIP3    H265589   1.673   0.461  16.246  0.8688 -0.0492 -0.4348
14700TIP3   OH265590   2.821   0.933   3.292 -0.3298 -1.2963 -0.0056
14700TIP3    H165591   2.824   0.980   3.208 -2.2007 -2.6979 -0.9416
14700TIP3    H265592   2.772   0.991   3.350  1.3207 -0.1371  0.2846
14701TIP3   OH265593   0.178   5.512  11.027 -0.5033 -0.0440  0.5515
14701TIP3    H165594   0.108   5.509  10.962  0.8633 -0.5558 -0.9621
14701TIP3    H265595   0.259   5.511  10.976  0.6496  1.4838  2.1979
14702TIP3   OH265596   4.618   0.761   2.431 -0.5119  0.1878 -0.2033
14702TIP3    H165597   4.533   0.774   2.474 -0.5750 -0.1992 -0.2050
14702TIP3    H265598   4.674   0.725   2.499 -0.1399  1.1127 -0.0101
14703TIP3   OH265599   5.307   4.773   0.749  0.1592  0.2268 -0.3292
14703TIP3    H165600   5.325   4.863   0.778  0.6630  1.1057 -3.0096
14703TIP3    H265601   5.285   4.782   0.656  0.0077 -2.4276 -0.6328
14704TIP3   OH265602   0.754   5.817   4.428  0.5472 -0.2859 -0.3850
14704TIP3    H165603   0.762   5.847   4.518 -0.2672 -1.6901  0.1791
14704TIP3    H265604   0.702   5.885   4.385 -1.5572 -0.9743  0.9448
14705TIP3   OH265605   3.323   1.460   2.516 -0.0388 -0.3254  0.5222
14705TIP3    H165606   3.402   1.468   2.461 -1.7009 -1.9908 -2.3828
14705TIP3    H265607   3.312   1.366   2.528 -2.1634 -0.2194 -0.1837
14706TIP3   OH265608   2.025   1.898   0.657 -0.2228  0.0168 -0.0686
14706TIP3    H165609   2.068   1.849   0.727  0.1423  0.2912 -0.0962
14706TIP3    H265610   1.997   1.831   0.595 -0.1204 -0.1922  0.1086
14707TIP3   OH265611   1.087   6.737  11.908  0.8216 -0.7967 -0.0937
14707TIP3    H165612   1.133   6.781  11.980 -0.6460  0.4496  0.1444
14707TIP3    H265613   1.025   6.803  11.876 -0.7718 -2.3621 -0.3919
14708TIP3   OH265614   2.043   5.634  13.850  0.6664 -0.2804 -0.2403
14708TIP3    H165615   2.026   5.693  13.777 -2.2550  1.5472  1.6795
14708TIP3    H265616   1.971   5.571  13.846  1.9759 -1.8151 -0.4135
14709TIP3   OH265617   2.432   1.239  13.759  0.0169 -0.0616  0.1294
14709TIP3    H165618   2.428   1.290  13.678 -1.4122 -0.3499 -0.0015
14709TIP3    H265619   2.500   1.282  13.811  0.3374  0.6579 -0.8560
14710TIP3   OH265620   1.272   0.736  15.523  0.7477 -0.0520 -0.0446
14710TIP3    H165621   1.186   0.723  15.561  1.0657  0.8988  1.0374
14710TIP3    H265622   1.258   0.798  15.451  0.3564 -0.8521 -0.6771
14711TIP3   OH265623   2.397   1.284  15.223 -0.4474 -0.3983 -0.5997
14711TIP3    H165624   2.472   1.242  15.181  0.1109  0.8543 -0.8941
14711TIP3    H265625   2.321   1.238  15.189  0.2137 -3.1492  1.2986
14712TIP3   OH265626   4.430   1.198   0.053 -0.5216  0.4645 -0.0945
14712TIP3    H165627   4.431   1.103   0.040  1.8702  0.3358  0.5349
14712TIP3    H265628   4.450   1.210   0.145 -1.6912  1.5946  0.0303
14713TIP3   OH265629   3.184   4.882   4.394  0.0970 -0.0812 -0.1651
14713TIP3    H165630   3.226   4.965   4.372  0.7653 -0.3937 -0.0624
14713TIP3    H265631   3.092   4.906   4.409 -0.3283  0.2308 -2.8293
14714TIP3   OH265632   4.599   0.665  15.676  0.2665 -0.6307 -0.0953
14714TIP3    H165633   4.527   0.615  15.639  0.1278  0.0358 -0.7499
14714TIP3    H265634   4.558   0.719  15.744 -0.1606  0.8259 -1.4307
14715TIP3   OH265635   1.532   2.581   0.265  0.6805  0.2748  0.1031
14715TIP3    H165636   1.456   2.530   0.291  1.8063 -1.8693 -0.6018
14715TIP3    H265637   1.600   2.558   0.328  0.8283  2.0492  0.6405
14716TIP3   OH265638   1.479   2.857   3.847 -0.3041 -0.2931 -0.0514
14716TIP3    H165639   1.514   2.798   3.781 -1.6174 -1.1550 -0.0247
14716TIP3    H265640   1.396   2.817   3.873  0.7335 -0.6455  3.0380
14717TIP3   OH265641   1.907   6.060   2.292 -0.0872  0.3047  0.0490
14717TIP3    H165642   1.860   6.072   2.375  0.2317 -1.2314  0.4853
14717TIP3    H265643   1.845   6.013   2.236  1.1354 -2.5971  0.9513
14718TIP3   OH265644   2.718   6.268   0.161  0.1994  0.3959  0.8599
14718TIP3    H165645   2.726   6.364   0.159  0.5066  0.4353  2.6048
14718TIP3    H265646   2.804   6.237   0.188  0.6397 -0.5252 -1.3650
14719TIP3   OH265647   4.439   2.334   0.583 -0.4561  0.4700  1.1182
14719TIP3    H165648   4.427   2.414   0.634 -0.5693  0.0303  1.7825
14719TIP3    H265649   4.367   2.335   0.520  1.3338  2.5655 -1.1566
14720TIP3   OH265650   0.123   4.761  16.900  0.2926 -0.2924 -0.6669
14720TIP3    H165651   0.196   4.815  16.931 -0.9651 -0.0430  2.1107
14720TIP3    H265652   0.067   4.822  16.853  1.2423 -0.2567 -1.8140
14721TIP3   OH265653   5.361   5.280   3.564 -0.5505 -0.1545  0.0501
14721TIP3    H165654   5.428   5.302   3.628 -0.2449 -0.5675 -0.1219
14721TIP3    H265655   5.308   5.213   3.608 -0.9084  0.2339  0.2195
14722TIP3   OH265656   3.699   0.505  13.522 -0.2907  0.8871 -0.4549
14722TIP3    H165657   3.724   0.572  13.459 -0.6062  1.7013  0.2632
14722TIP3    H265658   3.663   0.554  13.596  0.2357 -0.0338  0.4343
14723TIP3   OH265659   6.479   2.844  13.206 -0.0072  0.1476  0.7277
14723TIP3    H165660   6.564   2.886  13.195  0.3625 -0.7279  0.1032
14723TIP3    H265661   6.432   2.900  13.267  1.1825  0.4091  1.4285
14724TIP3   OH265662   0.105   0.513   2.841 -0.1340  0.0732  0.0492
14724TIP3    H165663   0.121   0.558   2.924 -1.0066  2.5728 -1.0316
14724TIP3    H265664   0.167   0.553   2.780  1.0800 -2.3144 -0.3968
14725TIP3   OH265665   4.742   0.367   6.022  0.0361 -0.2769  0.5803
14725TIP3    H165666   4.669   0.428   6.024  1.5432  1.5880  1.4628
14725TIP3    H265667   4.813   0.415   5.980  1.0631 -1.7090  0.5941
14726TIP3   OH265668   1.483   6.398  13.099  0.2669  0.4395  0.3072
14726TIP3    H165669   1.509   6.334  13.033 -2.3231 -0.0971 -0.2881
14726TIP3    H265670   1.448   6.472  13.049  2.7361  2.2004  0.9998
14727TIP3   OH265671   1.707   0.398   0.651 -0.4235  0.4172 -0.5515
14727TIP3    H165672   1.690   0.486   0.618  1.4401  1.5272  1.1860
14727TIP3    H265673   1.702   0.408   0.747 -1.0068 -1.5751 -0.3390
14728TIP3   OH265674   1.663   5.288   1.361 -0.4209 -0.0255 -0.3946
14728TIP3    H165675   1.613   5.212   1.331 -1.5188 -0.1052  1.4389
14728TIP3    H265676   1.622   5.362   1.317 -0.5633 -0.3365 -0.7886
14729TIP3   OH265677   5.800   5.592   3.939  0.1563  0.0564  0.5190
14729TIP3    H165678   5.746   5.513   3.932  0.6172 -0.3632  1.5093
14729TIP3    H265679   5.879   5.563   3.985  0.3341  1.0926  0.8851
14730TIP3   OH265680   2.917   5.457  16.111 -0.3045 -0.5000 -0.4992
14730TIP3    H165681   2.874   5.462  16.026 -0.6404  1.2523 -0.2713
14730TIP3    H265682   2.970   5.537  16.116 -0.9670 -0.1211  1.2726
14731TIP3   OH265683   5.980   5.552  11.523 -0.3267  0.1089  0.7527
14731TIP3    H165684   6.007   5.619  11.460  1.4868 -2.0829 -1.0173
14731TIP3    H265685   5.889   5.532  11.501 -0.2776  0.6667  0.0217
14732TIP3   OH265686   6.342   4.114   4.007  0.6830 -0.2443  0.4255
14732TIP3    H165687   6.260   4.163   4.012  1.9391  2.1079 -0.4679
14732TIP3    H265688   6.349   4.070   4.092 -1.2840 -0.1919  0.6624
14733TIP3   OH265689   5.653   1.913  10.944 -0.3051 -0.2846 -0.1109
14733TIP3    H165690   5.626   1.978  11.009 -1.0247  0.9948 -1.6041
14733TIP3    H265691   5.658   1.962  10.862 -1.4873 -2.2324 -1.4360
14734TIP3   OH265692   3.966   0.464   0.804 -0.2458 -1.0317 -0.1750
14734TIP3    H165693   3.942   0.383   0.758  1.8618 -2.3340  0.8539
14734TIP3    H265694   3.914   0.532   0.761 -0.8505 -2.6677 -2.2196
14735TIP3   OH265695   4.282   4.239  16.110 -0.1674 -0.2669  0.0180
14735TIP3    H165696   4.270   4.215  16.018 -2.3823  2.2297 -0.5080
14735TIP3    H265697   4.328   4.323  16.107  0.2461 -0.4334  1.2220
14736TIP3   OH265698   2.975   0.847  14.442  0.5545 -0.0240 -0.2486
14736TIP3    H165699   3.063   0.812  14.458  1.1232  1.4572  0.0238
14736TIP3    H265700   2.982   0.890  14.357  0.3408  0.8344  0.1578
14737TIP3   OH265701   6.083   5.600  13.650 -0.6678  0.2277  0.3977
14737TIP3    H165702   6.130   5.562  13.725 -0.4032 -0.3064 -0.0326
14737TIP3    H265703   6.019   5.659  13.690 -1.0132 -0.5830  1.0869
14738TIP3   OH265704   1.845   2.098  11.178  0.1899 -0.3419 -0.1603
14738TIP3    H165705   1.932   2.139  11.174 -0.5080  1.4294  1.3245
14738TIP3    H265706   1.799   2.131  11.101 -0.1765  1.3815  0.7244
14739TIP3   OH265707   2.413   2.893   2.405  0.0628 -0.8747 -0.3648
14739TIP3    H165708   2.496   2.930   2.375  0.8393 -2.9024 -0.8451
14739TIP3    H265709   2.363   2.879   2.325  0.0310 -1.4382 -0.2456
14740TIP3   OH265710   2.513   5.330   3.199  0.3790  0.0408  0.6143
14740TIP3    H165711   2.487   5.421   3.208 -0.4337 -0.2289  1.1308
14740TIP3    H265712   2.540   5.304   3.287  1.8155  0.1308  0.2109
14741TIP3   OH265713   1.144   4.826  16.355  0.4144  0.1836 -0.2520
14741TIP3    H165714   1.236   4.800  16.346  0.3794  0.6677 -2.3789
14741TIP3    H265715   1.145   4.890  16.427  1.4119 -1.1673  1.0075
14742TIP3   OH265716   5.850   6.719   2.811  0.3198  0.3708  0.3166
14742TIP3    H165717   5.900   6.656   2.863 -1.9227 -0.3893  1.6408
14742TIP3    H265718   5.762   6.683   2.805  0.3442  0.4220 -4.0763
14743TIP3   OH265719   4.458   6.705  12.713 -0.0537  1.1628  0.1378
14743TIP3    H165720   4.448   6.800  12.708 -1.3810  1.0505  0.4452
14743TIP3    H265721   4.475   6.678  12.622 -3.3543  1.3405 -0.6540
14744TIP3   OH265722   2.669   3.909   0.905 -0.0428 -0.6058 -0.2264
14744TIP3    H165723   2.674   3.877   0.995 -3.4258 -0.4631  0.1532
14744TIP3    H265724   2.655   4.003   0.913  0.3259 -0.4816 -0.9302
14745TIP3   OH265725   1.297   5.646  14.990 -0.8081  0.6198 -0.2703
14745TIP3    H165726   1.296   5.564  14.941  0.5420 -0.6138  1.5999
14745TIP3    H265727   1.390   5.667  14.998 -1.0930  1.7560  0.2113
14746TIP3   OH265728   0.257   3.711   6.325 -0.1740 -0.2442 -0.1014
14746TIP3    H165729   0.185   3.652   6.301 -2.5403  2.5650 -0.5086
14746TIP3    H265730   0.217   3.775   6.385  2.5759  0.2059  1.4400
14747TIP3   OH265731   5.548   1.562  16.660 -0.2492  0.6818 -0.3988
14747TIP3    H165732   5.505   1.508  16.727 -0.3797  0.4069 -0.7014
14747TIP3    H265733   5.562   1.502  16.587  3.1770 -0.0268  0.6691
14748TIP3   OH265734   6.283   2.448   5.764 -0.3174 -0.3998  0.1035
14748TIP3    H165735   6.376   2.456   5.784 -0.4766 -0.7118  0.9925
14748TIP3    H265736   6.280   2.432   5.669  0.5567 -0.8373  0.1436
14749TIP3   OH265737   2.605   1.687  12.368 -0.0660  0.8322 -0.1695
14749TIP3    H165738   2.694   1.653  12.378 -0.2870 -0.1314 -1.2754
14749TIP3    H265739   2.591   1.689  12.273 -1.3769  0.5278  0.0091
14750TIP3   OH265740   3.166   4.315  17.070  0.1704  0.0544  0.1918
14750TIP3    H165741   3.236   4.270  17.023  0.5252  0.2894  0.4897
14750TIP3    H265742   3.114   4.244  17.109  1.7459 -0.1345  2.1656
14751TIP3   OH265743   4.027   1.774   3.255  0.3098  0.4445 -0.0100
14751TIP3    H165744   4.003   1.813   3.339 -2.3321 -0.1854 -0.3820
14751TIP3    H265745   4.003   1.840   3.190  3.4067  1.4244 -0.3534
14752TIP3   OH265746   5.500   5.861  14.685 -0.3794  0.2047 -0.3298
14752TIP3    H165747   5.546   5.858  14.601  0.8348  1.1859  0.2606
14752TIP3    H265748   5.511   5.951  14.714  0.6908 -0.5089  1.6558
14753TIP3   OH265749   5.387   0.038  15.748  1.0915 -0.0728 -0.2185
14753TIP3    H165750   5.360   0.052  15.657  1.7202 -1.4138 -0.6353
14753TIP3    H265751   5.482   0.053  15.747  0.9381  1.0817  0.4824
14754TIP3   OH265752   0.127   1.075  12.374 -0.3105 -0.7163 -0.2179
14754TIP3    H165753   0.205   1.027  12.403 -0.9182 -1.4372  0.2301
14754TIP3    H265754   0.154   1.167  12.376  0.6626 -0.9763 -0.4746
14755TIP3   OH265755   2.052   4.900   5.485 -0.0018  0.2867  0.1406
14755TIP3    H165756   2.012   4.951   5.414 -0.1154 -0.3703 -0.2813
14755TIP3    H265757   2.091   4.965   5.543 -1.4748  0.9438  0.4428
14756TIP3   OH265758   1.555   2.503  17.265  0.1271  0.1734  0.6691
14756TIP3    H165759   1.467   2.529  17.293  0.2144  0.9654  0.2146
14756TIP3    H265760   1.543   2.471  17.175  0.3091  0.3108  0.5966
14757TIP3   OH265761   2.794   5.181   5.314 -0.2598 -0.3897  0.1456
14757TIP3    H165762   2.846   5.167   5.236  0.5799  0.0199  0.6148
14757TIP3    H265763   2.756   5.095   5.334 -0.8026 -0.4037 -0.9237
14758TIP3   OH265764   0.073   0.569  14.687 -0.3207  0.1152  0.3154
14758TIP3    H165765   0.050   0.497  14.628  0.3876  1.2435 -1.4448
14758TIP3    H265766   0.147   0.612  14.644  0.3615  0.8809  2.1774
14759TIP3   OH265767   1.593   5.925   1.154 -0.2602  0.0751  0.0886
14759TIP3    H165768   1.609   6.013   1.118 -0.2569  0.1707  0.3222
14759TIP3    H265769   1.679   5.898   1.188  0.1177 -0.6746 -1.4035
14760TIP3   OH265770   1.558   0.923  13.844 -0.7119 -0.3108  0.2713
14760TIP3    H165771   1.642   0.882  13.821  0.2259  1.3332  0.5766
14760TIP3    H265772   1.516   0.941  13.760  1.2904  2.8176 -0.2420
14761TIP3   OH265773   2.385   4.346   1.581 -0.3042  0.2780  0.0331
14761TIP3    H165774   2.409   4.408   1.512 -0.4353  3.4696  2.5973
14761TIP3    H265775   2.298   4.315   1.557 -1.5112  3.3730 -0.0809
14762TIP3   OH265776   6.599   4.391  15.343  0.1945  0.1246  0.0208
14762TIP3    H165777   6.586   4.339  15.422  0.0591 -1.1987 -0.8489
14762TIP3    H265778   6.685   4.365  15.310  0.8942  1.7241  0.4761
14763TIP3   OH265779   6.765   2.671   3.119  0.1260 -0.1184 -0.3774
14763TIP3    H165780   6.678   2.661   3.158  0.8079 -0.9998  0.9619
14763TIP3    H265781   6.747   2.696   3.028 -1.5478 -1.1810 -0.3800
14764TIP3   OH265782   4.743   4.451   2.495 -0.0342 -0.0653 -0.2299
14764TIP3    H165783   4.800   4.447   2.418 -1.3117 -1.3858 -1.1589
14764TIP3    H265784   4.687   4.527   2.480 -0.1495 -0.2064 -0.5300
14765TIP3   OH265785   4.424   1.514  15.064 -0.0500 -0.0825  0.1112
14765TIP3    H165786   4.400   1.551  14.979  0.0551 -2.4773 -1.0184
14765TIP3    H265787   4.343   1.518  15.115 -0.3868  0.4336 -0.4525
14766TIP3   OH265788   2.853   3.791   1.565 -0.1379  0.5191  0.0930
14766TIP3    H165789   2.790   3.738   1.614 -0.6397  0.0273 -1.0296
14766TIP3    H265790   2.889   3.730   1.500  0.4091  1.1716 -0.2290
14767TIP3   OH265791   1.172   1.976  15.445 -0.0894 -0.3286 -0.2249
14767TIP3    H165792   1.126   1.894  15.460 -1.5828  0.6837  1.0962
14767TIP3    H265793   1.248   1.952  15.391 -0.6144 -2.4990 -0.0852
14768TIP3   OH265794   3.869   0.373  14.928 -0.2227 -0.0061 -0.1178
14768TIP3    H165795   3.789   0.423  14.947  0.7350  1.0986  1.1944
14768TIP3    H265796   3.851   0.332  14.843 -2.0908  0.3931  0.0222
14769TIP3   OH265797   2.920   5.804   3.388  0.5247 -0.4149 -0.2342
14769TIP3    H165798   2.847   5.822   3.447 -0.5697 -0.9728 -1.3495
14769TIP3    H265799   2.887   5.734   3.330  1.4173  0.2976 -1.6727
14770TIP3   OH265800   0.054   6.739   2.432 -0.6707  0.5108  0.6341
14770TIP3    H165801   0.108   6.759   2.509  0.2836  0.2618  0.0502
14770TIP3    H265802   0.114   6.746   2.358 -1.0146 -1.4121  0.1104
14771TIP3   OH265803   2.721   0.596   0.532 -0.1667  0.2752  0.1168
14771TIP3    H165804   2.740   0.509   0.565  0.1251  0.2588 -0.0936
14771TIP3    H265805   2.723   0.587   0.436 -1.6586  0.1745  0.0714
14772TIP3   OH265806   2.169   5.928  12.014 -0.6555  0.0433 -0.6557
14772TIP3    H165807   2.171   5.885  12.100 -0.5767 -0.4920 -0.9268
14772TIP3    H265808   2.259   5.926  11.984 -0.8593 -0.7542 -1.2403
14773TIP3   OH265809   4.554   1.458  11.815  0.0460 -0.3772  0.0722
14773TIP3    H165810   4.630   1.491  11.767  1.5115 -0.3378  2.2806
14773TIP3    H265811   4.516   1.393  11.757 -0.9284  2.6059 -2.9869
14774TIP3   OH265812   1.292   3.018   4.082 -0.0628 -0.1483 -0.3500
14774TIP3    H165813   1.292   2.925   4.107  1.7650  0.0428  0.5562
14774TIP3    H265814   1.345   3.021   4.002  0.3024  0.1484 -0.1046
14775TIP3   OH265815   3.471   6.503   2.632 -0.1228 -0.0936  0.0522
14775TIP3    H165816   3.506   6.426   2.588  0.8078 -0.6904  1.7661
14775TIP3    H265817   3.376   6.496   2.622  0.0505 -0.0539 -2.0417
14776TIP3   OH265818   2.121   4.101  11.357 -0.1862 -0.0439 -0.2975
14776TIP3    H165819   2.142   4.063  11.442 -0.0482 -1.6124 -0.9842
14776TIP3    H265820   2.181   4.174  11.347 -1.2131  1.1188  1.5638
14777TIP3   OH265821   0.141   6.337  12.093  0.5358  0.4574 -0.2820
14777TIP3    H165822   0.171   6.392  12.165  1.9387  1.3976 -1.5386
14777TIP3    H265823   0.162   6.247  12.120 -0.7677  0.5705  1.2970
14778TIP3   OH265824   0.242   2.103  11.125  0.9679 -0.3159  0.2393
14778TIP3    H165825   0.188   2.068  11.195 -1.1962  1.4742 -0.4069
14778TIP3    H265826   0.249   2.031  11.062 -0.4862 -0.6801  0.4559
14779TIP3   OH265827   3.569   1.314   5.031 -0.0139 -0.2368 -0.5004
14779TIP3    H165828   3.637   1.336   4.967  1.6899  0.4261  1.4436
14779TIP3    H265829   3.549   1.397   5.074  0.6565 -1.0240  1.4354
14780TIP3   OH265830   0.924   3.437  16.045 -0.1913 -0.0161  0.0184
14780TIP3    H165831   0.914   3.391  15.961 -1.3542 -0.5414  0.4250
14780TIP3    H265832   0.938   3.368  16.109  0.6355  0.3838  0.2864
14781TIP3   OH265833   5.430   3.461  13.757 -0.3758  0.1403  0.0690
14781TIP3    H165834   5.394   3.543  13.724 -0.7138 -0.6874 -1.7581
14781TIP3    H265835   5.364   3.395  13.736  0.8830 -0.9570 -0.6549
14782TIP3   OH265836   1.934   2.566   1.230  0.2150 -0.3276 -0.4403
14782TIP3    H165837   2.012   2.568   1.175 -0.4731  2.1090 -1.4588
14782TIP3    H265838   1.867   2.524   1.176  0.2348 -0.3703 -0.4316
14783TIP3   OH265839   3.986   3.114   4.130 -0.0266 -0.1259  0.3247
14783TIP3    H165840   4.008   3.179   4.064 -0.5940 -0.4051 -0.1426
14783TIP3    H265841   3.983   3.031   4.083 -1.0782 -0.2332  0.5642
14784TIP3   OH265842   1.772   3.444   5.860 -0.0510  0.4380  0.0737
14784TIP3    H165843   1.810   3.378   5.918  0.2704 -1.1817 -1.8842
14784TIP3    H265844   1.796   3.528   5.901  1.2344 -0.5924  1.5827
14785TIP3   OH265845   3.888   2.463   3.456  0.3063 -0.4003  0.6345
14785TIP3    H165846   3.963   2.518   3.479 -0.7825  1.2598  0.3800
14785TIP3    H265847   3.856   2.499   3.374 -1.3372 -0.4699  1.2154
14786TIP3   OH265848   0.439   1.371   2.716 -0.2439 -0.1442  0.3080
14786TIP3    H165849   0.521   1.419   2.726  0.2992 -1.2139  1.3079
14786TIP3    H265850   0.449   1.295   2.774 -1.8908 -0.3640  0.3480
14787TIP3   OH265851   2.264   5.491   4.354 -0.0052 -0.1833 -0.0071
14787TIP3    H165852   2.215   5.501   4.272  0.9657 -0.3465 -0.6208
14787TIP3    H265853   2.318   5.414   4.340 -0.4888 -0.7633  1.1470
14788TIP3   OH265854   4.012   6.040   5.500 -0.2359  0.0022  0.0998
14788TIP3    H165855   4.020   6.106   5.431  0.6000 -0.2833 -0.0923
14788TIP3    H265856   3.945   6.074   5.559 -0.7443  0.3915 -0.6943
14789TIP3   OH265857   0.309   5.870  14.457 -0.5691 -0.5233  0.3218
14789TIP3    H165858   0.376   5.933  14.430 -1.4295  1.1336  1.8523
14789TIP3    H265859   0.249   5.866  14.382 -0.0976 -0.1062 -0.0878
14790TIP3   OH265860   4.386   1.313   5.143  0.6010  0.2161  0.2204
14790TIP3    H165861   4.435   1.387   5.107  0.9191 -0.8320 -1.6173
14790TIP3    H265862   4.294   1.335   5.128  0.6613  0.5538  0.3413
14791TIP3   OH265863   0.395   3.312  15.745  0.1883  0.2253 -0.7713
14791TIP3    H165864   0.451   3.366  15.690  0.0821  0.7146 -0.3998
14791TIP3    H265865   0.311   3.359  15.748  0.5206  0.7728  0.6976
14792TIP3   OH265866   5.933   5.937  12.431  0.3427  0.3585  0.0073
14792TIP3    H165867   5.871   5.865  12.442  1.9708 -1.1533 -0.1966
14792TIP3    H265868   5.912   5.974  12.346 -0.2930 -0.1286 -0.0576
14793TIP3   OH265869   3.602   4.652   5.043 -0.0299  0.4363 -0.1741
14793TIP3    H165870   3.617   4.645   5.138 -1.3367 -0.0407  0.0123
14793TIP3    H265871   3.557   4.571   5.020 -2.0136  1.6495 -0.7350
14794TIP3   OH265872   0.741   6.727   3.303 -0.3460 -0.2203 -0.2406
14794TIP3    H165873   0.809   6.794   3.296 -0.8890  0.3541 -0.1448
14794TIP3    H265874   0.665   6.765   3.258 -0.7768 -0.6204  0.1348
14795TIP3   OH265875   4.895   2.722  14.241  0.4867  0.0587  0.3757
14795TIP3    H165876   4.836   2.797  14.249  1.0618  0.4711  0.8469
14795TIP3    H265877   4.911   2.694  14.331  0.9970 -0.0585  0.2524
14796TIP3   OH265878   1.694   5.881  13.115 -0.1405  0.5027  0.4669
14796TIP3    H165879   1.723   5.791  13.101 -0.9231  0.0595  1.5838
14796TIP3    H265880   1.763   5.935  13.076  0.1121 -0.5754 -0.6298
14797TIP3   OH265881   0.090   5.110   4.487 -0.3093  0.1705  0.3603
14797TIP3    H165882   0.177   5.124   4.450 -0.1755 -0.7247  0.3345
14797TIP3    H265883   0.086   5.016   4.505 -1.9793 -0.1501 -1.4201
14798TIP3   OH265884   3.187   6.222   2.168  0.5950 -0.3589  0.5983
14798TIP3    H165885   3.134   6.194   2.093  1.1497  1.3555 -0.4920
14798TIP3    H265886   3.128   6.275   2.221  0.1149 -1.8232  1.5898
14799TIP3   OH265887   6.498   4.949   2.599 -0.3294 -0.8017  0.2354
14799TIP3    H165888   6.452   4.998   2.531 -1.4084 -1.0203  0.7825
14799TIP3    H265889   6.536   4.874   2.553 -2.1947 -1.6929  0.0473
14800TIP3   OH265890   2.118   4.328   4.157  0.7690  0.0801  0.2928
14800TIP3    H165891   2.066   4.403   4.129  1.8065  0.7588  0.1218
14800TIP3    H265892   2.107   4.326   4.252  0.5918  0.3432  0.2791
14801TIP3   OH265893   2.592   6.275   2.585 -0.2800 -0.0616 -0.1682
14801TIP3    H165894   2.617   6.332   2.658 -1.1374  0.4927 -0.2894
14801TIP3    H265895   2.502   6.301   2.564 -0.2305 -0.5759 -1.0777
14802TIP3   OH265896   3.494   5.510  15.987 -0.9311 -0.8905 -0.3183
14802TIP3    H165897   3.581   5.514  16.026 -1.1506 -2.7950  0.4788
14802TIP3    H265898   3.434   5.519  16.062 -1.4404  0.3553 -0.8529
14803TIP3   OH265899   5.184   2.098  15.377 -0.0242 -0.5993  0.5214
14803TIP3    H165900   5.122   2.151  15.326 -0.6567 -1.0191  0.8408
14803TIP3    H265901   5.226   2.042  15.312 -0.0759 -0.4104  0.3210
14804TIP3   OH265902   1.480   0.009   2.768 -0.6053  0.3235  0.3861
14804TIP3    H165903   1.398   0.057   2.772 -0.8501 -0.0744  0.2463
14804TIP3    H265904   1.514   0.012   2.858 -1.5273 -0.7786  0.7965
14805TIP3   OH265905   0.764   5.433   1.050 -0.6624  0.1467 -0.0455
14805TIP3    H165906   0.849   5.479   1.048 -1.4544  1.6709 -0.0485
14805TIP3    H265907   0.778   5.354   0.998  0.7094  0.4501 -0.1712
14806TIP3   OH265908   1.780   3.579   1.648  0.1547 -0.3936 -0.1585
14806TIP3    H165909   1.795   3.673   1.657  1.2965 -0.6314  0.7892
14806TIP3    H265910   1.687   3.571   1.630  0.1667  0.9520 -0.9945
14807TIP3   OH265911   2.039   2.521   3.687 -0.2875 -0.0536 -0.4919
14807TIP3    H165912   2.010   2.532   3.778  0.4437  0.3160 -0.2947
14807TIP3    H265913   2.132   2.500   3.695 -0.5637 -1.6118 -1.0891
14808TIP3   OH265914   2.274   0.040   3.405 -0.4572  0.3371 -0.2821
14808TIP3    H165915   2.367   0.019   3.400 -0.9651 -2.1021 -0.6122
14808TIP3    H265916   2.229  -0.039   3.375 -2.6840  0.7855  1.5655
14809TIP3   OH265917   1.636   6.593   0.549  0.3068 -0.5519  0.3537
14809TIP3    H165918   1.551   6.629   0.525 -0.1078 -0.6428  1.6245
14809TIP3    H265919   1.674   6.565   0.466  0.4088  2.2427 -0.6629
14810TIP3   OH265920   4.797   1.700  12.372  0.7304  0.2407 -0.7085
14810TIP3    H165921   4.781   1.703  12.466 -1.5762 -1.2617 -0.9812
14810TIP3    H265922   4.814   1.791  12.348  0.6202  0.7582  1.0327
14811TIP3   OH265923   4.648   1.795  11.920  0.6350 -0.0207  0.1896
14811TIP3    H165924   4.565   1.749  11.927 -0.6779  1.9502 -1.1558
14811TIP3    H265925   4.683   1.769  11.835  0.6913  0.2047  0.1430
14812TIP3   OH265926   4.449   1.448  13.649 -0.4305  0.2581 -0.0101
14812TIP3    H165927   4.454   1.414  13.738 -2.3432 -0.4646 -0.1298
14812TIP3    H265928   4.380   1.514  13.652  0.6058  1.4052 -0.6297
14813TIP3   OH265929   5.905   0.695  14.955 -0.1207 -0.3843 -0.6247
14813TIP3    H165930   5.887   0.738  15.038  0.2287 -1.0742 -0.1841
14813TIP3    H265931   5.856   0.614  14.959 -0.2206 -0.3539 -1.1582
14814TIP3   OH265932   5.864   5.377  15.448  0.3505  0.4278 -0.3616
14814TIP3    H165933   5.856   5.434  15.525  0.2380  0.9041 -0.7185
14814TIP3    H265934   5.817   5.424  15.379  2.9391  1.5069 -1.5557
14815TIP3   OH265935   1.542   1.598   5.067 -0.1961  0.0885 -0.6786
14815TIP3    H165936   1.493   1.575   4.988 -0.4853 -0.6527 -0.2985
14815TIP3    H265937   1.477   1.637   5.125 -0.5975 -1.7386  0.1905
14816TIP3   OH265938   0.199   6.555   5.096  0.2810  0.6651  0.5241
14816TIP3    H165939   0.136   6.516   5.157  0.4217  2.3467  1.7910
14816TIP3    H265940   0.164   6.642   5.078  0.4539  0.3534 -1.5408
14817TIP3   OH265941   3.616   0.913   3.464  0.1072  0.8934  0.6107
14817TIP3    H165942   3.634   0.819   3.464 -0.3613  0.7844 -0.5896
14817TIP3    H265943   3.578   0.930   3.551  0.4059  0.0232  0.9269
14818TIP3   OH265944   5.615   1.527  13.501 -0.4176  0.1724 -0.0062
14818TIP3    H165945   5.560   1.535  13.579 -1.2953 -0.6201 -0.5152
14818TIP3    H265946   5.558   1.556  13.429  0.4493  1.1014 -0.3356
14819TIP3   OH265947   4.941   2.421   5.427 -0.5135 -0.6879  0.2460
14819TIP3    H165948   4.892   2.486   5.376  0.8529  0.3562  0.2110
14819TIP3    H265949   4.970   2.357   5.362 -0.8415 -0.6730  0.0853
14820TIP3   OH265950   6.696   4.556  16.328  0.1034 -0.1876  0.6461
14820TIP3    H165951   6.773   4.565  16.270  0.1095 -0.7073  0.5666
14820TIP3    H265952   6.672   4.646  16.350  0.0949  0.0235 -0.1810
14821TIP3   OH265953   0.765   0.059  12.244  0.1536  0.1989  0.3569
14821TIP3    H165954   0.831   0.116  12.204  0.0492  0.2596  0.2721
14821TIP3    H265955   0.684   0.078  12.197 -0.0062  0.3846  0.7009
14822TIP3   OH265956   1.624   2.129  15.465 -0.0448 -0.3871  0.0659
14822TIP3    H165957   1.569   2.203  15.491  1.6042  0.9442 -0.0810
14822TIP3    H265958   1.649   2.088  15.548 -2.2888 -1.8702  0.1006
14823TIP3   OH265959   1.140   4.537   5.775  0.2888 -0.1775 -0.3065
14823TIP3    H165960   1.185   4.464   5.818 -0.6331  0.0322  1.0684
14823TIP3    H265961   1.052   4.504   5.759  0.3763  0.0508 -1.2754
14824TIP3   OH265962   6.691   2.405  12.253  0.1267 -0.2749  0.1380
14824TIP3    H165963   6.603   2.368  12.259  0.5723 -1.8037 -1.8250
14824TIP3    H265964   6.680   2.487  12.205 -0.1037 -1.1440 -1.3500
14825TIP3   OH265965   4.069   0.104  16.348 -0.0497  0.6873 -1.0347
14825TIP3    H165966   4.143   0.064  16.393 -2.6848 -1.5426  1.7931
14825TIP3    H265967   4.062   0.056  16.266  1.5177  0.9014 -1.3256
14826TIP3   OH265968   6.463   3.554  17.135  0.7259 -0.3941  0.6937
14826TIP3    H165969   6.394   3.581  17.074 -1.1164 -1.8467  2.0098
14826TIP3    H265970   6.515   3.633  17.149  0.0326  0.4713 -1.2017
14827TIP3   OH265971   4.604   1.697  16.820  0.2424 -0.9551  0.4191
14827TIP3    H165972   4.576   1.633  16.754  0.7189 -0.7646  0.0232
14827TIP3    H265973   4.652   1.645  16.885 -0.6068 -1.2091  0.8480
14828TIP3   OH265974   5.111   5.968   5.091  0.3953 -0.5301 -0.4248
14828TIP3    H165975   5.074   6.049   5.058 -1.6769 -2.3061 -2.7956
14828TIP3    H265976   5.066   5.953   5.174  1.5477  1.1474  0.5746
14829TIP3   OH265977   5.658   5.283   4.604 -0.2638  0.3746 -0.3150
14829TIP3    H165978   5.566   5.289   4.631 -1.0217  0.1552 -2.5662
14829TIP3    H265979   5.667   5.350   4.536  0.9335 -0.3555 -0.9047
14830TIP3   OH265980   2.489   5.814  16.894  0.4188  0.1842  0.1931
14830TIP3    H165981   2.580   5.839  16.909  0.3994  1.0781 -1.0390
14830TIP3    H265982   2.455   5.882  16.836 -0.6790 -0.8275 -0.3757
14831TIP3   OH265983   1.413   4.024  13.715 -0.5159  0.4357  0.2246
14831TIP3    H165984   1.370   4.079  13.780 -2.6526  0.2397 -0.9320
14831TIP3    H265985   1.487   4.076  13.684 -0.6689  1.3529  1.3667
14832TIP3   OH265986   2.990   4.523  16.163  0.7632  0.6079 -0.1972
14832TIP3    H165987   3.049   4.551  16.232 -0.8298  0.3698  1.3289
14832TIP3    H265988   2.927   4.465  16.207 -0.9519  1.3040 -1.6057
14833TIP3   OH265989   1.741   5.252   5.068 -0.1363  0.5879 -0.3866
14833TIP3    H165990   1.713   5.258   4.977  2.1846 -0.0848 -1.2126
14833TIP3    H265991   1.804   5.323   5.079 -0.2534  0.5491  0.6494
14834TIP3   OH265992   3.589   2.349   6.071 -0.0252  0.1468 -1.0004
14834TIP3    H165993   3.547   2.268   6.100 -0.9274  1.1829  0.8256
14834TIP3    H265994   3.572   2.411   6.143  2.1485  1.4556 -1.5232
14835TIP3   OH265995   4.456   4.621   1.628  0.0602 -0.1535 -0.5594
14835TIP3    H165996   4.501   4.556   1.576 -0.2801 -0.1089 -0.9149
14835TIP3    H265997   4.426   4.574   1.706  0.6243 -0.2033 -0.3714
14836TIP3   OH265998   5.659   2.440  14.612  0.1454 -0.2761 -0.5128
14836TIP3    H165999   5.699   2.393  14.539  0.9634 -0.0656 -0.2061
14836TIP3    H266000   5.581   2.388  14.634  1.5828 -2.1310  0.5164
14837TIP3   OH266001   3.809   2.425   6.269  0.0675 -0.1346 -0.5886
14837TIP3    H166002   3.876   2.462   6.327 -0.3921  0.7357 -0.6030
14837TIP3    H266003   3.853   2.351   6.228  0.4837 -0.6160  0.6715
14838TIP3   OH266004   3.274   5.392  10.649 -0.0794  0.9087 -0.1319
14838TIP3    H166005   3.245   5.420  10.735 -0.1783  1.6479 -0.3948
14838TIP3    H266006   3.308   5.472  10.608  2.2033  0.1362  0.0906
14839TIP3   OH266007   0.344   4.865   2.562  0.1381  0.1668 -0.1077
14839TIP3    H166008   0.391   4.817   2.493  0.1627  0.2063 -0.1182
14839TIP3    H266009   0.276   4.914   2.515 -0.3988 -0.4795 -0.0179
14840TIP3   OH266010   2.034   1.810   4.800 -0.1301 -0.0896  0.5756
14840TIP3    H166011   2.022   1.898   4.837  0.0722 -0.3227  1.2053
14840TIP3    H266012   1.946   1.773   4.798 -0.4851  0.7030 -1.2209
14841TIP3   OH266013   3.524   0.363   5.850  0.2885 -0.3880 -0.6988
14841TIP3    H166014   3.507   0.336   5.940 -0.5517 -0.0753 -0.7561
14841TIP3    H266015   3.586   0.298   5.817 -0.1635 -1.0864 -0.1999
14842TIP3   OH266016   0.116   3.434   5.110 -0.0757 -0.3688 -0.0163
14842TIP3    H166017   0.068   3.474   5.039 -1.2178 -0.4392  0.6950
14842TIP3    H266018   0.050   3.414   5.176  0.6013 -2.4182  0.1153
14843TIP3   OH266019   4.902   1.404   0.265 -0.0933 -0.7272 -0.3470
14843TIP3    H166020   4.846   1.450   0.328 -0.1517 -0.4101 -0.6316
14843TIP3    H266021   4.882   1.311   0.280  1.0772 -0.7616  1.2152
14844TIP3   OH266022   5.130   2.112   1.896  0.8657 -0.1016 -0.4107
14844TIP3    H166023   5.190   2.105   1.971  1.7128  0.6540 -1.0001
14844TIP3    H266024   5.084   2.195   1.910  0.7767 -0.1261 -0.5564
14845TIP3   OH266025   4.231   3.540  14.597  0.1869  0.0999  0.3081
14845TIP3    H166026   4.186   3.473  14.649 -1.9721  1.7283  0.7181
14845TIP3    H266027   4.187   3.622  14.622  1.7179  1.4676 -1.2558
14846TIP3   OH266028   5.109   3.656   2.810 -0.4763  0.2269 -0.2805
14846TIP3    H166029   5.034   3.600   2.789 -0.4591  0.0722  0.0624
14846TIP3    H266030   5.071   3.742   2.829 -0.5124  0.3039 -0.7050
14847TIP3   OH266031   4.949   1.747   2.178  0.3987  0.0491 -0.1151
14847TIP3    H166032   4.981   1.663   2.146  3.2775  1.5599 -1.5939
14847TIP3    H266033   4.999   1.764   2.258 -1.4146 -0.3550  1.1578
14848TIP3   OH266034   5.809   5.720  16.451 -0.3833  0.0248  0.1745
14848TIP3    H166035   5.789   5.705  16.543  1.0018 -0.7138  0.3848
14848TIP3    H266036   5.724   5.733  16.409 -1.2392 -2.1444  1.1103
14849TIP3   OH266037   3.743   1.476  12.981  0.4965 -0.0045  0.2012
14849TIP3    H166038   3.650   1.480  12.957  1.3496 -0.9702 -4.1087
14849TIP3    H266039   3.767   1.384  12.970  1.6389 -0.1572  3.1717
14850TIP3   OH266040   5.057   0.260  13.692  0.1371 -1.2643 -0.6627
14850TIP3    H166041   5.052   0.177  13.740 -1.0384 -2.2584 -2.4079
14850TIP3    H266042   5.087   0.235  13.605 -1.3521 -0.0308 -1.5722
14851TIP3   OH266043   1.693   6.181   3.181  0.3297 -0.0865  0.0837
14851TIP3    H166044   1.693   6.248   3.249  2.7742  0.9398 -0.8077
14851TIP3    H266045   1.611   6.195   3.133  1.1984  3.0949 -0.7358
14852TIP3   OH266046   4.157   6.605   0.523 -0.0361 -0.4581  0.5999
14852TIP3    H166047   4.098   6.541   0.485  0.9353 -1.4879  0.7637
14852TIP3    H266048   4.241   6.588   0.481  0.2458  0.6949  0.6748
14853TIP3   OH266049   5.896   2.233  13.058  0.5736  0.3071  0.4531
14853TIP3    H166050   5.867   2.325  13.066  0.9329  0.3253  1.9705
14853TIP3    H266051   5.963   2.224  13.126 -1.5654 -1.8593  2.4702
14854TIP3   OH266052   3.312   3.214   2.507 -0.2824  0.1811 -0.0290
14854TIP3    H166053   3.287   3.299   2.472 -0.4293 -0.0072 -0.3863
14854TIP3    H266054   3.311   3.156   2.431 -1.7583 -0.4969  0.4622
14855TIP3   OH266055   2.205   2.304  11.348 -0.4021  0.0892 -0.2988
14855TIP3    H166056   2.254   2.366  11.294  1.8628 -0.5050  0.8987
14855TIP3    H266057   2.166   2.243  11.286  1.4339 -0.1020 -1.3601
14856TIP3   OH266058   0.081   1.363  13.944 -0.3898 -0.1273 -0.0558
14856TIP3    H166059   0.079   1.433  13.880 -0.4220 -0.0463  0.0339
14856TIP3    H266060   0.006   1.380  14.001 -0.7709 -0.5894 -0.4094
14857TIP3   OH266061   6.555   5.216  15.199 -0.5701 -0.2126 -0.5816
14857TIP3    H166062   6.460   5.215  15.189 -0.5645  0.2532 -0.6844
14857TIP3    H266063   6.570   5.263  15.281 -0.4020  0.3015 -0.9055
14858TIP3   OH266064   4.625   5.270   0.548 -0.1319 -0.1239  0.2019
14858TIP3    H166065   4.650   5.360   0.526 -2.0337  0.3231 -0.3632
14858TIP3    H266066   4.658   5.257   0.637  2.9418 -0.0336 -0.8137
14859TIP3   OH266067   2.420   6.514   5.512  0.3970  0.0497  1.1587
14859TIP3    H166068   2.500   6.567   5.515  1.8297 -1.9595  0.2370
14859TIP3    H266069   2.387   6.526   5.423 -1.4165  2.2808  2.0387
14860TIP3   OH266070   5.197   5.719  13.911  0.5544 -0.3493 -0.2492
14860TIP3    H166071   5.217   5.636  13.869  2.2366 -0.4018  0.5921
14860TIP3    H266072   5.170   5.696  14.000 -1.2793 -0.1180 -0.6998
14861TIP3   OH266073   6.096   1.612   1.164 -0.0236  0.5614  0.6557
14861TIP3    H166074   6.108   1.575   1.251 -1.1755  0.7987  0.9247
14861TIP3    H266075   6.129   1.702   1.172 -1.5390  1.0842  1.2829
14862TIP3   OH266076   3.482   6.475  14.122  0.6636 -0.4749  0.0239
14862TIP3    H166077   3.443   6.497  14.037  3.4699 -0.2969 -1.3239
14862TIP3    H266078   3.499   6.381  14.118 -3.9045 -1.7635  2.6235
14863TIP3   OH266079   4.684   0.545   4.494 -0.5833 -0.2753 -0.1371
14863TIP3    H166080   4.681   0.617   4.432 -0.1794  0.0758  0.2438
14863TIP3    H266081   4.776   0.518   4.495 -1.0358 -2.1462 -1.7945
14864TIP3   OH266082   2.998   4.698  15.335 -0.3404  0.2049 -0.1725
14864TIP3    H166083   2.913   4.740  15.318 -0.6759  0.0424  1.0143
14864TIP3    H266084   2.976   4.606  15.351 -0.0471  0.3192  0.9639
14865TIP3   OH266085   1.583   5.903   2.838 -1.0043  0.1943 -0.0797
14865TIP3    H166086   1.647   5.971   2.859 -1.3736  0.8887 -1.1363
14865TIP3    H266087   1.575   5.853   2.919 -0.0843  0.8787  0.4608
14866TIP3   OH266088   1.984   0.504   5.842  0.0554 -0.2174 -0.3426
14866TIP3    H166089   2.003   0.470   5.929  0.2407 -2.6121 -1.2366
14866TIP3    H266090   1.968   0.598   5.855  1.1930 -0.2948  2.0698
14867TIP3   OH266091   6.526   2.408  10.776  0.4201 -0.5215  0.0550
14867TIP3    H166092   6.610   2.385  10.738  0.7612  0.4839  0.1576
14867TIP3    H266093   6.472   2.435  10.701  0.5138 -0.2229  0.0950
14868TIP3   OH266094   2.265   5.701  16.991 -0.0269 -0.5686 -0.4794
14868TIP3    H166095   2.232   5.668  16.907  0.7515  4.1747 -2.9632
14868TIP3    H266096   2.351   5.738  16.971  0.9056 -0.5834  2.8484
14869TIP3   OH266097   6.744   5.902   1.570  0.0411  0.0388 -1.0584
14869TIP3    H166098   6.821   5.845   1.577  1.6616  2.2796  1.0453
14869TIP3    H266099   6.736   5.919   1.476  1.5407 -1.0249 -1.4198
14870TIP3   OH266100   1.940   6.096   2.774  0.2694 -0.3417 -0.1398
14870TIP3    H166101   1.870   6.147   2.815  1.1477 -0.4588  1.5759
14870TIP3    H266102   1.955   6.023   2.834  1.0000 -1.0266 -1.1208
14871TIP3   OH266103   0.678   2.718  17.357 -0.4783 -0.3116  0.2507
14871TIP3    H166104   0.737   2.780  17.315 -0.9857  0.8579  1.1931
14871TIP3    H266105   0.726   2.635  17.357  2.4157  1.1066  3.3488
14872TIP3   OH266106   3.104   6.783   1.602 -0.0871 -0.1953  0.5149
14872TIP3    H166107   3.156   6.823   1.672 -0.6876  0.7784  0.4226
14872TIP3    H266108   3.135   6.692   1.598  2.5416  0.6187 -0.3914
14873TIP3   OH266109   0.310   5.494  16.981  0.0792 -0.0744  0.2912
14873TIP3    H166110   0.316   5.543  16.899  0.9516  0.4742  0.6692
14873TIP3    H266111   0.289   5.560  17.047  0.0798 -0.4000  0.6211
14874TIP3   OH266112   5.982   2.995   1.982  0.0094 -0.2460  0.2207
14874TIP3    H166113   5.964   3.014   1.890  1.3843 -1.2479 -0.2864
14874TIP3    H266114   5.998   3.081   2.021  0.8766  0.1018 -0.8352
14875TIP3   OH266115   1.426   5.914   1.806 -0.0159  0.0312  0.0031
14875TIP3    H166116   1.416   5.824   1.776 -0.8603  0.0531  0.1826
14875TIP3    H266117   1.362   5.964   1.755 -1.5345  0.0511  1.8071
14876TIP3   OH266118   0.026   5.456  12.273  0.1673  0.2800 -0.5861
14876TIP3    H166119   0.021   5.463  12.178 -0.9481  1.6693 -0.4599
14876TIP3    H266120  -0.063   5.432  12.300  0.8985 -2.0719  0.0255
14877TIP3   OH266121   1.767   1.724  16.453 -0.2253  0.0169  0.2030
14877TIP3    H166122   1.722   1.641  16.438 -1.0164  0.3387  0.7192
14877TIP3    H266123   1.839   1.724  16.390 -0.2834 -1.0021  0.1127
14878TIP3   OH266124   1.835   5.223  11.229 -0.1291  0.5370 -0.0284
14878TIP3    H166125   1.747   5.204  11.195  0.1566  1.7194 -1.5486
14878TIP3    H266126   1.891   5.157  11.189 -0.2865 -0.1141  0.8076
14879TIP3   OH266127   6.784   6.187  17.095  0.6251  0.2948 -0.0945
14879TIP3    H166128   6.832   6.222  17.170  1.8031  2.5542 -1.7748
14879TIP3    H266129   6.696   6.222  17.105  1.0409  1.4118 -0.2719
14880TIP3   OH266130   2.175   4.529   2.455  0.2680  0.1879  0.1533
14880TIP3    H166131   2.094   4.579   2.467  0.6365  1.1112 -1.0473
14880TIP3    H266132   2.199   4.544   2.364  1.1730 -1.0265  0.1686
14881TIP3   OH266133   4.204   4.719  15.635 -0.0997  0.0981 -0.1892
14881TIP3    H166134   4.135   4.777  15.667 -0.4272  0.8855 -2.1870
14881TIP3    H266135   4.167   4.631  15.645  0.0268  0.2365  1.9681
14882TIP3   OH266136   1.916   0.662  14.945 -0.2138 -0.0293 -0.1511
14882TIP3    H166137   1.990   0.720  14.961  0.0086 -0.3068 -0.1554
14882TIP3    H266138   1.919   0.646  14.850  0.6668 -1.2795  0.0656
14883TIP3   OH266139   5.854   2.648   5.005 -0.1429  0.1353 -0.5529
14883TIP3    H166140   5.870   2.730   5.052 -2.7190 -0.3814  1.4902
14883TIP3    H266141   5.916   2.586   5.044 -0.5352  0.3213  0.3935
14884TIP3   OH266142   0.750   4.677   2.847 -0.0176  0.1921  0.1444
14884TIP3    H166143   0.656   4.696   2.850  0.1760  1.1248  2.1495
14884TIP3    H266144   0.771   4.643   2.934  1.2472 -1.5382 -0.7615
14885TIP3   OH266145   1.079   0.412  11.588  0.3245 -0.4503 -0.4054
14885TIP3    H166146   1.080   0.320  11.563 -0.7127  0.1242 -2.8272
14885TIP3    H266147   1.115   0.458  11.512 -1.0814  1.3127 -0.0712
14886TIP3   OH266148   4.682   0.664  16.949  0.2548 -0.1449 -0.4413
14886TIP3    H166149   4.607   0.722  16.962  0.0460 -0.3608 -0.6817
14886TIP3    H266150   4.654   0.580  16.986  0.4864 -0.1470 -0.2671
14887TIP3   OH266151   3.670   6.500   1.859 -0.3077 -0.4250 -0.1962
14887TIP3    H166152   3.741   6.438   1.842 -0.2516 -0.4606  0.1622
14887TIP3    H266153   3.708   6.565   1.917 -0.1272  0.4163 -1.2429
14888TIP3   OH266154   0.791   3.037   2.559  0.5257  0.2391  0.1608
14888TIP3    H166155   0.700   3.011   2.576  0.9359 -2.1557 -0.8211
14888TIP3    H266156   0.789   3.074   2.471  0.5572 -0.3480 -0.0953
14889TIP3   OH266157   2.632   0.361  12.973 -0.1679 -0.0621 -0.0950
14889TIP3    H166158   2.726   0.347  12.961 -0.3619 -0.6585 -1.0380
14889TIP3    H266159   2.597   0.274  12.989 -0.3881  0.3237  1.7394
14890TIP3   OH266160   0.679   4.312   3.867  0.3562 -0.1925 -0.0469
14890TIP3    H166161   0.616   4.384   3.859  0.8477  0.3993  1.1862
14890TIP3    H266162   0.762   4.350   3.840  0.7015 -0.1627  1.0309
14891TIP3   OH266163   4.280   1.090   3.119  0.0346  0.0252 -0.0718
14891TIP3    H166164   4.207   1.029   3.131  0.2568 -0.0156  1.2469
14891TIP3    H266165   4.352   1.052   3.169  0.6752  0.5523 -0.5708
14892TIP3   OH266166   5.402   4.792   2.108  0.0879 -0.1289  0.0347
14892TIP3    H166167   5.473   4.852   2.131  1.2328 -0.6026 -2.0501
14892TIP3    H266168   5.328   4.823   2.160  0.5157  3.3638 -1.1567
14893TIP3   OH266169   3.677   5.900   1.402 -0.6806  0.0352 -0.1825
14893TIP3    H166170   3.757   5.908   1.453 -1.9391 -2.3740  2.4829
14893TIP3    H266171   3.618   5.966   1.438 -0.8798 -0.2422  0.0039
14894TIP3   OH266172   0.517   1.439   5.360 -0.6822 -0.4224 -0.0654
14894TIP3    H166173   0.605   1.401   5.350 -0.8028 -0.3837 -1.6104
14894TIP3    H266174   0.530   1.520   5.409  0.2157 -0.1982 -0.6563
14895TIP3   OH266175   6.802   0.372  13.910  0.2436 -0.0333 -0.1025
14895TIP3    H166176   6.740   0.356  13.839 -0.5737  2.8090 -0.1422
14895TIP3    H266177   6.885   0.388  13.865  0.3543 -0.9148 -0.2271
14896TIP3   OH266178   5.408   1.445   0.653  0.2544  0.2588  0.3929
14896TIP3    H166179   5.353   1.514   0.617 -0.3938  0.4874  1.7577
14896TIP3    H266180   5.468   1.422   0.582 -0.3240  1.3664 -0.4751
14897TIP3   OH266181   3.485   1.376  12.403 -0.2441  0.6437  0.0360
14897TIP3    H166182   3.529   1.459  12.384 -0.4941  0.5394 -1.0306
14897TIP3    H266183   3.554   1.310  12.395 -0.3924  0.5749 -0.7930
14898TIP3   OH266184   0.318   4.105   0.505  0.1419 -0.2972 -0.2279
14898TIP3    H166185   0.296   4.045   0.576 -1.8666  1.2826  0.5616
14898TIP3    H266186   0.319   4.049   0.427 -1.7643 -1.3968  0.4665
14899TIP3   OH266187   4.656   3.869  12.163 -0.4701  0.2868  0.0116
14899TIP3    H166188   4.733   3.926  12.161  0.3217 -0.7434 -0.0871
14899TIP3    H266189   4.642   3.851  12.256  1.1555 -1.7349 -0.0596
14900TIP3   OH266190   4.373   3.844  11.398  0.0133 -0.0559 -0.3001
14900TIP3    H166191   4.293   3.797  11.418 -0.3918  0.2323 -1.1786
14900TIP3    H266192   4.411   3.797  11.323  0.0804  0.4516 -0.5920
14901TIP3   OH266193   4.436   4.326  11.905  0.3395 -0.7121  0.1850
14901TIP3    H166194   4.502   4.395  11.906 -2.0267  1.7432  1.5256
14901TIP3    H266195   4.471   4.258  11.962  1.5629  0.6657  1.1436
14902TIP3   OH266196   5.967   2.017  14.985  0.1243 -0.4622 -0.6110
14902TIP3    H166197   6.013   2.050  14.908 -1.2786  1.1449 -0.8111
14902TIP3    H266198   5.879   1.997  14.953 -0.1332 -0.9056  0.3333
14903TIP3   OH266199   5.246   1.517   0.352 -0.6639 -0.1305 -0.6523
14903TIP3    H166200   5.180   1.481   0.410 -0.9884 -1.6924 -1.9289
14903TIP3    H266201   5.287   1.441   0.311  2.6797  0.6769  0.8184
14904TIP3   OH266202   4.349   3.111   3.741 -0.4977 -0.2371 -0.4249
14904TIP3    H166203   4.421   3.173   3.751 -1.9902  1.6433 -0.7083
14904TIP3    H266204   4.317   3.126   3.652  0.4221 -2.9927 -1.3146
14905TIP3   OH266205   5.310   2.061  10.597  0.6123  0.2917 -0.0993
14905TIP3    H166206   5.260   1.979  10.595  1.4568 -0.3291  1.7723
14905TIP3    H266207   5.245   2.129  10.613 -0.1163  0.0382 -1.7797
14906TIP3   OH266208   0.116   6.276   4.597 -0.5555  0.2758 -0.0982
14906TIP3    H166209   0.112   6.338   4.670  1.3461  2.1180 -1.4484
14906TIP3    H266210   0.044   6.302   4.540 -0.6922  0.2373  0.0541
14907TIP3   OH266211   3.372   6.579  16.111 -0.2493  0.1138  0.3683
14907TIP3    H166212   3.320   6.516  16.162  0.0707 -0.3516  0.1281
14907TIP3    H266213   3.308   6.621  16.053 -0.7659  1.2316  1.6863
14908TIP3   OH266214   5.920   6.251  10.950 -0.1844 -0.1653  0.2348
14908TIP3    H166215   5.940   6.267  10.858  3.0682  0.3554  0.9341
14908TIP3    H266216   5.865   6.172  10.949  0.5209 -0.6978 -2.0978
14909TIP3   OH266217   6.222   3.861  11.554  0.1664  0.6354  0.2450
14909TIP3    H166218   6.219   3.908  11.471  1.6729 -0.1861 -0.3104
14909TIP3    H266219   6.217   3.929  11.621  2.1040  1.6202 -0.5354
14910TIP3   OH266220   4.780   3.237   4.815  0.4929  0.0709  0.1844
14910TIP3    H166221   4.730   3.319   4.809  1.5816  0.7649  0.2558
14910TIP3    H266222   4.870   3.263   4.794  0.8266 -1.1491  0.0370
14911TIP3   OH266223   0.836   5.927   4.074  0.2164  0.3986 -0.1448
14911TIP3    H166224   0.754   5.900   4.115 -0.1062  0.9422 -0.4193
14911TIP3    H266225   0.829   6.022   4.067  1.4249  0.5944  1.0043
14912TIP3   OH266226   5.576   1.469  17.020  0.5872 -0.1511 -0.5824
14912TIP3    H166227   5.510   1.444  16.955  1.5870  0.3022 -1.8198
14912TIP3    H266228   5.619   1.546  16.981  1.0098  0.3241  0.7720
14913TIP3   OH266229   6.140   2.395   1.164 -0.0258  0.6202 -0.1426
14913TIP3    H166230   6.151   2.342   1.085 -0.2102 -1.2271  1.0326
14913TIP3    H266231   6.222   2.444   1.172 -0.3107  1.4511 -1.8929
14914TIP3   OH266232   6.751   5.900   0.969  0.7514  0.3514  0.3281
14914TIP3    H166233   6.796   5.923   1.051 -0.7836  1.9593  0.7974
14914TIP3    H266234   6.677   5.846   0.997  0.4834  0.5268 -0.0366
14915TIP3   OH266235   3.041   5.281  16.811 -0.0105  0.0575 -0.6115
14915TIP3    H166236   2.964   5.242  16.851 -0.0763  0.8154  0.0396
14915TIP3    H266237   3.018   5.292  16.719 -0.2043 -0.8645 -0.6799
14916TIP3   OH266238   1.593   1.628   2.258 -0.1739 -0.2949  0.0052
14916TIP3    H166239   1.512   1.677   2.270  0.6990  0.9978  0.7987
14916TIP3    H266240   1.620   1.650   2.168 -0.3509 -0.1968 -0.0260
14917TIP3   OH266241   2.071   0.633  16.624 -0.5744  0.7082 -0.0032
14917TIP3    H166242   2.053   0.619  16.531 -2.3355  1.2063  0.2156
14917TIP3    H266243   2.144   0.694  16.625 -0.0352  0.1134 -1.0407
14918TIP3   OH266244   6.394   1.106  13.161 -0.1769  0.3751 -0.4028
14918TIP3    H166245   6.459   1.132  13.096  0.3849 -1.4362 -0.6225
14918TIP3    H266246   6.369   1.188  13.204  2.3240  1.1474 -0.2392
14919TIP3   OH266247   4.541   5.668  13.257 -0.1832  0.3931  0.1952
14919TIP3    H166248   4.474   5.664  13.325 -0.7323 -1.9549 -0.4109
14919TIP3    H266249   4.583   5.582  13.259  0.4156  0.5871 -1.8009
14920TIP3   OH266250   2.430   0.537  11.512 -0.1946  0.1321  0.0493
14920TIP3    H166251   2.341   0.525  11.546  0.4238 -1.9850  1.0845
14920TIP3    H266252   2.440   0.468  11.446 -0.2864  2.2230 -2.3180
14921TIP3   OH266253   5.837   5.946   5.538 -0.4666 -0.7109 -0.5632
14921TIP3    H166254   5.882   6.030   5.547 -1.6945 -0.2539  2.4621
14921TIP3    H266255   5.906   5.881   5.542  0.2852  0.0831 -0.2554
14922TIP3   OH266256   5.317   4.510   4.840 -0.5346  0.1246 -0.6544
14922TIP3    H166257   5.253   4.487   4.773 -3.1533  0.8257  1.4159
14922TIP3    H266258   5.331   4.604   4.829 -0.4868  0.1225 -0.6121
14923TIP3   OH266259   0.748   1.211  11.494  0.7141  0.2422  0.2851
14923TIP3    H166260   0.701   1.287  11.526  0.1713  0.4210 -0.8703
14923TIP3    H266261   0.779   1.237  11.407 -0.2825 -1.1452 -0.5393
14924TIP3   OH266262   2.885   4.182   1.561 -0.0967 -0.0917 -0.6858
14924TIP3    H166263   2.978   4.202   1.551 -0.2531  0.3587 -1.3070
14924TIP3    H266264   2.882   4.118   1.632  0.4986  1.6049  0.9675
14925TIP3   OH266265   0.092   3.333   3.537  0.2634 -0.1131  0.3451
14925TIP3    H166266   0.110   3.368   3.449  1.9131  0.5589  0.9049
14925TIP3    H266267   0.021   3.271   3.524  0.9792 -0.6022 -1.6104
14926TIP3   OH266268   1.253   0.619  16.031 -0.3182  0.1860  0.5342
14926TIP3    H166269   1.327   0.637  15.974 -0.9141  3.2119  0.5112
14926TIP3    H266270   1.282   0.548  16.088  1.7978 -0.1050 -0.8348
14927TIP3   OH266271   3.466   6.757   3.488 -0.0098  0.3927  0.2807
14927TIP3    H166272   3.508   6.840   3.467 -1.2488  1.0244  0.1824
14927TIP3    H266273   3.499   6.734   3.575  0.5278  0.8677  0.2041
14928TIP3   OH266274   0.162   1.694   2.044  0.0897  0.3764 -0.1540
14928TIP3    H166275   0.071   1.684   2.018  0.4601 -0.0346 -1.3829
14928TIP3    H266276   0.207   1.720   1.964  1.8106 -3.8547 -0.8275
14929TIP3   OH266277   3.531   4.978  12.750  1.1444 -0.1189 -0.1914
14929TIP3    H166278   3.590   4.981  12.826  1.5112  1.2519 -0.5071
14929TIP3    H266279   3.448   5.014  12.783  0.9568 -0.5506 -0.1738
14930TIP3   OH266280   2.575   4.558  10.891 -0.0248 -0.5128 -0.2285
14930TIP3    H166281   2.546   4.503  10.818  2.1959  1.0194 -2.4401
14930TIP3    H266282   2.498   4.613  10.911 -1.0161 -1.7099 -0.6161
14931TIP3   OH266283   5.277   1.874  16.992  0.4218  0.2280 -0.1728
14931TIP3    H166284   5.242   1.798  16.944  2.0238  0.1850 -1.3240
14931TIP3    H266285   5.344   1.837  17.049  0.2161  0.6029  0.3159
14932TIP3   OH266286   0.831   5.327  13.706 -0.5407  0.2327 -0.9181
14932TIP3    H166287   0.792   5.268  13.642 -3.1457  0.4805  0.3239
14932TIP3    H266288   0.803   5.414  13.678  0.2671  0.5695 -0.7186
14933TIP3   OH266289   1.597   2.098   2.652  0.4298  0.9815  0.0739
14933TIP3    H166290   1.610   2.057   2.566 -1.1397 -0.6951  0.5537
14933TIP3    H266291   1.674   2.072   2.703  0.2915  0.0606 -0.1705
14934TIP3   OH266292   1.034   5.430  11.879  0.5046 -0.4407 -0.1327
14934TIP3    H166293   1.036   5.492  11.807  1.9818  0.2886  0.4990
14934TIP3    H266294   1.008   5.483  11.955  0.3134 -0.9166  0.1378
14935TIP3   OH266295   3.068   0.831  14.956  0.5073 -0.1686 -0.0837
14935TIP3    H166296   2.980   0.817  14.921 -0.4190  1.4866  1.3855
14935TIP3    H266297   3.053   0.858  15.047  2.4299  1.8050 -0.2694
14936TIP3   OH266298   2.220   5.275   3.097  0.6535 -0.7404 -0.3291
14936TIP3    H166299   2.178   5.211   3.155 -0.3202 -0.6850 -0.9429
14936TIP3    H266300   2.286   5.317   3.152  0.2500 -1.1921  0.5349
14937TIP3   OH266301   1.888   6.090   5.641 -0.0534 -0.3830  0.2038
14937TIP3    H166302   1.853   6.177   5.660 -0.2158  0.0794 -1.9090
14937TIP3    H266303   1.872   6.040   5.720 -0.4064  1.3653  1.3030
14938TIP3   OH266304   2.172   3.764  13.828 -0.6236  0.0915 -0.0416
14938TIP3    H166305   2.141   3.854  13.817  0.8790  0.8331  1.3651
14938TIP3    H266306   2.267   3.773  13.834 -0.3937 -1.6969 -0.6647
14939TIP3   OH266307   3.001   5.840  15.040 -0.0536  0.3245 -0.0731
14939TIP3    H166308   3.063   5.841  14.967  0.7395  0.2733  0.5847
14939TIP3    H266309   2.915   5.830  14.998  0.5351 -1.9455 -0.9204
14940TIP3   OH266310   2.985   4.949  16.558  0.3992 -0.5611 -0.2171
14940TIP3    H166311   3.046   4.941  16.631 -0.3972  0.1766  0.5667
14940TIP3    H266312   3.040   4.965  16.481  1.2666 -1.6878  0.1565
14941TIP3   OH266313   0.895   6.082  16.947  0.1731 -0.1251 -0.0384
14941TIP3    H166314   0.864   6.058  17.035  0.5960 -2.4755 -0.4560
14941TIP3    H266315   0.894   6.000  16.898  2.1076  0.6711 -1.5730
14942TIP3   OH266316   6.230   4.246   3.548 -0.3783  0.0330 -0.0214
14942TIP3    H166317   6.195   4.323   3.502 -1.6944 -0.4230  0.1791
14942TIP3    H266318   6.285   4.282   3.617 -1.5163  0.8482  0.5043
14943TIP3   OH266319   1.253   1.917   4.818 -0.0659 -0.1203  0.4823
14943TIP3    H166320   1.179   1.929   4.758 -1.8849  0.1924  2.6559
14943TIP3    H266321   1.223   1.850   4.880  1.9761 -0.8843  0.7210
14944TIP3   OH266322   6.539   0.803  14.129  0.1242  0.3356 -0.1053
14944TIP3    H166323   6.607   0.757  14.081  1.1257  0.6797  0.9343
14944TIP3    H266324   6.549   0.894  14.104  0.0068  0.3764 -0.0069
14945TIP3   OH266325   0.995   3.158   3.548 -0.7842 -0.3578 -0.1426
14945TIP3    H166326   1.049   3.145   3.469  0.6103  2.2036  0.2896
14945TIP3    H266327   1.056   3.192   3.613 -1.9386 -2.3118  2.0802
14946TIP3   OH266328   6.615   4.954   1.612  0.1485  0.2993  0.2799
14946TIP3    H166329   6.710   4.970   1.610  0.4314 -1.2593  0.5368
14946TIP3    H266330   6.606   4.865   1.646 -1.2940 -0.7247 -2.5198
14947TIP3   OH266331   4.174   5.047  11.401 -0.5580  0.3549  0.5000
14947TIP3    H166332   4.174   5.043  11.305  1.2242  3.2017  0.2477
14947TIP3    H266333   4.088   5.083  11.423 -0.5765  0.7394 -0.1522
14948TIP3   OH266334   2.161   6.073   3.104  0.4520 -0.6051  0.0166
14948TIP3    H166335   2.166   6.060   3.199 -0.0488 -1.4747 -0.0694
14948TIP3    H266336   2.189   6.164   3.091  1.7099 -0.8429  0.8761
14949TIP3   OH266337   4.513   5.874  16.761 -0.2522 -0.4503 -0.4262
14949TIP3    H166338   4.604   5.894  16.739  0.2039 -1.0745  0.7943
14949TIP3    H266339   4.463   5.946  16.723  0.4161 -1.4693 -3.5464
14950TIP3   OH266340   6.602   0.527   1.589 -0.1010 -0.2866  0.0154
14950TIP3    H166341   6.643   0.458   1.537  0.8095  0.5469 -0.4169
14950TIP3    H266342   6.661   0.602   1.580 -0.6196  0.2920  1.1675
14951TIP3   OH266343   5.527   2.155   1.391 -0.0967  0.3993  0.4877
14951TIP3    H166344   5.558   2.071   1.358 -0.9703  0.5069 -0.6304
14951TIP3    H266345   5.511   2.139   1.484  0.9270 -0.3215  0.5612
14952TIP3   OH266346   4.853   2.689   4.933  0.1254 -0.3944  0.1935
14952TIP3    H166347   4.819   2.777   4.947 -1.7568 -0.4113 -3.0408
14952TIP3    H266348   4.778   2.632   4.949  0.2254 -1.0074 -1.3384
14953TIP3   OH266349   3.777   1.480   0.112 -0.0536  0.3307 -0.3568
14953TIP3    H166350   3.730   1.408   0.069 -1.3617  0.1226  1.2933
14953TIP3    H266351   3.724   1.557   0.094 -1.6819 -0.0425  2.2343
14954TIP3   OH266352   5.972   0.417  13.246 -0.3150  0.2738 -0.0285
14954TIP3    H166353   6.028   0.341  13.262 -1.1321 -0.1998  0.6002
14954TIP3    H266354   6.034   0.490  13.239  0.4495 -0.3779 -0.2692
14955TIP3   OH266355   1.335   1.138   2.052 -0.6983  0.1579  0.2611
14955TIP3    H166356   1.354   1.162   1.962 -0.9442  0.8119  0.3734
14955TIP3    H266357   1.413   1.093   2.083 -0.3591  0.5143 -0.0756
14956TIP3   OH266358   3.204   5.430  15.619 -0.1329 -0.0297 -0.2205
14956TIP3    H166359   3.229   5.341  15.645  2.5048  0.7041  0.0324
14956TIP3    H266360   3.266   5.454  15.550  0.6260  2.3242  1.1471
14957TIP3   OH266361   0.551   1.620  15.972  0.0042 -0.4021  0.2502
14957TIP3    H166362   0.555   1.660  16.059  1.1046 -0.0913  0.0735
14957TIP3    H266363   0.479   1.557  15.978 -2.6786  2.4251  0.1757
14958TIP3   OH266364   4.141   4.500  13.842 -0.2942 -0.2082  0.4353
14958TIP3    H166365   4.163   4.410  13.817  0.2728  0.1534 -0.3932
14958TIP3    H266366   4.157   4.552  13.763 -1.1151  0.5505  0.7438
14959TIP3   OH266367   6.298   4.455  12.609 -0.3726  0.2282  0.0634
14959TIP3    H166368   6.329   4.376  12.566 -0.9813  1.0368 -1.9903
14959TIP3    H266369   6.214   4.473  12.569  0.2890  2.5705 -0.4361
14960TIP3   OH266370   4.007   0.455  13.699  0.0781  0.6501  0.1310
14960TIP3    H166371   4.054   0.530  13.736 -1.2576  0.9411  1.3637
14960TIP3    H266372   3.918   0.488  13.683 -0.2183 -0.3556 -0.4311
14961TIP3   OH266373   1.224   6.255  16.109  0.1064 -0.3771 -0.2786
14961TIP3    H166374   1.157   6.191  16.086 -1.0673  0.8373 -0.3963
14961TIP3    H266375   1.238   6.305  16.029 -2.0087  2.1119  0.7394
14962TIP3   OH266376   0.487   4.479  15.604  0.3962  0.0344  0.2426
14962TIP3    H166377   0.514   4.387  15.612 -0.2308 -0.0728  1.3540
14962TIP3    H266378   0.549   4.516  15.541  2.0248 -0.6410  1.3654
14963TIP3   OH266379   1.968   3.997   1.342  0.3441 -0.0116 -0.7803
14963TIP3    H166380   1.876   4.024   1.336 -0.2452 -1.1784  1.7488
14963TIP3    H266381   2.014   4.055   1.281 -1.7630  2.0976 -0.5108
14964TIP3   OH266382   2.471   2.931  17.132  0.7281 -0.8923 -0.0842
14964TIP3    H166383   2.432   2.846  17.116  1.3856 -0.9990 -1.2040
14964TIP3    H266384   2.504   2.960  17.047  0.7650  0.3563  0.3237
14965TIP3   OH266385   0.587   5.386   5.247 -0.1572  0.3218 -0.2437
14965TIP3    H166386   0.521   5.455   5.257  0.8367  1.5601 -1.8144
14965TIP3    H266387   0.647   5.401   5.320  0.3367  1.4833 -0.8655
14966TIP3   OH266388   6.302   5.095   6.491  0.1106  0.2838  0.1810
14966TIP3    H166389   6.296   5.189   6.507 -0.3804  0.0432  1.4258
14966TIP3    H266390   6.218   5.059   6.520  1.2544 -0.8808  2.2900
14967TIP3   OH266391   4.378   1.444  15.407 -0.1640  0.7438 -0.7103
14967TIP3    H166392   4.412   1.532  15.393 -0.5750  0.6216 -2.8476
14967TIP3    H266393   4.436   1.388  15.356 -0.9556 -0.0076 -0.8082
14968TIP3   OH266394   1.683   6.541  12.517 -0.5127  0.3444  0.7171
14968TIP3    H166395   1.767   6.498  12.503 -0.8457 -0.4627  1.1017
14968TIP3    H266396   1.703   6.615  12.574 -0.0136  0.3483  0.5392
14969TIP3   OH266397   2.266   2.182   0.524 -0.0385 -0.0358 -0.3989
14969TIP3    H166398   2.198   2.182   0.456  0.0516 -1.7369 -0.5495
14969TIP3    H266399   2.343   2.216   0.480  0.5112 -2.7779 -1.7873
14970TIP3   OH266400   2.455   0.172  13.852 -0.0008 -0.2314 -0.1152
14970TIP3    H166401   2.386   0.216  13.901  2.1641  0.0244  2.9706
14970TIP3    H266402   2.448   0.207  13.763 -3.0484  0.5941  0.3389
14971TIP3   OH266403   4.221   0.862  13.236 -0.1240  0.1694 -0.0304
14971TIP3    H166404   4.240   0.864  13.330  1.6703 -1.8235 -0.2790
14971TIP3    H266405   4.169   0.941  13.220 -0.1724  0.7346  2.5590
14972TIP3   OH266406   1.667   3.396   3.289  0.4101 -0.1079 -0.1816
14972TIP3    H166407   1.589   3.341   3.291  0.7044 -0.5203  0.6480
14972TIP3    H266408   1.679   3.418   3.197 -0.2569 -0.6623 -0.4089
14973TIP3   OH266409   5.342   6.009   2.697  0.9307 -0.2119 -0.0982
14973TIP3    H166410   5.313   5.918   2.699  0.3065 -0.0060  0.3295
14973TIP3    H266411   5.288   6.051   2.630 -0.1826  0.3007  1.0835
14974TIP3   OH266412   0.856   2.946  15.372  0.4496 -0.2315  0.5217
14974TIP3    H166413   0.872   2.911  15.284  0.1385  0.6902  0.0844
14974TIP3    H266414   0.762   2.939  15.384  0.1551  1.7800 -0.1869
14975TIP3   OH266415   4.635   6.159  17.077  0.0052  0.2641  0.0742
14975TIP3    H166416   4.608   6.199  16.994  1.1023  1.2852  0.1985
14975TIP3    H266417   4.566   6.095  17.095 -0.4385  0.2686 -1.4442
14976TIP3   OH266418   4.217   0.171  11.238  0.3655 -0.1968 -0.7868
14976TIP3    H166419   4.231   0.176  11.143 -1.5329 -1.1067 -1.1461
14976TIP3    H266420   4.178   0.085  11.252 -2.4573  1.1438  0.3537
14977TIP3   OH266421   3.745   5.267  14.610 -0.3358 -0.1327 -0.5404
14977TIP3    H166422   3.760   5.356  14.642 -1.6750  1.7315 -4.4239
14977TIP3    H266423   3.830   5.242  14.572 -0.6454  0.7461 -1.9057
14978TIP3   OH266424   6.745   4.506   0.458 -0.0984 -0.3490  0.3450
14978TIP3    H166425   6.833   4.516   0.496 -0.4921 -2.8285  2.1765
14978TIP3    H266426   6.690   4.564   0.512  0.3738  1.4352 -0.9909
14979TIP3   OH266427   3.390   4.854   2.308  0.1814  0.2557 -0.1604
14979TIP3    H166428   3.360   4.940   2.338  0.2334 -0.0577  0.8239
14979TIP3    H266429   3.462   4.832   2.368  0.4446 -0.2912 -0.6698
14980TIP3   OH266430   4.499   4.862  12.191 -0.6069  0.8215 -0.4599
14980TIP3    H166431   4.451   4.785  12.223  0.4847 -0.9946 -2.8161
14980TIP3    H266432   4.559   4.884  12.263 -1.0248 -0.4809  0.3366
14981TIP3   OH266433   2.906   0.840   4.038 -0.3294 -0.3145  0.1418
14981TIP3    H166434   2.922   0.746   4.025 -0.6399 -0.6055  1.5948
14981TIP3    H266435   2.905   0.850   4.134  1.7710  1.5377  0.0493
14982TIP3   OH266436   5.555   2.367  12.491  0.0761  0.5428 -1.0742
14982TIP3    H166437   5.599   2.447  12.462  1.3311 -0.1387 -1.1497
14982TIP3    H266438   5.551   2.375  12.587  3.9823 -1.0161 -0.5756
14983TIP3   OH266439   4.668   5.107   3.753 -1.2260  0.0574  0.3453
14983TIP3    H166440   4.619   5.025   3.741 -1.1773  0.0708  0.0505
14983TIP3    H266441   4.620   5.153   3.822 -0.8112 -0.5536  1.0615
14984TIP3   OH266442   0.072   3.453  14.595 -0.0087 -0.0746  0.2678
14984TIP3    H166443   0.149   3.414  14.555  0.7062  0.4035  1.1404
14984TIP3    H266444   0.104   3.492  14.677 -0.8657  1.4653 -0.0844
14985TIP3   OH266445   6.087   4.513   1.327  0.9570  0.2290 -0.5434
14985TIP3    H166446   6.176   4.547   1.318  1.2874  0.2930  2.0960
14985TIP3    H266447   6.095   4.445   1.393 -1.2045  1.3687  0.9930
14986TIP3   OH266448   5.029   6.600   1.600  0.1666  0.6755  0.0232
14986TIP3    H166449   5.016   6.681   1.649 -0.8244  0.7340 -0.3247
14986TIP3    H266450   5.098   6.554   1.648 -2.3228 -0.3798  2.9403
14987TIP3   OH266451   3.387   1.401  14.930  0.3201  0.4788 -0.6536
14987TIP3    H166452   3.390   1.404  14.834  1.4059 -1.9408 -0.7681
14987TIP3    H266453   3.371   1.492  14.956  1.4526  1.4638 -3.0730
14988TIP3   OH266454   4.972   2.051  14.194  0.6911 -0.3894 -0.2523
14988TIP3    H166455   5.008   2.118  14.252  1.6406  0.5874 -1.8741
14988TIP3    H266456   5.047   1.995  14.172 -0.0666 -1.9795  0.9998
14989TIP3   OH266457   3.698   4.760  15.939  0.7783  0.0080  0.4156
14989TIP3    H166458   3.680   4.735  16.029 -0.2003  0.8958  0.4808
14989TIP3    H266459   3.752   4.839  15.946  1.8576 -0.6875  0.2091
14990TIP3   OH266460   2.315   1.845  14.697 -0.4342 -0.4623  0.4585
14990TIP3    H166461   2.313   1.914  14.765  1.2049 -1.2023  1.3017
14990TIP3    H266462   2.314   1.763  14.747 -0.3265 -1.0319 -0.4675
14991TIP3   OH266463   5.024   5.450  13.243 -0.6687 -0.4135  0.1357
14991TIP3    H166464   5.068   5.474  13.162 -1.3694  1.9864  0.3751
14991TIP3    H266465   4.932   5.438  13.219 -0.8615  0.1969  0.5311
14992TIP3   OH266466   3.185   4.264  11.719 -0.2286  0.4436  0.1913
14992TIP3    H166467   3.163   4.179  11.681 -3.3884  0.4420  1.6759
14992TIP3    H266468   3.164   4.255  11.812  2.6671  1.8678  1.0780
14993TIP3   OH266469   5.407   3.960   1.928 -0.3950  0.2100  0.0779
14993TIP3    H166470   5.383   4.051   1.907  0.1469  0.1474 -0.9045
14993TIP3    H266471   5.354   3.907   1.870  0.5747 -0.0130 -0.6263
14994TIP3   OH266472   0.056   0.598  14.957 -0.1264 -0.2404  0.2818
14994TIP3    H166473   0.016   0.676  14.994 -3.3839 -0.9937 -1.2665
14994TIP3    H266474   0.087   0.624  14.870  1.5628 -0.0122  0.9205
14995TIP3   OH266475   6.361   5.430  13.612  0.9068 -0.1511  0.4068
14995TIP3    H166476   6.335   5.393  13.696  0.9784  0.6909  0.8130
14995TIP3    H266477   6.412   5.361  13.570 -1.0896 -1.4818  0.0222
14996TIP3   OH266478   2.414   5.560  16.007  0.0456 -0.6205 -0.0231
14996TIP3    H166479   2.447   5.497  15.943  2.3122  0.5820 -0.1359
14996TIP3    H266480   2.332   5.522  16.038  0.0586 -2.3583 -1.9313
14997TIP3   OH266481   5.267   4.412   2.619  1.0488  0.0158 -0.2583
14997TIP3    H166482   5.346   4.365   2.591  1.3642 -0.1620  0.9135
14997TIP3    H266483   5.196   4.349   2.608  1.0803  0.1116 -1.1286
14998TIP3   OH266484   5.356   3.074   3.482  0.0334  0.4720 -0.3741
14998TIP3    H166485   5.320   2.987   3.469  2.0094 -0.4482 -0.1232
14998TIP3    H266486   5.322   3.102   3.566 -0.9625  0.1292 -0.6549
14999TIP3   OH266487   5.292   0.514   2.646  0.0455 -0.0195  0.2056
14999TIP3    H166488   5.326   0.504   2.735  0.9338  0.0852 -0.1126
14999TIP3    H266489   5.201   0.542   2.658 -0.0279 -0.6065  1.0741
15000TIP3   OH266490   5.270   2.782  14.316 -0.1874 -0.3682  0.5122
15000TIP3    H166491   5.270   2.748  14.405 -0.5615 -0.4717  0.4731
15000TIP3    H266492   5.187   2.753  14.279  0.3717 -1.1440 -0.1831
15001TIP3   OH266493   5.388   2.107  11.967 -0.1891  0.1242 -0.7301
15001TIP3    H166494   5.423   2.153  12.043  0.3649  0.2422 -1.0453
15001TIP3    H266495   5.325   2.044  12.003 -0.7043  0.8906 -0.2682
15002TIP3   OH266496   3.843   0.985  13.022  1.1682 -0.2786 -0.5877
15002TIP3    H166497   3.840   1.060  12.963 -1.0783  0.4394  0.3139
15002TIP3    H266498   3.895   1.016  13.097  0.4894  0.3003 -0.3458
15003TIP3   OH266499   0.500   2.952   3.400  0.2981 -0.4347  0.0629
15003TIP3    H166500   0.414   2.969   3.359  1.0978  2.1839 -0.7787
15003TIP3    H266501   0.490   2.983   3.490  0.2183 -0.5748  0.1020
15004TIP3   OH266502   3.657   5.638  17.118 -0.6261 -0.2024 -0.1010
15004TIP3    H166503   3.743   5.650  17.075  0.6536  0.9671  2.5568
15004TIP3    H266504   3.653   5.545  17.138  0.7013 -0.0546  0.9837
15005TIP3   OH266505   2.221   0.830  10.452  0.0070  0.8538 -0.3141
15005TIP3    H166506   2.271   0.772  10.509 -1.0407  1.0351  0.8320
15005TIP3    H266507   2.158   0.873  10.510 -0.1088  2.1709 -1.3598
15006TIP3   OH266508   2.231   6.788  13.780 -0.5485 -0.1922  1.2019
15006TIP3    H166509   2.237   6.709  13.833 -1.5634 -0.9445  0.2462
15006TIP3    H266510   2.303   6.843  13.810  0.7417 -1.8491  1.2683
15007TIP3   OH266511   5.582   5.401  15.276  0.4711  0.2240  0.9286
15007TIP3    H166512   5.640   5.399  15.200  1.1958  1.4003  1.4183
15007TIP3    H266513   5.536   5.485  15.269 -0.1804 -0.0976  1.2655
15008TIP3   OH266514   3.272   2.434  16.435 -0.5091 -0.8245  0.5197
15008TIP3    H166515   3.338   2.395  16.493  0.1448 -0.5261 -0.0107
15008TIP3    H266516   3.189   2.398  16.466 -0.0746 -1.4094  1.0399
15009TIP3   OH266517   0.188   3.039   0.697  0.3849  0.0617 -0.0176
15009TIP3    H166518   0.139   3.098   0.754 -0.7578 -0.1394 -0.7592
15009TIP3    H266519   0.280   3.063   0.711  0.0057  1.3162  0.4699
15010TIP3   OH266520   1.330   4.657  15.864  0.1058  0.0380  0.1434
15010TIP3    H166521   1.372   4.707  15.934 -0.5262 -1.0083  1.3150
15010TIP3    H266522   1.275   4.721  15.818  1.8685  1.1212 -0.5492
15011TIP3   OH266523   2.322   3.814  15.271 -0.0398  0.0830  0.1507
15011TIP3    H166524   2.305   3.736  15.323  2.5350 -0.4302  0.3806
15011TIP3    H266525   2.301   3.788  15.181  1.3421 -1.1264  0.1387
15012TIP3   OH266526   5.868   3.281   4.919 -0.0270  0.4181  0.0305
15012TIP3    H166527   5.802   3.227   4.962  0.0337  0.8115  0.6174
15012TIP3    H266528   5.840   3.371   4.935  0.1540  0.5743 -0.5085
15013TIP3   OH266529   3.895   2.798  14.491 -0.3237 -0.5574  0.2587
15013TIP3    H166530   3.841   2.767  14.418  0.1941  2.2069 -1.4741
15013TIP3    H266531   3.854   2.880  14.518  0.9592 -0.2505  1.3881
15014TIP3   OH266532   2.516   3.455   6.011 -0.6011 -0.6045 -0.5692
15014TIP3    H166533   2.588   3.436   5.952  0.0717 -1.2660  0.4397
15014TIP3    H266534   2.552   3.518   6.074 -0.7850 -1.1821  0.1337
15015TIP3   OH266535   4.631   2.220  14.584 -0.2468  0.0986  0.1102
15015TIP3    H166536   4.602   2.307  14.555  0.6859  0.5899  0.5912
15015TIP3    H266537   4.725   2.231  14.601 -0.6043 -0.2941  2.7856
15016TIP3   OH266538   3.160   6.752   4.949 -0.2305  0.2414  0.1188
15016TIP3    H166539   3.070   6.740   4.978 -1.1856  2.1458 -1.7876
15016TIP3    H266540   3.177   6.676   4.892 -0.8901  0.2492 -0.0968
15017TIP3   OH266541   2.609   0.390   3.061 -0.3443 -0.1416  0.2866
15017TIP3    H166542   2.524   0.401   3.019 -0.3374  0.4996  0.4365
15017TIP3    H266543   2.609   0.299   3.091 -1.3087  0.0874  1.0200
15018TIP3   OH266544   4.335   0.516   5.875 -1.2519 -0.0962  0.3200
15018TIP3    H166545   4.376   0.431   5.857 -1.5915 -0.3670  0.7985
15018TIP3    H266546   4.353   0.533   5.967  1.0045  1.5829 -0.3605
15019TIP3   OH266547   5.980   0.689  16.781  0.3139  0.2256 -0.2338
15019TIP3    H166548   5.908   0.663  16.839  0.0873  3.0629  0.9008
15019TIP3    H266549   5.950   0.663  16.693 -1.2210 -0.3972  0.4381
15020TIP3   OH266550   1.532   1.113   3.737  0.1389  0.0111  0.0925
15020TIP3    H166551   1.488   1.051   3.795  0.8158  1.3303  2.1703
15020TIP3    H266552   1.611   1.138   3.786  1.3499  0.3814 -1.9384
15021TIP3   OH266553   1.042   1.536   2.705  0.2715  0.0954 -0.4361
15021TIP3    H166554   0.981   1.604   2.678  0.9823  0.5074 -1.0734
15021TIP3    H266555   1.127   1.581   2.711  0.1996  0.0082  2.4936
15022TIP3   OH266556   1.041   2.969  16.127 -0.6969 -0.1611  0.2367
15022TIP3    H166557   0.992   2.913  16.187 -0.5137 -0.6609 -0.0753
15022TIP3    H266558   0.995   2.961  16.044  0.1966 -1.0448 -0.1961
15023TIP3   OH266559   1.779   1.095   1.562  0.1029  0.1312  0.4468
15023TIP3    H166560   1.684   1.093   1.549  0.0623  0.2237  0.7324
15023TIP3    H266561   1.796   1.176   1.609  0.1361 -0.6775  1.8818
15024TIP3   OH266562   3.667   1.614  14.442 -0.2712 -0.0394  0.0527
15024TIP3    H166563   3.724   1.691  14.448 -0.4108  0.0034  0.8717
15024TIP3    H266564   3.582   1.650  14.415  0.1831 -0.1576 -1.6679
15025TIP3   OH266565   6.074   3.891  13.125  0.0847 -0.0767  0.1407
15025TIP3    H166566   6.046   3.928  13.041 -0.6322  1.4393  0.9951
15025TIP3    H266567   6.149   3.835  13.104 -0.4691 -0.2204 -1.5715
15026TIP3   OH266568   0.339   4.480   1.358 -0.3962  0.6024 -0.3003
15026TIP3    H166569   0.382   4.469   1.274 -1.8035 -1.3986 -0.8436
15026TIP3    H266570   0.408   4.467   1.423  0.2706 -0.3008 -1.1551
15027TIP3   OH266571   0.604   2.645   6.005  0.4019 -0.1671 -0.1533
15027TIP3    H166572   0.521   2.599   5.989  0.1743 -0.4214  1.5513
15027TIP3    H266573   0.630   2.616   6.093  1.6838  0.8488 -0.1790
15028TIP3   OH266574   0.531   0.053  15.173  0.1138 -0.8881  0.6384
15028TIP3    H166575   0.460   0.040  15.235  0.8177 -1.3159  1.3677
15028TIP3    H266576   0.593   0.111  15.217 -0.8531  1.4688 -0.8870
15029TIP3   OH266577   2.952   2.260  14.505 -0.4867  0.1789 -0.0743
15029TIP3    H166578   2.944   2.227  14.416  1.5834 -0.1743 -0.1862
15029TIP3    H266579   3.010   2.197  14.549  0.3101  1.4995  0.8502
15030TIP3   OH266580   0.246   4.033  10.956  0.0243 -0.5328  0.2377
15030TIP3    H166581   0.227   4.070  10.870  0.6702 -1.5775 -0.3797
15030TIP3    H266582   0.247   4.108  11.015  0.1814  0.2803 -0.7715
15031TIP3   OH266583   0.714   0.493   2.884  0.2281  0.4565  0.1752
15031TIP3    H166584   0.770   0.421   2.855  1.4887  0.9273  1.3363
15031TIP3    H266585   0.671   0.460   2.963 -1.1908  0.0998 -0.7029
15032TIP3   OH266586   6.126   5.502  13.919  0.0531 -0.2970 -0.1843
15032TIP3    H166587   6.089   5.536  14.001  0.4766  1.5828 -0.7163
15032TIP3    H266588   6.216   5.481  13.941  0.0056 -0.3423 -0.0254
15033TIP3   OH266589   2.993   2.656   4.165  0.3236 -0.0071 -0.0799
15033TIP3    H166590   3.046   2.615   4.097 -0.2050 -3.3346  1.3167
15033TIP3    H266591   2.909   2.674   4.123  0.8818  0.5601 -0.9797
15034TIP3   OH266592   6.108   1.042  12.480 -0.2419  0.1637 -0.0828
15034TIP3    H166593   6.126   1.069  12.570 -0.0933  1.6482 -0.5300
15034TIP3    H266594   6.194   1.033  12.440 -0.3167 -0.1125 -0.1818
15035TIP3   OH266595   3.324   1.928   2.547 -0.0310  0.0265  0.1338
15035TIP3    H166596   3.408   1.882   2.544 -0.5316 -1.0141  1.2537
15035TIP3    H266597   3.274   1.883   2.615 -2.1345 -0.5041 -1.6370
15036TIP3   OH266598   0.144   0.108   1.717  0.2283 -0.2261  0.3483
15036TIP3    H166599   0.188   0.168   1.657 -1.0798 -0.4383 -0.8852
15036TIP3    H266600   0.150   0.023   1.674 -3.5897  0.1216 -1.2979
15037TIP3   OH266601   4.590   5.918   1.148 -0.2259  0.6432  0.5240
15037TIP3    H166602   4.538   5.866   1.086 -1.9880  2.5883  0.2758
15037TIP3    H266603   4.527   5.948   1.213  0.7594  2.2899  0.7581
15038TIP3   OH266604   3.215   3.213  15.155 -0.2276  0.1875  0.1275
15038TIP3    H166605   3.122   3.191  15.168 -0.6192  2.4630  1.7511
15038TIP3    H266606   3.262   3.134  15.182 -1.6606 -0.7208  0.0691
15039TIP3   OH266607   0.402   2.604   0.098  0.1589 -0.2594 -0.0085
15039TIP3    H166608   0.311   2.620   0.071 -0.8162 -2.4902  1.5639
15039TIP3    H266609   0.428   2.684   0.144  0.0167  1.4859 -2.7392
15040TIP3   OH266610   4.751   6.735   0.174  0.1732 -0.8964  0.0362
15040TIP3    H166611   4.755   6.721   0.268  1.3360  0.1933  0.1751
15040TIP3    H266612   4.683   6.675   0.143 -0.7139 -0.7676  1.6551
15041TIP3   OH266613   6.640   1.274   3.370 -0.1475  0.6478 -0.2473
15041TIP3    H166614   6.668   1.341   3.308 -1.1613  0.2563 -1.1646
15041TIP3    H266615   6.552   1.302   3.397  0.5750  1.2372  1.6590
15042TIP3   OH266616   6.593   4.114   1.168  0.3421  0.0133  0.4044
15042TIP3    H166617   6.513   4.151   1.131  0.1243 -0.6222  0.2181
15042TIP3    H266618   6.632   4.185   1.218 -0.0670  0.4861  0.0625
15043TIP3   OH266619   0.696   6.469   1.628  0.1492  0.7515  0.4254
15043TIP3    H166620   0.685   6.523   1.550  2.2325 -0.5238 -0.8561
15043TIP3    H266621   0.790   6.467   1.642  0.0927 -1.7822  0.9190
15044TIP3   OH266622   4.486   4.571   0.431  0.3238  0.0582  0.0235
15044TIP3    H166623   4.405   4.520   0.439  0.1450  0.3562  0.1514
15044TIP3    H266624   4.474   4.644   0.492  0.2287  0.6980 -0.7438
15045TIP3   OH266625   5.283   5.807   0.791 -0.2639  0.3669  0.1032
15045TIP3    H166626   5.247   5.747   0.726  1.7454 -0.5866 -0.2109
15045TIP3    H266627   5.287   5.756   0.872  0.8069  0.2527  0.0022
15046TIP3   OH266628   2.812   0.160   1.467  0.1283 -0.0067  0.4147
15046TIP3    H166629   2.900   0.172   1.431 -0.5067 -1.1355 -1.6359
15046TIP3    H266630   2.808   0.068   1.492  0.0850  0.4428  2.1976
15047TIP3   OH266631   3.268   1.251  15.854 -0.0815  0.2810  0.0528
15047TIP3    H166632   3.330   1.312  15.895  1.0616 -1.4773  1.0366
15047TIP3    H266633   3.307   1.231  15.769 -0.1258  0.4105  0.0015
15048TIP3   OH266634   1.745   1.573  17.349  0.2966 -0.5550  0.3565
15048TIP3    H166635   1.773   1.647  17.296 -2.9305 -1.1890 -2.6031
15048TIP3    H266636   1.753   1.497  17.291 -1.3169 -1.6673  1.4855
15049TIP3   OH266637   4.086   3.200   5.582 -0.4848  0.1857  0.2572
15049TIP3    H166638   4.101   3.195   5.488 -0.3526 -0.7001  0.3128
15049TIP3    H266639   4.019   3.267   5.593 -0.1007  0.6892 -0.4144
15050TIP3   OH266640   2.001   2.205  15.834  0.0731  0.2103  0.0709
15050TIP3    H166641   1.945   2.198  15.912 -1.2412 -0.1608 -0.8620
15050TIP3    H266642   2.039   2.118  15.824 -3.0854 -1.1410 -2.0075
15051TIP3   OH266643   5.561   4.022  12.674 -0.5306  0.8208  0.0297
15051TIP3    H166644   5.494   3.961  12.643 -0.7524  2.0769 -2.1422
15051TIP3    H266645   5.512   4.096  12.710 -0.2603  0.0598  2.0904
15052TIP3   OH266646   5.094   3.364  17.257  0.1366 -0.4602  0.6127
15052TIP3    H166647   5.096   3.456  17.284  0.5731 -0.7339  1.5508
15052TIP3    H266648   5.006   3.334  17.280 -1.1488  0.5024 -2.5145
15053TIP3   OH266649   6.497   1.895  15.990 -0.4145  0.0365 -0.0315
15053TIP3    H166650   6.589   1.876  16.009 -0.6773 -1.6706 -0.3280
15053TIP3    H266651   6.466   1.820  15.940 -2.5062 -0.4030  1.7511
15054TIP3   OH266652   6.339   0.818   5.030  0.1616 -0.0983 -0.0642
15054TIP3    H166653   6.329   0.768   4.949  1.4176 -2.5675  1.1845
15054TIP3    H266654   6.356   0.907   5.001 -1.8168 -0.3720 -2.4450
15055TIP3   OH266655   3.247   2.768  13.051  0.3449  0.5166 -0.8487
15055TIP3    H166656   3.288   2.840  13.098 -1.8477  1.9764 -1.0355
15055TIP3    H266657   3.190   2.726  13.116 -0.3839  0.6406 -1.3891
15056TIP3   OH266658   3.093   2.653  15.167  0.4039 -0.2947 -0.4022
15056TIP3    H166659   3.030   2.706  15.214 -0.1692 -1.1370 -0.2007
15056TIP3    H266660   3.067   2.660  15.075 -1.0428 -1.9530 -0.1754
15057TIP3   OH266661   0.357   1.504   6.157 -0.3156  0.1924  0.4064
15057TIP3    H166662   0.283   1.555   6.189 -0.6739 -0.4850  0.6737
15057TIP3    H266663   0.422   1.510   6.226  0.3008  1.6135 -0.2430
15058TIP3   OH266664   0.403   3.379  16.084 -0.0887 -0.0508  0.1440
15058TIP3    H166665   0.474   3.419  16.134 -1.4553  0.6174  1.6041
15058TIP3    H266666   0.417   3.285  16.094  0.8254  0.0653  0.0505
15059TIP3   OH266667   0.128   4.894   6.753  0.0456 -0.3234 -0.2338
15059TIP3    H166668   0.125   4.807   6.713 -1.4202  0.0012 -0.8895
15059TIP3    H266669   0.039   4.910   6.782  0.1322  1.2358 -0.7572
15060TIP3   OH266670   1.664   5.552   0.443  0.5571  0.6547 -0.8337
15060TIP3    H166671   1.722   5.484   0.410  0.2431 -0.4701  0.7635
15060TIP3    H266672   1.721   5.627   0.459  1.8467 -0.7118  1.5709
15061TIP3   OH266673   4.293   5.190   5.308  0.0787  0.3882  0.0054
15061TIP3    H166674   4.261   5.120   5.364 -1.7638  0.4601 -0.9003
15061TIP3    H266675   4.310   5.263   5.368  0.5671 -0.3164  0.7507
15062TIP3   OH266676   5.093   5.793  13.389 -0.0362 -0.0234 -0.3707
15062TIP3    H166677   5.083   5.875  13.342  1.8293  1.0299  0.9430
15062TIP3    H266678   5.005   5.771  13.419 -0.3993  2.1511  0.2600
15063TIP3   OH266679   2.637   3.505  13.994  0.4336 -0.5484  0.4194
15063TIP3    H166680   2.558   3.482  13.945  1.1179 -2.3099  0.0481
15063TIP3    H266681   2.625   3.463  14.079 -0.4181  1.8776  1.5871
15064TIP3   OH266682   5.685   2.982   3.648 -0.1000 -0.1847 -0.1392
15064TIP3    H166683   5.695   3.013   3.738 -0.0909 -2.1233  0.5625
15064TIP3    H266684   5.596   3.009   3.624 -0.4662 -0.4868  0.8092
15065TIP3   OH266685   4.659   4.772  12.938 -0.3866 -0.6982 -0.4227
15065TIP3    H166686   4.749   4.792  12.913  0.4770 -1.9316  1.4800
15065TIP3    H266687   4.667   4.709  13.009 -2.7754 -0.9005 -0.2447
15066TIP3   OH266688   0.812   4.956   0.317 -0.0522 -0.1921  0.5212
15066TIP3    H166689   0.845   4.910   0.240 -0.5412  1.1121 -0.4925
15066TIP3    H266690   0.890   4.993   0.358 -0.0351  1.6596 -1.0606
15067TIP3   OH266691   5.145   6.007   3.002 -0.2987  0.7466 -0.6654
15067TIP3    H166692   5.183   6.082   2.956  1.5417  0.9899  1.1058
15067TIP3    H266693   5.083   6.046   3.064  1.0837  0.8935  0.6587
15068TIP3   OH266694   1.597   1.323  11.275  0.0662  0.0134  0.3551
15068TIP3    H166695   1.618   1.236  11.310  0.8844 -0.6985 -1.7426
15068TIP3    H266696   1.682   1.365  11.262 -0.3411  1.9784  3.1163
15069TIP3   OH266697   0.292   4.699  13.367  0.0997  0.2637  0.2524
15069TIP3    H166698   0.242   4.766  13.414 -0.4400 -0.2168  0.3740
15069TIP3    H266699   0.237   4.676  13.293  0.7100  0.6277 -0.3309
15070TIP3   OH266700   1.706   3.230  13.176  0.1880  0.2071 -0.5058
15070TIP3    H166701   1.760   3.235  13.097 -1.2137 -2.9851 -1.8351
15070TIP3    H266702   1.723   3.143  13.211 -0.9367  0.7201  1.4883
15071TIP3   OH266703   4.960   2.224  16.599 -0.1879 -0.9588 -0.5474
15071TIP3    H166704   5.003   2.292  16.546 -1.1057  1.2367  1.3620
15071TIP3    H266705   4.886   2.196  16.545 -0.8152  0.8489 -0.6805
15072TIP3   OH266706   4.128   5.438  15.166 -0.0206 -0.2651 -0.2123
15072TIP3    H166707   4.104   5.526  15.136 -2.8912 -0.6318  0.6826
15072TIP3    H266708   4.158   5.451  15.256 -0.0188 -0.1577 -0.2280
15073TIP3   OH266709   1.199   2.965  15.777  0.3566 -0.0929  0.8974
15073TIP3    H166710   1.138   3.032  15.748  2.8031  2.0605  0.3490
15073TIP3    H266711   1.145   2.887  15.791 -2.5254  1.7954  0.9875
15074TIP3   OH266712   3.196   3.113  14.321 -0.4585  0.1539 -0.3239
15074TIP3    H166713   3.175   3.191  14.269 -0.7868  0.5644  0.4155
15074TIP3    H266714   3.161   3.040  14.270 -2.7908  0.7219  0.3525
15075TIP3   OH266715   2.411   0.082  15.674  0.3116 -0.2089  0.2625
15075TIP3    H166716   2.471   0.107  15.604  0.8054 -0.0273  0.7392
15075TIP3    H266717   2.334   0.137  15.660  0.5350  0.0544  0.0476
15076TIP3   OH266718   4.113   0.501  12.210  0.1187  0.4887 -0.4099
15076TIP3    H166719   4.051   0.448  12.260  0.1174  0.6561 -0.2350
15076TIP3    H266720   4.162   0.550  12.276  0.1559  0.6687 -0.5700
15077TIP3   OH266721   3.893   5.626  16.669  0.6729 -0.5222  0.0530
15077TIP3    H166722   3.947   5.643  16.592 -1.4649  1.0009 -1.2235
15077TIP3    H266723   3.889   5.531  16.675 -0.0878 -0.7471 -2.5338
15078TIP3   OH266724   4.599   4.241  12.237  0.8485 -0.1278 -0.3809
15078TIP3    H166725   4.524   4.181  12.236 -0.1725  1.1257 -0.8689
15078TIP3    H266726   4.645   4.223  12.156  0.9907 -0.7845 -0.1622
15079TIP3   OH266727   3.605   4.526   1.793 -0.4736  0.5748 -0.4567
15079TIP3    H166728   3.561   4.521   1.877  1.5505  1.2569  0.7249
15079TIP3    H266729   3.566   4.602   1.749  0.0185  1.6387  0.8808
15080TIP3   OH266730   5.901   6.109  16.020 -0.5709 -0.0032  0.2529
15080TIP3    H166731   5.921   6.115  15.927 -0.0863  1.0056  0.4191
15080TIP3    H266732   5.806   6.095  16.023 -0.4170 -1.3716 -0.4225
15081TIP3   OH266733   5.504   4.554  11.725  0.2528  0.5340  0.2332
15081TIP3    H166734   5.524   4.503  11.647 -1.4368 -0.4858  0.4236
15081TIP3    H266735   5.477   4.640  11.691 -1.2420 -0.1439 -0.4086
15082TIP3   OH266736   4.387   3.270   4.273  0.5694 -0.3669  0.3750
15082TIP3    H166737   4.434   3.196   4.235 -1.0867 -0.2655 -2.0504
15082TIP3    H266738   4.435   3.347   4.242  0.7812 -0.3378  0.7632
15083TIP3   OH266739   4.609   0.524  13.616  0.1223 -0.2408 -0.1309
15083TIP3    H166740   4.562   0.597  13.574 -0.9109 -0.4970  0.5335
15083TIP3    H266741   4.674   0.497  13.552  0.8773  1.6003 -0.2000
15084TIP3   OH266742   1.767   6.581  15.522 -0.5017  0.4157 -0.5590
15084TIP3    H166743   1.812   6.666  15.516  1.1433 -0.2401  1.3510
15084TIP3    H266744   1.699   6.594  15.588  1.2291 -0.2501  1.4754
15085TIP3   OH266745   5.248   5.121  16.227  0.2457  0.6919 -0.3865
15085TIP3    H166746   5.168   5.069  16.225  0.5193  0.2516 -0.1498
15085TIP3    H266747   5.283   5.107  16.315  0.8435  0.4640 -0.6498
15086TIP3   OH266748   2.207   5.752   0.728 -0.2209 -0.2377  0.1424
15086TIP3    H166749   2.188   5.751   0.821 -2.1923  0.4439 -0.2028
15086TIP3    H266750   2.154   5.823   0.693  1.6560  0.5691 -1.2952
15087TIP3   OH266751   4.433   2.517  14.642  0.1002  0.5581 -0.0924
15087TIP3    H166752   4.364   2.526  14.707 -1.2953 -0.8050 -1.3137
15087TIP3    H266753   4.440   2.422  14.628  1.5281  0.7293 -0.7411
15088TIP3   OH266754   5.879   5.553  10.987  0.4322  0.4184 -0.2157
15088TIP3    H166755   5.924   5.502  10.921 -1.6891 -0.7975 -0.8410
15088TIP3    H266756   5.884   5.499  11.066 -0.3931 -0.0184 -0.4477
15089TIP3   OH266757   2.098   2.734  11.937  0.0749  0.2988 -0.6638
15089TIP3    H166758   2.064   2.645  11.940  2.3213 -0.7052 -1.9782
15089TIP3    H266759   2.043   2.779  11.873 -1.2240 -0.0454  0.1830
15090TIP3   OH266760   0.255   5.781   0.920  0.0536 -0.1858 -0.2583
15090TIP3    H166761   0.345   5.758   0.899 -0.6838 -0.6644 -3.3278
15090TIP3    H266762   0.248   5.765   1.015  2.9975 -0.6148 -0.0151
15091TIP3   OH266763   0.203   3.968   3.809  0.5226 -0.0675  0.0212
15091TIP3    H166764   0.284   3.926   3.838  2.6213  1.3394 -3.1539
15091TIP3    H266765   0.214   4.060   3.832 -0.2416  0.1086 -0.2824
15092TIP3   OH266766   2.123   3.443   3.359 -0.5211 -1.0613  0.5676
15092TIP3    H166767   2.065   3.415   3.288 -0.8929  1.1876 -0.0903
15092TIP3    H266768   2.065   3.475   3.427 -0.1021  0.0852  0.4027
15093TIP3   OH266769   5.196   6.785   1.430  0.3248 -0.3757  0.0444
15093TIP3    H166770   5.203   6.764   1.337 -0.8512 -0.5046 -0.0390
15093TIP3    H266771   5.183   6.700   1.473  0.1643 -0.2582  0.2342
15094TIP3   OH266772   4.292   3.518   0.419  0.2455  0.1560  0.6604
15094TIP3    H166773   4.281   3.437   0.469 -1.6193 -0.7578 -1.1011
15094TIP3    H266774   4.226   3.577   0.453 -0.6340 -0.2644 -0.2667
15095TIP3   OH266775   2.979   1.949   0.038 -0.2798 -0.5678 -0.0781
15095TIP3    H166776   3.005   1.905  -0.043 -0.1503  0.2376 -0.4795
15095TIP3    H266777   3.059   1.992   0.069 -0.3347 -0.8457  0.4662
15096TIP3   OH266778   3.950   6.565  14.009  0.5057 -0.1846  0.5431
15096TIP3    H166779   3.877   6.585  14.067  0.8200  0.7830  0.6330
15096TIP3    H266780   3.960   6.470  14.014 -1.3876 -0.4780 -0.2489
15097TIP3   OH266781   1.279   1.692  12.552 -0.2305 -0.3252  0.9343
15097TIP3    H166782   1.272   1.740  12.469 -2.6627 -0.5541  0.9262
15097TIP3    H266783   1.283   1.600  12.526  0.8149 -0.3142  1.0384
15098TIP3   OH266784   2.776   4.378  15.097 -0.0041  0.1653 -0.5165
15098TIP3    H166785   2.773   4.283  15.111 -2.3384  0.1249 -0.8574
15098TIP3    H266786   2.833   4.390  15.021  0.9190 -0.8772 -0.0105
15099TIP3   OH266787   6.330   3.694  12.736 -0.0631 -0.0308  0.1101
15099TIP3    H166788   6.279   3.771  12.712 -0.8886 -0.6031 -0.0167
15099TIP3    H266789   6.416   3.708  12.696 -0.5565  0.2966 -0.8576
15100TIP3   OH266790   3.434   2.731   3.938  0.3100 -0.2028 -0.0718
15100TIP3    H166791   3.473   2.672   3.874  3.6058  1.5102  0.1343
15100TIP3    H266792   3.443   2.685   4.022  2.5823  0.3300  0.0459
15101TIP3   OH266793   6.674   5.116  13.753 -0.4783 -0.5275 -0.2719
15101TIP3    H166794   6.710   5.204  13.738  0.5330 -0.3112  2.7789
15101TIP3    H266795   6.593   5.115  13.703 -1.7928  3.0617  1.4483
15102TIP3   OH266796   0.835   2.566   4.475  0.9003  0.1851  0.3776
15102TIP3    H166797   0.759   2.623   4.465 -0.5551 -1.4724  1.4429
15102TIP3    H266798   0.848   2.559   4.569  0.8612 -1.3837  0.3068
15103TIP3   OH266799   1.691   3.728   2.995 -0.7000  0.7853  0.4196
15103TIP3    H166800   1.760   3.727   2.929  1.0190  1.7297  2.0873
15103TIP3    H266801   1.674   3.636   3.014  2.3470  0.4185  2.0813
15104TIP3   OH266802   6.607   5.859   6.220 -0.4079  0.4110  0.3824
15104TIP3    H166803   6.687   5.810   6.204 -0.5685  0.2014  0.2123
15104TIP3    H266804   6.541   5.792   6.239 -0.9306  0.4655 -1.1161
15105TIP3   OH266805   3.219   0.874   2.483 -0.0724  0.1885 -0.6782
15105TIP3    H166806   3.169   0.837   2.411 -0.2797  0.5085 -0.7020
15105TIP3    H266807   3.157   0.879   2.555  0.9611 -3.4146  0.6832
15106TIP3   OH266808   5.565   3.840   3.316  0.4407  0.0995  0.1402
15106TIP3    H166809   5.655   3.848   3.285 -0.0989  0.6408 -1.3680
15106TIP3    H266810   5.563   3.756   3.363  1.5454 -0.2595 -0.4258
15107TIP3   OH266811   6.114   0.482   5.963  0.0153 -0.2814 -0.1540
15107TIP3    H166812   6.088   0.568   5.931 -2.1926 -0.7032  0.3268
15107TIP3    H266813   6.180   0.501   6.030 -1.7887  1.2322  1.3171
15108TIP3   OH266814   2.225   6.388  14.979 -0.0033  0.1306 -0.5666
15108TIP3    H166815   2.264   6.473  14.997  0.1465  0.6902 -3.1600
15108TIP3    H266816   2.299   6.327  14.977  0.0430  0.1630 -0.0124
15109TIP3   OH266817   1.098   3.880   6.179 -0.0601  0.1896 -0.0384
15109TIP3    H166818   1.071   3.958   6.229  1.2135  1.5718 -1.3928
15109TIP3    H266819   1.143   3.916   6.102  1.4473 -1.9361 -0.2071
15110TIP3   OH266820   3.130   2.074   1.504  0.3336 -0.1930 -0.2348
15110TIP3    H166821   3.211   2.124   1.495  1.0276 -0.9818  1.2511
15110TIP3    H266822   3.102   2.088   1.594 -1.7080  0.7514 -0.9358
15111TIP3   OH266823   3.844   2.464   1.532  0.2200  0.2788  0.0145
15111TIP3    H166824   3.892   2.541   1.501 -0.0912  0.9826  1.2019
15111TIP3    H266825   3.876   2.450   1.621 -0.9902  0.1013  0.4431
15112TIP3   OH266826   0.817   5.614   0.778 -0.3363 -0.6756  0.3011
15112TIP3    H166827   0.862   5.556   0.717 -1.5429 -2.1329  0.7150
15112TIP3    H266828   0.861   5.600   0.862 -0.3019 -0.5974  0.2963
15113TIP3   OH266829   2.594   5.532   5.875 -0.1035  0.2124  0.1369
15113TIP3    H166830   2.650   5.501   5.803 -0.1652 -0.3775  0.3424
15113TIP3    H266831   2.542   5.602   5.835 -0.2872 -0.2480 -0.4522
15114TIP3   OH266832   6.428   3.940  16.307  0.5459  0.0947  0.1491
15114TIP3    H166833   6.364   3.944  16.236  2.0875  1.1148 -1.2877
15114TIP3    H266834   6.456   3.848  16.309  0.1181 -0.0459 -0.2317
15115TIP3   OH266835   0.992   2.783   6.670 -0.3994 -0.3309  0.0396
15115TIP3    H166836   0.911   2.732   6.674 -0.2621 -0.5101  0.6587
15115TIP3    H266837   0.967   2.872   6.693 -0.3183 -0.5202  0.9080
15116TIP3   OH266838   6.112   1.943  14.436  0.5607 -0.6093  0.4051
15116TIP3    H166839   6.169   1.895  14.497  0.3577 -1.2726  0.0793
15116TIP3    H266840   6.080   1.876  14.376  0.8505  0.0551 -0.5101
15117TIP3   OH266841   2.027   1.475  15.008 -0.4207 -0.1335  0.2334
15117TIP3    H166842   2.084   1.400  15.027  0.6569  0.4976 -0.3902
15117TIP3    H266843   1.938   1.440  15.014  0.0573 -1.9834 -2.0409
15118TIP3   OH266844   2.026   5.240   3.528 -0.3817  0.0960 -0.2665
15118TIP3    H166845   1.946   5.200   3.563  0.0138 -0.5242 -0.0578
15118TIP3    H266846   2.048   5.187   3.452 -0.7278  0.8845 -0.9358
15119TIP3   OH266847   4.811   6.609   3.991  0.5040  0.7213  0.1212
15119TIP3    H166848   4.839   6.698   3.973  1.2037  0.8770  1.8037
15119TIP3    H266849   4.859   6.555   3.927  0.9041  1.4423 -0.1948
15120TIP3   OH266850   2.404   5.870  13.133  0.4328  0.2282  0.6519
15120TIP3    H166851   2.453   5.797  13.170  0.7026 -0.3157 -0.7163
15120TIP3    H266852   2.470   5.927  13.095  0.0415 -0.9675 -2.0215
15121TIP3   OH266853   1.669   4.159  15.032  0.1918 -0.1082  0.3270
15121TIP3    H166854   1.739   4.217  15.002 -2.1667  2.4240 -0.7229
15121TIP3    H266855   1.677   4.159  15.128  1.2570  0.5782  0.2545
15122TIP3   OH266856   3.803   2.017  16.223  0.8775  0.6416 -0.4571
15122TIP3    H166857   3.745   1.962  16.170 -0.3367  0.3773  1.0890
15122TIP3    H266858   3.744   2.061  16.285  2.1610  1.5684  0.1493
15123TIP3   OH266859   3.155   5.297   2.539 -0.3392 -0.0544 -0.0539
15123TIP3    H166860   3.084   5.320   2.598 -2.2901  1.3652 -2.7135
15123TIP3    H266861   3.215   5.372   2.543  0.4579 -0.7395  1.3396
15124TIP3   OH266862   2.812   5.414  14.044  0.1617  0.1672 -0.4364
15124TIP3    H166863   2.885   5.459  14.002 -0.2761  1.1196 -0.2137
15124TIP3    H266864   2.802   5.458  14.128  1.7007 -2.3901  1.2033
15125TIP3   OH266865   4.435   3.618  11.857  0.8512 -0.1663 -0.0101
15125TIP3    H166866   4.370   3.560  11.896  0.0479  1.1454  0.6893
15125TIP3    H266867   4.517   3.595  11.900  1.1767 -2.6269 -1.7056
15126TIP3   OH266868   5.999   3.947  16.183  0.1162  0.3212  0.1922
15126TIP3    H166869   6.022   4.002  16.258  0.8044  1.0188 -0.5083
15126TIP3    H266870   5.986   4.009  16.111  0.0515 -0.3761 -0.4057
15127TIP3   OH266871   2.627   4.998   2.570 -0.2053 -0.4313 -0.1058
15127TIP3    H166872   2.635   5.026   2.661  0.4620 -2.7229  0.6280
15127TIP3    H266873   2.715   4.968   2.546 -0.8941 -2.2645 -0.5865
15128TIP3   OH266874   3.620   3.107  16.795 -0.1361  0.2631  0.2266
15128TIP3    H166875   3.703   3.082  16.754  0.3066  1.3190  0.4463
15128TIP3    H266876   3.581   3.024  16.822 -0.2520 -0.4606 -1.9511
15129TIP3   OH266877   6.072   3.915   4.830  0.0685 -0.0820  0.0283
15129TIP3    H166878   6.071   3.949   4.920 -2.9192 -0.4039  0.2200
15129TIP3    H266879   6.021   3.979   4.780 -1.6279 -1.7977 -0.5775
15130TIP3   OH266880   2.638   0.448  11.720 -0.1229  0.3003 -0.1760
15130TIP3    H166881   2.576   0.422  11.652 -0.6470  1.8562 -0.3261
15130TIP3    H266882   2.709   0.491  11.673 -0.0646  0.5979  0.1820
15131TIP3   OH266883   0.743   5.185  15.909 -0.1595 -0.0780 -0.1203
15131TIP3    H166884   0.721   5.183  16.003 -0.1710 -0.6364 -0.1287
15131TIP3    H266885   0.685   5.252  15.873 -1.5368 -1.1617 -0.0445
15132TIP3   OH266886   4.352   1.095  14.682 -0.2287  0.1887 -0.2803
15132TIP3    H166887   4.430   1.128  14.727  0.0201  1.2566 -1.4340
15132TIP3    H266888   4.329   1.016  14.730  0.8685  0.4913  0.8137
15133TIP3   OH266889   2.866   1.462   5.652 -0.5502 -0.0634 -0.4691
15133TIP3    H166890   2.771   1.469   5.646 -0.6389 -0.9758 -0.1667
15133TIP3    H266891   2.890   1.521   5.724 -1.1385 -1.5425  1.0085
15134TIP3   OH266892   3.803   0.331  16.047 -0.2105  0.1028  0.0338
15134TIP3    H166893   3.884   0.288  16.023 -0.2964  0.3014 -0.6382
15134TIP3    H266894   3.819   0.367  16.134  0.8152  1.1105 -0.5469
15135TIP3   OH266895   2.108   1.963   2.835 -1.2545 -0.0294  0.3058
15135TIP3    H166896   2.129   1.973   2.928 -2.3880 -0.4880  0.6300
15135TIP3    H266897   2.094   1.869   2.824  3.6111 -0.8469 -1.4429
15136TIP3   OH266898   3.789   5.889   0.324  0.4607 -0.0255  0.7022
15136TIP3    H166899   3.761   5.798   0.313 -1.3206  0.6669 -1.0129
15136TIP3    H266900   3.885   5.884   0.330  0.6062 -1.8311 -1.7613
15137TIP3   OH266901   6.606   1.164  16.142 -0.4670 -0.4048 -0.3138
15137TIP3    H166902   6.674   1.185  16.205 -1.5771 -0.7888  1.0729
15137TIP3    H266903   6.650   1.112  16.075  0.6552 -0.4086  0.4009
15138TIP3   OH266904   1.290   3.463  13.858  0.1280 -0.1309 -0.6068
15138TIP3    H166905   1.236   3.528  13.902 -0.7682 -1.7700  0.8564
15138TIP3    H266906   1.371   3.462  13.908  0.0240 -0.3471 -0.4415
15139TIP3   OH266907   4.687   1.792   3.365  0.2905 -0.3086  0.3612
15139TIP3    H166908   4.689   1.829   3.453 -2.2730 -0.3923  0.5392
15139TIP3    H266909   4.733   1.857   3.311 -1.2507  1.6202  1.2044
15140TIP3   OH266910   0.963   3.503  12.727  0.0650 -0.1169 -0.7977
15140TIP3    H166911   0.895   3.436  12.724 -0.5726  0.3255  1.5118
15140TIP3    H266912   1.037   3.460  12.769 -0.1897  0.4392  0.2719
15141TIP3   OH266913   1.829   6.598  14.471  0.2792 -0.7260  0.1775
15141TIP3    H166914   1.782   6.681  14.457  0.4827 -0.9242 -2.1901
15141TIP3    H266915   1.761   6.531  14.463  0.4569 -0.8769 -0.0700
15142TIP3   OH266916   1.187   4.068   0.268  0.3902  0.0883 -0.5111
15142TIP3    H166917   1.231   4.050   0.185 -2.9200 -0.2226 -2.3428
15142TIP3    H266918   1.178   4.163   0.270  2.0226  0.2642  0.4419
15143TIP3   OH266919   5.815   2.684  17.012  0.2146  0.1763  0.7142
15143TIP3    H166920   5.902   2.715  17.036 -0.0663  1.4944  0.1413
15143TIP3    H266921   5.781   2.752  16.953 -0.4430 -1.2588 -0.6441
15144TIP3   OH266922   5.624   2.660   3.184  1.1287  0.4065 -0.6063
15144TIP3    H166923   5.635   2.755   3.190 -0.8394  0.7373 -1.2450
15144TIP3    H266924   5.568   2.638   3.259  2.1653 -0.3804 -0.0459
15145TIP3   OH266925   5.661   1.712   5.680 -0.7841  0.1509 -0.3389
15145TIP3    H166926   5.731   1.691   5.619  0.6544 -1.3488  1.6629
15145TIP3    H266927   5.627   1.626   5.708 -1.4326  0.7665  0.8668
15146TIP3   OH266928   0.804   2.938  11.952  0.1068 -0.1373 -0.4306
15146TIP3    H166929   0.810   2.990  12.032 -0.1101 -4.0554  2.4264
15146TIP3    H266930   0.895   2.926  11.925  0.3983 -0.8903  0.8052
15147TIP3   OH266931   5.502   2.920  11.099 -0.0148  0.3859  0.3738
15147TIP3    H166932   5.490   3.000  11.048 -0.4872  0.0352 -0.0768
15147TIP3    H266933   5.469   2.942  11.187  1.5737  1.2531  0.7856
15148TIP3   OH266934   2.909   2.603   0.569 -0.4103 -0.3488 -0.0567
15148TIP3    H166935   2.960   2.655   0.631  0.4460 -1.1302 -0.0669
15148TIP3    H266936   2.927   2.512   0.594 -0.9869 -0.6545 -0.7163
15149TIP3   OH266937   2.270   4.865   4.453 -0.1493 -0.1168 -0.0723
15149TIP3    H166938   2.186   4.824   4.430  0.7543 -1.3568 -1.3701
15149TIP3    H266939   2.256   4.901   4.540 -1.5880 -1.6608  0.3970
15150TIP3   OH266940   2.124   6.793   4.931 -0.4766  0.3382  0.4118
15150TIP3    H166941   2.140   6.864   4.993  1.8433  0.4527 -0.2338
15150TIP3    H266942   2.144   6.831   4.845  1.4447 -1.1799  0.1100
15151TIP3   OH266943   5.919   2.190   1.188 -0.4318  0.0218 -0.4044
15151TIP3    H166944   5.938   2.150   1.103 -0.0100 -2.9299  0.9606
15151TIP3    H266945   5.975   2.267   1.191 -0.3734  0.1439 -2.7224
15152TIP3   OH266946   0.924   2.864   6.376 -0.8429  0.2137  0.7285
15152TIP3    H166947   0.981   2.895   6.446 -2.3166  1.1108  1.5928
15152TIP3    H266948   0.835   2.886   6.406 -1.8051 -2.5603  0.1833
15153TIP3   OH266949   4.967   0.406   6.634 -0.0062 -0.6474  0.6991
15153TIP3    H166950   5.003   0.460   6.704  0.9949 -0.1459 -0.1722
15153TIP3    H266951   5.035   0.405   6.567 -0.8147 -1.3599 -0.1423
15154TIP3   OH266952   6.026   5.491   4.064  0.0105 -0.8266  0.3671
15154TIP3    H166953   6.065   5.564   4.112  0.3939 -1.1083  0.4899
15154TIP3    H266954   6.060   5.413   4.107 -0.4595 -1.0800  0.2848
15155TIP3   OH266955   1.867   5.191   0.744 -0.5100  0.0615  0.3676
15155TIP3    H166956   1.955   5.153   0.740 -0.0618  0.6621  2.6371
15155TIP3    H266957   1.808   5.116   0.739  0.0680 -0.2945 -1.8520
15156TIP3   OH266958   0.030   2.629   6.384 -0.4068 -0.2598  0.0916
15156TIP3    H166959   0.080   2.709   6.395  1.7670 -1.6222  0.7970
15156TIP3    H266960   0.079   2.563   6.434 -3.4670 -1.5062  1.6728
15157TIP3   OH266961   5.081   0.013   4.946 -0.1998 -0.4048 -0.1695
15157TIP3    H166962   5.033   0.036   4.867 -0.3595  2.7434  0.7136
15157TIP3    H266963   5.028   0.047   5.017  1.7464  0.2696  1.0318
15158TIP3   OH266964   3.578   4.855   2.536  0.4254 -0.0265  0.0404
15158TIP3    H166965   3.568   4.933   2.591  2.0973  0.8779 -0.8553
15158TIP3    H266966   3.505   4.799   2.561  0.3960  0.8940  2.2653
15159TIP3   OH266967   4.807   5.134   3.506 -0.4407  0.7777 -0.2448
15159TIP3    H166968   4.845   5.222   3.503  1.4393  0.0058 -0.6347
15159TIP3    H266969   4.777   5.125   3.597  3.2211  0.3896  1.1266
15160TIP3   OH266970   5.240   3.951  16.034 -0.4809 -0.8499  0.8456
15160TIP3    H166971   5.275   3.864  16.051  0.1647 -0.6777  0.4578
15160TIP3    H266972   5.179   3.939  15.961 -0.4756 -0.9923  0.8650
15161TIP3   OH266973   4.974   0.320  13.059  0.8662 -0.3575 -0.3298
15161TIP3    H166974   4.961   0.414  13.054 -0.8672 -0.4962  0.7891
15161TIP3    H266975   5.019   0.297  12.977  1.9677  1.5088 -0.2926
15162TIP3   OH266976   1.477   1.063   6.485 -0.4782  0.2273  0.4895
15162TIP3    H166977   1.389   1.069   6.524 -0.6624  0.0869  0.0966
15162TIP3    H266978   1.518   0.989   6.529 -1.1495 -0.7655 -0.4822
15163TIP3   OH266979   1.264   4.320  13.267  0.2904  0.1204 -0.0847
15163TIP3    H166980   1.340   4.356  13.314  0.0401  0.4931  0.0343
15163TIP3    H266981   1.236   4.246  13.322  0.9649 -0.4375 -0.4673
15164TIP3   OH266982   1.343   1.059  11.470 -0.2545 -0.1883  0.6452
15164TIP3    H166983   1.364   1.152  11.478 -1.5543  0.0953  0.9852
15164TIP3    H266984   1.357   1.038  11.378 -0.3072  0.4302  0.4950
15165TIP3   OH266985   0.835   1.619  14.593  0.0463 -0.8344 -0.2911
15165TIP3    H166986   0.751   1.639  14.636  1.3110  1.3355  1.3562
15165TIP3    H266987   0.823   1.650  14.503  0.3860  3.8440  1.0141
15166TIP3   OH266988   0.306   1.214  16.207 -0.0887  0.1998 -0.1676
15166TIP3    H166989   0.394   1.237  16.179  0.8574 -3.2391 -0.4316
15166TIP3    H266990   0.268   1.167  16.133 -1.0740 -0.7923  0.9236
15167TIP3   OH266991   2.680   6.105   4.037  0.3211  0.0886  0.0564
15167TIP3    H166992   2.644   6.083   3.951  0.0513  0.1689  0.1468
15167TIP3    H266993   2.759   6.156   4.017 -1.7056  3.4734 -0.2364
15168TIP3   OH266994   5.718   5.760  12.493 -0.7092  0.2113  0.2965
15168TIP3    H166995   5.701   5.678  12.540 -1.2142  0.1548  0.0207
15168TIP3    H266996   5.664   5.754  12.415 -0.0304  0.4012 -0.1891
15169TIP3   OH266997   0.837   6.162  14.604 -0.2088 -0.3379  0.2003
15169TIP3    H166998   0.858   6.093  14.667 -0.0160 -0.3272  0.1479
15169TIP3    H266999   0.826   6.116  14.521  1.4247 -0.1461 -0.1546
15170TIP3   OH267000   0.839   1.188  17.031 -0.3050 -0.1297 -0.3017
15170TIP3    H167001   0.833   1.102  16.989 -0.7865 -1.3251  2.0373
15170TIP3    H267002   0.930   1.215  17.018 -0.3354 -0.6279 -1.7021
15171TIP3   OH267003   6.621   4.119  12.597  0.1956  0.2699  0.5381
15171TIP3    H167004   6.635   4.213  12.597 -1.4004  0.6653 -2.7086
15171TIP3    H267005   6.590   4.099  12.508 -2.2894 -2.8853  1.8861
15172TIP3   OH267006   0.607   6.715   4.803 -1.0542  0.2688  0.0500
15172TIP3    H167007   0.589   6.655   4.876 -1.8641  1.1722  0.6234
15172TIP3    H267008   0.620   6.800   4.845  1.4168  0.3154 -0.6165
15173TIP3   OH267009   2.295   4.565  11.206 -0.2080  0.2780 -0.2330
15173TIP3    H167010   2.338   4.632  11.259 -0.4275  0.5183 -0.3583
15173TIP3    H267011   2.328   4.579  11.118 -0.9533  0.8134 -0.4371
15174TIP3   OH267012   5.220   2.415  10.756 -0.0049 -0.3810 -0.0171
15174TIP3    H167013   5.182   2.494  10.795  2.2898  0.1813  1.2597
15174TIP3    H267014   5.251   2.444  10.670 -0.1580 -0.1879 -0.0092
15175TIP3   OH267015   2.696   0.159   3.264  0.1100 -0.2575  0.1359
15175TIP3    H167016   2.698   0.148   3.359  1.7292 -1.2326  0.0185
15175TIP3    H267017   2.642   0.086   3.232 -1.5582  0.8179  0.3468
15176TIP3   OH267018   6.376   6.538   4.707 -0.4953 -0.2817 -0.2266
15176TIP3    H167019   6.315   6.510   4.775  0.0548 -1.2709 -0.1330
15176TIP3    H267020   6.364   6.633   4.703  0.1758 -0.0625  1.9625
15177TIP3   OH267021   0.340   4.864  10.510  0.1698  0.3068 -0.2415
15177TIP3    H167022   0.431   4.894  10.502 -0.0628  0.7541 -1.4345
15177TIP3    H267023   0.294   4.940  10.546  0.1894  0.2370 -0.0705
15178TIP3   OH267024   5.332   3.211   2.840 -0.0693  0.1148 -0.4194
15178TIP3    H167025   5.314   3.181   2.929 -1.3798  0.7724 -0.4398
15178TIP3    H267026   5.392   3.285   2.852  0.2136 -0.1638 -0.1178
15179TIP3   OH267027   3.682   4.248  12.342  0.2966  0.2565 -0.1327
15179TIP3    H167028   3.687   4.258  12.247 -0.9832  1.6268 -0.1003
15179TIP3    H267029   3.773   4.254  12.372  0.7228 -0.3106 -1.2685
15180TIP3   OH267030   6.333   2.858   1.615  0.2508  0.2347 -0.0551
15180TIP3    H167031   6.402   2.914   1.651 -0.7527  0.8642  0.9652
15180TIP3    H267032   6.328   2.784   1.676 -1.6355  1.4355  1.3715
15181TIP3   OH267033   4.552   4.232   1.384  0.4132  0.0168 -0.0160
15181TIP3    H167034   4.502   4.191   1.455 -1.4946 -0.9474 -1.8236
15181TIP3    H267035   4.576   4.159   1.327 -0.0197  0.9938 -1.5047
15182TIP3   OH267036   5.289   5.956   0.030  0.2002 -0.4261 -1.2020
15182TIP3    H167037   5.341   6.011   0.088 -0.3346 -1.9585  0.8888
15182TIP3    H267038   5.332   5.962  -0.055 -0.1212  3.4950 -1.2382
15183TIP3   OH267039   6.205   1.171   2.560 -0.2043 -0.1128  0.6136
15183TIP3    H167040   6.176   1.261   2.575 -1.0709 -0.3351  0.3080
15183TIP3    H267041   6.224   1.137   2.648 -2.5537 -0.5063  1.0247
15184TIP3   OH267042   3.508   3.494   0.460 -0.0492  0.9511  0.0704
15184TIP3    H167043   3.570   3.563   0.487  0.5997  0.8578 -1.1237
15184TIP3    H267044   3.545   3.460   0.379 -0.3718 -0.8058  0.6253
15185TIP3   OH267045   2.182   4.676  15.911 -0.0376 -0.0957 -0.0883
15185TIP3    H167046   2.149   4.748  15.856 -0.1493  0.2566  0.4318
15185TIP3    H267047   2.113   4.610  15.909 -1.1507  0.9391  1.5876
15186TIP3   OH267048   4.563   2.464  11.984  0.5508 -0.4143  0.3669
15186TIP3    H167049   4.632   2.505  11.931  0.6337  1.9209  2.1146
15186TIP3    H267050   4.524   2.537  12.032 -2.6756 -1.7679  0.0396
15187TIP3   OH267051   0.906   4.448   4.210  0.1071 -0.3365 -0.7693
15187TIP3    H167052   0.912   4.529   4.160  1.6811 -0.1772 -0.3608
15187TIP3    H267053   0.814   4.442   4.234  0.0577  1.6279 -0.3023
15188TIP3   OH267054   2.385   5.891  16.644  0.4857  0.7163  0.5081
15188TIP3    H167055   2.369   5.858  16.556  1.0505  0.3556  0.5373
15188TIP3    H267056   2.313   5.953  16.660 -1.4326 -1.4824  0.9832
15189TIP3   OH267057   5.044   2.139   4.650  0.1911 -0.0928  0.4433
15189TIP3    H167058   5.134   2.147   4.619  0.0055  1.1911  0.1816
15189TIP3    H267059   5.019   2.049   4.628  0.5989  0.2570 -1.7056
15190TIP3   OH267060   6.606   2.786  17.073  0.5719  0.1545 -0.0614
15190TIP3    H167061   6.656   2.866  17.062 -0.1083  0.5704 -0.1906
15190TIP3    H267062   6.515   2.811  17.055  0.2911 -0.5454  0.3150
15191TIP3   OH267063   6.150   6.132  11.071  0.0097  0.0457 -0.7236
15191TIP3    H167064   6.072   6.177  11.037 -1.6034  0.0134  2.5449
15191TIP3    H267065   6.169   6.064  11.006 -1.1531  1.5848 -2.8137
15192TIP3   OH267066   2.881   6.352   5.480  0.2012 -0.3079  0.2662
15192TIP3    H167067   2.929   6.372   5.399 -2.3359  0.2099 -1.2320
15192TIP3    H267068   2.844   6.437   5.506  0.1909 -0.6627  1.4285
15193TIP3   OH267069   4.287   1.849  12.771 -0.8565  0.5329 -0.2061
15193TIP3    H167070   4.205   1.800  12.777 -0.9209  0.3857 -1.8674
15193TIP3    H267071   4.265   1.927  12.720  0.3382 -0.2917 -2.0897
15194TIP3   OH267072   5.799   5.288   2.728 -0.1246  0.2387  0.3770
15194TIP3    H167073   5.850   5.301   2.808 -0.1231  0.1294  0.3938
15194TIP3    H267074   5.718   5.337   2.744 -0.9633 -1.3761  1.2498
15195TIP3   OH267075   3.483   3.335   4.721  0.0268 -0.1881  0.7046
15195TIP3    H167076   3.484   3.367   4.630  1.0645 -1.0297  0.3944
15195TIP3    H267077   3.553   3.385   4.763  0.1290 -0.4238  0.8120
15196TIP3   OH267078   2.468   0.412  14.681 -0.1666 -0.3510 -0.0927
15196TIP3    H167079   2.564   0.405  14.676 -0.1729 -1.4846  1.0659
15196TIP3    H267080   2.449   0.495  14.636  1.3228 -0.2440 -0.6077
15197TIP3   OH267081   3.347   3.535  10.518 -0.1832  0.4755 -0.1103
15197TIP3    H167082   3.303   3.533  10.433 -1.2863 -1.1763  0.4472
15197TIP3    H267083   3.291   3.590  10.572 -0.5201 -0.0436  0.0697
15198TIP3   OH267084   4.931   5.100  13.073  0.2816 -0.3442  0.2326
15198TIP3    H167085   5.008   5.126  13.124 -1.0110  0.0439  2.0704
15198TIP3    H267086   4.875   5.053  13.135 -1.4064  0.2176 -0.7938
15199TIP3   OH267087   5.521   2.116   4.703  0.0497  0.5265  0.1379
15199TIP3    H167088   5.526   2.153   4.791 -2.3850 -2.1756  1.5934
15199TIP3    H267089   5.442   2.154   4.665 -1.5337 -1.7367  1.0115
15200TIP3   OH267090   3.669   1.038   0.642  0.6127  0.5306  0.0322
15200TIP3    H167091   3.612   1.075   0.708 -0.8928  0.5154 -1.2022
15200TIP3    H267092   3.676   1.106   0.575  4.0509  1.5177  1.1713
15201TIP3   OH267093   2.648   3.277   0.934  0.1527 -0.3289 -0.2375
15201TIP3    H167094   2.739   3.248   0.945  0.1624 -0.6673 -1.1147
15201TIP3    H267095   2.599   3.229   1.001  0.5308 -0.5723 -0.1315
15202TIP3   OH267096   2.588   5.014   6.122 -0.1368  0.6620  0.3604
15202TIP3    H167097   2.530   4.946   6.156  0.5653  0.2754  0.8063
15202TIP3    H267098   2.627   5.054   6.200  1.1120  0.1075  0.0383
15203TIP3   OH267099   6.041   0.330  11.737 -0.4226 -0.0481 -0.0798
15203TIP3    H167100   6.057   0.257  11.798  1.8356  0.6039  0.1779
15203TIP3    H267101   6.065   0.296  11.651 -1.6954 -0.3286 -0.3504
15204TIP3   OH267102   1.186   6.200  16.928 -0.0287  0.4607  0.0960
15204TIP3    H167103   1.091   6.197  16.914 -0.2619  0.0885  1.6438
15204TIP3    H267104   1.196   6.215  17.022  1.4559  0.4240 -0.0412
15205TIP3   OH267105   3.593   1.283   2.655 -0.1718  0.1177  0.3470
15205TIP3    H167106   3.619   1.318   2.570 -0.1530 -0.2875  0.1817
15205TIP3    H267107   3.639   1.338   2.719  0.9959 -0.4919  0.0626
15206TIP3   OH267108   4.468   5.586  14.901 -0.1912  0.9325  0.2624
15206TIP3    H167109   4.514   5.551  14.977  0.5196  2.0177  0.3545
15206TIP3    H267110   4.394   5.527  14.888  1.1729 -0.8239  0.1454
15207TIP3   OH267111   0.081   6.172  13.584  0.3045 -0.2374 -0.0885
15207TIP3    H167112   0.053   6.220  13.662  0.3681 -2.3095  1.2927
15207TIP3    H267113   0.176   6.186  13.580  0.5701 -1.4723  1.2402
15208TIP3   OH267114   3.924   5.526   3.967  0.1894  0.2112 -0.0973
15208TIP3    H167115   3.947   5.619   3.965 -1.0034  0.6122  1.8115
15208TIP3    H267116   3.834   5.523   3.935  0.4458 -0.3786 -0.7751
15209TIP3   OH267117   1.631   1.287  10.817 -0.2431 -0.5282  0.3289
15209TIP3    H167118   1.596   1.350  10.879  0.5911 -0.4839  0.7653
15209TIP3    H267119   1.726   1.301  10.819 -0.3106  1.9068 -3.5293
15210TIP3   OH267120   0.125   6.649  13.655 -0.1317 -0.1970  0.1754
15210TIP3    H167121   0.100   6.577  13.712  0.7463  0.1278  1.0059
15210TIP3    H267122   0.174   6.608  13.585 -1.8830 -0.6960 -0.8187
15211TIP3   OH267123   5.395   6.404  14.413  0.4511  0.6801 -0.2421
15211TIP3    H167124   5.446   6.483  14.433  1.6344 -0.3356  1.0012
15211TIP3    H267125   5.322   6.407  14.475  0.7296  0.6167  0.0988
15212TIP3   OH267126   3.622   0.697   1.316 -0.3305 -0.2051  0.7555
15212TIP3    H167127   3.708   0.656   1.317 -1.2869 -2.5368 -1.4218
15212TIP3    H267128   3.577   0.660   1.392 -0.4528 -1.6146  0.0353
15213TIP3   OH267129   5.617   6.634  13.819 -0.5834 -0.1926 -0.1309
15213TIP3    H167130   5.677   6.694  13.862  0.2963 -0.7708 -0.5369
15213TIP3    H267131   5.632   6.550  13.860  1.4628 -1.1469 -2.5679
15214TIP3   OH267132   3.827   2.154   3.813 -0.2336 -0.2549  0.2167
15214TIP3    H167133   3.845   2.145   3.906 -0.8994 -1.5899  0.2404
15214TIP3    H267134   3.846   2.246   3.793  1.0621 -0.2390  1.4033
15215TIP3   OH267135   1.722   2.524  16.575 -0.9005  0.1027 -0.2220
15215TIP3    H167136   1.747   2.516  16.667 -0.2567  3.7023  0.0894
15215TIP3    H267137   1.658   2.595  16.573 -0.1382  0.8554 -2.6217
15216TIP3   OH267138   3.380   6.317   3.419 -0.1133  0.4904 -0.0472
15216TIP3    H167139   3.467   6.306   3.458  0.8293  1.0652 -1.8754
15216TIP3    H267140   3.342   6.229   3.420  0.8436  0.0675 -0.0378
15217TIP3   OH267141   1.551   4.238  16.887  0.0886 -0.2226 -0.0622
15217TIP3    H167142   1.529   4.149  16.915 -0.0664 -1.2765 -3.1512
15217TIP3    H267143   1.637   4.254  16.925 -0.6300 -0.9437  1.9950
15218TIP3   OH267144   3.221   5.637  13.983 -0.1047  0.5327 -0.3085
15218TIP3    H167145   3.212   5.550  13.946  1.7905  0.8610 -1.6552
15218TIP3    H267146   3.140   5.682  13.958 -0.8595 -0.6348 -0.0568
15219TIP3   OH267147   2.995   5.691  11.562  0.2555  0.2123  0.2908
15219TIP3    H167148   3.043   5.608  11.555  0.7791  0.4576  0.8199
15219TIP3    H267149   2.904   5.668  11.544 -0.1830 -1.1139  3.4718
15220TIP3   OH267150   6.696   2.645  11.713 -0.1108  0.1789  0.0750
15220TIP3    H167151   6.787   2.672  11.729  0.0285  0.1233 -0.6306
15220TIP3    H267152   6.644   2.717  11.748  0.1956  0.1246  0.6626
15221TIP3   OH267153   5.044   1.425   0.522  0.1422  0.5208  0.1032
15221TIP3    H167154   4.988   1.382   0.458  1.9722  0.3911 -1.4661
15221TIP3    H267155   5.036   1.371   0.601 -1.5123  0.2340 -0.2257
15222TIP3   OH267156   2.774   0.920  15.140 -0.8028  0.2527  0.0125
15222TIP3    H167157   2.825   0.845  15.171 -0.6588  0.2720 -0.1754
15222TIP3    H267158   2.719   0.944  15.214  1.8960  2.4121  1.5319
15223TIP3   OH267159   5.066   4.089  11.901  0.5280  0.2560  1.2236
15223TIP3    H167160   4.986   4.140  11.892  1.5230  1.6245 -0.5704
15223TIP3    H267161   5.105   4.118  11.983 -1.0972 -0.9546  2.4965
15224TIP3   OH267162   3.561   1.239  12.648  0.5426  0.1707  0.2067
15224TIP3    H167163   3.484   1.184  12.631  1.0234 -0.9273  1.4116
15224TIP3    H267164   3.607   1.242  12.565 -0.8855  1.0097 -0.6020
15225TIP3   OH267165   6.303   5.519   3.802  0.5855 -0.1354 -0.4165
15225TIP3    H167166   6.222   5.516   3.853 -0.1656 -1.7855 -1.6105
15225TIP3    H267167   6.359   5.454   3.843  0.5064 -0.4629 -0.8146
15226TIP3   OH267168   4.215   6.139  14.060 -0.4845 -0.2347 -0.1624
15226TIP3    H167169   4.153   6.098  14.119 -0.3322 -1.7588 -0.9982
15226TIP3    H267170   4.166   6.210  14.018 -0.4964  1.1081  1.9580
15227TIP3   OH267171   2.531   1.762   2.400  0.2236  0.0034  0.3448
15227TIP3    H167172   2.537   1.736   2.308  0.5848 -1.1009  0.6657
15227TIP3    H267173   2.541   1.857   2.399 -1.8815  0.2730 -0.9502
15228TIP3   OH267174   6.579   3.552   2.503  0.5245 -0.3703 -0.4055
15228TIP3    H167175   6.526   3.476   2.526  1.0324 -0.7856 -0.5797
15228TIP3    H267176   6.593   3.598   2.586  2.6189 -2.0287  0.2586
15229TIP3   OH267177   2.222   0.436  14.316 -0.7509 -0.4878 -0.7431
15229TIP3    H167178   2.165   0.493  14.367  0.4176  0.7487 -0.7554
15229TIP3    H267179   2.186   0.438  14.228 -0.4912  0.6036 -0.8411
15230TIP3   OH267180   1.680   0.306  15.295  0.0874 -0.5184  0.0420
15230TIP3    H167181   1.629   0.226  15.279 -0.8767  0.3710 -1.6838
15230TIP3    H267182   1.684   0.348  15.209  1.1905  0.9415  0.7799
15231TIP3   OH267183   5.895   5.406  12.763  0.0093 -0.5275 -0.4596
15231TIP3    H167184   5.820   5.421  12.820  0.1667 -0.5445 -0.2465
15231TIP3    H267185   5.970   5.437  12.814  0.4227 -2.4962  0.1944
15232TIP3   OH267186   6.148   4.157  14.405  1.1673 -0.2523  0.2832
15232TIP3    H167187   6.150   4.073  14.360 -2.0297  0.1750 -0.8658
15232TIP3    H267188   6.146   4.134  14.498 -1.7282 -1.6394 -0.0235
15233TIP3   OH267189   4.707   1.436   4.774  0.0752  0.5011 -0.3902
15233TIP3    H167190   4.779   1.386   4.735 -0.3855 -0.2945 -0.2446
15233TIP3    H267191   4.637   1.372   4.784 -0.5279  1.1893 -0.1944
15234TIP3   OH267192   1.095   4.215  11.403  0.3037  0.1103  0.0414
15234TIP3    H167193   1.101   4.292  11.346 -1.0518  0.4108  0.2529
15234TIP3    H267194   1.046   4.151  11.352 -0.6297  0.2601  0.7141
15235TIP3   OH267195   3.139   6.066  13.972  0.2380  0.7273 -0.7900
15235TIP3    H167196   3.190   6.078  13.891  1.3266 -0.5016 -0.3303
15235TIP3    H267197   3.199   6.092  14.041 -0.9268  2.4389 -0.3780
15236TIP3   OH267198   5.973   3.319  16.232  0.4903 -0.6085  0.3042
15236TIP3    H167199   5.955   3.319  16.138 -0.0122 -2.3209  0.3808
15236TIP3    H267200   6.002   3.409  16.250 -1.2749  0.3155 -1.1120
15237TIP3   OH267201   6.252   6.646   4.262  0.7574  0.1834  0.0075
15237TIP3    H167202   6.165   6.622   4.233  0.7327 -2.3589  1.8115
15237TIP3    H267203   6.306   6.643   4.183 -0.6031  0.9679 -0.9842
15238TIP3   OH267204   4.527   1.990   4.242  0.2835  0.2003  0.9566
15238TIP3    H167205   4.563   2.061   4.188  0.1629  0.2744  0.9739
15238TIP3    H267206   4.561   1.910   4.201  3.3257  0.3162  2.9622
15239TIP3   OH267207   6.547   1.040   2.602 -0.2510  0.0180  0.5801
15239TIP3    H167208   6.631   0.995   2.610  0.6711  1.9533  2.8051
15239TIP3    H267209   6.482   0.969   2.594  1.2192 -1.6939  2.7234
15240TIP3   OH267210   6.404   1.556  13.310 -0.2441  0.1722 -0.2949
15240TIP3    H167211   6.388   1.512  13.226  0.6565  0.9154 -0.8820
15240TIP3    H267212   6.451   1.492  13.363 -1.7589 -0.6823  0.0546
15241TIP3   OH267213   5.884   2.012   3.607  0.6132  0.0270 -0.3599
15241TIP3    H167214   5.821   1.952   3.566 -0.4836  1.4190 -0.7823
15241TIP3    H267215   5.855   2.099   3.580  1.3829  0.8433  1.3022
15242TIP3   OH267216   3.413   1.013   1.126 -0.1752  0.0541 -0.5809
15242TIP3    H167217   3.467   1.057   1.191 -0.3799 -0.8842  0.2448
15242TIP3    H267218   3.337   1.071   1.116  0.2436  0.6099 -0.6074
15243TIP3   OH267219   3.250   5.702  11.345 -0.1075  0.3659  0.1802
15243TIP3    H167220   3.242   5.660  11.259 -0.2765  0.2428  0.2566
15243TIP3    H267221   3.177   5.764  11.349  0.7940  1.5141 -0.4057
15244TIP3   OH267222   0.330   3.394  14.011  0.9221 -0.4941  0.2282
15244TIP3    H167223   0.301   3.309  14.045 -0.5078 -0.2544 -0.3348
15244TIP3    H267224   0.420   3.379  13.982  1.4509 -1.2565  2.0996
15245TIP3   OH267225   0.745   3.384   4.001 -0.2652  0.5515  0.2798
15245TIP3    H167226   0.803   3.326   3.952  0.0061 -0.2275  1.4728
15245TIP3    H267227   0.668   3.395   3.945  0.4098  0.4204 -0.6921
15246TIP3   OH267228   1.170   6.777   0.608 -0.4926  0.4764  0.0349
15246TIP3    H167229   1.176   6.717   0.682 -0.2938  0.9885  0.4364
15246TIP3    H267230   1.079   6.807   0.608 -0.6134  0.1157 -0.2161
15247TIP3   OH267231   6.075   1.619   3.194 -0.2308 -0.0860 -0.3724
15247TIP3    H167232   6.116   1.552   3.248  0.4576  0.2849 -0.4195
15247TIP3    H267233   6.125   1.618   3.112 -0.7458 -0.0854 -0.6909
15248TIP3   OH267234   2.692   2.249  11.185  0.0324  1.1274 -0.2015
15248TIP3    H167235   2.753   2.246  11.259  2.2003  3.5397 -1.7136
15248TIP3    H267236   2.716   2.173  11.131  0.7171  1.2337 -0.0572
15249TIP3   OH267237   3.190   5.832  17.265 -0.1758 -0.4149  0.5755
15249TIP3    H167238   3.116   5.801  17.316 -0.1412 -1.5117 -0.0181
15249TIP3    H267239   3.250   5.870  17.330 -1.1608  0.3250  1.0750
15250TIP3   OH267240   6.338   2.950  13.413  0.4461  0.0661  0.5635
15250TIP3    H167241   6.342   2.858  13.438 -0.0304  0.4661  2.2173
15250TIP3    H267242   6.401   2.994  13.470 -0.3611  0.9580  0.7940
15251TIP3   OH267243   4.021   1.712  12.013 -0.7042 -0.5495 -0.3145
15251TIP3    H167244   4.082   1.785  12.004  1.3781 -2.0644  0.7912
15251TIP3    H267245   3.940   1.744  11.974  0.8984  1.4033 -2.3087
15252TIP3   OH267246   1.026   2.311  10.936 -0.7700  0.1460  0.0255
15252TIP3    H167247   1.041   2.381  10.873  2.2796  1.2752  1.7972
15252TIP3    H267248   0.993   2.238  10.883  0.3951  1.4265 -2.6531
15253TIP3   OH267249   3.247   6.593   6.082 -0.0444  0.1771 -0.4333
15253TIP3    H167250   3.194   6.515   6.063  0.3619  0.2323 -1.9429
15253TIP3    H267251   3.337   6.561   6.080  0.2470  0.9623 -2.8941
15254TIP3   OH267252   5.628   3.832  15.312  0.0477 -0.4830 -0.1585
15254TIP3    H167253   5.557   3.869  15.260 -1.5996 -1.7626  1.0560
15254TIP3    H267254   5.613   3.864  15.400 -0.3691 -2.5245  0.5614
15255TIP3   OH267255   6.130   3.520   0.110  0.2494 -0.4102 -0.3065
15255TIP3    H167256   6.174   3.517   0.025  0.7517  0.4465 -0.0888
15255TIP3    H267257   6.076   3.441   0.112  2.6455 -2.1512 -0.1035
15256TIP3   OH267258   3.794   2.106  11.944  0.2729  0.0655 -0.0619
15256TIP3    H167259   3.792   2.110  11.849  3.1155  1.5103 -0.1775
15256TIP3    H267260   3.733   2.174  11.972  0.0633  0.2142 -0.8519
15257TIP3   OH267261   3.104   0.434   3.630 -0.4837 -0.0510 -0.1116
15257TIP3    H167262   3.164   0.448   3.703 -1.7682  2.2864  0.6403
15257TIP3    H267263   3.059   0.353   3.651  0.2044 -0.1772  0.9422
15258TIP3   OH267264   4.213   0.781   1.826 -0.2042 -0.1874 -0.2404
15258TIP3    H167265   4.143   0.825   1.777  0.3340  0.2310 -0.6526
15258TIP3    H267266   4.168   0.726   1.889 -0.9078  0.3755 -0.2390
15259TIP3   OH267267   2.299   0.897   0.571  0.2112  0.2766  0.5694
15259TIP3    H167268   2.384   0.939   0.554  0.1228 -0.0439 -0.8244
15259TIP3    H267269   2.319   0.804   0.573  0.1760  0.2793  2.1973
15260TIP3   OH267270   3.334   2.921  12.512  0.5413  0.2843  0.0701
15260TIP3    H167271   3.377   2.853  12.563  2.3080  2.2231  1.3425
15260TIP3    H267272   3.246   2.927  12.548  0.7577 -0.4978  0.7528
15261TIP3   OH267273   1.277   6.501  13.397 -0.2240  0.2820 -0.4487
15261TIP3    H167274   1.232   6.441  13.338 -1.3599  0.8892 -0.2148
15261TIP3    H267275   1.269   6.587  13.356  0.4536  0.4548 -0.2451
15262TIP3   OH267276   1.161   2.502  16.065  0.5331 -1.0306 -0.3811
15262TIP3    H167277   1.076   2.459  16.077  1.1937 -2.1727  0.4107
15262TIP3    H267278   1.208   2.447  16.002  0.6214 -0.2986 -0.9673
15263TIP3   OH267279   5.239   6.221  14.894 -0.0242 -0.0185 -0.1963
15263TIP3    H167280   5.195   6.210  14.810  0.2936 -1.8585 -0.1831
15263TIP3    H267281   5.332   6.203  14.875  0.2140  0.5848  0.3601
15264TIP3   OH267282   4.986   5.916  12.705 -0.1040 -0.0327  0.3317
15264TIP3    H167283   4.976   5.928  12.610  2.7404  0.8905  0.0732
15264TIP3    H267284   4.916   5.970  12.743 -2.1960 -1.4933 -1.1641
15265TIP3   OH267285   2.974   2.835   3.425  0.0335 -0.0362  0.1397
15265TIP3    H167286   2.924   2.902   3.472  0.2867  0.5063 -0.3584
15265TIP3    H267287   2.973   2.759   3.484 -1.0493  0.0846  0.3050
15266TIP3   OH267288   0.770   3.709   5.801  0.0786  0.3395 -0.9111
15266TIP3    H167289   0.843   3.707   5.862 -0.0630 -3.3269 -0.6796
15266TIP3    H267290   0.809   3.685   5.716 -0.7041 -1.2489 -0.8639
15267TIP3   OH267291   5.578   6.622  14.384  0.3204  0.0191 -0.0520
15267TIP3    H167292   5.611   6.711  14.393 -0.9323  0.6125 -1.0751
15267TIP3    H267293   5.536   6.620  14.299 -2.3709 -0.6182  1.1757
15268TIP3   OH267294   5.894   3.306   4.601  0.1489  0.2029 -0.0717
15268TIP3    H167295   5.811   3.274   4.567 -0.4612  0.1421  1.4080
15268TIP3    H267296   5.887   3.296   4.696  1.5504  0.9156  0.1396
15269TIP3   OH267297   5.906   5.264   1.469 -0.7430 -0.3531  0.1337
15269TIP3    H167298   5.895   5.283   1.376 -2.2635  1.7283  0.6666
15269TIP3    H267299   6.000   5.252   1.480 -0.3122  1.1825 -1.3822
15270TIP3   OH267300   6.638   4.819   5.965 -0.0282  0.3463  0.2061
15270TIP3    H167301   6.687   4.890   5.923 -1.1851  1.3256  0.4608
15270TIP3    H267302   6.694   4.742   5.954  0.7446  1.0478 -1.1005
15271TIP3   OH267303   1.760   1.777   1.379  0.0308  0.2005 -0.6792
15271TIP3    H167304   1.809   1.859   1.387  0.3188 -0.0723  0.5253
15271TIP3    H267305   1.782   1.728   1.458 -1.4339 -0.3471 -0.5739
15272TIP3   OH267306   5.957   3.791  10.406  0.2265  0.0927 -0.1753
15272TIP3    H167307   6.030   3.804  10.346 -0.2023  0.7603 -0.5747
15272TIP3    H267308   5.886   3.843  10.368  0.3792  1.8382  1.7190
15273TIP3   OH267309   0.730   3.384   2.589 -0.6186  0.0301 -0.1655
15273TIP3    H167310   0.670   3.321   2.629  0.2792 -0.5904  0.2566
15273TIP3    H267311   0.712   3.466   2.633 -1.5506 -0.0181 -0.4517
15274TIP3   OH267312   6.342   2.140   4.192 -0.1693  0.5168  0.3033
15274TIP3    H167313   6.436   2.153   4.203  0.1603 -1.0283 -0.4191
15274TIP3    H267314   6.310   2.223   4.156  1.1136  0.6474 -0.5904
15275TIP3   OH267315   0.701   5.227  16.878 -0.0382  0.5833  0.3545
15275TIP3    H167316   0.740   5.314  16.881  0.7149  0.2718 -0.0449
15275TIP3    H267317   0.640   5.225  16.952  1.5586  0.6852  1.7336
15276TIP3   OH267318   5.068   1.433  16.249 -0.2742 -0.2265 -0.4765
15276TIP3    H167319   5.123   1.510  16.235 -0.6395  0.2986  0.8426
15276TIP3    H267320   5.021   1.452  16.330 -2.1126 -0.8217 -1.3531
15277TIP3   OH267321   2.889   2.619   3.575 -0.0700 -0.3725 -0.3684
15277TIP3    H167322   2.905   2.544   3.632 -0.4138 -2.1319 -2.4532
15277TIP3    H267323   2.803   2.651   3.601  0.0235 -0.7743  0.4612
15278TIP3   OH267324   6.053   6.515   2.742  0.4198 -0.0397 -0.3205
15278TIP3    H167325   6.135   6.555   2.771  0.5092  0.1281 -0.8004
15278TIP3    H267326   6.026   6.568   2.667 -0.3270  0.1502  0.0752
15279TIP3   OH267327   3.312   5.459   6.061 -0.5036  0.0374 -0.1172
15279TIP3    H167328   3.290   5.367   6.044  1.8945 -0.6847  0.3364
15279TIP3    H267329   3.284   5.473   6.151 -0.3970 -0.4281 -0.0056
15280TIP3   OH267330   5.207   5.323   1.526 -0.2479 -0.6090 -0.0951
15280TIP3    H167331   5.276   5.332   1.461  0.5149  2.7207  0.9428
15280TIP3    H267332   5.127   5.348   1.480  0.1744  1.0288  0.0127
15281TIP3   OH267333   1.130   0.684   5.083 -0.2553 -0.2992 -0.0465
15281TIP3    H167334   1.191   0.702   5.154 -0.9541  0.3446  0.4047
15281TIP3    H267335   1.186   0.664   5.008  0.5024  0.1237  0.3940
15282TIP3   OH267336   0.100   1.974   0.019  0.1316 -0.1140 -0.4637
15282TIP3    H167337   0.165   2.035  -0.017  1.1643 -1.5170 -1.0812
15282TIP3    H267338   0.020   1.991  -0.032 -0.0040  1.5922  0.2633
15283TIP3   OH267339   1.158   1.408   5.613 -0.7907  0.1823 -0.1333
15283TIP3    H167340   1.104   1.330   5.628  0.9774 -1.0018  0.4150
15283TIP3    H267341   1.171   1.445   5.701 -0.8059  0.5310 -0.2763
15284TIP3   OH267342   0.201   1.319  10.673  0.4332  0.5208 -0.3627
15284TIP3    H167343   0.264   1.363  10.730  0.1527  0.2972  0.1250
15284TIP3    H267344   0.194   1.376  10.597  3.4635 -0.8345 -1.8732
15285TIP3   OH267345   5.647   0.856   5.654 -0.3691  0.3753 -0.4231
15285TIP3    H167346   5.692   0.775   5.677 -0.5977  0.6652  1.1464
15285TIP3    H267347   5.707   0.901   5.595  0.5367 -0.1402  0.0905
15286TIP3   OH267348   2.247   4.921  12.443 -0.2774 -0.4790  0.2038
15286TIP3    H167349   2.313   4.977  12.484 -0.7122 -0.7749  1.3183
15286TIP3    H267350   2.282   4.833  12.452 -0.8310 -0.6409  0.8265
15287TIP3   OH267351   5.681   0.346   5.245  0.1693 -0.3867 -0.0439
15287TIP3    H167352   5.624   0.320   5.318 -0.1243 -0.4843 -0.3097
15287TIP3    H267353   5.667   0.279   5.179  1.0129 -0.7284  0.1061
15288TIP3   OH267354   2.064   5.077  12.065  0.0240  0.0918  0.4109
15288TIP3    H167355   2.103   5.163  12.047 -0.4192  0.3905  0.8240
15288TIP3    H267356   1.973   5.087  12.038  0.1550 -0.4976 -0.2589
15289TIP3   OH267357   2.440   2.709  13.789  0.1665  0.1082 -0.2395
15289TIP3    H167358   2.524   2.752  13.774  0.5598  0.5800  2.7315
15289TIP3    H267359   2.379   2.780  13.809  0.1678 -0.4136  1.9430
15290TIP3   OH267360   0.604   2.558   5.602  0.4751 -0.2187  0.4802
15290TIP3    H167361   0.674   2.617   5.573  0.5844 -0.7259 -0.3256
15290TIP3    H267362   0.562   2.604   5.674  0.9667  0.5587  0.2818
15291TIP3   OH267363   1.398   3.390   5.589  0.3530 -0.2407  0.5232
15291TIP3    H167364   1.347   3.428   5.517 -0.1641  0.0091  1.0131
15291TIP3    H267365   1.393   3.295   5.574 -0.2950 -0.2257  0.5774
15292TIP3   OH267366   1.367   6.281   0.884 -0.5386 -0.1959  0.1730
15292TIP3    H167367   1.330   6.234   0.809  0.1963 -1.0632  0.3298
15292TIP3    H267368   1.400   6.363   0.847  1.5308 -1.4113 -0.8610
15293TIP3   OH267369   3.239   0.875  11.708 -0.0230  0.7553  0.5066
15293TIP3    H167370   3.212   0.966  11.695  0.6826  0.9700  0.5000
15293TIP3    H267371   3.163   0.833  11.749 -1.3044  0.7284 -1.7062
15294TIP3   OH267372   5.961   3.091  13.166  0.3339 -0.2981 -0.4332
15294TIP3    H167373   5.994   3.072  13.254  0.1915 -1.8504 -0.6763
15294TIP3    H267374   5.976   3.010  13.117  1.3085  0.8321 -2.1354
15295TIP3   OH267375   4.279   5.500   1.030  0.2221 -0.0170  0.4747
15295TIP3    H167376   4.261   5.516   0.937  0.5400 -1.1088  0.2129
15295TIP3    H267377   4.249   5.410   1.045  1.2142 -0.2492  1.1536
15296TIP3   OH267378   0.684   0.879  17.254  0.2303  0.2443  0.0021
15296TIP3    H167379   0.633   0.843  17.326  1.3915 -0.3808  0.5452
15296TIP3    H267380   0.624   0.877  17.179 -0.0216 -2.1791  0.1808
15297TIP3   OH267381   6.743   0.867   0.709  0.3114 -1.0676  0.3255
15297TIP3    H167382   6.786   0.882   0.793  1.7518 -1.2909 -0.3400
15297TIP3    H267383   6.725   0.773   0.708 -0.4022 -0.9401  0.6905
15298TIP3   OH267384   3.070   1.228   3.412 -0.6299 -0.0774 -0.2173
15298TIP3    H167385   3.126   1.175   3.469 -1.6349 -0.0602  0.8256
15298TIP3    H267386   3.054   1.172   3.336 -0.1936 -0.5432  0.0222
15299TIP3   OH267387   2.574   5.521  15.732  0.1463  0.0667  0.0422
15299TIP3    H167388   2.519   5.516  15.654 -0.6361 -2.5384  0.6541
15299TIP3    H267389   2.579   5.431  15.763  2.7465  0.6041  1.4465
15300TIP3   OH267390   0.044   4.703   3.066  0.2455 -0.6278  0.2549
15300TIP3    H167391   0.090   4.667   3.141 -0.2742 -0.4954  0.6466
15300TIP3    H267392   0.084   4.660   2.990 -0.0560 -1.7014  0.6820
15301TIP3   OH267393   2.511   1.460  14.880 -0.0970 -0.1045  0.0588
15301TIP3    H167394   2.442   1.450  14.815 -0.6494 -0.6079  0.7035
15301TIP3    H267395   2.535   1.553  14.876 -1.1522  0.1794  0.1588
15302TIP3   OH267396   5.323   1.306  11.278 -0.6710  0.5597  0.0371
15302TIP3    H167397   5.329   1.389  11.232  0.7218 -0.2552 -1.3629
15302TIP3    H267398   5.237   1.307  11.320 -1.2127  2.1426 -1.0434
15303TIP3   OH267399   0.053   1.884   2.417  0.4741 -0.7073 -0.2809
15303TIP3    H167400   0.043   1.903   2.511  0.3543 -1.4782 -0.1357
15303TIP3    H267401   0.129   1.826   2.412  0.1718 -1.0778 -0.6049
15304TIP3   OH267402   2.396   1.634  12.524  0.1341  0.3697  0.2739
15304TIP3    H167403   2.473   1.651  12.469  1.9269 -1.1732  2.1755
15304TIP3    H267404   2.428   1.637  12.613 -1.6662 -1.8601  1.1031
15305TIP3   OH267405   0.236   2.989   6.103  0.2676  0.7075 -0.4059
15305TIP3    H167406   0.164   3.009   6.162 -0.0833 -2.6036  0.4680
15305TIP3    H267407   0.310   3.039   6.137 -0.5842  0.8723  1.2598
15306TIP3   OH267408   1.564   2.323  16.943  0.5913  0.1982 -0.3425
15306TIP3    H167409   1.634   2.349  16.884  2.1519  1.6987  1.9952
15306TIP3    H267410   1.511   2.402  16.954  1.1060  0.3658  1.2069
15307TIP3   OH267411   4.197   5.432  15.437 -0.0931 -0.8955 -1.1227
15307TIP3    H167412   4.256   5.504  15.460 -0.0825 -0.8550 -1.2821
15307TIP3    H267413   4.113   5.457  15.474 -0.1649 -0.6561 -1.4484
15308TIP3   OH267414   5.190   0.827  16.593  0.0423  0.0082 -0.1892
15308TIP3    H167415   5.250   0.793  16.527  1.1276  0.1340  0.6958
15308TIP3    H267416   5.147   0.902  16.551  1.3582  0.6322 -0.4760
15309TIP3   OH267417   0.543   5.230  11.671 -0.1846 -0.1201 -0.4056
15309TIP3    H167418   0.473   5.245  11.607  1.2437  3.5870 -1.3722
15309TIP3    H267419   0.541   5.307  11.728  2.0101 -0.7306  0.6371
15310TIP3   OH267420   4.350   3.524   6.402  0.4167 -0.3280 -0.0687
15310TIP3    H167421   4.372   3.466   6.476  0.0873 -0.9390 -0.4407
15310TIP3    H267422   4.401   3.490   6.329  1.0461  0.5209 -0.0432
15311TIP3   OH267423   4.182   3.107   5.194 -0.2897 -0.5866  0.1521
15311TIP3    H167424   4.180   3.202   5.206  2.2357 -0.5943  1.2008
15311TIP3    H267425   4.094   3.085   5.163 -1.0245  2.0374  0.1410
15312TIP3   OH267426   2.148   6.408   4.080  0.2099  0.0315 -0.2641
15312TIP3    H167427   2.102   6.428   3.998 -2.0998 -2.4113  0.2733
15312TIP3    H267428   2.116   6.474   4.141  0.4928  0.7401 -0.8667
15313TIP3   OH267429   0.806   2.612  13.104 -0.0722  0.0793 -0.3757
15313TIP3    H167430   0.734   2.595  13.164  0.5641 -1.6103 -0.0391
15313TIP3    H267431   0.765   2.616  13.017 -0.4378 -2.6972 -0.4267
15314TIP3   OH267432   6.796   0.131  15.383  0.3717 -0.4295 -0.2039
15314TIP3    H167433   6.747   0.055  15.352  0.1728 -1.0229  1.4761
15314TIP3    H267434   6.737   0.205  15.367 -0.6110 -0.9876  0.6585
15315TIP3   OH267435   5.029   3.912  15.863 -0.3729  0.8610 -0.4412
15315TIP3    H167436   5.043   3.850  15.792 -0.9203  0.9321 -0.6126
15315TIP3    H267437   4.968   3.869  15.922  1.2273  0.1749  0.7854
15316TIP3   OH267438   1.451   5.116   4.345 -0.5114 -0.0414  0.0685
15316TIP3    H167439   1.531   5.168   4.342  0.0472 -0.8579  0.6156
15316TIP3    H267440   1.440   5.086   4.255 -0.5974  0.6413 -0.1586
15317TIP3   OH267441   6.218   0.735  10.677  0.1113 -0.2366 -0.1515
15317TIP3    H167442   6.217   0.756  10.583 -1.2595  0.6936  0.0281
15317TIP3    H267443   6.254   0.646  10.682  3.1987  0.8360 -1.2473
15318TIP3   OH267444   2.129   2.894   4.644  0.1924  0.4829  0.4737
15318TIP3    H167445   2.059   2.955   4.620 -0.5217 -0.3766  0.3018
15318TIP3    H267446   2.101   2.810   4.607  0.2891 -0.3356  2.1544
15319TIP3   OH267447   4.609   4.538  11.894 -0.2126 -0.1797 -0.1366
15319TIP3    H167448   4.668   4.585  11.952  1.3110 -0.5649 -1.3093
15319TIP3    H267449   4.625   4.574  11.807 -1.4817 -0.5241 -0.5444
15320TIP3   OH267450   2.119   3.345  12.611 -0.0034  0.4604 -0.1527
15320TIP3    H167451   2.190   3.332  12.673  0.6141 -0.9416 -1.1022
15320TIP3    H267452   2.116   3.440  12.598  2.0064  0.5285 -0.4187
15321TIP3   OH267453   6.706   6.494   0.973 -0.2337  0.1007 -0.5794
15321TIP3    H167454   6.763   6.456   0.906  0.7404  2.4554 -1.1870
15321TIP3    H267455   6.710   6.589   0.957 -1.9434  0.5542  1.2824
15322TIP3   OH267456   4.518   0.499   2.576 -0.6849  0.0271  0.0434
15322TIP3    H167457   4.532   0.482   2.483  0.3200  0.5470  0.0761
15322TIP3    H267458   4.533   0.415   2.619  1.0188  0.2169 -0.0870
15323TIP3   OH267459   4.646   2.274  11.692 -0.7986 -0.4345  0.0659
15323TIP3    H167460   4.613   2.193  11.731  0.4625 -0.4646  1.1648
15323TIP3    H267461   4.722   2.296  11.746 -0.2343  0.6744 -1.1444
15324TIP3   OH267462   2.617   2.628  15.438  0.1905 -0.1280 -0.0111
15324TIP3    H167463   2.659   2.710  15.464 -0.3478  0.6937 -1.5811
15324TIP3    H267464   2.690   2.567  15.422  0.6362  0.3456  0.1900
15325TIP3   OH267465   3.838   5.924  13.936 -0.6731 -0.5439 -0.1939
15325TIP3    H167466   3.811   6.009  13.902  1.8438  1.0633  1.4413
15325TIP3    H267467   3.832   5.933  14.031  2.8110 -0.8935  0.1993
15326TIP3   OH267468   5.339   0.177  17.124 -0.0911  0.1754 -0.8415
15326TIP3    H167469   5.313   0.129  17.202  0.8361  0.3246 -0.4311
15326TIP3    H267470   5.257   0.191  17.077 -0.4890 -1.0534 -0.5542
15327TIP3   OH267471   3.065   2.822   4.371  0.3226 -0.4988  0.4139
15327TIP3    H167472   3.049   2.760   4.300 -0.2786 -1.5224  1.4091
15327TIP3    H267473   2.977   2.852   4.396  0.5533  0.1083  0.5029
15328TIP3   OH267474   4.366   3.756   5.267 -0.0412  0.5296 -0.8734
15328TIP3    H167475   4.373   3.725   5.358 -1.5511  2.1228 -0.1614
15328TIP3    H267476   4.422   3.696   5.217 -0.0577 -1.0867  0.9323
15329TIP3   OH267477   3.084   2.225   3.578 -0.0039 -0.5048 -0.2082
15329TIP3    H167478   3.090   2.138   3.540 -2.2098 -2.6718  3.7818
15329TIP3    H267479   3.174   2.249   3.600  0.4191 -3.3704  1.5932
15330TIP3   OH267480   0.499   3.312  14.946  0.7214 -0.2142 -0.5254
15330TIP3    H167481   0.553   3.383  14.911  0.1170  0.2079 -0.6172
15330TIP3    H267482   0.470   3.265  14.868  0.8603 -0.3705 -0.4824
15331TIP3   OH267483   6.763   3.686   5.021 -0.1204  0.0771  0.0162
15331TIP3    H167484   6.731   3.693   5.111  0.3247 -1.9369  0.3772
15331TIP3    H267485   6.686   3.706   4.967 -0.2548  1.8918  0.7810
15332TIP3   OH267486   5.399   0.072   4.762 -0.4895 -0.1494 -0.9806
15332TIP3    H167487   5.335   0.139   4.736  1.3031  1.8302 -0.5930
15332TIP3    H267488   5.397   0.074   4.858 -2.4598 -2.7994 -0.8738
15333TIP3   OH267489   2.237   0.177   2.538 -0.2116  0.1719 -0.8499
15333TIP3    H167490   2.304   0.125   2.583 -0.2061  1.0723  0.2425
15333TIP3    H267491   2.204   0.120   2.469  1.4580 -0.3983 -1.2113
15334TIP3   OH267492   4.193   2.192  15.071  0.0638  0.6567 -0.0678
15334TIP3    H167493   4.177   2.125  15.138 -0.5823  0.5764 -0.2886
15334TIP3    H267494   4.105   2.216  15.042  0.3120  1.3531 -0.2364
15335TIP3   OH267495   6.005   5.122  11.775 -0.3656  0.8806  0.0087
15335TIP3    H167496   6.084   5.175  11.763 -1.5232  2.7843  0.4453
15335TIP3    H267497   6.017   5.079  11.859  0.2249  1.1365  0.0568
15336TIP3   OH267498   6.035   2.076   3.190  0.1515 -0.0199  0.1970
15336TIP3    H167499   6.116   2.077   3.140 -0.6464  0.0694 -1.1186
15336TIP3    H267500   6.024   1.984   3.217  0.7325 -0.0091  0.4824
15337TIP3   OH267501   5.087   5.088   3.325  0.1345 -0.4590 -0.2431
15337TIP3    H167502   5.038   5.054   3.400 -0.1222  1.4240  0.5232
15337TIP3    H267503   5.163   5.031   3.317  0.6657 -0.1701  2.0846
15338TIP3   OH267504   4.890   5.801   1.540 -0.0343  0.3110 -0.0854
15338TIP3    H167505   4.893   5.717   1.586  0.5860  1.4287  2.0439
15338TIP3    H267506   4.804   5.801   1.497 -0.9705 -0.5463  1.6487
15339TIP3   OH267507   3.728   1.431   2.830  0.2082  0.3518 -0.8426
15339TIP3    H167508   3.727   1.526   2.833  2.6308  0.4666 -1.2121
15339TIP3    H267509   3.722   1.404   2.922 -1.5106  0.7818 -0.8012
15340TIP3   OH267510   6.385   0.980   0.423  0.3256  0.8515 -0.5289
15340TIP3    H167511   6.302   0.993   0.469 -0.4530  1.1498 -1.9513
15340TIP3    H267512   6.420   0.898   0.459 -0.4034  0.9096  0.3460
15341TIP3   OH267513   3.153   3.397   6.711 -0.5505  0.0143  0.5371
15341TIP3    H167514   3.097   3.457   6.661  0.1850 -0.1605 -0.5352
15341TIP3    H267515   3.235   3.395   6.662 -0.4979 -1.7475  0.6513
15342TIP3   OH267516   3.566   4.515   4.736 -0.5567 -0.2820 -0.0402
15342TIP3    H167517   3.577   4.420   4.744 -1.2175 -0.5580 -1.9924
15342TIP3    H267518   3.471   4.527   4.733 -0.4612  0.2874 -1.1331
15343TIP3   OH267519   5.803   5.178   2.421  0.0697  0.2153  0.1317
15343TIP3    H167520   5.889   5.135   2.422  0.0642  0.2051  0.7866
15343TIP3    H267521   5.764   5.155   2.506 -0.0116  1.3502  0.4218
15344TIP3   OH267522   0.067   2.131  13.350  0.1715  0.0823  0.0709
15344TIP3    H167523  -0.011   2.083  13.323 -0.3831  0.3272  1.1652
15344TIP3    H267524   0.036   2.220  13.366  0.8510  0.3974 -0.2955
15345TIP3   OH267525   2.911   3.202  11.946 -0.6941 -0.1941 -0.2975
15345TIP3    H167526   2.959   3.189  11.865  1.0634 -2.1058  0.9388
15345TIP3    H267527   2.965   3.265  11.996 -0.5700 -0.7210  0.2453
15346TIP3   OH267528   2.319   5.464   1.505 -0.2722  0.0501  0.0173
15346TIP3    H167529   2.256   5.518   1.554 -0.4427  0.0876 -0.2419
15346TIP3    H267530   2.314   5.378   1.547 -1.4556 -0.3088 -0.8164
15347TIP3   OH267531   4.789   0.505  13.339  0.0420 -0.0667 -0.0016
15347TIP3    H167532   4.723   0.569  13.314 -0.1887  0.2328  1.3217
15347TIP3    H267533   4.840   0.491  13.259 -0.1374  1.4710 -0.4169
15348TIP3   OH267534   4.677   2.635  12.889 -0.2337  0.1692  0.3655
15348TIP3    H167535   4.602   2.689  12.865 -1.0609 -1.1832 -0.1657
15348TIP3    H267536   4.752   2.694  12.880 -1.1633  1.3922  0.3805
15349TIP3   OH267537   0.820   0.949  11.587 -0.1675 -0.0237  0.2783
15349TIP3    H167538   0.906   0.984  11.607 -1.0323  2.0547  0.6355
15349TIP3    H267539   0.778   1.016  11.533 -1.4475 -1.1327 -0.1754
15350TIP3   OH267540   2.691   3.526   4.726  0.5303  0.1445  0.2203
15350TIP3    H167541   2.727   3.582   4.795 -1.3969 -0.8499  2.1696
15350TIP3    H267542   2.704   3.437   4.759 -0.0926 -0.3646 -0.8860
15351TIP3   OH267543   0.886   2.405   1.295 -0.5322  0.6059  0.1303
15351TIP3    H167544   0.947   2.333   1.282  0.7701  1.3598  1.7116
15351TIP3    H267545   0.800   2.364   1.297 -0.3041 -0.3620 -3.3744
15352TIP3   OH267546   4.132   5.591   3.178 -0.4175  0.4888 -0.0950
15352TIP3    H167547   4.164   5.586   3.268  2.4118 -0.8971 -1.0701
15352TIP3    H267548   4.102   5.502   3.159 -0.6150  0.6792 -0.6743
15353TIP3   OH267549   4.019   0.336   5.566  0.5297 -0.4739  0.1382
15353TIP3    H167550   4.095   0.279   5.552  1.9134  1.7772 -2.8532
15353TIP3    H267551   4.047   0.397   5.635  2.5913  1.7374 -2.3914
15354TIP3   OH267552   4.275   5.971  11.423 -0.5043  0.0934  0.1998
15354TIP3    H167553   4.340   5.902  11.432  1.0184  1.4768  0.2197
15354TIP3    H267554   4.236   5.979  11.511 -0.6362 -0.6639  0.2131
15355TIP3   OH267555   4.617   0.420   4.773 -0.3261  0.4565 -0.4083
15355TIP3    H167556   4.662   0.347   4.814  0.3783  1.2964  0.3511
15355TIP3    H267557   4.665   0.436   4.692 -1.1406 -0.5928 -1.1272
15356TIP3   OH267558   5.315   2.507   5.805  0.1592  0.2078  0.1506
15356TIP3    H167559   5.302   2.518   5.899 -3.0027  0.1376 -0.1803
15356TIP3    H267560   5.304   2.414   5.789  0.5257  0.2415 -0.3380
15357TIP3   OH267561   3.965   5.431  17.075  0.0860  0.3336 -0.1360
15357TIP3    H167562   3.979   5.489  17.151 -0.7926  0.9884 -0.4663
15357TIP3    H267563   3.911   5.360  17.109  1.8986 -0.8420  0.5027
15358TIP3   OH267564   3.657   4.543  13.158  0.4676 -0.5102  0.0063
15358TIP3    H167565   3.713   4.620  13.146 -0.0099 -0.0850  0.4445
15358TIP3    H267566   3.611   4.535  13.074  1.3646 -1.0248 -0.4531
15359TIP3   OH267567   2.864   2.995   1.292  0.5058  0.4762 -0.4643
15359TIP3    H167568   2.810   2.934   1.342  1.2009  0.8254  0.7684
15359TIP3    H267569   2.941   3.009   1.347  1.8787 -0.0334 -2.1622
15360TIP3   OH267570   6.367   0.627  14.279 -0.6488  0.8456  0.4106
15360TIP3    H167571   6.360   0.695  14.212  0.6489  1.5094  0.9095
15360TIP3    H267572   6.444   0.575  14.253 -0.2494  0.9902  1.2496
15361TIP3   OH267573   4.144   6.092   1.372  0.3579 -0.7310 -0.0886
15361TIP3    H167574   4.088   6.063   1.300  1.2801 -0.1767 -1.0571
15361TIP3    H267575   4.095   6.069   1.451 -0.8349 -1.0413 -0.8875
15362TIP3   OH267576   0.052   5.076   2.875 -0.7815  0.3336 -0.3913
15362TIP3    H167577  -0.010   5.010   2.842 -0.4342 -0.0144 -0.3576
15362TIP3    H267578   0.048   5.067   2.970  0.3924 -0.7072 -0.4166
15363TIP3   OH267579   1.666   1.162   3.947  0.0872  0.3212  0.1106
15363TIP3    H167580   1.703   1.085   3.990  0.9282  0.3137 -0.5820
15363TIP3    H267581   1.629   1.214   4.018  0.3903 -0.2457  0.6984
15364TIP3   OH267582   3.925   6.623  15.487 -0.1705 -0.2112 -0.1703
15364TIP3    H167583   4.001   6.569  15.466  0.3095  0.2695  0.2835
15364TIP3    H267584   3.851   6.563  15.484 -0.0816 -0.2692 -2.6723
15365TIP3   OH267585   6.243   0.475  16.766 -0.4155 -0.5263 -0.6601
15365TIP3    H167586   6.337   0.463  16.757 -0.6110 -2.9352 -0.1969
15365TIP3    H267587   6.224   0.454  16.857 -1.2590  1.4925 -0.3078
15366TIP3   OH267588   1.978   0.466   5.571  0.1093 -0.2230 -0.6255
15366TIP3    H167589   1.886   0.491   5.562  0.0365 -0.5841 -0.8852
15366TIP3    H267590   1.999   0.483   5.663 -0.3115 -0.4620 -0.4857
15367TIP3   OH267591   4.951   5.417  13.586  0.1736  0.2274 -0.5199
15367TIP3    H167592   5.013   5.481  13.550 -0.0063  0.3555 -0.6054
15367TIP3    H267593   5.003   5.338  13.600  0.8199  0.9060  1.2284
15368TIP3   OH267594   6.222   6.560   3.444 -0.4702  0.1443  0.0460
15368TIP3    H167595   6.277   6.616   3.389 -0.3308  0.2073  0.2470
15368TIP3    H267596   6.284   6.506   3.493 -0.5868  0.2253  0.2853
15369TIP3   OH267597   3.551   2.371  11.362  0.5397  1.1221 -0.0496
15369TIP3    H167598   3.624   2.310  11.352 -1.4264 -1.3584 -0.2913
15369TIP3    H267599   3.527   2.395  11.272 -0.5959 -0.2758 -0.1644
15370TIP3   OH267600   3.328   3.617  15.456  0.2304  0.4314 -0.0854
15370TIP3    H167601   3.314   3.533  15.501  2.1693  0.0836 -0.0401
15370TIP3    H267602   3.423   3.623  15.446  0.3428  3.5550  1.6374
15371TIP3   OH267603   2.095   6.138  15.718 -0.0234 -0.3850  0.3066
15371TIP3    H167604   2.074   6.209  15.779  0.3867  0.2113 -0.2259
15371TIP3    H267605   2.097   6.180  15.632 -0.5833 -1.2100 -0.1286
15372TIP3   OH267606   4.256   6.642   6.408  0.1100  0.6197 -0.3117
15372TIP3    H167607   4.341   6.603   6.431 -0.6139 -1.3630 -0.7885
15372TIP3    H267608   4.209   6.571   6.362 -3.1406  0.4373  2.8913
15373TIP3   OH267609   6.143   4.481   3.431  0.2856 -0.0014 -0.2873
15373TIP3    H167610   6.180   4.569   3.437 -0.4271  0.2647  0.5527
15373TIP3    H267611   6.083   4.486   3.356 -2.7309  1.4707  1.9758
15374TIP3   OH267612   4.587   6.687   4.332 -0.1462  0.3135  0.4459
15374TIP3    H167613   4.632   6.766   4.361  0.4640  0.1250  0.0206
15374TIP3    H267614   4.657   6.624   4.315 -0.6279 -0.3437  0.8316
15375TIP3   OH267615   3.023   5.803  13.888 -0.2724 -0.4278 -1.0594
15375TIP3    H167616   2.934   5.825  13.862  0.0336  1.4676 -0.6792
15375TIP3    H267617   3.053   5.880  13.937  1.2419 -1.4215 -0.3530
15376TIP3   OH267618   4.671   3.290   5.714 -0.1292  0.1670  0.1966
15376TIP3    H167619   4.713   3.356   5.658 -0.1698 -1.9042 -2.4658
15376TIP3    H267620   4.586   3.328   5.736 -0.3343  0.8676 -1.6412
15377TIP3   OH267621   5.926   1.503  11.951 -0.3294 -0.0530  0.1294
15377TIP3    H167622   5.965   1.427  11.909  0.5683  0.7267 -0.4908
15377TIP3    H267623   5.934   1.573  11.886  0.6430  1.0569  1.3715
15378TIP3   OH267624   2.926   6.659   6.051  0.1332  0.1911 -0.1895
15378TIP3    H167625   2.844   6.616   6.075  1.0982 -1.8642 -0.3674
15378TIP3    H267626   2.949   6.621   5.966  1.1540  0.9225 -0.2669
15379TIP3   OH267627   0.864   3.799  14.053 -0.3639 -0.0314 -0.1307
15379TIP3    H167628   0.854   3.879  14.000  2.0097 -0.1655 -0.9006
15379TIP3    H267629   0.909   3.738  13.995 -0.4810 -1.2939  1.0717
15380TIP3   OH267630   2.723   6.180  11.391  0.2673 -0.1143  0.0755
15380TIP3    H167631   2.724   6.149  11.301  1.6695  0.2415 -0.0583
15380TIP3    H267632   2.815   6.194  11.413 -0.1196  0.9673  1.1583
15381TIP3   OH267633   1.480   0.033   4.008  0.3043  0.5477  0.4792
15381TIP3    H167634   1.519   0.099   3.951  0.1545  0.4104  0.2151
15381TIP3    H267635   1.519  -0.050   3.979  2.9637  0.8216  2.8864
15382TIP3   OH267636   0.881   4.139   6.207  0.6789 -0.1131 -0.3019
15382TIP3    H167637   0.837   4.175   6.130 -2.7694  1.3649  2.0992
15382TIP3    H267638   0.937   4.210   6.238 -1.6018  1.2532  1.0620
15383TIP3   OH267639   0.761   6.311   2.917 -0.3024 -0.0708  0.1689
15383TIP3    H167640   0.778   6.310   2.823 -0.7747 -2.2066  0.0560
15383TIP3    H267641   0.666   6.311   2.924 -0.3175  1.8224  0.7212
15384TIP3   OH267642   0.383   3.351   1.115 -0.1953  0.0692 -0.1905
15384TIP3    H167643   0.448   3.304   1.167 -2.1373 -1.3267  1.1130
15384TIP3    H267644   0.388   3.310   1.029  0.7201  0.0798 -0.1605
15385TIP3   OH267645   3.726   4.250   1.794 -0.6510 -0.4664  0.4554
15385TIP3    H167646   3.729   4.345   1.797 -2.7386 -0.3461  0.5627
15385TIP3    H267647   3.791   4.221   1.858  2.0598  0.7496 -1.5470
15386TIP3   OH267648   3.284   3.670  11.789  0.0302  0.3079 -0.1399
15386TIP3    H167649   3.329   3.752  11.808  1.1025 -0.1954 -0.4672
15386TIP3    H267650   3.218   3.662  11.858 -0.8361  1.9744 -0.7087
15387TIP3   OH267651   6.229   3.718   5.796  0.0725  0.5600 -0.2845
15387TIP3    H167652   6.202   3.669   5.873 -2.2499  1.0175 -0.7240
15387TIP3    H267653   6.322   3.698   5.786 -0.4411 -2.6751  0.3193
15388TIP3   OH267654   4.523   2.871  12.514  0.2847 -0.1664 -0.2505
15388TIP3    H167655   4.581   2.914  12.451 -0.4107  0.1116 -0.7110
15388TIP3    H267656   4.508   2.784  12.477  1.0652 -0.5469  0.2910
15389TIP3   OH267657   6.056   1.134  15.455  0.0691 -0.0211  0.5532
15389TIP3    H167658   5.984   1.090  15.500 -0.9306 -1.0209 -1.8380
15389TIP3    H267659   6.134   1.085  15.480 -0.5236 -0.8321  0.8419
15390TIP3   OH267660   6.498   1.171   3.866  0.2792  0.2418 -0.3306
15390TIP3    H167661   6.432   1.104   3.847 -0.8075  1.3870 -0.7457
15390TIP3    H267662   6.456   1.253   3.841  0.9234  1.2729  1.8141
15391TIP3   OH267663   4.005   1.755   2.844 -0.2649 -0.3039 -0.5126
15391TIP3    H167664   3.974   1.734   2.756 -1.4183 -1.1698  0.0843
15391TIP3    H267665   4.029   1.671   2.882  1.3387  0.1784 -0.3764
15392TIP3   OH267666   3.516   1.900   2.768  0.0333  0.0593  0.0083
15392TIP3    H167667   3.605   1.902   2.731 -0.1213  1.0175 -0.3499
15392TIP3    H267668   3.483   1.813   2.747  2.0880 -1.6589  3.1220
15393TIP3   OH267669   3.805   3.791   2.113 -0.1531  0.7364  0.1387
15393TIP3    H167670   3.857   3.757   2.040 -0.2701  0.8174  0.0169
15393TIP3    H267671   3.844   3.875   2.133 -0.7871  1.2067 -0.5417
15394TIP3   OH267672   2.316   5.633   5.360 -0.2198  0.4015  0.3590
15394TIP3    H167673   2.298   5.609   5.450  0.1204 -0.6324  0.1633
15394TIP3    H267674   2.283   5.560   5.308  0.2674  0.6358 -0.2993
15395TIP3   OH267675   3.909   1.102   1.915 -0.2940 -0.3448 -0.0915
15395TIP3    H167676   3.815   1.083   1.924 -0.3850 -0.4899 -1.1668
15395TIP3    H267677   3.948   1.020   1.884  0.4427 -0.7016  1.6960
15396TIP3   OH267678   1.899   5.924  16.722  0.2293  0.1300  0.1677
15396TIP3    H167679   1.922   5.854  16.661 -1.7163 -0.6243  0.2456
15396TIP3    H267680   1.836   5.885  16.782 -0.5299  1.8007  0.5296
15397TIP3   OH267681   2.337   2.911  16.402  0.9239  0.5054  0.0538
15397TIP3    H167682   2.375   2.995  16.378 -0.4650  1.4330  0.9364
15397TIP3    H267683   2.386   2.847  16.350  1.4301  1.9184 -1.3048
15398TIP3   OH267684   5.236   2.162  12.610 -0.0996 -0.2691 -0.1082
15398TIP3    H167685   5.213   2.079  12.652  0.9851 -0.3493  0.3670
15398TIP3    H267686   5.289   2.208  12.676  0.4565  0.2039 -0.8735
15399TIP3   OH267687   3.707   5.881  17.223  0.5365 -0.1680  0.2688
15399TIP3    H167688   3.756   5.930  17.157 -0.5898 -0.0644 -0.5292
15399TIP3    H267689   3.694   5.794  17.184 -0.5115  0.0279  0.1408
15400TIP3   OH267690   6.613   2.544   2.262  0.2061 -0.0762  0.0540
15400TIP3    H167691   6.592   2.576   2.175  3.0241  1.4082 -0.2068
15400TIP3    H267692   6.571   2.458   2.267 -0.3371 -0.0474 -2.6106
15401TIP3   OH267693   5.799   1.225  14.291 -0.7048  0.1950  0.1808
15401TIP3    H167694   5.845   1.266  14.364 -1.0168  0.8870 -0.0019
15401TIP3    H267695   5.866   1.175  14.245 -0.1911  0.9453  0.0959
15402TIP3   OH267696   2.668   0.039   5.100 -0.5851 -0.1210 -0.0455
15402TIP3    H167697   2.657  -0.027   5.168  0.9631 -0.9501 -0.5487
15402TIP3    H267698   2.738   0.005   5.044  1.3299  2.6013  0.5012
15403TIP3   OH267699   4.991   6.721   0.554 -0.0771 -0.1075 -0.0243
15403TIP3    H167700   5.047   6.665   0.500  0.9839 -0.3422  1.2391
15403TIP3    H267701   5.052   6.781   0.596 -0.8972  0.2635  0.6623
15404TIP3   OH267702   3.273   6.741  12.384  0.1209 -0.4197  0.6886
15404TIP3    H167703   3.308   6.672  12.328  0.9171  1.0301 -0.6711
15404TIP3    H267704   3.275   6.703  12.472  0.8520 -1.9993  0.0332
15405TIP3   OH267705   0.221   1.055   0.672  0.6983 -0.0432 -0.6733
15405TIP3    H167706   0.206   1.091   0.759  1.7045 -0.4563 -0.3200
15405TIP3    H267707   0.166   0.976   0.669 -0.2730  0.6161 -0.8724
15406TIP3   OH267708   1.198   1.524  16.478  0.1224  0.5238 -0.4961
15406TIP3    H167709   1.281   1.521  16.525 -0.5957 -0.6869  0.7769
15406TIP3    H267710   1.220   1.559  16.391  2.6002 -2.8166 -1.4150
15407TIP3   OH267711   5.412   3.186  15.507 -0.1643  0.5622 -0.6461
15407TIP3    H167712   5.417   3.244  15.430  1.8890  0.1099 -0.9172
15407TIP3    H267713   5.458   3.107  15.480 -1.5047 -0.5917  0.2790
15408TIP3   OH267714   5.320   6.150  13.803  0.3849 -0.2233 -0.1669
15408TIP3    H167715   5.297   6.136  13.895 -0.7880 -0.0700 -0.4094
15408TIP3    H267716   5.350   6.064  13.773  0.4882 -0.3495  0.2876
15409TIP3   OH267717   6.668   2.387   4.846  0.1691 -0.1530 -0.1729
15409TIP3    H167718   6.649   2.358   4.935  1.4679 -1.4399 -0.2774
15409TIP3    H267719   6.763   2.391   4.842  0.1754 -0.9126 -1.7315
15410TIP3   OH267720   1.208   5.041   2.565  0.1265 -0.1743 -0.0723
15410TIP3    H167721   1.168   4.993   2.493 -1.0352 -0.1619  0.5484
15410TIP3    H267722   1.289   5.077   2.527 -1.2243  1.1858 -1.8706
15411TIP3   OH267723   6.144   1.392  12.643  0.2873 -0.2178 -0.2329
15411TIP3    H167724   6.203   1.445  12.590  1.1683 -1.0948 -0.1526
15411TIP3    H267725   6.072   1.370  12.584  1.3535 -1.3473 -1.1387
15412TIP3   OH267726   1.874   3.311   4.717  0.4357 -0.8420  1.0446
15412TIP3    H167727   1.848   3.303   4.809 -0.9595  3.2342  1.1811
15412TIP3    H267728   1.937   3.383   4.715 -0.6519  0.1539 -1.2946
15413TIP3   OH267729   0.973   3.228   2.434 -0.1485  0.7890  0.2083
15413TIP3    H167730   0.924   3.219   2.516  0.7002 -0.2509  0.6218
15413TIP3    H267731   0.917   3.187   2.368 -0.6492  1.2547  0.3384
15414TIP3   OH267732   1.083   2.182   1.234 -0.3106 -0.2759 -0.0322
15414TIP3    H167733   1.120   2.166   1.147  0.3158 -0.5927  0.2862
15414TIP3    H267734   1.151   2.233   1.279 -1.7549  2.3518 -0.6364
15415TIP3   OH267735   1.076   0.507   0.770  0.6178  0.6097 -0.2471
15415TIP3    H167736   1.014   0.435   0.772  0.9489  0.3293  0.0116
15415TIP3    H267737   1.106   0.511   0.679 -0.1643  1.0849 -0.4932
15416TIP3   OH267738   6.094   6.476  14.598 -0.0820  0.0401 -0.5519
15416TIP3    H167739   6.080   6.433  14.514 -0.6422  0.1248 -0.5052
15416TIP3    H267740   6.074   6.568  14.582 -2.7013 -0.3225  0.2536
15417TIP3   OH267741   3.638   2.030   5.322 -0.0185  0.3277 -0.0929
15417TIP3    H167742   3.632   2.005   5.230  1.4871  1.1548 -0.4611
15417TIP3    H267743   3.580   2.106   5.330 -0.7094 -0.1876 -0.1801
15418TIP3   OH267744   0.426   0.486   2.237  0.4836 -0.2707  0.1274
15418TIP3    H167745   0.352   0.440   2.197  0.2631 -0.9758  1.2845
15418TIP3    H267746   0.487   0.501   2.165 -0.6455  0.0564 -0.7923
15419TIP3   OH267747   1.664   3.715  11.768 -0.2845  0.6079  0.0797
15419TIP3    H167748   1.626   3.770  11.699  0.9005 -1.3067 -2.2296
15419TIP3    H267749   1.722   3.655  11.722  0.5883 -0.7950  2.7911
15420TIP3   OH267750   5.448   3.148   6.748  0.6402  0.3954 -0.3782
15420TIP3    H167751   5.392   3.138   6.825  0.8423 -1.7180 -0.4625
15420TIP3    H267752   5.437   3.240   6.723 -0.5742  0.7508  1.2831
15421TIP3   OH267753   3.339   3.022   2.089  0.3814 -0.2855 -0.5408
15421TIP3    H167754   3.331   2.936   2.128  2.1389  0.0768  0.7516
15421TIP3    H267755   3.410   3.013   2.025  0.3874  0.1137 -0.5930
15422TIP3   OH267756   1.953   1.693  16.658 -0.2483  0.4356  0.2926
15422TIP3    H167757   1.872   1.676  16.611 -0.0016  1.3933 -0.5214
15422TIP3    H267758   2.020   1.697  16.590  0.4847 -0.3045  0.9518
15423TIP3   OH267759   4.179   2.680   2.369  0.2671  0.0718 -0.3295
15423TIP3    H167760   4.128   2.658   2.290 -0.0601  2.4197 -0.8333
15423TIP3    H267761   4.243   2.609   2.376  1.4537  0.6167 -3.7210
15424TIP3   OH267762   2.867   4.515  10.898 -0.8595 -0.2991  0.3585
15424TIP3    H167763   2.809   4.472  10.834 -0.0704 -0.0479 -0.5487
15424TIP3    H267764   2.865   4.608  10.873  0.1499 -0.3262  0.1337
15425TIP3   OH267765   2.283   6.690  14.057  0.3784  0.0548 -0.6225
15425TIP3    H167766   2.256   6.768  14.106 -0.7150 -0.7236  0.0580
15425TIP3    H267767   2.217   6.624  14.079  1.4506 -1.1583 -0.9412
15426TIP3   OH267768   6.295   4.196  11.991  0.2602  0.5227  0.3169
15426TIP3    H167769   6.282   4.120  12.048  3.0728 -1.8545 -1.9400
15426TIP3    H267770   6.208   4.237  11.987 -1.8362 -3.3749  0.5023
15427TIP3   OH267771   3.096   3.124   4.988  0.0058 -0.3055  0.2811
15427TIP3    H167772   3.013   3.168   5.006 -0.3772 -0.8259 -0.1697
15427TIP3    H267773   3.136   3.112   5.074  0.3351  1.3159  0.3809
15428TIP3   OH267774   2.765   1.881   3.682 -0.2306  0.3928 -0.1231
15428TIP3    H167775   2.818   1.832   3.620 -0.6787  1.1424 -1.1290
15428TIP3    H267776   2.697   1.819   3.710  0.7212 -0.3494  0.6374
15429TIP3   OH267777   6.628   4.778  16.472  0.3004 -0.6099  0.2211
15429TIP3    H167778   6.599   4.812  16.557  1.5915 -1.2073  0.9289
15429TIP3    H267779   6.549   4.741  16.433 -0.1662 -1.0156  1.5070
15430TIP3   OH267780   3.375   1.104   5.719 -0.2811 -0.0973 -0.1880
15430TIP3    H167781   3.343   1.191   5.695  0.4144  0.8549  2.0109
15430TIP3    H267782   3.470   1.111   5.712 -0.2658 -1.0443 -1.0428
15431TIP3   OH267783   1.298   5.987   2.506  0.8603  0.5825 -0.5327
15431TIP3    H167784   1.206   5.962   2.505  0.9894  0.0454 -2.2349
15431TIP3    H267785   1.345   5.904   2.514  1.2003  0.7620 -0.6534
15432TIP3   OH267786   4.492   2.053  12.662  0.1003 -0.0681 -0.1698
15432TIP3    H167787   4.449   1.983  12.711  0.1900 -0.3077 -0.4330
15432TIP3    H267788   4.585   2.032  12.665  0.2987  0.8638  1.0573
15433TIP3   OH267789   4.888   5.805  15.935  0.4394 -0.2851 -0.2901
15433TIP3    H167790   4.897   5.899  15.947  1.2916 -0.0959 -2.0398
15433TIP3    H267791   4.845   5.774  16.015 -1.0502  1.7598 -0.2161
15434TIP3   OH267792   2.489   3.142   1.551  0.1043 -0.0624  0.6075
15434TIP3    H167793   2.484   3.110   1.642 -0.1649 -0.8657  0.3225
15434TIP3    H267794   2.579   3.175   1.542  0.3344 -0.5695  0.9822
15435TIP3   OH267795   4.189   0.903   1.016 -0.4528 -0.3376  0.0948
15435TIP3    H167796   4.115   0.907   1.076 -1.4365 -0.6320 -1.0438
15435TIP3    H267797   4.166   0.963   0.945  2.2434  2.7870  1.5757
15436TIP3   OH267798   5.099   3.592  13.941 -0.2958  0.0043 -0.3924
15436TIP3    H167799   5.089   3.502  13.974 -0.8013 -0.0808 -0.7534
15436TIP3    H267800   5.098   3.582  13.845 -0.5164  0.4114 -0.4338
15437TIP3   OH267801   2.611   6.104  15.562 -0.2043 -0.3995  0.5419
15437TIP3    H167802   2.615   6.167  15.489 -0.7416 -0.6206  0.3131
15437TIP3    H267803   2.567   6.027  15.525 -2.6467  0.3385  1.6676
15438TIP3   OH267804   2.524   4.333  10.751 -0.1669 -0.0934 -0.0473
15438TIP3    H167805   2.571   4.312  10.832  1.1037  0.3169 -0.6478
15438TIP3    H267806   2.544   4.260  10.693 -0.0489  0.2235 -0.4057
15439TIP3   OH267807   3.119   6.587  17.324 -0.8683 -0.3079 -0.3229
15439TIP3    H167808   3.089   6.500  17.349  1.8420 -1.2569  0.0446
15439TIP3    H267809   3.132   6.581  17.229  0.8061 -0.8976 -0.0969
15440TIP3   OH267810   0.185   4.034  11.562  0.1099  0.4233  0.2240
15440TIP3    H167811   0.107   3.983  11.588 -0.0055  0.4394 -0.0925
15440TIP3    H267812   0.224   4.060  11.645 -1.2526  2.0084  0.4166
15441TIP3   OH267813   1.308   6.563  14.872  0.8453 -0.7110  0.1945
15441TIP3    H167814   1.315   6.534  14.781 -1.1205  1.0661 -0.6103
15441TIP3    H267815   1.246   6.501  14.912 -2.0144  1.1301 -1.0577
15442TIP3   OH267816   0.426   2.303   0.672 -0.0810 -0.4089  0.0704
15442TIP3    H167817   0.449   2.215   0.701  0.2201 -0.1218  0.7224
15442TIP3    H267818   0.333   2.312   0.695 -0.2072 -0.6768 -0.3181
15443TIP3   OH267819   4.623   5.750  17.014 -0.0945 -0.1107 -0.2565
15443TIP3    H167820   4.638   5.798  17.095 -1.8597 -1.6606  1.0850
15443TIP3    H267821   4.599   5.817  16.950  0.3441  1.0503  0.7543
15444TIP3   OH267822   6.291   5.609   2.086 -0.1510 -0.4394  0.7208
15444TIP3    H167823   6.251   5.690   2.056 -0.1260 -0.5219  0.4645
15444TIP3    H267824   6.313   5.626   2.178 -1.3438 -0.6001  1.0557
15445TIP3   OH267825   4.776   6.332  13.675  0.3720 -0.5095 -0.5851
15445TIP3    H167826   4.767   6.308  13.583 -0.5914 -1.0183 -0.3739
15445TIP3    H267827   4.812   6.420  13.674 -1.0366  0.0945 -1.4826
15446TIP3   OH267828   2.785   0.746   1.526  0.5422  0.1775 -0.1148
15446TIP3    H167829   2.745   0.826   1.491 -2.1712 -1.4130 -0.8922
15446TIP3    H267830   2.815   0.770   1.613 -4.6222  0.9827  1.7598
15447TIP3   OH267831   4.991   1.395  10.659  0.4776  0.2487 -0.5787
15447TIP3    H167832   5.082   1.420  10.676  0.7065 -0.0564 -1.3183
15447TIP3    H267833   4.991   1.362  10.569  0.1855 -2.3984  0.3299
15448TIP3   OH267834   6.085   2.316  12.102 -0.8215 -0.2358 -0.4779
15448TIP3    H167835   5.993   2.326  12.077 -1.3762  2.0104  2.0702
15448TIP3    H267836   6.133   2.364  12.035 -1.4944 -0.9014 -1.4850
15449TIP3   OH267837   0.786   6.149   5.328  0.2171 -0.8421  0.0634
15449TIP3    H167838   0.733   6.138   5.408 -2.5555  0.2265 -1.4827
15449TIP3    H267839   0.723   6.176   5.262  2.8475  1.0184 -1.8791
15450TIP3   OH267840   3.418   3.778  13.727  0.5122  0.2958 -0.2177
15450TIP3    H167841   3.408   3.853  13.786 -1.0874  1.9276 -2.3767
15450TIP3    H267842   3.410   3.816  13.640  0.9080 -2.2595 -1.4472
15451TIP3   OH267843   0.514   2.133  10.569  0.0390 -0.0557  0.2483
15451TIP3    H167844   0.604   2.137  10.603  0.1498 -3.1631  0.6278
15451TIP3    H267845   0.463   2.093  10.640 -1.2031 -0.2860 -0.7395
15452TIP3   OH267846   3.102   0.487   5.361 -0.0846  0.4174 -0.2726
15452TIP3    H167847   3.017   0.511   5.399  0.7818  0.5032  1.7758
15452TIP3    H267848   3.119   0.556   5.296 -0.3930  1.9757  1.2135
15453TIP3   OH267849   6.253   0.261  12.684  0.1139  0.0161  0.1372
15453TIP3    H167850   6.263   0.327  12.753 -0.8234  2.7767 -2.1701
15453TIP3    H267851   6.169   0.282  12.643  1.5196 -0.1188 -3.1232
15454TIP3   OH267852   1.599   0.629  16.528 -0.6282  0.2536  0.0128
15454TIP3    H167853   1.516   0.588  16.505 -1.0313  1.0360  0.0470
15454TIP3    H267854   1.644   0.565  16.582 -1.0263 -0.3447 -0.3574
15455TIP3   OH267855   2.965   4.019   3.238  0.4518  0.2662  0.2348
15455TIP3    H167856   2.874   4.015   3.208  0.3949  0.0013  0.4362
15455TIP3    H267857   2.967   4.090   3.302  0.9583  2.0584 -1.6705
15456TIP3   OH267858   4.519   1.236   0.320 -0.7201  0.0713 -0.6294
15456TIP3    H167859   4.494   1.327   0.335 -1.3990 -0.1811 -0.2085
15456TIP3    H267860   4.583   1.217   0.390 -2.7252 -0.6310  1.1274
15457TIP3   OH267861   0.306   3.919   6.091  0.2936 -0.0028  0.3591
15457TIP3    H167862   0.348   4.006   6.091  1.4987 -0.5651  0.8737
15457TIP3    H267863   0.218   3.935   6.126  0.1523  1.1516 -0.4298
15458TIP3   OH267864   6.450   4.577  11.127  0.2826  0.0401  0.4870
15458TIP3    H167865   6.422   4.503  11.072  0.1444 -0.4907  1.2587
15458TIP3    H267866   6.474   4.645  11.064  0.2239 -0.5890 -0.2372
15459TIP3   OH267867   6.482   3.358  13.723  0.2505 -0.1179  0.2658
15459TIP3    H167868   6.512   3.377  13.634  0.0650  0.8477  0.3951
15459TIP3    H267869   6.559   3.372  13.778 -0.0861  1.1332  0.4548
15460TIP3   OH267870   2.534   4.596   5.765 -0.0134  0.0970 -0.2994
15460TIP3    H167871   2.544   4.590   5.860 -0.1100  1.3945 -0.1935
15460TIP3    H267872   2.619   4.571   5.730  0.0845 -0.1803  0.1237
15461TIP3   OH267873   1.055   4.225  13.954 -0.0424 -0.1701 -0.3964
15461TIP3    H167874   0.985   4.283  13.984 -0.3268  0.7011 -2.5693
15461TIP3    H267875   1.015   4.174  13.883  0.5287 -2.2882  0.7260
15462TIP3   OH267876   6.645   2.877   6.094  0.0741 -0.2023 -0.5972
15462TIP3    H167877   6.688   2.863   6.009  1.6940 -0.0793  0.1619
15462TIP3    H267878   6.717   2.898   6.154 -1.0874  0.1827  0.7135
15463TIP3   OH267879   5.067   2.401  13.481  0.1386  0.2154  0.2874
15463TIP3    H167880   4.990   2.382  13.428  0.8911 -1.3975 -0.2739
15463TIP3    H267881   5.134   2.426  13.418 -0.1913  2.8601  0.8449
15464TIP3   OH267882   2.393   1.283   5.321  0.4003  0.1163  0.2638
15464TIP3    H167883   2.348   1.210   5.278 -1.3123  0.8499  0.7015
15464TIP3    H267884   2.411   1.251   5.410  2.2953 -0.7562 -0.3867
15465TIP3   OH267885   3.421   0.500   1.406  0.4949 -0.5818 -0.0293
15465TIP3    H167886   3.439   0.407   1.393 -2.3911 -1.5261  1.9157
15465TIP3    H267887   3.345   0.503   1.463  1.0927  3.0280  0.8555
15466TIP3   OH267888   4.104   4.760   3.481 -0.0061 -0.4771 -0.1829
15466TIP3    H167889   4.189   4.747   3.439 -0.4314  1.5010 -1.8201
15466TIP3    H267890   4.120   4.823   3.551 -0.3408  1.2788 -1.6125
15467TIP3   OH267891   4.302   3.500  11.220 -0.0989 -0.4491  0.5885
15467TIP3    H167892   4.363   3.462  11.282 -1.3036 -0.0665  2.0530
15467TIP3    H267893   4.315   3.450  11.139  2.0502 -0.4363  0.8677
15468TIP3   OH267894   3.143   4.603  17.029  0.6709 -0.2680  0.3997
15468TIP3    H167895   3.161   4.515  17.062  2.8368 -0.1458 -0.2638
15468TIP3    H267896   3.221   4.626  16.979 -0.4148  1.5155 -0.5862
15469TIP3   OH267897   1.839   3.721   0.976  0.0274 -0.2095  0.4949
15469TIP3    H167898   1.872   3.711   1.065 -2.4791 -0.9999  1.4299
15469TIP3    H267899   1.852   3.635   0.935  0.1702 -0.1801  0.4799
15470TIP3   OH267900   4.580   3.139   1.228 -0.1954 -0.0769 -0.4233
15470TIP3    H167901   4.568   3.207   1.161  0.5468 -0.5106 -1.0021
15470TIP3    H267902   4.662   3.096   1.205 -1.3106 -2.0881 -0.8837
15471TIP3   OH267903   3.632   0.799   2.040 -0.1584 -0.2578 -0.0071
15471TIP3    H167904   3.548   0.812   2.084  1.7143  1.5458  3.4700
15471TIP3    H267905   3.683   0.876   2.063  2.7833 -1.7266 -1.1491
15472TIP3   OH267906   4.788   1.034  10.436  0.0197  0.2762  0.1359
15472TIP3    H167907   4.773   0.940  10.425  1.6450 -0.0452  0.4212
15472TIP3    H267908   4.710   1.066  10.480 -0.0979 -1.1385  1.0121
15473TIP3   OH267909   4.099   1.074   2.114  0.3317 -0.1545  0.0104
15473TIP3    H167910   4.025   1.090   2.056  0.4251  1.2367  0.2323
15473TIP3    H267911   4.168   1.039   2.057  0.5074  1.4128 -0.7944
15474TIP3   OH267912   2.611   3.940   6.641  0.0328  0.1329  0.1994
15474TIP3    H167913   2.615   3.885   6.719  1.4076  0.9503  0.7315
15474TIP3    H267914   2.517   3.949   6.624 -0.2606 -2.5220 -0.0514
15475TIP3   OH267915   2.326   2.534   0.200  0.1946  0.0582 -0.0271
15475TIP3    H167916   2.331   2.620   0.241  0.7382  0.4806 -0.9393
15475TIP3    H267917   2.266   2.484   0.255 -0.9304  1.3406 -0.0452
15476TIP3   OH267918   2.702   4.630  13.282  0.4284  0.3322 -0.6382
15476TIP3    H167919   2.706   4.535  13.283 -0.2365  0.2831 -1.3401
15476TIP3    H267920   2.609   4.650  13.273  0.4362  1.0747  0.7435
15477TIP3   OH267921   4.093   2.643   3.531 -0.0692 -0.3832  0.1884
15477TIP3    H167922   4.152   2.673   3.462  0.3970 -1.8779 -0.1170
15477TIP3    H267923   4.149   2.591   3.589 -0.4635  0.8066  1.6841
15478TIP3   OH267924   5.683   1.149  15.248  0.0590 -0.3608  0.4492
15478TIP3    H167925   5.759   1.203  15.266  0.8342 -0.8438 -1.1880
15478TIP3    H267926   5.621   1.208  15.204  0.7930 -0.6819 -1.0846
15479TIP3   OH267927   1.463   3.713   3.515 -0.0921  0.0262  0.2246
15479TIP3    H167928   1.539   3.724   3.571  0.5452  1.0715 -0.8052
15479TIP3    H267929   1.495   3.658   3.443 -0.4819 -0.0413  0.1007
15480TIP3   OH267930   0.377   1.572  11.276 -0.2774  0.3017  0.1069
15480TIP3    H167931   0.311   1.506  11.257 -0.3272 -0.0534  1.4119
15480TIP3    H267932   0.398   1.611  11.191 -2.4382  0.6848 -0.2875
15481TIP3   OH267933   0.984   5.763   3.915 -0.5890  0.4396  0.2111
15481TIP3    H167934   1.047   5.720   3.973  0.1240  0.2998 -0.6361
15481TIP3    H267935   0.929   5.815   3.973 -0.2624 -0.1396  1.0623
15482TIP3   OH267936   5.657   4.566  14.503  0.4049 -0.0312  0.1697
15482TIP3    H167937   5.664   4.661  14.509 -0.9486  0.1821 -1.1496
15482TIP3    H267938   5.623   4.540  14.589 -0.5549  0.8462  0.0803
15483TIP3   OH267939   3.898   6.700   4.384  0.0082  0.0430  0.6055
15483TIP3    H167940   3.911   6.793   4.403 -0.4489  0.1598  0.3572
15483TIP3    H267941   3.987   6.665   4.374  0.2089  0.3143  1.3271
15484TIP3   OH267942   3.739   0.626   0.655 -0.0635  0.0698 -0.1515
15484TIP3    H167943   3.732   0.545   0.604  0.0125 -0.6752  0.9806
15484TIP3    H267944   3.757   0.694   0.590 -3.7401 -0.1606 -1.6694
15485TIP3   OH267945   6.421   3.366   4.288 -0.4333 -0.5496  0.3914
15485TIP3    H167946   6.424   3.330   4.199 -0.4430 -1.2996  0.6900
15485TIP3    H267947   6.387   3.295   4.342 -0.3040 -0.1437  1.0178
15486TIP3   OH267948   3.299   1.141  15.289  0.4313  0.2046 -0.1057
15486TIP3    H167949   3.300   1.206  15.360 -2.7713 -0.9802  1.2096
15486TIP3    H267950   3.262   1.188  15.214 -0.4446  0.3339  0.3903
15487TIP3   OH267951   4.728   3.710   5.347  0.5034 -0.1945  0.2971
15487TIP3    H167952   4.786   3.634   5.355  1.0242  0.1718  0.0617
15487TIP3    H267953   4.688   3.701   5.261  1.4074  0.3667 -0.2020
15488TIP3   OH267954   5.034   2.038  14.827  0.4026 -0.5270 -0.3542
15488TIP3    H167955   5.128   2.044  14.808  0.4138  1.5660  0.0709
15488TIP3    H267956   5.028   2.041  14.923 -0.0575 -1.8348 -0.3295
15489TIP3   OH267957   5.484   4.300   3.937  0.6921  0.1428 -0.1321
15489TIP3    H167958   5.500   4.237   3.868  2.1393  1.2085 -0.8127
15489TIP3    H267959   5.470   4.247   4.015  0.2647 -1.0426 -0.9925
15490TIP3   OH267960   3.476   5.790   6.285 -0.0647 -0.5523 -0.6844
15490TIP3    H167961   3.520   5.839   6.216  2.2732 -0.0383  1.0208
15490TIP3    H267962   3.383   5.805   6.271  0.4490  1.6806 -2.1449
15491TIP3   OH267963   4.779   5.695  13.755  0.1282  0.1170  0.3089
15491TIP3    H167964   4.805   5.605  13.739 -0.8861 -0.2345  0.5915
15491TIP3    H267965   4.696   5.705  13.710  1.0870  1.4647 -1.2693
15492TIP3   OH267966   0.614   0.815   3.972  0.1178  0.0408  0.8277
15492TIP3    H167967   0.619   0.872   4.049  2.5808  0.5001  0.4218
15492TIP3    H267968   0.585   0.873   3.901  2.1438  0.7711  0.5198
15493TIP3   OH267969   4.181   5.614   4.335 -0.3638  0.1725  0.1806
15493TIP3    H167970   4.247   5.591   4.269 -1.1205  1.7567 -1.2024
15493TIP3    H267971   4.121   5.539   4.334  0.7618 -0.7597  0.6147
15494TIP3   OH267972   6.793   3.260  12.495  0.0340  0.2734 -0.1193
15494TIP3    H167973   6.836   3.194  12.550 -0.6886 -1.4012 -1.4775
15494TIP3    H267974   6.801   3.341  12.545  2.6400 -0.4238  0.7591
15495TIP3   OH267975   5.917   2.412  15.126  0.4113  0.7834  0.2522
15495TIP3    H167976   5.837   2.463  15.134 -1.0340 -1.3242  0.1962
15495TIP3    H267977   5.893   2.340  15.068  1.6482 -1.1660  2.0192
15496TIP3   OH267978   1.001   2.474  14.956  0.0954  0.2044  0.1439
15496TIP3    H167979   1.049   2.556  14.956 -0.0717  0.3254  1.4952
15496TIP3    H267980   1.063   2.408  14.987 -0.1172  0.0506  0.2534
15497TIP3   OH267981   0.322   5.219  16.916 -0.0592  0.2160  0.5905
15497TIP3    H167982   0.343   5.311  16.902  1.5074  0.0800  1.7817
15497TIP3    H267983   0.306   5.184  16.828  2.1954  0.9852 -0.1930
15498TIP3   OH267984   2.260   2.892  13.607 -0.3772  0.4576  0.6097
15498TIP3    H167985   2.252   2.800  13.580  0.1519  0.5076  0.2617
15498TIP3    H267986   2.352   2.913  13.592 -0.5280  1.0880  0.5503
15499TIP3   OH267987   5.063   5.963  14.149 -0.1491 -0.3395  0.0463
15499TIP3    H167988   4.972   5.946  14.173 -0.9280  0.3626 -2.1535
15499TIP3    H267989   5.111   5.885  14.179 -1.3444 -0.4725  1.7253
15500TIP3   OH267990   3.374   4.267   2.647  0.5994  0.1738 -0.4771
15500TIP3    H167991   3.301   4.327   2.632 -0.4493 -1.0527 -0.4751
15500TIP3    H267992   3.352   4.223   2.730  2.0257  0.7301  0.2382
15501TIP3   OH267993   4.951   1.907   4.515 -0.0377 -0.6205 -0.2334
15501TIP3    H167994   4.893   1.859   4.573 -1.1043 -1.0359 -1.5784
15501TIP3    H267995   4.896   1.977   4.479  1.1165  0.8104  0.6508
15502TIP3   OH267996   5.394   0.821  13.415 -0.1705  0.1208  0.5054
15502TIP3    H167997   5.481   0.860  13.422 -0.2465  0.2196  0.8935
15502TIP3    H267998   5.410   0.734  13.378 -0.1408  1.1328 -2.1087
15503TIP3   OH267999   5.638   0.195  17.109  0.2581  0.7666 -0.1110
15503TIP3    H168000   5.544   0.201  17.126  0.0882 -0.4629 -0.5555
15503TIP3    H268001   5.645   0.144  17.029  1.3664 -1.2902  1.2101
15504TIP3   OH268002   3.181   3.360  14.896 -0.1679 -0.2018  0.3412
15504TIP3    H168003   3.213   3.277  14.860 -0.6794 -0.3238  0.1638
15504TIP3    H268004   3.181   3.346  14.991 -0.9475 -0.6629  0.2793
15505TIP3   OH268005   2.018   1.461   2.326  0.4001  0.0211  0.3982
15505TIP3    H168006   2.002   1.494   2.238  0.3700 -0.9998  0.0143
15505TIP3    H268007   1.962   1.516   2.382  1.4756  1.6134 -0.0260
15506TIP3   OH268008   4.157   0.057   1.144 -0.9907 -0.1560 -0.3132
15506TIP3    H168009   4.244   0.017   1.147 -0.7947  0.2958  0.2399
15506TIP3    H268010   4.098  -0.011   1.175 -0.7615 -0.2869 -0.1638
15507TIP3   OH268011   2.015   2.502   0.680  0.2661  0.5278  0.1344
15507TIP3    H168012   2.085   2.509   0.746  2.2765  1.1018 -1.9319
15507TIP3    H268013   1.954   2.438   0.716  2.2408 -0.5740  1.7264
15508TIP3   OH268014   6.737   3.850   0.872 -0.0512 -0.2595  0.2067
15508TIP3    H168015   6.785   3.915   0.821 -0.0827 -1.5448 -1.5696
15508TIP3    H268016   6.645   3.874   0.862 -0.2823 -1.8738 -2.5636
15509TIP3   OH268017   6.373   0.094  11.647  0.1673 -0.1117  0.1308
15509TIP3    H168018   6.459   0.097  11.689 -0.1251  0.1834  0.7207
15509TIP3    H268019   6.361   0.002  11.622  0.2812 -0.3273  0.8403
15510TIP3   OH268020   3.732   3.334  16.378 -0.3535 -0.9387 -0.0813
15510TIP3    H168021   3.729   3.321  16.473 -0.1316 -1.2194 -0.1089
15510TIP3    H268022   3.641   3.344  16.352 -0.3395  3.9013  0.7727
15511TIP3   OH268023   5.802   3.111   0.215  0.5173 -0.2492  0.8238
15511TIP3    H168024   5.729   3.069   0.171 -0.8055  0.9667  1.7772
15511TIP3    H268025   5.869   3.043   0.221 -1.0565 -1.8260  1.1759
15512TIP3   OH268026   0.496   4.433   5.418  0.4533 -0.5622 -0.1798
15512TIP3    H168027   0.511   4.469   5.505  0.8639  0.1689 -0.5351
15512TIP3    H268028   0.404   4.405   5.419  0.2902 -0.0337  0.3045
15513TIP3   OH268029   6.245   2.191  14.732 -0.0373  0.5207 -0.2282
15513TIP3    H168030   6.176   2.256  14.739 -0.9359 -0.5878  2.5830
15513TIP3    H268031   6.199   2.107  14.733  1.2610 -0.2232 -0.1852
15514TIP3   OH268032   6.531   1.734   2.094  0.2289  0.3889  0.2540
15514TIP3    H168033   6.569   1.815   2.130  0.0527  0.5697  0.0379
15514TIP3    H268034   6.514   1.679   2.170  1.2287  0.1732  0.3376
15515TIP3   OH268035   2.154   5.396  14.839 -0.7418  0.2698 -0.0129
15515TIP3    H168036   2.181   5.347  14.916  0.0745  1.3565  0.4284
15515TIP3    H268037   2.201   5.355  14.766 -0.3920  0.1385  0.2846
15516TIP3   OH268038   0.506   0.725  13.042 -0.3667  0.5039  0.3616
15516TIP3    H168039   0.537   0.719  12.952 -0.9822 -0.8705  0.2212
15516TIP3    H268040   0.581   0.697  13.095  0.1559  1.7745  0.3347
15517TIP3   OH268041   2.990   3.835  15.109 -0.3233 -0.9122  0.1602
15517TIP3    H168042   3.080   3.805  15.120  0.0304 -0.2986 -0.8815
15517TIP3    H268043   2.975   3.896  15.181  0.6802  0.2474 -0.5685
15518TIP3   OH268044   6.342   4.274  17.363  0.6610 -0.7062  0.4135
15518TIP3    H168045   6.311   4.362  17.343  2.4919  0.1646  1.2598
15518TIP3    H268046   6.380   4.243  17.280  0.2067 -0.6255  0.1726
15519TIP3   OH268047   6.728   4.975   3.937  0.2974  0.6110  0.0603
15519TIP3    H168048   6.735   4.881   3.920 -0.0263  0.7544 -0.9759
15519TIP3    H268049   6.813   5.011   3.910  0.1789  0.6933 -0.2160
15520TIP3   OH268050   3.014   4.473   4.029  0.0616  0.6981 -0.0031
15520TIP3    H168051   2.949   4.500   3.964 -2.0342 -0.1657  1.6074
15520TIP3    H268052   2.963   4.425   4.095  2.0648  1.5623  2.3138
15521TIP3   OH268053   5.115   5.409  12.978 -0.2184 -1.0491 -0.2562
15521TIP3    H168054   5.070   5.465  12.914 -0.7033  1.0075  1.7660
15521TIP3    H268055   5.205   5.405  12.946 -0.3329  0.3608 -0.8470
15522TIP3   OH268056   6.116   3.924   3.291 -0.1232  0.5467 -0.3867
15522TIP3    H168057   6.112   4.008   3.337 -0.6543  0.0414  0.5184
15522TIP3    H268058   6.154   3.945   3.206  0.4579  1.5838  0.1069
15523TIP3   OH268059   4.339   0.790   0.765 -0.1820 -0.8092  0.1872
15523TIP3    H168060   4.323   0.835   0.848  1.2565  0.2729 -0.0778
15523TIP3    H268061   4.255   0.793   0.720 -0.4917  0.3539  0.7979
15524TIP3   OH268062   3.758   0.091   2.169  0.0511 -0.4292  0.6723
15524TIP3    H168063   3.821   0.161   2.184  0.1584 -0.9026  2.8632
15524TIP3    H268064   3.682   0.116   2.223 -0.9839 -0.7034 -0.6005
15525TIP3   OH268065   4.339   4.910   4.638 -0.0702 -0.4022 -0.4912
15525TIP3    H168066   4.391   4.858   4.699  0.5416 -1.0820 -1.5504
15525TIP3    H268067   4.390   4.990   4.625  0.0160 -0.4525 -0.4602
15526TIP3   OH268068   4.848   6.690  11.335  0.3272  0.6240 -0.2820
15526TIP3    H168069   4.822   6.693  11.427 -0.5490  0.4915 -0.5254
15526TIP3    H268070   4.821   6.775  11.300  1.8330  1.2115 -0.1214
15527TIP3   OH268071   0.954   4.256  12.454 -0.1159 -0.2426  0.1628
15527TIP3    H168072   1.023   4.252  12.521 -0.9378  0.0741  1.0415
15527TIP3    H268073   0.996   4.300  12.379  0.8350 -0.6735  0.4349
15528TIP3   OH268074   5.064   0.378  11.001  0.3555  0.1077  0.3301
15528TIP3    H168075   4.995   0.443  10.994 -0.1759 -0.3886  0.8403
15528TIP3    H268076   5.023   0.304  11.047  1.7007  0.4969  2.2726
15529TIP3   OH268077   4.007   6.466  15.243  0.0446 -0.5981  0.0677
15529TIP3    H168078   3.938   6.400  15.256  0.1993 -0.7052  0.3416
15529TIP3    H268079   4.054   6.468  15.326  1.5435 -1.8575 -0.7101
15530TIP3   OH268080   3.844   3.375   3.969 -0.0003  0.7581  0.4472
15530TIP3    H168081   3.842   3.408   3.879  1.3574 -2.3621 -0.8990
15530TIP3    H268082   3.937   3.375   3.992  0.4097 -3.3675 -0.3786
15531TIP3   OH268083   0.205   0.689  17.252 -0.0657 -0.3528 -0.7474
15531TIP3    H168084   0.229   0.599  17.272 -0.6966 -0.0670  1.7837
15531TIP3    H268085   0.280   0.726  17.206  1.4301 -1.3836  0.7660
15532TIP3   OH268086   5.357   3.885   0.292  0.7654 -0.2070 -0.3313
15532TIP3    H168087   5.402   3.806   0.262  1.1392 -0.5985  1.1647
15532TIP3    H268088   5.302   3.911   0.218  2.4472 -0.4646 -1.7515
15533TIP3   OH268089   2.915   1.640  11.410  0.8134  0.0703  0.4636
15533TIP3    H168090   2.908   1.608  11.320  0.5193 -1.4200  0.9829
15533TIP3    H268091   2.834   1.689  11.424  1.4567  1.4664 -0.4863
15534TIP3   OH268092   6.567   3.514  14.331  0.6369  0.0467  0.2755
15534TIP3    H168093   6.505   3.547  14.265 -0.9916 -1.3735  1.0281
15534TIP3    H268094   6.533   3.428  14.355  0.4932  0.9484  3.7971
15535TIP3   OH268095   1.697   2.765  16.948  0.2499 -0.6490  0.0439
15535TIP3    H168096   1.646   2.778  17.028  1.7823 -2.1522  1.3590
15535TIP3    H268097   1.723   2.853  16.922 -0.3670 -0.1113  1.1563
15536TIP3   OH268098   0.380   5.056  16.175 -0.4442  0.1116 -0.3215
15536TIP3    H168099   0.408   4.981  16.226  0.1907  0.9077  0.5317
15536TIP3    H268100   0.334   5.018  16.100  0.0645 -1.1249 -0.0336
15537TIP3   OH268101   3.736   4.707   4.071 -0.3261 -0.0848 -0.4902
15537TIP3    H168102   3.802   4.660   4.021 -1.5201 -0.8374 -1.3968
15537TIP3    H268103   3.762   4.695   4.163  2.1943  1.7792 -0.8616
15538TIP3   OH268104   4.865   5.140  17.316 -0.4514 -0.1318 -0.6536
15538TIP3    H168105   4.772   5.164  17.322 -0.5278 -0.4817 -0.4070
15538TIP3    H268106   4.893   5.129  17.407 -0.8697 -2.6503 -0.7529
15539TIP3   OH268107   4.590   3.230  13.345 -0.1692 -0.1214  0.3597
15539TIP3    H168108   4.509   3.233  13.395 -0.6730  1.8626 -0.4719
15539TIP3    H268109   4.659   3.247  13.411 -0.3061 -2.4670  1.1784
15540TIP3   OH268110   6.277   2.335   3.091 -0.1188 -0.1828 -0.4014
15540TIP3    H168111   6.258   2.273   3.162 -0.0113  1.2164  0.8942
15540TIP3    H268112   6.197   2.386   3.082 -0.2469 -0.5667 -1.5412
15541TIP3   OH268113   3.625   1.552  14.800  0.1466  0.1389  0.5877
15541TIP3    H168114   3.602   1.471  14.756  0.1270  0.5204 -0.1263
15541TIP3    H268115   3.542   1.597  14.813  0.1706  0.1051  0.8673
15542TIP3   OH268116   5.774   4.727   5.001  1.1473  0.5852  0.4379
15542TIP3    H168117   5.764   4.809   5.049 -0.9957  0.0537  1.0299
15542TIP3    H268118   5.795   4.662   5.069 -1.0416 -0.0071  0.6551
15543TIP3   OH268119   2.505   5.759   2.797  0.0866 -0.0803 -0.2528
15543TIP3    H168120   2.442   5.824   2.829  1.7144  1.5631 -0.2121
15543TIP3    H268121   2.453   5.680   2.782 -1.9051  1.1056  0.0799
15544TIP3   OH268122   3.023   3.386  13.476  0.1464  0.4215  0.0094
15544TIP3    H168123   3.000   3.305  13.520  1.6033 -0.4324 -0.7090
15544TIP3    H268124   3.021   3.453  13.545  0.6855 -0.5599  1.0008
15545TIP3   OH268125   0.647   1.297  12.922  0.6439 -0.1468  0.5449
15545TIP3    H168126   0.641   1.224  12.861  1.4271  0.4889 -0.3203
15545TIP3    H268127   0.701   1.362  12.877  2.3124 -0.1449  2.4003
15546TIP3   OH268128   3.586   3.272   3.972 -0.5291  0.3774  0.4930
15546TIP3    H168129   3.519   3.316   3.920 -0.8539  0.3226  0.8560
15546TIP3    H268130   3.669   3.302   3.935 -0.7040 -1.5222 -1.6725
15547TIP3   OH268131   1.031   2.405  11.222  0.8970  0.4317 -0.3949
15547TIP3    H168132   0.961   2.468  11.207  0.7143  0.4547  0.5007
15547TIP3    H268133   1.048   2.367  11.135  1.5184  2.2060 -1.1049
15548TIP3   OH268134   3.662   3.693  12.338  0.2810 -0.5887  0.0888
15548TIP3    H168135   3.753   3.718  12.351 -0.5112  3.6555 -0.9179
15548TIP3    H268136   3.659   3.659  12.249  0.7252  0.5636 -0.3875
15549TIP3   OH268137   0.583   4.761   5.562 -0.0288  0.7984 -0.3942
15549TIP3    H168138   0.556   4.698   5.629 -0.6300  1.9307  0.4663
15549TIP3    H268139   0.527   4.742   5.487 -1.7338  1.6351  0.5909
15550TIP3   OH268140   5.129   5.109  11.622 -0.3045  0.2596  0.7242
15550TIP3    H168141   5.171   5.034  11.580  0.2645  2.0672 -2.2023
15550TIP3    H268142   5.040   5.079  11.641 -0.4426 -0.8379 -1.4198
15551TIP3   OH268143   5.732   6.389   1.774 -0.1643  0.1161  0.3437
15551TIP3    H168144   5.778   6.382   1.857  0.1522 -0.3670  0.1349
15551TIP3    H268145   5.790   6.439   1.718  0.8109 -1.7141 -0.3767
15552TIP3   OH268146   3.623   4.807   4.819 -0.2670 -0.1628 -0.5165
15552TIP3    H168147   3.554   4.782   4.757  0.9040  0.1429 -1.9893
15552TIP3    H268148   3.611   4.747   4.892 -0.8751 -1.4421 -1.6060
15553TIP3   OH268149   5.426   1.041  14.841 -0.1733 -0.3919 -0.3160
15553TIP3    H168150   5.373   1.007  14.769 -0.0694  0.2169 -0.6872
15553TIP3    H268151   5.452   1.129  14.812  0.3617 -0.3715  0.2108
15554TIP3   OH268152   5.674   0.076  11.988 -0.0868  0.6365  0.1437
15554TIP3    H168153   5.612   0.090  12.060 -0.2707  2.0657 -0.2627
15554TIP3    H268154   5.715  -0.008  12.008  0.2847  1.2693  2.2263
15555TIP3   OH268155   5.170   5.866   3.966  0.2159 -0.3373 -0.2575
15555TIP3    H168156   5.080   5.844   3.992  0.3543 -3.2460 -1.9011
15555TIP3    H268157   5.224   5.831   4.037  0.1708  4.4800  2.6193
15556TIP3   OH268158   1.182   0.840  14.366 -0.0893 -0.7919  0.1467
15556TIP3    H168159   1.215   0.794  14.444  1.5464 -0.0193 -0.0504
15556TIP3    H268160   1.192   0.933  14.387  0.3621 -0.5720 -0.9728
15557TIP3   OH268161   1.420   3.604   0.714  0.0240  0.2409  0.0277
15557TIP3    H168162   1.336   3.640   0.686  0.0180  1.0335  1.0097
15557TIP3    H268163   1.475   3.607   0.636 -1.0917 -1.1005 -0.8655
15558TIP3   OH268164   0.984   0.836  13.561  0.1476 -0.2256  0.1451
15558TIP3    H168165   0.970   0.770  13.493 -3.9002  0.9194 -0.3999
15558TIP3    H268166   0.987   0.919  13.514  1.2412  0.3164  1.1142
15559TIP3   OH268167   0.748   1.548   4.497 -0.5920 -0.8220  0.2028
15559TIP3    H168168   0.772   1.458   4.477  1.0377 -0.2227 -0.7484
15559TIP3    H268169   0.744   1.591   4.412  3.5818  1.1230  0.7520
15560TIP3   OH268170   5.552   4.871  13.407 -0.0016  0.3354 -0.2251
15560TIP3    H168171   5.487   4.927  13.450 -1.2830 -0.2183 -1.4032
15560TIP3    H268172   5.581   4.921  13.331 -1.6902 -0.8366 -1.7023
15561TIP3   OH268173   5.676   1.932  15.267 -0.5182 -0.3983 -0.3846
15561TIP3    H168174   5.730   1.870  15.217  0.1456 -0.0341 -0.1332
15561TIP3    H268175   5.662   2.005  15.207 -0.6282 -0.4348 -0.4040
15562TIP3   OH268176   3.506   2.858   4.622  0.4007 -0.0322 -0.1206
15562TIP3    H168177   3.590   2.867   4.577  0.4536 -0.2635 -0.0705
15562TIP3    H268178   3.516   2.908   4.702  1.6750 -2.6821  1.5401
15563TIP3   OH268179   1.958   6.660   5.787  0.3017 -0.7225 -0.2057
15563TIP3    H168180   2.024   6.604   5.829  0.6348 -0.3409 -0.2087
15563TIP3    H268181   1.974   6.747   5.824 -0.1179 -0.6007 -0.3069
15564TIP3   OH268182   3.332   5.760  16.587  0.0773  0.9765 -0.2922
15564TIP3    H168183   3.427   5.751  16.575  0.3011  1.4934  0.8923
15564TIP3    H268184   3.296   5.677  16.558  0.9016  0.7409 -0.6778
15565TIP3   OH268185   1.378   2.898  13.975 -0.1050  0.3002 -0.4432
15565TIP3    H168186   1.289   2.923  13.948 -0.5269 -0.4830  0.1720
15565TIP3    H268187   1.378   2.911  14.070  1.2770  2.7780 -0.6770
15566TIP3   OH268188   6.781   1.182  10.745  0.6046  0.3070 -0.4883
15566TIP3    H168189   6.743   1.235  10.814  0.3404  0.3336 -0.6533
15566TIP3    H268190   6.857   1.232  10.714  1.7024 -0.4295  0.8648
15567TIP3   OH268191   0.547   3.467   5.660  0.0996 -0.7916  0.7408
15567TIP3    H168192   0.489   3.524   5.610 -2.1090 -0.2183  3.6945
15567TIP3    H268193   0.631   3.474   5.615 -0.8531  2.3307 -0.8563
15568TIP3   OH268194   6.584   2.949   5.272 -0.4884  0.1288  0.3457
15568TIP3    H168195   6.568   2.891   5.197  0.3457 -0.2193  0.4265
15568TIP3    H268196   6.617   3.030   5.233  0.2300 -0.1592  0.3542
15569TIP3   OH268197   3.663   4.099  11.737 -0.0871  0.3703 -0.0033
15569TIP3    H168198   3.576   4.062  11.748  0.5606 -0.8211  1.3742
15569TIP3    H268199   3.659   4.184  11.780 -0.2928 -0.1236  0.9696
15570TIP3   OH268200   6.048   0.263   6.587 -0.0019 -0.5676  0.0123
15570TIP3    H168201   6.132   0.218   6.596  0.3788 -0.0145 -0.6771
15570TIP3    H268202   5.994   0.228   6.658  1.6580  0.9862  2.1415
15571TIP3   OH268203   5.291   0.068   0.360  0.6453 -0.3784  0.3719
15571TIP3    H168204   5.303   0.128   0.286  0.3043 -0.5231  0.1942
15571TIP3    H268205   5.311   0.121   0.437  0.5477 -0.0921  0.2036
15572TIP3   OH268206   3.213   2.500  16.015 -0.5493  0.0480 -0.3200
15572TIP3    H168207   3.267   2.554  16.072 -0.2591  0.3720 -0.8989
15572TIP3    H268208   3.132   2.550  16.003 -0.0363  0.6618 -1.3605
15573TIP3   OH268209   3.580   6.247  16.030 -0.3157  0.1713  0.0841
15573TIP3    H168210   3.559   6.260  16.122 -1.2998  0.2978 -0.1411
15573TIP3    H268211   3.559   6.331  15.988 -0.4940 -0.0798 -0.3447
15574TIP3   OH268212   1.981   3.609  15.039  0.1478 -0.0587 -0.1301
15574TIP3    H168213   1.914   3.675  15.020  0.3073 -0.1569 -1.0503
15574TIP3    H268214   2.057   3.661  15.065  0.4366  0.1562 -1.3633
15575TIP3   OH268215   6.123   1.736   1.558  0.7402  0.6448  0.4059
15575TIP3    H168216   6.203   1.787   1.567 -0.2086  2.1114  0.7380
15575TIP3    H268217   6.147   1.648   1.588  1.9580  1.3127  1.4657
15576TIP3   OH268218   2.344   5.953  10.884 -0.1616  0.0186 -0.5489
15576TIP3    H168219   2.311   6.037  10.852 -2.0668 -0.4100  0.1621
15576TIP3    H268220   2.320   5.890  10.816  2.8490  0.2128 -1.9593
15577TIP3   OH268221   5.356   0.599   3.728 -0.1780  0.4436  0.6428
15577TIP3    H168222   5.352   0.504   3.718  0.7580  0.3621  0.9520
15577TIP3    H268223   5.402   0.629   3.649 -0.7069  0.6732  0.4166
15578TIP3   OH268224   2.879   1.637   6.585  0.1688  0.0445 -0.3553
15578TIP3    H168225   2.936   1.606   6.655 -0.0017  0.5171 -0.0010
15578TIP3    H268226   2.799   1.666   6.629 -0.5380 -1.0293 -0.8906
15579TIP3   OH268227   5.056   1.766   3.922  0.2146 -0.2516 -0.6379
15579TIP3    H168228   5.085   1.735   3.836  0.0533 -0.1988 -0.7131
15579TIP3    H268229   5.136   1.773   3.973  0.5182  1.1394 -1.2395
15580TIP3   OH268230   0.356   6.127  14.687  0.0145 -0.0558  0.2733
15580TIP3    H168231   0.291   6.191  14.658 -0.5980  0.1094  1.8944
15580TIP3    H268232   0.377   6.152  14.777  0.8896 -1.2540  0.4420
15581TIP3   OH268233   2.551   3.740  14.740 -0.2660  0.1598 -0.2866
15581TIP3    H168234   2.591   3.827  14.741 -0.4916  0.2681  0.8621
15581TIP3    H268235   2.533   3.723  14.647 -0.2699  1.3558 -0.5263
15582TIP3   OH268236   0.883   3.192  10.881 -0.1138 -0.2879 -0.0795
15582TIP3    H168237   0.849   3.213  10.967  1.7582  0.4971  0.5157
15582TIP3    H268238   0.840   3.110  10.857 -0.7049 -0.4856  1.5640
15583TIP3   OH268239   0.933   2.946   5.062  0.5237  0.2279 -0.2359
15583TIP3    H168240   0.905   2.855   5.072  0.4110  0.1142 -1.4462
15583TIP3    H268241   0.877   2.995   5.122  0.7057 -0.5140  0.5596
15584TIP3   OH268242   3.020   1.390  11.451  0.0229  0.0063 -0.2067
15584TIP3    H168243   2.981   1.476  11.435  0.2158 -0.0537 -1.0393
15584TIP3    H268244   3.110   1.399  11.418 -0.0911 -0.6517 -0.6962
15585TIP3   OH268245   4.808   1.831   0.281  0.1667  0.2450  0.2882
15585TIP3    H168246   4.818   1.898   0.347 -0.0970  0.4049  0.1658
15585TIP3    H268247   4.781   1.753   0.329  2.1648 -0.2763  0.6744
15586TIP3   OH268248   2.484   4.963  13.392 -0.3237 -0.1027  0.1971
15586TIP3    H168249   2.464   4.955  13.485 -3.5110 -2.5396 -0.5522
15586TIP3    H268250   2.574   4.931  13.384 -0.2641 -0.5817  2.3157
15587TIP3   OH268251   4.945   2.228   2.494 -0.6702  0.2160 -1.2132
15587TIP3    H168252   5.023   2.250   2.444 -0.7841 -1.4476 -2.1904
15587TIP3    H268253   4.918   2.142   2.461 -1.7203 -0.1919  0.5430
15588TIP3   OH268254   6.352   4.908   4.614 -0.9102  0.0675 -0.0126
15588TIP3    H168255   6.401   4.866   4.544  0.5490 -0.7035  1.3997
15588TIP3    H268256   6.293   4.969   4.569  1.5295  1.2915 -1.8087
15589TIP3   OH268257   6.089   2.211   0.407  0.6320  0.6897  0.4986
15589TIP3    H168258   6.050   2.142   0.461 -0.1846 -1.0770 -2.1935
15589TIP3    H268259   6.017   2.270   0.387  1.1293  1.8766  1.9857
15590TIP3   OH268260   2.470   4.505   2.955 -0.3845 -0.3479 -0.0440
15590TIP3    H168261   2.495   4.454   2.878  0.4427 -1.0963  0.6984
15590TIP3    H268262   2.458   4.594   2.921  0.1663 -0.6161 -0.9975
15591TIP3   OH268263   2.838   0.483  15.651  0.2212  0.4431  0.5601
15591TIP3    H168264   2.770   0.433  15.697  2.0270 -1.5402  1.2184
15591TIP3    H268265   2.799   0.570  15.639 -2.1309 -0.3828  1.5661
15592TIP3   OH268266   4.551   4.650   4.027  0.4486 -0.0780 -0.3121
15592TIP3    H168267   4.541   4.617   4.116  0.3497  1.1239  0.1478
15592TIP3    H268268   4.481   4.715   4.017  1.4238  0.9649 -0.6764
15593TIP3   OH268269   5.107   5.511  16.207 -0.1211 -0.4187 -0.0015
15593TIP3    H168270   5.141   5.441  16.152  0.1295  0.0342 -0.4265
15593TIP3    H268271   5.172   5.580  16.201 -0.2701 -0.2243  0.5763
15594TIP3   OH268272   2.414   1.494  10.673  0.2334 -0.0888  0.2596
15594TIP3    H168273   2.392   1.437  10.599  0.6945  0.2816 -0.1707
15594TIP3    H268274   2.448   1.434  10.739 -0.6376 -0.4788  0.3621
15595TIP3   OH268275   0.895   4.564   5.110 -0.0937 -0.2209  0.2246
15595TIP3    H168276   0.812   4.605   5.133  0.2229  1.1764 -0.9995
15595TIP3    H268277   0.925   4.611   5.032  1.2352 -1.5324 -0.1088
15596TIP3   OH268278   3.021   5.877  12.465  0.1908  0.3139 -0.4524
15596TIP3    H168279   3.043   5.937  12.393  0.2235 -0.1627 -0.8492
15596TIP3    H268280   2.926   5.868  12.461  0.2744 -0.4464 -1.0484
15597TIP3   OH268281   4.019   2.689   0.416 -0.0130  0.0113  0.0103
15597TIP3    H168282   3.968   2.643   0.348 -0.7671 -0.5387  0.9107
15597TIP3    H268283   3.984   2.778   0.416 -0.1575 -0.0436 -0.1678
15598TIP3   OH268284   2.870   2.645   4.567 -0.6608 -0.1807  0.0789
15598TIP3    H168285   2.946   2.592   4.590  0.9401  2.3841  1.1427
15598TIP3    H268286   2.836   2.677   4.650 -0.6432  1.5924 -0.5427
15599TIP3   OH268287   2.828   5.276   0.290  0.3128  0.2235 -0.6098
15599TIP3    H168288   2.740   5.245   0.313  1.1389 -1.9293 -0.0799
15599TIP3    H268289   2.832   5.364   0.326 -2.3274  1.2585 -2.5221
15600TIP3   OH268290   6.252   3.436   5.171  0.0758 -0.0295 -0.1610
15600TIP3    H168291   6.265   3.342   5.158  0.3762  0.0479 -0.4479
15600TIP3    H268292   6.322   3.462   5.231 -0.7467 -0.2097  0.9070
15601TIP3   OH268293   2.797   3.731   3.146 -0.7963 -0.7175 -0.0668
15601TIP3    H168294   2.710   3.706   3.177 -0.2324 -1.0063  1.3146
15601TIP3    H268295   2.784   3.817   3.106 -1.4280  0.0425  1.6746
15602TIP3   OH268296   3.505   4.901   3.869 -0.4515  0.0773  0.0921
15602TIP3    H168297   3.423   4.856   3.892 -0.4337  0.0912  0.1820
15602TIP3    H268298   3.522   4.959   3.942 -0.6124  0.4266 -0.1449
15603TIP3   OH268299   1.851   6.664  12.713 -0.0012 -0.2061  0.1700
15603TIP3    H168300   1.939   6.634  12.737 -0.2299 -0.8756  0.1809
15603TIP3    H268301   1.866   6.749  12.671  0.6138 -0.1217  0.5364
15604TIP3   OH268302   0.953   1.017   3.048 -0.2731  0.4486  0.5302
15604TIP3    H168303   0.888   0.960   3.087 -1.1834  0.6337 -0.6618
15604TIP3    H268304   0.969   1.085   3.114 -1.8244  0.8073  0.5541
15605TIP3   OH268305   6.546   5.971  14.907 -0.4694  0.5052  0.2106
15605TIP3    H168306   6.588   5.946  14.825  0.6700  0.6204  0.7392
15605TIP3    H268307   6.578   5.907  14.971 -1.3990  0.3752  0.5633
15606TIP3   OH268308   0.121   6.024   5.701 -1.0407 -0.2949 -0.1215
15606TIP3    H168309   0.084   5.943   5.737 -1.4820 -0.4587 -0.8942
15606TIP3    H268310   0.088   6.093   5.759 -0.0479 -0.7243  0.9854
15607TIP3   OH268311   3.847   1.625   4.054 -0.4368 -0.2035 -0.5069
15607TIP3    H168312   3.823   1.675   3.976  0.1855 -0.6650 -1.0023
15607TIP3    H268313   3.819   1.680   4.127 -0.5156  0.4894 -1.0496
15608TIP3   OH268314   2.443   5.740   5.017  0.3326  0.4067  0.0861
15608TIP3    H168315   2.443   5.807   5.085  0.1990 -0.7500  1.2630
15608TIP3    H268316   2.351   5.722   5.000  0.3672 -0.0188  0.3340
15609TIP3   OH268317   5.746   6.119  15.411  0.0810 -0.3000  0.4203
15609TIP3    H168318   5.813   6.051  15.408 -0.5783 -0.9795  0.7663
15609TIP3    H268319   5.684   6.094  15.343 -0.1792 -0.0543  0.5643
15610TIP3   OH268320   4.881   6.609  10.469  0.0390  0.4228 -0.2613
15610TIP3    H168321   4.948   6.550  10.434 -1.6105 -0.9711 -1.1775
15610TIP3    H268322   4.912   6.697  10.446  2.3006 -0.0440  0.7077
15611TIP3   OH268323   6.307   6.229  12.139 -0.0219  0.2128  0.1619
15611TIP3    H168324   6.228   6.177  12.158  0.8235 -1.0694  0.2589
15611TIP3    H268325   6.286   6.275  12.058 -2.5380  3.3993  2.3431
15612TIP3   OH268326   3.790   2.343  16.379 -0.1872 -0.2008  0.4048
15612TIP3    H168327   3.710   2.349  16.326  0.3118  1.3838 -0.2612
15612TIP3    H268328   3.765   2.378  16.464 -0.3347 -0.2119  0.3657
15613TIP3   OH268329   2.819   1.024  14.576  0.2265 -0.2152 -0.2074
15613TIP3    H168330   2.853   0.943  14.538 -0.0313 -0.5619  0.2905
15613TIP3    H268331   2.868   1.094  14.532  1.1824 -0.6815  0.1014
15614TIP3   OH268332   6.402   2.461  15.871 -0.2173  0.0531  0.4711
15614TIP3    H168333   6.419   2.393  15.936 -0.6569 -1.7011 -1.1674
15614TIP3    H268334   6.313   2.491  15.890 -0.9669 -1.6073 -0.2754
15615TIP3   OH268335   3.589   1.091  16.712  0.3896 -0.7343  0.0983
15615TIP3    H168336   3.572   1.182  16.740 -3.0340 -1.3978  0.6118
15615TIP3    H268337   3.681   1.077  16.733  0.6127  2.1058  1.5479
15616TIP3   OH268338   1.510   5.399   3.545  0.2269 -0.5900  0.1871
15616TIP3    H168339   1.593   5.397   3.594  0.9624  0.1968 -0.9957
15616TIP3    H268340   1.514   5.479   3.493 -1.4673 -0.3368  0.3917
15617TIP3   OH268341   5.932   0.034   6.719 -0.3240  0.2883  0.1639
15617TIP3    H168342   5.854   0.089   6.709 -0.8144 -0.4995 -0.4815
15617TIP3    H268343   5.899  -0.047   6.758  0.2595  0.1369  0.3526
15618TIP3   OH268344   1.593   0.802  13.325 -0.0169  0.2575 -0.3134
15618TIP3    H168345   1.602   0.865  13.254  0.3009  0.6281  0.0562
15618TIP3    H268346   1.509   0.759  13.307 -0.0208  0.4616 -0.8183
15619TIP3   OH268347   0.684   2.183   6.587  0.0352  0.1672  0.2971
15619TIP3    H168348   0.624   2.247   6.548 -0.2314  0.0276  0.4845
15619TIP3    H268349   0.717   2.133   6.512  0.1195  0.4159  0.1668
15620TIP3   OH268350   3.048   1.622  13.719 -0.2850 -0.2939 -0.3264
15620TIP3    H168351   3.142   1.631  13.733 -0.4499  0.1051  0.6335
15620TIP3    H268352   3.028   1.532  13.748 -0.1899 -0.4081 -0.6117
15621TIP3   OH268353   5.834   4.535  12.415 -0.2986 -0.2269 -0.0558
15621TIP3    H168354   5.908   4.494  12.371 -0.0816  1.6186 -1.5385
15621TIP3    H268355   5.774   4.558  12.344 -2.1594 -1.3331  1.0805
15622TIP3   OH268356   5.848   0.585  12.700 -0.2721 -0.8445  0.2558
15622TIP3    H168357   5.803   0.667  12.682 -1.2493 -1.4418 -0.1581
15622TIP3    H268358   5.825   0.528  12.626  2.8092 -0.5861 -1.0443
15623TIP3   OH268359   4.333   4.982  13.580 -0.0238  0.5696  0.0036
15623TIP3    H168360   4.398   5.018  13.521  1.0399 -1.2214 -0.0148
15623TIP3    H268361   4.276   4.929  13.524 -0.2020  0.4268  0.3131
15624TIP3   OH268362   3.591   4.486   5.275  0.0727  0.0561  0.1759
15624TIP3    H168363   3.657   4.423   5.303  1.1055  1.1323  0.2752
15624TIP3    H268364   3.518   4.474   5.335  0.6471 -0.3940  0.8015
15625TIP3   OH268365   3.221   0.158  11.815  0.0917  0.0794 -0.2735
15625TIP3    H168366   3.253   0.116  11.895  2.5439 -0.5871 -1.5227
15625TIP3    H268367   3.198   0.247  11.843  0.8911 -0.1308  1.1772
15626TIP3   OH268368   2.148   2.728  16.116  0.9813  0.1178  0.1809
15626TIP3    H168369   2.087   2.738  16.189  0.1206 -0.1656 -0.4802
15626TIP3    H268370   2.160   2.817  16.083 -1.2643 -0.0701 -1.3895
15627TIP3   OH268371   0.177   5.966  13.307  0.1411  0.0691  0.6341
15627TIP3    H168372   0.241   5.899  13.283 -0.5888 -0.5655  0.4061
15627TIP3    H268373   0.147   6.002  13.224 -1.4261 -1.2124  0.5984
15628TIP3   OH268374   1.548   6.439  16.008  0.1266  0.3212  0.1728
15628TIP3    H168375   1.585   6.461  16.093 -1.1790 -0.6179  1.0189
15628TIP3    H268376   1.463   6.483  16.006 -0.0226  0.0197 -0.4797
15629TIP3   OH268377   0.748   2.662   1.768 -0.1744 -0.1615 -0.1648
15629TIP3    H168378   0.808   2.609   1.820 -0.6082 -1.1945 -0.6771
15629TIP3    H268379   0.701   2.598   1.713 -2.5412  0.4451  1.0016
15630TIP3   OH268380   3.099   6.613  15.011 -0.0136  0.2103 -0.1916
15630TIP3    H168381   3.022   6.557  15.003  1.2442 -1.9514  1.4594
15630TIP3    H268382   3.133   6.619  14.922 -1.4971  0.3575 -0.7809
15631TIP3   OH268383   3.496   4.137   0.915  0.2614  0.0335 -0.2931
15631TIP3    H168384   3.435   4.207   0.938 -1.7983 -1.6361 -0.4513
15631TIP3    H268385   3.454   4.090   0.843  1.3914 -1.6031  0.0496
15632TIP3   OH268386   4.507   3.952   0.764 -0.3551 -0.2367  0.2858
15632TIP3    H168387   4.493   3.996   0.680  0.3982  0.6501  0.6033
15632TIP3    H268388   4.419   3.933   0.797 -0.6697  0.0510 -0.3690
15633TIP3   OH268389   6.201   4.910   0.555 -0.1517  0.7505  0.3270
15633TIP3    H168390   6.125   4.922   0.498  0.1204 -0.4107 -0.2980
15633TIP3    H268391   6.242   4.829   0.525  0.6153  0.6847  1.4771
15634TIP3   OH268392   6.200   0.961  13.889 -0.0751  0.5230 -0.1225
15634TIP3    H168393   6.119   0.927  13.849  0.1684  1.1877 -1.2338
15634TIP3    H268394   6.270   0.913  13.844  0.1911  0.9557 -0.1656
15635TIP3   OH268395   6.394   1.773   0.249 -0.2314  0.2543  0.2766
15635TIP3    H168396   6.328   1.731   0.195  0.0322  0.6558 -0.3712
15635TIP3    H268397   6.420   1.706   0.313  0.7108 -0.8343 -1.1868
15636TIP3   OH268398   4.026   5.235  17.369  0.7840  0.7181 -0.1522
15636TIP3    H168399   4.111   5.201  17.396  0.1749 -0.4932  0.3254
15636TIP3    H268400   3.976   5.157  17.346 -0.4001  1.3674  0.1633
15637TIP3   OH268401   5.071   6.046  15.500  0.0181 -0.4133  0.0591
15637TIP3    H168402   5.115   6.007  15.575  0.8220 -0.3293 -0.3512
15637TIP3    H268403   5.138   6.045  15.430  0.6142  2.9759  0.3980
15638TIP3   OH268404   0.043   0.906   5.168 -0.1574  0.2722  0.6485
15638TIP3    H168405   0.046   0.934   5.259  2.6876 -1.4531  1.1904
15638TIP3    H268406   0.099   0.969   5.122 -1.4909  1.0678  0.0656
15639TIP3   OH268407   3.387   0.950  17.138  0.6525  0.3618  0.2915
15639TIP3    H168408   3.402   0.856  17.125  0.2808  0.1905  1.0683
15639TIP3    H268409   3.298   0.965  17.106  0.5894  0.3804  0.4707
15640TIP3   OH268410   0.531   3.521  12.792  0.1927  0.1984 -0.2499
15640TIP3    H168411   0.549   3.607  12.755 -1.2069  1.2229  1.3415
15640TIP3    H268412   0.436   3.511  12.786  0.1776 -0.5957  0.9222
15641TIP3   OH268413   4.753   5.323  12.331 -0.2440 -0.3693 -0.3816
15641TIP3    H168414   4.728   5.323  12.424 -0.0422 -1.0045 -0.3151
15641TIP3    H268415   4.805   5.243  12.322 -1.7396 -1.2543 -1.4424
15642TIP3   OH268416   3.854   4.457  17.026 -0.4395  0.3890  0.0261
15642TIP3    H168417   3.877   4.541  17.067 -1.6870  0.3792  0.7893
15642TIP3    H268418   3.770   4.433  17.065  0.0912 -1.4386  0.1331
15643TIP3   OH268419   4.400   2.619   5.413 -0.1836  0.5789 -0.0710
15643TIP3    H168420   4.433   2.661   5.333  0.5769  1.2402  0.5736
15643TIP3    H268421   4.321   2.574   5.385 -0.4204  1.5357 -1.0170
15644TIP3   OH268422   2.970   4.464   6.599 -0.2555  0.4671  0.1940
15644TIP3    H168423   2.897   4.402   6.594  0.9479 -0.8952 -2.6443
15644TIP3    H268424   2.985   4.476   6.693 -1.7037 -2.1447  0.8544
15645TIP3   OH268425   1.444   1.886  13.200  0.0094 -0.3076  0.1538
15645TIP3    H168426   1.535   1.864  13.182 -0.5919 -2.4184 -0.6215
15645TIP3    H268427   1.448   1.954  13.267  2.1176 -1.1274  0.9322
15646TIP3   OH268428   4.958   2.273   1.580  0.2143 -0.5387  0.0362
15646TIP3    H168429   4.947   2.220   1.501  0.0674 -0.6588  0.1366
15646TIP3    H268430   5.039   2.239   1.620 -0.0381 -0.8884  0.2547
15647TIP3   OH268431   0.374   4.277  14.104 -0.1579 -0.3199  0.3128
15647TIP3    H168432   0.305   4.236  14.157  0.6474  0.5111  2.0950
15647TIP3    H268433   0.345   4.367  14.093  0.3659 -0.1124  0.5908
15648TIP3   OH268434   3.018   4.113  13.810  0.3324 -0.7469 -0.8249
15648TIP3    H168435   3.061   4.140  13.891 -1.5128 -0.1515  0.0054
15648TIP3    H268436   3.088   4.114  13.745  1.6188 -0.0629  0.5061
15649TIP3   OH268437   6.231   3.356   6.435  0.5169  0.1026  0.3028
15649TIP3    H168438   6.150   3.308   6.418  0.6641  0.1145 -0.4974
15649TIP3    H268439   6.266   3.319   6.516  1.2554 -1.9931 -0.9059
15650TIP3   OH268440   3.171   4.000  15.302  0.2855 -0.5212  0.1885
15650TIP3    H168441   3.193   4.054  15.226  0.6663  0.1926  0.7893
15650TIP3    H268442   3.248   3.944  15.315 -0.2075 -1.4005 -0.5826
15651TIP3   OH268443   3.837   0.857   0.509 -0.0809 -0.0881  0.8651
15651TIP3    H168444   3.774   0.860   0.438 -1.1511 -1.8007  1.6637
15651TIP3    H268445   3.815   0.932   0.565  2.1837  2.6418 -1.6058
15652TIP3   OH268446   6.714   4.335   2.726 -0.0733  0.2490 -0.5253
15652TIP3    H168447   6.758   4.394   2.664 -2.6751  0.1825 -2.6089
15652TIP3    H268448   6.649   4.390   2.770  0.5594 -0.1081  0.9175
15653TIP3   OH268449   5.942   5.683   0.998 -0.3068  0.6194 -0.2340
15653TIP3    H168450   5.941   5.778   0.986 -2.1456  0.5354 -1.0427
15653TIP3    H268451   5.999   5.651   0.927  0.1786  1.0856 -0.0667
15654TIP3   OH268452   2.609   0.116  13.154  0.5475  0.0226  0.2563
15654TIP3    H168453   2.694   0.070  13.155  1.7775  2.1429  0.0001
15654TIP3    H268454   2.609   0.166  13.235 -0.4558  0.0750  0.2250
15655TIP3   OH268455   2.886   2.781   1.455 -0.2143 -0.4169 -0.0184
15655TIP3    H168456   2.939   2.709   1.419  0.4607  0.0808 -0.0401
15655TIP3    H268457   2.950   2.844   1.488 -0.6050  1.8444 -3.1285
15656TIP3   OH268458   4.431   6.611   3.337 -0.1202  0.5298 -0.0942
15656TIP3    H168459   4.449   6.627   3.430  0.1285  1.4283 -0.2882
15656TIP3    H268460   4.407   6.518   3.333  2.7146 -0.3208  0.4475
15657TIP3   OH268461   5.895   3.299  17.186 -0.0883 -0.3604  0.1170
15657TIP3    H168462   5.937   3.272  17.268  0.0516  0.4825  0.3372
15657TIP3    H268463   5.967   3.316  17.126 -0.1560 -0.1082  0.1053
15658TIP3   OH268464   4.369   3.524  15.390 -0.1736 -0.4630  0.1435
15658TIP3    H168465   4.440   3.586  15.376  1.6071 -2.1019  1.3692
15658TIP3    H268466   4.324   3.556  15.468 -0.1989  0.0926 -0.0995
15659TIP3   OH268467   4.072   4.262   1.252  0.3480  0.0550  0.4717
15659TIP3    H168468   4.127   4.186   1.234 -0.5372 -0.4800 -0.0305
15659TIP3    H268469   4.118   4.309   1.321  1.6078 -0.1976 -0.1596
15660TIP3   OH268470   5.387   6.378   0.687  0.0220  0.6396 -0.1512
15660TIP3    H168471   5.400   6.470   0.665  0.3395  0.4625 -0.7427
15660TIP3    H268472   5.446   6.361   0.760  0.4208  0.7584 -0.4409
15661TIP3   OH268473   3.969   0.262   4.617 -0.5686  0.4902  0.0096
15661TIP3    H168474   3.905   0.328   4.593 -2.6523 -0.5204  2.3500
15661TIP3    H268475   3.917   0.187   4.647  1.6704 -0.5745  1.5437
15662TIP3   OH268476   1.927   6.402  12.465 -0.2414 -0.2429 -0.9735
15662TIP3    H168477   1.988   6.328  12.462 -0.5331 -0.5020 -0.5472
15662TIP3    H268478   1.983   6.478  12.478 -0.0885 -0.6141  0.8263
15663TIP3   OH268479   2.671   6.391   2.977 -0.5499  0.4035 -0.6160
15663TIP3    H168480   2.701   6.438   2.900  1.7162  2.3842  1.2816
15663TIP3    H268481   2.733   6.319   2.988  0.1739  1.1281  0.2173
15664TIP3   OH268482   3.895   3.371  10.994 -0.1998 -0.0312 -0.0132
15664TIP3    H168483   3.828   3.388  11.061 -0.2089 -3.0656  0.8956
15664TIP3    H268484   3.968   3.426  11.020 -0.7530 -0.0111  1.6452
15665TIP3   OH268485   1.878   6.138  14.699  0.3704  0.9453  0.3213
15665TIP3    H168486   1.840   6.224  14.714  0.5661  1.0919 -0.0261
15665TIP3    H268487   1.972   6.151  14.701  0.4096  0.5837  1.1550
15666TIP3   OH268488   5.121   3.477  16.942  0.2889 -0.2582 -0.2527
15666TIP3    H168489   5.165   3.494  17.025 -2.6004 -0.5575  1.4644
15666TIP3    H268490   5.167   3.403  16.905  1.3576 -0.4166  1.3196
15667TIP3   OH268491   4.222   4.025  14.855  0.0747 -0.0622 -0.1348
15667TIP3    H168492   4.223   3.931  14.872 -0.5364  0.1561  1.2261
15667TIP3    H268493   4.293   4.060  14.909  1.1637  0.1321 -1.6270
15668TIP3   OH268494   3.730   4.769  12.961 -0.4420 -0.0209  0.1520
15668TIP3    H168495   3.738   4.861  12.987  2.0695  0.1595 -1.0410
15668TIP3    H268496   3.753   4.767  12.869  2.4801 -2.1512  0.7711
15669TIP3   OH268497   5.289   0.202  14.715 -0.7792  0.1301 -0.6885
15669TIP3    H168498   5.310   0.214  14.622  1.2441 -0.0933 -0.3011
15669TIP3    H268499   5.205   0.248  14.726 -0.6206  0.9378 -2.4339
15670TIP3   OH268500   2.489   4.467  16.322 -0.5869 -0.8610  0.3734
15670TIP3    H168501   2.544   4.403  16.276  1.1069  0.3617  0.5890
15670TIP3    H268502   2.453   4.418  16.396  0.7809 -1.5609  0.6186
15671TIP3   OH268503   5.375   3.194   6.207  0.0251  0.1473 -0.6358
15671TIP3    H168504   5.309   3.143   6.161 -0.6091  1.5694 -1.3566
15671TIP3    H268505   5.329   3.232   6.282  0.7111 -0.9936  0.4274
15672TIP3   OH268506   2.385   1.055   4.729  0.5037 -0.3187 -0.2070
15672TIP3    H168507   2.378   1.148   4.749  3.5325 -0.1903  0.8381
15672TIP3    H268508   2.308   1.015   4.769  0.0007  1.5289  0.7617
15673TIP3   OH268509   2.565   0.743  15.446 -0.3381 -0.0782  0.8710
15673TIP3    H168510   2.530   0.662  15.409  0.3078  0.6642 -1.5650
15673TIP3    H268511   2.586   0.721  15.537 -1.4929 -2.2050  0.6961
15674TIP3   OH268512   5.826   3.913   0.667 -0.0736 -0.3258  0.6846
15674TIP3    H168513   5.876   3.972   0.722  3.0764 -1.4525 -0.7041
15674TIP3    H268514   5.831   3.951   0.580  0.9404 -1.9033 -0.0014
15675TIP3   OH268515   5.286   1.240   0.921 -0.2132 -0.2546 -0.2845
15675TIP3    H168516   5.307   1.244   1.014 -0.9361 -0.4379 -0.1094
15675TIP3    H268517   5.350   1.298   0.880  0.0322 -0.0743  0.3356
15676TIP3   OH268518   1.327   3.390  14.177 -0.0880 -0.0766 -0.1766
15676TIP3    H168519   1.388   3.457  14.146  0.4382 -0.0597  0.8322
15676TIP3    H268520   1.294   3.348  14.097  1.4628 -0.2686 -0.7568
15677TIP3   OH268521   3.141   0.958   0.033 -0.4388 -0.0246 -0.1601
15677TIP3    H168522   3.195   1.018   0.085 -1.4859  0.9952 -0.2067
15677TIP3    H268523   3.195   0.879   0.023  1.2033  1.1014 -0.5709
15678TIP3   OH268524   6.441   3.150   3.569  0.2544 -0.7596 -0.6529
15678TIP3    H168525   6.351   3.156   3.602 -0.2252 -0.5270 -1.9398
15678TIP3    H268526   6.432   3.115   3.480  1.4392 -0.6974 -0.8181
15679TIP3   OH268527   0.029   3.443  13.672  0.1307 -0.0731 -0.2974
15679TIP3    H168528  -0.043   3.435  13.735 -0.1568  0.2918 -0.5794
15679TIP3    H268529   0.021   3.532  13.638 -0.2716 -0.5651 -1.5333
15680TIP3   OH268530   4.059   6.466  14.978 -0.0429  0.3198 -0.1034
15680TIP3    H168531   4.053   6.476  15.073  0.3167  0.7363 -0.1231
15680TIP3    H268532   3.983   6.413  14.955  0.4106 -0.6525  0.5408
15681TIP3   OH268533   0.187   2.879   5.829 -0.1253 -0.6473  0.4817
15681TIP3    H168534   0.263   2.899   5.884  0.3666  1.7988 -0.9345
15681TIP3    H268535   0.182   2.952   5.768 -2.5680 -1.6580 -0.6557
15682TIP3   OH268536   5.047   1.464   2.153 -0.0815  0.0591  0.0608
15682TIP3    H168537   5.024   1.456   2.246 -0.4209 -0.6016 -0.0733
15682TIP3    H268538   5.048   1.374   2.121  1.0065  0.1959 -0.3493
15683TIP3   OH268539   5.325   5.201   5.398 -0.6326 -0.4062  0.3293
15683TIP3    H168540   5.256   5.166   5.455 -0.3885  0.7428  1.3713
15683TIP3    H268541   5.338   5.291   5.429  0.1978 -0.0786 -0.9240
15684TIP3   OH268542   5.291   3.378  15.315 -0.5171 -0.4620  0.0046
15684TIP3    H168543   5.374   3.406  15.277 -1.5300  1.5709 -0.8920
15684TIP3    H268544   5.239   3.350  15.240 -1.1886 -0.1748  0.3587
15685TIP3   OH268545   5.141   2.499  11.958  0.1694 -0.3750  0.2329
15685TIP3    H168546   5.198   2.575  11.974  1.5040 -1.2735 -0.0725
15685TIP3    H268547   5.150   2.445  12.037 -0.9341 -0.1376  0.5373
15686TIP3   OH268548   3.768   2.706   2.952  0.6783  0.4231 -0.1212
15686TIP3    H168549   3.756   2.698   2.857  1.0532 -1.5589 -0.0630
15686TIP3    H268550   3.780   2.799   2.967 -1.5129  1.0430 -1.7378
15687TIP3   OH268551   3.911   1.850   5.392 -0.4392 -0.4095 -0.2454
15687TIP3    H168552   3.821   1.881   5.384 -0.5892 -0.9035 -0.4732
15687TIP3    H268553   3.963   1.917   5.348 -0.4068  1.2512  2.1114
15688TIP3   OH268554   6.357   2.644   2.456  0.0478  0.3565 -0.1805
15688TIP3    H168555   6.321   2.602   2.378 -0.4564  2.2692 -1.0463
15688TIP3    H268556   6.437   2.686   2.425 -0.6512  1.9395  0.0461
15689TIP3   OH268557   5.704   3.278   3.948 -0.2220  0.2324  0.0954
15689TIP3    H168558   5.657   3.220   4.009  1.1415 -0.4086  0.5785
15689TIP3    H268559   5.742   3.345   4.005  1.1786 -0.4477 -0.0031
15690TIP3   OH268560   3.626   0.094  12.008 -0.1987  0.2263 -0.7371
15690TIP3    H168561   3.679   0.036  12.062 -0.5119  0.4751 -0.1442
15690TIP3    H268562   3.597   0.040  11.935 -2.0667 -0.9530  0.7776
15691TIP3   OH268563   0.727   2.353   2.920  0.2409 -0.3730  0.5814
15691TIP3    H168564   0.655   2.399   2.963  0.2469 -0.0857  0.2918
15691TIP3    H268565   0.684   2.294   2.858  0.2615  1.3037 -1.1265
15692TIP3   OH268566   6.287   3.053  16.832  0.2282 -0.4357  0.0242
15692TIP3    H168567   6.195   3.077  16.828  1.0450  3.4019 -0.1686
15692TIP3    H268568   6.309   3.028  16.743 -0.4953 -0.8313 -0.0489
15693TIP3   OH268569   2.309   1.506  16.194 -0.0632  0.2070  0.1626
15693TIP3    H168570   2.299   1.594  16.157 -0.8015 -0.7297 -2.0498
15693TIP3    H268571   2.295   1.447  16.120  1.1547 -1.7890  1.4129
15694TIP3   OH268572   6.762   6.309   0.031 -0.0749 -0.0879 -0.2483
15694TIP3    H168573   6.828   6.323  -0.037 -0.2307  1.3758 -0.1384
15694TIP3    H268574   6.813   6.282   0.108  0.7051  2.8139  0.3841
15695TIP3   OH268575   3.012   0.415  16.791 -0.1630  0.2441 -0.1499
15695TIP3    H168576   2.917   0.420  16.785 -0.0789  0.6807 -1.6433
15695TIP3    H268577   3.043   0.474  16.722  1.2018  0.7552  0.8613
15696TIP3   OH268578   0.117   3.442   4.541 -0.0526 -0.6007  0.1799
15696TIP3    H168579   0.083   3.518   4.589  0.9567  0.5049 -0.7960
15696TIP3    H268580   0.039   3.402   4.502 -0.5029  0.5711 -0.1731
15697TIP3   OH268581   3.193   6.474  12.941 -0.0665 -0.0450  0.5827
15697TIP3    H168582   3.135   6.410  12.983  0.0883  0.0965  1.0238
15697TIP3    H268583   3.177   6.556  12.989 -0.9874  0.5101 -0.6104
15698TIP3   OH268584   4.531   1.563  12.350  0.6486  0.0733 -0.1597
15698TIP3    H168585   4.536   1.659  12.358  0.4221  0.1140 -0.5227
15698TIP3    H268586   4.517   1.547  12.257 -0.2430 -0.2742  0.0249
15699TIP3   OH268587   6.754   1.756  12.444  0.5139 -0.3723  0.2979
15699TIP3    H168588   6.795   1.797  12.367 -0.4772  2.2522  1.0623
15699TIP3    H268589   6.667   1.730  12.413  0.5614 -0.4357  0.2169
15700TIP3   OH268590   0.581   5.480   3.276  0.3823  0.6383  0.0788
15700TIP3    H168591   0.565   5.488   3.182 -0.4528 -0.9932  0.0392
15700TIP3    H268592   0.510   5.530   3.316 -0.3181 -0.1381 -0.1637
15701TIP3   OH268593   1.611   1.873  14.820  0.1663  0.2851 -0.5297
15701TIP3    H168594   1.627   1.885  14.726  0.1443 -1.0133 -0.7094
15701TIP3    H268595   1.517   1.860  14.826  0.0035  1.4478 -0.1804
15702TIP3   OH268596   2.622   1.201   2.023  0.8508  0.1070 -0.3135
15702TIP3    H168597   2.650   1.260   2.094  0.6977  0.7733 -0.7966
15702TIP3    H268598   2.685   1.217   1.953 -0.5457  1.4467 -1.3286
15703TIP3   OH268599   2.323   5.574  12.342  0.3165 -0.5510  0.0631
15703TIP3    H168600   2.388   5.625  12.294  0.0381 -0.5844 -0.3531
15703TIP3    H268601   2.343   5.483  12.321  0.3781 -0.5794  0.2439
15704TIP3   OH268602   3.411   6.623  14.594 -0.2925 -0.1841 -0.0690
15704TIP3    H168603   3.418   6.556  14.526 -0.7877  1.2093 -1.5485
15704TIP3    H268604   3.477   6.688  14.571 -0.7887  0.5442  0.5099
15705TIP3   OH268605   4.171   4.118  15.481  0.1984 -0.4966 -0.3910
15705TIP3    H168606   4.126   4.073  15.410 -2.2097  0.9184  0.0928
15705TIP3    H268607   4.264   4.103  15.465 -0.3569 -2.3784 -2.3299
15706TIP3   OH268608   1.157   5.570   0.451 -0.0842  0.7824 -1.0245
15706TIP3    H168609   1.090   5.515   0.490 -1.5960  0.9084 -3.2210
15706TIP3    H268610   1.240   5.529   0.475 -1.0128 -0.3502  0.3753
15707TIP3   OH268611   6.414   2.269   2.551  0.4168 -0.1542 -0.2905
15707TIP3    H168612   6.397   2.176   2.568 -2.0125 -0.2915 -2.8470
15707TIP3    H268613   6.343   2.315   2.595  0.8370  0.3938 -0.1820
15708TIP3   OH268614   2.942   6.511  15.508  0.4494 -0.6128  0.1447
15708TIP3    H168615   2.874   6.495  15.443 -0.8865 -0.1555  1.3777
15708TIP3    H268616   2.925   6.448  15.577  0.9383 -0.1290  0.7174
15709TIP3   OH268617   5.894   1.380   5.235  0.6051 -0.5116  0.2195
15709TIP3    H168618   5.878   1.325   5.158  2.7402 -1.7888  0.6112
15709TIP3    H268619   5.856   1.465   5.212  0.1800 -1.1828 -1.7712
15710TIP3   OH268620   6.764   1.575  15.321 -0.4962  0.7928 -0.4210
15710TIP3    H168621   6.807   1.614  15.244  0.8285  0.9793  0.3855
15710TIP3    H268622   6.834   1.566  15.385 -1.5533  0.4952  0.7224
15711TIP3   OH268623   4.012   2.596  14.103 -0.4362 -0.6014 -0.6555
15711TIP3    H168624   4.098   2.567  14.135 -1.1511 -1.9627  0.1522
15711TIP3    H268625   4.031   2.643  14.022  1.1567  0.0662  0.0674
15712TIP3   OH268626   5.175   5.776   4.623  0.1506  0.3044 -0.4294
15712TIP3    H168627   5.237   5.776   4.696  1.7093  1.9301 -1.6523
15712TIP3    H268628   5.124   5.696   4.635 -1.9253  1.9945  4.1980
15713TIP3   OH268629   1.819   5.862   5.539  0.1135 -0.3090  0.2842
15713TIP3    H168630   1.895   5.804   5.535 -0.4689 -1.1488  1.0540
15713TIP3    H268631   1.856   5.949   5.549  1.0120 -0.4870 -1.1149
15714TIP3   OH268632   3.850   4.576  15.764  0.2098  0.0247 -0.8572
15714TIP3    H168633   3.835   4.490  15.803  2.3906  0.2638  0.6703
15714TIP3    H268634   3.804   4.637  15.821 -0.4925 -0.0067 -1.3706
15715TIP3   OH268635   3.155   2.965   5.604  0.0082 -1.2403 -0.3869
15715TIP3    H168636   3.060   2.960   5.598 -0.0765 -0.9750  0.5756
15715TIP3    H268637   3.180   3.028   5.536 -0.7091  0.3685  0.7777
15716TIP3   OH268638   3.870   0.011  14.400  0.3515 -0.0430 -0.3211
15716TIP3    H168639   3.901   0.101  14.402 -0.0664  0.0942  0.7178
15716TIP3    H268640   3.834  -0.000  14.312  1.0056  0.5917 -0.6755
15717TIP3   OH268641   5.086   4.524  14.228  0.6048  0.6142 -0.2144
15717TIP3    H168642   5.069   4.573  14.148  3.8844  0.6665 -1.0234
15717TIP3    H268643   5.179   4.535  14.244  0.1718  0.3052  3.4829
15718TIP3   OH268644   5.592   2.096  14.916 -0.0233 -0.4309  0.0259
15718TIP3    H168645   5.640   2.019  14.886 -1.0377 -0.5263 -1.4266
15718TIP3    H268646   5.508   2.062  14.947 -0.5175  0.0944 -0.7174
15719TIP3   OH268647   5.515   6.478   5.986 -0.3009 -0.3033  0.2866
15719TIP3    H168648   5.517   6.388   6.019 -2.2509 -0.1012  1.1206
15719TIP3    H268649   5.573   6.526   6.044 -0.5174 -0.7370  0.8793
15720TIP3   OH268650   5.947   4.365  16.211 -0.5209  0.1433 -0.4094
15720TIP3    H168651   6.027   4.417  16.206 -0.1476  0.0702  2.6540
15720TIP3    H268652   5.878   4.429  16.226 -0.5614  0.0180 -0.0428
15721TIP3   OH268653   1.253   5.589   2.379  0.1279 -0.1171  0.2310
15721TIP3    H168654   1.158   5.596   2.374 -0.0339 -0.4003  2.2837
15721TIP3    H268655   1.275   5.522   2.314 -0.8884  0.9003 -1.2349
15722TIP3   OH268656   1.329   5.573  11.774 -0.4910  0.3223 -0.1362
15722TIP3    H168657   1.375   5.643  11.728  0.2038 -0.8009 -1.2300
15722TIP3    H268658   1.315   5.506  11.707 -3.4410  0.4485  0.2193
15723TIP3   OH268659   2.252   2.991  15.394 -0.2580  0.0420  0.0348
15723TIP3    H168660   2.287   2.913  15.437  0.1367 -0.6893 -1.5449
15723TIP3    H268661   2.326   3.051  15.387  0.3302 -0.8342 -1.7952
15724TIP3   OH268662   3.896   3.950   2.349  0.2514 -0.3750  0.2633
15724TIP3    H168663   3.854   4.021   2.397 -1.3996 -0.5994 -0.7809
15724TIP3    H268664   3.859   3.870   2.387  0.5241 -0.6138  0.0309
15725TIP3   OH268665   1.370   5.294  13.021 -0.1582 -0.5925  0.3897
15725TIP3    H168666   1.405   5.332  12.941 -0.8070 -1.8972 -0.5547
15725TIP3    H268667   1.434   5.315  13.088 -0.0087  1.2424 -0.2936
15726TIP3   OH268668   2.439   1.884  17.312 -0.2484  0.1277 -0.4646
15726TIP3    H168669   2.516   1.831  17.333  0.6136  1.5430  0.0272
15726TIP3    H268670   2.366   1.832  17.344  0.6462 -0.3380  0.8959
15727TIP3   OH268671   6.731   6.200  12.521 -0.5239  0.1669 -0.0739
15727TIP3    H168672   6.641   6.203  12.552 -1.3045  0.2485 -2.1802
15727TIP3    H268673   6.758   6.109  12.534 -0.6093  0.3138  1.2712
15728TIP3   OH268674   1.694   3.080   2.235 -0.4528 -0.1205  0.0961
15728TIP3    H168675   1.633   3.133   2.184  0.2513 -0.3823 -1.0668
15728TIP3    H268676   1.720   3.010   2.176 -1.1063 -1.5995  1.4952
15729TIP3   OH268677   2.969   6.063   4.609 -0.2595 -0.3121  0.2370
15729TIP3    H168678   2.896   6.125   4.612  0.5644  0.6415  1.7969
15729TIP3    H268679   3.040   6.111   4.568 -0.3649 -1.1277 -0.9556
15730TIP3   OH268680   6.099   2.741  11.340  0.2809  0.0417  0.0424
15730TIP3    H168681   6.020   2.688  11.331 -0.0170  0.4816  0.0373
15730TIP3    H268682   6.159   2.705  11.275  0.9136 -1.7404  1.5328
15731TIP3   OH268683   2.735   3.537   1.195  0.0558  0.3665  0.2525
15731TIP3    H168684   2.796   3.607   1.218  0.8341  0.6649 -2.4446
15731TIP3    H268685   2.790   3.460   1.183 -0.5022 -0.1276  0.7828
15732TIP3   OH268686   1.577   6.605   1.036 -0.7115 -0.2827  0.8826
15732TIP3    H168687   1.525   6.584   1.114  1.3238  0.4158  2.5034
15732TIP3    H268688   1.604   6.696   1.050 -0.1644 -0.2053 -0.5811
15733TIP3   OH268689   4.309   4.880   6.712 -0.7391  0.1202  0.2012
15733TIP3    H168690   4.350   4.960   6.744 -2.0122  0.6513  0.5864
15733TIP3    H268691   4.215   4.892   6.730 -1.0726 -1.0404 -0.6194
15734TIP3   OH268692   0.964   6.340   1.133 -0.3306 -0.5586  0.0430
15734TIP3    H168693   0.951   6.254   1.094  2.0252 -0.1230 -1.9304
15734TIP3    H268694   1.056   6.360   1.118 -1.0001  2.7215 -0.4937
15735TIP3   OH268695   1.075   1.172  13.172 -0.2496  0.6891  0.2035
15735TIP3    H168696   1.017   1.241  13.139  1.9545  0.9705 -3.5829
15735TIP3    H268697   1.163   1.205  13.157  0.9150 -1.9151  0.7515
15736TIP3   OH268698   4.831   6.317   3.650  0.2274  0.2938  0.6426
15736TIP3    H168699   4.805   6.228   3.675 -0.5264  0.7271  1.4679
15736TIP3    H268700   4.902   6.339   3.710  0.5646  0.1681  0.2906
15737TIP3   OH268701   4.565   5.355  10.805 -0.7662 -0.0030  0.6892
15737TIP3    H168702   4.618   5.428  10.775  0.6386 -0.4246  1.9884
15737TIP3    H268703   4.629   5.287  10.828 -2.0610 -2.0191 -1.3483
15738TIP3   OH268704   5.381   0.617  14.749  0.1236  0.3056 -0.0969
15738TIP3    H168705   5.296   0.589  14.715 -0.8708  1.5138  1.2958
15738TIP3    H268706   5.380   0.593  14.841  0.6226  1.7559  0.3218
15739TIP3   OH268707   4.337   5.377   6.075 -0.0052 -0.1454  0.0094
15739TIP3    H168708   4.331   5.286   6.045 -1.6461  0.8760 -3.2282
15739TIP3    H268709   4.248   5.399   6.103  0.8734 -0.1358  3.1970
15740TIP3   OH268710   1.042   2.509   4.993 -0.6719 -0.2078 -0.9637
15740TIP3    H168711   1.006   2.453   4.925 -2.5025  0.8872 -0.9555
15740TIP3    H268712   1.047   2.454   5.071 -0.0601 -1.0191 -1.5559
15741TIP3   OH268713   3.569   3.481   1.152  0.1734 -0.0374  0.7985
15741TIP3    H168714   3.615   3.530   1.083  0.7646  1.8983  2.4963
15741TIP3    H268715   3.552   3.396   1.112  0.2630  1.0669 -1.8393
15742TIP3   OH268716   2.324   4.662   3.114 -0.2804 -0.1894 -0.0997
15742TIP3    H168717   2.323   4.714   3.033 -0.6404 -0.3526 -0.1989
15742TIP3    H268718   2.380   4.587   3.093 -0.2237 -0.1373 -0.1373
15743TIP3   OH268719   5.759   0.460  12.922  0.2006  1.1845 -0.7145
15743TIP3    H168720   5.691   0.506  12.972  1.6467  0.8914  1.6881
15743TIP3    H268721   5.771   0.513  12.843 -1.7827  2.0181 -0.5094
15744TIP3   OH268722   0.355   2.505   3.980  0.1690  0.1930  0.5543
15744TIP3    H168723   0.436   2.553   4.000 -0.6208  3.1041 -2.3444
15744TIP3    H268724   0.381   2.437   3.919  0.8490 -1.2918  2.3903
15745TIP3   OH268725   3.616   6.150  14.582  0.2408 -0.2799 -0.3542
15745TIP3    H168726   3.591   6.220  14.642 -0.7636 -0.4313 -0.5711
15745TIP3    H268727   3.659   6.085  14.637 -2.1233 -1.1984  0.5837
15746TIP3   OH268728   4.747   6.724   0.679 -0.3690 -0.3544 -0.2447
15746TIP3    H168729   4.835   6.734   0.641 -0.3613 -1.0159 -0.4143
15746TIP3    H268730   4.695   6.792   0.637 -0.6199 -1.7043 -2.2819
15747TIP3   OH268731   0.701   4.459   1.250 -0.5040  0.6392  0.2342
15747TIP3    H168732   0.677   4.431   1.338  0.2802  0.8199  0.5154
15747TIP3    H268733   0.625   4.437   1.196 -0.8720  0.2471  0.8981
15748TIP3   OH268734   3.211   0.380  15.324 -0.1803 -0.1254  0.1703
15748TIP3    H168735   3.152   0.418  15.389 -0.4040 -1.8034  0.9891
15748TIP3    H268736   3.238   0.297  15.361 -2.5234 -2.5742 -3.0302
15749TIP3   OH268737   3.532   3.504   6.786 -0.0077 -0.4278 -0.3186
15749TIP3    H168738   3.463   3.496   6.720  1.1151 -2.2581 -1.3650
15749TIP3    H268739   3.497   3.566   6.850 -0.9938  1.7636 -2.7848
15750TIP3   OH268740   6.178   3.531   3.871 -0.1544 -0.9627  0.3157
15750TIP3    H168741   6.222   3.594   3.814 -0.4406  0.4086  1.5557
15750TIP3    H268742   6.248   3.473   3.900  0.3927 -0.3384  0.2871
15751TIP3   OH268743   6.681   5.440  12.983 -0.3139  0.1122  0.1458
15751TIP3    H168744   6.636   5.515  12.944 -0.8290 -0.4682 -0.3906
15751TIP3    H268745   6.740   5.479  13.048  1.4433  1.2156 -1.9688
15752TIP3   OH268746   0.663   6.378  15.387  1.0331  0.2707  0.0112
15752TIP3    H168747   0.757   6.381  15.408  0.7087  1.1114  1.4921
15752TIP3    H268748   0.653   6.439  15.314  1.7928 -0.6493 -0.8931
15753TIP3   OH268749   1.365   2.197   2.774 -0.3169 -0.3505  0.1423
15753TIP3    H168750   1.364   2.277   2.721 -0.3886 -0.1268  0.4775
15753TIP3    H268751   1.417   2.135   2.722 -2.5895 -1.0397 -1.4657
15754TIP3   OH268752   3.507   6.630   1.207  0.6252 -0.2737  0.0846
15754TIP3    H168753   3.444   6.640   1.136  0.6332 -0.7614  0.0029
15754TIP3    H268754   3.471   6.682   1.279  0.3039 -0.2699 -0.0764
15755TIP3   OH268755   2.351   3.377   5.510  0.3440 -0.4502 -0.0435
15755TIP3    H168756   2.324   3.351   5.598 -1.5608  1.3645  0.0043
15755TIP3    H268757   2.364   3.471   5.515  2.9908 -0.6741 -1.1054
15756TIP3   OH268758   0.602   3.389  12.118  0.2167 -0.1596 -0.3352
15756TIP3    H168759   0.625   3.399  12.026  0.6872  1.5148 -0.0692
15756TIP3    H268760   0.591   3.479  12.149  0.5210 -0.6848  1.3579
15757TIP3   OH268761   2.517   2.359   4.799  0.1352 -0.3447 -0.3539
15757TIP3    H168762   2.501   2.313   4.882  3.4401 -0.7606  0.1621
15757TIP3    H268763   2.560   2.294   4.743  0.6837  0.7989 -1.3026
15758TIP3   OH268764   5.158   1.159  11.683 -0.0361 -0.2265  0.5399
15758TIP3    H168765   5.191   1.165  11.773 -0.4010  1.3407  0.6087
15758TIP3    H268766   5.067   1.132  11.693  0.2642 -1.2796  0.5481
15759TIP3   OH268767   4.335   5.456  17.177 -0.2541 -0.5283 -0.5764
15759TIP3    H168768   4.422   5.418  17.164  0.2412  0.1643  0.5379
15759TIP3    H268769   4.276   5.381  17.182  0.2117 -0.9943 -1.7109
15760TIP3   OH268770   3.521   4.006  11.127  0.3289 -0.5012 -0.3422
15760TIP3    H168771   3.435   3.987  11.088  0.6208 -3.4762  0.3007
15760TIP3    H268772   3.559   4.072  11.069 -1.2436 -1.2085 -2.2770
15761TIP3   OH268773   3.409   2.211   5.378  0.1361 -0.4225  0.3266
15761TIP3    H168774   3.330   2.252   5.342 -1.2487 -1.7865  1.6336
15761TIP3    H268775   3.377   2.156   5.450  2.3658 -0.5506  1.3176
15762TIP3   OH268776   3.278   0.804  14.438 -0.5341 -0.6582 -0.6394
15762TIP3    H168777   3.310   0.717  14.416 -2.5633 -1.3347 -1.1921
15762TIP3    H268778   3.271   0.850  14.354 -2.3663 -1.0773 -0.7693
15763TIP3   OH268779   5.750   6.093   4.718 -0.0714 -0.0266  0.3120
15763TIP3    H168780   5.754   6.129   4.807 -1.8421  1.5376 -0.1792
15763TIP3    H268781   5.666   6.049   4.712 -0.0062 -0.0600 -0.6036
15764TIP3   OH268782   6.708   6.333  12.944 -1.0777  0.2953 -1.0821
15764TIP3    H168783   6.723   6.366  12.855 -0.7196  3.1628 -0.0676
15764TIP3    H268784   6.700   6.412  12.997 -0.0867 -1.3319  1.6681
15765TIP3   OH268785   2.048   5.068  15.464 -0.3682 -0.6879  0.1818
15765TIP3    H168786   2.003   5.012  15.527 -0.4838 -1.6995 -0.7604
15765TIP3    H268787   2.140   5.067  15.491 -0.1282 -2.4612 -0.5891
15766TIP3   OH268788   2.814   1.053   3.917  0.2857 -0.1563  0.4145
15766TIP3    H168789   2.833   0.976   3.970 -0.5488 -0.2998  0.5208
15766TIP3    H268790   2.899   1.096   3.905  0.8982 -1.5269 -0.3408
15767TIP3   OH268791   1.952   4.551   6.096  0.6853  0.5724  0.6578
15767TIP3    H168792   1.955   4.538   6.191  2.1565  0.1585  0.5736
15767TIP3    H268793   2.028   4.504   6.062 -0.2016  0.1034 -0.8193
15768TIP3   OH268794   2.713   5.136  16.522  0.1620  0.7028  0.3414
15768TIP3    H168795   2.733   5.218  16.477 -0.8487  0.6025 -0.3372
15768TIP3    H268796   2.798   5.099  16.544  0.6844  0.9223 -1.2113
15769TIP3   OH268797   4.199   5.222  15.977 -0.0280  0.3026  0.3840
15769TIP3    H168798   4.279   5.216  16.030 -0.8150 -0.2393  1.5647
15769TIP3    H268799   4.139   5.274  16.030 -0.3650  0.9693 -0.6338
15770TIP3   OH268800   4.298   5.850   4.211  0.3901 -0.0939 -0.0051
15770TIP3    H168801   4.253   5.817   4.288  2.3944 -1.5269  0.6303
15770TIP3    H268802   4.384   5.806   4.212  0.8638  0.6062 -2.4905
15771TIP3   OH268803   5.538   5.880  15.206  0.1457 -0.0693  0.6988
15771TIP3    H168804   5.575   5.860  15.121  1.0371 -0.2027  1.1099
15771TIP3    H268805   5.558   5.973  15.220  0.0630 -0.0653  0.7930
15772TIP3   OH268806   5.305   4.097   4.757 -0.5620  0.0921 -0.5030
15772TIP3    H168807   5.393   4.134   4.748  0.5694 -2.2013  0.4390
15772TIP3    H268808   5.256   4.164   4.805  0.8275  1.1559 -0.5155
15773TIP3   OH268809   0.008   2.179   1.687  0.5855 -0.0220  0.0760
15773TIP3    H168810   0.024   2.087   1.705  1.3618  0.2834  1.0266
15773TIP3    H268811   0.010   2.221   1.772  0.2610  0.8826 -0.3484
15774TIP3   OH268812   0.789   4.128   3.520  0.0808 -0.6071  0.3748
15774TIP3    H168813   0.760   4.200   3.464  0.7750 -0.6258 -0.0274
15774TIP3    H268814   0.709   4.080   3.541 -0.3502  0.1092  0.4050
15775TIP3   OH268815   1.040   3.223   4.995 -0.0218 -0.3296 -0.1384
15775TIP3    H168816   1.077   3.135   5.004  3.0540  0.9822  1.5617
15775TIP3    H268817   0.954   3.217   5.036  0.8290 -2.2063  1.5366
15776TIP3   OH268818   4.455   2.850   5.565 -0.0990  0.3824  0.8200
15776TIP3    H168819   4.436   2.776   5.507  3.4674 -0.7903  0.8910
15776TIP3    H268820   4.456   2.926   5.508 -4.3904  0.6983  0.8294
15777TIP3   OH268821   4.908   5.456  10.947 -0.4612 -0.1107 -0.4907
15777TIP3    H168822   4.871   5.489  10.865  0.0728 -0.2403 -0.7850
15777TIP3    H268823   4.974   5.392  10.920 -0.1983 -0.0680  0.0351
15778TIP3   OH268824   3.594   4.501  12.891 -0.0251 -0.4567  0.0529
15778TIP3    H168825   3.677   4.456  12.876  1.0518  1.3601  0.2868
15778TIP3    H268826   3.561   4.519  12.803 -0.2994 -1.3687 -0.0414
15779TIP3   OH268827   3.645   4.316   5.748  0.1400  0.3150  0.1693
15779TIP3    H168828   3.629   4.222   5.755  0.5129  0.3203  1.2765
15779TIP3    H268829   3.559   4.355   5.733 -0.1681 -0.1107  0.8073
15780TIP3   OH268830   5.149   6.569   2.510 -0.1562 -0.3543 -1.2232
15780TIP3    H168831   5.235   6.605   2.532  0.3107 -0.1178 -3.2792
15780TIP3    H268832   5.087   6.630   2.552  0.6435 -0.1052 -0.3584
15781TIP3   OH268833   4.072   4.822  14.178  0.4381 -0.7006  0.1061
15781TIP3    H168834   4.074   4.745  14.234 -0.3350 -1.2942 -0.6529
15781TIP3    H268835   4.164   4.837  14.155  0.6092 -1.3234  0.3637
15782TIP3   OH268836   4.795   0.256   2.551 -0.2384 -0.7896  0.1654
15782TIP3    H168837   4.708   0.227   2.522  0.4105 -1.6650 -1.0010
15782TIP3    H268838   4.851   0.243   2.474  0.5500  1.5466  0.2759
15783TIP3   OH268839   5.985   4.784   2.562  0.0971  0.0792  0.1277
15783TIP3    H168840   5.956   4.875   2.557  0.2267  0.1892  1.1721
15783TIP3    H268841   6.076   4.790   2.592 -0.6165 -0.4277  2.6901
15784TIP3   OH268842   5.165   1.585   1.615 -0.5031  0.4136 -0.1526
15784TIP3    H168843   5.150   1.652   1.549  1.2979  0.5642 -0.4642
15784TIP3    H268844   5.078   1.562   1.646 -1.1758  3.0839  0.1815
15785TIP3   OH268845   1.341   2.198   5.769  0.9513 -0.5857  0.2455
15785TIP3    H168846   1.340   2.294   5.766  0.2872 -0.5758  0.5372
15785TIP3    H268847   1.402   2.177   5.839  0.9877 -0.3709  0.2794
15786TIP3   OH268848   2.608   2.293  14.761 -0.3221  0.1520 -0.2611
15786TIP3    H168849   2.625   2.386  14.744  0.9010  0.1422  0.7623
15786TIP3    H268850   2.636   2.249  14.681 -1.5334  0.6952 -1.0178
15787TIP3   OH268851   0.731   6.018   5.045 -0.2392 -0.4920  0.0883
15787TIP3    H168852   0.658   5.972   5.005 -0.7128  0.1354  0.2056
15787TIP3    H268853   0.721   6.002   5.139  0.1847 -0.9839  0.0529
15788TIP3   OH268854   4.893   5.672   0.729  0.0476 -0.2003  0.6186
15788TIP3    H168855   4.832   5.740   0.758 -1.0607 -0.3276 -1.2810
15788TIP3    H268856   4.869   5.595   0.780 -0.1609  0.2193  1.1712
15789TIP3   OH268857   3.264   1.922  12.945 -0.3232 -0.6122  0.5013
15789TIP3    H168858   3.251   1.933  12.851  0.0796  1.4419  0.6361
15789TIP3    H268859   3.342   1.973  12.964 -0.6182 -0.6813  2.0048
15790TIP3   OH268860   5.891   1.801   1.235 -0.1835  0.3998 -1.2847
15790TIP3    H168861   5.797   1.783   1.242 -0.3001  0.9868 -1.2523
15790TIP3    H268862   5.930   1.717   1.211 -0.5719 -0.1357 -0.1101
15791TIP3   OH268863   4.425   5.851  12.491 -0.2329 -0.4455  0.2002
15791TIP3    H168864   4.408   5.945  12.487 -0.8653 -0.5802 -0.9560
15791TIP3    H268865   4.508   5.839  12.445 -0.2434 -0.4752  0.1887
15792TIP3   OH268866   0.806   6.804  13.298  0.2743  0.2985  0.0830
15792TIP3    H168867   0.778   6.834  13.384  0.7486 -0.6118  0.5576
15792TIP3    H268868   0.768   6.717  13.289 -0.9843  0.9454 -1.2350
15793TIP3   OH268869   6.576   6.098   6.094 -0.3726 -0.1968  0.3181
15793TIP3    H168870   6.562   6.090   5.999 -2.3045  0.9557  0.4581
15793TIP3    H268871   6.572   6.008   6.126  1.4576 -0.7410 -0.7771
15794TIP3   OH268872   2.200   4.026  11.608 -0.3227 -0.1441  0.3549
15794TIP3    H168873   2.230   4.075  11.685 -0.3053 -0.9221  0.8610
15794TIP3    H268874   2.243   3.940  11.616 -0.5363 -0.3264 -0.3777
15795TIP3   OH268875   3.302   1.684   0.159 -0.0460  0.1098  0.4982
15795TIP3    H168876   3.348   1.605   0.188  2.9916  1.5090 -0.0755
15795TIP3    H268877   3.303   1.678   0.063 -0.7295  0.3596  0.4727
15796TIP3   OH268878   2.252   3.126   4.064  0.1641  0.1005 -0.3980
15796TIP3    H168879   2.299   3.209   4.072 -0.1850  0.4465 -1.6200
15796TIP3    H268880   2.197   3.121   4.142  0.0778  1.0903 -0.3900
15797TIP3   OH268881   4.626   1.166   0.587 -0.0345 -0.6379 -0.0064
15797TIP3    H168882   4.572   1.105   0.637 -0.0366 -0.8298 -0.2399
15797TIP3    H268883   4.627   1.246   0.639  0.7197 -1.1250  0.7630
15798TIP3   OH268884   3.168   4.707  10.487 -0.5721 -0.0775 -0.3887
15798TIP3    H168885   3.231   4.779  10.487 -1.4409  0.7024 -0.9704
15798TIP3    H268886   3.099   4.735  10.548  0.3568 -1.6066  1.5023
15799TIP3   OH268887   1.185   5.852  14.263 -0.6445  0.2441 -0.5922
15799TIP3    H168888   1.200   5.947  14.269  0.0383  0.1999 -1.4204
15799TIP3    H268889   1.176   5.823  14.354  0.0233  0.9614 -0.2906
15800TIP3   OH268890   1.110   5.969   4.173 -0.1357  0.0096 -0.3922
15800TIP3    H168891   1.021   5.955   4.141 -0.9281  0.7234  1.3206
15800TIP3    H268892   1.137   5.884   4.207  0.2834 -0.4741 -1.8709
15801TIP3   OH268893   3.450   4.926   2.888 -1.2929  0.0379  0.0327
15801TIP3    H168894   3.471   5.006   2.936  0.3737 -0.1893 -0.2560
15801TIP3    H268895   3.369   4.895   2.928  0.3011 -0.4761  3.2087
15802TIP3   OH268896   4.084   0.468   3.753 -0.2549  0.9790  0.2475
15802TIP3    H168897   4.021   0.488   3.822 -0.8432 -1.2379  0.4411
15802TIP3    H268898   4.031   0.433   3.682  0.5640  1.0434 -0.4115
15803TIP3   OH268899   0.875   2.834  11.307 -0.2474  0.2281  0.4347
15803TIP3    H168900   0.864   2.760  11.247  0.7822  1.0495 -0.8220
15803TIP3    H268901   0.955   2.812  11.355 -1.1165 -0.4691  1.6165
15804TIP3   OH268902   3.905   0.216   4.021 -0.1892 -0.5987 -0.1060
15804TIP3    H168903   3.866   0.293   3.979 -1.3446 -0.5838  0.9629
15804TIP3    H268904   3.953   0.251   4.096 -0.3897 -0.8932  0.1602
15805TIP3   OH268905   0.085   2.855  12.167  0.1357  0.0796 -0.1679
15805TIP3    H168906   0.029   2.827  12.239 -1.8503  2.6518 -0.5767
15805TIP3    H268907   0.155   2.905  12.209  0.7306 -0.9817  0.1491
15806TIP3   OH268908   3.912   3.565  11.426  0.1181  0.0654  0.2829
15806TIP3    H168909   3.869   3.642  11.464  0.0844 -0.1072  0.6022
15806TIP3    H268910   3.867   3.490  11.467 -2.2133 -0.2498 -2.4882
15807TIP3   OH268911   2.646   0.172  15.540  0.6831  0.6205  0.6488
15807TIP3    H168912   2.719   0.117  15.511 -0.6585 -1.9659  1.8106
15807TIP3    H268913   2.671   0.201  15.628  0.8398  0.8158  0.5418
15808TIP3   OH268914   2.031   0.583   4.873 -0.0108 -0.6421 -0.1790
15808TIP3    H168915   1.968   0.587   4.944 -0.3318 -0.8898 -0.4432
15808TIP3    H268916   1.977   0.574   4.794  0.3592 -1.0996 -0.3868
15809TIP3   OH268917   1.051   1.190   3.275 -0.5410  0.3355 -0.3772
15809TIP3    H168918   0.961   1.222   3.289 -0.4819  0.9637 -1.3727
15809TIP3    H268919   1.096   1.263   3.232 -0.0435 -0.6226 -1.5338
15810TIP3   OH268920   3.259   0.716   2.001 -0.3964 -0.4854  0.5189
15810TIP3    H168921   3.166   0.720   1.980 -0.5834 -1.6893  1.0203
15810TIP3    H268922   3.302   0.695   1.919 -0.5470  0.1119  0.2782
15811TIP3   OH268923   4.869   1.290  16.004  0.2112  0.1514 -0.0818
15811TIP3    H168924   4.964   1.290  16.018  0.0902  1.0193  0.9251
15811TIP3    H268925   4.850   1.204  15.969  0.8280 -1.8092  3.8706
15812TIP3   OH268926   1.943   3.626  11.963 -0.0697 -0.0356 -0.1418
15812TIP3    H168927   1.919   3.562  11.896  1.3702 -1.2561  0.4457
15812TIP3    H268928   1.999   3.577  12.023 -0.5312  1.2713  1.4337
15813TIP3   OH268929   4.745   1.742  12.661 -0.5635  0.0428 -0.5016
15813TIP3    H168930   4.653   1.721  12.680 -0.5415  1.0811  0.9111
15813TIP3    H268931   4.755   1.834  12.685  0.6986  0.1403 -1.2796
15814TIP3   OH268932   4.092   0.076   2.947  0.2544 -0.1106  0.3949
15814TIP3    H168933   4.176   0.088   2.989 -1.0719  1.2302  2.8933
15814TIP3    H268934   4.031   0.057   3.018 -1.4931 -1.7100 -1.3777
15815TIP3   OH268935   6.710   2.030  14.160  0.0137  0.1958 -0.0938
15815TIP3    H168936   6.646   2.045  14.091  0.1112 -1.0742 -0.4802
15815TIP3    H268937   6.665   1.971  14.221  0.5715 -0.1518 -0.0177
15816TIP3   OH268938   5.427   2.046   1.014  0.0150  0.1328 -0.0673
15816TIP3    H168939   5.427   2.127   1.066 -0.9271  0.7222 -0.9395
15816TIP3    H268940   5.336   2.019   1.013  0.1500 -0.3067 -0.7444
15817TIP3   OH268941   5.041   0.790  12.565 -0.1710 -0.4725 -0.4258
15817TIP3    H168942   5.094   0.826  12.494  0.4694 -1.2124 -0.3347
15817TIP3    H268943   5.029   0.698  12.542 -1.2592 -0.3643 -0.3397
15818TIP3   OH268944   5.482   1.114  12.124  0.2204 -0.4383 -0.4994
15818TIP3    H168945   5.457   1.124  12.216 -1.0218 -1.6961 -0.6746
15818TIP3    H268946   5.565   1.162  12.116  0.4547 -0.4950  1.3184
15819TIP3   OH268947   3.547   4.166  13.790 -0.4236  0.2215 -0.1903
15819TIP3    H168948   3.516   4.228  13.724 -0.9238 -1.0300 -1.1524
15819TIP3    H268949   3.473   4.155  13.850 -1.3716 -1.5751 -1.6145
15820TIP3   OH268950   0.928   3.251   3.886 -0.4514  0.0726  0.2216
15820TIP3    H168951   0.997   3.317   3.886 -0.5770  0.2048  0.2530
15820TIP3    H268952   0.974   3.167   3.895 -0.2229  0.0675 -0.9382
15821TIP3   OH268953   5.890   2.114   5.608  0.5919 -0.3313  0.5037
15821TIP3    H168954   5.950   2.069   5.548  0.4326  0.6739 -0.4359
15821TIP3    H268955   5.893   2.062   5.688  0.2424 -2.1372 -0.6048
15822TIP3   OH268956   4.956   5.259  16.778 -0.4959  0.5907  0.1321
15822TIP3    H168957   4.875   5.248  16.827 -1.6901 -1.0677 -2.0532
15822TIP3    H268958   4.942   5.212  16.696  2.4316  0.8408 -0.6476
15823TIP3   OH268959   5.328   6.733  16.045 -0.0173  0.1160 -0.0688
15823TIP3    H168960   5.415   6.718  16.083 -0.1265  0.3826  0.2904
15823TIP3    H268961   5.344   6.790  15.970  0.0749  0.4890  0.2296
15824TIP3   OH268962   3.764   0.310   5.465  0.4973 -0.2507  0.3242
15824TIP3    H168963   3.784   0.274   5.379  0.0252 -1.1131  0.5712
15824TIP3    H268964   3.850   0.331   5.503  0.6632  2.2323 -1.2009
15825TIP3   OH268965   2.485   5.076  12.537  0.0901  0.4444  0.5071
15825TIP3    H168966   2.516   5.124  12.613  0.4922  0.5835  0.2599
15825TIP3    H268967   2.563   5.062  12.483 -0.2927  0.8947 -0.1786
15826TIP3   OH268968   2.012   0.709   6.221  0.2723  0.2339  0.4038
15826TIP3    H168969   2.041   0.673   6.305  0.8367  0.1960  0.1980
15826TIP3    H268970   2.085   0.762   6.191 -0.2210  0.8537  0.2830
15827TIP3   OH268971   3.288   4.184  16.011  0.2092  0.4011 -0.2962
15827TIP3    H168972   3.341   4.262  15.993 -0.9905  1.8643  2.0926
15827TIP3    H268973   3.338   4.135  16.076 -0.2911  0.5953  0.2406
15828TIP3   OH268974   1.822   0.245  11.951  0.0031 -0.2474  0.1906
15828TIP3    H168975   1.812   0.219  11.860  2.0470 -0.7703  0.0836
15828TIP3    H268976   1.832   0.340  11.947 -0.7373 -0.1665 -0.0217
15829TIP3   OH268977   6.306   4.447  11.908 -0.1000  0.3597  0.3301
15829TIP3    H168978   6.229   4.461  11.852 -0.9711  0.9629  1.6321
15829TIP3    H268979   6.355   4.378  11.864 -0.4126  1.2670 -1.5140
15830TIP3   OH268980   6.457   5.641  15.654  0.0691  0.9261  0.0333
15830TIP3    H168981   6.506   5.636  15.736 -2.0201 -0.8118  1.2894
15830TIP3    H268982   6.488   5.566  15.603 -0.5098  0.4251  0.4007
15831TIP3   OH268983   2.762   5.840  16.568 -0.3629 -0.7125 -0.3511
15831TIP3    H168984   2.760   5.909  16.634 -2.1868 -1.3012  0.2611
15831TIP3    H268985   2.800   5.883  16.490  3.2616 -0.3888  1.3779
15832TIP3   OH268986   3.395   3.567  14.022 -0.2230 -0.1477  0.3883
15832TIP3    H168987   3.397   3.505  14.095  0.3346  0.3948  0.8496
15832TIP3    H268988   3.312   3.615  14.034 -0.5803 -0.6951  0.1174
15833TIP3   OH268989   2.091   0.462  17.229 -0.3050  0.8861 -0.1413
15833TIP3    H168990   2.036   0.400  17.182 -0.6735 -0.5036  1.9509
15833TIP3    H268991   2.031   0.528  17.262 -0.2345  1.1831 -0.6160
15834TIP3   OH268992   6.129   0.648  17.105  0.1616  0.0056  0.0902
15834TIP3    H168993   6.081   0.683  17.030 -1.2541 -1.2526  0.3629
15834TIP3    H268994   6.158   0.561  17.076 -1.6571 -1.1149  1.4426
15835TIP3   OH268995   2.732   5.112  12.412  0.0062  0.3116 -0.5644
15835TIP3    H168996   2.816   5.068  12.419 -1.1450 -2.0642 -0.8286
15835TIP3    H268997   2.745   5.195  12.458  1.8829 -0.8801  1.2317
15836TIP3   OH268998   4.568   0.323   3.212  0.5296  0.0476  0.2489
15836TIP3    H168999   4.525   0.237   3.217  0.5138  0.0059 -0.4881
15836TIP3    H269000   4.497   0.386   3.225  0.6617 -0.0526  1.5507
15837TIP3   OH269001   2.222   4.727  12.796  0.3610 -0.8824  0.3802
15837TIP3    H169002   2.133   4.748  12.770  0.0384 -1.1974  1.1882
15837TIP3    H269003   2.271   4.808  12.784 -0.4865 -0.1086  1.8405
15838TIP3   OH269004   2.511   3.491   5.104  0.2263  0.0697 -0.3566
15838TIP3    H169005   2.472   3.465   5.188  0.1724 -0.3506 -0.5119
15838TIP3    H269006   2.495   3.586   5.099  1.1653  0.2908  0.5947
15839TIP3   OH269007   5.016   1.863  16.016  0.0374 -0.0800  0.0268
15839TIP3    H169008   4.991   1.785  15.965  1.0512  0.6324 -1.6616
15839TIP3    H269009   5.069   1.915  15.955  0.7256  1.1745  1.6277
15840TIP3   OH269010   3.452   1.535  11.879 -0.0729  0.3916  0.6509
15840TIP3    H169011   3.452   1.440  11.868  0.5181  0.2815  1.4678
15840TIP3    H269012   3.376   1.552  11.935 -1.7266  0.7062 -1.5630
15841TIP3   OH269013   0.911   3.483   0.262 -0.0209  0.3857 -0.6364
15841TIP3    H169014   0.882   3.448   0.347  0.8959  0.4842 -0.2721
15841TIP3    H269015   0.853   3.557   0.246 -1.3553 -0.6818 -0.9481
15842TIP3   OH269016   0.822   1.004   3.486  0.4805  0.3323 -0.6432
15842TIP3    H169017   0.831   1.098   3.499 -0.7263  0.3118  0.6889
15842TIP3    H269018   0.898   0.979   3.434  1.8475  1.7271  0.5797
15843TIP3   OH269019   2.722   5.551   1.580 -0.5918 -0.2166  0.1162
15843TIP3    H169020   2.702   5.482   1.517  0.9942  0.4768 -1.2303
15843TIP3    H269021   2.810   5.530   1.611 -0.9369  0.0422  1.3422
15844TIP3   OH269022   1.355   1.990   5.250  0.1779  0.0070  0.0703
15844TIP3    H169023   1.354   2.021   5.341  0.8688  1.7415 -0.4683
15844TIP3    H269024   1.412   1.913   5.252  0.6660  0.3711  1.0096
15845TIP3   OH269025   1.092   2.996  15.090 -0.2405  0.2494  0.2833
15845TIP3    H169026   1.011   2.982  15.040 -0.9052 -0.1024  1.4125
15845TIP3    H269027   1.101   2.917  15.143  0.6123  0.4800  0.4882
15846TIP3   OH269028   3.972   0.581  14.752 -0.2432 -0.0701 -0.0215
15846TIP3    H169029   3.962   0.491  14.783 -0.0903  0.3016  1.1729
15846TIP3    H269030   3.889   0.602  14.709  0.0426 -1.0551 -1.1029
15847TIP3   OH269031   1.652   3.937  16.567  0.2406 -0.2467 -0.2902
15847TIP3    H169032   1.611   4.022  16.548  0.8233 -0.4565 -2.9694
15847TIP3    H269033   1.733   3.959  16.612 -0.0842  0.5367 -0.0703
15848TIP3   OH269034   1.159   3.548   0.128 -0.5727 -0.3270 -0.5619
15848TIP3    H169035   1.139   3.496   0.050 -1.3167  0.2990 -0.8125
15848TIP3    H269036   1.088   3.528   0.189  0.7360 -1.8771  0.5372
15849TIP3   OH269037   6.062   5.455  12.367  0.4259  0.9245 -0.8026
15849TIP3    H169038   6.120   5.445  12.291 -1.0392  0.9900 -1.9700
15849TIP3    H269039   6.092   5.535  12.409  2.4794 -0.0986 -0.1650
15850TIP3   OH269040   0.331   0.738  10.847  0.1156  0.5292 -0.3943
15850TIP3    H169041   0.301   0.767  10.761  2.0106  3.1808 -0.2859
15850TIP3    H269042   0.252   0.734  10.901 -0.9249  0.0579 -1.8892
15851TIP3   OH269043   5.418   2.261   1.164  0.1463 -0.0151 -0.1648
15851TIP3    H169044   5.345   2.281   1.222 -0.4847 -1.7314 -0.2979
15851TIP3    H269045   5.479   2.211   1.218 -0.4567 -1.6463 -0.8966
15852TIP3   OH269046   6.440   4.552   1.858 -0.6601  0.0053  0.2006
15852TIP3    H169047   6.507   4.497   1.897  0.7106  2.3863  1.4360
15852TIP3    H269048   6.357   4.513   1.885  0.2542 -0.9065  1.8037
15853TIP3   OH269049   2.905   3.129  14.154 -0.0886  0.3804  0.3777
15853TIP3    H169050   2.845   3.130  14.228 -1.6554  1.5060 -0.8312
15853TIP3    H269051   2.960   3.206  14.166  0.4252 -0.0654  0.9361
15854TIP3   OH269052   3.887   2.738   3.694 -0.5800 -0.1188  0.5170
15854TIP3    H169053   3.803   2.724   3.648 -1.0145  1.5285  0.7635
15854TIP3    H269054   3.953   2.714   3.629 -1.1920  1.9852 -0.9831
15855TIP3   OH269055   1.709   2.020  15.692 -0.4040  0.3991  0.3466
15855TIP3    H169056   1.708   1.937  15.741 -1.1038  0.6230  0.7212
15855TIP3    H269057   1.797   2.023  15.653 -0.2767 -0.3916  0.5436
15856TIP3   OH269058   0.755   3.009   3.310  0.5498 -0.4578  0.4311
15856TIP3    H169059   0.668   2.999   3.348  0.4578  0.8440  0.5871
15856TIP3    H269060   0.746   2.974   3.221 -0.6003  1.2065 -0.1535
15857TIP3   OH269061   5.816   3.380   5.201  0.5826 -0.0254 -0.4532
15857TIP3    H169062   5.754   3.355   5.134 -1.1148  0.7072  0.7770
15857TIP3    H269063   5.849   3.298   5.237  0.0820 -0.4268 -0.9129
15858TIP3   OH269064   1.140   0.189   2.543  0.2080  0.8213  0.4730
15858TIP3    H169065   1.194   0.110   2.551 -1.0726 -0.1977 -0.5664
15858TIP3    H269066   1.203   0.258   2.523  1.1164 -0.4515 -1.3878
15859TIP3   OH269067   6.764   0.775  13.291 -0.1255 -0.3287  0.1188
15859TIP3    H169068   6.739   0.805  13.204 -0.4981 -0.1080  0.2977
15859TIP3    H269069   6.743   0.849  13.348  2.0046  0.3317  0.1373
15860TIP3   OH269070   6.181   5.214   0.540 -0.4418 -0.3287 -0.0788
15860TIP3    H169071   6.250   5.163   0.498  0.2019  1.5741 -1.4448
15860TIP3    H269072   6.227   5.268   0.605 -0.6626  0.7195 -0.7761
15861TIP3   OH269073   5.129   5.718   0.067 -0.7468  0.2106 -0.7710
15861TIP3    H169074   5.135   5.687   0.157 -0.6341  0.5461 -0.6612
15861TIP3    H269075   5.177   5.801   0.067 -1.1886  0.4676 -1.0230
15862TIP3   OH269076   4.288   4.086  14.577  0.5502  0.3240 -0.2947
15862TIP3    H169077   4.311   4.002  14.539 -1.3967 -0.5878  0.4085
15862TIP3    H269078   4.352   4.099  14.647  0.9808 -0.4682 -0.5279
15863TIP3   OH269079   2.487   2.053  16.975 -0.0624  0.0501 -0.5408
15863TIP3    H169080   2.447   2.061  17.062  0.3631  0.1805 -0.3566
15863TIP3    H269081   2.490   2.142  16.941  1.5477  0.2791  0.1135
15864TIP3   OH269082   1.664   1.636  10.795 -1.0178  0.1016  0.7656
15864TIP3    H169083   1.655   1.560  10.853  1.9600 -0.0192  1.1944
15864TIP3    H269084   1.664   1.598  10.707  1.4615 -0.6148  1.0055
15865TIP3   OH269085   6.550   5.190  17.219 -0.3157  0.1479  0.0103
15865TIP3    H169086   6.597   5.124  17.167  1.4777  0.2412  1.4536
15865TIP3    H269087   6.592   5.273  17.196 -0.4327  0.3670  0.5907
15866TIP3   OH269088   2.266   1.023   5.736  0.4359 -0.5355 -0.1297
15866TIP3    H169089   2.296   1.010   5.826  1.1288 -2.0425 -0.5508
15866TIP3    H269090   2.172   1.005   5.739  0.0042  1.5998  0.6849
15867TIP3   OH269091   0.201   1.164  13.426 -0.3476  0.7887 -0.3122
15867TIP3    H169092   0.233   1.081  13.390  0.9360  1.2430 -0.2661
15867TIP3    H269093   0.201   1.224  13.352 -0.6346  0.9273 -0.2014
15868TIP3   OH269094   6.582   3.880   2.487 -0.2277  0.0046  0.6301
15868TIP3    H169095   6.593   3.938   2.411  0.9582 -1.8449 -0.6852
15868TIP3    H269096   6.498   3.837   2.472  0.4953 -1.1496 -0.2388
15869TIP3   OH269097   5.203   3.104  14.829 -0.3768  0.1323 -0.2321
15869TIP3    H169098   5.270   3.105  14.898 -0.8541  1.4406  0.2331
15869TIP3    H269099   5.135   3.046  14.863  0.5610 -1.3877 -0.7997
15870TIP3   OH269100   3.514   0.396  15.205  0.5847  0.1217  0.4763
15870TIP3    H169101   3.524   0.416  15.112 -0.7226 -2.5325 -0.3270
15870TIP3    H269102   3.420   0.401  15.221  0.7078 -0.3160  1.4195
15871TIP3   OH269103   5.871   2.196  15.322 -0.2918 -0.6638  0.8787
15871TIP3    H169104   5.796   2.158  15.277  0.3159 -1.1415  0.2495
15871TIP3    H269105   5.875   2.286  15.290  1.8179 -1.7242 -2.3584
15872TIP3   OH269106   5.591   4.411   0.544 -0.2598  0.1345  0.2283
15872TIP3    H169107   5.662   4.427   0.605  0.4796  1.5527 -0.9520
15872TIP3    H269108   5.524   4.475   0.568  0.3178  1.1808 -0.8281
15873TIP3   OH269109   0.037   5.012  17.365 -0.3536 -0.1704 -0.4392
15873TIP3    H169110   0.064   4.967  17.446  1.7961 -0.5013 -1.2589
15873TIP3    H269111   0.001   4.943  17.310  0.5393 -0.4415 -0.7031
15874TIP3   OH269112   3.258   5.449  13.356  0.0333  0.2420  0.3824
15874TIP3    H169113   3.331   5.391  13.377  0.1587  0.4480  0.5202
15874TIP3    H269114   3.214   5.464  13.440  1.3319  2.1558  0.7722
15875TIP3   OH269115   4.393   4.466   1.244  0.1781 -0.3193  0.4939
15875TIP3    H169116   4.421   4.381   1.276  0.1503  0.1712  1.8722
15875TIP3    H269117   4.471   4.522   1.251 -0.0397 -0.0040  0.4444
15876TIP3   OH269118   6.282   4.282   3.174  0.3027 -0.2324 -0.1683
15876TIP3    H169119   6.359   4.304   3.227 -0.2263 -1.7661  1.3329
15876TIP3    H269120   6.210   4.327   3.218 -0.0239 -0.8695 -0.0473
15877TIP3   OH269121   2.810   5.121  16.918 -0.1817  0.5860 -0.7021
15877TIP3    H169122   2.794   5.168  17.000 -0.7502 -0.7703  0.0028
15877TIP3    H269123   2.722   5.103  16.884 -0.0854 -1.4490 -0.0390
15878TIP3   OH269124   1.069   1.260  12.523 -0.2824 -0.8269  0.5475
15878TIP3    H169125   1.089   1.258  12.430 -0.0465  0.7268  0.5356
15878TIP3    H269126   0.978   1.231  12.529 -1.1232  1.3986 -0.4666
15879TIP3   OH269127   6.226   3.284   3.723 -0.5111 -0.4403  0.5112
15879TIP3    H169128   6.201   3.309   3.634  0.5439  1.3075  0.6624
15879TIP3    H269129   6.152   3.232   3.755 -2.1589  1.1953 -0.4366
15880TIP3   OH269130   5.189   3.447   3.051 -0.3021  0.4873 -0.3597
15880TIP3    H169131   5.095   3.450   3.034 -0.0926  4.7754 -1.7904
15880TIP3    H269132   5.229   3.454   2.964  1.3720 -0.5169  0.2870
15881TIP3   OH269133   4.152   2.756   0.109 -0.0583  0.0997  0.0358
15881TIP3    H169134   4.084   2.699   0.147 -0.5979 -0.2287 -1.3637
15881TIP3    H269135   4.107   2.839   0.093  0.5489  0.7297  1.4195
15882TIP3   OH269136   2.938   1.712  15.383  0.0894  0.3726 -0.5982
15882TIP3    H169137   2.941   1.620  15.409 -3.1124 -0.0312 -1.2336
15882TIP3    H269138   2.972   1.713  15.294  2.1480  0.2391  0.1206
15883TIP3   OH269139   4.809   6.542   4.251 -0.1043  0.1170 -0.0845
15883TIP3    H169140   4.780   6.452   4.238  1.0307 -0.0837 -1.6947
15883TIP3    H269141   4.816   6.577   4.162  0.4476  1.4628  0.4631
15884TIP3   OH269142   2.830   2.199   3.011 -0.0674  0.1207  0.4235
15884TIP3    H169143   2.753   2.146   2.993 -1.0629  1.6114  0.1626
15884TIP3    H269144   2.873   2.210   2.926  0.3669 -0.5850  0.5447
15885TIP3   OH269145   4.229   5.635   5.310  0.0661 -0.2984 -0.3347
15885TIP3    H169146   4.256   5.622   5.219  1.0933  1.4350 -0.3289
15885TIP3    H269147   4.174   5.714   5.308  1.7601  0.9793  0.7804
15886TIP3   OH269148   2.700   5.807  14.954  0.2454  0.2592  0.2202
15886TIP3    H169149   2.606   5.819  14.966  0.2045  0.6963 -0.5056
15886TIP3    H269150   2.721   5.855  14.874  0.8373 -0.9847 -0.4126
15887TIP3   OH269151   4.744   2.055  16.441  0.5138  0.2774 -0.0838
15887TIP3    H169152   4.676   2.083  16.379 -0.1036 -0.4742  0.2277
15887TIP3    H269153   4.695   2.019  16.515  1.2417 -1.4928 -0.4102
15888TIP3   OH269154   6.455   2.432  14.665 -0.4111  0.3510  0.0397
15888TIP3    H169155   6.364   2.425  14.639 -0.2027 -1.2055 -0.3565
15888TIP3    H269156   6.461   2.516  14.710 -2.0886  0.3516  0.3084
15889TIP3   OH269157   5.891   3.466  14.342  0.0912  0.2592  0.1304
15889TIP3    H169158   5.941   3.528  14.395  1.6035 -1.1288  0.3795
15889TIP3    H269159   5.950   3.444  14.269 -0.8522 -0.0584 -0.5586
15890TIP3   OH269160   2.878   4.250  14.427  0.0686 -0.0997  0.5375
15890TIP3    H169161   2.974   4.245  14.427  0.5296  4.4644  1.0216
15890TIP3    H269162   2.854   4.240  14.335  0.9760 -1.1309  0.3829
15891TIP3   OH269163   6.182   2.259   0.673 -0.4833  0.3901 -0.2773
15891TIP3    H169164   6.217   2.182   0.718  2.2286  1.6582  0.0063
15891TIP3    H269165   6.236   2.267   0.594 -0.9725  1.7788 -0.4940
15892TIP3   OH269166   6.516   0.045   0.544  0.0391 -0.6576 -0.4180
15892TIP3    H169167   6.572   0.012   0.474  0.4991  1.0365 -0.8859
15892TIP3    H269168   6.574   0.054   0.619  0.4577  1.1082 -0.9060
15893TIP3   OH269169   6.520   6.433   6.125 -0.0164  0.5746  0.6183
15893TIP3    H169170   6.587   6.496   6.099 -0.4939  1.2516  0.9948
15893TIP3    H269171   6.539   6.355   6.073  0.2986  1.1874 -0.2102
15894TIP3   OH269172   0.512   0.040  12.689  0.3631 -0.4183 -0.3355
15894TIP3    H169173   0.555  -0.029  12.638 -0.0797 -1.7742  1.0609
15894TIP3    H269174   0.420   0.013  12.693 -0.1873  1.1995 -1.2428
15895TIP3   OH269175   1.511   4.020   4.455 -0.2137 -0.1799  0.2021
15895TIP3    H169176   1.431   4.060   4.419 -0.9559 -0.1134  1.8442
15895TIP3    H269177   1.542   4.084   4.519  1.2856 -0.1318 -0.5342
15896TIP3   OH269178   0.096   0.065  16.227 -0.1031  0.3143  0.1160
15896TIP3    H169179   0.111   0.003  16.156 -0.6030  0.8674 -0.4867
15896TIP3    H269180   0.001   0.076  16.230 -0.0223  1.0842  0.1783
15897TIP3   OH269181   4.012   0.180   0.025  0.4658 -0.0619 -0.2790
15897TIP3    H169182   4.064   0.121  -0.030  2.8121  2.2435 -0.6902
15897TIP3    H269183   4.076   0.234   0.071 -1.5157  0.2682  2.3508
15898TIP3   OH269184   2.567   0.561   2.156 -0.0664  0.0395 -0.0016
15898TIP3    H169185   2.541   0.585   2.067 -0.7893  2.2474  0.7386
15898TIP3    H269186   2.492   0.512   2.190  0.4843 -1.4160 -0.7721
15899TIP3   OH269187   2.932   1.024   2.145  0.4694  0.6091  0.3268
15899TIP3    H169188   2.960   1.059   2.230 -0.8661  3.0993 -0.1847
15899TIP3    H269189   2.836   1.027   2.149  0.3948  0.9094 -1.3305
15900TIP3   OH269190   2.253   2.754   1.837  0.2627 -0.0268  0.3067
15900TIP3    H169191   2.255   2.704   1.755  1.2267  1.0476 -0.3431
15900TIP3    H269192   2.163   2.743   1.868  0.0019 -0.8272 -0.6511
15901TIP3   OH269193   0.478   4.379   1.135 -0.4082 -0.3863  0.3308
15901TIP3    H169194   0.468   4.284   1.146 -0.2000 -0.2468  1.9918
15901TIP3    H269195   0.461   4.394   1.043  0.4377 -2.1543 -0.1633
15902TIP3   OH269196   2.213   5.206  17.201 -0.4675  0.1257 -0.0008
15902TIP3    H169197   2.120   5.201  17.176 -0.3840  0.8806 -0.5108
15902TIP3    H269198   2.242   5.291  17.166  0.0139  0.6014  1.5085
15903TIP3   OH269199   0.468   2.476   1.837 -0.7141 -0.1346  0.1289
15903TIP3    H169200   0.543   2.443   1.788 -1.2921  0.0616 -0.9170
15903TIP3    H269201   0.395   2.421   1.809 -1.3676  0.9895 -0.4319
15904TIP3   OH269202   5.628   5.758   1.918  0.6063  0.0029 -0.0134
15904TIP3    H169203   5.675   5.715   1.847 -2.6794  0.1646 -2.5474
15904TIP3    H269204   5.560   5.809   1.874 -1.8580 -0.1647  3.2249
15905TIP3   OH269205   2.372   3.531  15.097  0.2558 -0.4260 -0.1660
15905TIP3    H169206   2.279   3.508  15.100 -0.4424  2.0746  0.0862
15905TIP3    H269207   2.380   3.586  15.019  0.8604  1.6598  1.2739
15906TIP3   OH269208   2.210   2.258   2.078 -0.0703  0.0457 -0.1784
15906TIP3    H169209   2.179   2.338   2.119  0.1830  0.0759 -0.0456
15906TIP3    H269210   2.228   2.283   1.987  1.4723  0.5239  0.2338
15907TIP3   OH269211   4.739   5.807   5.686 -0.3690 -0.3992  0.1275
15907TIP3    H169212   4.743   5.712   5.680 -1.2138 -0.4143 -0.3285
15907TIP3    H269213   4.660   5.831   5.638 -0.0998  0.5435  0.1323
15908TIP3   OH269214   3.444   5.987   3.170 -0.3184 -0.0889  0.0500
15908TIP3    H169215   3.532   6.019   3.150 -0.8274  0.9617 -0.5853
15908TIP3    H269216   3.432   6.008   3.263  0.4719 -1.1883  0.4267
15909TIP3   OH269217   0.814   1.375   2.975  0.1054 -0.3976  0.3070
15909TIP3    H169218   0.876   1.334   2.916  0.1365 -0.8981  0.6854
15909TIP3    H269219   0.862   1.447   3.015  0.8049 -1.4517  1.4262
15910TIP3   OH269220   1.640   5.616  13.318 -0.3265  0.3137  0.0892
15910TIP3    H169221   1.678   5.626  13.405 -0.4004 -1.0745  0.3118
15910TIP3    H269222   1.545   5.622  13.333 -0.3160  0.7189  0.0011
15911TIP3   OH269223   2.582   2.755  10.854  0.7827 -0.8586 -0.5301
15911TIP3    H169224   2.587   2.730  10.946  1.1102  0.0454 -0.2939
15911TIP3    H269225   2.634   2.690  10.808  2.0063 -0.3795  0.1246
15912TIP3   OH269226   4.634   3.847  16.116 -0.0469 -0.4073 -0.5422
15912TIP3    H169227   4.576   3.922  16.127  0.9682  0.5291 -1.3825
15912TIP3    H269228   4.574   3.773  16.106 -1.0744 -0.0350  2.0085
15913TIP3   OH269229   2.073   4.551  11.398  0.1569 -0.5795  0.4332
15913TIP3    H169230   2.113   4.542  11.312 -1.4536  1.0719 -0.5588
15913TIP3    H269231   2.013   4.476  11.404  0.4492 -0.8323  0.2337
15914TIP3   OH269232   5.307   6.214   2.381 -0.0871 -0.7948  0.0827
15914TIP3    H169233   5.323   6.120   2.370 -0.1453 -0.5621 -2.6412
15914TIP3    H269234   5.392   6.255   2.365 -0.2601 -0.3258  0.3472
15915TIP3   OH269235   0.590   1.896   1.855  0.1587 -0.4474 -0.2392
15915TIP3    H169236   0.603   1.857   1.941  0.8185 -1.1572 -0.6578
15915TIP3    H269237   0.592   1.991   1.872 -2.8628 -0.4717  1.0133
15916TIP3   OH269238   5.445   6.745   4.104 -0.2220  0.0327  0.7502
15916TIP3    H169239   5.470   6.679   4.168 -2.0255 -2.5731 -1.0242
15916TIP3    H269240   5.423   6.695   4.025  1.0649  2.9807 -1.7021
15917TIP3   OH269241   2.507   4.841   4.328  0.8275 -0.5045 -0.1358
15917TIP3    H169242   2.550   4.923   4.350  0.2665 -0.3389  0.3539
15917TIP3    H269243   2.422   4.845   4.371 -0.8495  0.3706 -3.2215
15918TIP3   OH269244   0.690   5.588   2.742  0.2966  0.4113 -0.1597
15918TIP3    H169245   0.608   5.606   2.695 -0.6750  0.6693  1.5391
15918TIP3    H269246   0.732   5.519   2.691 -1.4328 -0.3847 -0.5881
15919TIP3   OH269247   6.347   1.104  16.112  0.9376 -0.5055 -0.6988
15919TIP3    H169248   6.435   1.115  16.149  0.6571  1.5203 -0.5250
15919TIP3    H269249   6.342   1.170  16.043 -1.0698  0.7792  0.5531
15920TIP3   OH269250   4.050   0.979   5.550  0.4198  0.1035  0.3727
15920TIP3    H169251   4.123   0.961   5.491  0.7739  0.8566  0.5683
15920TIP3    H269252   4.082   0.953   5.636 -0.0467 -0.8623  0.2698
15921TIP3   OH269253   6.669   2.396   2.619 -0.4840  0.6822  0.0521
15921TIP3    H169254   6.743   2.345   2.584 -0.1032  2.3168 -1.6525
15921TIP3    H269255   6.591   2.347   2.591 -0.1108  0.5802 -0.8546
15922TIP3   OH269256   4.336   4.130  12.296  0.3122 -0.3295  0.3147
15922TIP3    H169257   4.335   4.092  12.384  0.7185 -1.4595 -0.1482
15922TIP3    H269258   4.260   4.188  12.294  0.0439 -0.6327  1.2709
15923TIP3   OH269259   0.140   5.743  16.311  0.6817  0.7034  0.0238
15923TIP3    H169260   0.192   5.748  16.390 -1.3493 -1.3689  1.6274
15923TIP3    H269261   0.066   5.801  16.327 -0.4716 -0.7884  0.3216
15924TIP3   OH269262   2.126   3.715  11.762  0.5959  0.2830 -0.1531
15924TIP3    H169263   2.165   3.635  11.725  0.3359  0.6520 -1.2193
15924TIP3    H269264   2.126   3.698  11.857 -1.6293 -1.9853 -0.4577
15925TIP3   OH269265   3.259   0.477   3.022 -0.0341  0.0700 -0.5421
15925TIP3    H169266   3.342   0.430   3.027  0.9834  1.8414  0.2855
15925TIP3    H269267   3.276   0.560   3.066 -2.4928  0.1638  0.3793
15926TIP3   OH269268   1.153   1.681  16.831 -0.3914 -0.1307 -0.0890
15926TIP3    H169269   1.084   1.747  16.830 -2.1765 -1.8840 -0.2645
15926TIP3    H269270   1.207   1.701  16.755 -0.6264  1.3638  0.1205
15927TIP3   OH269271   3.499   4.388  12.185 -0.2425  0.2391 -0.1590
15927TIP3    H169272   3.454   4.305  12.202  1.1604 -0.6099 -0.4630
15927TIP3    H269273   3.544   4.408  12.267  0.2952  0.1263 -0.4215
15928TIP3   OH269274   3.840   4.620  11.407 -0.5211 -0.7366 -0.0671
15928TIP3    H169275   3.784   4.601  11.482  0.8447 -2.7399  0.5409
15928TIP3    H269276   3.807   4.703  11.372 -2.3145 -0.6547  1.6613
15929TIP3   OH269277   4.002   4.048   3.887  0.3618  0.2496 -0.3365
15929TIP3    H169278   4.076   4.021   3.941  0.1568  0.6475  0.1484
15929TIP3    H269279   3.943   3.972   3.890 -0.3362  0.8083  1.2503
15930TIP3   OH269280   5.029   2.590   3.708  0.1579 -0.6010 -0.1082
15930TIP3    H169281   4.950   2.626   3.667  0.0162 -1.4974 -0.6434
15930TIP3    H269282   5.044   2.647   3.784 -1.0335 -0.4473  0.0375
15931TIP3   OH269283   0.907   5.332   5.276 -0.2414  0.3378 -0.4173
15931TIP3    H169284   0.946   5.372   5.198  0.8882  0.6217  0.2615
15931TIP3    H269285   0.949   5.246   5.282  0.3028  0.6385  0.3132
15932TIP3   OH269286   3.761   4.792  15.136 -0.1308 -0.4641 -0.7174
15932TIP3    H169287   3.806   4.720  15.091  0.2603 -0.3179 -0.5707
15932TIP3    H269288   3.703   4.749  15.198  0.2329 -0.6563 -0.5039
15933TIP3   OH269289   2.785   4.678   4.294 -0.4166  0.2526  0.5838
15933TIP3    H169290   2.775   4.685   4.199 -0.8174 -0.7997  0.5367
15933TIP3    H269291   2.765   4.766   4.327 -2.0297  0.2166 -0.1731
15934TIP3   OH269292   3.137   5.647  12.205  0.3139  0.2152  0.6011
15934TIP3    H169293   3.103   5.732  12.177  0.8393 -0.3444 -1.9918
15934TIP3    H269294   3.075   5.617  12.272 -0.3471  2.2351  0.9587
15935TIP3   OH269295   5.641   2.772  12.855  0.5141 -0.6770  0.6105
15935TIP3    H169296   5.688   2.849  12.821  1.2839 -1.0927  0.7045
15935TIP3    H269297   5.694   2.743  12.929 -0.1155 -0.9297  0.9660
15936TIP3   OH269298   5.895   1.588  17.050 -0.0753  0.5335 -0.0464
15936TIP3    H169299   5.814   1.631  17.024  1.0023  3.1613  0.6443
15936TIP3    H269300   5.895   1.592  17.146  0.6522  0.1072 -0.0187
15937TIP3   OH269301   3.357   6.394  10.854 -0.0328  0.1713  0.1405
15937TIP3    H169302   3.276   6.428  10.817 -1.3160 -1.9253  0.8688
15937TIP3    H269303   3.382   6.458  10.921 -1.4613  0.5312  0.3648
15938TIP3   OH269304   3.052   4.086  14.143  0.2435  0.3530  0.2579
15938TIP3    H169305   2.999   4.165  14.133  1.7226  1.8407  3.1145
15938TIP3    H269306   3.114   4.107  14.213  2.0347 -2.6627 -0.2542
15939TIP3   OH269307   1.265   2.584   5.431  0.4369 -0.9302  0.7413
15939TIP3    H169308   1.302   2.496   5.425  0.3439 -1.1372  2.5620
15939TIP3    H269309   1.215   2.583   5.513 -0.4628  0.4975  0.2428
15940TIP3   OH269310   5.828   0.041   1.815 -0.7448 -0.5351 -0.7516
15940TIP3    H169311   5.859   0.112   1.759  3.1612 -0.9972  0.5409
15940TIP3    H269312   5.810   0.084   1.899  2.8278 -1.0399  0.4171
15941TIP3   OH269313   4.677   2.549   6.096  1.0394  0.4896  0.3243
15941TIP3    H169314   4.766   2.568   6.068  0.6973  0.9796 -0.4857
15941TIP3    H269315   4.641   2.634   6.123 -0.2839  1.0117 -2.6753
15942TIP3   OH269316   2.060   1.647   3.483 -0.5484  0.3185  0.1624
15942TIP3    H169317   2.039   1.673   3.573 -0.1775 -0.8935  0.6242
15942TIP3    H269318   1.975   1.641   3.439 -0.8688 -0.5437  0.8631
15943TIP3   OH269319   5.269   6.799   6.104  0.3088 -0.4440  0.2160
15943TIP3    H169320   5.290   6.710   6.130 -2.1057 -1.0791  0.2092
15943TIP3    H269321   5.217   6.834   6.176  2.4468  1.5728  0.9270
15944TIP3   OH269322   5.516   1.312  15.600  0.2272  0.3817 -0.2008
15944TIP3    H169323   5.537   1.240  15.659  0.0327  1.1379  0.8244
15944TIP3    H269324   5.482   1.270  15.521 -0.1890 -0.6286  0.4973
15945TIP3   OH269325   2.455   0.640   5.761  0.2154 -0.4903 -0.0285
15945TIP3    H169326   2.381   0.679   5.809  0.6663  1.1071 -0.5738
15945TIP3    H269327   2.532   0.668   5.810  0.7290  1.6127 -1.8712
15946TIP3   OH269328   1.540   3.281  16.929  0.2165  0.1701 -0.0313
15946TIP3    H169329   1.467   3.220  16.936 -1.7800  2.4498  0.4320
15946TIP3    H269330   1.539   3.310  16.838  0.8566 -0.1319 -0.1405
15947TIP3   OH269331   2.565   4.650   0.341  0.4047 -0.2958 -0.2478
15947TIP3    H169332   2.572   4.687   0.429 -0.2484 -2.0292  0.5883
15947TIP3    H269333   2.515   4.716   0.292  0.1774  0.4044  0.8646
15948TIP3   OH269334   4.518   1.733   3.004  0.0911  0.1795  0.0949
15948TIP3    H169335   4.519   1.819   3.046 -0.6840  1.3330 -2.1251
15948TIP3    H269336   4.610   1.704   3.006  0.2218  0.6173  1.6521
15949TIP3   OH269337   2.040   0.986  16.928  0.6097  1.0231  0.4325
15949TIP3    H169338   2.043   0.896  16.961  0.1292 -0.1522 -2.3728
15949TIP3    H269339   2.043   1.041  17.006 -2.4200 -1.4443  2.5608
15950TIP3   OH269340   4.690   2.479   3.723  0.2588 -0.3985  0.2171
15950TIP3    H169341   4.724   2.438   3.802 -0.0977 -0.5243  0.3083
15950TIP3    H269342   4.691   2.409   3.658 -1.0395 -0.7692  0.5688
15951TIP3   OH269343   0.653   6.123   0.113 -0.5181 -0.0814 -0.2100
15951TIP3    H169344   0.660   6.046   0.170  2.0053 -0.6306 -1.1722
15951TIP3    H269345   0.600   6.093   0.039  0.5839 -0.9739 -0.6572
15952TIP3   OH269346   5.182   5.144   3.722 -0.2488  0.2648 -0.1153
15952TIP3    H169347   5.107   5.100   3.763  1.3809 -1.5099  1.1186
15952TIP3    H269348   5.183   5.231   3.761 -0.3968 -0.4365  1.5318
15953TIP3   OH269349   3.055   6.420   3.277 -0.8932  0.1541 -0.0508
15953TIP3    H169350   3.098   6.339   3.248  1.0515  0.4377  1.7225
15953TIP3    H269351   3.094   6.489   3.222  1.1210  0.4150  1.5801
15954TIP3   OH269352   4.498   1.918   3.825 -0.3579 -0.5056  0.0549
15954TIP3    H169353   4.442   1.923   3.902 -0.9545 -1.3276 -0.3194
15954TIP3    H269354   4.538   1.831   3.828  0.7845  0.0047  0.2286
15955TIP3   OH269355   2.449   4.633   5.024 -0.3820 -0.4324  0.6707
15955TIP3    H169356   2.466   4.661   5.113 -0.3502  1.1105  0.1982
15955TIP3    H269357   2.526   4.660   4.974 -2.3414  3.2535 -0.7499
15956TIP3   OH269358   6.034   2.513  12.987  0.7072 -0.2658  0.0013
15956TIP3    H169359   6.052   2.439  12.929  0.8647 -1.3431  1.3956
15956TIP3    H269360   6.085   2.585  12.949  0.9820 -0.9859 -1.0658
15957TIP3   OH269361   0.891   4.465   1.811 -0.1050 -0.0140  0.3762
15957TIP3    H169362   0.957   4.421   1.758 -0.2130  0.1343  0.1210
15957TIP3    H269363   0.879   4.550   1.770  0.3583  0.4050  1.0725
15958TIP3   OH269364   1.577   4.674   3.918  0.4427  0.6648  0.2293
15958TIP3    H169365   1.581   4.761   3.958  2.2718  1.8555 -2.2475
15958TIP3    H269366   1.647   4.625   3.961  0.2851  0.8385  0.6962
15959TIP3   OH269367   4.795   0.003  15.671 -0.7440 -0.1059 -0.1145
15959TIP3    H169368   4.701   0.018  15.657 -0.6780  0.4906  0.0568
15959TIP3    H269369   4.823   0.075  15.727 -0.0601  0.0435 -0.6297
15960TIP3   OH269370   5.320   4.183  13.520  0.0046  0.0867  0.2575
15960TIP3    H169371   5.242   4.221  13.562 -0.0057  1.0247 -0.5696
15960TIP3    H269372   5.373   4.259  13.496  0.0236 -0.4038 -1.3847
15961TIP3   OH269373   6.599   1.846   4.293 -0.3074 -0.3473 -0.6981
15961TIP3    H169374   6.646   1.808   4.367 -1.0267  0.8257  0.4007
15961TIP3    H269375   6.665   1.895   4.245  0.1386 -1.0196 -0.7882
15962TIP3   OH269376   0.795   6.610  17.208  0.0820 -0.2009  0.2893
15962TIP3    H169377   0.805   6.575  17.119 -0.3489 -1.9465  0.8898
15962TIP3    H269378   0.875   6.660  17.223  1.4717 -2.1964 -0.1041
15963TIP3   OH269379   1.073   1.645   0.970 -0.8501  0.0360 -0.3166
15963TIP3    H169380   1.110   1.702   0.902  3.5631  1.3616  2.7185
15963TIP3    H269381   1.121   1.563   0.961  0.2515  0.4388  1.4059
15964TIP3   OH269382   0.138   0.334  14.924 -0.5442  0.1661 -0.1226
15964TIP3    H169383   0.093   0.416  14.904 -0.8480 -0.0632 -0.3904
15964TIP3    H269384   0.228   0.348  14.894 -0.8521  0.0255 -1.1700
15965TIP3   OH269385   4.697   1.756   2.362 -0.4194  0.5358  0.2582
15965TIP3    H169386   4.642   1.678   2.355  0.8103 -0.4802  1.2008
15965TIP3    H269387   4.786   1.723   2.347  0.0318  1.9454 -0.2841
15966TIP3   OH269388   6.363   6.010   6.324 -0.1134 -0.1197  0.3397
15966TIP3    H169389   6.435   6.054   6.369 -0.2744 -0.6713  1.1479
15966TIP3    H269390   6.402   5.972   6.245  0.6028 -0.9166  1.0717
15967TIP3   OH269391   5.295   3.253   1.514 -0.1175  0.6476  0.4729
15967TIP3    H169392   5.390   3.258   1.505  0.0374 -0.8860  1.0407
15967TIP3    H269393   5.281   3.189   1.583 -1.5957  0.0442 -0.3572
15968TIP3   OH269394   0.585   0.463   3.125  0.4394  0.0475  0.1157
15968TIP3    H169395   0.609   0.474   3.217 -0.4307 -0.1792  0.3821
15968TIP3    H269396   0.548   0.374   3.120  0.6050  0.0067 -0.4785
15969TIP3   OH269397   4.532   6.369   3.903  0.3240  0.2098  0.5597
15969TIP3    H169398   4.489   6.445   3.865  1.6963  0.0181 -1.6337
15969TIP3    H269399   4.556   6.395   3.992 -0.4098  1.8468  0.3008
15970TIP3   OH269400   5.986   4.979  16.704 -0.2546 -0.2279  0.6174
15970TIP3    H169401   5.975   4.885  16.717 -2.4334 -0.2054 -0.5559
15970TIP3    H269402   5.919   5.019  16.759  0.3532  0.6146  0.7581
15971TIP3   OH269403   3.897   4.946   4.268 -0.4608  0.2816 -0.5318
15971TIP3    H169404   3.943   4.979   4.191  0.8064 -1.1598 -0.4433
15971TIP3    H269405   3.927   4.856   4.277 -0.0921  0.5903  2.0094
15972TIP3   OH269406   2.681   0.222  14.907 -0.1562  0.0956  0.0515
15972TIP3    H169407   2.636   0.162  14.967 -0.2377  0.2524  0.1460
15972TIP3    H269408   2.612   0.275  14.869 -0.0051  0.6751  0.5708
15973TIP3   OH269409   5.337   5.503  12.589  0.6086  0.5829 -0.4461
15973TIP3    H169410   5.368   5.446  12.519 -0.3712 -0.0838 -0.3465
15973TIP3    H269411   5.297   5.577  12.543 -0.8910 -0.3087 -0.6343
15974TIP3   OH269412   0.752   5.758   6.516 -0.1080  0.4558 -0.9330
15974TIP3    H169413   0.685   5.817   6.552  0.9876 -0.2734  2.7801
15974TIP3    H269414   0.713   5.671   6.522  0.5011  0.2116 -0.4301
15975TIP3   OH269415   6.563   3.794  15.645 -0.1829  0.0915  0.2507
15975TIP3    H169416   6.472   3.765  15.657 -0.5362  1.2592  0.5034
15975TIP3    H269417   6.574   3.866  15.707  1.4657 -1.1396  1.4717
15976TIP3   OH269418   6.346   2.394  13.778 -0.4070 -0.1192 -0.3359
15976TIP3    H169419   6.414   2.436  13.727  0.1323  0.5409  0.8773
15976TIP3    H269420   6.276   2.375  13.715  0.3479  0.3890 -1.3501
15977TIP3   OH269421   0.575   1.988   2.555  0.8277  0.5035  0.6587
15977TIP3    H169422   0.549   2.033   2.474  0.1017  0.8402  1.0616
15977TIP3    H269423   0.492   1.975   2.602  1.2098  0.0544  1.2129
15978TIP3   OH269424   1.431   5.729   1.224  0.3070  0.3556  0.5783
15978TIP3    H169425   1.496   5.796   1.205  2.3330 -2.0199 -1.5871
15978TIP3    H269426   1.365   5.739   1.155  1.9368 -1.3333 -1.3499
15979TIP3   OH269427   5.082   2.045   3.213 -0.0375  0.4481  0.2816
15979TIP3    H169428   5.137   2.108   3.166 -0.1973  0.0173 -0.4972
15979TIP3    H269429   5.143   1.983   3.251  0.0064 -0.4764 -1.2278
15980TIP3   OH269430   6.312   5.418   0.114  0.5406 -0.0648 -0.5094
15980TIP3    H169431   6.361   5.500   0.112  1.6123 -0.7003 -1.3465
15980TIP3    H269432   6.226   5.441   0.079  1.0536  0.5710 -1.4068
15981TIP3   OH269433   6.098   5.021   2.904  0.3595 -0.1089  0.7391
15981TIP3    H169434   6.189   5.044   2.886  0.7831 -1.5088  1.0165
15981TIP3    H269435   6.071   5.083   2.972  1.2379  0.0305  0.9663
15982TIP3   OH269436   2.097   0.428   3.577  0.2769  0.2029  0.0025
15982TIP3    H169437   2.131   0.471   3.499 -1.2432 -0.5957 -1.1411
15982TIP3    H269438   2.143   0.471   3.650  2.0319  0.6849 -1.3156
15983TIP3   OH269439   0.133   6.580  16.960  0.0228  0.0196 -0.0149
15983TIP3    H169440   0.187   6.520  16.908 -0.0969 -0.1889  0.0976
15983TIP3    H269441   0.159   6.563  17.051  1.5347  1.6670 -0.0940
15984TIP3   OH269442   1.921   1.250  12.839 -0.6393 -0.0741  0.1849
15984TIP3    H169443   1.990   1.297  12.886 -0.3638  1.1560 -1.3882
15984TIP3    H269444   1.960   1.165  12.819 -0.2109 -0.0347  0.8079
15985TIP3   OH269445   6.180   5.049  15.424  0.2024  0.1954  0.1841
15985TIP3    H169446   6.089   5.057  15.454  0.6010  2.0218  1.0793
15985TIP3    H269447   6.206   4.960  15.450 -1.1798 -0.1859  0.3369
15986TIP3   OH269448   0.277   6.057  11.424 -0.0638 -0.3539 -0.6733
15986TIP3    H169449   0.361   6.012  11.420 -0.1552 -0.5701 -0.1985
15986TIP3    H269450   0.280   6.121  11.352  0.3758 -0.5771 -0.8531
15987TIP3   OH269451   3.564   3.827   0.900  0.0435 -0.2599  0.3885
15987TIP3    H169452   3.540   3.735   0.912 -1.3202 -0.0840 -0.6685
15987TIP3    H269453   3.493   3.876   0.943 -0.3694  0.2824 -0.8489
15988TIP3   OH269454   5.712   0.906   3.716 -0.5905  0.5508  0.2258
15988TIP3    H169455   5.803   0.885   3.695 -1.1156 -0.6571 -0.9536
15988TIP3    H269456   5.685   0.837   3.777 -0.3122  1.7399  1.7683
15989TIP3   OH269457   2.233   1.625   4.872  0.0774  0.4577 -0.5176
15989TIP3    H169458   2.183   1.696   4.832  0.2355  2.6429  2.7911
15989TIP3    H269459   2.169   1.557   4.890 -0.5637  0.7758 -1.5503
15990TIP3   OH269460   0.674   2.994  15.039  0.4996  0.4198 -0.3020
15990TIP3    H169461   0.686   3.060  15.107  0.7350  0.8031 -0.7040
15990TIP3    H269462   0.581   2.994  15.020  0.0453 -1.2385  1.5336
15991TIP3   OH269463   5.417   2.835  13.520  0.4114 -0.3214 -0.0006
15991TIP3    H169464   5.329   2.823  13.485  0.3682 -0.2988  0.1013
15991TIP3    H269465   5.434   2.755  13.571  0.9259 -0.8923 -1.0253
15992TIP3   OH269466   4.727   2.058   4.446 -0.0020  0.1351  0.6616
15992TIP3    H169467   4.720   2.150   4.423  1.2251 -0.4246 -2.2982
15992TIP3    H269468   4.664   2.014   4.389  2.6162 -1.2554 -1.3573
15993TIP3   OH269469   4.053   3.123   0.206 -0.7525 -0.5512  0.0976
15993TIP3    H169470   4.048   3.123   0.111  1.3424 -0.2503 -0.0715
15993TIP3    H269471   3.990   3.189   0.234 -0.5037  0.2398 -1.1649
15994TIP3   OH269472   4.701   2.497  14.021 -0.0368 -0.1727 -0.0729
15994TIP3    H169473   4.639   2.488  13.948 -0.9208  1.2829  0.4484
15994TIP3    H269474   4.655   2.553  14.083  0.4781 -1.7942  1.8575
15995TIP3   OH269475   1.211   3.076   2.880  0.2103  0.1430  0.2323
15995TIP3    H169476   1.127   3.107   2.914 -0.5887 -1.7782  0.1565
15995TIP3    H269477   1.209   3.099   2.787  0.4311  1.3831  0.5139
15996TIP3   OH269478   5.247   6.752   4.445 -0.2110  0.2056 -0.3674
15996TIP3    H169479   5.312   6.819   4.424  0.8412 -0.9977 -1.1287
15996TIP3    H269480   5.265   6.729   4.536 -1.3217  1.7005  0.2803
15997TIP3   OH269481   4.464   1.841  12.335  0.1666  0.2730 -0.5203
15997TIP3    H169482   4.388   1.861  12.391 -1.5847 -0.6653 -2.4569
15997TIP3    H269483   4.430   1.846  12.246  2.9311  1.9617 -1.6066
15998TIP3   OH269484   3.455   6.508  17.176  0.0751  0.6502  0.0050
15998TIP3    H169485   3.444   6.597  17.211 -2.8866  1.9731 -3.6080
15998TIP3    H269486   3.549   6.495  17.174  0.5588  2.6120  2.9149
15999TIP3   OH269487   4.230   5.689  13.126 -0.2966 -0.0894  0.2211
15999TIP3    H169488   4.225   5.596  13.149 -0.7943 -0.3243 -0.7841
15999TIP3    H269489   4.323   5.709  13.131 -0.4173  0.3438  4.0545
16000TIP3   OH269490   3.039   2.992  12.488  0.5560 -0.3482  0.1917
16000TIP3    H169491   3.058   2.993  12.395  0.2455  1.7488  0.1201
16000TIP3    H269492   2.963   3.049  12.498 -1.1878 -2.6853  1.4101
16001TIP3   OH269493   5.585   1.146   1.299 -0.3912 -0.7473  1.1951
16001TIP3    H169494   5.655   1.117   1.240 -0.7757 -0.8567  0.7851
16001TIP3    H269495   5.559   1.067   1.346 -1.1736 -1.0017  0.3564
16002TIP3   OH269496   4.902   0.366  17.138  0.1024  0.0921  0.2702
16002TIP3    H169497   4.852   0.334  17.213  0.0058 -0.1471  0.1050
16002TIP3    H269498   4.958   0.435  17.174 -0.5251  0.5388  0.4127
16003TIP3   OH269499   2.270   3.211  11.727  0.0110  0.1589  0.0364
16003TIP3    H169500   2.323   3.132  11.719  0.0298  0.1276  0.4616
16003TIP3    H269501   2.217   3.197  11.805 -0.5762  0.2194 -0.3430
16004TIP3   OH269502   2.583   5.339   5.131  0.2601  0.5439  0.0438
16004TIP3    H169503   2.572   5.433   5.147  1.3492  0.3171  2.5679
16004TIP3    H269504   2.633   5.308   5.206  1.6458 -1.7304 -1.7088
16005TIP3   OH269505   2.040   3.724   6.751  0.4605  0.1341 -0.0301
16005TIP3    H169506   1.944   3.731   6.744  0.3604  0.8955  1.6108
16005TIP3    H269507   2.060   3.638   6.714 -0.9267 -0.3075  0.1632
16006TIP3   OH269508   0.866   6.496  12.250 -0.0723 -0.1104  0.0491
16006TIP3    H169509   0.877   6.554  12.325 -0.9023 -0.4870  0.4822
16006TIP3    H269510   0.930   6.526  12.186  0.1128  0.7142  0.6098
16007TIP3   OH269511   5.810   2.294  12.460  0.4098 -0.4973 -0.0398
16007TIP3    H169512   5.716   2.311  12.452  0.2431 -1.7551 -1.0826
16007TIP3    H269513   5.851   2.378  12.443 -0.5432  0.8857  3.5110
16008TIP3   OH269514   1.271   5.076  13.516 -0.2671  0.5128 -0.0671
16008TIP3    H169515   1.323   4.997  13.501  1.6336  1.6742 -0.0100
16008TIP3    H269516   1.220   5.057  13.594  0.2442 -0.6021  0.0168
16009TIP3   OH269517   2.043   5.644   0.059  0.2607 -0.1921 -0.0685
16009TIP3    H169518   2.044   5.713   0.126 -1.0594  0.3567 -0.5821
16009TIP3    H269519   2.089   5.682  -0.016 -0.0512 -0.0485 -0.1867
16010TIP3   OH269520   3.314   0.273   4.429 -0.0021  0.0958 -0.0176
16010TIP3    H169521   3.248   0.219   4.385  0.1172  0.0383 -0.1269
16010TIP3    H269522   3.393   0.262   4.377  0.0635  0.2593  0.0447
16011TIP3   OH269523   4.528   1.133   1.839  0.2521 -0.1529  0.8759
16011TIP3    H169524   4.563   1.199   1.900  0.4741 -0.1692  0.7657
16011TIP3    H269525   4.494   1.184   1.766  2.4458 -0.2406 -0.2771
16012TIP3   OH269526   3.660   3.503   3.394  0.0971 -0.1359 -0.4972
16012TIP3    H169527   3.618   3.534   3.314 -1.8838  0.4264  0.6754
16012TIP3    H269528   3.642   3.409   3.395  0.9529 -0.3138 -1.1587
16013TIP3   OH269529   5.359   1.846  15.304 -0.4539  0.2913  0.3823
16013TIP3    H169530   5.409   1.797  15.239 -1.0023 -1.5743  1.2759
16013TIP3    H269531   5.305   1.780  15.347 -0.1592  1.4450  2.7016
16014TIP3   OH269532   3.722   4.490  16.425 -0.1100 -0.1864 -0.1456
16014TIP3    H169533   3.671   4.438  16.486 -0.0415 -0.0162  0.0607
16014TIP3    H269534   3.809   4.494  16.464 -0.4851  1.3343  0.6143
16015TIP3   OH269535   1.030   1.598   2.990 -0.3437 -0.3927 -0.5470
16015TIP3    H169536   1.045   1.565   2.901  0.8096  0.2238 -0.5996
16015TIP3    H269537   1.044   1.523   3.047 -1.6969 -0.9485 -0.8998
16016TIP3   OH269538   1.211   6.246   3.523  0.6192 -0.2062  0.5017
16016TIP3    H169539   1.225   6.247   3.428  2.2913 -1.6804  0.6732
16016TIP3    H269540   1.134   6.300   3.536 -0.0270 -0.4583 -1.7607
16017TIP3   OH269541   4.736   4.737  13.248  0.2287  0.1791  0.4316
16017TIP3    H169542   4.705   4.781  13.327 -0.9875 -1.6073  0.9913
16017TIP3    H269543   4.799   4.672  13.279  1.2576  0.7822 -0.2956
16018TIP3   OH269544   5.940   1.258  16.686 -0.0690 -0.3019  0.0224
16018TIP3    H169545   6.035   1.263  16.685 -0.0756  0.3815  1.0722
16018TIP3    H269546   5.917   1.255  16.779 -0.9502 -3.3684 -0.1608
16019TIP3   OH269547   1.137   2.208  15.933 -0.3096 -0.1266 -0.0241
16019TIP3    H169548   1.224   2.220  15.969 -0.1585 -0.0523 -0.4045
16019TIP3    H269549   1.086   2.168  16.003 -0.0364  0.0602  0.2812
16020TIP3   OH269550   6.749   4.044  11.717  0.5166  0.0192  0.6210
16020TIP3    H169551   6.729   4.111  11.651  1.4106  0.7535  1.0611
16020TIP3    H269552   6.705   4.075  11.796 -2.4022 -1.9573 -0.0546
16021TIP3   OH269553   3.712   4.458   3.250 -0.1789 -0.7444  0.3873
16021TIP3    H169554   3.707   4.388   3.315  1.8243 -0.7742  0.5443
16021TIP3    H269555   3.780   4.517   3.282 -3.1174  2.4796  1.3161
16022TIP3   OH269556   5.266   5.452  11.494 -0.1011  0.0911 -0.5086
16022TIP3    H169557   5.284   5.409  11.577 -1.3959  1.2425  0.4147
16022TIP3    H269558   5.272   5.382  11.428 -0.3149 -1.0911  0.6947
16023TIP3   OH269559   4.519   2.137  16.189  0.0179  0.4253 -0.3842
16023TIP3    H169560   4.594   2.098  16.144  0.2410  0.9540 -0.4837
16023TIP3    H269561   4.443   2.104  16.142  0.1882 -0.1275 -0.2743
16024TIP3   OH269562   2.502   3.128   3.564  0.0154  0.4992 -0.2421
16024TIP3    H169563   2.583   3.177   3.553  0.0763  0.9135  1.6927
16024TIP3    H269564   2.488   3.085   3.480  1.7049  1.2202 -0.9278
16025TIP3   OH269565   2.054   5.963  13.363 -0.0625 -0.0291 -0.0927
16025TIP3    H169566   1.965   5.928  13.371  0.5279 -1.6789 -0.3960
16025TIP3    H269567   2.104   5.918  13.430  0.5343  0.9963  0.1767
16026TIP3   OH269568   5.514   3.324   2.448  0.0394 -0.2464 -0.3438
16026TIP3    H169569   5.529   3.231   2.465  3.5512  0.3266  0.4159
16026TIP3    H269570   5.586   3.350   2.390 -0.7573  2.0536 -0.4035
16027TIP3   OH269571   5.225   6.266   2.634  0.4004  0.1395  0.5855
16027TIP3    H169572   5.191   6.355   2.635  0.7975  0.2904  1.0920
16027TIP3    H269573   5.222   6.241   2.541  0.2773  0.6735  0.4392
16028TIP3   OH269574   2.360   0.548   5.050 -0.2636 -0.3028  0.3055
16028TIP3    H169575   2.320   0.603   5.118 -0.9287  0.0973 -0.3908
16028TIP3    H269576   2.429   0.500   5.096 -0.0407  0.6883  1.0625
16029TIP3   OH269577   5.876   3.273   6.891 -0.1912 -0.5106  0.4530
16029TIP3    H169578   5.875   3.210   6.964 -1.8539 -1.4867 -0.3681
16029TIP3    H269579   5.920   3.226   6.820  1.4844  0.4646  0.7897
16030TIP3   OH269580   2.721   3.337  14.463 -0.0421 -0.3220  0.0275
16030TIP3    H169581   2.717   3.427  14.494 -1.2147 -0.3123 -0.1210
16030TIP3    H269582   2.729   3.284  14.542 -1.0157 -0.1760  0.2336
16031TIP3   OH269583   0.035   5.790   5.857 -0.3698  0.0240  0.3637
16031TIP3    H169584   0.019   5.769   5.949  0.5200 -0.3283  0.4503
16031TIP3    H269585   0.090   5.719   5.825 -1.3264 -0.2830 -0.6725
16032TIP3   OH269586   4.138   0.170  16.947 -0.2309 -0.4331 -0.5576
16032TIP3    H169587   4.179   0.225  17.014  1.0105  0.0657 -1.6670
16032TIP3    H269588   4.166   0.081  16.968 -0.4623 -0.3788 -0.0018
16033TIP3   OH269589   3.087   3.586  16.042  0.2500  0.3458  0.7678
16033TIP3    H169590   3.109   3.661  16.097 -1.7417 -0.3029  2.5395
16033TIP3    H269591   3.151   3.519  16.066  0.9747  0.8927  0.4052
16034TIP3   OH269592   2.593   6.517  16.033 -0.1451 -0.1673  0.3165
16034TIP3    H169593   2.505   6.480  16.024  0.4242 -1.3176 -0.6974
16034TIP3    H269594   2.619   6.494  16.123 -0.7133 -0.1692  0.4861
16035TIP3   OH269595   5.502   1.005  13.674 -0.3747 -0.1668  0.1740
16035TIP3    H169596   5.585   0.962  13.657 -1.7457 -1.7579 -3.4796
16035TIP3    H269597   5.523   1.099  13.674  1.4530 -0.5333 -0.4638
16036TIP3   OH269598   3.976   5.654  13.489 -0.1187 -0.4047 -0.4556
16036TIP3    H169599   3.949   5.741  13.462 -1.5412 -1.2824 -2.1060
16036TIP3    H269600   4.059   5.667  13.535 -0.3079  1.7893 -0.6498
16037TIP3   OH269601   1.167   4.394  12.554 -0.3825 -0.3612 -0.2098
16037TIP3    H169602   1.178   4.479  12.596 -0.2158 -0.3440 -0.2837
16037TIP3    H269603   1.171   4.413  12.460  3.8654 -0.9005 -0.3296
16038TIP3   OH269604   5.145   3.172  15.653 -0.4842  0.2893 -0.2292
16038TIP3    H169605   5.163   3.096  15.708  0.4420 -0.2553 -1.2392
16038TIP3    H269606   5.222   3.181  15.598 -1.2128  1.0427 -1.1706
16039TIP3   OH269607   3.447   3.620  15.021 -0.4217  0.6820  0.2305
16039TIP3    H169608   3.508   3.619  15.095 -1.2277  0.2152  0.9154
16039TIP3    H269609   3.367   3.580  15.056 -1.1715  1.4168 -0.6038
16040TIP3   OH269610   4.163   2.934  16.409 -0.5078  0.0856 -0.4822
16040TIP3    H169611   4.089   2.994  16.406 -0.7402 -0.0823  1.1390
16040TIP3    H269612   4.235   2.986  16.443 -0.0356  0.0681 -1.4168
16041TIP3   OH269613   4.594   1.086   2.500  0.2903  0.6752  0.0540
16041TIP3    H169614   4.651   1.045   2.565 -0.6389  0.2972  0.6505
16041TIP3    H269615   4.518   1.116   2.550  0.1037  1.4508 -0.6750
16042TIP3   OH269616   5.794   6.630  16.311 -0.2439 -0.1641 -0.2756
16042TIP3    H169617   5.728   6.607  16.376 -0.3204  0.1558 -0.2386
16042TIP3    H269618   5.876   6.599  16.349 -0.1874  0.6828  0.3225
16043TIP3   OH269619   6.074   6.072  17.117 -0.2210 -0.1540 -0.2265
16043TIP3    H169620   6.137   6.093  17.049 -1.1689  1.2652 -0.7221
16043TIP3    H269621   6.012   6.012  17.075 -1.2334  1.3060 -0.9056
16044TIP3   OH269622   0.553   5.166   5.077  0.8444 -0.1219  0.2225
16044TIP3    H169623   0.483   5.193   5.017 -0.3661 -2.3582  0.4942
16044TIP3    H269624   0.556   5.235   5.143 -2.3403 -0.7037  1.1420
16045TIP3   OH269625   5.126   5.436  16.899  0.2764 -0.1292  0.1576
16045TIP3    H169626   5.053   5.378  16.878 -0.1197  1.0976 -2.2684
16045TIP3    H269627   5.202   5.395  16.856  0.4787 -0.0801  0.4664
16046TIP3   OH269628   6.407   2.033  14.192  0.2358  0.4846  0.5408
16046TIP3    H169629   6.352   2.109  14.171  0.6808  0.8622  0.7282
16046TIP3    H269630   6.380   1.966  14.129 -0.7548  0.5155  0.9111
16047TIP3   OH269631   1.884   1.509   1.541 -0.1571 -0.0284 -0.3483
16047TIP3    H169632   1.897   1.427   1.589  0.7375  0.2715 -0.0459
16047TIP3    H269633   1.972   1.547   1.535 -0.2697  0.0623 -2.0299
16048TIP3   OH269634   6.188   4.531   5.595 -0.1239 -0.2378 -0.1413
16048TIP3    H169635   6.116   4.559   5.652  1.2250  0.8679  1.1003
16048TIP3    H269636   6.193   4.599   5.528  0.5783  0.4254  0.5527
16049TIP3   OH269637   2.774   0.941   1.731 -0.2399  0.1822 -0.3206
16049TIP3    H169638   2.736   1.028   1.739 -0.3241  0.0658  0.6838
16049TIP3    H269639   2.735   0.891   1.803 -0.3388 -0.7400 -0.9928
16050TIP3   OH269640   2.326   1.450  14.670 -0.3139 -0.0650 -0.4173
16050TIP3    H169641   2.314   1.355  14.670 -0.3304 -0.1468  2.3280
16050TIP3    H269642   2.243   1.486  14.700 -0.3116  0.8470 -1.4241
16051TIP3   OH269643   6.553   1.369   1.622 -0.4202 -0.2413 -0.5669
16051TIP3    H169644   6.560   1.304   1.692  0.2766  0.3084 -0.1169
16051TIP3    H269645   6.525   1.318   1.546 -2.1258 -0.7071  0.3186
16052TIP3   OH269646   1.307   3.576  13.580 -0.0012  0.2243  0.1412
16052TIP3    H169647   1.350   3.493  13.558  1.8262  1.4106 -1.1487
16052TIP3    H269648   1.332   3.593  13.671 -0.1110 -0.4808  0.3032
16053TIP3   OH269649   4.838   1.906  14.744 -1.0018 -0.0384  0.2460
16053TIP3    H169650   4.872   1.818  14.755 -2.2759 -0.5802  0.0474
16053TIP3    H269651   4.901   1.962  14.790 -1.7573 -1.3573  3.1302
16054TIP3   OH269652   4.419   0.811  15.869  0.3169  0.0756  0.1891
16054TIP3    H169653   4.436   0.888  15.923  3.7737 -0.4282  0.0429
16054TIP3    H269654   4.421   0.738  15.930 -2.0244 -0.0714  0.1867
16055TIP3   OH269655   1.885   4.065   5.891  0.1568  0.1724  0.7228
16055TIP3    H169656   1.806   4.012   5.881 -0.4742  1.3429 -1.0073
16055TIP3    H269657   1.906   4.060   5.984 -0.8727 -1.6571  0.8994
16056TIP3   OH269658   4.592   1.156   2.812  0.2508  0.0268  0.2981
16056TIP3    H169659   4.593   1.246   2.780  1.3877  0.2299  0.8443
16056TIP3    H269660   4.677   1.121   2.786 -0.3865 -1.0644 -0.3600
16057TIP3   OH269661   0.806   4.824   5.420  0.1858 -0.1009  0.4813
16057TIP3    H169662   0.730   4.795   5.470 -1.2888  1.0379 -0.9811
16057TIP3    H269663   0.770   4.885   5.355  2.1545 -0.6228 -1.2058
16058TIP3   OH269664   5.848   3.701  11.761 -0.0891  0.3407 -0.0546
16058TIP3    H169665   5.810   3.733  11.843  1.1416 -0.0532  0.6895
16058TIP3    H269666   5.793   3.740  11.693 -1.7229 -0.0698  0.9665
16059TIP3   OH269667   4.340   6.755  16.209 -0.0022 -0.4228 -0.3235
16059TIP3    H169668   4.374   6.730  16.295  0.4502  0.3123 -0.2831
16059TIP3    H269669   4.280   6.684  16.186  0.0598 -0.7505  0.4870
16060TIP3   OH269670   3.555   4.657  11.212 -0.5533  0.2292  0.5574
16060TIP3    H169671   3.561   4.593  11.282 -1.1770  0.4313  0.7961
16060TIP3    H269672   3.472   4.702  11.227 -1.2487 -0.4797 -0.9506
16061TIP3   OH269673   4.394   2.518   1.971  0.2084  0.1250 -0.5851
16061TIP3    H169674   4.347   2.600   1.955 -0.5955 -0.3083 -0.4962
16061TIP3    H269675   4.455   2.511   1.898 -0.5538  0.2175 -1.2417
16062TIP3   OH269676   2.341   4.670   0.720  0.4878 -0.2788 -0.4312
16062TIP3    H169677   2.289   4.682   0.799 -0.3802 -0.7661 -0.9093
16062TIP3    H269678   2.276   4.667   0.649  1.2931  1.0333 -1.2712
16063TIP3   OH269679   4.128   3.895   6.194  0.1550 -0.6018 -0.2556
16063TIP3    H169680   4.110   3.803   6.210 -0.6989 -0.4813 -0.4394
16063TIP3    H269681   4.184   3.922   6.266 -0.9343 -0.8764  0.7308
16064TIP3   OH269682   5.757   4.762   0.858 -0.0368 -0.5499  0.2412
16064TIP3    H169683   5.821   4.763   0.787  0.8462  0.5756  1.0248
16064TIP3    H269684   5.808   4.782   0.937 -1.3279  0.2686  0.8964
16065TIP3   OH269685   2.650   2.253   6.778  0.0585  0.0035  0.6175
16065TIP3    H169686   2.573   2.296   6.742 -0.1315 -0.7601  0.0778
16065TIP3    H269687   2.722   2.313   6.760 -0.2621  0.2845  0.2474
16066TIP3   OH269688   3.288   5.443   0.420  0.0673  0.8539  0.2883
16066TIP3    H169689   3.332   5.359   0.408 -0.3592  0.6925 -0.1640
16066TIP3    H269690   3.293   5.485   0.334  1.0988  1.6953  0.7420
16067TIP3   OH269691   3.971   0.560  11.478  0.3811 -0.0606 -0.9813
16067TIP3    H169692   3.985   0.493  11.412 -1.3411  0.0190 -1.4679
16067TIP3    H269693   3.962   0.641  11.428 -0.4127  0.0812 -0.6110
16068TIP3   OH269694   6.133   5.812   6.147 -0.5170  0.5901 -0.1309
16068TIP3    H169695   6.209   5.788   6.200 -2.2344 -0.0835  2.1503
16068TIP3    H269696   6.144   5.762   6.066  0.2626 -1.3706  1.1163
16069TIP3   OH269697   1.193   5.119  14.237 -0.0274 -0.4252  0.0797
16069TIP3    H169698   1.205   5.040  14.288 -0.1553 -0.2290  0.4190
16069TIP3    H269699   1.266   5.176  14.261 -0.1985 -0.2524  0.2016
16070TIP3   OH269700   1.341   2.822  14.484  0.3308  0.1498  0.0509
16070TIP3    H169701   1.435   2.806  14.490  0.1867 -0.8661 -0.1075
16070TIP3    H269702   1.301   2.742  14.520 -0.5037 -1.3424 -3.7286
16071TIP3   OH269703   0.187   1.723  11.650 -0.2806  0.2226 -0.3989
16071TIP3    H169704   0.186   1.780  11.573 -0.1532  0.7605 -0.0037
16071TIP3    H269705   0.143   1.774  11.718 -0.2459 -0.1869 -0.0705
16072TIP3   OH269706   5.269   5.498   2.591  0.5790 -0.2049  0.6404
16072TIP3    H169707   5.338   5.437   2.565 -0.3739 -0.7634 -0.6301
16072TIP3    H269708   5.201   5.444   2.630  0.2756  0.2031  0.6882
16073TIP3   OH269709   0.966   1.975  12.486 -0.4512 -0.4164  0.7356
16073TIP3    H169710   0.945   1.887  12.517  1.4145 -0.6329  1.5747
16073TIP3    H269711   0.920   1.983  12.403  1.2312 -3.1799 -0.6536
16074TIP3   OH269712   0.470   5.011   5.483 -0.4389  0.1798  0.2197
16074TIP3    H169713   0.506   4.933   5.525 -2.6449 -1.8451 -1.3082
16074TIP3    H269714   0.538   5.040   5.423 -0.1591 -1.6773 -0.4260
16075TIP3   OH269715   6.190   5.646  16.978 -0.3593  0.6271 -0.3275
16075TIP3    H169716   6.249   5.574  16.957 -0.3930  0.1757  1.0480
16075TIP3    H269717   6.238   5.724  16.952  0.3264  0.1960 -0.3780
16076TIP3   OH269718   5.191   1.925  12.737  0.1521  0.3046 -0.2420
16076TIP3    H169719   5.264   1.876  12.776 -0.1169  0.7058  0.7903
16076TIP3    H269720   5.113   1.891  12.780 -0.3218 -0.3083 -1.5352
16077TIP3   OH269721   2.370   4.643   0.082  0.2096 -0.3048 -0.4841
16077TIP3    H169722   2.358   4.554   0.115 -0.8334 -0.8834 -2.2832
16077TIP3    H269723   2.294   4.691   0.113 -0.2833 -0.5984 -1.2171
16078TIP3   OH269724   0.458   1.113  11.953 -0.2659  0.2828 -0.2744
16078TIP3    H169725   0.507   1.121  11.871  1.2323  0.8470  0.6379
16078TIP3    H269726   0.397   1.040  11.937  1.6279 -1.2168 -1.0877
16079TIP3   OH269727   4.072   3.455  12.196 -0.6597  0.4068 -0.1651
16079TIP3    H169728   4.025   3.487  12.120 -1.2840  0.9749  0.4489
16079TIP3    H269729   4.162   3.446  12.166 -0.8899  0.6438 -0.9599
16080TIP3   OH269730   4.189   4.791  17.063  0.7276  0.3877 -0.3689
16080TIP3    H169731   4.212   4.837  17.144 -0.4781  2.0455 -0.8965
16080TIP3    H269732   4.093   4.791  17.063  0.7191 -0.6684 -1.2161
16081TIP3   OH269733   6.045   0.600   3.485 -0.0156 -0.1083  0.3252
16081TIP3    H169734   6.042   0.695   3.498 -0.4547 -0.0092 -0.4053
16081TIP3    H269735   6.133   0.574   3.512 -0.2836  0.3263  1.6646
16082TIP3   OH269736   3.484   6.084   2.729 -0.2712  0.1339  0.1031
16082TIP3    H169737   3.446   6.128   2.805  1.4149  1.7391  0.0719
16082TIP3    H269738   3.431   6.005   2.718 -1.7917  0.8749  1.7222
16083TIP3   OH269739   1.104   4.542  16.395  0.0615  0.2977 -0.1657
16083TIP3    H169740   1.033   4.521  16.335 -0.4178  1.4321 -0.0148
16083TIP3    H269741   1.094   4.635  16.413  0.2807  0.0237  1.5693
16084TIP3   OH269742   0.298   0.917  16.200  0.4512 -0.4672  0.3690
16084TIP3    H169743   0.374   0.911  16.142  0.9419  0.4765  0.8819
16084TIP3    H269744   0.230   0.866  16.156  0.7580  0.3324 -1.1182
16085TIP3   OH269745   3.573   5.037   5.936 -0.3177 -0.2586 -0.7637
16085TIP3    H169746   3.527   4.964   5.978 -0.2402 -1.0206 -1.9706
16085TIP3    H269747   3.624   5.077   6.006 -2.5858  0.4580  0.5912
16086TIP3   OH269748   2.289   0.837   5.518  0.1516 -0.2016  0.6462
16086TIP3    H169749   2.315   0.910   5.575  2.5372  0.2286 -0.8767
16086TIP3    H269750   2.367   0.781   5.514 -0.2933 -0.7545 -1.3335
16087TIP3   OH269751   3.987   5.633  16.271 -0.1668 -0.3663  0.1544
16087TIP3    H169752   4.072   5.661  16.306  0.9367 -0.6607 -2.1410
16087TIP3    H269753   3.951   5.712  16.231 -0.1948 -0.6422 -0.3613
16088TIP3   OH269754   6.430   5.664   6.228  0.3048 -0.1433  0.4151
16088TIP3    H169755   6.389   5.624   6.150  1.9201 -0.0652 -0.5182
16088TIP3    H269756   6.431   5.594   6.293 -0.1563 -0.5176  0.0318
16089TIP3   OH269757   2.223   1.718  14.465  0.1061 -0.1781 -0.2238
16089TIP3    H169758   2.285   1.717  14.393 -0.3068 -1.0423 -0.5784
16089TIP3    H269759   2.263   1.775  14.531  1.3838 -0.8930 -0.3534
16090TIP3   OH269760   5.477   4.486   5.405 -0.2566 -0.4178 -0.4593
16090TIP3    H169761   5.461   4.505   5.497  0.4881 -0.7632 -0.2516
16090TIP3    H269762   5.455   4.394   5.395  0.4741 -0.6044 -0.4241
16091TIP3   OH269763   6.026   6.452  13.719 -0.4672 -0.2812 -0.0422
16091TIP3    H169764   6.020   6.380  13.781 -0.9313 -0.6171 -0.4710
16091TIP3    H269765   5.937   6.484  13.711 -0.5483 -0.7284 -1.1011
16092TIP3   OH269766   2.718   0.907  11.846 -0.0730 -0.3626  0.0730
16092TIP3    H169767   2.695   0.997  11.868 -2.0404 -0.7851 -0.1082
16092TIP3    H269768   2.664   0.853  11.903  0.1800 -1.4309 -0.6693
16093TIP3   OH269769   0.766   1.619  13.528  0.4694 -0.0636 -0.5082
16093TIP3    H169770   0.841   1.567  13.497 -0.3438  0.0391 -2.8841
16093TIP3    H269771   0.689   1.568  13.502 -0.3194  1.4627 -1.2997
16094TIP3   OH269772   3.771   1.467  11.453 -0.0871  0.3568 -0.1790
16094TIP3    H169773   3.734   1.479  11.365 -0.8588  0.0059  0.0901
16094TIP3    H269774   3.702   1.498  11.512  1.0838  2.2260  0.2796
16095TIP3   OH269775   1.572   1.210  13.296  0.0241 -0.2459 -0.8864
16095TIP3    H169776   1.626   1.177  13.368  0.1852  0.2983 -0.7557
16095TIP3    H269777   1.564   1.136  13.236 -0.4618 -0.8350 -0.1079
16096TIP3   OH269778   2.526   3.061  15.580 -0.4716 -0.0854 -0.3339
16096TIP3    H169779   2.510   3.147  15.542 -0.9746 -0.5950 -1.3349
16096TIP3    H269780   2.505   3.000  15.509  1.1775 -0.9885 -0.0820
16097TIP3   OH269781   5.732   4.036  12.205 -0.2001  0.1909  0.3581
16097TIP3    H169782   5.809   3.983  12.187 -1.3214 -1.0725 -0.9776
16097TIP3    H269783   5.736   4.054  12.299  1.4703 -0.2094  0.3817
16098TIP3   OH269784   6.262   1.646   0.719  0.3386 -0.1449 -0.2251
16098TIP3    H169785   6.296   1.577   0.776  0.5830  0.1000 -0.0722
16098TIP3    H269786   6.194   1.689   0.770 -0.7679 -1.1447 -0.8241
16099TIP3   OH269787   3.671   5.327  16.479  0.2101 -0.0744  0.2359
16099TIP3    H169788   3.693   5.408  16.434  0.1676 -0.5731 -0.7075
16099TIP3    H269789   3.652   5.354  16.569  2.6097  0.6388  0.5878
16100TIP3   OH269790   0.675   6.591   1.338  0.4304  0.5254 -0.0935
16100TIP3    H169791   0.766   6.616   1.327  0.4566  0.6003  0.2844
16100TIP3    H269792   0.664   6.514   1.283 -0.0142  2.1421 -2.4046
16101TIP3   OH269793   1.476   4.309   2.670  0.3722 -0.2042 -0.0662
16101TIP3    H169794   1.428   4.227   2.672 -2.3578  1.2735  0.2713
16101TIP3    H269795   1.441   4.356   2.594 -0.5826  1.9117  1.5707
16102TIP3   OH269796   0.732   3.431  14.771  0.6148  0.4096 -0.1179
16102TIP3    H169797   0.751   3.443  14.678  0.2193  0.2831 -0.2172
16102TIP3    H269798   0.745   3.337  14.786  0.3098  0.3637 -0.1327
16103TIP3   OH269799   1.764   5.942  16.341 -0.1416 -0.5927  0.4938
16103TIP3    H169800   1.857   5.947  16.318 -0.0740 -1.8975  0.4091
16103TIP3    H269801   1.751   6.014  16.403  0.5795  0.4914 -0.5808
16104TIP3   OH269802   2.571   5.252   0.378 -0.1903  0.0983 -0.7535
16104TIP3    H169803   2.594   5.344   0.369  0.9742  0.2955  2.6908
16104TIP3    H269804   2.476   5.251   0.385 -0.1230  1.2928  0.8376
16105TIP3   OH269805   0.558   1.455   0.235  0.7152 -0.1457  0.0422
16105TIP3    H169806   0.574   1.363   0.211 -0.2050 -0.3255  0.0802
16105TIP3    H269807   0.613   1.469   0.312  1.7235 -0.3250 -0.6168
16106TIP3   OH269808   1.794   1.489   5.148 -0.2846 -0.3367  0.0754
16106TIP3    H169809   1.795   1.524   5.237 -0.4915  0.9802 -0.4206
16106TIP3    H269810   1.713   1.522   5.110  1.6891  2.6920 -1.9319
16107TIP3   OH269811   5.685   0.935  14.924 -0.2202  0.6676 -0.6323
16107TIP3    H169812   5.742   1.012  14.914 -0.6326  1.1252  0.3913
16107TIP3    H269813   5.615   0.948  14.860  0.5755  0.3127 -1.6050
16108TIP3   OH269814   4.711   2.520   6.364  1.0660 -0.0503 -0.3810
16108TIP3    H169815   4.633   2.570   6.385 -0.8814 -2.5254 -1.2107
16108TIP3    H269816   4.704   2.502   6.271  4.2851  2.1963 -1.2068
16109TIP3   OH269817   0.765   1.966   0.912  0.0285 -0.1886  0.2017
16109TIP3    H169818   0.674   1.945   0.930  0.4569 -1.7299  0.7526
16109TIP3    H269819   0.791   1.903   0.844  1.4098 -1.6296  1.9891
16110TIP3   OH269820   2.902   5.285  11.854  0.3709  0.2713  0.0880
16110TIP3    H169821   2.855   5.244  11.926 -0.4750 -2.0124 -1.6149
16110TIP3    H269822   2.994   5.269  11.872  0.1156 -1.2039  0.1919
16111TIP3   OH269823   1.486   2.394   0.607 -0.1556  0.0144  0.2357
16111TIP3    H169824   1.391   2.395   0.605 -0.1660  2.0966 -1.3083
16111TIP3    H269825   1.512   2.340   0.533 -0.1117 -0.7534  0.7995
16112TIP3   OH269826   3.337   4.336  11.255  0.0227 -0.1489  0.2134
16112TIP3    H169827   3.420   4.310  11.214 -0.7225 -0.0594 -1.4139
16112TIP3    H269828   3.288   4.378  11.185 -0.3618  2.2408  1.8220
16113TIP3   OH269829   2.797   4.711  11.121  0.6391 -0.2287 -0.3779
16113TIP3    H169830   2.775   4.618  11.116  0.1968 -0.1046 -0.7254
16113TIP3    H269831   2.823   4.734  11.032  2.0467 -0.3345 -0.0283
16114TIP3   OH269832   0.163   1.593  13.244 -0.0585 -0.1388  0.0159
16114TIP3    H169833   0.236   1.622  13.299 -1.4586  3.4530  0.2716
16114TIP3    H269834   0.197   1.597  13.155  1.1972 -2.6747  0.2789
16115TIP3   OH269835   2.926   4.198  15.221 -0.0802  0.8325  0.2378
16115TIP3    H169836   2.862   4.138  15.183 -0.8928  0.5907  1.9061
16115TIP3    H269837   2.916   4.188  15.316  0.7540  2.5668  0.5533
16116TIP3   OH269838   4.195   4.043   5.704  0.2166  0.1046 -0.1603
16116TIP3    H169839   4.101   4.060   5.715  0.4131  1.9504 -0.9948
16116TIP3    H269840   4.207   3.954   5.737 -2.0287 -0.5911 -1.0250
16117TIP3   OH269841   2.824   6.313   3.395  0.2495  0.2288  0.9556
16117TIP3    H169842   2.766   6.387   3.378  0.3701  0.2744  0.7358
16117TIP3    H269843   2.910   6.342   3.363  0.1460 -0.2719  0.2036
16118TIP3   OH269844   2.562   5.314  15.082 -0.2849 -0.4713  0.1463
16118TIP3    H169845   2.517   5.394  15.108  0.0273 -1.0028  2.5149
16118TIP3    H269846   2.654   5.330  15.102  0.1870 -0.5419 -1.7428
16119TIP3   OH269847   1.187   5.920   0.817 -0.3917  0.0975 -0.4499
16119TIP3    H169848   1.142   5.869   0.750  0.0881 -0.0247 -0.6869
16119TIP3    H269849   1.250   5.973   0.768  0.3262 -0.3791 -0.0580
16120TIP3   OH269850   6.398   6.431   2.126 -0.1096 -0.7428  0.3244
16120TIP3    H169851   6.436   6.385   2.201 -3.2255 -1.9231  1.3471
16120TIP3    H269852   6.361   6.511   2.162  0.2232 -0.2658 -0.3711
16121TIP3   OH269853   0.077   0.846   1.605 -0.5304 -0.6875  0.2743
16121TIP3    H169854   0.158   0.837   1.655 -0.6526 -1.0860  0.4069
16121TIP3    H269855   0.080   0.775   1.542 -0.3937 -0.2059 -0.2684
16122TIP3   OH269856   2.938   1.936  10.732  0.1165 -0.3434  0.3404
16122TIP3    H169857   2.847   1.936  10.761 -0.2429 -0.6382 -0.7254
16122TIP3    H269858   2.963   1.844  10.733 -0.0993 -0.4356 -0.8025
16123TIP3   OH269859   4.214   5.693   5.999  0.0643  0.6081  0.6153
16123TIP3    H169860   4.236   5.767   6.056 -1.2632  0.7169  1.0111
16123TIP3    H269861   4.162   5.634   6.054 -0.4497  0.2723 -0.2061
16124TIP3   OH269862   5.938   1.520   2.858 -0.3775  0.3392 -0.0789
16124TIP3    H169863   5.927   1.433   2.897  1.8770  0.0067 -0.0096
16124TIP3    H269864   6.020   1.552   2.895 -0.3091  1.7928 -1.3806
16125TIP3   OH269865   1.969   1.315  14.405 -0.2963  0.3968 -0.0937
16125TIP3    H169866   1.916   1.239  14.429 -1.0118  1.0626  0.5074
16125TIP3    H269867   1.905   1.382  14.379  0.2819  0.9937 -0.0241
16126TIP3   OH269868   4.649   5.291  14.553 -0.0876  0.3869 -0.1777
16126TIP3    H169869   4.683   5.367  14.602  0.4383 -0.6707  1.1763
16126TIP3    H269870   4.563   5.276  14.591  0.4246 -0.5930  0.6532
16127TIP3   OH269871   6.308   3.984  12.683 -0.6476 -0.1124 -0.2404
16127TIP3    H169872   6.263   4.060  12.720  1.0557  1.4876 -1.2825
16127TIP3    H269873   6.387   4.020  12.644  1.7017 -2.7972  1.6458
16128TIP3   OH269874   4.445   3.171   5.142 -0.1462 -0.3619 -0.9700
16128TIP3    H169875   4.442   3.198   5.050 -0.2790  3.1014 -0.1030
16128TIP3    H269876   4.354   3.148   5.163 -0.5483  0.9099 -1.2228
16129TIP3   OH269877   6.581   4.010  13.884 -0.5705  0.3253  0.3947
16129TIP3    H169878   6.656   4.047  13.931 -0.5148  1.9754 -0.9123
16129TIP3    H269879   6.505   4.052  13.924 -0.7423 -0.5755  1.0325
16130TIP3   OH269880   6.509   6.373  16.714  0.2020 -0.0819  0.3856
16130TIP3    H169881   6.501   6.458  16.758  1.4327 -0.8701  2.2337
16130TIP3    H269882   6.507   6.395  16.620  0.9767  2.0354  0.8048
16131TIP3   OH269883   5.419   4.065   3.350 -0.1991  0.1569 -0.1028
16131TIP3    H169884   5.478   3.990   3.340 -1.5557 -0.8487 -0.8780
16131TIP3    H269885   5.402   4.070   3.444  1.3532  0.6746  0.1766
16132TIP3   OH269886   5.121   1.696   2.987 -0.4376 -0.1854  0.5382
16132TIP3    H169887   5.084   1.615   2.950 -1.2704  0.3168  0.2586
16132TIP3    H269888   5.077   1.706   3.071  0.2152 -0.4139  0.9159
16133TIP3   OH269889   4.813   1.111  15.279  0.5248 -0.4320  0.6377
16133TIP3    H169890   4.788   1.064  15.359  1.8980 -0.8838  0.8418
16133TIP3    H269891   4.795   1.049  15.208 -0.8864  0.0453  0.5632
16134TIP3   OH269892   4.455   3.969  16.982  0.1641  0.2811  0.2773
16134TIP3    H169893   4.547   3.945  16.972 -0.3599 -1.7149 -0.1961
16134TIP3    H269894   4.442   3.979  17.076  0.8226  0.4980  0.3476
16135TIP3   OH269895   5.033   5.402  10.295 -0.4936  0.4995 -0.1704
16135TIP3    H169896   5.002   5.455  10.222  0.2244 -0.4668 -1.2140
16135TIP3    H269897   5.102   5.454  10.336  0.3527  0.3231 -1.3134
16136TIP3   OH269898   5.593   3.778  11.641 -0.3295 -0.4720 -0.0120
16136TIP3    H169899   5.578   3.845  11.574  2.5728  0.0539 -0.2478
16136TIP3    H269900   5.597   3.696  11.592 -1.2396 -0.5151 -0.0454
16137TIP3   OH269901   4.402   2.444   5.036  0.1868  0.6262  0.2750
16137TIP3    H169902   4.378   2.406   4.951  2.0296  0.1673 -0.0766
16137TIP3    H269903   4.326   2.426   5.092 -1.0304  0.8571 -1.2270
16138TIP3   OH269904   1.154   1.148   0.486  0.3987 -0.4576 -0.5794
16138TIP3    H169905   1.191   1.062   0.505  4.2801  0.3807 -3.3004
16138TIP3    H269906   1.132   1.146   0.393 -0.5823  1.1505 -0.4369
16139TIP3   OH269907   4.589   0.017   1.245 -0.0099  0.1414  0.1113
16139TIP3    H169908   4.660   0.035   1.306  1.2536  3.3831 -2.0608
16139TIP3    H269909   4.526   0.087   1.260 -2.1003 -1.7809  0.8854
16140TIP3   OH269910   6.700   2.984  15.658 -0.6534 -0.4799  0.2564
16140TIP3    H169911   6.662   3.002  15.572 -0.1839  0.1629  0.1783
16140TIP3    H269912   6.641   2.920  15.697 -3.2390  2.1742  1.0804
16141TIP3   OH269913   0.951   4.651  12.429 -0.1684  0.0678  0.4799
16141TIP3    H169914   0.982   4.674  12.342  1.0451 -0.2741  0.7968
16141TIP3    H269915   0.893   4.576  12.415 -0.5062  0.4333 -0.0903
16142TIP3   OH269916   4.239   0.208  12.407 -0.5197  0.1226 -0.3903
16142TIP3    H169917   4.246   0.163  12.323  1.1225  1.2285 -0.8828
16142TIP3    H269918   4.232   0.301  12.384 -0.7981  0.3873  0.6918
16143TIP3   OH269919   3.242   3.361  13.154 -0.1573  0.1148 -0.3126
16143TIP3    H169920   3.294   3.411  13.091  0.2560  0.0688 -0.0150
16143TIP3    H269921   3.298   3.287  13.177  0.7766  1.4290  1.9879
16144TIP3   OH269922   4.253   2.468  14.848 -0.3512 -0.5049  0.2983
16144TIP3    H169923   4.157   2.464  14.857 -0.5511 -0.6840 -1.5025
16144TIP3    H269924   4.284   2.394  14.900 -1.3944 -1.9658 -1.0353
16145TIP3   OH269925   0.187   0.923   2.685  0.2250 -0.1721 -0.3029
16145TIP3    H169926   0.207   1.005   2.730 -1.7656  0.9689 -1.3216
16145TIP3    H269927   0.270   0.877   2.680  2.1035  3.0411 -2.1886
16146TIP3   OH269928   5.405   4.991  16.416 -0.0956  0.4061  0.5341
16146TIP3    H169929   5.393   4.932  16.342 -0.9005  1.4246 -0.1835
16146TIP3    H269930   5.500   4.995  16.429  0.1279  1.0051 -1.1240
16147TIP3   OH269931   6.172   1.589   0.163  0.4632 -0.1558  0.3066
16147TIP3    H169932   6.112   1.590   0.089  0.8292 -1.7208 -0.0387
16147TIP3    H269933   6.220   1.506   0.155  3.0511  1.2366  0.2698
16148TIP3   OH269934   3.998   4.217  11.146  0.3197  0.2718  0.7724
16148TIP3    H169935   4.067   4.168  11.101 -0.3193  1.6919 -1.9867
16148TIP3    H269936   3.927   4.154  11.158  0.8449 -0.3648  0.5943
16149TIP3   OH269937   2.022   3.616  16.088 -0.3347 -0.4409  0.7650
16149TIP3    H169938   2.044   3.544  16.028 -0.7902 -2.4177  2.8478
16149TIP3    H269939   1.954   3.580  16.145 -0.8052  1.7746  1.7047
16150TIP3   OH269940   3.404   1.235   5.286  0.2768 -0.2262  0.2301
16150TIP3    H169941   3.450   1.183   5.351  1.2522 -2.9002 -2.3948
16150TIP3    H269942   3.472   1.262   5.224 -0.9266  0.2745 -0.9156
16151TIP3   OH269943   1.824   5.354   2.259  0.3430 -0.0395  0.0374
16151TIP3    H169944   1.808   5.377   2.351 -0.6661 -1.1528  0.1643
16151TIP3    H269945   1.919   5.359   2.249  0.7088 -1.9890  1.7554
16152TIP3   OH269946   4.698   4.019  15.277 -0.4789 -0.0769  0.0552
16152TIP3    H169947   4.793   4.013  15.281 -0.4856 -1.1748 -0.8793
16152TIP3    H269948   4.674   4.072  15.353  0.7550 -1.1328  1.2358
16153TIP3   OH269949   3.416   1.639   1.936 -0.5745  0.2821 -0.5573
16153TIP3    H169950   3.341   1.668   1.885 -2.2930 -1.3729  0.8814
16153TIP3    H269951   3.443   1.556   1.895 -0.2402  0.3072 -0.3928
16154TIP3   OH269952   1.567   4.359  13.330  0.0407  0.0105  0.0027
16154TIP3    H169953   1.531   4.309  13.404  2.2815 -0.1377  1.0851
16154TIP3    H269954   1.649   4.315  13.309 -0.9588 -0.5428 -3.3251
16155TIP3   OH269955   2.503   5.250  16.119 -0.3766 -0.1614  0.3319
16155TIP3    H169956   2.486   5.177  16.179 -1.5354  0.8331  1.2629
16155TIP3    H269957   2.419   5.294  16.111  0.1090  0.5861 -0.9020
16156TIP3   OH269958   3.384   0.562   2.181 -0.2947 -0.0561 -0.1516
16156TIP3    H169959   3.416   0.632   2.237  0.0057 -0.4971  0.2404
16156TIP3    H269960   3.341   0.607   2.108 -1.0952  0.5267  0.6559
16157TIP3   OH269961   4.262   0.858   3.505  0.3786  0.3261  0.1536
16157TIP3    H169962   4.191   0.895   3.558 -0.0679  0.4804 -0.5311
16157TIP3    H269963   4.261   0.765   3.526  1.1257  0.5906  1.4522
16158TIP3   OH269964   5.346   5.714   4.834 -0.1856  0.2336 -0.1418
16158TIP3    H169965   5.337   5.710   4.929 -0.3297  0.0032 -0.1629
16158TIP3    H269966   5.396   5.636   4.812 -2.3252 -1.1370 -0.4957
16159TIP3   OH269967   4.439   3.687   5.543 -0.1344  0.6397  0.3107
16159TIP3    H169968   4.534   3.682   5.528  0.0221 -3.0901  1.5299
16159TIP3    H269969   4.430   3.691   5.638 -1.2672  1.7844  0.1865
16160TIP3   OH269970   4.562   4.667   2.468 -0.3915 -0.7297  0.1030
16160TIP3    H169971   4.489   4.605   2.466 -1.2285  0.2346 -0.2076
16160TIP3    H269972   4.535   4.733   2.532 -1.5044  1.6022 -2.5349
16161TIP3   OH269973   0.167   3.013  15.793 -0.5523  0.0884 -0.3084
16161TIP3    H169974   0.212   2.956  15.731  0.5595 -0.1594  0.6893
16161TIP3    H269975   0.076   3.017  15.762 -0.4182 -1.4239 -0.9518
16162TIP3   OH269976   6.181   1.283   3.054  0.1184  0.3373 -0.3240
16162TIP3    H169977   6.089   1.301   3.075 -0.4670 -0.8331 -1.6753
16162TIP3    H269978   6.180   1.265   2.960  1.6726 -0.1027 -0.2777
16163TIP3   OH269979   5.976   0.619  16.467  0.2202 -0.2776 -0.1507
16163TIP3    H169980   5.963   0.611  16.372  1.8188  1.4488 -0.5635
16163TIP3    H269981   6.061   0.577  16.483  1.7811  2.6576 -0.1516
16164TIP3   OH269982   6.561   6.000   5.538 -0.1349  0.1508  0.3163
16164TIP3    H169983   6.484   6.025   5.590 -0.4382  0.8724 -0.4533
16164TIP3    H269984   6.564   5.904   5.544 -1.2745  0.0879  0.1154
16165TIP3   OH269985   6.312   2.632   6.720  0.3091  0.1154 -0.3749
16165TIP3    H169986   6.394   2.656   6.763 -0.4243 -0.8388  1.7118
16165TIP3    H269987   6.336   2.616   6.629  2.5018 -0.4286  0.2431
16166TIP3   OH269988   1.580   5.748   0.904 -0.2587 -0.1460  0.5583
16166TIP3    H169989   1.600   5.812   0.835  0.7464 -0.8171  0.2030
16166TIP3    H269990   1.586   5.799   0.986 -0.3874  0.4144  0.2245
16167TIP3   OH269991   1.563   0.697   4.801  0.1788  0.4661  0.3701
16167TIP3    H169992   1.504   0.684   4.875 -0.8366 -0.2923 -0.5499
16167TIP3    H269993   1.620   0.769   4.829 -0.4852  0.5093  1.6963
16168TIP3   OH269994   6.449   0.421  12.074 -0.2070 -0.0044 -0.0949
16168TIP3    H169995   6.380   0.358  12.056 -1.4051  1.1128  0.4356
16168TIP3    H269996   6.430   0.496  12.017  0.9246  0.0858 -0.3845
16169TIP3   OH269997   3.506   2.017   0.534 -0.6748 -0.4109  0.5837
16169TIP3    H169998   3.465   2.027   0.448 -1.3692  0.4482  0.9869
16169TIP3    H269999   3.475   1.932   0.566  0.8644 -1.4776 -0.6500
16170TIP3   OH270000   6.019   6.321  11.252  0.1788  0.2968 -0.2996
16170TIP3    H170001   6.019   6.367  11.336  2.6765  1.5170 -0.8504
16170TIP3    H270002   5.933   6.338  11.215 -0.3854  1.1376  1.2919
16171TIP3   OH270003   2.624   2.813   6.323  0.4992 -0.0474  0.3156
16171TIP3    H170004   2.588   2.852   6.403  0.6840 -0.3983  0.5737
16171TIP3    H270005   2.600   2.875   6.254 -1.0552 -0.5114  0.3911
16172TIP3   OH270006   1.965   0.280  13.793  0.0729  0.4710  0.8469
16172TIP3    H170007   1.924   0.367  13.798  0.8262  0.8191  1.1799
16172TIP3    H270008   2.015   0.273  13.875 -0.3733 -0.4851  1.0553
16173TIP3   OH270009   5.578   0.072  14.349 -0.2816 -0.2893  0.3358
16173TIP3    H170010   5.507   0.056  14.287 -0.2231 -1.1994  0.4902
16173TIP3    H270011   5.534   0.113  14.424 -0.2681  1.3149 -0.4894
16174TIP3   OH270012   5.662   2.060  14.051  0.1120 -0.1617  0.0245
16174TIP3    H170013   5.620   2.029  14.132  1.4625  1.0353  1.2353
16174TIP3    H270014   5.597   2.042  13.983 -0.7151 -2.0362  1.2082
16175TIP3   OH270015   3.252   4.801   3.319 -0.4280 -0.7685  0.5054
16175TIP3    H170016   3.208   4.733   3.372 -3.1406 -0.7441 -1.5054
16175TIP3    H270017   3.231   4.883   3.364 -0.4589 -0.9428  0.8181
16176TIP3   OH270018   1.458   3.375  14.857 -0.3046 -0.3399 -0.3245
16176TIP3    H170019   1.367   3.403  14.862  0.2382  1.3270  1.5492
16176TIP3    H270020   1.509   3.456  14.865  1.3527 -1.2530 -1.0732
16177TIP3   OH270021   3.059   4.825  11.494  0.7465  0.2431 -0.1384
16177TIP3    H170022   3.088   4.874  11.418  2.3334 -0.1474  0.1706
16177TIP3    H270023   3.013   4.749  11.458  2.2987 -0.4458 -0.7921
16178TIP3   OH270024   1.346   5.658  13.271  0.1676 -0.1247  0.1278
16178TIP3    H170025   1.294   5.738  13.275  0.8183  0.3792 -0.9750
16178TIP3    H270026   1.297   5.595  13.323 -0.9069  0.6892  0.1349
16179TIP3   OH270027   6.753   2.946   3.404  0.4979  1.0642 -0.1273
16179TIP3    H170028   6.675   2.903   3.370  1.2190  0.0736 -0.5591
16179TIP3    H270029   6.816   2.875   3.420  1.3464  1.8454  0.1181
16180TIP3   OH270030   4.992   0.383   3.012  0.4278 -0.1266 -0.5589
16180TIP3    H170031   4.912   0.354   2.968  0.4314 -2.3428  0.7180
16180TIP3    H270032   5.063   0.350   2.958  0.5596  1.9605 -1.7668
16181TIP3   OH270033   6.314   1.645  16.678 -0.6947  0.6399  0.9727
16181TIP3    H170034   6.346   1.673  16.592 -1.1769  0.4718  0.7344
16181TIP3    H270035   6.352   1.707  16.739  0.7605 -0.0409  0.8008
16182TIP3   OH270036   1.187   4.459   4.681 -0.0396 -0.1695  0.6598
16182TIP3    H170037   1.165   4.522   4.612  1.1708  0.0101  0.4259
16182TIP3    H270038   1.103   4.439   4.723 -0.5979  0.7116 -0.0163
16183TIP3   OH270039   0.063   3.679   0.579 -0.2516  0.3001 -0.4095
16183TIP3    H170040  -0.013   3.736   0.571 -1.7936 -1.7603 -1.1529
16183TIP3    H270041   0.037   3.610   0.639  1.5679  0.3157  0.4784
16184TIP3   OH270042   4.759   4.037   1.650 -0.1670  0.3308  0.2298
16184TIP3    H170043   4.854   4.026   1.646 -0.1018  0.7429  0.5872
16184TIP3    H270044   4.726   3.991   1.573  0.2228 -0.9372  0.7844
16185TIP3   OH270045   4.574   3.165   3.320 -0.5482  0.1125  0.2585
16185TIP3    H170046   4.614   3.196   3.402 -1.0253 -2.5268  1.5883
16185TIP3    H270047   4.631   3.199   3.251  0.4204  1.6184  1.7196
16186TIP3   OH270048   3.990   5.509  14.078  0.4216 -0.1183  0.0099
16186TIP3    H170049   3.983   5.578  14.012 -0.1508  0.2544  0.4525
16186TIP3    H270050   3.925   5.532  14.144  0.6972 -0.7140  0.5012
16187TIP3   OH270051   5.904   5.248  14.628  0.0295  0.2802  0.2684
16187TIP3    H170052   5.969   5.313  14.600 -0.6305  0.5730 -0.6404
16187TIP3    H270053   5.947   5.200  14.698 -0.3900  3.3925  2.8787
16188TIP3   OH270054   3.164   4.254  14.375  0.5423  0.0456  0.3223
16188TIP3    H170055   3.170   4.327  14.313  0.2322  0.2857  0.5728
16188TIP3    H270056   3.245   4.259  14.425  1.0784 -0.5175 -0.4572
16189TIP3   OH270057   5.489   1.556  11.110  0.0127  0.2599 -0.3361
16189TIP3    H170058   5.449   1.637  11.078  2.9261  1.4693 -1.2960
16189TIP3    H270059   5.521   1.513  11.031  0.6994 -0.5576  0.3694
16190TIP3   OH270060   3.330   2.951   4.972  0.2682 -0.4270  0.2724
16190TIP3    H170061   3.300   2.867   4.936  0.0138 -0.3383  0.2767
16190TIP3    H270062   3.344   3.006   4.895  0.0965 -0.3605  0.2892
16191TIP3   OH270063   0.521   1.127   5.506 -0.1168  0.8261  0.3707
16191TIP3    H170064   0.613   1.136   5.530 -0.3481 -0.9099  2.2892
16191TIP3    H270065   0.488   1.216   5.504  1.6529  1.5107 -0.6550
16192TIP3   OH270066   2.309   3.707  17.244 -0.4452 -0.3444  0.0858
16192TIP3    H170067   2.400   3.736  17.249 -1.0175  1.3579  1.6584
16192TIP3    H270068   2.286   3.714  17.152  1.2416 -1.6859 -0.4928
16193TIP3   OH270069   2.891   0.092  11.463 -0.2447  0.1112 -0.4512
16193TIP3    H170070   2.862   0.101  11.554  0.4904 -2.3222  0.0965
16193TIP3    H270071   2.811   0.104  11.411 -0.7856  0.9038  0.5344
16194TIP3   OH270072   3.087   1.799  15.834 -0.7523  0.3117 -0.0831
16194TIP3    H170073   3.037   1.718  15.834  0.6229 -0.6609 -2.6884
16194TIP3    H270074   3.075   1.836  15.746  2.6042  0.2295 -0.7327
16195TIP3   OH270075   1.909   0.465  12.137 -0.1817 -0.3185 -0.1578
16195TIP3    H170076   1.992   0.425  12.161  0.3183  0.9101  0.2649
16195TIP3    H270077   1.844   0.396  12.150  0.7020 -1.1267  0.0452
16196TIP3   OH270078   3.412   3.738  11.322  0.5425  0.6203 -0.5247
16196TIP3    H170079   3.383   3.708  11.408 -2.1848  0.9754 -1.2289
16196TIP3    H270080   3.370   3.824  11.311  1.9972  1.2332 -1.6533
16197TIP3   OH270081   1.275   3.421   1.226  0.2671 -0.0887 -0.3565
16197TIP3    H170082   1.355   3.395   1.180 -0.2271 -0.4897 -1.0131
16197TIP3    H270083   1.243   3.340   1.265  1.1178  0.3857  1.4432
16198TIP3   OH270084   1.448   6.752  14.180 -0.5936 -0.4174  0.2183
16198TIP3    H170085   1.385   6.768  14.110 -0.8628  0.4887  0.6603
16198TIP3    H270086   1.520   6.813  14.163 -0.0987 -1.0282  0.0569
16199TIP3   OH270087   6.338   5.457  11.515  0.4293 -0.2156  0.0858
16199TIP3    H170088   6.312   5.539  11.473  1.0667 -0.1011 -0.1007
16199TIP3    H270089   6.285   5.453  11.594 -0.2554 -0.0720 -0.3618
16200TIP3   OH270090   4.229   4.575   0.356 -0.5339  0.4486 -0.2209
16200TIP3    H170091   4.274   4.644   0.308  2.5138 -1.2920 -0.1396
16200TIP3    H270092   4.201   4.616   0.438  0.9857  1.6568 -0.2729
16201TIP3   OH270093   0.933   2.002   4.215  0.2960  0.2510  0.6060
16201TIP3    H170094   1.017   1.970   4.184 -0.7863 -1.2291 -1.0047
16201TIP3    H270095   0.874   1.993   4.140 -0.7439  3.7105  0.8486
16202TIP3   OH270096   6.463   1.698   5.107 -0.4472 -0.0774  0.2269
16202TIP3    H170097   6.407   1.757   5.157 -3.2157 -3.0581  0.9519
16202TIP3    H270098   6.411   1.673   5.031 -1.6394 -5.0753  2.2719
16203TIP3   OH270099   3.192   2.085  16.567 -0.2042  0.0810  0.0405
16203TIP3    H170100   3.128   2.014  16.562 -3.2087  2.6023 -0.6679
16203TIP3    H270101   3.185   2.116  16.657  0.4245  0.0692  0.0972
16204TIP3   OH270102   1.842   0.291   4.177  0.3630 -0.4309 -0.1602
16204TIP3    H170103   1.813   0.218   4.232 -0.5460  0.3171  0.3846
16204TIP3    H270104   1.938   0.285   4.178  0.3023 -1.6388 -0.1745
16205TIP3   OH270105   2.597   3.846   2.735  0.1547 -0.0034  0.1379
16205TIP3    H170106   2.554   3.762   2.724  0.6739  0.0764 -3.3343
16205TIP3    H270107   2.530   3.911   2.713  1.2387  0.1956 -2.9956
16206TIP3   OH270108   3.354   0.613   5.867 -0.0402 -0.2321  0.4342
16206TIP3    H170109   3.403   0.532   5.852 -1.1398 -0.5235 -2.2396
16206TIP3    H270110   3.262   0.587   5.860 -0.4235  1.1645  0.0096
16207TIP3   OH270111   5.192   0.049  11.273  0.1403 -0.4498  0.5302
16207TIP3    H170112   5.276   0.062  11.227 -0.4008  0.1942 -0.3023
16207TIP3    H270113   5.203  -0.035  11.318  0.7489 -1.0538 -0.6803
16208TIP3   OH270114   2.496   2.847  12.757  0.3740 -0.0659 -0.1622
16208TIP3    H170115   2.457   2.869  12.842 -1.0920  0.6105 -0.9615
16208TIP3    H270116   2.439   2.890  12.693  2.2222  0.6048 -1.4500
16209TIP3   OH270117   1.841   4.068  14.299  0.0611 -0.5626  0.0001
16209TIP3    H170118   1.750   4.087  14.324  0.6032  1.7112  0.4771
16209TIP3    H270119   1.877   4.153  14.275  1.8969 -1.5288 -0.8127
16210TIP3   OH270120   3.243   2.658  14.572  0.0985  0.6524 -0.1353
16210TIP3    H170121   3.262   2.664  14.479 -2.1052  1.4783 -0.5950
16210TIP3    H270122   3.288   2.733  14.611  2.3288 -0.5573 -0.2153
16211TIP3   OH270123   3.821   4.948   4.679 -0.0788  0.0492  0.4089
16211TIP3    H170124   3.776   4.932   4.596 -1.1536  0.8704  0.8138
16211TIP3    H270125   3.776   4.893   4.742 -0.3702  0.6957  0.7733
16212TIP3   OH270126   1.709   1.644  11.509  0.2033  0.7693 -0.5224
16212TIP3    H170127   1.707   1.737  11.534  1.1707  0.8829 -0.8104
16212TIP3    H270128   1.800   1.618  11.524 -0.1776 -0.2830  0.0534
16213TIP3   OH270129   5.537   6.144  14.158  0.2144 -0.6036  0.3137
16213TIP3    H170130   5.449   6.108  14.142 -0.4463  0.4073  1.5131
16213TIP3    H270131   5.540   6.159  14.252  0.6922  1.8198 -0.0235
16214TIP3   OH270132   1.065   0.283   3.032  0.0956  0.4471 -0.4082
16214TIP3    H170133   1.126   0.317   3.098  0.8223  1.4411 -1.5224
16214TIP3    H270134   1.023   0.362   2.996  0.2328  0.0047 -1.5926
16215TIP3   OH270135   5.176   1.874  14.331 -0.4747  0.1753  0.6205
16215TIP3    H170136   5.204   1.783  14.344  1.1155  0.4676 -0.4292
16215TIP3    H270137   5.095   1.882  14.381  0.4915 -1.2025  2.5301
16216TIP3   OH270138   5.366   2.561   1.232  0.3034 -0.0015  0.1552
16216TIP3    H170139   5.275   2.540   1.249 -0.5362  3.2935  0.3707
16216TIP3    H270140   5.414   2.525   1.307 -0.7168 -1.9070 -0.0486
16217TIP3   OH270141   5.438   6.164  16.649  0.0898  0.2166 -0.7077
16217TIP3    H170142   5.426   6.224  16.576  0.4757 -1.6771 -2.4234
16217TIP3    H270143   5.378   6.092  16.631  0.9929 -0.8160  0.2343
16218TIP3   OH270144   2.660   1.563  16.842  0.3357  0.0751 -0.0874
16218TIP3    H170145   2.751   1.581  16.822  0.3748 -0.9814 -0.9120
16218TIP3    H270146   2.630   1.641  16.889  1.9059  0.0412  1.0430
16219TIP3   OH270147   0.322   6.447   2.046 -0.2094 -0.0902  0.4427
16219TIP3    H170148   0.232   6.468   2.021  0.0131  0.4210  0.0648
16219TIP3    H270149   0.342   6.507   2.118  0.2030  0.5570 -0.2043
16220TIP3   OH270150   1.796   3.671  10.749  0.4686  0.3755  0.2916
16220TIP3    H170151   1.831   3.635  10.668 -0.9571 -2.3932  0.7595
16220TIP3    H270152   1.708   3.700  10.726 -0.3659 -1.4328  0.9594
16221TIP3   OH270153   2.846   6.516   5.211 -0.2587  0.0158 -0.2487
16221TIP3    H170154   2.775   6.476   5.160 -0.6175  0.0427  0.2172
16221TIP3    H270155   2.926   6.483   5.171 -0.5254  0.3319 -1.0639
16222TIP3   OH270156   2.344   2.476   4.315 -0.4510 -0.6305 -0.5312
16222TIP3    H170157   2.407   2.423   4.265 -0.1179 -0.8663  0.1266
16222TIP3    H270158   2.393   2.556   4.337  0.5255 -1.8463  2.1358
16223TIP3   OH270159   6.224   1.004   0.842 -0.2113  0.5403 -0.0068
16223TIP3    H170160   6.212   1.065   0.915  0.3922  0.3958  0.2171
16223TIP3    H270161   6.319   0.996   0.832 -0.2834 -0.1190 -0.2413
16224TIP3   OH270162   1.707   1.196   4.605  0.6594 -0.3487  0.3590
16224TIP3    H170163   1.676   1.106   4.592 -0.8963  0.3286 -0.8629
16224TIP3    H270164   1.793   1.198   4.562 -0.1712 -0.7532 -1.4047
16225TIP3   OH270165   1.424   3.712  11.865  0.0864  0.0079  0.1109
16225TIP3    H170166   1.433   3.637  11.923  0.0713  0.2966  0.4845
16225TIP3    H270167   1.513   3.733  11.838  0.2467  0.8360  1.2478
16226TIP3   OH270168   3.214   0.626  15.190  0.2080  0.4594  0.3867
16226TIP3    H170169   3.139   0.671  15.227 -0.7482 -0.1627 -0.7179
16226TIP3    H270170   3.219   0.543  15.237  0.3345  0.5804  0.5900
16227TIP3   OH270171   3.577   3.217  14.647  0.3273  0.2592  0.4840
16227TIP3    H170172   3.566   3.194  14.739  0.3166  0.6628  0.5862
16227TIP3    H270173   3.497   3.187  14.604 -0.3188  1.3808  0.8663
16228TIP3   OH270174   5.620   6.534  13.364 -0.8176  0.1111  0.3072
16228TIP3    H170175   5.576   6.477  13.301 -2.9133  3.1726 -1.2231
16228TIP3    H270176   5.670   6.595  13.310 -0.0856  0.8797  1.7961
16229TIP3   OH270177   3.482   6.358   1.137 -0.1795 -0.0506  0.2252
16229TIP3    H170178   3.494   6.442   1.180  1.3038  0.2550 -0.7385
16229TIP3    H270179   3.400   6.367   1.088 -0.1905  0.7177  0.3801
16230TIP3   OH270180   5.716   2.447   1.807 -0.9542  0.7230  0.1317
16230TIP3    H170181   5.782   2.393   1.763 -0.7275 -0.8613  2.2166
16230TIP3    H270182   5.637   2.393   1.806 -1.1065  0.9119  1.0805
16231TIP3   OH270183   5.208   5.466  13.813 -0.2960  0.5918 -0.3266
16231TIP3    H170184   5.289   5.416  13.798 -0.2794  0.6960 -0.5999
16231TIP3    H270185   5.182   5.495  13.725 -1.0902 -0.1526 -0.3577
16232TIP3   OH270186   6.388   5.205   1.974  0.3922  0.2021  0.0928
16232TIP3    H170187   6.377   5.127   1.919 -2.7014 -0.8630  1.9689
16232TIP3    H270188   6.356   5.277   1.920  2.1503  0.0655 -1.2241
16233TIP3   OH270189   5.946   4.287   2.626  0.0097  0.7194 -0.2660
16233TIP3    H170190   5.913   4.374   2.606 -1.7287  0.1898  0.1211
16233TIP3    H270191   5.945   4.240   2.542  3.4690  1.7656 -1.0448
16234TIP3   OH270192   1.723   3.665  13.114  0.6757  0.4576  0.1294
16234TIP3    H170193   1.712   3.720  13.192 -0.9540  0.3315  0.0335
16234TIP3    H270194   1.805   3.619  13.128 -1.0385 -2.0640  3.4071
16235TIP3   OH270195   3.973   0.587  16.885  0.1620  0.4752  0.4730
16235TIP3    H170196   3.994   0.569  16.794 -1.6067  2.4113 -0.3911
16235TIP3    H270197   4.026   0.663  16.908 -1.1293  1.4829  0.2492
16236TIP3   OH270198   2.336   3.610   0.511  0.3586 -0.3436  0.6741
16236TIP3    H170199   2.355   3.563   0.430  2.1281  0.5248  0.5170
16236TIP3    H270200   2.266   3.671   0.488  0.5696 -0.3862 -0.1033
16237TIP3   OH270201   6.671   4.317   0.767 -0.1659  0.2423  0.1988
16237TIP3    H170202   6.667   4.282   0.678  0.3995 -0.9896  0.6307
16237TIP3    H270203   6.620   4.397   0.764 -1.2284 -0.4471 -0.9376
16238TIP3   OH270204   2.236   4.593   4.252  0.4934  0.3112  0.2035
16238TIP3    H170205   2.191   4.607   4.336  0.8532  1.3080  0.2420
16238TIP3    H270206   2.309   4.535   4.274 -0.4425 -0.8971  0.2342
16239TIP3   OH270207   6.393   5.976  16.964 -0.0163 -0.5643 -0.2278
16239TIP3    H170208   6.354   5.940  16.884 -0.5827  1.4692 -0.9196
16239TIP3    H270209   6.373   6.069  16.961 -0.7355 -0.5361  2.7052
16240TIP3   OH270210   0.614   2.515  11.223 -0.1172  1.1695 -0.2394
16240TIP3    H170211   0.530   2.562  11.226  0.4124  2.0990  0.5550
16240TIP3    H270212   0.632   2.491  11.314 -0.1205 -0.1625 -0.5631
16241TIP3   OH270213   4.391   6.743   3.575  0.0235  0.0368  0.5491
16241TIP3    H170214   4.362   6.753   3.665 -0.6383  0.5933  0.2886
16241TIP3    H270215   4.389   6.832   3.539  0.4838 -0.1463  0.0438
16242TIP3   OH270216   5.930   5.566  11.795  0.2280 -0.0232 -0.1843
16242TIP3    H170217   5.949   5.534  11.706 -1.5706 -0.4829 -0.4355
16242TIP3    H270218   5.834   5.564  11.801  0.3435 -1.7459  2.4186
16243TIP3   OH270219   2.619   3.915  13.139  0.0325  0.2759 -0.4194
16243TIP3    H170220   2.606   3.849  13.207  0.1706  0.0033 -0.6526
16243TIP3    H270221   2.694   3.967  13.169  0.5863 -0.3291 -0.7265
16244TIP3   OH270222   4.080   3.287  13.478  0.2112  0.0759 -0.5652
16244TIP3    H170223   4.021   3.333  13.538 -0.2661  0.7551 -1.5428
16244TIP3    H270224   4.041   3.200  13.468  0.0618  0.1017 -0.2266
16245TIP3   OH270225   6.004   2.939   0.126 -0.7367  0.5997 -0.0356
16245TIP3    H170226   5.975   2.854   0.160 -1.6407  0.9516  0.1008
16245TIP3    H270227   6.094   2.924   0.098 -0.8860 -0.4087 -0.0191
16246TIP3   OH270228   2.521   3.270   5.336  0.1029  0.0260  0.6681
16246TIP3    H170229   2.579   3.227   5.399  0.7329  0.2117  0.2264
16246TIP3    H270230   2.455   3.313   5.390  0.2926 -0.3079  1.1738
16247TIP3   OH270231   4.233   6.718   2.768 -0.1735  0.4238 -0.1949
16247TIP3    H170232   4.183   6.649   2.811 -0.2101 -0.2446 -1.2932
16247TIP3    H270233   4.216   6.796   2.821 -0.4668 -0.3022  0.8149
16248TIP3   OH270234   3.473   4.352   3.139  0.2439 -0.7237  0.7167
16248TIP3    H170235   3.558   4.375   3.176  2.3882 -2.5568 -2.5542
16248TIP3    H270236   3.448   4.428   3.086  0.3636 -0.5736  0.8751
16249TIP3   OH270237   1.307   1.332   1.624 -0.6690  0.3155  0.1423
16249TIP3    H170238   1.259   1.262   1.668 -1.3102  1.4161  1.2399
16249TIP3    H270239   1.241   1.397   1.602  0.2153  1.6361  1.2483
16250TIP3   OH270240   6.679   1.958   2.227  0.0211 -0.2245 -0.2825
16250TIP3    H170241   6.741   1.948   2.299  0.3778  1.9709 -0.2058
16250TIP3    H270242   6.626   2.034   2.252 -1.7943 -1.1927 -1.0052
16251TIP3   OH270243   1.499   6.274  10.948  0.5541 -0.3421  0.0361
16251TIP3    H170244   1.519   6.184  10.973  2.2016  0.2201  0.8603
16251TIP3    H270245   1.517   6.326  11.026  0.1871  0.7732 -0.5948
16252TIP3   OH270246   1.569   0.299  11.465  0.2951 -0.1403 -0.5338
16252TIP3    H170247   1.649   0.350  11.450  0.5232 -0.6161 -0.9288
16252TIP3    H270248   1.501   0.366  11.482  0.7292  0.2688 -0.3854
16253TIP3   OH270249   1.376   5.177  16.454  0.4379  0.0938  1.0112
16253TIP3    H170250   1.292   5.140  16.480  0.6582 -0.6014  0.7446
16253TIP3    H270251   1.431   5.170  16.532  0.9032 -1.4211  0.5950
16254TIP3   OH270252   5.371   4.929  14.792  0.1392  0.4318 -0.5191
16254TIP3    H170253   5.358   4.846  14.746  1.5574 -0.2871  0.3070
16254TIP3    H270254   5.455   4.961  14.761 -0.1803  1.3485 -0.4743
16255TIP3   OH270255   6.311   1.809  14.582  0.2568  0.1200  0.3677
16255TIP3    H170256   6.342   1.783  14.495  0.7268 -0.2586  0.6395
16255TIP3    H270257   6.368   1.762  14.643 -0.6506 -0.3586  0.8900
16256TIP3   OH270258   1.604   2.700   4.483 -0.5922 -0.1339  0.1852
16256TIP3    H170259   1.600   2.791   4.512 -0.9396  0.3165 -1.2125
16256TIP3    H270260   1.635   2.704   4.393 -0.9329 -1.3717 -0.0142
16257TIP3   OH270261   5.955   5.311   2.983 -0.3418 -0.2248  0.1254
16257TIP3    H170262   6.028   5.358   2.944  0.0012  0.3132  1.3758
16257TIP3    H270263   5.963   5.326   3.077  0.0593 -3.1697  0.6672
16258TIP3   OH270264   2.317   3.068   0.179  0.4778  0.1616 -0.3114
16258TIP3    H170265   2.323   3.005   0.250  0.6465  0.1752 -0.3136
16258TIP3    H270266   2.223   3.087   0.171  0.6147  1.7274  1.2815
16259TIP3   OH270267   3.283   2.993   2.809  0.0165  0.3337  0.0879
16259TIP3    H170268   3.331   3.067   2.844  1.4504 -0.6776  0.3750
16259TIP3    H270269   3.284   2.928   2.880 -1.4509  0.1247 -0.0483
16260TIP3   OH270270   5.038   1.422  13.458 -0.1416  0.1272  0.0902
16260TIP3    H170271   5.015   1.514  13.463 -0.7428 -0.0248  0.1208
16260TIP3    H270272   4.955   1.376  13.451  0.0320 -0.5622  2.0025
16261TIP3   OH270273   3.516   2.746  16.503 -0.1960 -0.3674  0.1660
16261TIP3    H170274   3.424   2.762  16.522 -0.5343 -2.9530  1.0987
16261TIP3    H270275   3.515   2.690  16.425  0.7189  1.0314 -0.9085
16262TIP3   OH270276   1.994   4.909  13.693 -0.3077 -0.0053 -0.2826
16262TIP3    H170277   2.047   4.977  13.735  0.9800  0.1470 -2.0363
16262TIP3    H270278   1.904   4.938  13.706  0.0785  0.4630  1.5725
16263TIP3   OH270279   0.392   2.857   5.514  0.4197  0.0304 -0.0819
16263TIP3    H170280   0.324   2.792   5.528  0.4213  0.3930  1.8371
16263TIP3    H270281   0.405   2.898   5.599  1.9679  1.0290 -0.7413
16264TIP3   OH270282   0.319   4.733   4.450 -0.2024  1.2500  0.3112
16264TIP3    H170283   0.325   4.674   4.375 -1.5263  3.1421 -1.4036
16264TIP3    H270284   0.316   4.676   4.526  0.0017 -0.8067 -1.1503
16265TIP3   OH270285   5.985   3.132   2.326  0.3844  0.2977 -0.3034
16265TIP3    H170286   5.946   3.165   2.245  3.2403  0.4495 -1.7455
16265TIP3    H270287   6.000   3.210   2.379  2.0653  0.7272 -1.3492
16266TIP3   OH270288   4.441   4.106  15.425  0.0944 -0.1649 -0.4073
16266TIP3    H170289   4.468   4.041  15.360  3.4448  1.8344 -1.2483
16266TIP3    H270290   4.473   4.071  15.509  1.1966 -0.0121 -0.7483
16267TIP3   OH270291   1.216   0.922   3.113  0.7396 -0.1518 -0.5666
16267TIP3    H170292   1.146   0.975   3.076  0.4000  0.8523  1.3767
16267TIP3    H270293   1.272   0.900   3.038 -2.1028 -1.8335 -2.3600
16268TIP3   OH270294   6.016   1.514  13.909 -0.5800  0.1396  0.4028
16268TIP3    H170295   6.074   1.440  13.924 -0.5198  0.1844  0.3909
16268TIP3    H270296   6.062   1.568  13.844  0.0988  1.0001  1.5662
16269TIP3   OH270297   6.071   3.750  14.012  0.0774 -0.1363  0.0136
16269TIP3    H170298   6.008   3.819  13.993  1.1258  1.2140  1.2320
16269TIP3    H270299   6.156   3.785  13.984  0.4312 -1.6244 -0.9283
16270TIP3   OH270300   2.364   4.311   4.005  0.0410  0.1666 -0.0712
16270TIP3    H170301   2.290   4.305   4.066  0.7702 -0.2048  0.8134
16270TIP3    H270302   2.373   4.405   3.987  0.2629  0.3610  0.9894
16271TIP3   OH270303   0.645   6.730   2.236 -0.0611  0.2081  0.1271
16271TIP3    H170304   0.716   6.791   2.215 -0.1921  0.1999 -0.3332
16271TIP3    H270305   0.591   6.779   2.299  0.0968  0.3859  0.1271
16272TIP3   OH270306   1.624   2.956  14.504  0.4062 -0.5324 -0.8921
16272TIP3    H170307   1.664   2.932  14.587 -1.3792 -1.3442 -0.2266
16272TIP3    H270308   1.590   3.044  14.518  0.3103 -0.5783 -0.8333
16273TIP3   OH270309   2.752   3.968  15.401 -0.7353 -0.5850  0.1450
16273TIP3    H170310   2.777   4.001  15.487 -0.8713  0.6096 -0.2603
16273TIP3    H270311   2.660   3.992  15.392 -1.1530 -2.0271  0.2634
16274TIP3   OH270312   1.476   5.681  12.401  0.6911  0.0902  0.7345
16274TIP3    H170313   1.393   5.728  12.402  0.4396 -0.2816 -0.3703
16274TIP3    H270314   1.456   5.598  12.444 -0.0034 -0.7116 -1.0291
16275TIP3   OH270315   2.646   3.122  11.069 -0.0696 -0.0376 -0.1249
16275TIP3    H170316   2.726   3.081  11.103  0.3588 -0.0152 -1.0689
16275TIP3    H270317   2.650   3.108  10.974 -2.0414 -1.5483 -0.0515
16276TIP3   OH270318   2.409   1.935   2.839  0.0190 -0.5025  0.3341
16276TIP3    H170319   2.332   1.974   2.798  0.9128  2.1323  0.9900
16276TIP3    H270320   2.384   1.923   2.931 -0.2193 -1.4578  0.1558
16277TIP3   OH270321   4.468   4.721   3.027  0.0364  0.1670 -0.6522
16277TIP3    H170322   4.500   4.632   3.014  0.3364  0.2744 -0.6417
16277TIP3    H270323   4.481   4.737   3.121 -0.9106 -0.1280 -0.4504
16278TIP3   OH270324   3.686   0.954   2.347 -0.0316  0.1962  0.3639
16278TIP3    H170325   3.675   0.892   2.420  2.0831 -2.7850 -1.6356
16278TIP3    H270326   3.777   0.981   2.353 -0.2104  0.9813 -0.4007
16279TIP3   OH270327   0.802   4.600  12.077  0.6445  0.7392 -0.1687
16279TIP3    H170328   0.789   4.546  11.998  2.6075 -0.2483  0.1324
16279TIP3    H270329   0.784   4.540  12.150 -0.2878  1.4084  0.1672
16280TIP3   OH270330   3.214   4.087  13.582  0.3527  0.3074 -0.1327
16280TIP3    H170331   3.189   4.060  13.493  0.7594  0.3464 -0.2618
16280TIP3    H270332   3.309   4.073  13.585  0.4494  0.9906  0.0561
16281TIP3   OH270333   3.499   0.245   3.219 -0.0775 -0.3119  0.2058
16281TIP3    H170334   3.418   0.197   3.240  0.1497 -0.6467  0.3287
16281TIP3    H270335   3.562   0.215   3.285  0.3645 -0.6388 -0.3590
16282TIP3   OH270336   4.488   4.431   5.480 -0.2220  0.3243 -0.0377
16282TIP3    H170337   4.452   4.381   5.408 -0.7260 -0.0431  0.4585
16282TIP3    H270338   4.487   4.371   5.554  0.2440  0.7068  0.2867
16283TIP3   OH270339   1.633   6.585  13.341  0.3017 -0.2222  0.7155
16283TIP3    H170340   1.610   6.499  13.304  0.0972 -0.9546  2.4413
16283TIP3    H270341   1.555   6.638  13.328 -0.4705 -1.0563  1.7541
16284TIP3   OH270342   0.181   1.902  12.916  0.0554  0.4250 -0.2885
16284TIP3    H170343   0.154   1.943  12.998  0.0404  0.6820 -0.4196
16284TIP3    H270344   0.101   1.862  12.882  0.1734 -0.1322  0.0773
16285TIP3   OH270345   5.191   2.647  17.326 -0.1914  0.2490  0.1195
16285TIP3    H170346   5.159   2.566  17.286 -0.2275 -0.4454  1.4937
16285TIP3    H270347   5.142   2.654  17.408  2.0916 -0.0815  1.6070
16286TIP3   OH270348   4.013   2.222   1.613 -0.1564  0.0712 -0.2345
16286TIP3    H170349   4.023   2.296   1.672 -0.5825  0.2012 -0.3180
16286TIP3    H270350   3.935   2.243   1.562 -1.7765 -1.5595  1.4175
16287TIP3   OH270351   5.042   1.848   0.907  0.0543 -0.0121 -0.2859
16287TIP3    H170352   5.109   1.828   0.972 -1.4423 -1.3041  0.9473
16287TIP3    H270353   5.065   1.794   0.831  0.3301 -0.5622  0.1819
16288TIP3   OH270354   3.465   2.961   3.275 -0.1602  0.4627  0.8331
16288TIP3    H170355   3.486   2.880   3.227 -0.8285  0.8490 -0.1263
16288TIP3    H270356   3.395   2.936   3.335 -1.6896  0.7415 -0.7877
16289TIP3   OH270357   6.628   2.045  16.768 -0.0079  0.3632 -0.2521
16289TIP3    H170358   6.616   2.139  16.781 -0.2578  0.4601 -1.1238
16289TIP3    H270359   6.715   2.027  16.805  0.7298  1.2393 -1.4820
16290TIP3   OH270360   4.576   2.069  11.274  0.2553  0.5022  0.0564
16290TIP3    H170361   4.613   1.981  11.278 -1.8635 -0.4256  0.9268
16290TIP3    H270362   4.639   2.119  11.222  2.1109 -1.1989  0.5285
16291TIP3   OH270363   1.480   5.382  10.947 -0.5182 -0.1387 -0.0987
16291TIP3    H170364   1.517   5.415  11.030  1.0364  0.0233 -0.8158
16291TIP3    H270365   1.535   5.307  10.925  0.0708  0.7203 -1.7214
16292TIP3   OH270366   3.143   2.161  15.472 -0.4265  0.6714 -0.6243
16292TIP3    H170367   3.064   2.187  15.425 -0.2009  0.7346 -0.9733
16292TIP3    H270368   3.163   2.236  15.528 -0.3720  0.8266 -0.8513
16293TIP3   OH270369   1.815   6.170   0.269 -0.6318 -0.1332  1.0772
16293TIP3    H170370   1.767   6.088   0.268  0.0357 -0.5272  0.2595
16293TIP3    H270371   1.823   6.193   0.361 -0.8542 -0.9632  1.3050
16294TIP3   OH270372   0.072   2.444   2.323 -0.1822  0.1115  0.1556
16294TIP3    H170373   0.146   2.493   2.360 -1.4778  0.1131  2.9771
16294TIP3    H270374  -0.002   2.505   2.329 -0.9356 -0.7534 -0.2143
16295TIP3   OH270375   0.039   5.160   5.631  0.0217 -0.1899  0.3603
16295TIP3    H170376  -0.057   5.162   5.642  0.1357  0.9233  1.2890
16295TIP3    H270377   0.055   5.081   5.580 -1.4055 -0.3653  0.1401
16296TIP3   OH270378   3.989   0.940  10.900  0.1291  0.6523 -0.4598
16296TIP3    H170379   3.970   0.896  10.817 -1.1553  2.5882 -1.2467
16296TIP3    H270380   3.954   0.880  10.967 -3.2873  1.1792 -1.5865
16297TIP3   OH270381   3.175   2.669   0.040 -0.1352 -0.1294 -0.3231
16297TIP3    H170382   3.262   2.633   0.026 -0.0436 -0.3999  0.7739
16297TIP3    H270383   3.186   2.729   0.114 -0.6857  0.6096 -0.8335
16298TIP3   OH270384   5.627   1.898   5.321  0.0483 -0.1534 -0.4474
16298TIP3    H170385   5.607   1.871   5.231  1.3724 -1.4158 -0.3931
16298TIP3    H270386   5.708   1.852   5.342  1.2730  2.2555  0.4304
16299TIP3   OH270387   3.274   1.955   4.560  0.7191  0.5506 -0.0839
16299TIP3    H170388   3.216   1.884   4.530 -0.5993  1.1690  0.8932
16299TIP3    H270389   3.267   2.022   4.492  0.0985  0.7100  0.1314
16300TIP3   OH270390   5.289   5.878  15.018  0.3789  0.1046  0.4678
16300TIP3    H170391   5.197   5.902  15.014  0.4841  0.7488  1.5567
16300TIP3    H270392   5.318   5.905  15.105  0.4754 -4.1613  1.9973
16301TIP3   OH270393   4.090   4.393   0.560 -0.8142  0.1905  0.5187
16301TIP3    H170394   4.179   4.383   0.595  0.2260  1.6576 -1.4826
16301TIP3    H270395   4.050   4.459   0.616 -0.8907 -0.8666  1.7732
16302TIP3   OH270396   5.593   5.547   3.575 -0.1190 -0.0273 -0.2940
16302TIP3    H170397   5.586   5.570   3.483  0.0918 -0.1761 -0.3473
16302TIP3    H270398   5.556   5.622   3.622  0.7948  0.5351 -0.4504
16303TIP3   OH270399   0.580   5.552   5.005 -0.0831  0.1485  0.4185
16303TIP3    H170400   0.582   5.468   5.050 -0.4708  0.9507  1.9945
16303TIP3    H270401   0.569   5.617   5.075  0.0843  1.5039 -0.7653
16304TIP3   OH270402   6.222   4.777   4.231  0.5476  0.6194 -0.1645
16304TIP3    H170403   6.261   4.851   4.277 -0.2780  1.8613 -1.3879
16304TIP3    H270404   6.271   4.771   4.149 -1.2075  1.6643 -1.3430
16305TIP3   OH270405   5.485   6.096   5.875  0.4789  0.0464  0.8274
16305TIP3    H170406   5.465   6.172   5.931  1.9384  0.8119  0.3484
16305TIP3    H270407   5.565   6.121   5.828 -0.0789 -1.0301 -0.7727
16306TIP3   OH270408   0.583   2.834  11.845 -0.1058  0.4775  0.0546
16306TIP3    H170409   0.547   2.833  11.934 -1.7002  1.3033 -0.5317
16306TIP3    H270410   0.676   2.854  11.857 -0.3501  0.8934  1.5195
16307TIP3   OH270411   4.814   2.286   6.582  0.1784  0.0638 -0.6420
16307TIP3    H170412   4.855   2.217   6.633  1.1021  1.1974  0.2259
16307TIP3    H270413   4.827   2.365   6.635 -3.2721  0.5024 -0.2617
16308TIP3   OH270414   5.047   1.557   5.967 -0.2702  0.2098  0.7409
16308TIP3    H170415   5.087   1.519   5.888 -1.1614  0.0506  0.3578
16308TIP3    H270416   5.050   1.651   5.953 -1.5364  0.1548 -0.0595
16309TIP3   OH270417   1.784   1.816   6.168  0.5012 -0.0665 -0.2360
16309TIP3    H170418   1.716   1.753   6.193 -0.4813  0.8289 -0.5420
16309TIP3    H270419   1.753   1.899   6.205  1.8004  0.2300  0.2097
16310TIP3   OH270420   6.280   6.087   3.514 -0.0439 -0.3151 -0.0729
16310TIP3    H170421   6.233   6.030   3.454 -2.7773  2.6942 -1.0562
16310TIP3    H270422   6.345   6.131   3.459 -0.1075 -0.1454 -0.0106
16311TIP3   OH270423   6.067   3.483  14.110 -0.0628  0.2827  0.2521
16311TIP3    H170424   6.135   3.442  14.057 -0.7445 -0.5544 -0.0118
16311TIP3    H270425   6.049   3.566  14.067  0.0088  0.0036 -0.3276
16312TIP3   OH270426   3.566   3.508  11.802 -0.3453  0.2142  0.1300
16312TIP3    H170427   3.486   3.557  11.816  0.4558  1.9543 -1.0320
16312TIP3    H270428   3.539   3.416  11.801 -2.0733  0.6820  1.1920
16313TIP3   OH270429   0.298   6.215  16.623  0.6596 -0.0180  0.2202
16313TIP3    H170430   0.215   6.241  16.583  1.2014  2.8599  0.7499
16313TIP3    H270431   0.341   6.161  16.557 -0.2785  1.0919 -1.3527
16314TIP3   OH270432   5.841   2.768   5.777 -0.6449  0.1022 -0.1435
16314TIP3    H170433   5.930   2.765   5.743 -0.3893  0.0680  0.5031
16314TIP3    H270434   5.786   2.787   5.701  0.0124  1.1675 -0.3697
16315TIP3   OH270435   4.851   6.767   6.051 -0.3648  0.1471 -0.4258
16315TIP3    H170436   4.871   6.857   6.076 -1.1475 -0.0071  0.8706
16315TIP3    H270437   4.935   6.730   6.023  0.3240  0.7510  0.7761
16316TIP3   OH270438   0.918   2.122  13.292  0.1873 -0.5881 -0.1824
16316TIP3    H170439   0.917   2.064  13.368 -1.0544 -0.5358 -0.1383
16316TIP3    H270440   1.008   2.119  13.261  0.1660 -2.5433 -0.1898
16317TIP3   OH270441   2.384   1.839  13.375 -0.6684  0.5838  0.1327
16317TIP3    H170442   2.469   1.875  13.397 -0.0609  0.0656 -1.2723
16317TIP3    H270443   2.329   1.915  13.356  0.0181  0.8680 -0.7789
16318TIP3   OH270444   5.474   3.633   0.275 -0.0267 -0.9062  1.1851
16318TIP3    H170445   5.393   3.584   0.261 -0.0876 -1.1099  2.1230
16318TIP3    H270446   5.485   3.632   0.370  0.5368  0.0071  1.1335
16319TIP3   OH270447   4.060   2.762   5.444 -0.1859  0.0682 -0.0263
16319TIP3    H170448   4.121   2.825   5.404 -1.0112  1.3280  0.6514
16319TIP3    H270449   4.115   2.686   5.465  0.6380  0.1232 -1.7729
16320TIP3   OH270450   6.472   5.346   5.950  0.0541 -0.2601 -0.0938
16320TIP3    H170451   6.448   5.257   5.974  0.5039 -0.0822  1.0767
16320TIP3    H270452   6.397   5.399   5.978 -0.1248 -0.2379 -0.6020
16321TIP3   OH270453   2.363   4.626  16.507  0.2680 -0.1711  0.4390
16321TIP3    H170454   2.430   4.629  16.575  1.0059 -1.9370 -0.1512
16321TIP3    H270455   2.410   4.603  16.428 -0.8135  0.2737 -0.3715
16322TIP3   OH270456   5.893   0.381   3.895 -0.9922 -0.5138 -0.1151
16322TIP3    H170457   5.983   0.375   3.864 -1.0017  1.5752 -0.6467
16322TIP3    H270458   5.845   0.319   3.840  0.1898 -2.2436  0.6844
16323TIP3   OH270459   3.548   5.551   0.304 -0.2953 -0.7122 -0.8671
16323TIP3    H170460   3.541   5.646   0.315  2.2477 -0.3605 -1.6737
16323TIP3    H270461   3.602   5.522   0.378 -0.4880 -1.4400 -1.0045
16324TIP3   OH270462   2.810   2.196  14.269 -0.2341 -0.3321  0.1144
16324TIP3    H170463   2.841   2.274  14.223 -3.1550  1.3536  0.7221
16324TIP3    H270464   2.745   2.157  14.209  0.3150 -1.6396  0.3278
16325TIP3   OH270465   2.303   0.802  17.261  0.0204  0.1383 -0.8891
16325TIP3    H170466   2.353   0.879  17.288 -0.7958  0.9423 -1.5848
16325TIP3    H270467   2.358   0.758  17.197  0.5390  0.0691 -0.4044
16326TIP3   OH270468   0.449   2.606  15.418  0.1587  0.4348 -0.2427
16326TIP3    H170469   0.500   2.579  15.493  0.4285 -0.0484 -0.5963
16326TIP3    H270470   0.393   2.531  15.398  0.0469  0.5791 -0.4842
16327TIP3   OH270471   2.577   0.122   2.006 -0.2181 -0.4305 -0.3764
16327TIP3    H170472   2.500   0.102   2.060  0.3705 -1.2528  0.1901
16327TIP3    H270473   2.547   0.187   1.944 -1.7536 -1.7431 -1.0674
16328TIP3   OH270474   3.552   2.620  15.517 -0.2742 -0.2284  0.3001
16328TIP3    H170475   3.645   2.641  15.520 -0.6026  1.3580  0.3268
16328TIP3    H270476   3.534   2.605  15.424 -0.1503  0.2609  0.1959
16329TIP3   OH270477   4.945   3.820  16.826 -0.1226  0.3136 -0.3052
16329TIP3    H170478   4.913   3.730  16.837  0.4805  0.0591 -0.5800
16329TIP3    H270479   5.037   3.816  16.852 -0.0354  0.8011 -0.5381
16330TIP3   OH270480   6.072   4.015  15.506  0.0719 -0.1107  0.1839
16330TIP3    H170481   6.007   3.994  15.573  0.3118  1.6900  1.0678
16330TIP3    H270482   6.038   4.094  15.464 -0.3926 -1.5506 -2.3433
16331TIP3   OH270483   4.658   6.109  15.265 -0.1992 -0.7647  0.3023
16331TIP3    H170484   4.740   6.138  15.225 -0.1008 -0.0231  1.0117
16331TIP3    H270485   4.655   6.015  15.248  0.8263 -0.8116  0.3044
16332TIP3   OH270486   0.214   2.224   0.331 -0.1990 -0.0127  0.4196
16332TIP3    H170487   0.303   2.258   0.331  0.1943 -0.9238 -1.6220
16332TIP3    H270488   0.180   2.246   0.418  1.2216  2.3419  0.4529
16333TIP3   OH270489   4.721   4.652  12.586  0.2848 -0.6707 -0.3838
16333TIP3    H170490   4.733   4.607  12.503 -2.5915 -1.6865 -0.3880
16333TIP3    H270491   4.659   4.722  12.567  1.9092  1.0409  0.3601
16334TIP3   OH270492   0.273   3.744  10.601  0.0519  0.8048 -0.4092
16334TIP3    H170493   0.189   3.727  10.559 -0.5228  0.2441  0.8916
16334TIP3    H270494   0.297   3.660  10.641  0.4792  1.3413  0.5044
16335TIP3   OH270495   3.722   6.244   1.483  0.1318  0.0675  0.0453
16335TIP3    H170496   3.757   6.298   1.411  0.9870  0.7692  0.9593
16335TIP3    H270497   3.635   6.218   1.453 -0.2277  1.7945 -0.5356
16336TIP3   OH270498   4.442   5.931   0.611 -0.6578  0.0135  0.6926
16336TIP3    H170499   4.361   5.966   0.648 -0.4093 -0.7044  1.9484
16336TIP3    H270500   4.512   5.966   0.666 -0.5120 -4.0713  3.4767
16337TIP3   OH270501   5.859   0.886  13.234  0.0821  0.2425 -0.1295
16337TIP3    H170502   5.947   0.903  13.201  0.5842  1.1017  1.5851
16337TIP3    H270503   5.808   0.963  13.209  0.5305  1.0186  1.2842
16338TIP3   OH270504   2.145   0.083   6.331  0.1147  0.2975  0.2957
16338TIP3    H170505   2.121   0.104   6.241  1.3284 -0.9912 -0.3694
16338TIP3    H270506   2.139   0.166   6.378  0.1606  1.1408 -1.1341
16339TIP3   OH270507   4.956   5.984  10.537  0.3033 -0.3070  1.3127
16339TIP3    H170508   4.900   5.921  10.582 -2.0076 -0.0448 -0.9874
16339TIP3    H270509   4.920   6.069  10.560  0.2704 -0.0896  0.4903
16340TIP3   OH270510   5.828   4.554   1.238 -0.0642 -0.3533  0.0092
16340TIP3    H170511   5.845   4.632   1.185 -2.1844  0.2910  0.1846
16340TIP3    H270512   5.911   4.537   1.283  1.3110  0.0301 -2.2560
16341TIP3   OH270513   4.065   1.522   2.940 -0.4462 -0.3858 -0.0530
16341TIP3    H170514   4.121   1.494   2.868 -0.6008 -0.5500 -0.1106
16341TIP3    H270515   4.080   1.456   3.009  1.5934  1.1088  1.0281
16342TIP3   OH270516   4.300   2.283   4.414  0.2216 -0.3237  0.5060
16342TIP3    H170517   4.339   2.369   4.433 -3.2553  1.3505  0.7384
16342TIP3    H270518   4.256   2.295   4.330  3.7227 -3.5199 -2.1329
16343TIP3   OH270519   6.366   4.752   3.996  0.3489  0.3737 -0.7491
16343TIP3    H170520   6.428   4.823   4.016  1.1280  0.8202 -4.1657
16343TIP3    H270521   6.332   4.774   3.909 -0.9438 -2.4184 -1.0394
16344TIP3   OH270522   6.137   3.647  12.168 -0.2090  0.2869 -0.5975
16344TIP3    H170523   6.195   3.721  12.185 -2.2042  1.6986  0.3342
16344TIP3    H270524   6.125   3.647  12.073 -1.3376  2.1126 -0.4962
16345TIP3   OH270525   4.975   1.208   3.132 -0.5889  0.3811  0.5928
16345TIP3    H170526   4.952   1.126   3.089  1.6813 -0.3057  0.5395
16345TIP3    H270527   4.969   1.189   3.226  0.9007 -0.2020  0.5960
16346TIP3   OH270528   1.338   0.614   1.977  0.0001 -0.5547  0.1584
16346TIP3    H170529   1.313   0.706   1.980 -0.1707 -0.6176  0.7339
16346TIP3    H270530   1.423   0.611   2.022  0.1143 -0.6434 -0.0616
16347TIP3   OH270531   5.621   3.123  14.930 -0.0577 -0.4991  0.4292
16347TIP3    H170532   5.683   3.134  14.858 -0.3995  0.0612  0.2153
16347TIP3    H270533   5.675   3.100  15.005  0.3311 -0.7962  0.0646
16348TIP3   OH270534   5.137   2.622   1.913 -0.0628 -0.4386 -0.3455
16348TIP3    H170535   5.089   2.705   1.911 -1.1496 -1.0519 -0.5112
16348TIP3    H270536   5.069   2.555   1.909  0.7510 -1.3533  0.6971
16349TIP3   OH270537   5.163   0.505   1.219  0.3081 -0.7348  0.0289
16349TIP3    H170538   5.150   0.411   1.206  0.4536 -0.6957 -0.4186
16349TIP3    H270539   5.138   0.520   1.310 -0.2113 -1.1218 -0.0413
16350TIP3   OH270540   2.082   3.320  15.271  0.8453  0.1113 -0.4548
16350TIP3    H170541   2.095   3.414  15.286  0.1845  0.0761  0.3938
16350TIP3    H270542   2.092   3.280  15.358 -0.9869 -0.3473 -0.4149
16351TIP3   OH270543   0.344   0.337  14.079 -0.1015  0.3901  0.4083
16351TIP3    H170544   0.304   0.399  14.018  1.6402  0.0713 -1.1487
16351TIP3    H270545   0.354   0.257  14.028 -1.3049 -0.8777  2.0515
16352TIP3   OH270546   3.249   5.761   2.282 -0.2378 -0.1388 -0.1017
16352TIP3    H170547   3.236   5.817   2.359 -0.1358  1.0000 -0.8921
16352TIP3    H270548   3.336   5.784   2.250 -0.5920 -0.0405 -1.0080
16353TIP3   OH270549   3.709   1.350   3.869  0.4578  0.4377  0.3811
16353TIP3    H170550   3.687   1.442   3.887  2.3448  1.0127  0.0394
16353TIP3    H270551   3.766   1.354   3.793  0.1678 -1.0928  0.0559
16354TIP3   OH270552   3.649   3.253  11.304  0.1337  0.0500 -0.0778
16354TIP3    H170553   3.683   3.301  11.380 -0.0702 -1.2871  0.8902
16354TIP3    H270554   3.554   3.254  11.316  0.1703 -1.5930  0.6320
16355TIP3   OH270555   1.104   6.259  11.934 -0.3990 -0.3207 -0.2741
16355TIP3    H170556   1.020   6.244  11.890 -0.1858  1.1881 -1.2896
16355TIP3    H270557   1.093   6.342  11.980  0.8803  0.5250 -1.4113
16356TIP3   OH270558   0.169   4.218  12.348 -0.1986 -0.3771  0.4573
16356TIP3    H170559   0.158   4.160  12.423  0.6632 -0.7738  0.2848
16356TIP3    H270560   0.196   4.302  12.387  0.8382 -0.7456  0.5762
16357TIP3   OH270561   3.197   0.489   0.992  0.0854  0.4953  0.0854
16357TIP3    H170562   3.103   0.473   0.980  0.2280  0.4965 -1.1233
16357TIP3    H270563   3.201   0.558   1.058 -0.6881 -1.0507  1.8249
16358TIP3   OH270564   0.685   0.665   4.753 -0.2828 -0.4196  0.7856
16358TIP3    H170565   0.595   0.639   4.773 -0.1133 -1.7977 -0.1110
16358TIP3    H270566   0.736   0.635   4.828 -0.1487 -2.4569 -0.0608
16359TIP3   OH270567   4.119   0.350  15.037  0.4955 -0.3656 -0.3464
16359TIP3    H170568   4.159   0.404  14.968 -0.5789 -2.0960 -2.4328
16359TIP3    H270569   4.026   0.350  15.016 -0.0060 -0.2353  1.6814
16360TIP3   OH270570   3.166   5.509   2.761 -0.3865  0.3092 -0.1072
16360TIP3    H170571   3.075   5.511   2.793  0.3269  1.2287  2.0935
16360TIP3    H270572   3.164   5.561   2.681 -2.0018 -0.6926 -0.7745
16361TIP3   OH270573   0.011   2.889   0.345  0.1497  0.0535 -0.2285
16361TIP3    H170574   0.077   2.937   0.296  1.3837 -0.8592  0.4580
16361TIP3    H270575   0.039   2.896   0.436 -0.6072 -0.4842  0.0603
16362TIP3   OH270576   3.634   1.142   1.992  0.4376 -0.3516 -0.3978
16362TIP3    H170577   3.610   1.221   1.944  1.3837 -0.4293 -1.0323
16362TIP3    H270578   3.641   1.171   2.083  0.0775  0.1278 -0.5184
16363TIP3   OH270579   4.877   1.621  14.705 -0.3439 -0.4279 -0.5321
16363TIP3    H170580   4.816   1.584  14.769 -1.2739  0.1328 -1.0559
16363TIP3    H270581   4.855   1.575  14.623 -0.3719  0.0794 -0.8173
16364TIP3   OH270582   0.886   2.036   5.849  0.0033 -0.0213  0.4675
16364TIP3    H170583   0.841   1.985   5.782  2.4684 -1.3266 -0.3018
16364TIP3    H270584   0.941   2.098   5.800 -0.3915  1.0703  1.3553
16365TIP3   OH270585   2.434   5.254   5.444 -0.2308  0.0275 -0.1043
16365TIP3    H170586   2.516   5.303   5.435 -0.7978  0.7724 -1.6633
16365TIP3    H270587   2.420   5.247   5.538  1.8309 -0.5103  0.2214
16366TIP3   OH270588   0.119   1.796   6.653 -0.0775  0.1538 -0.6712
16366TIP3    H170589   0.063   1.850   6.708  1.3157 -0.0485  1.0706
16366TIP3    H270590   0.143   1.851   6.579 -1.3386  0.7386 -0.6541
16367TIP3   OH270591   1.677   1.432   0.981 -0.4517  0.5168 -0.1686
16367TIP3    H170592   1.621   1.358   0.959 -0.3371 -0.5728  2.7075
16367TIP3    H270593   1.766   1.400   0.969 -0.3878  1.0169 -1.1662
16368TIP3   OH270594   3.091   0.160  12.274 -0.5762  0.0645  0.1340
16368TIP3    H170595   3.138   0.100  12.332  0.3257 -1.1047 -1.7159
16368TIP3    H270596   3.134   0.245  12.286 -0.7472 -0.0145  1.5086
16369TIP3   OH270597   4.702   2.389   4.612  0.5630 -0.0032 -0.3956
16369TIP3    H170598   4.679   2.356   4.525  2.0200 -0.3897 -0.6674
16369TIP3    H270599   4.684   2.483   4.608  1.5610  0.1667 -1.4702
16370TIP3   OH270600   1.888   5.268   3.966 -0.4333  0.2537 -0.4671
16370TIP3    H170601   1.971   5.221   3.977  0.0549  0.1858 -3.4707
16370TIP3    H270602   1.909   5.337   3.904 -1.7223  3.0286  1.9626
16371TIP3   OH270603   1.779   6.744   2.362  0.2123  0.2477 -0.5349
16371TIP3    H170604   1.838   6.699   2.302  0.8578 -0.6760  0.7433
16371TIP3    H270605   1.808   6.835   2.361 -0.5390  0.4940 -2.4813
16372TIP3   OH270606   1.179   6.328  15.537  0.4304  0.5355 -0.1398
16372TIP3    H170607   1.219   6.319  15.450 -0.3454  2.4604 -0.7568
16372TIP3    H270608   1.252   6.348  15.595  0.8878 -0.1902 -0.4587
16373TIP3   OH270609   1.439   3.773  16.463 -0.3500 -0.1601  0.4348
16373TIP3    H170610   1.421   3.765  16.369  1.8475 -1.3393  0.0466
16373TIP3    H270611   1.522   3.820  16.468 -1.5336  1.9877  1.9575
16374TIP3   OH270612   4.641   6.797   5.631 -0.4232  0.4381 -0.5831
16374TIP3    H170613   4.566   6.854   5.611 -1.3163 -0.5556 -0.1563
16374TIP3    H270614   4.717   6.856   5.628 -1.2455  1.5282 -0.7462
16375TIP3   OH270615   3.019   4.570   4.386 -0.2808  0.2606  0.4978
16375TIP3    H170616   2.946   4.622   4.354  0.4418  1.6727  1.0400
16375TIP3    H270617   2.978   4.503   4.441 -1.1729  1.1150  0.9146
16376TIP3   OH270618   0.405   6.024  16.450  0.0056 -0.5064  0.6435
16376TIP3    H170619   0.482   6.052  16.401 -1.5717 -1.7709 -2.9866
16376TIP3    H270620   0.435   5.951  16.503  1.8007  0.7938  1.5327
16377TIP3   OH270621   3.762   5.328   6.977  0.2980 -0.2414  0.0595
16377TIP3    H170622   3.734   5.249   7.023 -0.1809  0.0272  0.2356
16377TIP3    H270623   3.688   5.350   6.920 -0.2416  0.9756  1.1739
16378TIP3   OH270624   6.650   2.091  15.088 -0.2539  0.3503  0.3365
16378TIP3    H170625   6.723   2.143  15.055 -0.3424  1.2424  1.4687
16378TIP3    H270626   6.573   2.123  15.041 -0.2837  1.1571  0.9207
16379TIP3   OH270627   2.541   3.956   4.091 -0.0417 -0.1101 -0.5400
16379TIP3    H170628   2.489   3.909   4.156  2.6937 -1.3888  0.8995
16379TIP3    H270629   2.611   3.895   4.068 -0.8497  0.2745 -4.8083
16380TIP3   OH270630   0.015   1.286  12.019 -0.3863  0.4031  0.2440
16380TIP3    H170631  -0.033   1.335  12.086 -0.3624  1.3814 -0.4287
16380TIP3    H270632   0.085   1.345  11.992 -0.1228 -0.1566 -0.3260
16381TIP3   OH270633   6.448   5.173   3.415 -0.1295  0.1639 -0.4633
16381TIP3    H170634   6.363   5.131   3.428  0.1231 -0.3142 -0.3211
16381TIP3    H270635   6.432   5.267   3.428 -0.2728 -0.0838  1.4369
16382TIP3   OH270636   0.612   2.192   1.893  0.0271 -0.2438  0.4320
16382TIP3    H170637   0.635   2.204   1.801 -0.6138 -0.2655  0.2622
16382TIP3    H270638   0.690   2.219   1.941 -0.0803  1.0501 -0.0731
16383TIP3   OH270639   1.247   4.990  15.946 -0.3373 -0.1326  0.2261
16383TIP3    H170640   1.249   4.969  15.853  0.7261 -1.1200  0.4443
16383TIP3    H270641   1.166   5.040  15.958 -0.2025  0.5085 -1.3153
16384TIP3   OH270642   3.618   5.771  12.520  0.1269  0.3967  0.2191
16384TIP3    H170643   3.530   5.759  12.484  0.2045 -0.0501  0.1794
16384TIP3    H270644   3.668   5.696  12.488 -0.0006 -0.4405  1.8968
16385TIP3   OH270645   2.281   4.651  16.155 -0.0264 -0.8952 -1.2206
16385TIP3    H170646   2.376   4.637  16.150  0.4120  1.7960 -2.0126
16385TIP3    H270647   2.257   4.687  16.070 -1.0575  1.8316  0.1144
16386TIP3   OH270648   5.515   0.848   5.047 -0.4481 -0.3156 -0.0049
16386TIP3    H170649   5.565   0.791   5.105  0.1472  0.0450 -0.1518
16386TIP3    H270650   5.443   0.794   5.016 -1.1581 -0.3238  1.5677
16387TIP3   OH270651   5.251   4.812   0.471  0.4437  0.4239 -0.1568
16387TIP3    H170652   5.192   4.886   0.485  0.7151  0.5691  0.2404
16387TIP3    H270653   5.196   4.743   0.435  0.4570  1.3240 -2.0260
16388TIP3   OH270654   3.680   1.550  14.176 -0.2548  0.3818 -0.3462
16388TIP3    H170655   3.771   1.574  14.155  0.1899 -0.6635  0.2964
16388TIP3    H270656   3.662   1.594  14.259 -0.0047 -0.1507 -0.0024
16389TIP3   OH270657   1.193   1.901  16.118  0.9489 -1.1104  0.1373
16389TIP3    H170658   1.230   1.902  16.029  0.5048  0.2289 -0.0623
16389TIP3    H270659   1.245   1.966  16.166 -0.9564  0.7102 -0.1115
16390TIP3   OH270660   4.004   2.781   2.557  0.2810 -0.1603 -0.5762
16390TIP3    H170661   4.080   2.751   2.508  1.0718  0.3144  0.3312
16390TIP3    H270662   4.003   2.876   2.543 -1.2842 -0.3468 -2.1382
16391TIP3   OH270663   0.865   4.189   1.216 -0.1501  0.1429  0.0870
16391TIP3    H170664   0.826   4.135   1.147 -0.5789 -0.6006  0.8843
16391TIP3    H270665   0.811   4.268   1.217 -1.1617 -0.5261  0.6239
16392TIP3   OH270666   0.454   3.511  15.139 -0.3792 -0.0415 -0.0593
16392TIP3    H170667   0.452   3.430  15.087 -0.9933  0.0018 -0.1065
16392TIP3    H270668   0.548   3.531  15.147 -0.2333 -0.5841 -0.3120
16393TIP3   OH270669   3.699   1.701   2.899  0.0509  0.5555 -0.4391
16393TIP3    H170670   3.653   1.717   2.982  0.9451  1.2039 -0.0609
16393TIP3    H270671   3.777   1.756   2.904  1.8027 -1.7923 -0.3164
16394TIP3   OH270672   3.068   6.590   0.386  0.6947  0.0976 -0.5387
16394TIP3    H170673   3.022   6.522   0.436  0.3091  1.2586  0.7637
16394TIP3    H270674   3.114   6.641   0.453  0.8295  1.2144 -1.4541
16395TIP3   OH270675   6.709   1.151  12.738 -0.2767 -0.0029  0.1178
16395TIP3    H170676   6.644   1.167  12.806 -0.0010  0.5648  0.2586
16395TIP3    H270677   6.792   1.178  12.778  0.2177 -1.6935  0.3209
16396TIP3   OH270678   5.555   0.428  14.059  0.3795 -0.0306  0.2956
16396TIP3    H170679   5.521   0.414  13.971 -0.6938  0.7959  0.5629
16396TIP3    H270680   5.647   0.403  14.054  0.4595  0.5056 -1.1935
16397TIP3   OH270681   0.717   5.761  10.429  0.2580 -0.0590 -0.2220
16397TIP3    H170682   0.641   5.815  10.451  1.9442  2.2111  0.3211
16397TIP3    H270683   0.712   5.752  10.334  0.0479  1.2586 -0.3544
16398TIP3   OH270684   3.656   0.269  14.417  0.1116 -0.1714  0.4475
16398TIP3    H170685   3.674   0.362  14.430 -1.0557 -0.0111  1.0381
16398TIP3    H270686   3.620   0.264  14.328  2.0073 -0.3685 -0.3741
16399TIP3   OH270687   4.336   5.268  16.886 -0.0473 -0.3739  0.7518
16399TIP3    H170688   4.307   5.264  16.977  1.5626 -0.8300  1.2676
16399TIP3    H270689   4.278   5.333  16.845 -1.1202 -0.5353  1.9532
16400TIP3   OH270690   6.585   4.233   0.502  1.0074 -0.3460 -0.3395
16400TIP3    H170691   6.525   4.282   0.446  0.4806 -1.0681 -0.4234
16400TIP3    H270692   6.661   4.216   0.447  0.9975 -0.0246 -0.4535
16401TIP3   OH270693   1.582   4.626   2.470  0.5706 -0.8491  0.1373
16401TIP3    H170694   1.500   4.581   2.450 -0.4157 -0.2827  2.5434
16401TIP3    H270695   1.589   4.695   2.403 -0.4836 -1.4142 -0.5754
16402TIP3   OH270696   3.287   5.623   0.197 -0.0044 -0.7907 -0.3961
16402TIP3    H170697   3.322   5.700   0.153  1.5196 -0.3147  1.5031
16402TIP3    H270698   3.192   5.637   0.197  0.1886  0.7379 -0.7088
16403TIP3   OH270699   2.258   2.127  16.517  0.1434  0.0206 -0.0966
16403TIP3    H170700   2.272   2.142  16.610  0.0694  1.3187 -0.2697
16403TIP3    H270701   2.329   2.174  16.474 -0.9107  1.1029 -0.7454
16404TIP3   OH270702   5.008   0.048  10.421  0.0291 -0.8057 -0.3673
16404TIP3    H170703   5.077   0.068  10.484 -1.1481  0.5050  0.5587
16404TIP3    H270704   5.023   0.108  10.349 -0.7460  0.2392  0.3175
16405TIP3   OH270705   0.200   2.964  14.425  0.1993  0.0898 -0.1492
16405TIP3    H170706   0.203   3.055  14.452 -0.0651  0.0912 -0.1276
16405TIP3    H270707   0.170   2.967  14.334  0.7050  0.0602 -0.3206
16406TIP3   OH270708   5.467   3.573   4.003 -0.1178 -0.3224 -0.1957
16406TIP3    H170709   5.413   3.517   4.058 -0.7609  0.8261  0.3882
16406TIP3    H270710   5.499   3.641   4.062  0.8702 -0.2145 -0.8236
16407TIP3   OH270711   3.836   2.063  13.779 -0.1383  0.3936 -0.4582
16407TIP3    H170712   3.813   1.974  13.805 -1.0088  0.7015 -0.1293
16407TIP3    H270713   3.845   2.059  13.684 -0.6416  0.0493 -0.4953
16408TIP3   OH270714   2.313   2.777   0.326  0.2481 -0.0374 -0.4710
16408TIP3    H170715   2.251   2.832   0.373  0.3789  0.4334 -0.8443
16408TIP3    H270716   2.398   2.820   0.339  0.3732 -0.2251 -0.6567
16409TIP3   OH270717   1.921   5.054  13.225 -0.1265 -0.1994 -0.1236
16409TIP3    H170718   1.831   5.025  13.207 -0.8525  0.6566  1.8710
16409TIP3    H270719   1.954   4.992  13.289 -0.0580  0.6726  0.7124
16410TIP3   OH270720   2.121   3.695  14.279  0.6446 -0.4207 -0.1254
16410TIP3    H170721   2.205   3.662  14.248  0.9918 -0.3191  0.6932
16410TIP3    H270722   2.135   3.789  14.293  0.1788 -0.2576 -0.7033
16411TIP3   OH270723   2.658   2.853   2.151 -0.1984  0.0434 -0.3983
16411TIP3    H170724   2.609   2.848   2.069 -1.4346  0.8229  0.2685
16411TIP3    H270725   2.686   2.944   2.156 -0.6478  0.1447  0.3331
16412TIP3   OH270726   0.969   5.634  12.088 -0.5991 -0.1162  0.7989
16412TIP3    H170727   0.896   5.655  12.147 -0.5652  0.2534  0.7121
16412TIP3    H270728   1.035   5.595  12.145 -0.6682  0.0068  0.9664
16413TIP3   OH270729   5.078   5.956   3.578  0.0024 -0.1843  0.3250
16413TIP3    H170730   5.009   6.000   3.528  1.1243  1.4623  0.1303
16413TIP3    H270731   5.057   5.976   3.669 -0.9048 -1.4650  0.4270
16414TIP3   OH270732   2.639   4.974   5.859 -0.0872  0.1501  0.0036
16414TIP3    H170733   2.551   4.941   5.841 -0.1801  0.1233  0.4766
16414TIP3    H270734   2.637   4.996   5.953  0.7493 -0.9234  0.2896
16415TIP3   OH270735   3.189   5.964   2.471 -0.1967  0.0629  0.1760
16415TIP3    H170736   3.268   5.950   2.523  0.4697  0.1168 -0.8047
16415TIP3    H270737   3.135   6.022   2.525  0.8452  0.8085  0.4409
16416TIP3   OH270738   2.332   4.094  15.647 -0.1212 -0.1535  0.6125
16416TIP3    H170739   2.249   4.046  15.653  0.0446 -0.4141  0.8013
16416TIP3    H270740   2.354   4.116  15.737  0.3367 -0.6321  0.6237
16417TIP3   OH270741   2.456   4.235  12.985 -0.6333  0.2452 -0.2354
16417TIP3    H170742   2.489   4.148  13.009  0.1778  0.5967 -0.0768
16417TIP3    H270743   2.474   4.242  12.891 -1.6186 -0.1539 -0.4698
16418TIP3   OH270744   0.447   0.672   3.705  0.1347 -0.6664 -0.5515
16418TIP3    H170745   0.478   0.595   3.753  0.0959  1.2984  2.9600
16418TIP3    H270746   0.526   0.724   3.689 -0.3558  1.2362  2.4878
16419TIP3   OH270747   5.752   2.437  16.356  0.0333  0.6503  0.2922
16419TIP3    H170748   5.841   2.401  16.351  0.2884  0.7864  2.6598
16419TIP3    H270749   5.759   2.509  16.419 -1.8218  0.4984  0.7249
16420TIP3   OH270750   0.744   2.226   0.055 -0.2378 -0.2186 -0.2003
16420TIP3    H170751   0.751   2.133   0.074 -0.0716 -0.1587  0.0314
16420TIP3    H270752   0.685   2.260   0.122  1.9053  0.3636  1.4847
16421TIP3   OH270753   2.115   2.021  12.829 -0.0363  0.1592  0.2799
16421TIP3    H170754   2.154   2.030  12.916  0.4256  0.4981  0.0426
16421TIP3    H270755   2.152   1.940  12.794 -1.4333 -0.8312  1.0055
16422TIP3   OH270756   1.347   0.002  15.817  0.4544  0.4555  0.1176
16422TIP3    H170757   1.311  -0.019  15.904  0.3529 -1.6513 -0.3675
16422TIP3    H270758   1.273  -0.009  15.758  0.6403  1.4197 -0.3172
16423TIP3   OH270759   3.383   5.789   4.554 -0.3215  0.6884  0.0620
16423TIP3    H170760   3.451   5.794   4.622  0.3113 -2.6362 -0.1507
16423TIP3    H270761   3.301   5.798   4.602  0.1620  0.2322  1.0105
16424TIP3   OH270762   3.410   5.197   0.994 -0.0349 -0.2936  0.2492
16424TIP3    H170763   3.481   5.236   0.944  0.6801 -3.1622 -1.2317
16424TIP3    H270764   3.340   5.262   0.992  1.1671  1.0225 -1.7241
16425TIP3   OH270765   2.085   2.950   1.340 -0.4572  0.2970 -0.8758
16425TIP3    H170766   2.101   3.041   1.314  1.1773  0.9145  1.8829
16425TIP3    H270767   2.171   2.908   1.333 -0.7697 -0.4837 -0.1412
16426TIP3   OH270768   2.561   4.681  16.690 -0.4213  0.3137 -0.0685
16426TIP3    H170769   2.653   4.664  16.707 -0.0948 -0.3039 -2.1635
16426TIP3    H270770   2.535   4.745  16.756  1.3709  0.1722  0.8215
16427TIP3   OH270771   5.001   0.031  12.113  0.1210  0.1547 -0.6372
16427TIP3    H170772   4.910   0.049  12.088  0.4665  2.4390 -0.4970
16427TIP3    H270773   5.047   0.019  12.029 -0.3088 -1.1515 -0.7036
16428TIP3   OH270774   1.456   6.131  14.100  0.2782  0.0916  0.2746
16428TIP3    H170775   1.517   6.203  14.088  0.9858 -0.2859  1.4667
16428TIP3    H270776   1.501   6.054  14.065  1.2263 -0.4979  2.6187
16429TIP3   OH270777   0.482   1.920   0.969 -0.0357  0.0304  0.7608
16429TIP3    H170778   0.416   1.973   1.013  0.0563 -0.4932  1.5449
16429TIP3    H270779   0.475   1.944   0.877 -1.5169 -0.2192  0.7929
16430TIP3   OH270780   1.938   2.366   2.312  0.0845  0.1847 -0.4994
16430TIP3    H170781   1.966   2.275   2.322 -0.3831  0.0049 -0.7907
16430TIP3    H270782   2.009   2.408   2.262  0.7250  0.2099  0.3990
16431TIP3   OH270783   0.284   6.039   3.699 -0.5178 -0.0167  0.2203
16431TIP3    H170784   0.315   5.980   3.630  0.1214 -0.1269  0.5959
16431TIP3    H270785   0.233   6.106   3.652 -1.2310 -0.8464 -0.2105
16432TIP3   OH270786   2.235   6.504   2.123  0.6199 -0.2520 -0.8200
16432TIP3    H170787   2.146   6.488   2.154 -0.6160  2.4837 -2.5718
16432TIP3    H270788   2.242   6.454   2.041  1.5122 -2.1331  0.3462
16433TIP3   OH270789   2.217   4.097   4.290 -0.1142  0.1711 -0.0089
16433TIP3    H170790   2.168   4.150   4.228 -0.8907 -1.0725 -0.4859
16433TIP3    H270791   2.221   4.151   4.369 -4.0739 -0.3831  0.7899
16434TIP3   OH270792   2.104   2.093  15.184  0.5700 -0.4956  0.3642
16434TIP3    H170793   2.092   2.173  15.235  2.3686 -1.3784  2.3658
16434TIP3    H270794   2.197   2.094  15.161  0.3195 -1.3707 -0.7419
16435TIP3   OH270795   1.074   3.459   5.635 -0.2796  0.4327 -0.0217
16435TIP3    H170796   1.100   3.455   5.543  1.1322 -1.4942  0.4261
16435TIP3    H270797   1.142   3.412   5.683 -0.8856  1.5177  2.0687
16436TIP3   OH270798   0.294   2.681   0.890  0.5411  0.1977 -0.2061
16436TIP3    H170799   0.228   2.748   0.910  1.2478  0.9967 -0.4859
16436TIP3    H270800   0.270   2.607   0.946 -0.1814  0.7327  0.2175
16437TIP3   OH270801   0.602   4.906   3.228 -0.4868 -0.0454 -0.1068
16437TIP3    H170802   0.583   4.986   3.179  0.0364  1.0993  1.4755
16437TIP3    H270803   0.682   4.872   3.188 -0.6277  0.2937 -0.6904
16438TIP3   OH270804   1.680   4.825   2.312  0.1351  0.2043  0.3980
16438TIP3    H170805   1.648   4.880   2.240 -2.3782  1.1197  2.0809
16438TIP3    H270806   1.692   4.885   2.385  1.6410 -0.8633  1.0755
16439TIP3   OH270807   6.460   3.807   1.973 -0.6811 -0.2829 -0.5511
16439TIP3    H170808   6.374   3.849   1.973 -0.2295  0.6526 -0.5551
16439TIP3    H270809   6.523   3.879   1.973  0.1478 -0.8855  2.5685
16440TIP3   OH270810   6.540   6.395  16.440  0.0288  0.3097  0.0124
16440TIP3    H170811   6.455   6.352  16.427  1.1829 -1.5628 -2.0018
16440TIP3    H270812   6.597   6.354  16.376  2.9182  0.3593  2.3727
16441TIP3   OH270813   0.745   3.014   4.350 -0.0319  0.3797 -0.0651
16441TIP3    H170814   0.800   3.077   4.303 -0.1362 -1.3874 -2.7884
16441TIP3    H270815   0.800   2.985   4.423  0.7886  2.0889  0.0486
16442TIP3   OH270816   1.575   5.230   6.429 -0.6310 -0.3291  0.5654
16442TIP3    H170817   1.550   5.288   6.356  0.3232  0.0287  0.5174
16442TIP3    H270818   1.670   5.222   6.422 -0.6333 -1.0134  1.2470
16443TIP3   OH270819   3.785   0.403   0.094  0.7779 -0.4315 -0.3029
16443TIP3    H170820   3.817   0.324   0.137 -1.8776 -0.3733  2.0353
16443TIP3    H270821   3.715   0.372   0.036  0.2462  0.0903  0.0474
16444TIP3   OH270822   2.055   3.954   4.008  0.1326  1.0002 -0.0190
16444TIP3    H170823   1.993   3.990   4.071 -0.9094 -0.0146 -0.4241
16444TIP3    H270824   2.111   4.028   3.985 -1.0375  2.0036  0.2374
16445TIP3   OH270825   3.979   1.812   1.569 -0.0283 -0.1173 -0.3084
16445TIP3    H170826   4.007   1.776   1.653  0.2447  0.5076 -0.1295
16445TIP3    H270827   4.039   1.884   1.551 -1.2386  0.9760 -0.1146
16446TIP3   OH270828   1.174   4.357   2.173  0.0240 -0.6044  0.3135
16446TIP3    H170829   1.148   4.449   2.182  0.3855 -0.6789  2.9254
16446TIP3    H270830   1.121   4.324   2.100 -0.7737  1.4194 -0.0951
16447TIP3   OH270831   2.978   2.282   2.460 -0.6607  0.1719 -0.2699
16447TIP3    H170832   2.976   2.202   2.407 -1.1464  0.2133 -0.3206
16447TIP3    H270833   3.069   2.289   2.489  0.3586  1.6601 -3.3795
16448TIP3   OH270834   6.364   0.136  15.533  0.0670  0.6545 -0.2037
16448TIP3    H170835   6.378   0.162  15.442 -1.2702  0.7939 -0.3891
16448TIP3    H270836   6.430   0.185  15.582 -0.7165  2.4776 -0.8552
16449TIP3   OH270837   0.159   3.298  14.936  0.1523 -0.2657 -0.9391
16449TIP3    H170838   0.174   3.305  15.030 -1.8378 -0.5556 -0.5539
16449TIP3    H270839   0.209   3.221  14.910 -1.0395 -1.5483  0.3510
16450TIP3   OH270840   3.188   5.781  14.581  0.3031 -0.0205 -0.0779
16450TIP3    H170841   3.106   5.750  14.544  0.9340 -1.2091 -0.5571
16450TIP3    H270842   3.228   5.834  14.511 -0.0883  0.6438  0.1927
16451TIP3   OH270843   2.946   6.031  11.710  0.1694 -0.0511  0.3321
16451TIP3    H170844   3.018   6.035  11.648 -2.3150 -1.7624 -3.0134
16451TIP3    H270845   2.962   5.953  11.762  1.5049  0.5312  0.8272
16452TIP3   OH270846   2.136   6.103   1.581 -0.1238 -0.4990  0.4890
16452TIP3    H170847   2.206   6.167   1.571  0.6140 -1.4029 -0.3087
16452TIP3    H270848   2.086   6.134   1.657  0.6713  0.5742  0.6034
16453TIP3   OH270849   2.335   0.650  16.951  0.1466 -0.1309 -0.4056
16453TIP3    H170850   2.307   0.726  16.900  1.3239 -0.0920 -1.0257
16453TIP3    H270851   2.270   0.583  16.933 -1.6655  1.0918  1.1760
16454TIP3   OH270852   2.823   6.207   1.611 -0.1162 -0.6774  0.1119
16454TIP3    H170853   2.733   6.190   1.638 -0.7336  1.2644 -0.5300
16454TIP3    H270854   2.871   6.128   1.634 -1.2840 -0.5111  3.6505
16455TIP3   OH270855   3.888   2.666  12.377  0.5811  0.3364  0.0878
16455TIP3    H170856   3.844   2.602  12.321  1.8545 -0.4258 -0.0778
16455TIP3    H270857   3.914   2.736  12.316 -3.1774  2.4787  0.6322
16456TIP3   OH270858   3.378   3.647   4.627 -0.0969 -0.0336 -0.5026
16456TIP3    H170859   3.460   3.671   4.669 -0.1247 -0.0531 -0.4372
16456TIP3    H270860   3.403   3.585   4.558 -0.1320 -0.5895 -0.0238
16457TIP3   OH270861   5.083   6.135   0.027  0.4822  0.2607  0.6386
16457TIP3    H170862   5.155   6.079   0.055  0.3129 -0.0383  0.4732
16457TIP3    H270863   5.071   6.114  -0.065  1.0765  1.2857  0.3052
16458TIP3   OH270864   4.728   5.053  15.344 -0.6897 -0.3395 -0.1796
16458TIP3    H170865   4.752   4.961  15.355 -0.3421 -0.4415 -1.6055
16458TIP3    H270866   4.773   5.099  15.415 -0.3965 -1.1913  0.1912
16459TIP3   OH270867   2.825   1.523  14.689 -0.3972 -0.2874  0.4228
16459TIP3    H170868   2.895   1.589  14.686 -0.3935 -0.3407 -0.9906
16459TIP3    H270869   2.872   1.440  14.694 -0.3920 -0.2298  3.2495
16460TIP3   OH270870   4.803   0.649   1.255  1.2669 -0.2855 -0.5193
16460TIP3    H170871   4.751   0.727   1.272 -0.6754 -1.8740  1.2372
16460TIP3    H270872   4.787   0.628   1.163 -1.6193 -0.9416  0.0562
16461TIP3   OH270873   3.127   3.344   1.988 -0.3153 -0.7718 -0.2777
16461TIP3    H170874   3.193   3.406   2.019 -2.2337  1.1750  0.2398
16461TIP3    H270875   3.119   3.280   2.059  0.7042 -0.8000 -0.1781
16462TIP3   OH270876   4.337   2.788  11.461 -0.2732  0.2938  0.2947
16462TIP3    H170877   4.384   2.838  11.393  0.1632  2.4188  2.0370
16462TIP3    H270878   4.258   2.757  11.417  0.4062  0.8346 -1.4111
16463TIP3   OH270879   2.468   2.913  13.004  0.4400  0.3123 -0.2053
16463TIP3    H170880   2.482   2.837  13.060  1.1279  0.5329 -0.0682
16463TIP3    H270881   2.441   2.982  13.064  0.3418  0.3241 -0.2623
16464TIP3   OH270882   2.553   0.994   3.848  0.2357  0.1858 -0.2587
16464TIP3    H170883   2.499   1.047   3.906 -1.6211 -1.5090 -0.3621
16464TIP3    H270884   2.643   1.023   3.866 -0.5599  2.0948  0.9303
16465TIP3   OH270885   2.624   5.569   0.642 -0.1193  0.4199  0.4353
16465TIP3    H170886   2.575   5.650   0.628 -0.0774  0.1015 -2.0668
16465TIP3    H270887   2.557   5.504   0.664 -0.2958  0.8394  1.1750
16466TIP3   OH270888   5.154   1.469   5.740 -0.4619 -0.4213  0.5387
16466TIP3    H170889   5.172   1.378   5.716 -0.5073 -0.5666  1.0468
16466TIP3    H270890   5.173   1.518   5.661 -2.5852 -1.1029 -0.4819
16467TIP3   OH270891   4.711   2.754  15.226 -0.2788  0.2487 -0.0828
16467TIP3    H170892   4.620   2.729  15.210  0.3192 -1.6992 -0.6430
16467TIP3    H270893   4.735   2.809  15.151 -0.6467 -0.2079 -0.5384
16468TIP3   OH270894   2.198   3.989   3.676  0.1339 -0.8496  0.7646
16468TIP3    H170895   2.196   4.079   3.643  1.9172 -1.7766 -2.2544
16468TIP3    H270896   2.285   3.980   3.716 -0.7255 -0.7791  2.7872
16469TIP3   OH270897   4.280   3.908   6.438 -0.0368 -0.3615  0.2374
16469TIP3    H170898   4.360   3.882   6.484  0.5037  1.6613  0.5429
16469TIP3    H270899   4.249   3.986   6.485  0.0334  1.2734 -2.2333
16470TIP3   OH270900   2.654   5.186   1.618  0.0943  0.3935  0.6801
16470TIP3    H170901   2.745   5.155   1.624  0.0179 -0.0386 -0.2364
16470TIP3    H270902   2.617   5.167   1.704  0.0763 -2.0428  0.1997
16471TIP3   OH270903   0.006   1.700   3.780  0.2830 -0.1678  0.2603
16471TIP3    H170904   0.031   1.780   3.826 -0.5393 -0.6123  1.5440
16471TIP3    H270905   0.064   1.696   3.704  1.0158  1.1087  0.7311
16472TIP3   OH270906   5.158   0.965  13.766  0.5924  0.7919 -0.1553
16472TIP3    H170907   5.152   1.020  13.844  0.9628 -0.0680  0.4958
16472TIP3    H270908   5.067   0.943  13.746  0.5265  0.6166  0.3292
16473TIP3   OH270909   0.650   0.243   2.692 -0.4496  0.4856  0.1799
16473TIP3    H170910   0.629   0.160   2.650 -0.1090  0.3436  0.2888
16473TIP3    H270911   0.566   0.288   2.700 -0.4652  0.7004 -1.0263
16474TIP3   OH270912   4.378   4.047   0.543  0.1442 -0.3656  0.1404
16474TIP3    H170913   4.400   3.984   0.475  1.1615 -0.5400  0.6019
16474TIP3    H270914   4.321   4.111   0.500 -1.4363 -1.9236 -0.1736
16475TIP3   OH270915   5.373   0.359  13.085 -0.4371  0.9568 -0.4072
16475TIP3    H170916   5.287   0.325  13.064 -0.3594  0.9317 -0.6798
16475TIP3    H270917   5.433   0.285  13.074 -0.4906  0.7468  0.6054
16476TIP3   OH270918   4.197   3.639  11.428 -0.0527 -0.1209  0.1277
16476TIP3    H170919   4.211   3.592  11.346 -0.4688  1.5454 -0.9408
16476TIP3    H270920   4.107   3.618  11.454 -1.3266  2.2346 -1.9034
16477TIP3   OH270921   0.282   2.295   1.735 -0.2948  0.4213 -0.0547
16477TIP3    H170922   0.227   2.292   1.813  3.2466 -0.0254  2.7167
16477TIP3    H270923   0.277   2.206   1.699 -0.0232 -0.1386  1.2299
16478TIP3   OH270924   1.051   1.027  10.591 -0.1514 -0.6468 -0.1302
16478TIP3    H170925   1.096   0.949  10.557  0.4161 -0.5548  0.4019
16478TIP3    H270926   0.999   1.058  10.516 -0.4391 -1.5663 -0.3333
16479TIP3   OH270927   2.619   0.907   2.009  0.4622  0.3641 -0.6320
16479TIP3    H170928   2.588   0.997   2.006 -1.7245 -0.3304 -0.3189
16479TIP3    H270929   2.637   0.890   2.101  0.1102  0.2514 -0.5818
16480TIP3   OH270930   6.647   2.113  13.919  0.6368 -0.5540 -0.1276
16480TIP3    H170931   6.733   2.149  13.941 -0.4693  2.1296  0.2197
16480TIP3    H270932   6.629   2.147  13.831  0.5865 -2.4913 -0.9119
16481TIP3   OH270933   2.957   2.971  16.945  0.3855 -0.2592 -0.0975
16481TIP3    H170934   2.946   2.986  16.851  1.6334 -1.3454 -0.4503
16481TIP3    H270935   2.878   3.006  16.985  0.1681  0.8800 -1.4840
16482TIP3   OH270936   4.346   2.735   4.884  0.1430  0.1229  0.5834
16482TIP3    H170937   4.357   2.645   4.854 -0.2410  0.4377 -0.5596
16482TIP3    H270938   4.253   2.741   4.907 -0.1340  0.5605 -0.5719
16483TIP3   OH270939   6.264   2.337   2.825 -0.0476  0.1077 -0.0336
16483TIP3    H170940   6.239   2.318   2.916 -0.3937  0.8212  0.0249
16483TIP3    H270941   6.279   2.431   2.823  0.4276  0.0224 -0.6119
16484TIP3   OH270942   0.827   6.267   2.662 -0.0694  0.0313 -0.1867
16484TIP3    H170943   0.903   6.322   2.679 -0.7673  0.9540  0.0571
16484TIP3    H270944   0.840   6.234   2.574 -0.9677  2.8940 -1.5020
16485TIP3   OH270945   4.536   5.497  15.154 -0.3269  0.3369 -0.8691
16485TIP3    H170946   4.559   5.454  15.237 -1.0049  0.4013 -0.6406
16485TIP3    H270947   4.502   5.582  15.180 -2.7383 -0.5114 -1.0181
16486TIP3   OH270948   0.613   5.181  13.014 -0.1109 -0.0842 -0.2708
16486TIP3    H170949   0.633   5.102  12.964 -1.8822  0.5255 -2.0906
16486TIP3    H270950   0.518   5.182  13.020 -0.0231  0.8972  1.4762
16487TIP3   OH270951   4.260   0.314   0.102  0.0506 -0.0209  0.4062
16487TIP3    H170952   4.314   0.344   0.175  0.8034  0.4106 -0.3104
16487TIP3    H270953   4.319   0.262   0.048 -0.0992  0.8564 -0.6418
16488TIP3   OH270954   1.100   6.114  14.999 -0.0231 -0.1412  0.4766
16488TIP3    H170955   1.080   6.024  15.025 -0.5314 -0.4037 -0.7536
16488TIP3    H270956   1.183   6.107  14.951  0.4608  0.2043  1.2478
16489TIP3   OH270957   1.727   3.692   3.336  0.7830 -0.3609  0.1610
16489TIP3    H170958   1.707   3.599   3.329 -3.0497  0.3065  0.2049
16489TIP3    H270959   1.731   3.724   3.246  0.3497 -0.2623  0.1769
16490TIP3   OH270960   4.937   0.246   5.448 -0.0355 -0.3786  0.0220
16490TIP3    H170961   4.981   0.161   5.440 -2.3755 -1.6180 -0.8135
16490TIP3    H270962   4.938   0.265   5.542  1.3639 -0.8233  0.1191
16491TIP3   OH270963   2.396   0.877   2.303 -0.2100 -0.2087  0.3215
16491TIP3    H170964   2.400   0.812   2.372  1.1214 -1.0537 -0.5041
16491TIP3    H270965   2.342   0.837   2.235  0.5165 -0.4124 -0.1419
16492TIP3   OH270966   1.555   3.982   0.469  0.6232 -0.4129  0.6198
16492TIP3    H170967   1.630   3.971   0.411  0.8494 -1.6238  1.1092
16492TIP3    H270968   1.481   3.948   0.419  1.1566 -3.5833  1.7451
16493TIP3   OH270969   3.004   3.884  16.419  0.5398 -0.0461  0.1147
16493TIP3    H170970   2.963   3.806  16.456  0.9925 -0.5460 -0.4098
16493TIP3    H270971   2.998   3.950  16.488  0.7702 -0.7556  0.8304
16494TIP3   OH270972   5.267   3.968  14.394 -0.0570  0.2001 -0.0577
16494TIP3    H170973   5.280   3.963  14.489  3.9975  1.0733 -0.3665
16494TIP3    H270974   5.271   4.062  14.375  1.9273 -0.0893 -1.2881
16495TIP3   OH270975   5.429   1.522   0.123  0.1936 -0.1617 -0.0870
16495TIP3    H170976   5.395   1.445   0.078  1.3782  0.8045 -2.8619
16495TIP3    H270977   5.524   1.518   0.110  0.1580  2.8887 -2.4797
16496TIP3   OH270978   3.106   0.950  13.882 -0.1874 -1.0245  0.1877
16496TIP3    H170979   3.031   0.914  13.929  0.3141 -1.7697  0.4284
16496TIP3    H270980   3.095   0.919  13.792  1.3075 -3.5787  0.7923
16497TIP3   OH270981   6.143   5.924  10.903 -0.1807  0.2167  0.0728
16497TIP3    H170982   6.192   5.851  10.867  2.4035  1.6824  0.4186
16497TIP3    H270983   6.073   5.940  10.839 -0.7896 -2.4247 -0.0307
16498TIP3   OH270984   5.887   2.241   4.609  0.6254  0.6659  0.3808
16498TIP3    H170985   5.873   2.180   4.681  0.2110  0.4933  0.1539
16498TIP3    H270986   5.865   2.327   4.646 -1.9999  0.3322 -0.1981
16499TIP3   OH270987   3.648   0.590   1.862 -0.3568 -0.0830 -0.0155
16499TIP3    H170988   3.674   0.621   1.949 -2.4903 -0.9000  0.9970
16499TIP3    H270989   3.716   0.527   1.838  0.6198  0.6387  0.7441
16500TIP3   OH270990   0.009   5.000  16.515  0.0512 -0.2310  0.4344
16500TIP3    H170991  -0.060   5.017  16.450 -0.6021  0.8002  1.3618
16500TIP3    H270992  -0.036   4.958  16.588  0.4737  0.0870  0.8847
16501TIP3   OH270993   4.912   4.734  14.292  0.5909  0.2632  0.5726
16501TIP3    H170994   4.974   4.678  14.246 -1.1497 -0.3611 -1.1455
16501TIP3    H270995   4.956   4.758  14.373  2.7769 -0.6973 -0.2682
16502TIP3   OH270996   6.152   5.933  13.072  0.1090 -0.6017 -0.2023
16502TIP3    H170997   6.104   5.942  12.989 -0.9516  2.1514  0.6334
16502TIP3    H270998   6.244   5.944  13.047 -0.0937 -0.9145 -1.1493
16503TIP3   OH270999   6.091   5.182   5.717 -0.4559 -0.4478  0.2476
16503TIP3    H171000   6.138   5.105   5.749 -0.2148 -0.5200 -0.2750
16503TIP3    H271001   6.050   5.152   5.636  0.5871  0.2916 -0.5777
16504TIP3   OH271002   4.731   2.693  11.091  0.2252 -0.2791 -0.0724
16504TIP3    H171003   4.809   2.647  11.121  1.1010  0.4698 -1.1283
16504TIP3    H271004   4.748   2.710  10.998 -1.5469 -0.8202 -0.5359
16505TIP3   OH271005   1.417   4.485   4.551 -0.0039  0.2705  0.4813
16505TIP3    H171006   1.337   4.439   4.576 -0.5334  1.2998  0.7445
16505TIP3    H271007   1.462   4.501   4.634  0.5456 -0.4017  0.3239
16506TIP3   OH271008   4.373   1.370  14.665 -0.2726 -0.1184 -0.3967
16506TIP3    H171009   4.361   1.279  14.637 -0.5178 -0.5480  1.0277
16506TIP3    H271010   4.289   1.395  14.703  0.5884 -0.2372  1.7209
16507TIP3   OH271011   2.650   4.387   2.359 -0.6635 -0.0860 -0.0883
16507TIP3    H171012   2.582   4.418   2.419 -1.2614 -0.8062 -0.3786
16507TIP3    H271013   2.612   4.400   2.271 -1.8355 -3.4061 -0.2330
16508TIP3   OH271014   1.708   2.312   2.846 -0.1733 -0.3746  0.0765
16508TIP3    H171015   1.707   2.363   2.766 -1.3076  1.5869  1.2730
16508TIP3    H271016   1.658   2.233   2.825  1.1229 -0.8057 -1.6318
16509TIP3   OH271017   0.405   3.526  10.701  1.1003 -0.2805  0.2416
16509TIP3    H171018   0.468   3.457  10.724  0.7569 -0.4934  0.5714
16509TIP3    H271019   0.373   3.558  10.785  1.0722  0.1070  0.0833
16510TIP3   OH271020   0.334   1.057   1.695  0.1655 -0.0738 -0.2644
16510TIP3    H171021   0.368   1.105   1.619  0.7269  1.3416  0.8329
16510TIP3    H271022   0.395   1.078   1.765 -0.8044 -0.6932  0.7947
16511TIP3   OH271023   3.150   5.349   5.109  0.2420 -0.3435 -0.4014
16511TIP3    H171024   3.170   5.400   5.031 -0.2735  0.2604 -0.1435
16511TIP3    H271025   3.109   5.269   5.075 -0.2667  0.0559 -0.7338
16512TIP3   OH271026   1.888   4.209  14.856  0.1585  0.4767  0.5333
16512TIP3    H171027   1.847   4.178  14.775  0.3037  1.4037  0.0891
16512TIP3    H271028   1.951   4.140  14.878 -0.6416 -0.3039  0.4712
16513TIP3   OH271029   1.800   4.422   2.227 -0.0330 -0.3283 -0.4628
16513TIP3    H171030   1.890   4.391   2.231  0.2278  0.5162  0.4690
16513TIP3    H271031   1.807   4.515   2.206 -0.7048 -0.3279 -0.7076
16514TIP3   OH271032   0.328   3.997  13.570 -0.1937  0.5438 -0.3887
16514TIP3    H171033   0.294   4.001  13.659  1.7992  2.6657  0.3610
16514TIP3    H271034   0.324   3.904  13.547  0.5723 -0.2926  2.4772
16515TIP3   OH271035   2.665   1.989  14.985 -0.3719 -0.1522 -0.1408
16515TIP3    H171036   2.724   1.917  15.009 -1.4427 -1.1218 -0.3889
16515TIP3    H271037   2.578   1.956  15.004 -0.8981  0.9860 -0.5341
16516TIP3   OH271038   4.999   6.656   5.804  0.1339 -0.3633 -0.2898
16516TIP3    H171039   5.045   6.619   5.880 -1.1720 -1.8014 -0.1391
16516TIP3    H271040   5.035   6.744   5.795  0.3490 -0.1453  1.9791
16517TIP3   OH271041   5.661   0.502   1.448 -0.1499 -0.5316 -0.1359
16517TIP3    H171042   5.744   0.540   1.479 -0.9075  0.1621  1.1597
16517TIP3    H271043   5.630   0.449   1.522 -0.1478 -2.0313 -1.1552
16518TIP3   OH271044   4.590   2.134   4.681  0.2797 -0.1365  0.6046
16518TIP3    H171045   4.559   2.225   4.681 -2.6411 -1.0065  0.6033
16518TIP3    H271046   4.635   2.124   4.597 -1.4252  0.7302 -0.4816
16519TIP3   OH271047   2.033   6.620   4.675  0.0632 -0.0016  0.0938
16519TIP3    H171048   1.958   6.676   4.689 -0.6280 -0.8952  0.0628
16519TIP3    H271049   2.024   6.550   4.740  0.3617 -0.6211 -0.5113
16520TIP3   OH271050   3.606   0.636  14.131  0.1111  0.0288  0.0048
16520TIP3    H171051   3.540   0.602  14.071 -3.5073  4.2536  1.1190
16520TIP3    H271052   3.571   0.617  14.219  0.1418  2.5574  0.6260
16521TIP3   OH271053   2.275   4.599  13.437 -0.0557 -0.2456 -0.4652
16521TIP3    H171054   2.312   4.650  13.365 -1.9126  0.9977 -0.6123
16521TIP3    H271055   2.232   4.525  13.394  1.2696 -1.0950 -0.3749
16522TIP3   OH271056   1.978   4.086  12.046  0.0062  0.4156  0.2146
16522TIP3    H171057   1.956   3.998  12.076  1.7132 -0.3342 -0.5787
16522TIP3    H271058   1.915   4.143  12.089 -0.8602 -1.1481  1.0950
16523TIP3   OH271059   0.567   2.018   3.906  0.1578 -0.1367 -0.9019
16523TIP3    H171060   0.577   1.959   3.980 -0.3235  0.2150 -0.5520
16523TIP3    H271061   0.651   2.064   3.900  0.3768 -0.5335 -0.9017
16524TIP3   OH271062   3.557   3.994   2.550  0.5182 -0.0939  0.4635
16524TIP3    H171063   3.558   4.090   2.550 -1.2158 -0.0386  0.3251
16524TIP3    H271064   3.527   3.971   2.462  1.0592 -0.7778  0.4526
16525TIP3   OH271065   3.985   3.384   2.275  0.2380  0.2375  0.0145
16525TIP3    H171066   3.923   3.316   2.304 -1.9489  2.1803  0.1694
16525TIP3    H271067   4.051   3.336   2.225 -2.5707 -1.7486 -2.1034
16526TIP3   OH271068   2.091   1.178  13.124 -0.1909 -0.4300 -0.0245
16526TIP3    H171069   2.113   1.222  13.041 -3.2079  1.5183  0.0718
16526TIP3    H271070   2.123   1.238  13.192  0.3223 -0.9680  0.2168
16527TIP3   OH271071   1.455   4.794   3.673 -0.8577 -0.0767 -0.2617
16527TIP3    H171072   1.398   4.722   3.648 -0.7995  0.1121 -0.9455
16527TIP3    H271073   1.505   4.760   3.747  0.5155 -1.4223 -1.7323
16528TIP3   OH271074   6.330   0.233   3.291 -0.7157  0.1341 -0.0701
16528TIP3    H171075   6.406   0.202   3.240  0.1100  1.4932  0.2776
16528TIP3    H271076   6.255   0.192   3.248  0.1478 -0.6633 -0.8902
16529TIP3   OH271077   6.211   6.754  13.156 -0.8347  0.0847  0.5022
16529TIP3    H171078   6.252   6.668  13.155  0.1979  0.4723  2.5459
16529TIP3    H271079   6.147   6.752  13.085  1.1667 -1.3352 -1.3595
16530TIP3   OH271080   4.571   5.209   2.556  0.2190  0.1387 -0.4607
16530TIP3    H171081   4.523   5.128   2.575  0.2711  0.4464  1.2005
16530TIP3    H271082   4.543   5.269   2.625  1.7658  0.8411 -0.3980
16531TIP3   OH271083   5.530   3.995   3.911  0.5476  0.5549 -0.0287
16531TIP3    H171084   5.584   3.941   3.853  0.3865  0.1801  0.1689
16531TIP3    H271085   5.476   3.932   3.959  0.1957  0.9055  0.0391
16532TIP3   OH271086   1.563   0.144   0.140  0.7247 -0.9785  0.1680
16532TIP3    H171087   1.628   0.127   0.208  0.9007  1.6364  0.7643
16532TIP3    H271088   1.594   0.222   0.095  0.2427 -2.2341 -2.5398
16533TIP3   OH271089   3.681   5.264  10.669 -0.2079  0.0437 -0.1905
16533TIP3    H171090   3.668   5.304  10.755  0.6014  0.6460 -0.3349
16533TIP3    H271091   3.753   5.313  10.630 -0.8320  0.0493 -1.3934
16534TIP3   OH271092   2.497   0.138  14.147  0.2947  0.1482 -0.5093
16534TIP3    H171093   2.585   0.174  14.135  0.8273 -0.7271  0.5612
16534TIP3    H271094   2.457   0.142  14.060  1.9322 -0.8181 -1.3541
16535TIP3   OH271095   0.046   0.359  14.528 -0.3013 -0.2535 -0.0061
16535TIP3    H171096   0.138   0.358  14.551 -0.1478  0.4554 -0.5494
16535TIP3    H271097   0.033   0.280  14.476 -0.0137 -0.3864  0.1230
16536TIP3   OH271098   0.600   4.929  15.839 -0.3762 -0.1789 -0.2852
16536TIP3    H171099   0.516   4.960  15.805 -0.2881 -0.0953 -0.4258
16536TIP3    H271100   0.644   5.009  15.870  0.9711  0.2470 -3.0301
16537TIP3   OH271101   1.389   1.600  13.885  0.1729  0.0329 -0.2785
16537TIP3    H171102   1.480   1.570  13.891  0.2331  0.4520  1.5267
16537TIP3    H271103   1.337   1.521  13.891  0.4092 -0.0725  0.6157
16538TIP3   OH271104   4.785   1.701  15.618 -0.2716 -0.3938  0.5685
16538TIP3    H171105   4.721   1.673  15.552 -1.1746 -0.3600  1.4049
16538TIP3    H271106   4.865   1.718  15.568 -0.4941 -1.8001 -0.3167
16539TIP3   OH271107   1.904   2.833  15.543 -0.4210 -0.2198  0.2016
16539TIP3    H171108   1.996   2.809  15.530 -0.2988 -0.0419  0.7090
16539TIP3    H271109   1.882   2.798  15.629 -0.8911 -0.4349 -0.0015
16540TIP3   OH271110   5.700   6.236  12.166 -0.5594 -0.0548 -0.2050
16540TIP3    H171111   5.731   6.304  12.107 -0.7596  0.0878 -0.1455
16540TIP3    H271112   5.709   6.154  12.117 -0.0807 -0.0159 -0.1856
16541TIP3   OH271113   6.172   1.523  14.559 -0.1692 -0.1360 -0.2992
16541TIP3    H171114   6.083   1.488  14.563  0.6585 -2.3396  0.0953
16541TIP3    H271115   6.176   1.568  14.474 -1.9123  0.8484  0.0968
16542TIP3   OH271116   0.528   1.973  12.016  0.2667 -0.0392  0.1975
16542TIP3    H171117   0.448   2.023  12.003  2.0413  3.5072  1.5919
16542TIP3    H271118   0.556   1.949  11.928 -1.6789 -0.3824 -0.3759
16543TIP3   OH271119   5.060   5.069   5.429  0.1910 -0.1580  0.2421
16543TIP3    H171120   5.116   5.033   5.360  0.2666 -0.0525  0.2485
16543TIP3    H271121   4.985   5.009   5.433 -0.8980  1.0198 -1.3976
16544TIP3   OH271122   2.299   2.366  12.208  0.1506  0.2583 -0.2399
16544TIP3    H171123   2.253   2.317  12.277  0.0061  1.5925  0.6430
16544TIP3    H271124   2.252   2.344  12.128 -0.4250 -0.3970  0.2596
16545TIP3   OH271125   3.931   3.381   3.636 -0.0042 -0.9320  0.3802
16545TIP3    H171126   4.001   3.347   3.579 -0.8892 -2.0708 -0.0584
16545TIP3    H271127   3.964   3.466   3.665  0.9066 -0.7657 -1.0275
16546TIP3   OH271128   5.293   6.627  17.123  0.4431  0.2527 -0.7190
16546TIP3    H171129   5.220   6.645  17.064 -1.5742  3.0018  2.2388
16546TIP3    H271130   5.258   6.566  17.187  0.6098  1.6437  0.7693
16547TIP3   OH271131   1.749   1.029  17.329  0.0765  0.6583 -0.9193
16547TIP3    H171132   1.745   0.966  17.257 -0.9995 -0.5068  0.1007
16547TIP3    H271133   1.842   1.039  17.348  0.2873 -0.2692 -1.4214
16548TIP3   OH271134   0.947   3.951   4.496 -0.0069 -0.1815 -0.2335
16548TIP3    H171135   0.868   3.939   4.548 -0.3920 -0.8893 -0.9548
16548TIP3    H271136   0.963   3.865   4.456  1.8573 -0.4173  0.9002
16549TIP3   OH271137   0.196   1.028   6.083  0.3152 -0.2413  0.0895
16549TIP3    H171138   0.247   0.995   6.157  2.1360 -2.2827 -1.9260
16549TIP3    H271139   0.142   1.098   6.120  0.3799 -1.8267  3.5146
16550TIP3   OH271140   4.048   6.512  16.508  0.6023  0.1231 -0.2634
16550TIP3    H171141   4.137   6.528  16.541  0.5421  0.5522 -0.3045
16550TIP3    H271142   4.059   6.444  16.443  0.7743 -0.5088  0.4082
16551TIP3   OH271143   0.106   6.065  12.113  0.6657  0.0204 -0.9379
16551TIP3    H171144   0.011   6.068  12.106  0.5321 -0.1081  0.4637
16551TIP3    H271145   0.123   5.999  12.181  1.6940  0.8534 -0.3462
16552TIP3   OH271146   5.742   4.057  11.557  0.0304  0.0369 -0.5405
16552TIP3    H171147   5.775   3.978  11.514  1.0717  0.1704 -0.0280
16552TIP3    H271148   5.798   4.068  11.633 -0.5575  0.8794 -0.2120
16553TIP3   OH271149   6.107   1.972   4.581  0.4098  0.1589 -0.4125
16553TIP3    H171150   6.025   2.012   4.609  0.5762 -0.3966  0.9382
16553TIP3    H271151   6.112   1.890   4.630  1.6116  0.0179 -0.7300
16554TIP3   OH271152   2.367   0.986  11.152  0.1819  0.1381  0.1502
16554TIP3    H171153   2.387   0.959  11.241 -0.4458 -0.0680  0.2391
16554TIP3    H271154   2.452   0.999  11.111  0.5240 -1.6702  0.1953
16555TIP3   OH271155   4.178   2.083   5.546  0.1641  0.1519 -0.5786
16555TIP3    H171156   4.192   2.131   5.627  0.8522 -1.6908  0.4642
16555TIP3    H271157   4.139   2.146   5.486 -1.5748  1.2577  1.5835
16556TIP3   OH271158   3.652   2.170  17.274 -0.0276  0.1809  0.4894
16556TIP3    H171159   3.733   2.145  17.319  0.1425 -0.2594 -0.0619
16556TIP3    H271160   3.664   2.141  17.184 -1.0934 -0.5518  0.5614
16557TIP3   OH271161   1.507   6.566   5.274 -0.1016  0.0242  0.0577
16557TIP3    H171162   1.421   6.544   5.237 -0.6502  0.7496  0.8595
16557TIP3    H271163   1.495   6.557   5.368  0.8834 -0.4421  0.1491
16558TIP3   OH271164   2.859   3.429  17.205 -0.1932  0.1077 -0.0900
16558TIP3    H171165   2.918   3.389  17.140  0.3807  1.8523 -0.7140
16558TIP3    H271166   2.918   3.474  17.266 -0.8168  0.7747  0.0405
16559TIP3   OH271167   1.183   1.024  16.305 -0.0792 -0.8650 -0.0021
16559TIP3    H171168   1.106   0.996  16.255 -0.9224 -0.2969  0.9322
16559TIP3    H271169   1.146   1.068  16.382  1.1803  1.3355 -0.5774
16560TIP3   OH271170   3.986   5.829   4.326 -0.0634 -0.5794 -0.6429
16560TIP3    H171171   4.000   5.817   4.232 -1.4546 -1.9524 -0.7214
16560TIP3    H271172   4.059   5.782   4.367  1.5539  1.4829 -0.9711
16561TIP3   OH271173   0.777   1.359   4.263  0.4080  0.2395  0.2553
16561TIP3    H171174   0.862   1.343   4.221  1.0624  1.1218  1.1817
16561TIP3    H271175   0.738   1.431   4.214  0.1175 -0.2643 -0.2629
16562TIP3   OH271176   4.380   6.045  14.880  0.3420  0.2005  0.4942
16562TIP3    H171177   4.434   6.117  14.911 -0.8601  0.4774  2.0647
16562TIP3    H271178   4.434   5.967  14.892  1.1857  0.6849 -0.0442
16563TIP3   OH271179   2.997   0.984   0.733 -0.2886  0.1465 -0.5367
16563TIP3    H171180   3.054   0.980   0.656 -0.1996 -2.0819 -0.4259
16563TIP3    H271181   2.948   0.902   0.730 -0.4030  0.0868  1.6864
16564TIP3   OH271182   3.375   5.465  12.123  0.3437  0.0137  0.6406
16564TIP3    H171183   3.286   5.478  12.090  0.9216  0.0316 -0.9825
16564TIP3    H271184   3.369   5.487  12.216 -1.1339  0.9366  0.3676
16565TIP3   OH271185   3.927   3.048   5.118  0.3986  0.0240 -0.5190
16565TIP3    H171186   3.857   3.108   5.095 -0.4151 -0.2292  1.1405
16565TIP3    H271187   3.915   2.972   5.061 -2.3786 -1.1951  1.4792
16566TIP3   OH271188   0.150   1.622   3.042  0.2582  0.3548  0.3089
16566TIP3    H171189   0.186   1.631   2.954  1.8558  0.7625  0.9737
16566TIP3    H271190   0.192   1.544   3.077 -0.0372  0.4456  0.8705
16567TIP3   OH271191   0.005   3.474  12.245 -0.1256  0.8715 -0.0572
16567TIP3    H171192  -0.060   3.434  12.302  0.0504  0.2304 -0.3010
16567TIP3    H271193   0.032   3.404  12.185  1.4372  0.8682  0.6098
16568TIP3   OH271194   5.218   5.179   0.352 -0.0535  0.5919 -0.4041
16568TIP3    H171195   5.272   5.101   0.360 -1.4638 -0.4276 -0.5374
16568TIP3    H271196   5.223   5.202   0.259  0.0620  0.4574 -0.4314
16569TIP3   OH271197   3.055   1.020   4.885  0.3554  0.1823 -0.3720
16569TIP3    H171198   3.103   1.103   4.892  1.2659 -0.2215 -1.5452
16569TIP3    H271199   2.984   1.028   4.949 -0.5921  2.5416 -1.6028
16570TIP3   OH271200   6.535   6.225  11.901 -0.3501  0.0498 -0.0476
16570TIP3    H171201   6.457   6.240  11.955 -0.3506 -0.5910  0.1433
16570TIP3    H271202   6.596   6.293  11.927 -0.1593 -0.5405  1.1370
16571TIP3   OH271203   2.932   2.659  17.303 -0.4267 -0.1340 -0.0621
16571TIP3    H171204   3.027   2.652  17.317 -0.1097  0.4189 -1.7411
16571TIP3    H271205   2.912   2.750  17.324 -0.4539 -0.0609 -0.4043
16572TIP3   OH271206   0.713   0.788  13.861  1.0527  0.4132 -0.1391
16572TIP3    H171207   0.635   0.841  13.869 -1.2806 -2.7900  0.4767
16572TIP3    H271208   0.719   0.740  13.944  0.1485 -3.6218 -2.1303
16573TIP3   OH271209   3.452   1.655  16.695  0.1406 -0.7039  0.0351
16573TIP3    H171210   3.520   1.617  16.640 -0.0109  1.5559 -1.8787
16573TIP3    H271211   3.376   1.665  16.637 -0.5461  0.3586  1.0505
16574TIP3   OH271212   5.357   4.972  15.973 -0.4550  0.0870  0.2528
16574TIP3    H171213   5.396   4.981  16.060  2.1144 -0.5334 -0.7522
16574TIP3    H271214   5.332   4.880  15.967 -0.3302  0.0553  0.2178
16575TIP3   OH271215   6.348   4.917  11.182  0.2374 -0.0225 -0.2001
16575TIP3    H171216   6.265   4.964  11.187  0.8417  1.1464 -0.8162
16575TIP3    H271217   6.353   4.886  11.092  1.2980  1.5473 -0.7318
16576TIP3   OH271218   5.261   5.762   3.098  0.3332 -0.1398 -0.2440
16576TIP3    H171219   5.231   5.846   3.064  1.2397  0.1212 -0.4375
16576TIP3    H271220   5.285   5.779   3.189 -0.6960 -0.4963  0.1033
16577TIP3   OH271221   1.985   4.213  15.868 -0.0298 -0.0495  0.5224
16577TIP3    H171222   1.995   4.171  15.953 -0.5573  0.4573  0.8405
16577TIP3    H271223   1.902   4.180  15.834 -0.5161  0.8158  0.8337
16578TIP3   OH271224   0.737   5.701  11.387  0.1678 -0.9413 -0.2156
16578TIP3    H171225   0.806   5.716  11.321 -0.8978  1.2781 -0.8841
16578TIP3    H271226   0.711   5.788  11.415 -2.7879 -1.6642 -0.4175
16579TIP3   OH271227   1.923   0.496  15.356  0.4287 -0.1976 -0.1384
16579TIP3    H171228   2.002   0.538  15.321 -0.2781  0.8725 -0.5046
16579TIP3    H271229   1.866   0.484  15.279  0.3005 -1.1386  0.0856
16580TIP3   OH271230   4.047   5.122  14.473  0.0934 -0.1903  0.0520
16580TIP3    H171231   4.140   5.125  14.452  0.0573  2.9747 -0.1037
16580TIP3    H271232   4.004   5.106  14.390  0.4392  0.6873 -0.3099
16581TIP3   OH271233   1.646   0.514  11.918 -0.2079 -0.3033  0.1817
16581TIP3    H171234   1.670   0.592  11.867  0.1631 -0.9497 -0.6561
16581TIP3    H271235   1.564   0.485  11.879 -1.8281  1.2107  2.2640
16582TIP3   OH271236   5.210   5.270   1.005 -0.0517 -0.4542 -0.2930
16582TIP3    H171237   5.285   5.294   1.058 -0.6030  2.5460 -0.6753
16582TIP3    H271238   5.239   5.284   0.915 -0.2698 -1.8979 -0.6094
16583TIP3   OH271239   5.194   3.946  13.871  0.0826 -0.2488 -0.4205
16583TIP3    H171240   5.176   3.906  13.957 -0.9458  0.2083 -0.4100
16583TIP3    H271241   5.136   4.021  13.867  1.2701  0.6847 -0.8661
16584TIP3   OH271242   5.882   5.944   0.871  0.6060 -0.3813 -0.9384
16584TIP3    H171243   5.939   5.987   0.808 -0.7063  1.6930 -0.8118
16584TIP3    H271244   5.831   6.015   0.910 -0.4310 -1.8839  0.6173
16585TIP3   OH271245   3.069   2.180   0.211  0.0111 -0.8059 -0.1712
16585TIP3    H171246   3.161   2.178   0.234  0.7245 -3.5026 -2.5491
16585TIP3    H271247   3.059   2.256   0.154  0.8263 -0.6442 -0.0991
16586TIP3   OH271248   6.373   4.213   6.242  0.1860 -0.4817 -0.4825
16586TIP3    H171249   6.449   4.227   6.185 -0.9082 -1.2860 -2.2223
16586TIP3    H271250   6.387   4.127   6.280  0.7340 -0.1007  0.2101
16587TIP3   OH271251   6.483   4.084   1.504 -0.2887  0.2065  0.0309
16587TIP3    H171252   6.483   4.099   1.599  0.0624 -0.5885  0.1676
16587TIP3    H271253   6.564   4.035   1.489  0.1328  1.1292 -0.8176
16588TIP3   OH271254   0.473   6.404  12.841  0.2699  0.6518  0.0605
16588TIP3    H171255   0.391   6.435  12.803 -0.7831  0.9277  2.4022
16588TIP3    H271256   0.539   6.464  12.808 -0.3782  0.2926 -2.0463
16589TIP3   OH271257   2.460   2.610   3.213  0.4288 -0.2000  0.6399
16589TIP3    H171258   2.397   2.641   3.148  0.9522 -0.0707  0.1909
16589TIP3    H271259   2.406   2.579   3.285 -0.1627 -0.3976  0.1216
16590TIP3   OH271260   2.261   5.016  15.853  0.0211  0.8542  0.1852
16590TIP3    H171261   2.238   5.039  15.943  0.0536  0.2311  0.3576
16590TIP3    H271262   2.349   4.980  15.858 -0.5570 -0.6707  0.1636
16591TIP3   OH271263   3.051   1.143   6.726  0.2903 -0.8322  0.5370
16591TIP3    H171264   3.109   1.095   6.667  0.6264  0.8960 -0.5912
16591TIP3    H271265   3.077   1.114   6.814  2.1220 -0.9197  0.0103
16592TIP3   OH271266   0.488   3.152  14.717 -0.8929 -1.0353 -0.1367
16592TIP3    H171267   0.543   3.108  14.653  0.1522  0.7484 -0.5383
16592TIP3    H271268   0.440   3.217  14.666 -0.8841 -0.3456  0.7138
16593TIP3   OH271269   5.651   3.418  13.420  0.2178  0.0841  0.2407
16593TIP3    H171270   5.659   3.323  13.410 -2.2110 -0.2773  1.2552
16593TIP3    H271271   5.562   3.432  13.449  0.4662  2.7314 -0.0496
16594TIP3   OH271272   3.306   1.448  11.374  0.0062 -0.1529 -0.5314
16594TIP3    H171273   3.380   1.391  11.356  1.0285  1.3974 -1.4977
16594TIP3    H271274   3.265   1.462  11.289 -1.5782 -1.1553  0.0195
16595TIP3   OH271275   5.827   6.101   4.312 -0.0717  0.2727  0.2181
16595TIP3    H171276   5.760   6.167   4.330 -0.3468  0.0823 -0.1326
16595TIP3    H271277   5.840   6.104   4.218  0.1140  0.0145  0.2338
16596TIP3   OH271278   0.117   2.421   1.049  0.1488  0.0203  0.0496
16596TIP3    H171279   0.040   2.389   1.096 -0.8366  0.3428 -1.2874
16596TIP3    H271280   0.127   2.361   0.976  0.1777  0.9307 -0.7072
16597TIP3   OH271281   3.866   4.607   4.292  0.1716  0.4351 -0.1777
16597TIP3    H171282   3.937   4.545   4.277 -0.0924  0.0305  0.2282
16597TIP3    H271283   3.832   4.585   4.379  0.1211  1.1930  0.0065
16598TIP3   OH271284   0.653   0.442   1.061 -0.5642  0.1683  0.0312
16598TIP3    H171285   0.567   0.448   1.103 -0.6582 -0.9653  0.0362
16598TIP3    H271286   0.715   0.458   1.131 -0.7602  0.8105  0.0669
16599TIP3   OH271287   5.933   4.847  16.453 -0.0583  0.1497  0.0946
16599TIP3    H171288   5.994   4.811  16.388 -1.8974 -1.3949 -0.8808
16599TIP3    H271289   5.981   4.919  16.493  1.8992 -0.1283 -1.5674
16600TIP3   OH271290   0.525   1.742  14.424  0.3096  0.9753  0.1727
16600TIP3    H171291   0.523   1.783  14.510 -2.2438  0.4084  0.4603
16600TIP3    H271292   0.514   1.649  14.442 -0.1853  0.8458 -0.7607
16601TIP3   OH271293   5.001   4.492   1.804  0.4461  0.0776  0.2714
16601TIP3    H171294   4.928   4.543   1.769  0.8167  0.4803  0.0883
16601TIP3    H271295   5.044   4.550   1.866  1.7105  0.4966 -0.9682
16602TIP3   OH271296   6.556   2.109   3.531 -0.1212 -0.0992  0.4892
16602TIP3    H171297   6.617   2.053   3.483 -1.0625  0.3518 -1.3692
16602TIP3    H271298   6.521   2.054   3.601  0.7353 -1.0641  0.1704
16603TIP3   OH271299   1.603   2.515  14.156 -0.4809  0.1518 -0.2511
16603TIP3    H171300   1.592   2.603  14.120 -0.8461 -0.0915 -0.7512
16603TIP3    H271301   1.612   2.528  14.250  0.3834  0.7944 -0.4109
16604TIP3   OH271302   2.058   4.934   0.055 -0.0941  0.3658  0.6034
16604TIP3    H171303   2.096   4.875  -0.010  0.9767  1.6402  0.0326
16604TIP3    H271304   1.966   4.908   0.060 -0.4508  0.7759 -2.1033
16605TIP3   OH271305   5.443   3.253  12.606 -0.2302  0.1471  0.7010
16605TIP3    H171306   5.480   3.177  12.561 -0.1925  0.3376  0.4072
16605TIP3    H271307   5.515   3.286  12.661  0.0077  0.4403  0.2278
16606TIP3   OH271308   5.111   2.719  16.733  0.4086 -0.4239 -0.5888
16606TIP3    H171309   5.109   2.747  16.824  1.7262 -0.3512 -0.5698
16606TIP3    H271310   5.054   2.781  16.688  0.1953 -0.1171  0.0929
16607TIP3   OH271311   3.571   3.520  12.748  0.1405  0.3016  0.7052
16607TIP3    H171312   3.608   3.502  12.661  2.6501  1.2953  1.4957
16607TIP3    H271313   3.625   3.469  12.808 -0.3692  1.0917  1.8707
16608TIP3   OH271314   1.031   0.471  12.065  0.0874 -0.4312 -0.5987
16608TIP3    H171315   1.121   0.500  12.081  0.2622 -1.2911  0.0683
16608TIP3    H271316   0.977   0.532  12.115  0.3812 -0.6266 -0.0383
16609TIP3   OH271317   5.716   3.108   2.477  0.1279  0.3323  0.0606
16609TIP3    H171318   5.792   3.146   2.433  0.7781 -1.5757 -0.5729
16609TIP3    H271319   5.707   3.021   2.439 -0.2572 -0.8085  2.5637
16610TIP3   OH271320   0.555   1.097   6.526 -0.1431 -0.2948 -0.3304
16610TIP3    H171321   0.517   1.010   6.515 -0.3938 -0.4330  1.3828
16610TIP3    H271322   0.646   1.087   6.496 -0.1852 -1.1270 -0.1959
16611TIP3   OH271323   4.657   0.033  15.981 -0.0331  0.8682  0.0051
16611TIP3    H171324   4.568   0.062  15.962 -0.5170 -1.3467 -1.4797
16611TIP3    H271325   4.710   0.071  15.910 -0.2922  0.0345 -0.6595
16612TIP3   OH271326   1.326   6.410   4.030  0.0730  0.1018 -0.1378
16612TIP3    H171327   1.239   6.414   4.070 -0.3648  1.1027 -1.1190
16612TIP3    H271328   1.336   6.319   4.004  0.3748 -0.5854  2.1544
16613TIP3   OH271329   5.933   4.311  13.270  0.1710  0.5924  0.1182
16613TIP3    H171330   5.960   4.375  13.335  0.3991  0.4746  0.1404
16613TIP3    H271331   5.988   4.329  13.194  0.8129 -0.0984  0.4065
16614TIP3   OH271332   5.685   1.522  15.175  0.3671 -0.5921 -0.0478
16614TIP3    H171333   5.645   1.455  15.120  0.2214 -1.0058  0.5534
16614TIP3    H271334   5.738   1.474  15.238  0.1439 -0.1576  0.4836
16615TIP3   OH271335   0.523   2.166   5.869  0.7199 -0.1816 -0.2461
16615TIP3    H171336   0.608   2.210   5.863  0.6078 -0.0294 -0.8613
16615TIP3    H271337   0.489   2.167   5.779 -0.5588  0.9945  0.2131
16616TIP3   OH271338   5.183   0.282   4.759  0.0602 -0.4258  0.3883
16616TIP3    H171339   5.223   0.317   4.679  0.6769 -1.7131  0.1049
16616TIP3    H271340   5.199   0.349   4.825  0.9043 -0.0163 -0.2112
16617TIP3   OH271341   5.471   6.106  11.492  0.5028 -0.1893  0.2721
16617TIP3    H171342   5.401   6.130  11.553  0.2621  0.2137 -0.1585
16617TIP3    H271343   5.543   6.078  11.549 -0.1597 -1.0637  0.7042
16618TIP3   OH271344   2.980   3.624   4.100  0.0486  0.0341  0.1156
16618TIP3    H171345   2.908   3.590   4.153  0.9451 -1.9675  0.1476
16618TIP3    H271346   3.013   3.699   4.149 -0.0923 -0.8601  1.6516
16619TIP3   OH271347   3.973   4.373   2.122 -0.0987 -0.1806 -1.0366
16619TIP3    H171348   4.043   4.341   2.065 -0.5443 -2.5213 -0.3818
16619TIP3    H271349   4.010   4.370   2.210 -0.2675  0.8786 -0.9165
16620TIP3   OH271350   0.545   5.257  12.641  0.1944  0.6080  0.2400
16620TIP3    H171351   0.560   5.306  12.560  1.8855  1.2309  0.8748
16620TIP3    H271352   0.633   5.241  12.676 -0.4319 -0.8881  1.2371
16621TIP3   OH271353   2.874   0.021   0.616  0.4642  0.4027 -0.1407
16621TIP3    H171354   2.869  -0.074   0.621  2.2752  0.3198  1.1324
16621TIP3    H271355   2.799   0.046   0.562  0.0274 -1.7359 -0.6252
16622TIP3   OH271356   4.985   2.046  13.004 -0.2301  0.0506 -0.3077
16622TIP3    H171357   5.062   1.990  12.999  0.6767  1.1715  0.5125
16622TIP3    H271358   5.015   2.131  12.971 -0.7795  0.8136  1.0721
16623TIP3   OH271359   3.165   3.968   2.658  0.4396 -0.1360  0.4368
16623TIP3    H171360   3.096   3.938   2.716 -1.1699  3.8200  0.8967
16623TIP3    H271361   3.220   4.025   2.713  2.2169 -0.6835 -0.6774
16624TIP3   OH271362   4.751   4.777  15.710  0.9951 -0.5830 -0.2085
16624TIP3    H171363   4.686   4.708  15.726 -1.2621  0.5958 -3.3383
16624TIP3    H271364   4.723   4.850  15.765  0.5272 -0.5715 -0.4580
16625TIP3   OH271365   4.526   0.266   2.685 -0.2223 -0.1415  0.3871
16625TIP3    H171366   4.538   0.181   2.728 -1.1539  0.5066  2.0357
16625TIP3    H271367   4.432   0.283   2.690 -0.2019  0.4915 -0.9398
16626TIP3   OH271368   2.456   2.757  15.969 -0.5543 -0.3876 -0.7474
16626TIP3    H171369   2.394   2.693  16.003 -1.1959  1.3099  1.5050
16626TIP3    H271370   2.401   2.826  15.931 -0.0354  0.5348  0.1351
16627TIP3   OH271371   2.548   1.697   3.463  0.2111  0.2350 -0.2835
16627TIP3    H171372   2.538   1.633   3.392 -0.8376 -0.4376  0.4402
16627TIP3    H271373   2.565   1.644   3.541  2.7286  1.0333 -0.2213
16628TIP3   OH271374   0.980   5.726  12.490  0.0966 -0.1181 -0.1788
16628TIP3    H171375   0.939   5.779  12.559 -1.4639  0.4246 -1.4551
16628TIP3    H271376   1.039   5.786  12.445 -0.8353  0.2705 -0.9194
16629TIP3   OH271377   0.971   2.689  16.259  0.3524  0.0496 -0.4583
16629TIP3    H171378   1.033   2.648  16.318 -1.2818 -1.5736  0.2340
16629TIP3    H271379   0.964   2.629  16.185  0.4435  0.7719 -1.0642
16630TIP3   OH271380   1.470   4.692  11.358  0.1243  0.2184 -0.0773
16630TIP3    H171381   1.424   4.669  11.438 -1.2288 -1.5949 -1.2854
16630TIP3    H271382   1.519   4.613  11.335 -0.4431  0.2651 -1.6120
16631TIP3   OH271383   5.048   3.799  14.424 -0.0525  0.2045  0.4812
16631TIP3    H171384   5.061   3.707  14.450  0.0230  0.6603  2.1781
16631TIP3    H271385   5.137   3.836  14.423 -0.0283  0.1632 -0.7096
16632TIP3   OH271386   5.553   6.636  15.468 -0.3513  0.6821 -0.5514
16632TIP3    H171387   5.551   6.686  15.386  1.0285  2.1210  0.2384
16632TIP3    H271388   5.615   6.683  15.523 -0.8687 -0.5474  1.1564
16633TIP3   OH271389   2.628   5.481  14.725 -0.3291  0.0363  0.3123
16633TIP3    H171390   2.545   5.517  14.754  0.4956  0.2693  2.6214
16633TIP3    H271391   2.618   5.386  14.735 -0.3215  0.0651  0.5974
16634TIP3   OH271392   1.482   1.087  12.693  0.0173  0.5989 -0.0045
16634TIP3    H171393   1.418   1.123  12.754  0.2449 -0.6111  0.9933
16634TIP3    H271394   1.555   1.059  12.749  0.0417 -0.9575 -0.7591
16635TIP3   OH271395   1.682   2.351   5.546 -1.0927 -0.0228 -0.2981
16635TIP3    H171396   1.722   2.321   5.628 -0.6609 -1.4856 -1.0075
16635TIP3    H271397   1.745   2.326   5.479 -2.8196 -1.7187 -1.3929
16636TIP3   OH271398   6.476   6.147   4.715  0.1174  0.4240 -0.3364
16636TIP3    H171399   6.409   6.122   4.780 -0.3358  2.9792  0.3069
16636TIP3    H271400   6.437   6.124   4.631  1.1057 -3.8680  0.1415
16637TIP3   OH271401   4.688   3.033   5.691  0.1791  0.0923 -0.0010
16637TIP3    H171402   4.594   3.014   5.693  0.2830 -0.5278  2.3030
16637TIP3    H271403   4.694   3.127   5.712  0.0743 -0.0004  0.4645
16638TIP3   OH271404   5.076   4.159  12.897  0.3105  0.0279  0.0113
16638TIP3    H171405   4.985   4.174  12.925 -1.2903 -3.8968 -2.3125
16638TIP3    H271406   5.122   4.133  12.976 -1.3086 -0.5892  0.7868
16639TIP3   OH271407   6.498   0.187   1.129  0.3590  0.2067  0.4504
16639TIP3    H171408   6.530   0.096   1.134  0.6677  0.3534  1.2834
16639TIP3    H271409   6.436   0.194   1.201 -0.9831  0.1614 -0.6668
16640TIP3   OH271410   6.340   5.765   4.780  0.2616 -0.3834 -0.5771
16640TIP3    H171411   6.322   5.821   4.856  0.9685  0.2014 -0.8266
16640TIP3    H271412   6.290   5.806   4.709  0.1079 -0.5604 -0.5702
16641TIP3   OH271413   3.228   6.042  12.979 -0.4303 -0.0205 -0.4806
16641TIP3    H171414   3.240   6.019  13.071  0.8204 -3.0954 -1.3173
16641TIP3    H271415   3.137   6.020  12.960 -0.1836 -1.1351 -0.4055
16642TIP3   OH271416   0.466   1.903  12.743 -0.2760 -0.1608 -0.2215
16642TIP3    H171417   0.390   1.932  12.794 -2.1108 -3.5596 -0.7101
16642TIP3    H271418   0.448   1.933  12.654 -0.7694 -0.4715 -0.2284
16643TIP3   OH271419   4.935   3.727   1.694  0.3120  0.0138 -0.7187
16643TIP3    H171420   4.931   3.639   1.732  0.5329  0.7776  1.2006
16643TIP3    H271421   4.844   3.754   1.687  0.2848  0.0755 -0.1743
16644TIP3   OH271422   6.056   0.638   4.869  0.0712  0.6983  0.0631
16644TIP3    H171423   6.063   0.569   4.935  2.1786  0.7622 -0.0314
16644TIP3    H271424   6.134   0.627   4.814 -0.3055  2.2516 -0.8446
16645TIP3   OH271425   3.082   5.456  12.559  0.4926  0.4182 -0.3892
16645TIP3    H171426   3.066   5.441  12.652 -0.5383 -0.0040 -0.6220
16645TIP3    H271427   3.107   5.548  12.553 -1.1048  0.9067  0.1163
16646TIP3   OH271428   0.390   0.865  17.120 -0.3447 -0.1475 -0.1036
16646TIP3    H171429   0.317   0.884  17.061 -0.5265  1.1183  0.5036
16646TIP3    H271430   0.405   0.947  17.167 -0.1755 -1.0971  1.5780
16647TIP3   OH271431   5.355   3.341   1.976 -0.1061  0.1774 -0.3789
16647TIP3    H171432   5.358   3.432   2.005 -1.4432 -0.5949  2.5746
16647TIP3    H271433   5.445   3.309   1.985  0.6211  1.4042 -2.5236
16648TIP3   OH271434   6.264   0.601   2.466  0.0109 -0.1173  0.2254
16648TIP3    H171435   6.178   0.563   2.481 -0.0073 -0.0582  0.2687
16648TIP3    H271436   6.301   0.548   2.395 -0.6767  0.8449 -0.8789
16649TIP3   OH271437   3.350   1.764  15.954  0.2784 -0.2867 -0.7104
16649TIP3    H171438   3.258   1.780  15.931  0.3536 -1.2992 -1.8643
16649TIP3    H271439   3.399   1.816  15.891  0.5157  0.4363  0.0557
16650TIP3   OH271440   1.717   4.321   1.118  0.0013  0.6885 -0.3464
16650TIP3    H171441   1.802   4.285   1.094  0.3426  0.8667  0.5602
16650TIP3    H271442   1.657   4.287   1.052  0.3537 -1.3258  0.3036
16651TIP3   OH271443   1.088   5.058   2.293  0.5558 -0.0088  0.1141
16651TIP3    H171444   1.046   5.131   2.339  2.2640  1.9200 -1.1700
16651TIP3    H271445   1.041   5.053   2.209  0.4864 -0.3253  0.1729
16652TIP3   OH271446   1.159   1.906  17.166 -0.0444 -0.7780  0.4800
16652TIP3    H171447   1.162   1.810  17.161 -1.3714 -0.9819  2.3678
16652TIP3    H271448   1.200   1.927  17.250  0.5805  0.3544 -0.0846
16653TIP3   OH271449   3.129   4.081   4.856  0.1644  0.1831 -0.3635
16653TIP3    H171450   3.055   4.080   4.795  1.1906 -0.0137 -1.6545
16653TIP3    H271451   3.189   4.146   4.820 -0.3921  2.1411  2.0002
16654TIP3   OH271452   1.496   3.482  15.159  0.1392 -0.1287 -0.0141
16654TIP3    H171453   1.451   3.563  15.137 -1.1645 -0.8875 -0.3068
16654TIP3    H271454   1.565   3.474  15.092  0.5579  0.9241  0.2767
16655TIP3   OH271455   1.950   5.870   1.824  0.4684  0.0883  0.2764
16655TIP3    H171456   2.042   5.847   1.814  0.2865 -0.1238 -1.0291
16655TIP3    H271457   1.911   5.851   1.739 -0.3071  2.3344  0.0701
16656TIP3   OH271458   0.039   1.907   1.712 -0.0268 -0.0962 -0.6372
16656TIP3    H171459   0.027   1.902   1.807 -0.0258  1.8304 -0.4902
16656TIP3    H271460   0.126   1.869   1.697 -0.8174 -2.2168 -0.1443
16657TIP3   OH271461   2.543   4.562   3.653  0.5434  0.1400 -0.7081
16657TIP3    H171462   2.571   4.473   3.676  1.1215  0.2603 -0.9222
16657TIP3    H271463   2.592   4.583   3.574  1.9712  1.4057  0.4450
16658TIP3   OH271464   6.687   2.864  13.477  0.1928  0.3474 -0.1341
16658TIP3    H171465   6.666   2.950  13.513  1.1545  0.3049  0.5901
16658TIP3    H271466   6.748   2.826  13.541 -1.5856 -1.6163  0.5038
16659TIP3   OH271467   3.122   1.784  14.459 -0.5264  0.0487  0.4686
16659TIP3    H171468   3.141   1.692  14.440  0.6199  0.5079 -0.7562
16659TIP3    H271469   3.206   1.829  14.452 -1.2449  1.3783 -0.1303
16660TIP3   OH271470   5.539   1.790   0.657  0.4223  0.7999  0.4279
16660TIP3    H171471   5.459   1.738   0.646  0.1125  1.1365  1.0189
16660TIP3    H271472   5.589   1.773   0.577  0.4532 -0.6044  0.7151
16661TIP3   OH271473   5.755   2.637  16.040  0.2643 -0.1005 -0.4316
16661TIP3    H171474   5.661   2.636  16.023 -0.0503  1.3650  0.9173
16661TIP3    H271475   5.766   2.702  16.110  2.3826  0.5202 -1.2382
16662TIP3   OH271476   0.502   4.300  15.031  0.1563 -0.2825  0.6873
16662TIP3    H171477   0.481   4.351  15.109 -0.2228 -0.8594  0.9765
16662TIP3    H271478   0.416   4.282  14.991  0.4427  1.7472 -1.0163
16663TIP3   OH271479   3.311   4.313   0.958 -0.3421  0.1362 -0.2205
16663TIP3    H171480   3.310   4.347   0.868  1.2249  1.8667  0.3551
16663TIP3    H271481   3.348   4.384   1.010  2.3670 -2.1540  1.2236
16664TIP3   OH271482   4.958   4.432   2.254  0.0103  0.1858  0.6250
16664TIP3    H171483   4.948   4.506   2.194 -2.1978 -0.9100 -0.4681
16664TIP3    H271484   5.025   4.460   2.316  2.6315  1.3089 -2.4409
16665TIP3   OH271485   3.095   0.750   4.501  0.5896 -0.2635 -0.6595
16665TIP3    H171486   3.079   0.705   4.583 -0.0924  1.0463 -0.0497
16665TIP3    H271487   3.153   0.692   4.452 -1.2550 -2.3897 -0.4497
16666TIP3   OH271488   6.464   0.125   3.519 -0.4807 -0.8448  0.3479
16666TIP3    H171489   6.420   0.142   3.436 -0.8937 -0.1903  0.6883
16666TIP3    H271490   6.400   0.150   3.586  0.0748 -0.7474  0.8549
16667TIP3   OH271491   6.804   3.186   3.844 -0.1374  0.3532  0.3244
16667TIP3    H171492   6.737   3.230   3.792 -1.3028 -2.5841 -0.8710
16667TIP3    H271493   6.835   3.116   3.788  1.1839 -0.7316  2.3031
16668TIP3   OH271494   5.270   3.852  12.146  0.3728 -0.0076 -0.0805
16668TIP3    H171495   5.200   3.916  12.134  0.6003  0.5418  1.3008
16668TIP3    H271496   5.351   3.902  12.133  0.5649  0.1472  1.5587
16669TIP3   OH271497   4.729   6.299   4.415  0.3987 -0.0207  0.8866
16669TIP3    H171498   4.796   6.295   4.482  0.9360  0.3539  0.3753
16669TIP3    H271499   4.670   6.368   4.443  0.8904  0.4658  0.7272
16670TIP3   OH271500   4.330   0.466  14.895 -0.1118  0.1021 -0.0989
16670TIP3    H171501   4.326   0.539  14.833  0.1027  1.5324  1.5217
16670TIP3    H271502   4.407   0.416  14.868 -0.5589  0.1432 -1.5517
16671TIP3   OH271503   1.250   3.310   4.583  0.2795  0.1249  0.4934
16671TIP3    H171504   1.170   3.261   4.561  0.6436 -0.3860  0.2882
16671TIP3    H271505   1.222   3.371   4.652 -0.4090  0.3264  0.0475
16672TIP3   OH271506   5.038   6.731   3.225 -0.6079  0.4256  0.4526
16672TIP3    H171507   4.954   6.694   3.250 -0.6509 -0.0245 -0.3358
16672TIP3    H271508   5.094   6.655   3.208 -1.4581  0.4836 -3.8698
16673TIP3   OH271509   0.088   0.235   1.996  0.3271 -0.4383 -0.1798
16673TIP3    H171510   0.103   0.244   1.902 -0.4853  0.6140 -0.2338
16673TIP3    H271511   0.013   0.175   2.002 -0.4946  0.5396 -0.2933
16674TIP3   OH271512   2.913   5.719  14.514 -0.2707 -0.1236  0.8914
16674TIP3    H171513   2.928   5.628  14.537 -1.5632 -0.6985 -0.3636
16674TIP3    H271514   2.835   5.744  14.563  1.0737  0.9073  2.6149
16675TIP3   OH271515   4.159   2.552  11.779  0.9268  0.1764  0.0676
16675TIP3    H171516   4.185   2.609  11.851 -0.9100  1.5888 -0.3142
16675TIP3    H271517   4.132   2.471  11.822  0.6185  0.7125  0.9286
16676TIP3   OH271518   0.266   5.435   3.384 -0.3963 -0.1921  0.0678
16676TIP3    H171519   0.286   5.354   3.338  1.5158  0.0357  0.4288
16676TIP3    H271520   0.171   5.445   3.374 -0.5077 -1.8571 -0.9555
16677TIP3   OH271521   0.059   6.630  12.547 -0.3132  0.1891  0.3871
16677TIP3    H171522   0.014   6.713  12.562 -0.8109 -0.0490  0.2143
16677TIP3    H271523   0.044   6.610  12.455 -2.2569 -1.2924  0.9614
16678TIP3   OH271524   6.103   3.918  14.239 -0.8878  0.2709 -0.7238
16678TIP3    H171525   6.127   3.867  14.316 -1.8231  1.2058  0.2424
16678TIP3    H271526   6.037   3.866  14.195 -0.7277 -0.0372 -0.6015
16679TIP3   OH271527   0.205   3.345  13.465 -0.4057  0.0323  0.3664
16679TIP3    H171528   0.195   3.256  13.499  1.6552 -0.4784 -0.2334
16679TIP3    H271529   0.154   3.399  13.525 -0.9146 -1.4383  1.3067
16680TIP3   OH271530   0.505   0.075  16.996  0.8233  0.3320  0.2472
16680TIP3    H171531   0.568   0.069  17.067  1.9214 -1.2314 -0.7763
16680TIP3    H271532   0.559   0.080  16.917 -0.3480  0.1032 -0.5917
16681TIP3   OH271533   4.711   4.322   4.034  0.4041  0.3084  0.0695
16681TIP3    H171534   4.666   4.301   4.116 -1.4715  2.5924 -0.2898
16681TIP3    H271535   4.797   4.354   4.061 -0.0079  0.5631  1.1090
16682TIP3   OH271536   3.770   6.703   0.050  0.1139 -0.3848  0.1000
16682TIP3    H171537   3.680   6.724   0.074  0.8909  2.1094  1.2493
16682TIP3    H271538   3.787   6.759  -0.026  0.5315 -1.2657 -0.4651
16683TIP3   OH271539   6.569   0.024  13.348  0.2290 -0.0176 -0.4602
16683TIP3    H171540   6.554   0.035  13.442 -0.7874 -0.0331 -0.6154
16683TIP3    H271541   6.664   0.029  13.339  0.3115  0.4891  0.5041
16684TIP3   OH271542   5.675   3.091  15.720 -0.4987 -0.0348 -0.3518
16684TIP3    H171543   5.632   3.022  15.770 -2.3163 -1.7673 -3.9270
16684TIP3    H271544   5.653   3.172  15.767  0.3661 -1.6096  3.0781
16685TIP3   OH271545   1.465   2.772  12.250  0.2910 -0.7344 -0.0851
16685TIP3    H171546   1.471   2.809  12.338 -0.4209 -1.1053  0.1286
16685TIP3    H271547   1.538   2.812  12.202  0.7313 -0.5865  0.6885
16686TIP3   OH271548   2.936   1.993   2.312 -0.3412 -0.6466 -0.3594
16686TIP3    H171549   2.906   2.004   2.222 -2.2441 -1.2285  0.1650
16686TIP3    H271550   3.019   1.945   2.304  1.9527  3.1353 -1.9754
16687TIP3   OH271551   4.254   3.870  13.731  0.0935 -0.3543  0.0031
16687TIP3    H171552   4.296   3.784  13.736 -0.5009 -0.6262  0.4506
16687TIP3    H271553   4.304   3.924  13.793 -0.3793 -0.7578  0.7562
16688TIP3   OH271554   0.977   3.663  11.901  0.4402 -0.2428 -0.7940
16688TIP3    H171555   1.047   3.726  11.917  0.0895 -0.1830  0.6947
16688TIP3    H271556   1.015   3.578  11.925 -0.0469 -0.1774  0.2735
16689TIP3   OH271557   3.147   2.364   6.706 -0.1729 -0.0096  0.3148
16689TIP3    H171558   3.238   2.334   6.699 -0.5353 -0.8144 -1.6061
16689TIP3    H271559   3.144   2.410   6.790  2.3766  1.3780 -0.2265
16690TIP3   OH271560   3.395   5.675  17.068 -0.3654 -0.2356 -0.5764
16690TIP3    H171561   3.490   5.669  17.082 -0.4463  0.3637  0.2743
16690TIP3    H271562   3.383   5.754  17.016 -0.2700 -1.2305 -2.1844
16691TIP3   OH271563   1.129   5.264   6.000  0.1962 -0.0093 -0.5610
16691TIP3    H171564   1.099   5.239   6.087 -0.8032  0.5696 -0.7233
16691TIP3    H271565   1.224   5.248   6.001 -0.0022 -1.1612  0.2105
16692TIP3   OH271566   1.288   2.037  16.853  0.2892  0.0055 -0.0445
16692TIP3    H171567   1.273   2.091  16.931 -0.3818  0.7455 -0.6645
16692TIP3    H271568   1.203   1.997  16.835  0.6419 -0.8163  0.0705
16693TIP3   OH271569   0.798   1.336  14.650  0.0812 -0.4151  0.4019
16693TIP3    H171570   0.786   1.320  14.556 -0.7257  0.7470  0.2933
16693TIP3    H271571   0.803   1.431  14.658 -1.6372 -0.4033  1.7321
16694TIP3   OH271572   4.037   1.481  12.471 -0.3242 -0.0570  0.0048
16694TIP3    H171573   4.095   1.480  12.395  0.3661  1.2849  0.4786
16694TIP3    H271574   4.034   1.573  12.497 -1.6285 -0.3025  0.7944
16695TIP3   OH271575   3.331   5.055   6.490  0.3770 -0.4730 -0.1111
16695TIP3    H171576   3.253   5.028   6.539  0.6741 -2.8361 -0.8351
16695TIP3    H271577   3.382   5.106   6.553 -0.5821 -1.0089  1.1529
16696TIP3   OH271578   0.515   0.842  11.542  0.7705  0.0599 -0.7122
16696TIP3    H171579   0.508   0.755  11.581 -2.8518 -0.1494 -1.4999
16696TIP3    H271580   0.527   0.826  11.449 -1.8745  0.2315 -1.1599
16697TIP3   OH271581   1.669   1.559  13.891  0.1303 -0.4106 -0.1807
16697TIP3    H171582   1.690   1.609  13.970  1.1570  2.2488 -1.9841
16697TIP3    H271583   1.737   1.585  13.828 -0.8991 -2.0712 -2.0936
16698TIP3   OH271584   1.585   1.177   2.357 -0.5884  0.0665  0.0592
16698TIP3    H171585   1.595   1.122   2.435 -0.6048  1.3562  1.0018
16698TIP3    H271586   1.521   1.243   2.382  1.4050  2.1839 -0.0630
16699TIP3   OH271587   5.527   6.623  15.171 -0.5573 -0.7797 -0.3484
16699TIP3    H171588   5.492   6.688  15.110 -0.0130 -0.0458  0.1055
16699TIP3    H271589   5.577   6.562  15.116 -1.9027 -1.4228 -0.9099
16700TIP3   OH271590   3.128   3.374  11.864 -0.4560 -0.1653 -0.0761
16700TIP3    H171591   3.148   3.298  11.810 -1.3818  0.0960 -0.8107
16700TIP3    H271592   3.097   3.440  11.802 -0.3127  0.5812  0.6298
16701TIP3   OH271593   0.824   0.462   1.327  0.0370  0.1755 -0.4171
16701TIP3    H171594   0.910   0.492   1.297  0.2323 -0.2015 -0.2499
16701TIP3    H271595   0.777   0.542   1.350  0.6992  0.3409  0.4271
16702TIP3   OH271596   5.183   3.358  16.655  0.3671  0.3865  0.6076
16702TIP3    H171597   5.240   3.432  16.677  0.3994  0.6909 -0.4579
16702TIP3    H271598   5.198   3.295  16.725 -2.6944  2.9449  3.9243
16703TIP3   OH271599   4.507   5.662   5.272  0.2850 -0.3276  0.5758
16703TIP3    H171600   4.413   5.649   5.290  0.3376 -1.1504  0.3181
16703TIP3    H271601   4.533   5.583   5.224  0.9565  0.2126  0.0352
16704TIP3   OH271602   6.293   0.995  10.772 -0.1071  0.0656 -0.4905
16704TIP3    H171603   6.262   0.910  10.740  0.4361  0.5206 -2.3857
16704TIP3    H271604   6.389   0.988  10.767  0.1205 -0.4171  2.7812
16705TIP3   OH271605   2.288   1.637   2.993 -0.1585 -0.5160  0.0184
16705TIP3    H171606   2.349   1.572   2.958  1.6204  0.7399  0.6083
16705TIP3    H271607   2.236   1.589   3.058  1.0681 -1.3756  0.3987
16706TIP3   OH271608   5.898   3.873  13.788  0.0156  0.1604 -0.2527
16706TIP3    H171609   5.970   3.907  13.735  0.9020  0.2145  0.9177
16706TIP3    H271610   5.827   3.936  13.776  0.9072  1.2968  0.2268
16707TIP3   OH271611   4.727   0.292   0.594 -0.0265 -0.0557  0.0174
16707TIP3    H171612   4.741   0.311   0.687  0.4686  0.5065 -0.1695
16707TIP3    H271613   4.667   0.217   0.594  1.3770 -1.2266  0.8030
16708TIP3   OH271614   2.286   0.139  16.986 -0.0497 -0.2426 -0.2635
16708TIP3    H171615   2.321   0.077  16.921  1.2343 -0.9926  1.0810
16708TIP3    H271616   2.227   0.087  17.040 -0.3774  0.1572 -0.2306
16709TIP3   OH271617   0.981   3.191   4.530  0.2247  0.7609 -0.5822
16709TIP3    H171618   0.976   3.096   4.544  1.1472  0.5581 -1.4733
16709TIP3    H271619   0.891   3.218   4.516  0.1192 -0.3531 -2.4051
16710TIP3   OH271620   2.481   1.412  12.290  0.4176  0.6424  0.2300
16710TIP3    H171621   2.574   1.427  12.307  0.7163 -2.0764  1.6164
16710TIP3    H271622   2.479   1.358  12.211  0.1855 -0.6673  1.0981
16711TIP3   OH271623   4.055   5.555  12.636  0.3624 -0.3637  0.0396
16711TIP3    H171624   4.143   5.542  12.599  0.6271 -0.7081  0.7677
16711TIP3    H271625   4.070   5.610  12.713 -0.0976 -0.2261  0.0301
16712TIP3   OH271626   4.442   3.826   2.341  0.4300 -0.7679 -0.1270
16712TIP3    H171627   4.439   3.739   2.302 -1.6479 -1.2369  0.9651
16712TIP3    H271628   4.472   3.812   2.431  1.4143 -0.1627 -0.3409
16713TIP3   OH271629   2.920   3.766  11.935 -0.0894 -0.4382  0.1476
16713TIP3    H171630   2.981   3.839  11.938  0.6244 -1.0240  0.2878
16713TIP3    H271631   2.970   3.691  11.968 -1.0595 -0.8120  0.8313
16714TIP3   OH271632   1.968   1.620   0.229 -0.6431  0.5435  0.2639
16714TIP3    H171633   1.916   1.604   0.150  0.0960  0.5013 -0.2256
16714TIP3    H271634   1.959   1.540   0.280 -0.0944  0.0579 -0.3793
16715TIP3   OH271635   2.937   5.417   1.657  0.4022 -0.3149 -0.4980
16715TIP3    H171636   2.907   5.327   1.642  0.8755 -0.5989  0.2163
16715TIP3    H271637   3.017   5.408   1.708 -0.5928  0.5565  1.3140
16716TIP3   OH271638   5.372   1.184  17.086 -0.1400  0.0396 -0.2844
16716TIP3    H171639   5.442   1.134  17.045 -0.3808  0.0556 -0.7354
16716TIP3    H271640   5.414   1.236  17.154 -0.0536 -1.6846  1.0411
16717TIP3   OH271641   0.388   4.574  16.014 -0.0359 -0.1878 -0.5960
16717TIP3    H171642   0.323   4.533  16.072  1.0886 -1.6933 -0.3325
16717TIP3    H271643   0.415   4.504  15.954  1.8597  0.1488 -0.2212
16718TIP3   OH271644   4.601   2.986  13.197 -0.0042  0.1041  0.1687
16718TIP3    H171645   4.576   3.076  13.219 -1.4647 -0.5028  1.1394
16718TIP3    H271646   4.625   2.990  13.104  0.4612  1.5773  0.3236
16719TIP3   OH271647   4.408   0.591  16.031  0.6577 -0.5815 -0.1036
16719TIP3    H171648   4.328   0.543  16.011  0.0371 -0.7375  2.4947
16719TIP3    H271649   4.457   0.533  16.089  1.2627  0.7013  0.7159
16720TIP3   OH271650   0.120   5.347   1.157  0.2823 -0.1822 -0.1386
16720TIP3    H171651   0.086   5.435   1.172  1.5330  0.5351 -1.3265
16720TIP3    H271652   0.055   5.304   1.102 -1.6957 -1.0114  2.6208
16721TIP3   OH271653   6.712   3.191  13.347  0.0231  0.3489  0.3012
16721TIP3    H171654   6.667   3.258  13.295 -0.1950 -0.2937 -0.3523
16721TIP3    H271655   6.803   3.219  13.350 -0.0761  0.6987  0.0749
16722TIP3   OH271656   2.072   2.857  16.418 -0.1181  0.5553  0.4940
16722TIP3    H171657   2.164   2.881  16.427 -0.0416  0.3536  0.2667
16722TIP3    H271658   2.032   2.883  16.501  0.4500 -0.7128  1.2066
16723TIP3   OH271659   4.265   3.133  13.146  0.2465 -0.2023  0.5560
16723TIP3    H171660   4.202   3.194  13.107 -1.6234 -3.2679 -1.7127
16723TIP3    H271661   4.339   3.132  13.085  0.2317 -0.2506  0.5387
16724TIP3   OH271662   0.687   3.621  17.237 -0.7599 -0.1731  0.0335
16724TIP3    H171663   0.771   3.658  17.209  1.3178 -1.1053  4.1722
16724TIP3    H271664   0.686   3.532  17.202  0.7704 -0.6375  1.0604
16725TIP3   OH271665   2.389   3.039  12.589  0.2802 -0.3693 -0.3310
16725TIP3    H171666   2.293   3.040  12.588  0.2742 -0.7401 -1.1895
16725TIP3    H271667   2.414   3.115  12.642 -0.4793  0.2508 -0.8453
16726TIP3   OH271668   4.210   3.258   2.230  0.2331  0.3369 -0.0856
16726TIP3    H171669   4.214   3.231   2.322 -1.0087  1.0688  0.2025
16726TIP3    H271670   4.296   3.295   2.213  1.6387 -2.6565 -0.1762
16727TIP3   OH271671   1.040   5.307  16.830  0.3848 -0.5494  0.2102
16727TIP3    H171672   1.027   5.212  16.831 -1.9039 -0.2762  1.1613
16727TIP3    H271673   1.126   5.320  16.870  0.2813 -2.1568  1.0098
16728TIP3   OH271674   3.391   5.812   5.615 -1.0467  0.1930  0.4358
16728TIP3    H171675   3.412   5.733   5.565  1.7905  0.3747  1.1465
16728TIP3    H271676   3.399   5.785   5.706 -0.4146  1.1830  0.6915
16729TIP3   OH271677   1.311   6.608   0.220  0.3896  0.5159  0.5638
16729TIP3    H171678   1.327   6.687   0.169  0.5490 -0.0732 -0.3235
16729TIP3    H271679   1.221   6.583   0.198  0.3590  0.4205  0.7976
16730TIP3   OH271680   2.874   3.000  15.873  0.2787 -0.2388 -0.6493
16730TIP3    H171681   2.815   2.955  15.813  0.4954  0.8672 -1.7428
16730TIP3    H271682   2.956   2.950  15.869 -0.1952 -1.0833 -0.0403
16731TIP3   OH271683   3.818   4.296  15.034 -0.2216 -0.7145  0.1434
16731TIP3    H171684   3.841   4.388  15.048 -1.6873 -0.1456 -0.9467
16731TIP3    H271685   3.740   4.282  15.088 -0.1877 -1.2374  0.0603
16732TIP3   OH271686   1.767   5.877   4.393 -0.2004  0.5686  0.5480
16732TIP3    H171687   1.738   5.811   4.329  1.7551 -0.6172  0.7720
16732TIP3    H271688   1.688   5.901   4.441 -1.3496 -0.0463 -0.9406
16733TIP3   OH271689   5.905   3.185   0.592 -0.1808 -0.3936 -0.0375
16733TIP3    H171690   5.912   3.109   0.650  0.1593 -0.4298 -0.1223
16733TIP3    H271691   5.913   3.261   0.650 -1.0526 -0.4099  0.1174
16734TIP3   OH271692   2.761   5.106   0.586 -0.6373  0.0047 -0.3279
16734TIP3    H171693   2.803   5.190   0.605  0.3975 -0.3738 -0.8877
16734TIP3    H271694   2.747   5.108   0.491  0.7775 -1.0537 -0.5928
16735TIP3   OH271695   5.421   4.620  14.060  0.1054 -0.8499  0.4976
16735TIP3    H171696   5.452   4.711  14.064 -1.2238 -0.3944  1.1800
16735TIP3    H271697   5.358   4.619  13.989 -2.9627 -0.1483  2.9833
16736TIP3   OH271698   0.146   5.371  11.275 -0.2607 -0.2368  0.2589
16736TIP3    H171699   0.167   5.437  11.209 -0.3654 -0.8921 -0.4416
16736TIP3    H271700   0.222   5.371  11.333  1.2411 -1.7121 -1.5606
16737TIP3   OH271701   0.308   4.703   5.921 -0.5322 -0.1424 -0.5261
16737TIP3    H171702   0.391   4.708   5.969 -0.4033 -0.5768 -0.7036
16737TIP3    H271703   0.289   4.610   5.915 -3.2599 -0.0642  3.3257
16738TIP3   OH271704   5.131   3.681   4.853 -0.4294  0.5445 -0.4731
16738TIP3    H171705   5.067   3.659   4.920 -0.3183  1.8929  0.0903
16738TIP3    H271706   5.195   3.610   4.857  0.3186  1.2703  1.8115
16739TIP3   OH271707   2.135   4.292   1.804  0.5500  0.0666  0.9998
16739TIP3    H171708   2.140   4.276   1.710  4.0250 -0.4709  1.1165
16739TIP3    H271709   2.098   4.380   1.812 -0.7964 -0.2900 -0.7541
16740TIP3   OH271710   6.387   0.874   3.571  0.3864  0.3016 -0.0901
16740TIP3    H171711   6.403   0.799   3.629  0.4998  1.0046  0.8154
16740TIP3    H271712   6.474   0.908   3.550  0.3622 -0.1590 -0.9724
16741TIP3   OH271713   5.403   6.064   1.127 -0.7825  0.6010 -0.0251
16741TIP3    H171714   5.439   6.112   1.202 -0.4058 -2.2753  1.8058
16741TIP3    H271715   5.479   6.032   1.080 -1.0290  1.4443 -1.0301
16742TIP3   OH271716   6.178   0.842   2.171  0.3431  0.5393  0.2098
16742TIP3    H171717   6.150   0.794   2.249 -0.6287  1.1081  0.2165
16742TIP3    H271718   6.132   0.800   2.099 -0.6032  1.5221  0.2290
16743TIP3   OH271719   6.410   5.076  13.988 -0.1502  0.0081 -0.6244
16743TIP3    H171720   6.503   5.056  13.992 -0.5915 -2.2628 -0.3691
16743TIP3    H271721   6.372   5.004  13.938 -1.8758  0.4244  0.0100
16744TIP3   OH271722   1.272   1.204  16.882 -0.4502 -0.0486 -0.4518
16744TIP3    H171723   1.359   1.232  16.911 -0.9675  0.4810  0.6249
16744TIP3    H271724   1.234   1.282  16.841 -0.9937  0.1736  0.4511
16745TIP3   OH271725   5.747   5.154  16.676  0.6738 -0.6328 -0.1663
16745TIP3    H171726   5.768   5.242  16.707  0.2875 -0.2912 -0.8541
16745TIP3    H271727   5.738   5.102  16.756  0.3880  0.0697  0.2701
16746TIP3   OH271728   2.865   1.709  13.259  0.4805 -0.0697  0.2796
16746TIP3    H171729   2.902   1.656  13.330  1.8890 -0.3449 -0.6000
16746TIP3    H271730   2.942   1.750  13.219 -0.3767  0.7701 -0.5297
16747TIP3   OH271731   5.908   3.817   3.918  0.6836 -0.3959 -0.1220
16747TIP3    H171732   5.840   3.844   3.857  1.0028 -0.1928 -0.3873
16747TIP3    H271733   5.990   3.848   3.879  0.8204  0.4166  0.7854
16748TIP3   OH271734   2.770   1.646  16.518  0.4010 -0.2970  0.0376
16748TIP3    H171735   2.817   1.672  16.597  3.8060  0.2853 -1.9573
16748TIP3    H271736   2.804   1.559  16.497  0.3171 -0.0352 -1.2726
16749TIP3   OH271737   3.458   5.281  13.431  0.4562  0.4914  0.1622
16749TIP3    H171738   3.446   5.227  13.510 -1.9236 -0.3769 -0.6950
16749TIP3    H271739   3.501   5.223  13.368  0.6754  0.5846  0.2264
16750TIP3   OH271740   4.486   1.925   5.747 -0.0586 -0.2977  0.0893
16750TIP3    H171741   4.543   1.997   5.720 -2.4309  1.4437 -0.6147
16750TIP3    H271742   4.461   1.882   5.665 -2.2329  1.0095 -0.0135
16751TIP3   OH271743   6.292   5.623   6.005  0.1493 -0.3684 -0.0716
16751TIP3    H171744   6.219   5.561   6.011 -2.1080  2.1305  0.0013
16751TIP3    H271745   6.304   5.637   5.911  1.0163 -1.2487 -0.1077
16752TIP3   OH271746   6.315   6.561  13.899  0.3268 -0.3179  0.1806
16752TIP3    H171747   6.223   6.579  13.916 -0.0965 -1.5233 -0.7194
16752TIP3    H271748   6.354   6.647  13.886 -0.9296  0.1385 -0.6952
16753TIP3   OH271749   2.350   1.586  15.812  0.5452  0.4312 -0.0251
16753TIP3    H171750   2.326   1.645  15.884  1.1514  0.0347  0.5081
16753TIP3    H271751   2.411   1.637  15.759 -0.8573  1.1886 -0.9955
16754TIP3   OH271752   1.364   0.645   2.977  1.1021  0.2909 -0.1093
16754TIP3    H171753   1.354   0.729   2.934  1.3726  0.7685  0.7449
16754TIP3    H271754   1.400   0.665   3.064  0.9881 -0.6781  0.1858
16755TIP3   OH271755   4.678   3.303  12.553  0.4407 -0.4687 -0.4089
16755TIP3    H171756   4.686   3.269  12.642 -2.1603  0.5780  0.3148
16755TIP3    H271757   4.621   3.240  12.509 -0.3012  0.2922 -0.5620
16756TIP3   OH271758   3.903   3.157  12.902 -0.4744 -0.0671  0.5462
16756TIP3    H171759   3.990   3.123  12.881 -1.2674 -2.0955  0.3912
16756TIP3    H271760   3.862   3.171  12.817 -1.4134 -2.2383  0.5713
16757TIP3   OH271761   0.609   1.265   0.669 -0.3360 -0.1500 -0.2015
16757TIP3    H171762   0.584   1.195   0.730  0.6569  1.2546  1.9686
16757TIP3    H271763   0.681   1.310   0.714  0.2354  1.1796 -2.3271
16758TIP3   OH271764   6.509   1.680  11.878  0.0538  0.1153  0.3626
16758TIP3    H171765   6.442   1.617  11.855 -0.9061  0.7865  1.2447
16758TIP3    H271766   6.566   1.683  11.801  0.4721 -2.2162  0.5067
16759TIP3   OH271767   0.662   1.292  14.406 -0.2629  0.2336  0.2695
16759TIP3    H171768   0.657   1.214  14.350  1.0937  0.1131  0.2799
16759TIP3    H271769   0.711   1.355  14.353  0.5490  0.3094  1.0922
16760TIP3   OH271770   4.096   6.013  11.212  0.1790 -0.1910  0.4521
16760TIP3    H171771   4.168   5.985  11.269  0.2416 -2.2410 -0.5274
16760TIP3    H271772   4.034   5.940  11.217 -0.7256  0.4987 -0.5548
16761TIP3   OH271773   3.155   3.028  11.508 -0.4751  0.1962  0.2889
16761TIP3    H171774   3.224   3.071  11.458 -1.4413  1.8688  0.3067
16761TIP3    H271775   3.119   2.962  11.448  0.6911 -0.2495  0.0625
16762TIP3   OH271776   6.706   0.920   2.852  0.1960  0.5104  0.3977
16762TIP3    H171777   6.775   0.894   2.913 -0.3893 -0.7531  0.5700
16762TIP3    H271778   6.730   0.880   2.769  0.7675  1.8685 -0.0965
16763TIP3   OH271779   5.182   2.178   0.946  0.6071  0.0087  0.0480
16763TIP3    H171780   5.104   2.159   0.894  0.5778 -1.4167  0.5768
16763TIP3    H271781   5.252   2.190   0.881  1.1108 -4.0935 -0.4225
16764TIP3   OH271782   5.669   3.357  12.109  0.2664  0.2414 -0.2159
16764TIP3    H171783   5.581   3.351  12.072  0.3287 -0.9754 -0.1921
16764TIP3    H271784   5.656   3.341  12.203  0.4665  0.4493 -0.1529
16765TIP3   OH271785   3.641   5.794   5.437 -0.2050 -0.2759 -0.2874
16765TIP3    H171786   3.703   5.768   5.504 -2.0819  0.0943  1.6995
16765TIP3    H271787   3.580   5.720   5.430 -0.1073 -0.2650 -1.5344
16766TIP3   OH271788   3.175   3.319   4.651 -0.1961 -0.7659  0.1400
16766TIP3    H171789   3.140   3.322   4.562  0.7342 -1.3513 -0.2609
16766TIP3    H271790   3.262   3.359   4.644 -0.5400  0.1751  1.0096
16767TIP3   OH271791   0.507   5.288   0.843  0.5513 -0.1452  0.3083
16767TIP3    H171792   0.434   5.293   0.782  0.5752 -1.3220  0.1561
16767TIP3    H271793   0.475   5.331   0.922  0.7248  1.9170 -0.6957
16768TIP3   OH271794   3.317   0.122  13.110 -0.1735  0.3401  0.3437
16768TIP3    H171795   3.371   0.106  13.033  0.9990 -0.4042  1.2997
16768TIP3    H271796   3.266   0.042  13.121 -0.6174  0.5894  0.1372
16769TIP3   OH271797   5.536   1.292  15.025  0.1799  0.1679  0.1802
16769TIP3    H171798   5.538   1.344  14.944 -0.7710  0.0072  0.0454
16769TIP3    H271799   5.460   1.235  15.015 -0.2838  0.5392  1.4289
16770TIP3   OH271800   1.669   1.367  12.902  0.0800  0.3032  0.4169
16770TIP3    H171801   1.751   1.328  12.934 -0.1558  1.1489  2.1658
16770TIP3    H271802   1.684   1.462  12.908 -0.9004  0.4665  0.3816
16771TIP3   OH271803   6.404   1.753  16.430  0.1733 -0.0214 -0.0270
16771TIP3    H171804   6.433   1.798  16.351  0.3786 -0.3974 -0.1707
16771TIP3    H271805   6.471   1.771  16.495 -0.9303  1.8834  0.6571
16772TIP3   OH271806   2.815   5.018   4.726 -0.9254 -0.0298 -0.3090
16772TIP3    H171807   2.776   5.105   4.735 -0.6503  0.1807 -1.1139
16772TIP3    H271808   2.756   4.971   4.667  0.2531  0.4479 -1.9373
16773TIP3   OH271809   4.433   5.894   3.357  0.0350  0.3969  0.0684
16773TIP3    H171810   4.362   5.888   3.293 -0.2817  1.4092  0.3141
16773TIP3    H271811   4.507   5.850   3.315 -0.2158  0.9036 -0.9310
16774TIP3   OH271812   1.308   6.028  17.327  0.1660  0.2771 -0.3528
16774TIP3    H171813   1.330   5.982  17.408  3.6890 -0.2857 -1.4578
16774TIP3    H271814   1.292   6.118  17.354 -0.1810 -0.1921  1.0997
16775TIP3   OH271815   1.021   3.011   3.995 -0.8106 -0.0248  0.0187
16775TIP3    H171816   1.096   3.001   4.053 -0.8074 -0.9751 -0.1427
16775TIP3    H271817   0.968   2.933   4.009 -1.0467 -0.0436 -0.9118
16776TIP3   OH271818   1.080   5.627  15.773  0.0361  0.6622  0.2955
16776TIP3    H171819   1.138   5.685  15.822  0.3990 -1.7919  3.0394
16776TIP3    H271820   1.138   5.560  15.737 -0.5433  1.0846 -1.5243
16777TIP3   OH271821   1.976   3.192  17.050 -0.1929  0.2365 -0.2762
16777TIP3    H171822   1.927   3.175  17.131 -1.9360 -3.5966 -1.9139
16777TIP3    H271823   2.062   3.223  17.080 -1.7059  1.8311  2.8685
16778TIP3   OH271824   5.050   5.993   1.619 -0.2139  0.6481 -0.4692
16778TIP3    H171825   5.013   6.020   1.704  1.0209 -0.6753  0.5309
16778TIP3    H271826   4.988   5.928   1.586  1.1875 -1.7527  1.3210
16779TIP3   OH271827   4.309   0.265   6.041 -0.6062  0.3561  0.0755
16779TIP3    H171828   4.324   0.179   6.081 -2.5353 -0.3616 -0.6107
16779TIP3    H271829   4.292   0.323   6.114 -1.8215 -0.4354  0.4573
16780TIP3   OH271830   6.213   1.543   5.659  0.6349 -0.4466  0.1321
16780TIP3    H171831   6.308   1.556   5.657  0.3759  1.6880 -0.8616
16780TIP3    H271832   6.190   1.518   5.570  0.0365  1.1866 -0.1963
16781TIP3   OH271833   3.058   3.617   5.971  0.1901  0.1403  0.3871
16781TIP3    H171834   3.014   3.614   5.886 -2.5006  0.3223  1.6636
16781TIP3    H271835   3.056   3.710   5.996  0.3567  0.0114  0.9027
16782TIP3   OH271836   3.538   5.018   1.286 -0.4756 -0.2745 -0.0854
16782TIP3    H171837   3.481   5.012   1.209 -1.7138 -0.5703  0.8362
16782TIP3    H271838   3.613   5.071   1.256 -1.1670  0.0217 -1.3513
16783TIP3   OH271839   4.116   4.712  13.043  0.2325 -0.5883 -0.0900
16783TIP3    H171840   4.165   4.774  13.096  1.1467 -1.0984 -0.3079
16783TIP3    H271841   4.105   4.755  12.958  0.6530 -0.6145 -0.1623
16784TIP3   OH271842   2.752   0.422  16.751 -0.4023 -0.2981 -0.1031
16784TIP3    H171843   2.712   0.447  16.668 -0.6216 -0.2507  0.0178
16784TIP3    H271844   2.681   0.426  16.815 -0.6599 -2.0914 -0.2248
16785TIP3   OH271845   2.014   1.693   1.255 -0.2155 -0.2617 -0.2694
16785TIP3    H171846   1.920   1.713   1.256 -0.0926  0.3812 -1.0084
16785TIP3    H271847   2.056   1.778   1.265  0.3016 -0.4008 -1.2257
16786TIP3   OH271848   2.118   0.175   4.068 -0.2367 -0.1231 -0.3037
16786TIP3    H171849   2.212   0.157   4.075 -0.1986  0.1001 -0.2153
16786TIP3    H271850   2.112   0.270   4.078 -0.3058  0.0789 -1.9581
16787TIP3   OH271851   1.295   6.289  13.841  0.9771  0.1660  0.9514
16787TIP3    H171852   1.305   6.292  13.746  0.8414 -0.7425  0.9030
16787TIP3    H271853   1.358   6.223  13.870  0.7990  0.2118  1.4595
16788TIP3   OH271854   0.661   4.811  12.252  0.4402 -0.0123  0.6922
16788TIP3    H171855   0.733   4.870  12.276 -0.0020  0.7120  0.2579
16788TIP3    H271856   0.691   4.768  12.172  1.0888 -0.9698  1.4273
16789TIP3   OH271857   5.994   1.403   4.770 -0.1486  0.2791 -0.4242
16789TIP3    H171858   5.927   1.465   4.740 -0.9310  0.6463  1.8423
16789TIP3    H271859   5.952   1.317   4.761 -0.7648  0.4687  0.5394
16790TIP3   OH271860   3.529   5.207   2.971 -0.1400  0.0708  0.0702
16790TIP3    H171861   3.596   5.265   3.006  1.4320 -0.9448 -1.1048
16790TIP3    H271862   3.483   5.174   3.048  0.5847  0.9351  0.8988
16791TIP3   OH271863   1.014   0.203  15.923  0.2478  0.1806  0.1035
16791TIP3    H171864   1.109   0.211  15.934  0.3069 -1.1271  0.6804
16791TIP3    H271865   0.977   0.260  15.990  0.6269  0.1233  0.3643
16792TIP3   OH271866   0.426   3.870  16.469 -0.2170  0.4125 -0.5977
16792TIP3    H171867   0.399   3.835  16.384 -0.6106  0.3124 -0.4353
16792TIP3    H271868   0.457   3.794  16.518  1.8721  0.7376 -1.3259
16793TIP3   OH271869   4.493   0.165  12.570  0.4632  0.2014  0.2127
16793TIP3    H171870   4.449   0.175  12.655  1.9606 -0.4346  1.0989
16793TIP3    H271871   4.486   0.251  12.529 -0.7079  0.3837  0.7441
16794TIP3   OH271872   3.207   5.244  12.824 -0.1149  0.5395 -0.1610
16794TIP3    H171873   3.302   5.239  12.840 -0.2430 -0.2231  0.3818
16794TIP3    H271874   3.167   5.217  12.907 -0.8042 -0.4023 -0.7852
16795TIP3   OH271875   4.067   4.048  13.897 -0.3776 -0.8368 -0.5549
16795TIP3    H171876   4.116   4.106  13.955 -1.2897 -0.1227 -0.4785
16795TIP3    H271877   4.118   4.046  13.816 -0.2166 -0.1223 -0.4728
16796TIP3   OH271878   0.222   2.410  11.241 -0.8838 -0.6749 -0.0902
16796TIP3    H171879   0.253   2.340  11.298 -0.9015 -0.8784 -0.3265
16796TIP3    H271880   0.188   2.365  11.164 -0.9122 -0.4065 -0.2379
16797TIP3   OH271881   1.459   5.448   1.233 -0.0273  0.6410  0.4166
16797TIP3    H171882   1.447   5.543   1.235  0.7140  0.7951  3.5217
16797TIP3    H271883   1.376   5.412   1.263 -0.2122  0.3097 -0.4722
16798TIP3   OH271884   1.281   0.065   5.537 -0.7852  0.7621  0.0211
16798TIP3    H171885   1.194   0.029   5.519  0.0842 -0.2364 -2.8044
16798TIP3    H271886   1.291   0.137   5.474 -0.1822  2.0917  1.5351
16799TIP3   OH271887   0.623   6.397   3.280 -0.1170 -0.0659  0.7610
16799TIP3    H171888   0.661   6.447   3.353  1.9472  0.4978 -0.5882
16799TIP3    H271889   0.591   6.464   3.220  1.1391 -0.3560 -0.2879
16800TIP3   OH271890   1.596   1.039   5.206 -0.1551 -0.2699  0.0609
16800TIP3    H171891   1.567   1.029   5.297 -1.2597 -0.0192 -0.2419
16800TIP3    H271892   1.570   1.128   5.183 -2.5367 -1.2320 -1.3615
16801TIP3   OH271893   6.443   0.080  16.525  0.6941  0.0436 -0.0292
16801TIP3    H171894   6.509   0.149  16.531 -0.2763  0.9155  0.9535
16801TIP3    H271895   6.490   0.000  16.552  1.3342  0.6442  0.6700
16802TIP3   OH271896   4.357   3.486  11.628  0.2953  0.1320 -0.2236
16802TIP3    H171897   4.396   3.550  11.687  3.5375  0.3165 -2.3124
16802TIP3    H271898   4.302   3.538  11.569 -2.0663  0.0761  1.7961
16803TIP3   OH271899   4.053   5.737  11.209 -0.1721 -0.0198 -0.6133
16803TIP3    H171900   3.981   5.676  11.223 -1.5815  1.4568 -1.0899
16803TIP3    H271901   4.115   5.719  11.280 -2.9563  1.4289  2.4269
16804TIP3   OH271902   2.418   6.307  12.532 -0.2420 -0.7369  0.2427
16804TIP3    H171903   2.451   6.241  12.471  0.7379  0.2268 -0.2953
16804TIP3    H271904   2.486   6.315  12.598 -0.7375 -0.8627  0.7770
16805TIP3   OH271905   2.124   1.517   0.534 -0.2937  0.2525  0.6564
16805TIP3    H171906   2.053   1.580   0.523 -0.4491 -0.1816 -1.0718
16805TIP3    H271907   2.080   1.434   0.553 -0.2373  0.1327  0.2851
16806TIP3   OH271908   4.628   4.440  16.098 -0.0435  0.4888  0.2315
16806TIP3    H171909   4.534   4.447  16.080  0.0511  0.8515 -0.1408
16806TIP3    H271910   4.633   4.424  16.192 -0.4488  1.3493  0.4072
16807TIP3   OH271911   1.224   5.380  13.606 -0.1127  0.2964  0.1877
16807TIP3    H171912   1.181   5.374  13.691  0.1840  0.6349  0.3655
16807TIP3    H271913   1.278   5.302  13.601 -0.3930  0.1025  0.1622
16808TIP3   OH271914   3.475   5.328   6.252  0.0757  0.0377 -0.3430
16808TIP3    H171915   3.401   5.270   6.231 -0.0484  1.1118 -3.3725
16808TIP3    H271916   3.441   5.386   6.320 -0.7974 -1.4475  0.5535
16809TIP3   OH271917   5.723   3.031  14.507  0.2623  0.0544 -0.5044
16809TIP3    H171918   5.747   3.121  14.484  0.8893 -0.1625 -0.7187
16809TIP3    H271919   5.704   2.989  14.424 -0.1175  0.0141 -0.3973
16810TIP3   OH271920   2.133   6.182  14.762 -0.3290  0.1240  0.2504
16810TIP3    H171921   2.160   6.273  14.757  3.5502 -0.6547  2.2769
16810TIP3    H271922   2.182   6.138  14.693 -3.0228 -0.3939 -1.4617
16811TIP3   OH271923   3.444   2.891  16.158  0.8112  0.3089  0.1368
16811TIP3    H171924   3.421   2.807  16.198  2.4765  0.1321  0.7931
16811TIP3    H271925   3.422   2.956  16.226  2.1019  0.1429  0.7484
16812TIP3   OH271926   2.576   2.059   3.791  0.0944 -0.0182 -0.7476
16812TIP3    H171927   2.497   2.030   3.746  0.2169 -0.9428 -0.3812
16812TIP3    H271928   2.648   2.025   3.738  0.2797  1.3244 -1.4129
16813TIP3   OH271929   1.927   1.404  12.214 -0.2039  0.2968 -0.2893
16813TIP3    H171930   1.969   1.455  12.283 -1.6862  2.0344 -0.5937
16813TIP3    H271931   1.864   1.348  12.259 -0.4745  0.7077 -0.1584
16814TIP3   OH271932   0.044   4.603   5.987  0.4284 -0.0188 -0.4313
16814TIP3    H171933   0.027   4.550   6.065 -0.8491  0.4163 -0.3867
16814TIP3    H271934   0.103   4.673   6.018 -1.6264  1.3249  0.6760
16815TIP3   OH271935   1.362   6.373  12.823 -0.2302  0.0700 -0.3724
16815TIP3    H171936   1.417   6.449  12.803 -1.2610  1.0727  0.4679
16815TIP3    H271937   1.328   6.346  12.738  0.1922  0.5082 -0.6936
16816TIP3   OH271938   2.003   2.444   0.168  0.2752 -0.5906  0.4082
16816TIP3    H171939   1.912   2.447   0.139  0.0964  0.5790  1.0291
16816TIP3    H271940   2.055   2.460   0.089  0.0346 -2.8402 -0.2560
16817TIP3   OH271941   4.076   2.141   5.161  0.7269 -0.0511  0.2671
16817TIP3    H171942   4.144   2.074   5.154  0.5419 -0.1592 -0.5596
16817TIP3    H271943   4.053   2.162   5.071 -0.4133 -0.0800  0.5368
16818TIP3   OH271944   0.087   4.805  12.991  0.9332 -0.4278 -0.5897
16818TIP3    H171945   0.076   4.717  13.028  2.7490 -0.3961  0.1324
16818TIP3    H271946   0.131   4.791  12.908  2.1141 -0.1726 -0.0273
16819TIP3   OH271947   1.003   5.559   4.751  0.1137  0.1232  0.2302
16819TIP3    H171948   0.953   5.625   4.800 -1.3108 -0.4256 -0.4394
16819TIP3    H271949   0.990   5.478   4.800  0.2045 -0.0612 -0.0541
16820TIP3   OH271950   6.796   6.648   3.776  0.1245 -0.8521  0.5417
16820TIP3    H171951   6.884   6.637   3.812 -0.3365  1.8357  2.8879
16820TIP3    H271952   6.740   6.655   3.854 -1.6155  0.9883 -0.7748
16821TIP3   OH271953   5.572   6.203  14.414 -0.3474  0.0320 -0.0353
16821TIP3    H171954   5.491   6.253  14.410 -0.5645 -0.3368 -0.4377
16821TIP3    H271955   5.630   6.254  14.470 -0.4402  0.9007 -0.7222
16822TIP3   OH271956   6.798   5.806  16.553  0.1685  0.6623  0.7161
16822TIP3    H171957   6.758   5.799  16.640  1.1616 -0.5725  1.1074
16822TIP3    H271958   6.827   5.898  16.547  2.1761  0.2664  2.6960
16823TIP3   OH271959   1.588   2.103  15.039  0.1287  0.4772 -0.0549
16823TIP3    H171960   1.659   2.092  15.103  0.0618  1.0485  0.1290
16823TIP3    H271961   1.610   2.044  14.968  0.8634  0.7433 -0.0585
16824TIP3   OH271962   5.462   1.836   4.778  0.1623 -0.2346  0.4758
16824TIP3    H171963   5.388   1.791   4.738  1.3415 -0.3471 -1.7137
16824TIP3    H271964   5.454   1.927   4.747  2.0965 -0.7107 -1.6804
16825TIP3   OH271965   3.754   3.114  17.044  0.4988  0.4533  0.0988
16825TIP3    H171966   3.679   3.114  16.984 -0.0233  0.1666  0.7369
16825TIP3    H271967   3.754   3.201  17.083  0.0383  0.2136  0.6499
16826TIP3   OH271968   4.453   4.204   2.014  0.4816  0.0954  0.2272
16826TIP3    H171969   4.524   4.258   1.979  0.8543 -0.7378 -0.3525
16826TIP3    H271970   4.495   4.121   2.036 -0.3648 -0.5076 -0.3757
16827TIP3   OH271971   3.456   4.893   5.552  0.5463 -0.3707  0.5901
16827TIP3    H171972   3.435   4.958   5.485  2.1629  0.7084  1.0855
16827TIP3    H271973   3.550   4.902   5.567  0.1296  0.0029  3.5801
16828TIP3   OH271974   3.377   0.617  12.956 -0.2591 -0.4342  0.0952
16828TIP3    H171975   3.320   0.543  12.938 -0.1915 -0.2168 -1.1249
16828TIP3    H271976   3.459   0.578  12.987  0.1616 -0.9603 -1.5848
16829TIP3   OH271977   5.344   5.330  17.074 -0.5010 -0.2063 -0.1136
16829TIP3    H171978   5.322   5.398  17.010  0.2937 -1.8071 -2.1942
16829TIP3    H271979   5.263   5.315  17.123 -1.0988  1.1434 -0.6405
16830TIP3   OH271980   1.678   1.661  10.528 -0.2439 -0.0445 -0.2557
16830TIP3    H171981   1.588   1.657  10.495 -0.3916 -3.7332  0.1581
16830TIP3    H271982   1.680   1.741  10.580 -3.6289 -0.3027  0.5375
16831TIP3   OH271983   4.124   2.473   5.449  0.3475 -0.9988 -0.9119
16831TIP3    H171984   4.167   2.430   5.524  0.2265 -0.9183 -0.7968
16831TIP3    H271985   4.033   2.482   5.475  0.7223  1.1273 -0.1040
16832TIP3   OH271986   6.345   4.447   4.055  0.3279 -0.2536  0.0154
16832TIP3    H171987   6.340   4.497   3.973 -0.0007 -2.7262 -1.5828
16832TIP3    H271988   6.256   4.450   4.090 -0.1904 -1.3286 -1.1362
16833TIP3   OH271989   0.333   3.392   6.091  0.4859 -0.5726 -0.3024
16833TIP3    H171990   0.335   3.314   6.146  1.5693 -0.2484  0.1558
16833TIP3    H271991   0.354   3.361   6.003  1.4053 -0.7472 -0.0328
16834TIP3   OH271992   4.576   0.673  13.258  0.5667  0.2684  0.0095
16834TIP3    H171993   4.500   0.633  13.301  0.0410 -0.5320 -1.6064
16834TIP3    H271994   4.538   0.737  13.198  1.1873  0.2199 -0.4418
16835TIP3   OH271995   5.743   4.497   2.481 -0.7390  0.2440  0.2419
16835TIP3    H171996   5.681   4.557   2.440 -1.3918  0.1433  1.0669
16835TIP3    H271997   5.778   4.546   2.555 -0.9343 -0.2336  0.6479
16836TIP3   OH271998   1.178   5.211   0.622 -0.0468  0.0829 -0.0506
16836TIP3    H171999   1.184   5.259   0.704 -1.2708  0.6492 -0.2759
16836TIP3    H272000   1.207   5.122   0.644 -2.1033 -0.2871  1.4412
16837TIP3   OH272001   2.412   4.733   2.824 -0.3686 -0.7959 -0.4008
16837TIP3    H172002   2.395   4.671   2.753  1.5954  0.4227 -2.0413
16837TIP3    H272003   2.349   4.803   2.811  1.1937  0.3679 -2.2254
16838TIP3   OH272004   1.948   6.715  16.802 -0.0706 -0.3410  0.0943
16838TIP3    H172005   1.971   6.622  16.798 -1.7602 -0.9016  1.7317
16838TIP3    H272006   1.906   6.725  16.887 -0.3441  1.8524 -0.2438
16839TIP3   OH272007   2.672   5.518  17.141 -0.1256  0.5028 -0.2313
16839TIP3    H172008   2.687   5.547  17.051 -1.8806 -0.0152 -0.7193
16839TIP3    H272009   2.760   5.510  17.178  0.6949 -0.2760 -2.2075
16840TIP3   OH272010   6.487   1.503   0.123 -0.2887  0.0383  0.1164
16840TIP3    H172011   6.582   1.517   0.127  0.2451 -2.7095 -1.0350
16840TIP3    H272012   6.461   1.542   0.039  0.0087 -0.1396 -0.0604
16841TIP3   OH272013   4.684   5.953   2.508 -0.4109 -0.4896 -0.2362
16841TIP3    H172014   4.746   6.023   2.525 -0.5323 -0.5992  0.6995
16841TIP3    H272015   4.714   5.914   2.426 -0.5859  0.9047 -0.9979
16842TIP3   OH272016   6.385   1.909   4.734 -0.3373  0.1326 -0.0490
16842TIP3    H172017   6.319   1.934   4.669 -0.9280 -0.2478  0.3916
16842TIP3    H272018   6.423   1.991   4.763  0.8212  0.2615 -1.7640
16843TIP3   OH272019   3.871   5.695   3.739  0.5138 -0.1403 -0.3116
16843TIP3    H172020   3.963   5.677   3.761 -0.1198 -0.9096  2.0473
16843TIP3    H272021   3.843   5.619   3.689  0.1642 -1.8868  2.3558
16844TIP3   OH272022   5.921   3.770   1.202 -0.2024 -0.0004  0.0858
16844TIP3    H172023   5.883   3.856   1.186 -0.8674 -0.3467 -0.2601
16844TIP3    H272024   6.009   3.788   1.235  1.2739  0.8233 -3.8000
16845TIP3   OH272025   0.967   0.031  14.128  0.2931 -0.4476 -0.1356
16845TIP3    H172026   0.988   0.120  14.102  0.6460 -0.7761 -1.0478
16845TIP3    H272027   0.932   0.038  14.217  1.4465  0.4625  0.2712
16846TIP3   OH272028   2.750   2.845  15.565 -0.7456  0.6503 -0.1024
16846TIP3    H172029   2.711   2.829  15.651  0.5880  1.6402  0.7361
16846TIP3    H272030   2.758   2.941  15.560  3.3373  0.5472  0.7044
16847TIP3   OH272031   5.915   0.660   6.141  0.4856  0.3934 -0.3556
16847TIP3    H172032   5.966   0.643   6.220  0.0308  1.0374  0.0807
16847TIP3    H272033   5.897   0.573   6.105  0.7546  0.1039  0.2027
16848TIP3   OH272034   3.546   6.324   5.013 -0.0284  0.4747 -0.5095
16848TIP3    H172035   3.564   6.365   5.097  0.3771 -1.1102  0.2080
16848TIP3    H272036   3.461   6.282   5.024  0.5949 -0.8165 -0.4417
16849TIP3   OH272037   5.267   1.861   5.985 -0.1107  0.3779 -0.8440
16849TIP3    H172038   5.175   1.837   5.972 -0.0085 -0.1912 -0.5544
16849TIP3    H272039   5.317   1.794   5.938  0.1760  0.0167 -0.0551
16850TIP3   OH272040   2.337   2.238  15.888 -0.2833 -0.1355 -0.1629
16850TIP3    H172041   2.425   2.247  15.853  0.2684  0.0045  1.2088
16850TIP3    H272042   2.343   2.272  15.977 -1.2231 -1.9864  0.6535
16851TIP3   OH272043   2.411   5.012  17.119  0.3722  0.4589 -0.5640
16851TIP3    H172044   2.327   5.046  17.151 -0.0716 -1.0522 -0.0332
16851TIP3    H272045   2.462   5.090  17.099 -0.2574  1.4678  1.4967
16852TIP3   OH272046   5.453   6.378  11.629 -0.0632  0.1291 -0.4174
16852TIP3    H172047   5.523   6.442  11.631  0.8544 -0.7840 -1.7323
16852TIP3    H272048   5.492   6.298  11.664 -1.0378  0.1185  0.7102
16853TIP3   OH272049   0.603   5.467  11.131 -0.2451  0.3127 -0.0649
16853TIP3    H172050   0.614   5.548  11.082 -0.8412 -0.6053 -1.7993
16853TIP3    H272051   0.540   5.488  11.200  0.8586  1.7168  0.5728
16854TIP3   OH272052   5.788   2.385   4.005  0.5663  0.1231 -0.5650
16854TIP3    H172053   5.717   2.360   3.945  0.6108 -0.5228 -0.3577
16854TIP3    H272054   5.786   2.318   4.074  0.8645  0.5521 -0.1303
16855TIP3   OH272055   6.030   0.395  12.585  0.1424  0.0177  0.2377
16855TIP3    H172056   5.944   0.353  12.584 -0.9420  2.0870 -1.4691
16855TIP3    H272057   6.017   0.475  12.636  1.0130  0.3941 -0.1085
16856TIP3   OH272058   6.299   1.895  17.355  0.1978  0.5922  0.2423
16856TIP3    H172059   6.287   1.982  17.393  0.6881  0.0083  1.7810
16856TIP3    H272060   6.266   1.904  17.265 -2.3528  1.6698  1.1829
16857TIP3   OH272061   3.400   4.508   5.476  0.6824 -0.4553  0.8026
16857TIP3    H172062   3.338   4.439   5.451  0.2390  0.4026 -0.6027
16857TIP3    H272063   3.383   4.523   5.569 -0.8657 -0.6187  0.5854
16858TIP3   OH272064   6.425   5.175   5.179  0.1774 -0.1442  0.0220
16858TIP3    H172065   6.509   5.135   5.154  0.3254  0.3817 -0.3269
16858TIP3    H272066   6.435   5.267   5.158  0.3853  0.3869  2.1561
16859TIP3   OH272067   5.982   5.342  10.863  0.4062  0.2429  0.3119
16859TIP3    H172068   6.059   5.296  10.896  1.4361 -0.1232 -2.3391
16859TIP3    H272069   6.007   5.370  10.774 -1.7614  2.0542  0.1850
16860TIP3   OH272070   2.840   4.369  12.524  0.5985  0.2067  0.1772
16860TIP3    H172071   2.777   4.425  12.568  1.4070  0.1463  1.4654
16860TIP3    H272072   2.857   4.299  12.587  0.2553 -1.0227 -1.0622
16861TIP3   OH272073   1.787   4.813  12.366 -0.1110 -0.1138 -0.3360
16861TIP3    H172074   1.826   4.774  12.287  1.1170  0.3982  0.0008
16861TIP3    H272075   1.702   4.844  12.337 -0.0723 -0.7820 -1.2315
16862TIP3   OH272076   4.494   3.126  11.404  0.7100  0.3756  0.7095
16862TIP3    H172077   4.525   3.086  11.485  0.9629  0.2528  0.5493
16862TIP3    H272078   4.563   3.111  11.341  0.3785  0.2063  0.3848
16863TIP3   OH272079   4.339   4.822  14.115  0.0353  0.8139  0.5558
16863TIP3    H172080   4.411   4.780  14.163 -0.5506 -0.3559  0.4359
16863TIP3    H272081   4.383   4.874  14.048  0.7771 -0.7570 -0.2364
16864TIP3   OH272082   0.082   3.049  14.188 -0.0690 -0.2584  0.4613
16864TIP3    H172083   0.047   3.136  14.208 -2.0866 -1.0686  0.6108
16864TIP3    H272084   0.138   3.063  14.111 -0.0016  1.2221  0.7490
16865TIP3   OH272085   5.529   2.066   5.999  0.3767  0.2701  0.6693
16865TIP3    H172086   5.530   2.039   5.907 -1.2349  2.7516 -0.2138
16865TIP3    H272087   5.561   2.156   5.998  1.8014 -0.1342  2.8120
16866TIP3   OH272088   5.510   0.393  15.185 -0.3854 -1.0668 -0.1061
16866TIP3    H172089   5.551   0.451  15.121 -0.6973  0.5731  1.1074
16866TIP3    H272090   5.427   0.436  15.207 -0.1648 -1.4274  1.5701
16867TIP3   OH272091   3.532   1.044   5.419 -0.0118 -0.0499 -0.6931
16867TIP3    H172092   3.564   1.055   5.509 -0.6061 -0.0883 -0.4789
16867TIP3    H272093   3.612   1.035   5.367  0.3431  0.1695 -0.1965
16868TIP3   OH272094   2.993   4.385  15.921 -0.3411 -0.2034  0.3431
16868TIP3    H172095   2.958   4.431  15.845  1.0472 -1.0047 -0.8277
16868TIP3    H272096   2.970   4.441  15.995  1.7445  2.7600 -1.0356
16869TIP3   OH272097   4.959   6.679  14.073  0.3966  0.1732 -0.5854
16869TIP3    H172098   4.923   6.592  14.087  3.6027 -1.0569  0.7607
16869TIP3    H272099   4.882   6.734  14.058 -1.9833 -2.2814  1.5684
16870TIP3   OH272100   2.469   4.840  15.876 -0.1845  0.1707  0.4771
16870TIP3    H172101   2.493   4.786  15.952  0.5112 -1.6785 -0.9721
16870TIP3    H272102   2.446   4.777  15.808  0.1427  1.7355 -1.1661
16871TIP3   OH272103   5.505   2.214  10.710 -0.2429 -0.8254  0.6084
16871TIP3    H172104   5.591   2.172  10.707 -0.4731 -1.2709 -2.1018
16871TIP3    H272105   5.445   2.146  10.680 -1.3044  0.0421  0.7407
16872TIP3   OH272106   1.677   2.476  13.336  0.1921 -0.6434 -0.5656
16872TIP3    H172107   1.665   2.523  13.254  1.5347 -0.9341 -0.9523
16872TIP3    H272108   1.671   2.384  13.312 -1.7848 -0.7168  0.0823
16873TIP3   OH272109   4.567   1.040  12.961 -0.7671  0.0269 -0.5446
16873TIP3    H172110   4.654   1.001  12.960 -0.5276  0.5320  0.1596
16873TIP3    H272111   4.567   1.097  13.037 -1.7406 -0.0211 -0.4980
16874TIP3   OH272112   3.434   2.069   0.082  0.1024 -0.6434  0.0049
16874TIP3    H172113   3.445   2.164   0.089 -0.8050 -0.6226  1.4422
16874TIP3    H272114   3.367   2.058   0.014 -0.1589 -0.2196  0.1884
16875TIP3   OH272115   4.028   2.997  11.897 -0.3663  0.4953  0.4224
16875TIP3    H172116   4.032   3.083  11.938  0.1906  0.2521  0.8881
16875TIP3    H272117   3.948   2.957  11.931  0.1120  0.2750  1.3341
16876TIP3   OH272118   0.458   3.931  11.777  0.2341  0.2695 -0.1803
16876TIP3    H172119   0.368   3.955  11.802  0.1458 -0.8265  0.6867
16876TIP3    H272120   0.494   4.009  11.737 -1.3128  0.5562 -1.0949
16877TIP3   OH272121   2.858   2.475  15.415  0.8431  0.3513 -0.3235
16877TIP3    H172122   2.888   2.411  15.351  2.4627  1.0102 -0.2829
16877TIP3    H272123   2.928   2.478  15.481  0.4779  1.6381  0.0397
16878TIP3   OH272124   0.688   2.094  14.677  0.0590  0.1658  0.3448
16878TIP3    H172125   0.769   2.061  14.717  0.9956  2.5638  0.6137
16878TIP3    H272126   0.640   2.134  14.749 -0.7407 -0.0805 -0.0430
16879TIP3   OH272127   3.999   5.998  14.542 -0.6538 -0.5195 -0.1886
16879TIP3    H172128   4.057   6.057  14.591 -0.6551 -0.4191 -0.3078
16879TIP3    H272129   3.959   6.054  14.476 -1.6046 -0.3782  0.4893
16880TIP3   OH272130   4.356   4.410  15.142  0.0292  0.0022 -0.1584
16880TIP3    H172131   4.366   4.320  15.110  0.7246  0.3429 -0.9355
16880TIP3    H272132   4.290   4.403  15.211  0.1550 -1.1230 -0.1260
16881TIP3   OH272133   1.561   4.935   3.170  0.4160  0.3089 -0.1011
16881TIP3    H172134   1.469   4.911   3.180 -0.0195  1.6039 -0.8659
16881TIP3    H272135   1.594   4.875   3.103 -0.9536  2.3701 -2.8377
16882TIP3   OH272136   3.305   6.559  16.828  0.7232 -0.0251 -0.0613
16882TIP3    H172137   3.272   6.583  16.741 -0.6653  0.6952  0.6362
16882TIP3    H272138   3.396   6.533  16.812  1.0458  1.7191 -1.4960
16883TIP3   OH272139   0.795   5.116   3.676 -0.4257  0.1427 -0.2880
16883TIP3    H172140   0.780   5.044   3.615 -1.6610 -0.3021  0.5165
16883TIP3    H272141   0.864   5.084   3.734 -0.8938 -0.3635 -0.0016
16884TIP3   OH272142   5.740   5.223  11.695 -0.1162  0.3452  0.2949
16884TIP3    H172143   5.815   5.187  11.741 -0.2070  0.0057  0.1819
16884TIP3    H272144   5.746   5.187  11.606 -1.1028 -0.7219  0.6306
16885TIP3   OH272145   1.586   4.659  14.495 -0.1313  0.3871 -0.5711
16885TIP3    H172146   1.545   4.671  14.581  0.5805 -0.5048 -0.0957
16885TIP3    H272147   1.677   4.638  14.515 -0.1684 -0.7457 -1.5143
16886TIP3   OH272148   5.678   5.095  13.292 -1.0973  0.0836  0.0996
16886TIP3    H172149   5.740   5.027  13.265 -1.7206 -0.7307  0.6525
16886TIP3    H272150   5.721   5.177  13.268  1.6019 -0.2474  3.1362
16887TIP3   OH272151   5.023   1.146   4.366  0.4043  0.0801 -0.0746
16887TIP3    H172152   5.010   1.054   4.388 -0.5960  0.3936  0.7507
16887TIP3    H272153   5.019   1.191   4.451 -1.3033  1.0968 -0.6509
16888TIP3   OH272154   6.712   3.407  11.237 -0.1029 -0.8361 -0.4136
16888TIP3    H172155   6.756   3.359  11.167  2.3040  0.2270  0.2682
16888TIP3    H272156   6.742   3.364  11.318 -1.7886 -1.1990  0.0636
16889TIP3   OH272157   2.202   4.904   4.176 -0.0854 -0.3551  0.4363
16889TIP3    H172158   2.130   4.841   4.164 -0.8560  0.6780 -0.6047
16889TIP3    H272159   2.253   4.868   4.249 -1.3192 -1.4328  0.8167
16890TIP3   OH272160   5.343   2.480   0.725 -0.8485 -0.0837  0.1239
16890TIP3    H172161   5.435   2.502   0.740 -0.7178  0.3251 -1.2001
16890TIP3    H272162   5.330   2.397   0.771  0.7156 -1.1931 -1.3181
16891TIP3   OH272163   2.384   3.107  13.774 -0.0308  0.1472  0.5635
16891TIP3    H172164   2.352   3.066  13.694 -1.2849  0.2877  0.9661
16891TIP3    H272165   2.473   3.136  13.753 -0.1501 -0.2923 -0.5960
16892TIP3   OH272166   5.699   0.112  16.347  0.2223 -0.3310 -0.0578
16892TIP3    H172167   5.758   0.056  16.296 -0.2967 -1.4800  0.5487
16892TIP3    H272168   5.704   0.076  16.436  0.0471  0.7523  0.4013
16893TIP3   OH272169   6.491   2.717  15.568 -0.1422 -0.4618 -0.0589
16893TIP3    H172170   6.499   2.622  15.574  0.0944 -0.3676  1.9676
16893TIP3    H272171   6.486   2.746  15.659  0.0163  1.4994 -0.6296
16894TIP3   OH272172   4.256   5.326   4.632  0.2877 -0.2019  0.2429
16894TIP3    H172173   4.224   5.367   4.552  0.7003 -0.6783 -0.1770
16894TIP3    H272174   4.178   5.288   4.673  0.2961 -1.3500 -0.7676
16895TIP3   OH272175   1.136   0.829  10.810  0.2219  0.0484  0.5599
16895TIP3    H172176   1.230   0.826  10.798  0.3040  0.6927  1.0210
16895TIP3    H272177   1.100   0.828  10.721  0.5837 -1.9611  0.3775
16896TIP3   OH272178   0.088   2.476   1.443 -0.0466 -0.5310  0.8440
16896TIP3    H172179   0.171   2.431   1.459  0.2411 -0.7555 -1.0420
16896TIP3    H272180   0.084   2.544   1.511  0.8925 -1.5307  1.9518
16897TIP3   OH272181   0.977   4.070   0.473  0.0503 -0.4581  0.1972
16897TIP3    H172182   0.989   4.093   0.381  1.2037 -0.6981  0.2692
16897TIP3    H272183   1.008   3.980   0.479 -0.2906 -0.5413  0.7746
16898TIP3   OH272184   6.394   4.912   2.226 -0.2163 -0.0233  0.5379
16898TIP3    H172185   6.342   4.834   2.245  1.8359 -1.1808  1.7929
16898TIP3    H272186   6.439   4.891   2.144 -0.0384  0.0350  0.6191
16899TIP3   OH272187   6.087   1.963   5.434  0.0003  0.5497 -0.5878
16899TIP3    H172188   6.151   1.947   5.504  0.3961 -0.7891 -1.2153
16899TIP3    H272189   6.129   2.026   5.376 -0.0937  1.2201  0.0495
16900TIP3   OH272190   2.476   0.518  15.348 -0.4367 -0.4168  0.0769
16900TIP3    H172191   2.516   0.434  15.370 -1.2708 -0.7891  0.2119
16900TIP3    H272192   2.474   0.518  15.252 -0.5106 -0.5860  0.0779
16901TIP3   OH272193   4.472   1.611   2.464  0.2022 -0.2478 -0.4979
16901TIP3    H172194   4.470   1.517   2.480  1.0122 -0.3291 -0.7824
16901TIP3    H272195   4.505   1.649   2.546  0.5430 -0.2885 -0.6111
16902TIP3   OH272196   4.265   0.406  12.662  0.1833 -0.5897  0.2447
16902TIP3    H172197   4.314   0.325  12.680  1.0851 -0.4713 -1.4905
16902TIP3    H272198   4.331   0.474  12.661 -0.1430 -0.2747 -1.1856
16903TIP3   OH272199   0.857   6.542  15.242  0.5613 -0.3820  0.8244
16903TIP3    H172200   0.886   6.525  15.332  2.6232 -1.1212  0.0765
16903TIP3    H272201   0.898   6.473  15.190  0.0313  0.4692 -0.7968
16904TIP3   OH272202   6.323   5.491  11.801  0.0627 -0.6952 -0.3283
16904TIP3    H172203   6.409   5.521  11.769 -0.4061 -0.8994 -1.8499
16904TIP3    H272204   6.285   5.568  11.842  0.0314  0.0720 -1.7207
16905TIP3   OH272205   6.555   2.432  11.817  0.2231 -0.1918 -0.6936
16905TIP3    H172206   6.628   2.412  11.875 -0.8198 -2.5773 -0.0893
16905TIP3    H272207   6.576   2.517  11.780  1.6035  0.8224  2.1396
16906TIP3   OH272208   1.271   4.443  13.006 -0.1218 -0.4110 -0.3430
16906TIP3    H172209   1.262   4.401  13.092 -3.1641 -0.3275 -0.5291
16906TIP3    H272210   1.207   4.514  13.007  0.7253  0.4459 -2.2142
16907TIP3   OH272211   6.785   4.610  14.508 -0.3254 -0.0407 -0.5348
16907TIP3    H172212   6.720   4.542  14.490 -0.4737 -0.0284 -0.0614
16907TIP3    H272213   6.735   4.683  14.543 -0.4015  1.0135 -2.7179
16908TIP3   OH272214   0.054   5.542   3.677  0.4670 -0.0835  0.0429
16908TIP3    H172215   0.034   5.633   3.700  0.4782 -0.0903  0.0778
16908TIP3    H272216   0.149   5.534   3.689  0.4692 -0.0941  0.0195
16909TIP3   OH272217   6.492   1.024  11.971 -0.2560 -0.2496 -0.0155
16909TIP3    H172218   6.452   1.075  12.043 -2.2131  0.4575 -1.5042
16909TIP3    H272219   6.417   0.986  11.925  0.8445  0.3242 -2.4005
16910TIP3   OH272220   1.913   2.859  16.685  0.1030 -0.7250  0.3421
16910TIP3    H172221   1.954   2.785  16.729 -1.5297 -1.1724  1.1705
16910TIP3    H272222   1.892   2.920  16.755  1.2780  0.5013 -0.3119
16911TIP3   OH272223   4.973   2.083  12.409  0.3482  0.0592  0.3202
16911TIP3    H172224   4.952   2.139  12.484  0.9377 -0.6818  1.0457
16911TIP3    H272225   4.888   2.050  12.379  0.2170 -0.7676  1.5488
16912TIP3   OH272226   4.858   2.495   1.674 -0.1020 -0.1371  0.3063
16912TIP3    H172227   4.880   2.450   1.756 -0.9042 -0.5647  0.2999
16912TIP3    H272228   4.886   2.434   1.605 -1.3070 -0.7118  0.2990
16913TIP3   OH272229   2.502   1.629   3.172 -0.4032 -0.0944 -0.5137
16913TIP3    H172230   2.426   1.687   3.180 -0.4995 -0.1715 -0.8441
16913TIP3    H272231   2.467   1.542   3.193 -0.4883 -0.1818 -0.9852
16914TIP3   OH272232   1.933   0.347  15.628 -0.2851 -0.1668 -0.5038
16914TIP3    H172233   1.930   0.418  15.564 -2.3155  0.7624  0.5058
16914TIP3    H272234   1.849   0.302  15.618 -0.5138 -0.1921  1.2461
16915TIP3   OH272235   3.792   4.794   5.380 -0.4696  0.2505 -0.5238
16915TIP3    H172236   3.872   4.742   5.371  0.2132  1.2242 -0.1979
16915TIP3    H272237   3.797   4.831   5.469 -1.5207 -0.0584 -0.3180
16916TIP3   OH272238   3.382   1.860   1.287 -0.5500  0.1348  0.2323
16916TIP3    H172239   3.352   1.814   1.365  0.6166 -1.3376 -0.1579
16916TIP3    H272240   3.465   1.900   1.312 -1.4586  1.9544  0.5128
16917TIP3   OH272241   3.181   3.213   1.100  0.5520  0.2477 -0.3604
16917TIP3    H172242   3.235   3.220   1.179  0.8213  0.4027 -0.5555
16917TIP3    H272243   3.155   3.304   1.082 -0.5427  0.0669  0.2616
16918TIP3   OH272244   6.081   1.732  13.716 -0.0641 -0.8319  0.3528
16918TIP3    H172245   6.151   1.705  13.658  0.9765 -0.9186  1.6210
16918TIP3    H272246   6.002   1.695  13.677  0.3892  0.2440 -1.7437
16919TIP3   OH272247   0.330   0.201   3.734  0.5560  0.0196 -0.3334
16919TIP3    H172248   0.340   0.261   3.809 -1.1914 -1.8240  1.5445
16919TIP3    H272249   0.318   0.115   3.775 -2.2987 -0.8190 -2.6138
16920TIP3   OH272250   1.212   6.402   3.272 -0.2703 -0.2673  0.3484
16920TIP3    H172251   1.251   6.408   3.185  1.0239 -1.8768  0.7651
16920TIP3    H272252   1.145   6.471   3.273 -0.9227 -0.7612 -2.1961
16921TIP3   OH272253   2.084   5.141  14.403 -0.5591  0.4754  0.9317
16921TIP3    H172254   2.133   5.160  14.323 -0.3060 -0.8181  0.7446
16921TIP3    H272255   2.000   5.108  14.373 -0.2805 -0.4893  1.1662
16922TIP3   OH272256   0.566   3.658  16.606 -0.4444 -0.6513  0.1364
16922TIP3    H172257   0.657   3.689  16.607 -1.1919  1.7491  1.0226
16922TIP3    H272258   0.541   3.656  16.699 -1.6125 -0.1595 -0.1455
16923TIP3   OH272259   3.852   0.221   0.280  0.1986  0.2176 -0.3771
16923TIP3    H172260   3.886   0.221   0.370  0.3577  0.3152 -0.4383
16923TIP3    H272261   3.916   0.170   0.230  0.0440  0.0547 -0.4112
16924TIP3   OH272262   6.628   2.236  13.681 -0.5293  0.3206 -0.6427
16924TIP3    H172263   6.576   2.316  13.674  0.8433  1.1057 -2.6431
16924TIP3    H272264   6.626   2.198  13.593  0.3537 -0.8768 -0.1800
16925TIP3   OH272265   0.318   0.689  13.742 -0.3177 -0.3324 -0.4050
16925TIP3    H172266   0.380   0.692  13.670 -0.6000 -0.1320 -0.6438
16925TIP3    H272267   0.355   0.746  13.809  0.1519 -0.8459 -0.2217
16926TIP3   OH272268   3.573   3.921  13.200 -0.8490  0.1094  0.2376
16926TIP3    H172269   3.654   3.965  13.172 -0.9611  0.9314  1.1736
16926TIP3    H272270   3.602   3.834  13.227 -0.2872  0.3685  0.4963
16927TIP3   OH272271   0.541   4.920   2.142  0.2672  0.2229 -0.1880
16927TIP3    H172272   0.535   5.005   2.097 -0.6187 -0.0374 -0.5747
16927TIP3    H272273   0.618   4.879   2.104  0.2062  0.5000 -0.6226
16928TIP3   OH272274   4.262   2.803   3.342  0.0288  0.5558  0.2810
16928TIP3    H172275   4.253   2.766   3.254 -1.6669  1.7714 -0.1109
16928TIP3    H272276   4.356   2.808   3.357  0.3849  1.1017 -1.8137
16929TIP3   OH272277   2.873   6.465  15.046 -0.1178  0.3720 -0.7512
16929TIP3    H172278   2.874   6.369  15.051  0.9838  0.4260  2.3975
16929TIP3    H272279   2.794   6.486  14.995 -0.0278 -2.1596 -2.1000
16930TIP3   OH272280   4.512   2.896  14.569  0.1280  0.9664 -0.4266
16930TIP3    H172281   4.554   2.832  14.511 -0.8708 -1.1403  1.0286
16930TIP3    H272282   4.423   2.904  14.536 -0.1473  0.5364  0.1977
16931TIP3   OH272283   0.491   2.029   4.209  0.5183  0.7858  0.3233
16931TIP3    H172284   0.568   2.032   4.266  0.4610  2.6918  0.3635
16931TIP3    H272285   0.503   2.102   4.149 -0.2174 -0.2100 -1.1006
16932TIP3   OH272286   0.567   3.060   5.801 -0.1793  0.0930  0.1284
16932TIP3    H172287   0.546   3.046   5.893  0.2552 -0.2754  0.1728
16932TIP3    H272288   0.661   3.078   5.800  0.1286 -1.4383 -0.3914
16933TIP3   OH272289   2.718   3.723  15.743 -0.3522 -0.0187  0.1973
16933TIP3    H172290   2.742   3.660  15.811  1.5041 -0.0420 -0.4322
16933TIP3    H272291   2.690   3.801  15.791 -0.5573 -0.5570  0.9712
16934TIP3   OH272292   0.263   6.046  17.178 -0.7783 -0.2599  0.6024
16934TIP3    H172293   0.241   5.961  17.215 -1.1301 -1.1521 -1.5173
16934TIP3    H272294   0.287   6.028  17.087 -1.2207  1.9455 -0.0216
16935TIP3   OH272295   1.016   6.738  12.377 -0.0873  0.8148  0.0410
16935TIP3    H172296   1.086   6.719  12.315 -0.1126 -0.0925  0.2834
16935TIP3    H272297   0.973   6.817  12.342 -1.2041 -0.6341 -2.0513
16936TIP3   OH272298   4.973   5.370  15.927 -0.8896 -0.6833  0.2027
16936TIP3    H172299   5.028   5.448  15.932  1.9737 -2.6183  1.3998
16936TIP3    H272300   4.913   5.378  16.001  1.0763 -0.7037  1.8987
16937TIP3   OH272301   2.986   5.613  16.534 -0.1968 -0.1808  0.1577
16937TIP3    H172302   2.959   5.687  16.589 -0.6495 -0.4962  0.3700
16937TIP3    H272303   2.918   5.607  16.466 -0.4063 -0.6730  0.4028
16938TIP3   OH272304   3.880   5.871   2.450 -0.5569  0.3389 -0.1359
16938TIP3    H172305   3.957   5.927   2.440 -0.8124  0.3781 -2.3019
16938TIP3    H272306   3.913   5.782   2.442 -0.1642  0.0452  3.2235
16939TIP3   OH272307   2.242   1.319  16.639  0.2893  0.1803  0.3662
16939TIP3    H172308   2.317   1.374  16.661 -0.6988  1.2863  1.0474
16939TIP3    H272309   2.255   1.298  16.546  1.4382  0.3377  0.4710
16940TIP3   OH272310   5.325   6.699   3.431  0.2292 -0.3061 -0.0350
16940TIP3    H172311   5.350   6.618   3.386 -0.5093 -1.4202  1.4427
16940TIP3    H272312   5.265   6.670   3.499 -0.7484  1.6248 -0.0173
16941TIP3   OH272313   0.118   2.822   1.918 -0.2026 -0.1493  0.0162
16941TIP3    H172314   0.058   2.883   1.960 -1.2476  0.4279 -2.2016
16941TIP3    H272315   0.201   2.870   1.912 -0.1115 -0.1513  1.1454
16942TIP3   OH272316   0.626   2.180  11.219  0.2306  0.1046  0.2252
16942TIP3    H172317   0.629   2.241  11.293  1.0965  1.4509 -0.8610
16942TIP3    H272318   0.711   2.136  11.219 -0.1854 -0.7067  0.6782
16943TIP3   OH272319   6.414   2.942   2.423 -0.2353 -0.0257 -0.7984
16943TIP3    H172320   6.320   2.924   2.424  0.0195 -1.4436 -0.1254
16943TIP3    H272321   6.421   3.031   2.387 -1.9336  0.7689  0.6926
16944TIP3   OH272322   2.508   3.625   2.140  0.4630  0.3921  0.2600
16944TIP3    H172323   2.518   3.651   2.231 -2.9062 -0.2724  0.9264
16944TIP3    H272324   2.459   3.696   2.099  0.0570 -0.3025 -0.4955
16945TIP3   OH272325   2.690   3.635  16.231 -0.1152 -0.4640  1.3452
16945TIP3    H172326   2.606   3.679  16.219  0.0336 -0.1977  1.2475
16945TIP3    H272327   2.710   3.646  16.324  0.4613  0.6965  1.1139
16946TIP3   OH272328   3.796   2.758  16.896 -0.4319 -0.3300 -0.2433
16946TIP3    H172329   3.865   2.768  16.831 -0.4979 -2.4474 -0.7174
16946TIP3    H272330   3.715   2.758  16.846 -0.6452  0.1067  0.0891
16947TIP3   OH272331   5.141   4.398   2.865 -0.4023 -0.1269 -0.7648
16947TIP3    H172332   5.157   4.415   2.772 -1.4171  2.0808 -0.6189
16947TIP3    H272333   5.049   4.370   2.869 -0.2260 -0.6698 -0.4713
16948TIP3   OH272334   6.063   6.274  16.181 -0.1632  0.5119 -0.3522
16948TIP3    H172335   6.010   6.204  16.144 -1.2482  1.2549 -0.2605
16948TIP3    H272336   6.024   6.354  16.145 -0.2865  1.1711  1.1806
16949TIP3   OH272337   3.149   1.970  15.231 -0.3831 -0.4073  0.0062
16949TIP3    H172338   3.154   2.047  15.288 -1.2417 -0.1584 -0.2403
16949TIP3    H272339   3.240   1.942  15.220 -0.0953  0.3610  0.3818
16950TIP3   OH272340   1.650   3.363  15.795  0.4596  0.2396  0.0026
16950TIP3    H172341   1.570   3.401  15.757 -0.6859 -1.1354  0.9408
16950TIP3    H272342   1.633   3.269  15.798  1.6380  0.0383  1.2976
16951TIP3   OH272343   0.506   6.290   1.687  0.9301  0.2528  0.4674
16951TIP3    H172344   0.568   6.361   1.670  0.0647  0.9920  0.3473
16951TIP3    H272345   0.433   6.306   1.627  0.9627 -1.0636  0.0334
16952TIP3   OH272346   0.310   6.443  13.920  0.4701 -0.3174  0.3457
16952TIP3    H172347   0.267   6.424  13.836  0.5144 -3.9850  0.9965
16952TIP3    H272348   0.386   6.496  13.896 -0.6408  0.4819 -1.6408
16953TIP3   OH272349   2.008   0.398  14.919 -0.1043  0.2683  0.3546
16953TIP3    H172350   1.981   0.487  14.901 -1.9964 -0.3567 -0.0940
16953TIP3    H272351   2.084   0.383  14.862 -0.4325  1.2445 -0.3537
16954TIP3   OH272352   4.989   0.884  14.241 -0.2701 -0.2154  0.4227
16954TIP3    H172353   5.034   0.838  14.170 -0.6268  4.2293 -3.0702
16954TIP3    H272354   4.897   0.885  14.215 -0.2311  2.5431  0.1844
16955TIP3   OH272355   3.587   5.489   5.101  0.1343 -0.5237 -0.1630
16955TIP3    H172356   3.584   5.394   5.106 -4.7704 -0.5984 -0.1866
16955TIP3    H272357   3.565   5.510   5.010 -1.1377  0.5590  0.3502
16956TIP3   OH272358   3.332   2.634  14.316  0.5322 -0.2281  0.1697
16956TIP3    H172359   3.295   2.547  14.298  0.8607 -0.0167 -1.8111
16956TIP3    H272360   3.415   2.634  14.269 -0.1809  1.6601 -1.2166
16957TIP3   OH272361   2.467   0.229  11.573  0.1599 -0.4813 -0.4489
16957TIP3    H172362   2.471   0.255  11.480  1.2008  0.8168 -0.0710
16957TIP3    H272363   2.394   0.279  11.609  0.3872 -0.2301 -0.3407
16958TIP3   OH272364   3.358   0.236   1.049  0.1188 -0.0647  0.0563
16958TIP3    H172365   3.301   0.159   1.045  1.5685 -1.2156  0.5734
16958TIP3    H272366   3.299   0.310   1.042 -1.3229 -1.2228 -0.5689
16959TIP3   OH272367   6.463   3.652  16.302  0.1536 -0.1040 -0.2748
16959TIP3    H172368   6.540   3.615  16.345  0.9722  1.0580 -0.6986
16959TIP3    H272369   6.481   3.644  16.208 -0.2598  0.1367 -0.3780
16960TIP3   OH272370   4.145   0.818   6.377  0.6011  0.0318 -0.1581
16960TIP3    H172371   4.116   0.753   6.441 -1.3354  0.8293 -0.1662
16960TIP3    H272372   4.101   0.792   6.296  1.8118 -0.0708 -0.8046
16961TIP3   OH272373   6.735   5.582  14.858  0.1348  0.1811  0.1174
16961TIP3    H172374   6.702   5.494  14.844 -1.2856  0.2921  2.2877
16961TIP3    H272375   6.818   5.570  14.904  0.2751 -0.0400 -0.1965
16962TIP3   OH272376   4.470   2.864  13.455 -0.1144  0.2196  0.1067
16962TIP3    H172377   4.378   2.845  13.439  0.4260 -0.2977 -3.2846
16962TIP3    H272378   4.507   2.876  13.367  2.7007  2.2083  1.4092
16963TIP3   OH272379   3.033   6.380   2.333 -0.1392 -0.0632  0.1904
16963TIP3    H172380   3.065   6.444   2.270 -0.6031  1.4255  1.3852
16963TIP3    H272381   2.940   6.399   2.342  0.1022  0.5137  2.0713
16964TIP3   OH272382   2.572   0.679  14.425 -0.3342 -0.1612  0.3395
16964TIP3    H172383   2.523   0.683  14.507  1.2348  0.2168  1.3098
16964TIP3    H272384   2.660   0.654  14.451  0.0264 -0.7333 -1.3321
16965TIP3   OH272385   4.910   5.559  15.444  0.3043 -0.3227 -0.4968
16965TIP3    H172386   4.836   5.543  15.503  1.6947 -0.6780  1.2332
16965TIP3    H272387   4.979   5.501  15.476  2.1901  1.8362 -0.4158
16966TIP3   OH272388   2.919   4.845   2.592  0.1827  0.0430 -0.2311
16966TIP3    H172389   2.994   4.905   2.590  0.0910  0.1528 -0.4218
16966TIP3    H272390   2.944   4.773   2.533 -0.1750  0.4591 -0.9103
16967TIP3   OH272391   0.265   1.491   2.190 -0.3972  0.1115  0.5449
16967TIP3    H172392   0.339   1.528   2.239  1.0646 -0.3868 -1.1761
16967TIP3    H272393   0.235   1.562   2.134  1.1712 -0.6469 -1.3667
16968TIP3   OH272394   3.007   0.119   2.746 -0.4121 -0.1475 -0.0386
16968TIP3    H172395   2.983   0.044   2.691  1.8778 -0.7200 -0.3752
16968TIP3    H272396   3.094   0.096   2.781 -0.4319  1.5851  1.2964
16969TIP3   OH272397   1.388   3.019   2.025  0.0972 -0.1589 -0.1518
16969TIP3    H172398   1.344   3.104   2.018 -0.2096 -0.4036 -1.5106
16969TIP3    H272399   1.473   3.033   1.982  0.2991 -0.3714  0.1771
16970TIP3   OH272400   1.144   6.070   0.419 -0.2320  0.0743 -0.0387
16970TIP3    H172401   1.060   6.025   0.411  0.4367 -1.0585 -0.9656
16970TIP3    H272402   1.206   6.013   0.375  0.9624  1.1048  0.2524
16971TIP3   OH272403   0.555   1.947  14.954  0.1437 -0.3673 -0.1377
16971TIP3    H172404   0.521   2.029  14.919 -0.5198 -1.1584 -1.4395
16971TIP3    H272405   0.489   1.919  15.019  0.2743  0.0249  0.1655
16972TIP3   OH272406   4.269   6.549  14.441  0.5921 -0.2387 -0.0763
16972TIP3    H172407   4.177   6.539  14.462  0.0051  1.5956 -1.5274
16972TIP3    H272408   4.271   6.603  14.362  2.9002 -0.4922 -0.2858
16973TIP3   OH272409   3.455   6.658  12.117 -0.6552  0.9081  0.6106
16973TIP3    H172410   3.550   6.661  12.127 -0.5548  0.9456 -0.2821
16973TIP3    H272411   3.440   6.592  12.049 -1.3003  0.5816  1.0538
16974TIP3   OH272412   5.163   4.396  17.035 -0.4833 -0.1117 -0.3768
16974TIP3    H172413   5.233   4.355  16.984  1.2120 -0.9414  2.4076
16974TIP3    H272414   5.122   4.457  16.974  4.4329  2.5324 -1.5651
16975TIP3   OH272415   6.761   5.852  15.930  0.2602 -0.2324  0.1149
16975TIP3    H172416   6.818   5.794  15.980 -1.5875 -1.9328  0.3441
16975TIP3    H272417   6.806   5.937  15.933  2.6249 -1.4008  0.4803
16976TIP3   OH272418   6.210   1.726  14.925 -0.4807 -0.7469  0.2344
16976TIP3    H172419   6.206   1.643  14.879 -0.2541 -0.4110 -0.4161
16976TIP3    H272420   6.170   1.709  15.010  2.8738 -2.5198  1.6494
16977TIP3   OH272421   5.219   0.128   2.521  0.0559  0.3772 -0.2009
16977TIP3    H172422   5.266   0.048   2.545 -0.4273 -0.1603 -1.0012
16977TIP3    H272423   5.287   0.190   2.498  0.4305  0.1464  0.2564
16978TIP3   OH272424   4.190   5.837   6.227 -0.4818  0.1344  0.2930
16978TIP3    H172425   4.188   5.795   6.313 -2.2276  0.0354  0.2530
16978TIP3    H272426   4.163   5.928   6.244 -1.7638 -0.1231 -0.2276
16979TIP3   OH272427   1.434   3.593  16.812  0.2630 -0.1014 -0.1173
16979TIP3    H172428   1.457   3.527  16.746 -1.1462  1.0910 -1.8794
16979TIP3    H272429   1.363   3.553  16.862 -0.1387 -0.2034 -0.7532
16980TIP3   OH272430   6.608   1.080  15.808  0.0265  0.1744 -0.0866
16980TIP3    H172431   6.664   1.158  15.816 -0.2213  0.2791  0.6963
16980TIP3    H272432   6.523   1.108  15.843 -0.9883  0.4597 -2.5723
16981TIP3   OH272433   5.969   4.549   5.814 -0.1748  0.2392  0.2176
16981TIP3    H172434   5.943   4.602   5.890 -0.4632 -0.6827  0.7803
16981TIP3    H272435   5.929   4.464   5.830 -0.3529  0.0685 -1.0519
16982TIP3   OH272436   2.499   0.858  14.249 -0.4256 -0.3286  0.4985
16982TIP3    H172437   2.573   0.839  14.191  0.3144 -1.4907  1.7552
16982TIP3    H272438   2.508   0.794  14.320 -1.6148  0.6893  1.6001
16983TIP3   OH272439   2.960   3.138   0.598  0.5219 -0.0413 -0.4350
16983TIP3    H172440   2.910   3.216   0.574  1.1789  0.8185  0.9267
16983TIP3    H272441   2.976   3.094   0.514  0.5343  1.5063 -1.2818
16984TIP3   OH272442   2.514   5.587   3.644 -0.3794 -0.1583 -0.0138
16984TIP3    H172443   2.528   5.671   3.688 -1.4736 -1.1079  2.3116
16984TIP3    H272444   2.602   5.553   3.631  0.0073  0.2982  1.2311
16985TIP3   OH272445   2.483   5.478  11.877  0.5208 -0.1394 -0.7907
16985TIP3    H172446   2.427   5.515  11.808  0.5787  0.1434 -0.6858
16985TIP3    H272447   2.443   5.507  11.959  0.0428 -1.0637 -0.6856
16986TIP3   OH272448   1.479   4.310   3.402  0.8952  0.2740  0.4042
16986TIP3    H172449   1.551   4.247   3.402  1.1360  0.4894  2.1503
16986TIP3    H272450   1.510   4.381   3.346  1.3147 -0.4000 -0.2399
16987TIP3   OH272451   3.172   3.515   5.246 -0.3959  0.1342 -0.3098
16987TIP3    H172452   3.242   3.487   5.186 -0.2403 -0.7358  0.2478
16987TIP3    H272453   3.195   3.474   5.330 -1.5495 -0.1269 -0.1016
16988TIP3   OH272454   0.610   3.109  10.783  0.3251 -0.4202 -1.2143
16988TIP3    H172455   0.604   3.013  10.787  0.9928 -0.5762 -2.9141
16988TIP3    H272456   0.555   3.133  10.709  0.7281  0.4342 -1.2498
16989TIP3   OH272457   1.081   1.699   3.285 -0.6260  0.0698 -0.3543
16989TIP3    H172458   1.045   1.687   3.197 -2.5013  2.8940 -0.1360
16989TIP3    H272459   1.024   1.647   3.341 -0.2347 -0.7075 -0.6688
16990TIP3   OH272460   1.533   2.108   3.780  0.4071  0.9154  0.5043
16990TIP3    H172461   1.445   2.116   3.819 -0.4282 -1.4073 -0.6848
16990TIP3    H272462   1.585   2.063   3.847  0.0973  0.4839  0.4610
16991TIP3   OH272463   5.375   4.188  15.836 -0.0744  0.0405  0.1631
16991TIP3    H172464   5.363   4.283  15.838 -2.0703 -0.1722  1.2250
16991TIP3    H272465   5.318   4.156  15.907  1.9699 -1.8167  1.0581
16992TIP3   OH272466   0.900   2.960  14.878 -0.1127 -0.2555  0.0330
16992TIP3    H172467   0.886   2.888  14.817 -0.0240  0.6003 -1.0262
16992TIP3    H272468   0.816   2.971  14.922 -0.2236 -0.7909 -0.0444
16993TIP3   OH272469   1.613   1.462   0.224  0.4471  0.3393 -0.1108
16993TIP3    H172470   1.558   1.519   0.277 -0.0922 -0.0993 -0.1944
16993TIP3    H272471   1.653   1.521   0.159  2.1520  1.1268  1.5368
16994TIP3   OH272472   4.002   5.202   6.028 -0.1409 -0.1366  0.6732
16994TIP3    H172473   3.980   5.236   6.114 -0.3190 -0.5730  0.8070
16994TIP3    H272474   3.918   5.196   5.983  0.1458  2.0355 -0.2882
16995TIP3   OH272475   1.865   0.023  15.493  0.4618  0.1288  0.0861
16995TIP3    H172476   1.798   0.078  15.534  0.3883 -0.7544  1.2114
16995TIP3    H272477   1.912   0.082  15.435 -2.0340  0.5494 -1.6856
16996TIP3   OH272478   0.454   1.568  14.989  0.2033  0.1721  0.1728
16996TIP3    H172479   0.529   1.511  14.973  1.4683  0.5262  3.9031
16996TIP3    H272480   0.492   1.655  15.003 -0.9101  0.4853  1.5438
16997TIP3   OH272481   4.197   3.217   0.437  0.2303  0.6067 -0.2918
16997TIP3    H172482   4.268   3.232   0.499  1.5971 -1.5136 -1.2383
16997TIP3    H272483   4.234   3.159   0.371 -2.5661 -1.1435 -0.4911
16998TIP3   OH272484   3.496   6.276  11.951  0.0663  0.1585 -0.1087
16998TIP3    H172485   3.489   6.183  11.926  0.7030  0.6721 -2.4392
16998TIP3    H272486   3.444   6.322  11.885  1.3558  1.5964 -0.1655
16999TIP3   OH272487   6.522   5.572   5.376 -0.4103  0.0736 -0.2016
16999TIP3    H172488   6.595   5.631   5.357  0.7968 -1.3360 -0.1300
16999TIP3    H272489   6.561   5.500   5.426 -1.9351 -0.5352  0.1891
17000TIP3   OH272490   6.577   1.442   0.736 -0.0205 -0.5124  0.0377
17000TIP3    H172491   6.648   1.399   0.784  0.1346 -1.1595 -0.7615
17000TIP3    H272492   6.516   1.371   0.714 -0.5146 -0.0884  0.0037
17001TIP3   OH272493   5.529   6.204   2.632  0.2503  0.2692 -0.0318
17001TIP3    H172494   5.481   6.123   2.652 -0.8801 -0.0875 -3.5101
17001TIP3    H272495   5.461   6.270   2.621  0.3782 -0.0053 -4.0176
17002TIP3   OH272496   3.524   0.515  13.778  0.5164 -0.1478 -0.4145
17002TIP3    H172497   3.465   0.572  13.730  0.3491  0.0889  0.0585
17002TIP3    H272498   3.489   0.514  13.868  0.5689 -0.9192 -0.3906
17003TIP3   OH272499   5.006   3.800  11.860 -0.5617 -0.2060  0.3302
17003TIP3    H172500   4.918   3.821  11.830 -0.4188  0.6395  0.4552
17003TIP3    H272501   5.047   3.886  11.874  0.3114 -0.5875  0.1632
17004TIP3   OH272502   4.302   5.547  16.577 -0.0912 -0.1193  0.3157
17004TIP3    H172503   4.268   5.568  16.490 -1.9430 -0.4103  0.9145
17004TIP3    H272504   4.278   5.455  16.591  0.7948 -0.2811  0.8691
17005TIP3   OH272505   6.427   5.061   4.162  0.3655 -0.4209  0.0724
17005TIP3    H172506   6.519   5.065   4.189  0.5165 -0.5551 -0.4209
17005TIP3    H272507   6.378   5.062   4.244  0.6971  2.2686  0.3122
17006TIP3   OH272508   4.681   2.695  14.454  0.1412 -0.0417 -0.2828
17006TIP3    H172509   4.629   2.693  14.373 -1.7959  2.5854  0.7515
17006TIP3    H272510   4.648   2.622  14.506 -0.2430 -0.3387 -0.9313
17007TIP3   OH272511   6.221   3.580   2.233  0.5880 -0.5173  0.5001
17007TIP3    H172512   6.284   3.617   2.294 -0.9759 -0.5573  2.2369
17007TIP3    H272513   6.258   3.495   2.207  0.3218 -1.5578  3.2209
17008TIP3   OH272514   5.415   1.775  12.834 -0.0938  0.1176 -0.3442
17008TIP3    H172515   5.465   1.857  12.829 -0.5054  0.4254  0.4357
17008TIP3    H272516   5.442   1.735  12.917 -0.3426 -0.2394 -0.4320
17009TIP3   OH272517   2.992   4.123   4.065  0.4056 -0.0353  0.2181
17009TIP3    H172518   3.085   4.127   4.042  0.4110 -0.1359  0.2218
17009TIP3    H272519   2.966   4.034   4.042  0.2730  0.0404  0.0763
17010TIP3   OH272520   3.514   4.228  13.481 -0.1530 -0.0124  0.0033
17010TIP3    H172521   3.471   4.216  13.397  2.6616  2.1481 -1.9159
17010TIP3    H272522   3.581   4.159  13.483  1.7204  1.6960 -0.9875
17011TIP3   OH272523   0.509   3.693  13.428  0.1377  0.2854  0.0751
17011TIP3    H172524   0.580   3.748  13.461  0.9254 -0.5765 -0.1335
17011TIP3    H272525   0.444   3.693  13.498  0.6841  0.4728  0.5954
17012TIP3   OH272526   0.339   0.335   3.306 -0.2827 -0.0684 -0.1249
17012TIP3    H172527   0.300   0.403   3.250  0.4442  1.3518  1.0177
17012TIP3    H272528   0.362   0.265   3.245  1.2596  1.7395 -1.8085
17013TIP3   OH272529   2.462   3.131  14.681 -0.5410  0.3444  0.2673
17013TIP3    H172530   2.479   3.212  14.730  1.6558 -0.3762  0.8536
17013TIP3    H272531   2.424   3.160  14.598  0.0142  1.9687  0.5450
17014TIP3   OH272532   6.496   4.070   1.761 -0.1595 -0.3988  0.0597
17014TIP3    H172533   6.412   4.026   1.779 -0.3212 -1.0378 -2.0366
17014TIP3    H272534   6.542   4.068   1.845 -2.2589  0.0731  1.3164
17015TIP3   OH272535   4.863   6.043  13.330  0.3430 -0.4538 -0.3997
17015TIP3    H172536   4.839   6.125  13.372  0.2194 -0.6186 -0.1418
17015TIP3    H272537   4.905   5.992  13.400 -0.0031 -0.7899 -0.4307
17016TIP3   OH272538   3.346   1.277   2.831  0.9226  0.1583  0.4686
17016TIP3    H172539   3.354   1.187   2.799 -1.3756  0.2935 -0.6768
17016TIP3    H272540   3.419   1.324   2.791 -1.1256  0.0630 -3.8208
17017TIP3   OH272541   0.174   2.759  10.579 -0.2926 -0.4714 -0.0046
17017TIP3    H172542   0.254   2.804  10.552 -1.0204  1.5450  1.0026
17017TIP3    H272543   0.106   2.827  10.579 -1.7451 -1.8355  0.4117
17018TIP3   OH272544   2.488   0.446  13.898  0.0703  0.3097 -0.1093
17018TIP3    H172545   2.435   0.511  13.944  0.8602  1.3310 -0.5953
17018TIP3    H272546   2.435   0.423  13.822 -1.9400 -2.5254  1.9455
17019TIP3   OH272547   0.385   4.923   5.207 -0.1677 -0.3693 -0.4727
17019TIP3    H172548   0.465   4.924   5.260  0.2427  0.7938 -1.0811
17019TIP3    H272549   0.416   4.912   5.117 -0.4533  2.4227 -0.9965
17020TIP3   OH272550   6.661   3.264  14.435  0.3467 -0.6536 -0.6200
17020TIP3    H172551   6.655   3.224  14.521 -0.4088 -1.0176 -0.8266
17020TIP3    H272552   6.669   3.358  14.452  0.5191 -0.7521 -0.1541
17021TIP3   OH272553   1.389   2.298  16.050 -0.0923  0.1135  0.0703
17021TIP3    H172554   1.461   2.239  16.028 -0.1692 -0.0969  0.3792
17021TIP3    H272555   1.431   2.378  16.079  0.0169  0.0924 -0.0324
17022TIP3   OH272556   0.417   0.508  16.273  0.9470 -0.0094 -0.2084
17022TIP3    H172557   0.359   0.531  16.200  1.2407 -0.1839 -0.4962
17022TIP3    H272558   0.358   0.499  16.348  0.0883 -3.3242 -1.0986
17023TIP3   OH272559   3.700   6.729   0.349  0.1202  0.9856  0.2538
17023TIP3    H172560   3.636   6.761   0.285  1.8964  1.1316 -1.5143
17023TIP3    H272561   3.736   6.650   0.309 -0.1433 -0.0774  2.0169
17024TIP3   OH272562   0.602   6.205  12.615 -0.3802  0.3693 -0.5328
17024TIP3    H172563   0.679   6.172  12.662  0.0358  1.1930 -0.6258
17024TIP3    H272564   0.545   6.240  12.684 -0.9278 -0.7237 -0.4105
17025TIP3   OH272565   0.177   3.910   1.366  0.0413 -0.1944 -0.6947
17025TIP3    H172566   0.104   3.949   1.317 -1.1197 -0.9682  0.3397
17025TIP3    H272567   0.213   3.844   1.306 -2.1580 -2.0137 -0.1768
17026TIP3   OH272568   5.981   3.681   3.224 -0.2043 -0.5658  0.0629
17026TIP3    H172569   6.039   3.650   3.155  0.1007 -0.0752  0.0956
17026TIP3    H272570   6.024   3.760   3.258  0.5604 -1.7532  2.0179
17027TIP3   OH272571   6.687   0.685  15.532 -0.1692 -0.3228 -0.0025
17027TIP3    H172572   6.731   0.751  15.478  1.1762  0.0612  1.4761
17027TIP3    H272573   6.606   0.727  15.561  1.6669  1.6667  2.7277
17028TIP3   OH272574   4.215   4.621   3.192 -0.1391 -0.2216  0.3715
17028TIP3    H172575   4.307   4.616   3.219 -0.1302  0.0115  0.3860
17028TIP3    H272576   4.218   4.618   3.096  0.0105  1.5667  0.2904
17029TIP3   OH272577   5.931   0.956   0.078  0.5250  0.5672  0.2545
17029TIP3    H172578   6.025   0.961   0.097  0.9168 -0.4037 -1.2328
17029TIP3    H272579   5.923   0.881   0.018 -0.8936  1.9917 -1.4335
17030TIP3   OH272580   2.172   4.572  11.804  0.2589 -0.0332 -0.5956
17030TIP3    H172581   2.186   4.600  11.713  0.2508  1.8541 -0.0406
17030TIP3    H272582   2.240   4.615  11.854 -0.7955  0.3660  0.5443
17031TIP3   OH272583   3.203   1.346  12.811  0.4230  0.2218 -0.1425
17031TIP3    H172584   3.139   1.369  12.878 -0.6960  0.1051 -1.1412
17031TIP3    H272585   3.195   1.251  12.801  1.7325 -0.0014  0.6730
17032TIP3   OH272586   6.304   2.933  15.758 -0.3153  0.4770 -0.5685
17032TIP3    H172587   6.321   3.011  15.812 -0.5177  0.4511 -0.4657
17032TIP3    H272588   6.314   2.964  15.668 -0.5532  0.6629 -0.5346
17033TIP3   OH272589   1.371   1.859   1.632  0.1185  0.4664 -0.2213
17033TIP3    H172590   1.366   1.812   1.716  2.4973  1.1935  0.3959
17033TIP3    H272591   1.286   1.901   1.623 -0.8450 -1.1336  0.9006
17034TIP3   OH272592   4.857   5.412  17.112  0.0506  0.2128  0.0033
17034TIP3    H172593   4.831   5.380  17.025  0.9772 -1.2061  0.2214
17034TIP3    H272594   4.778   5.405  17.165 -0.0297 -0.8086 -0.2256
17035TIP3   OH272595   5.613   3.237   5.446 -0.1876  0.1951  0.2436
17035TIP3    H172596   5.521   3.240   5.420  0.1617  2.3067 -0.9327
17035TIP3    H272597   5.651   3.167   5.393 -1.1675 -1.0186  1.0771
17036TIP3   OH272598   0.708   4.843  11.113 -0.5010 -0.5254 -0.0168
17036TIP3    H172599   0.657   4.773  11.071 -0.1838 -1.3899  0.9853
17036TIP3    H272600   0.685   4.836  11.206  0.1716  0.1677  0.2065
17037TIP3   OH272601   4.462   6.133   6.380 -0.0765  0.3986 -0.0677
17037TIP3    H172602   4.371   6.136   6.409  0.4087 -1.4672  1.9913
17037TIP3    H272603   4.470   6.048   6.337  0.7891  0.3311  0.2063
17038TIP3   OH272604   6.586   6.469  11.420 -0.2249  0.2135  0.4256
17038TIP3    H172605   6.593   6.433  11.508  1.4365 -0.0746  0.2024
17038TIP3    H272606   6.559   6.395  11.366  1.0346 -0.2045  0.3321
17039TIP3   OH272607   0.188   4.218  14.630  0.0087 -0.2375  0.0825
17039TIP3    H172608   0.272   4.225  14.585 -0.1701 -0.6283 -0.3159
17039TIP3    H272609   0.167   4.124  14.629  0.2264 -0.3202  1.3905
17040TIP3   OH272610   3.916   6.467   0.489 -0.3409 -0.4942 -0.3164
17040TIP3    H172611   3.849   6.467   0.421 -0.0774  0.6292 -0.5933
17040TIP3    H272612   3.883   6.406   0.555 -1.3986 -0.3339 -0.6758
17041TIP3   OH272613   5.649   3.799  13.945 -0.3412 -0.3166 -0.3535
17041TIP3    H172614   5.578   3.864  13.939 -0.1074  0.0626  0.7894
17041TIP3    H272615   5.718   3.834  13.889 -0.0869  0.6259  0.5123
17042TIP3   OH272616   4.720   3.964  16.623  0.0157  0.0310  0.2869
17042TIP3    H172617   4.682   4.034  16.570  1.5601  0.0248 -0.9040
17042TIP3    H272618   4.720   3.999  16.713 -0.2406  1.1196 -0.1194
17043TIP3   OH272619   1.166   2.905  10.908 -0.1353 -0.1441  0.0549
17043TIP3    H172620   1.099   2.874  10.847 -1.1022  0.8600  0.5584
17043TIP3    H272621   1.242   2.925  10.853 -0.4168 -0.8103 -0.5923
17044TIP3   OH272622   5.242   2.824  11.460 -0.0455  0.1771 -0.1416
17044TIP3    H172623   5.258   2.766  11.385  1.1497 -0.2061  0.3843
17044TIP3    H272624   5.212   2.767  11.530 -1.7654  0.6160 -0.4717
17045TIP3   OH272625   4.860   2.960   3.637  0.6137  0.3147 -0.2035
17045TIP3    H172626   4.856   2.872   3.601  3.5894 -0.8282  1.8570
17045TIP3    H272627   4.814   2.954   3.721 -1.6121  1.5446 -1.2561
17046TIP3   OH272628   4.537   0.740  11.452 -0.5628  0.1642  0.4189
17046TIP3    H172629   4.510   0.726  11.543 -0.2973  0.8707  0.6148
17046TIP3    H272630   4.588   0.662  11.430  3.5589  1.9455  2.4943
17047TIP3   OH272631   3.498   4.079  12.141 -0.2942  0.0378 -0.6536
17047TIP3    H172632   3.585   4.053  12.112 -0.2755  0.2703 -0.8054
17047TIP3    H272633   3.470   4.008  12.199 -0.7730 -0.9861 -2.0688
17048TIP3   OH272634   2.699   3.801   6.887  0.5622 -0.0232  0.9467
17048TIP3    H172635   2.654   3.752   6.957  1.1116 -2.0825 -0.0540
17048TIP3    H272636   2.792   3.794   6.910  0.5696  2.6340  2.0188
17049TIP3   OH272637   4.057   1.105   3.881  0.3989  0.6634  0.1090
17049TIP3    H172638   4.077   1.198   3.875 -1.2948  0.9915 -1.3170
17049TIP3    H272639   3.978   1.100   3.934 -0.5590  0.2541 -1.2885
17050TIP3   OH272640   4.479   5.195  15.081  0.5075  0.5077 -0.0578
17050TIP3    H172641   4.453   5.273  15.033  0.0090 -0.4571 -1.4245
17050TIP3    H272642   4.566   5.174  15.046  0.2513 -0.0583 -0.3619
17051TIP3   OH272643   6.021   2.901   4.845  0.1372 -1.2720  0.0055
17051TIP3    H172644   6.026   2.913   4.750 -0.0168 -1.6275 -0.0517
17051TIP3    H272645   6.109   2.872   4.870 -0.1314 -2.3096 -0.2054
17052TIP3   OH272646   2.198   6.391   5.231 -0.3211  0.2347 -0.3576
17052TIP3    H172647   2.109   6.356   5.240  0.2910 -1.5350 -0.6293
17052TIP3    H272648   2.240   6.332   5.169  0.8984  1.3602 -0.6441
17053TIP3   OH272649   2.102   4.879   2.345 -0.1657 -0.9662 -0.1860
17053TIP3    H172650   2.125   4.797   2.301  0.3740 -0.9802  0.1152
17053TIP3    H272651   2.132   4.947   2.285  1.0419 -0.9802  0.3757
17054TIP3   OH272652   6.766   1.635   1.241  0.0130  0.8536  0.1746
17054TIP3    H172653   6.784   1.725   1.269  1.7157  1.0512 -1.3663
17054TIP3    H272654   6.726   1.594   1.318  2.0730  2.0693  2.0244
17055TIP3   OH272655   5.566   0.289   1.260  0.2584  0.3415 -0.0234
17055TIP3    H172656   5.606   0.371   1.290 -0.4898  0.6172  0.2603
17055TIP3    H272657   5.504   0.267   1.329 -0.6213  0.3328 -0.8027
17056TIP3   OH272658   3.215   0.865   1.465 -0.1715  0.1108 -0.1623
17056TIP3    H172659   3.243   0.839   1.377  3.4628  0.0002  0.8699
17056TIP3    H272660   3.195   0.783   1.510 -1.6237  0.1424 -0.6990
17057TIP3   OH272661   3.213   2.453  11.617  0.0178 -0.2827 -0.2494
17057TIP3    H172662   3.299   2.482  11.644 -0.3206  0.8044 -0.3058
17057TIP3    H272663   3.175   2.412  11.695 -0.0965  0.8367  0.2919
17058TIP3   OH272664   1.579   2.978   3.471 -0.1222 -0.2536 -0.0473
17058TIP3    H172665   1.581   2.886   3.500 -1.4542  0.1344  1.3562
17058TIP3    H272666   1.609   3.028   3.547  0.7318  0.4988 -0.8489
17059TIP3   OH272667   0.618   2.348  12.590  0.2615  0.2787 -0.0780
17059TIP3    H172668   0.548   2.287  12.566  1.0945 -0.8193  0.2102
17059TIP3    H272669   0.575   2.411  12.647 -0.5376 -0.2970 -0.0210
17060TIP3   OH272670   4.032   1.141   4.286 -0.3244 -0.4409 -0.3360
17060TIP3    H172671   4.041   1.155   4.381 -1.0495 -0.0235 -0.3234
17060TIP3    H272672   3.949   1.096   4.276 -2.0169  2.5576 -1.0014
17061TIP3   OH272673   3.404   2.455  13.511 -0.3958  0.7682 -0.3796
17061TIP3    H172674   3.394   2.359  13.510 -0.1424  0.6887  1.2736
17061TIP3    H272675   3.437   2.477  13.424 -1.4686 -0.5262 -1.1535
17062TIP3   OH272676   4.870   6.068  12.462  0.1890 -0.5329  0.3339
17062TIP3    H172677   4.822   6.102  12.386 -0.2966  0.6829  1.1602
17062TIP3    H272678   4.897   6.146  12.510 -0.4247 -1.2868  1.9788
17063TIP3   OH272679   4.782   1.957   0.524 -0.2259 -0.4463  0.4574
17063TIP3    H172680   4.756   1.986   0.611 -1.1915 -0.0684  0.0731
17063TIP3    H272681   4.700   1.925   0.484 -1.0797  3.9417 -2.0436
17064TIP3   OH272682   5.977   4.482  13.496 -0.3141 -0.3713  0.1310
17064TIP3    H172683   5.969   4.479  13.591  0.4039 -0.5463  0.1899
17064TIP3    H272684   5.927   4.559  13.470  1.9555  1.4931  0.9334
17065TIP3   OH272685   4.120   2.475  12.599  0.2130 -0.5271  0.3212
17065TIP3    H172686   4.207   2.509  12.617 -0.4295  0.3708  1.8561
17065TIP3    H272687   4.136   2.398  12.544  1.7740  1.3812 -2.0993
17066TIP3   OH272688   4.929   2.459   1.211  0.5392  0.6415 -0.1687
17066TIP3    H172689   4.843   2.419   1.226  0.9614  0.0409  0.7272
17066TIP3    H272690   4.924   2.543   1.258  0.9830 -0.1156  1.2870
17067TIP3   OH272691   2.008   4.686  17.051 -0.0986  0.1220  0.3183
17067TIP3    H172692   2.103   4.691  17.038 -0.3814  1.8109 -1.6296
17067TIP3    H272693   1.973   4.758  16.998 -2.6023 -1.5013 -0.4067
17068TIP3   OH272694   4.242   4.328   3.754 -0.1056  0.1508  0.9157
17068TIP3    H172695   4.255   4.358   3.664 -0.7713  0.7730  1.0138
17068TIP3    H272696   4.274   4.238   3.755  2.2631  0.9048  0.6675
17069TIP3   OH272697   1.463   2.089  13.397 -0.3186 -0.1570 -0.6123
17069TIP3    H172698   1.488   2.156  13.334  0.6444  0.7489  0.7036
17069TIP3    H272699   1.460   2.134  13.481  1.2112 -1.9066  0.4624
17070TIP3   OH272700   2.278   4.586   3.970  0.0358 -0.5904  0.0545
17070TIP3    H172701   2.182   4.586   3.962 -0.1429 -0.5580  1.7631
17070TIP3    H272702   2.293   4.592   4.064  1.7391  1.5895 -0.2876
17071TIP3   OH272703   5.340   2.172  11.680  0.0270 -0.6672  0.0126
17071TIP3    H172704   5.418   2.177  11.624 -0.4648 -1.5101 -0.7825
17071TIP3    H272705   5.342   2.084  11.716 -0.5737 -0.7107 -0.0483
17072TIP3   OH272706   5.260   6.793  13.243 -0.2305  0.1216 -0.3539
17072TIP3    H172707   5.230   6.852  13.174 -0.5622  1.0056  0.5260
17072TIP3    H272708   5.293   6.851  13.312 -1.7258 -0.6132  1.0743
17073TIP3   OH272709   0.426   5.586  14.936  0.6890  0.4881 -0.0754
17073TIP3    H172710   0.451   5.520  14.872  0.7247  1.7562 -1.4069
17073TIP3    H272711   0.498   5.586  15.000 -0.8206 -3.0465  1.9013
17074TIP3   OH272712   3.142   4.779  14.718  0.2441 -0.0656  0.0178
17074TIP3    H172713   3.082   4.824  14.778 -1.4706 -1.4341 -0.6163
17074TIP3    H272714   3.228   4.790  14.759 -0.3026  2.3432  0.7223
17075TIP3   OH272715   4.122   3.653   3.545  0.4585 -0.4675 -0.1831
17075TIP3    H172716   4.029   3.672   3.535  0.1695 -1.3835  0.5346
17075TIP3    H272717   4.153   3.718   3.608  0.3953  0.0742 -0.7061
17076TIP3   OH272718   1.617   4.432  13.063  0.5494  0.4210 -0.2146
17076TIP3    H172719   1.616   4.352  13.011  0.0489  0.2430  0.0613
17076TIP3    H272720   1.585   4.405  13.149  1.2173  0.7460  0.1422
17077TIP3   OH272721   1.292   4.619   2.347  0.1950  0.1049 -0.4321
17077TIP3    H172722   1.340   4.700   2.327 -0.8670  0.4261 -1.9028
17077TIP3    H272723   1.206   4.632   2.306 -0.3323 -1.3845  0.1444
17078TIP3   OH272724   5.508   6.665  11.378  0.0755 -0.2888  0.0583
17078TIP3    H172725   5.516   6.755  11.346  1.4791 -0.3909  0.0530
17078TIP3    H272726   5.431   6.666  11.435  0.5948  1.1379  0.7722
17079TIP3   OH272727   0.985   0.525  17.213 -0.8114 -0.0671 -0.6478
17079TIP3    H172728   1.002   0.616  17.189 -1.8973 -0.2804 -2.3809
17079TIP3    H272729   1.064   0.478  17.187  0.0344  0.4476  0.8855
17080TIP3   OH272730   4.972   0.461  12.090  0.3688  0.3005  0.1332
17080TIP3    H172731   4.897   0.417  12.129  0.9048 -0.3558  0.4572
17080TIP3    H272732   4.950   0.554  12.092  0.6140  0.3763  2.5981
17081TIP3   OH272733   1.531   3.454  13.990 -0.3808  0.2619  0.1954
17081TIP3    H172734   1.588   3.525  14.020  0.5553 -0.8041  1.0769
17081TIP3    H272735   1.581   3.413  13.919 -0.8431  0.3954 -0.2047
17082TIP3   OH272736   2.856   2.282  16.769 -0.6160  0.5070 -0.4566
17082TIP3    H172737   2.844   2.189  16.748 -2.0015  0.5133  0.1464
17082TIP3    H272738   2.892   2.282  16.857  1.6821  0.5352 -1.3437
17083TIP3   OH272739   1.270   4.550   6.093  0.1930  0.3207 -0.2008
17083TIP3    H172740   1.340   4.552   6.158 -1.6158 -2.6961  2.1401
17083TIP3    H272741   1.301   4.486   6.028 -0.3020 -0.9899  0.8150
17084TIP3   OH272742   1.561   3.490  16.398  0.3901 -0.0238  0.6557
17084TIP3    H172743   1.586   3.559  16.459 -0.7915 -0.0700  1.2157
17084TIP3    H272744   1.521   3.537  16.324  1.7552  0.0281 -0.0900
17085TIP3   OH272745   1.898   6.771  11.977 -0.4009  0.6312  0.1485
17085TIP3    H172746   1.870   6.860  11.954 -1.6085 -0.1513 -1.6733
17085TIP3    H272747   1.842   6.714  11.923  0.9969 -1.2099  0.5558
17086TIP3   OH272748   1.015   0.606  14.041 -0.2133  0.4533 -0.1201
17086TIP3    H172749   1.075   0.539  14.074  0.2181  1.1952  0.6498
17086TIP3    H272750   1.063   0.646  13.968  0.5182  1.4559  0.8786
17087TIP3   OH272751   1.791   0.160  12.218  0.8349  0.5172 -0.0777
17087TIP3    H172752   1.782   0.174  12.124 -0.8011 -0.5627 -0.1310
17087TIP3    H272753   1.849   0.084  12.225  2.4271  1.6845 -0.1101
17088TIP3   OH272754   3.146   6.307  15.312 -0.7668  0.2601 -0.0622
17088TIP3    H172755   3.197   6.346  15.241 -2.2981  0.9005 -0.8419
17088TIP3    H272756   3.112   6.226  15.275 -1.3296  0.4480  0.0454
17089TIP3   OH272757   2.020   6.474   0.013 -0.1012  0.3146 -0.2723
17089TIP3    H172758   1.951   6.537  -0.007 -0.4156 -0.0190 -0.2608
17089TIP3    H272759   2.093   6.527   0.043 -1.1586  0.5531  2.1368
17090TIP3   OH272760   3.121   5.922  14.810 -0.4505  0.9751 -0.2671
17090TIP3    H172761   3.068   5.992  14.772  0.2576  0.7816 -1.6726
17090TIP3    H272762   3.150   5.870  14.734 -0.1957 -0.2942  0.6654
17091TIP3   OH272763   3.479   3.214  13.761 -0.2954  0.1756  0.5412
17091TIP3    H172764   3.512   3.224  13.672  0.1271  0.2213  0.6998
17091TIP3    H272765   3.542   3.262  13.815 -1.3406  1.3947  0.7206
17092TIP3   OH272766   4.330   3.237  11.757  0.2268  0.2941  0.6260
17092TIP3    H172767   4.345   3.312  11.699  0.9714  0.5791  1.1678
17092TIP3    H272768   4.293   3.169  11.700  2.2818  0.0553 -0.5037
17093TIP3   OH272769   4.652   1.539  13.480 -0.1842 -0.4216 -0.0249
17093TIP3    H172770   4.585   1.534  13.549  1.3225  0.3628  1.5762
17093TIP3    H272771   4.602   1.548  13.399 -2.0930  1.9786  1.2577
17094TIP3   OH272772   2.545   0.940  16.352 -0.2728  0.4193  0.3528
17094TIP3    H172773   2.458   0.909  16.327 -1.3175  2.1547  1.6490
17094TIP3    H272774   2.530   1.026  16.391  2.1036  1.0464  0.0530
17095TIP3   OH272775   4.600   2.732   5.781 -0.7369  0.1390 -0.4821
17095TIP3    H172776   4.589   2.817   5.824  0.5974  0.0055  0.1518
17095TIP3    H272777   4.559   2.744   5.695  0.4494  1.8074 -0.8709
17096TIP3   OH272778   5.674   6.619   5.402 -0.0115  0.0803 -0.0922
17096TIP3    H172779   5.644   6.529   5.415 -0.6787  0.1080 -1.2117
17096TIP3    H272780   5.746   6.612   5.339  0.0252  0.3145 -0.0785
17097TIP3   OH272781   0.785   0.847  15.201 -0.0398 -0.5843 -0.4936
17097TIP3    H172782   0.774   0.854  15.106 -0.4782 -0.0043 -0.4029
17097TIP3    H272783   0.879   0.831  15.213  0.7097  2.8686 -0.8809
17098TIP3   OH272784   4.267   1.388   0.723 -0.3561 -0.2115 -0.9229
17098TIP3    H172785   4.185   1.344   0.701 -0.9179  0.9528 -1.2322
17098TIP3    H272786   4.274   1.459   0.659  0.3377  0.3696 -0.2202
17099TIP3   OH272787   4.677   6.141  16.570  0.1569 -0.1237 -0.1049
17099TIP3    H172788   4.697   6.178  16.484 -0.7450  0.1110 -0.2225
17099TIP3    H272789   4.588   6.108  16.562 -0.2341  0.5992  0.9587
17100TIP3   OH272790   1.361   3.273  17.198  0.4619 -0.2035  0.3975
17100TIP3    H172791   1.454   3.292  17.206  0.6805 -1.3464  0.7976
17100TIP3    H272792   1.355   3.179  17.214 -0.4631 -0.6149 -1.9888
17101TIP3   OH272793   0.887   4.553   2.352  0.3886 -0.6917  0.6300
17101TIP3    H172794   0.975   4.557   2.317 -0.0783  1.2281 -0.4402
17101TIP3    H272795   0.892   4.599   2.436  0.0549  1.1111 -0.3044
17102TIP3   OH272796   5.549   2.682   0.805  0.5675  0.1036  0.3087
17102TIP3    H172797   5.567   2.719   0.891 -3.7277 -1.9908  2.4062
17102TIP3    H272798   5.635   2.653   0.772  2.3611  0.7405  3.9667
17103TIP3   OH272799   0.021   5.717  11.411 -0.5053  0.1438 -0.1678
17103TIP3    H172800   0.050   5.791  11.464  1.4828 -0.2688 -0.6076
17103TIP3    H272801   0.101   5.667  11.393 -1.4997 -1.0671 -1.4893
17104TIP3   OH272802   4.265   3.496   5.982 -0.2294 -0.4780 -0.1770
17104TIP3    H172803   4.258   3.543   6.065  1.1666 -2.1337  0.9637
17104TIP3    H272804   4.175   3.480   5.955 -0.7209 -0.2476  1.2488
17105TIP3   OH272805   0.828   5.574   3.422  0.1972  0.7881  0.2528
17105TIP3    H172806   0.808   5.539   3.336  0.9618 -0.8019  0.6776
17105TIP3    H272807   0.792   5.663   3.422 -1.7968  0.0296 -0.9036
17106TIP3   OH272808   5.424   2.365   3.588  0.1680  0.1894  0.1827
17106TIP3    H172809   5.451   2.342   3.677  0.8878 -1.7085 -0.4621
17106TIP3    H272810   5.410   2.281   3.545  1.4892  0.9909 -1.9802
17107TIP3   OH272811   0.541   3.532   0.183 -0.6127 -0.2323  0.1654
17107TIP3    H172812   0.576   3.454   0.141  1.7944 -0.0037  1.5775
17107TIP3    H272813   0.462   3.502   0.227 -1.8605 -0.9854 -2.3910
17108TIP3   OH272814   6.768   3.243   4.442  0.1902  0.5444  0.2535
17108TIP3    H172815   6.776   3.148   4.446 -0.0810  0.4633 -0.7853
17108TIP3    H272816   6.764   3.263   4.349  1.8847  1.7276  0.3768
17109TIP3   OH272817   3.234   5.684   3.246  0.4893 -0.0645  0.0520
17109TIP3    H172818   3.174   5.753   3.218 -0.6851 -1.4943 -1.1175
17109TIP3    H272819   3.242   5.695   3.340 -1.1951  0.4937  0.1507
17110TIP3   OH272820   1.198   3.364  12.878  0.3819 -0.6794  0.9178
17110TIP3    H172821   1.284   3.326  12.893  0.5849  0.1974  2.1040
17110TIP3    H272822   1.154   3.359  12.962  0.4110  1.6198  1.1372
17111TIP3   OH272823   3.773   6.644   4.158  0.9168  0.1631 -0.1351
17111TIP3    H172824   3.824   6.723   4.175  0.0422  0.6395  0.3719
17111TIP3    H272825   3.754   6.609   4.244 -1.2517  1.0917 -0.1607
17112TIP3   OH272826   1.974   0.363   1.691  0.4803 -0.0667 -0.1145
17112TIP3    H172827   1.985   0.305   1.616  2.2364 -0.8393  0.6899
17112TIP3    H272828   1.936   0.308   1.760  2.3404 -0.3804  0.7177
17113TIP3   OH272829   1.443   0.529  15.498 -0.4052  0.3268 -0.0286
17113TIP3    H172830   1.530   0.558  15.526  0.1936  0.6485 -2.0400
17113TIP3    H272831   1.388   0.607  15.504 -0.3068  0.3764  0.2555
17114TIP3   OH272832   5.474   6.292  17.305 -0.1905 -0.1160  0.1106
17114TIP3    H172833   5.530   6.367  17.323 -0.7943  0.3305  0.1378
17114TIP3    H272834   5.388   6.329  17.286 -0.5779 -0.8169  0.4443
17115TIP3   OH272835   5.572   1.046   1.863 -0.4037 -0.1645 -0.8392
17115TIP3    H172836   5.635   1.067   1.793 -0.2398  1.7328 -0.1642
17115TIP3    H272837   5.591   0.954   1.884  1.2108 -0.0527 -1.5950
17116TIP3   OH272838   5.267   5.664   5.579  0.4299  0.0824  0.3572
17116TIP3    H172839   5.259   5.739   5.638 -0.3607  0.4182 -0.1575
17116TIP3    H272840   5.303   5.700   5.499 -3.6512  0.8073 -1.3840
17117TIP3   OH272841   5.943   0.085  11.253 -0.0247  0.7301 -0.4926
17117TIP3    H172842   5.886   0.153  11.288  1.3453  1.0198  1.3462
17117TIP3    H272843   6.025   0.130  11.232 -0.3790  0.3212 -3.0523
17118TIP3   OH272844   4.776   3.938  12.887 -0.6520 -0.7764  0.4513
17118TIP3    H172845   4.804   4.017  12.933  0.5143 -0.3552 -0.9199
17118TIP3    H272846   4.715   3.896  12.947 -2.3681  1.8385  0.7084
17119TIP3   OH272847   3.880   4.429   5.804 -0.1252 -0.4371 -0.0952
17119TIP3    H172848   3.814   4.373   5.763 -1.7769  0.8194  0.7393
17119TIP3    H272849   3.964   4.389   5.779 -1.1764 -2.1853 -1.0417
17120TIP3   OH272850   4.267   1.629   3.245 -0.1084 -0.3547  0.1403
17120TIP3    H172851   4.204   1.702   3.246 -1.3825 -1.4210 -0.0904
17120TIP3    H272852   4.226   1.562   3.191  1.7266 -0.6986 -0.9208
17121TIP3   OH272853   6.145   1.704   2.086  0.2057  0.0086  0.4908
17121TIP3    H172854   6.057   1.723   2.053 -0.2471 -1.6034  0.6607
17121TIP3    H272855   6.192   1.669   2.009 -0.3117 -2.1107  1.0849
17122TIP3   OH272856   3.583   0.186   4.791 -0.5397  0.5243  0.0758
17122TIP3    H172857   3.598   0.235   4.872  1.5203 -0.5149  0.4140
17122TIP3    H272858   3.532   0.110   4.819  0.0057  0.2637  0.3969
17123TIP3   OH272859   1.429   5.762  13.022  0.1243  0.2896 -0.1823
17123TIP3    H172860   1.487   5.836  13.040 -0.7385  0.5843  1.6676
17123TIP3    H272861   1.427   5.713  13.105 -0.2498 -1.1592 -1.0070
17124TIP3   OH272862   2.691   1.970   2.086 -1.0166 -0.3819 -0.0692
17124TIP3    H172863   2.751   2.021   2.032 -1.4019  0.9542  0.7093
17124TIP3    H272864   2.627   1.935   2.024 -2.7202  2.8813 -0.3809
17125TIP3   OH272865   4.905   0.059  15.404 -0.3253 -0.2898 -0.1369
17125TIP3    H172866   4.988   0.034  15.363  0.1403  0.7889  0.1088
17125TIP3    H272867   4.915   0.033  15.496 -1.8861 -3.9545 -0.8397
17126TIP3   OH272868   6.013   2.455  16.985  0.4763 -0.2443 -0.2723
17126TIP3    H172869   6.071   2.458  16.908 -0.5642 -1.0659 -1.1220
17126TIP3    H272870   5.955   2.530  16.974 -0.2184 -0.8364 -0.7595
17127TIP3   OH272871   4.466   5.857   6.291 -0.1535  0.2728  0.3893
17127TIP3    H172872   4.439   5.790   6.354  0.4089 -0.4030 -0.0806
17127TIP3    H272873   4.391   5.867   6.232 -0.3553  0.2866  0.6470
17128TIP3   OH272874   1.146   3.619   1.831  0.5187 -0.0667 -0.1670
17128TIP3    H172875   1.220   3.654   1.782 -0.0602 -0.4264 -1.3493
17128TIP3    H272876   1.072   3.628   1.771 -0.5564  0.9673  1.2562
17129TIP3   OH272877   2.438   1.154  15.971 -0.3762  0.3912 -0.0194
17129TIP3    H172878   2.404   1.220  15.911  3.0240 -0.3492 -3.1002
17129TIP3    H272879   2.464   1.081  15.915  2.0189 -0.8579  2.4602
17130TIP3   OH272880   1.160   6.286   5.004 -0.0715 -0.0515 -0.5723
17130TIP3    H172881   1.102   6.211   5.000 -2.3657  1.6532 -2.5374
17130TIP3    H272882   1.210   6.283   4.923 -0.3846  0.6673 -0.8037
17131TIP3   OH272883   0.796   0.141   4.156 -0.2804  0.1952  0.1922
17131TIP3    H172884   0.770   0.049   4.149  1.3923 -0.2914 -0.1264
17131TIP3    H272885   0.720   0.185   4.196 -0.9842 -1.3711  0.6465
17132TIP3   OH272886   6.729   2.779  12.414  0.3033 -0.4974  0.5849
17132TIP3    H172887   6.747   2.743  12.501 -0.6153 -0.6814  0.7180
17132TIP3    H272888   6.684   2.709  12.368  1.3268 -0.6176 -0.2669
17133TIP3   OH272889   3.589   3.516  12.123  0.1681  0.2438 -0.7651
17133TIP3    H172890   3.515   3.482  12.072  0.3313 -0.9987 -0.2050
17133TIP3    H272891   3.604   3.450  12.191  1.4210  0.7593 -0.5098
17134TIP3   OH272892   4.810   4.075   5.181  0.5012  0.0965  0.1764
17134TIP3    H172893   4.899   4.098   5.156 -0.1050  1.2854 -1.0047
17134TIP3    H272894   4.761   4.073   5.099 -0.9737  1.3666  0.9660
17135TIP3   OH272895   5.080   6.011   0.757  0.0534 -0.1415 -0.4648
17135TIP3    H172896   5.034   5.953   0.818  0.9880  0.4806  0.8975
17135TIP3    H272897   5.170   5.978   0.757  0.0250 -0.2621 -1.7116
17136TIP3   OH272898   4.606   5.289  16.418 -0.0325  0.2326  0.6682
17136TIP3    H172899   4.590   5.246  16.502 -0.5846 -2.3990 -0.6920
17136TIP3    H272900   4.518   5.303  16.382  0.2143 -2.0309 -1.0047
17137TIP3   OH272901   0.565   0.814   0.131 -0.0892 -0.2695 -0.8372
17137TIP3    H172902   0.491   0.858   0.174 -0.3320 -0.2020 -1.3098
17137TIP3    H272903   0.638   0.825   0.191 -0.4216 -0.1803 -0.4418
17138TIP3   OH272904   0.753   0.494   5.959  0.4662 -0.2161  0.1187
17138TIP3    H172905   0.762   0.450   6.044  0.3775  0.4237  0.4671
17138TIP3    H272906   0.818   0.452   5.903  0.6460 -0.5218  0.5528
17139TIP3   OH272907   1.504   2.363   4.749  0.3012  0.5533 -0.0238
17139TIP3    H172908   1.475   2.427   4.814 -0.6180 -0.1890  0.3200
17139TIP3    H272909   1.448   2.287   4.764  0.7996 -0.0185 -0.9885
17140TIP3   OH272910   3.265   1.147  11.737  0.4881  0.1658  0.8561
17140TIP3    H172911   3.342   1.203  11.724  0.3698  0.4170  1.2371
17140TIP3    H272912   3.232   1.171  11.823  1.0412 -1.2017  1.4744
17141TIP3   OH272913   1.481   3.896  13.108  0.2566 -0.5752 -0.4928
17141TIP3    H172914   1.393   3.860  13.123  0.1872 -0.4416 -0.5778
17141TIP3    H272915   1.538   3.820  13.110  0.4778 -0.4332  2.0543
17142TIP3   OH272916   0.662   2.199  14.438  0.8485  0.4534  0.2697
17142TIP3    H172917   0.678   2.173  14.529 -0.3376  2.0527  0.9875
17142TIP3    H272918   0.724   2.271  14.423 -0.3274  1.5451  0.5146
17143TIP3   OH272919   6.599   3.379   1.260  0.0673 -0.3528  0.8012
17143TIP3    H172920   6.630   3.367   1.350  4.7363  0.3953 -0.4266
17143TIP3    H272921   6.585   3.290   1.228 -0.5843 -0.6729  1.9230
17144TIP3   OH272922   5.649   3.526  13.945  0.2719 -0.0216  0.6447
17144TIP3    H172923   5.590   3.484  13.882  1.1674  0.0959 -0.2918
17144TIP3    H272924   5.597   3.599  13.980  0.2150  0.8062 -1.0324
17145TIP3   OH272925   1.332   0.429   2.815  0.0733 -0.1180  0.6346
17145TIP3    H172926   1.354   0.502   2.874  2.8335  0.4480 -0.8852
17145TIP3    H272927   1.248   0.455   2.776 -0.7805  0.4763  2.7138
17146TIP3   OH272928   3.914   3.322  12.399  0.3676  0.2555  0.1456
17146TIP3    H172929   3.873   3.393  12.448  0.0941  0.0766  0.1795
17146TIP3    H272930   3.969   3.366  12.334 -1.1402  0.5227 -0.9900
17147TIP3   OH272931   2.284   2.758  11.513  0.5612 -0.4012 -0.6762
17147TIP3    H172932   2.191   2.753  11.532  0.4892 -1.0296 -1.1764
17147TIP3    H272933   2.291   2.741  11.419  1.1659 -0.2210 -0.6688
17148TIP3   OH272934   2.126   1.073   3.424 -0.3373 -0.0391  0.0330
17148TIP3    H172935   2.055   1.106   3.369  0.6951  1.2395 -0.5886
17148TIP3    H272936   2.102   1.102   3.513 -0.6728  0.2546 -0.1497
17149TIP3   OH272937   2.309   1.764  14.211  0.2198 -0.1827 -0.0779
17149TIP3    H172938   2.397   1.774  14.245  0.8124 -2.2302 -0.8291
17149TIP3    H272939   2.320   1.716  14.128 -1.6396 -1.9345  0.5803
17150TIP3   OH272940   2.010   0.479  16.137 -0.4010 -0.5008  0.1542
17150TIP3    H172941   1.977   0.398  16.099  0.0658 -0.5472 -0.1781
17150TIP3    H272942   2.042   0.529  16.061 -0.1641 -0.2552  0.4108
17151TIP3   OH272943   5.701   0.141   2.040  0.3107 -0.3362 -0.0237
17151TIP3    H172944   5.621   0.089   2.042  0.4317 -0.5068  0.4919
17151TIP3    H272945   5.679   0.221   2.087  0.0985  0.1263 -0.8929
17152TIP3   OH272946   2.341   4.398  10.450  0.3555  0.6115  0.3766
17152TIP3    H172947   2.408   4.467  10.443  0.3852  0.6205  0.7527
17152TIP3    H272948   2.347   4.368  10.540  0.1640  0.2914  0.2821
17153TIP3   OH272949   4.246   5.481   3.945 -0.5417  1.0676  0.0270
17153TIP3    H172950   4.163   5.527   3.958 -0.2297  1.1020  2.2640
17153TIP3    H272951   4.227   5.417   3.877 -2.2358  1.5054  0.0336
17154TIP3   OH272952   4.847   4.176   0.785  0.1190 -0.2057  0.2345
17154TIP3    H172953   4.906   4.111   0.747 -0.5718 -0.7859  0.1263
17154TIP3    H272954   4.820   4.230   0.711 -1.5677 -1.6025 -0.2421
17155TIP3   OH272955   3.504   3.546   3.613  0.1588  0.3982 -0.7259
17155TIP3    H172956   3.566   3.534   3.540 -0.5876  0.8315 -1.4530
17155TIP3    H272957   3.474   3.636   3.605 -3.0163 -0.6326 -2.4468
17156TIP3   OH272958   0.394   4.812  13.665  0.1391  0.2293  1.1481
17156TIP3    H172959   0.355   4.726  13.649  0.4932  0.1624  0.6065
17156TIP3    H272960   0.339   4.852  13.732  0.3968 -0.7129  1.9384
17157TIP3   OH272961   6.394   2.607   0.099  0.5628 -0.3403 -0.1397
17157TIP3    H172962   6.420   2.516   0.086  0.0423 -0.6073  0.5814
17157TIP3    H272963   6.448   2.637   0.172  0.6447 -0.1050 -0.2957
17158TIP3   OH272964   1.805   0.331   2.251  0.6636 -0.1975  0.0117
17158TIP3    H172965   1.873   0.317   2.317  1.8663  0.4255 -1.0478
17158TIP3    H272966   1.789   0.425   2.251  1.7419  0.0359 -1.5384
17159TIP3   OH272967   5.293   3.655   1.376 -0.2047  0.0314 -0.1749
17159TIP3    H172968   5.380   3.659   1.414 -0.2594  2.0889 -0.1392
17159TIP3    H272969   5.291   3.572   1.327  1.6659 -0.1609  0.0306
17160TIP3   OH272970   3.417   2.076  12.441 -0.3143 -0.4779  0.0846
17160TIP3    H172971   3.423   2.170  12.422 -0.0798 -0.2230  1.3544
17160TIP3    H272972   3.399   2.036  12.356  2.0532  0.4678 -0.9586
17161TIP3   OH272973   2.430   1.359   1.839 -0.0965 -0.1726  0.0925
17161TIP3    H172974   2.511   1.396   1.802  0.1301 -1.6478 -0.9661
17161TIP3    H272975   2.456   1.321   1.922  0.1436 -0.0330  0.0822
17162TIP3   OH272976   3.862   0.219  16.827 -0.2064 -0.1813 -0.0892
17162TIP3    H172977   3.952   0.201  16.852 -0.2216 -1.8034 -1.1143
17162TIP3    H272978   3.834   0.288  16.888  0.7589 -1.7319  2.2621
17163TIP3   OH272979   2.208   3.069   5.719  0.2076  0.0516  0.0749
17163TIP3    H172980   2.165   3.027   5.793 -1.1810  1.7358  0.2996
17163TIP3    H272981   2.294   3.096   5.752  0.5120 -1.2275  0.3568
17164TIP3   OH272982   4.519   4.724   4.759 -0.2848  0.3431  0.1091
17164TIP3    H172983   4.457   4.652   4.746  1.6509 -1.3340 -0.3204
17164TIP3    H272984   4.526   4.734   4.854  2.1932 -2.7025  0.3981
17165TIP3   OH272985   2.625   2.295   2.448 -0.2898  0.1412 -0.3078
17165TIP3    H172986   2.551   2.353   2.429 -0.1576  0.2933 -0.3585
17165TIP3    H272987   2.608   2.217   2.394  0.6263  0.9964 -1.8899
17166TIP3   OH272988   6.486   0.307   2.909 -0.1911 -0.4850 -0.4254
17166TIP3    H172989   6.496   0.400   2.886  0.1466 -1.0990 -3.0632
17166TIP3    H272990   6.391   0.294   2.914 -0.2318  0.2002  1.0278
17167TIP3   OH272991   4.929   5.757  15.268 -0.3498 -0.3556  0.6440
17167TIP3    H172992   4.925   5.687  15.332 -1.7418 -0.7014  0.2099
17167TIP3    H272993   4.852   5.811  15.286  0.2904  0.6566  0.4896
17168TIP3   OH272994   1.793   1.127   2.189 -0.5950 -0.5110  0.1382
17168TIP3    H172995   1.870   1.155   2.240  0.0898 -1.7562 -0.1815
17168TIP3    H272996   1.719   1.166   2.235  0.1785  0.1731  0.8392
17169TIP3   OH272997   1.828   0.613   1.545  0.4514 -0.3580 -0.0061
17169TIP3    H172998   1.856   0.535   1.593 -1.5824 -0.3006  1.4098
17169TIP3    H272999   1.855   0.686   1.601 -0.4903 -0.2206  0.2965
17170TIP3   OH273000   3.696   6.104   2.261  0.2328  0.3208  0.0517
17170TIP3    H173001   3.603   6.089   2.277  0.1827  0.1216 -0.3999
17170TIP3    H273002   3.707   6.089   2.167  0.5894  1.0200 -0.0277
17171TIP3   OH273003   3.693   5.398   2.671  0.1274  0.4907  0.3981
17171TIP3    H173004   3.712   5.485   2.703  2.2242  0.1946  0.0741
17171TIP3    H273005   3.686   5.408   2.576 -0.6228  0.4522  0.4406
17172TIP3   OH273006   3.797   1.248  13.255  0.0631 -0.1719  0.1435
17172TIP3    H173007   3.722   1.239  13.313 -1.2253 -1.9305 -1.6365
17172TIP3    H273008   3.808   1.343  13.244 -0.5867  0.1478  2.0213
17173TIP3   OH273009   0.520   6.576  16.050  0.4449  0.0677  0.9072
17173TIP3    H173010   0.571   6.551  15.973 -0.9852  1.1990 -0.4774
17173TIP3    H273011   0.566   6.652  16.085 -0.4135  1.3276 -0.5636
17174TIP3   OH273012   2.192   5.409  12.598  0.8519  0.7271 -0.0369
17174TIP3    H173013   2.231   5.447  12.520 -1.6281  1.1586 -1.1541
17174TIP3    H273014   2.112   5.459  12.613  0.4905 -0.2948  1.9351
17175TIP3   OH273015   3.318   2.761  12.108 -0.0203  0.2372  0.3174
17175TIP3    H173016   3.377   2.779  12.180  0.7806 -1.5092  0.1459
17175TIP3    H273017   3.374   2.759  12.030 -0.8210  1.7842 -0.3460
17176TIP3   OH273018   2.679   3.854  12.312 -0.7068 -0.4534  0.1209
17176TIP3    H173019   2.632   3.819  12.388  0.5943 -1.0037  0.7066
17176TIP3    H273020   2.694   3.778  12.256 -3.0231  0.1896 -1.5130
17177TIP3   OH273021   2.408   4.372  15.396 -0.0133  0.3585  0.1585
17177TIP3    H173022   2.496   4.387  15.363 -0.3039  0.1075 -0.7744
17177TIP3    H273023   2.418   4.366  15.491  0.9171  0.6709  0.0888
17178TIP3   OH273024   0.165   0.638   3.090 -0.2341 -0.2991  0.2274
17178TIP3    H173025   0.177   0.640   3.185  0.8859  0.2513  0.0954
17178TIP3    H273026   0.127   0.723   3.069  2.1734  0.7888 -0.0910
17179TIP3   OH273027   3.088   1.231  17.139 -0.2344 -0.3322 -0.1867
17179TIP3    H173028   3.144   1.195  17.071  0.4507 -2.0121  1.2115
17179TIP3    H273029   2.999   1.217  17.107  0.0879 -0.6752 -0.9471
17180TIP3   OH273030   6.188   0.177   5.525 -0.5561 -0.1721  0.4345
17180TIP3    H173031   6.178   0.201   5.617  1.3308  1.2844  0.3097
17180TIP3    H273032   6.138   0.244   5.478 -0.2005  0.0166  0.3283
17181TIP3   OH273033   2.470   3.796  12.507 -0.4630  0.1022 -0.1771
17181TIP3    H173034   2.410   3.771  12.437 -0.3823  2.0318 -0.9987
17181TIP3    H273035   2.435   3.878  12.541  1.1408  0.7689 -0.0121
17182TIP3   OH273036   2.789   6.733  10.450  0.0686 -1.2083 -0.6045
17182TIP3    H173037   2.713   6.761  10.502  0.6109  0.0128 -0.4265
17182TIP3    H273038   2.865   6.756  10.503  0.5833 -2.9610 -0.5226
17183TIP3   OH273039   5.584   3.196   0.818 -0.3944 -0.1627  0.1613
17183TIP3    H173040   5.646   3.252   0.865 -0.5921  0.8054 -0.7014
17183TIP3    H273041   5.510   3.253   0.798 -1.7134 -1.3593  1.3803
17184TIP3   OH273042   3.793   5.424   2.407  0.9291  0.2862  0.0134
17184TIP3    H173043   3.758   5.411   2.318  0.6520  0.1289  0.1418
17184TIP3    H273044   3.872   5.371   2.410  2.7695  2.7657 -1.1818
17185TIP3   OH273045   6.571   2.549   0.772  0.3176 -0.0969  0.3406
17185TIP3    H173046   6.646   2.580   0.823  0.4007  0.2919 -0.0217
17185TIP3    H273047   6.608   2.523   0.688  0.3485 -1.7139  0.8051
17186TIP3   OH273048   3.820   5.929  11.328  0.2673  0.0140 -0.0015
17186TIP3    H173049   3.734   5.911  11.366 -0.0590 -0.4292 -0.9200
17186TIP3    H273050   3.850   5.845  11.293  1.1411  0.1298  0.4237
17187TIP3   OH273051   5.469   4.557   2.319 -0.6519 -0.3318 -0.4671
17187TIP3    H173052   5.526   4.533   2.246  0.3350 -1.0456  0.5170
17187TIP3    H273053   5.405   4.617   2.280 -0.3640 -0.9579 -1.9878
17188TIP3   OH273054   4.581   5.936  17.315 -0.2531 -0.1755 -0.4056
17188TIP3    H173055   4.674   5.912  17.304  0.1504  0.8897  0.4763
17188TIP3    H273056   4.558   5.900  17.401 -1.0732 -1.6190 -1.2032
17189TIP3   OH273057   6.501   4.792   1.984  0.6303 -0.0983  0.0616
17189TIP3    H173058   6.589   4.782   2.019  0.1293  1.1871  1.8415
17189TIP3    H273059   6.486   4.713   1.932  3.4413  0.4507 -1.7704
17190TIP3   OH273060   2.471   3.603   2.668 -0.1258 -0.5184  0.2233
17190TIP3    H173061   2.450   3.543   2.740  0.4770 -0.3689  0.5314
17190TIP3    H273062   2.386   3.632   2.635 -0.4708  1.2309  2.3901
17191TIP3   OH273063   2.527   5.844   1.174 -0.5889  0.1642  0.2056
17191TIP3    H173064   2.516   5.774   1.238  0.3564 -0.5488 -0.3929
17191TIP3    H273065   2.615   5.832   1.139 -0.1877  1.9834  0.4707
17192TIP3   OH273066   4.919   5.489   2.963  0.2593 -0.7013  0.1585
17192TIP3    H173067   4.857   5.421   2.987 -1.0477  0.4642  0.2067
17192TIP3    H273068   4.955   5.519   3.047 -1.2832  0.5679  0.4267
17193TIP3   OH273069   1.674   4.637   0.559 -0.8019 -0.1697 -0.5502
17193TIP3    H173070   1.675   4.545   0.586  4.2283 -0.1872  0.0151
17193TIP3    H273071   1.651   4.634   0.466 -1.3905 -1.8847 -0.3969
17194TIP3   OH273072   5.019   2.269  17.009 -0.1303 -0.0456 -0.8174
17194TIP3    H173073   4.974   2.188  17.034  0.5337 -0.1226  0.2116
17194TIP3    H273074   5.112   2.250  17.026  0.2121  0.3851 -2.1070
17195TIP3   OH273075   3.286   4.054   3.413  0.2953  0.0486 -0.5270
17195TIP3    H173076   3.295   4.129   3.355 -0.0871  0.2132 -0.3758
17195TIP3    H273077   3.315   4.086   3.499 -0.5024  0.2190 -0.3146
17196TIP3   OH273078   0.893   6.083  11.377  0.3644 -0.2200  0.4524
17196TIP3    H173079   0.815   6.037  11.407  0.2261  0.7935  1.7347
17196TIP3    H273080   0.953   6.080  11.451  0.7497  0.7409  0.2044
17197TIP3   OH273081   4.858   6.061   6.482 -0.6826  0.6336  0.4790
17197TIP3    H173082   4.911   6.026   6.410 -0.3598  0.3195  0.8659
17197TIP3    H273083   4.818   6.140   6.446  0.1979  0.9762  0.2534
17198TIP3   OH273084   6.088   0.694  14.578 -0.0453 -0.3954  0.1486
17198TIP3    H173085   5.999   0.699  14.545  0.6263 -0.5534 -1.7803
17198TIP3    H273086   6.081   0.639  14.656 -1.6602 -0.1738  0.1890
17199TIP3   OH273087   0.650   2.676  14.639 -0.3590  0.6247  0.8177
17199TIP3    H173088   0.623   2.585  14.624  3.4493 -0.7657  1.4218
17199TIP3    H273089   0.661   2.683  14.734 -0.0273  1.5437  0.7217
17200TIP3   OH273090   3.951   4.112   4.978 -0.1304 -0.1348 -0.1120
17200TIP3    H173091   3.891   4.038   4.979  1.0632 -1.1328  1.0620
17200TIP3    H273092   3.902   4.184   5.017 -0.3857 -1.1240  1.4993
17201TIP3   OH273093   2.716   1.412   3.286  0.2245  0.2415  0.1275
17201TIP3    H173094   2.750   1.476   3.223  1.7043  0.1379  0.7709
17201TIP3    H273095   2.773   1.421   3.362 -0.8890 -0.3627  1.0641
17202TIP3   OH273096   6.514   5.147   3.745  0.6878  0.0875  0.3569
17202TIP3    H173097   6.525   5.067   3.695  1.2457 -0.6613  1.6388
17202TIP3    H273098   6.574   5.210   3.705  0.8476 -0.3756 -0.1329
17203TIP3   OH273099   6.437   1.829  16.839 -0.0625  0.0901  0.1250
17203TIP3    H173100   6.469   1.906  16.793  1.6584  0.2626  1.4930
17203TIP3    H273101   6.462   1.843  16.930  0.9637 -2.3853  0.3207
17204TIP3   OH273102   3.028   0.759   5.762  0.3802 -0.0635  0.2257
17204TIP3    H173103   3.065   0.812   5.692 -0.2928  1.5076  1.0107
17204TIP3    H273104   3.077   0.677   5.759  0.5126  0.0438 -1.9137
17205TIP3   OH273105   2.590   4.400   2.706  0.2337 -0.2242 -0.3765
17205TIP3    H173106   2.654   4.472   2.702  0.7530 -0.6725 -0.2787
17205TIP3    H273107   2.523   4.425   2.643 -1.8592  2.4429  2.6047
17206TIP3   OH273108   0.362   2.242  10.908  0.2340 -0.0395 -0.2116
17206TIP3    H173109   0.350   2.180  10.836 -0.1345 -0.0911 -0.1075
17206TIP3    H273110   0.291   2.221  10.970 -1.3992  2.0358 -1.2485
17207TIP3   OH273111   0.010   0.215   5.727 -0.6209  0.3946 -0.5962
17207TIP3    H173112   0.019   0.257   5.813  3.1430  0.6286 -0.9434
17207TIP3    H273113  -0.003   0.123   5.747 -0.2330  0.5108  0.2299
17208TIP3   OH273114   4.234   1.849  12.466 -0.0179  0.2428 -0.7959
17208TIP3    H173115   4.160   1.789  12.481  0.1730  0.2376  0.1621
17208TIP3    H273116   4.198   1.936  12.484  0.2641  0.2177 -0.0670
17209TIP3   OH273117   1.307   5.999  15.285  0.4115 -0.0076 -0.5092
17209TIP3    H173118   1.354   6.063  15.231 -0.5375  0.6962 -0.5428
17209TIP3    H273119   1.369   5.928  15.298  2.1341  1.6543  0.9601
17210TIP3   OH273120   0.061   6.355   5.283 -0.4426 -0.3192  0.1429
17210TIP3    H173121   0.124   6.318   5.345 -1.0603  1.2555  1.8113
17210TIP3    H273122  -0.025   6.334   5.320 -0.8583 -0.1914 -0.7126
17211TIP3   OH273123   6.209   1.651   4.390  0.1339 -0.3519 -0.7303
17211TIP3    H173124   6.132   1.701   4.419  1.1758  0.6254  0.4685
17211TIP3    H273125   6.201   1.567   4.434  0.6916  0.4243  0.9408
17212TIP3   OH273126   2.856   5.080   3.456 -0.1256  0.1642 -0.1921
17212TIP3    H173127   2.771   5.075   3.501 -0.3107 -0.8405 -0.6274
17212TIP3    H273128   2.910   5.013   3.498  1.2254  2.2129  1.5696
17213TIP3   OH273129   6.435   2.981  15.035 -0.5508  0.4049 -0.4603
17213TIP3    H173130   6.478   2.896  15.045  0.1983  0.5988 -1.8334
17213TIP3    H273131   6.368   2.982  15.103 -1.3819 -1.7713 -1.1737
17214TIP3   OH273132   3.572   0.469   1.122 -0.2736  0.7098 -0.2933
17214TIP3    H173133   3.516   0.410   1.173 -0.3788  0.5274 -0.6128
17214TIP3    H273134   3.560   0.555   1.162 -1.9281  0.9790 -1.2528
17215TIP3   OH273135   4.129   4.702   0.581  0.2466  0.2959 -0.0419
17215TIP3    H173136   4.110   4.659   0.665  0.7809  2.7319  1.4002
17215TIP3    H273137   4.063   4.771   0.574  0.9723  0.9131 -1.0171
17216TIP3   OH273138   1.860   1.808  16.922  0.0454  0.7819 -0.5187
17216TIP3    H173139   1.799   1.814  16.847  0.9388 -2.6417 -1.7010
17216TIP3    H273140   1.808   1.766  16.991 -0.0667  1.6769 -0.0456
17217TIP3   OH273141   3.996   4.683  11.680  0.2124 -0.2844 -0.2574
17217TIP3    H173142   3.917   4.677  11.627 -2.0445 -1.3320  2.9111
17217TIP3    H273143   4.022   4.775  11.673 -0.4108 -0.2043 -2.4192
17218TIP3   OH273144   0.532   4.221  14.741 -0.6477 -0.1114  0.3447
17218TIP3    H173145   0.529   4.171  14.659  2.8375 -1.7147  1.0246
17218TIP3    H273146   0.542   4.312  14.713  1.7142 -0.7409 -1.1182
17219TIP3   OH273147   6.514   3.841  13.036 -0.0682  0.0955  0.5473
17219TIP3    H173148   6.484   3.931  13.048  0.0007  0.0700  0.9270
17219TIP3    H273149   6.433   3.790  13.029 -0.1274  0.0209  1.6213
17220TIP3   OH273150   4.910   2.234  14.667 -0.8765 -0.7114 -0.1206
17220TIP3    H173151   4.939   2.306  14.723 -1.6758 -1.0728  0.7832
17220TIP3    H273152   4.949   2.156  14.706  0.7640 -0.7221 -1.6275
17221TIP3   OH273153   0.265   2.643   2.369 -0.4359 -0.5055 -0.2795
17221TIP3    H173154   0.185   2.689   2.343  1.0926  1.4121 -1.8347
17221TIP3    H273155   0.290   2.683   2.452 -1.0005 -1.0484  0.1661
17222TIP3   OH273156   3.106   0.477   0.011 -0.1800 -0.2499  0.2710
17222TIP3    H173157   3.112   0.466  -0.084  0.4806 -0.4962  0.3363
17222TIP3    H273158   3.144   0.564   0.027  1.5693 -1.0196  0.4912
17223TIP3   OH273159   1.259   6.357   5.827 -0.6710 -0.0389  0.5660
17223TIP3    H173160   1.324   6.361   5.756 -1.3349  3.2803 -0.0416
17223TIP3    H273161   1.297   6.410   5.897 -3.4822  4.3635 -0.7790
17224TIP3   OH273162   5.488   3.403   2.916  0.5852 -0.1387 -0.1999
17224TIP3    H173163   5.558   3.381   2.978  0.3370 -0.0486  0.1124
17224TIP3    H273164   5.497   3.497   2.901  1.6514 -0.4136 -1.5426
17225TIP3   OH273165   4.934   1.753  11.331  0.0902 -0.3667  0.0657
17225TIP3    H173166   5.001   1.795  11.278 -0.6006 -0.5086 -0.9653
17225TIP3    H273167   4.851   1.788  11.298 -0.3677 -0.4452  1.0791
17226TIP3   OH273168   6.777   3.511   5.739  0.5154 -0.6859 -0.4332
17226TIP3    H173169   6.714   3.558   5.793  0.3621 -1.7493  0.3299
17226TIP3    H273170   6.856   3.565   5.742 -0.0285  0.1379 -0.5761
17227TIP3   OH273171   5.153   4.234  14.982 -0.7862  0.4181  0.6777
17227TIP3    H173172   5.187   4.294  14.915 -1.5590  0.8846  0.6873
17227TIP3    H273173   5.224   4.171  14.996  0.5135  1.9855  1.5045
17228TIP3   OH273174   6.069   2.139   2.786 -0.0592 -0.2447 -0.9114
17228TIP3    H173175   6.104   2.050   2.782  0.0653 -0.1695 -1.5043
17228TIP3    H273176   6.146   2.194   2.802 -0.1050 -0.2175 -0.7805
17229TIP3   OH273177   1.027   2.663   1.261  0.0338 -0.3528 -0.5097
17229TIP3    H173178   1.019   2.707   1.345 -0.1454  0.8047 -1.1117
17229TIP3    H273179   0.964   2.591   1.264  0.4875 -0.7226  0.5735
17230TIP3   OH273180   2.410   5.434   1.184  0.2025 -0.3324  0.4441
17230TIP3    H173181   2.343   5.452   1.250 -0.0219  1.5507 -0.2422
17230TIP3    H273182   2.480   5.390   1.233  0.2560  1.4607  2.0855
17231TIP3   OH273183   6.341   3.632   3.639  0.4328  0.2462  0.5922
17231TIP3    H173184   6.343   3.580   3.558 -2.7843 -1.5629  1.5124
17231TIP3    H273185   6.277   3.701   3.621 -0.8015 -0.5545  1.7068
17232TIP3   OH273186   3.862   2.111   4.071 -0.3033  0.4248 -0.1947
17232TIP3    H173187   3.876   2.073   4.158  0.6146 -1.8705 -1.2427
17232TIP3    H273188   3.790   2.172   4.083  0.3063  0.7967  2.3258
17233TIP3   OH273189   1.021   5.394  16.249 -0.2421  0.3014  0.0474
17233TIP3    H173190   1.036   5.360  16.337 -1.8321  0.5026  0.4155
17233TIP3    H273191   0.993   5.318  16.198  1.5350 -0.0075 -0.5606
17234TIP3   OH273192   5.559   1.376   4.674 -0.0041 -0.5831 -0.1114
17234TIP3    H173193   5.525   1.287   4.688  0.0024 -0.3434  1.7124
17234TIP3    H273194   5.491   1.433   4.709 -0.1903  0.1861 -1.6498
17235TIP3   OH273195   5.680   6.190   0.308  0.2325  0.0074 -0.0099
17235TIP3    H173196   5.640   6.214   0.392 -1.5902 -0.2765 -0.7450
17235TIP3    H273197   5.774   6.196   0.324 -0.0406 -0.5170  2.1969
17236TIP3   OH273198   0.891   0.602   4.955  0.5267 -0.6337 -0.1723
17236TIP3    H173199   0.934   0.541   4.896  1.3135 -0.3067  0.0567
17236TIP3    H273200   0.962   0.650   4.997 -0.0489 -0.2355  0.3737
17237TIP3   OH273201   1.101   4.252   1.334  0.4081 -0.2037 -0.1873
17237TIP3    H173202   1.013   4.239   1.299  0.2690  1.4495 -0.5387
17237TIP3    H273203   1.134   4.163   1.350 -2.1568 -0.8810  2.1185
17238TIP3   OH273204   3.282   5.584  14.733  0.2071 -0.0354  0.1356
17238TIP3    H173205   3.357   5.585  14.675  0.8736 -0.5572  0.9540
17238TIP3    H273206   3.232   5.662  14.711  1.3175  0.6474 -0.0078
17239TIP3   OH273207   1.943   3.004   2.911  0.2186 -0.3338  0.1575
17239TIP3    H173208   1.982   2.917   2.921  1.2153  0.2357  1.4496
17239TIP3    H273209   1.993   3.044   2.839 -0.0596 -0.7219 -0.2570
17240TIP3   OH273210   2.727   3.267   1.505 -0.3833 -0.0261 -0.3083
17240TIP3    H173211   2.737   3.274   1.410 -0.6139  1.7434 -0.2429
17240TIP3    H273212   2.809   3.303   1.540 -1.3964  2.0130  0.1385
17241TIP3   OH273213   5.222   3.762   0.501 -0.5426 -0.1987  0.3544
17241TIP3    H173214   5.170   3.698   0.453  1.1828 -1.7309  0.4144
17241TIP3    H273215   5.265   3.813   0.432 -0.8979  0.0325  0.3008
17242TIP3   OH273216   2.137   4.865  12.196  0.2947 -0.0610 -0.4530
17242TIP3    H173217   2.101   4.939  12.147  0.9623 -0.3199 -1.3637
17242TIP3    H273218   2.163   4.903  12.280  2.0362  1.0998 -1.4524
17243TIP3   OH273219   6.268   1.182  14.216  0.3392 -0.0890  0.0027
17243TIP3    H173220   6.310   1.135  14.288  0.0531  0.3698  0.4764
17243TIP3    H273221   6.174   1.169  14.230  0.1122  2.4928  1.4861
17244TIP3   OH273222   0.679   0.535   5.215  0.4238  0.0185  0.0098
17244TIP3    H173223   0.673   0.580   5.299 -2.3775  1.2717 -0.7518
17244TIP3    H273224   0.771   0.544   5.189  0.8945  1.3802  1.9599
17245TIP3   OH273225   0.581   6.321  12.345 -0.2187  0.1419 -0.1424
17245TIP3    H173226   0.535   6.262  12.285  2.3693 -0.3016 -1.8883
17245TIP3    H273227   0.575   6.279  12.431 -1.1930 -0.9625 -0.7328
17246TIP3   OH273228   2.605   5.185  15.513  0.5412 -0.3827 -0.4399
17246TIP3    H173229   2.645   5.272  15.504 -0.1271 -0.0433 -0.1994
17246TIP3    H273230   2.546   5.178  15.438 -0.0888 -0.2497  0.0353
17247TIP3   OH273231   1.849   3.170  11.838 -0.3398 -0.6563 -0.3634
17247TIP3    H173232   1.918   3.103  11.848 -0.6498 -0.7824  1.1669
17247TIP3    H273233   1.788   3.132  11.775  0.7575 -0.7298 -1.4163
17248TIP3   OH273234   4.419   0.396   0.333  0.2071  0.3822 -0.3847
17248TIP3    H173235   4.450   0.306   0.321  0.4782  0.2179  1.3390
17248TIP3    H273236   4.371   0.395   0.416 -0.7184  1.6030 -0.8618
17249TIP3   OH273237   1.313   1.693   4.251  0.3990  0.4227  0.7332
17249TIP3    H173238   1.338   1.610   4.210 -0.0690  1.3550 -1.5827
17249TIP3    H273239   1.393   1.724   4.294  1.6194  0.4355 -1.3969
17250TIP3   OH273240   0.197   4.516   2.916 -0.1394  0.0402  0.6108
17250TIP3    H173241   0.221   4.435   2.961 -3.1935 -1.3882 -0.0944
17250TIP3    H273242   0.238   4.508   2.830  1.2637  0.2671  1.2261
17251TIP3   OH273243   1.452   2.433   0.948  0.7445 -0.2564 -0.2172
17251TIP3    H173244   1.432   2.343   0.921  0.2067 -0.6266  1.3025
17251TIP3    H273245   1.399   2.487   0.890 -0.2094 -1.0008 -0.0673
17252TIP3   OH273246   5.389   3.708  14.010 -0.2367  0.3131  0.0358
17252TIP3    H173247   5.359   3.619  14.026 -0.2267  0.3188  0.0875
17252TIP3    H273248   5.309   3.762  14.013 -0.5768  0.0227 -2.2537
17253TIP3   OH273249   5.740   5.086   3.097  0.1943 -0.9721 -0.6133
17253TIP3    H173250   5.659   5.125   3.064 -0.4960 -2.5512 -0.8829
17253TIP3    H273251   5.810   5.142   3.062 -0.7255 -0.1557 -1.1949
17254TIP3   OH273252   0.832   2.667   5.026 -0.1584  0.3899 -0.2649
17254TIP3    H173253   0.918   2.629   5.005 -0.4234  0.1394 -0.8988
17254TIP3    H273254   0.778   2.649   4.950 -0.7805  0.5551  0.1299
17255TIP3   OH273255   4.221   5.741  14.981 -0.2980 -0.5752  0.1247
17255TIP3    H173256   4.275   5.799  15.034 -0.3459 -0.8979  0.5285
17255TIP3    H273257   4.283   5.682  14.938 -0.2412 -0.1561 -0.3722
17256TIP3   OH273258   3.093   4.311   6.263 -0.8501 -0.0284  0.1326
17256TIP3    H173259   3.034   4.372   6.308 -0.9249 -0.0006 -0.0013
17256TIP3    H273260   3.138   4.365   6.198  0.2420  0.2152  1.0611
17257TIP3   OH273261   1.885   5.466  14.440 -0.4030 -0.8343  0.0688
17257TIP3    H173262   1.962   5.502  14.484 -0.2049 -1.9297  0.6560
17257TIP3    H273263   1.899   5.484  14.347  1.1833 -2.0956  0.0254
17258TIP3   OH273264   1.624   6.537   2.087  0.0591  0.3246 -0.3381
17258TIP3    H173265   1.661   6.453   2.062  3.3540  1.7724 -0.8619
17258TIP3    H273266   1.560   6.516   2.156  1.1283 -2.5224 -0.0914
17259TIP3   OH273267   5.196   1.296   5.296  0.4432 -0.4428  0.0647
17259TIP3    H173268   5.124   1.256   5.247  0.4791 -0.1784 -0.2096
17259TIP3    H273269   5.273   1.245   5.272  0.4737 -0.2686 -0.2195
17260TIP3   OH273270   3.834   6.233  16.870  0.0626  0.2016  0.0225
17260TIP3    H173271   3.775   6.303  16.843 -1.1755 -0.1172  1.7416
17260TIP3    H273272   3.917   6.277  16.889 -0.7365  1.2789  1.2282
17261TIP3   OH273273   3.811   5.517  13.339 -0.0456  0.1080  0.0890
17261TIP3    H173274   3.813   5.539  13.245 -1.1118 -0.6632 -0.1286
17261TIP3    H273275   3.891   5.557  13.374 -1.3103  3.4659 -0.4604
17262TIP3   OH273276   4.246   3.987   2.982 -0.0073 -0.5151  0.1146
17262TIP3    H173277   4.260   4.032   3.065  0.4539 -3.4161  1.7804
17262TIP3    H273278   4.152   3.967   2.982  0.0971 -1.0222  0.2498
17263TIP3   OH273279   4.344   4.325   5.271 -0.4974 -0.1167  0.5976
17263TIP3    H173280   4.348   4.324   5.176  2.7263 -0.0783  0.6196
17263TIP3    H273281   4.335   4.233   5.296 -2.1689 -0.0675  0.3303
17264TIP3   OH273282   2.291   5.516  14.311 -0.2493  0.7709  0.6365
17264TIP3    H173283   2.270   5.480  14.225 -0.0459 -0.6766  1.1629
17264TIP3    H273284   2.225   5.583  14.326 -0.5346  0.7545 -0.4641
17265TIP3   OH273285   2.840   0.073  17.107  0.4902 -0.2776  0.0514
17265TIP3    H173286   2.891   0.066  17.188  1.3268  0.5012 -0.3892
17265TIP3    H273287   2.759   0.116  17.133  1.2246  1.0085  0.2957
17266TIP3   OH273288   1.542   5.459  15.978  0.2514 -0.7501 -0.0781
17266TIP3    H173289   1.469   5.409  15.943 -0.9184  0.2338  0.8665
17266TIP3    H273290   1.512   5.488  16.065  1.8614 -0.5370  0.4434
17267TIP3   OH273291   6.579   3.670   2.751  0.0218 -0.0133 -0.5386
17267TIP3    H173292   6.555   3.762   2.763  0.0815  0.1973 -1.9387
17267TIP3    H273293   6.668   3.664   2.787  0.3597  0.6762 -1.2323
17268TIP3   OH273294   3.936   6.672  10.708 -0.5186 -0.9777 -0.2413
17268TIP3    H173295   3.907   6.583  10.725  1.0604 -1.2444  1.3998
17268TIP3    H273296   3.919   6.719  10.789 -1.6696  0.3517 -1.2007
17269TIP3   OH273297   2.285   3.068   0.784  0.4281  0.0212 -0.0711
17269TIP3    H173298   2.190   3.077   0.777  0.4748  0.0446 -0.6550
17269TIP3    H273299   2.320   3.123   0.714  0.8456 -0.8013 -0.5208
17270TIP3   OH273300   3.852   5.175   3.255  0.1687  0.4160  0.4101
17270TIP3    H173301   3.847   5.115   3.181 -2.2378  0.6690  0.2879
17270TIP3    H273302   3.846   5.118   3.332  0.3057  0.3162  0.3463
17271TIP3   OH273303   4.612   3.932  11.461  0.2279 -0.0083 -0.6957
17271TIP3    H173304   4.653   3.975  11.386 -0.9887  0.2300 -1.2419
17271TIP3    H273305   4.533   3.892  11.426 -1.8691  2.4173  0.8999
17272TIP3   OH273306   2.730   5.529   0.945 -0.0537 -0.4390  0.1192
17272TIP3    H173307   2.650   5.519   0.893  0.6397 -3.3482 -0.5775
17272TIP3    H273308   2.783   5.590   0.895 -1.0053 -0.0802 -0.4893
17273TIP3   OH273309   4.277   5.232  11.631  0.2136  0.5240  0.1625
17273TIP3    H173310   4.272   5.137  11.641 -0.3688  0.5382  0.0153
17273TIP3    H273311   4.273   5.247  11.536  0.3568  0.6959  0.1825
17274TIP3   OH273312   2.236   3.955  15.871  0.5246  0.2752  0.0274
17274TIP3    H173313   2.220   3.921  15.959  1.3801  1.5035  0.6848
17274TIP3    H273314   2.170   4.023  15.859  0.9834  0.7341  0.0841
17275TIP3   OH273315   5.703   0.158   6.607 -0.7959  0.0350 -0.0361
17275TIP3    H173316   5.676   0.241   6.567  0.1469  0.8887  1.0176
17275TIP3    H273317   5.658   0.091   6.555 -2.7659  1.2360 -0.0249
17276TIP3   OH273318   2.679   0.964  11.148 -0.5093  0.5107  0.3180
17276TIP3    H173319   2.668   1.023  11.073 -1.2700 -1.2965 -1.0744
17276TIP3    H273320   2.755   0.999  11.195  0.2356  1.4928 -1.5160
17277TIP3   OH273321   0.530   0.111  15.747  0.1315  0.4405  0.8168
17277TIP3    H173322   0.584   0.074  15.818  0.1329  0.7928  1.0003
17277TIP3    H273323   0.447   0.064  15.753  0.9333 -1.2366 -0.4618
17278TIP3   OH273324   6.200   1.934  17.103 -0.5573  0.2918 -0.4407
17278TIP3    H173325   6.158   1.865  17.052 -0.0171 -1.0153  0.8133
17278TIP3    H273326   6.155   2.015  17.076 -1.5407 -0.6012 -1.5846
17279TIP3   OH273327   2.274   4.392  10.781 -0.4318  0.2722  0.3492
17279TIP3    H173328   2.242   4.313  10.738  1.5587 -0.4096  0.0068
17279TIP3    H273329   2.366   4.398  10.756  1.0345 -0.3450  4.6778
17280TIP3   OH273330   4.348   0.630   5.602  0.0557  0.3971  0.1721
17280TIP3    H173331   4.367   0.672   5.686 -1.5404 -0.3625  0.9490
17280TIP3    H273332   4.268   0.671   5.571  0.0950 -0.0151 -0.5134
17281TIP3   OH273333   2.540   1.875   5.195 -0.0400  0.2922 -0.2186
17281TIP3    H173334   2.564   1.782   5.197  1.1526  0.5739 -0.7906
17281TIP3    H273335   2.475   1.881   5.125  1.4357  0.2113 -1.6462
17282TIP3   OH273336   2.152   6.376  11.276 -0.1286 -0.4730 -0.7779
17282TIP3    H173337   2.078   6.320  11.298 -0.3129 -0.1148 -0.4644
17282TIP3    H273338   2.227   6.336  11.321 -0.1649 -0.7420 -0.9570
17283TIP3   OH273339   3.928   3.535  11.981 -0.4323  0.9954 -0.5010
17283TIP3    H173340   3.928   3.505  11.890 -1.3236  1.9131 -0.8174
17283TIP3    H273341   3.836   3.554  12.000 -0.2496  0.8689  0.5803
17284TIP3   OH273342   1.401   1.657  17.295 -0.0040 -0.9900 -0.1358
17284TIP3    H173343   1.478   1.712  17.279 -0.9809  1.2105  2.1651
17284TIP3    H273344   1.349   1.666  17.215 -0.0786  1.4383  0.1215
17285TIP3   OH273345   4.080   3.565   5.385  0.0074  0.6344 -0.6392
17285TIP3    H173346   4.077   3.624   5.310  1.4173 -0.3170 -1.5059
17285TIP3    H273347   4.081   3.477   5.347  0.6238  0.1282  0.4771
17286TIP3   OH273348   1.258   1.091   5.783 -0.0662 -0.2655 -0.6476
17286TIP3    H173349   1.323   1.151   5.820  1.9813 -2.5219 -0.3595
17286TIP3    H273350   1.287   1.004   5.809 -3.4994 -1.4250 -0.1005
17287TIP3   OH273351   2.871   5.462   1.169  0.1611  0.7043  0.0672
17287TIP3    H173352   2.802   5.498   1.113 -0.0252  0.2749  0.0140
17287TIP3    H273353   2.825   5.432   1.247  0.2850  0.4130  0.0309
17288TIP3   OH273354   4.220   6.636   2.467  0.3991 -0.0028 -0.2935
17288TIP3    H173355   4.184   6.578   2.535  1.3499  1.4708  1.5735
17288TIP3    H273356   4.315   6.624   2.473  0.4866 -0.1932 -1.7368
17289TIP3   OH273357   2.293   6.590   0.804 -0.0880 -0.2577  0.1995
17289TIP3    H173358   2.301   6.654   0.733 -0.5552  0.6218  0.9101
17289TIP3    H273359   2.375   6.541   0.803  0.1817  0.2047 -0.5110
17290TIP3   OH273360   1.587   6.147  16.902  0.2961  0.4672  0.7161
17290TIP3    H173361   1.584   6.133  16.997 -0.1717 -0.5376  0.5731
17290TIP3    H273362   1.500   6.121  16.871  0.5585  0.4439 -0.0300
17291TIP3   OH273363   2.020   4.700  12.601  0.1854  0.4696 -0.1536
17291TIP3    H173364   2.016   4.758  12.524 -2.6168 -0.6000 -0.9411
17291TIP3    H273365   2.028   4.612  12.564  1.5133  0.1142  0.9234
17292TIP3   OH273366   0.555   4.428  13.785  0.0554  0.7575  0.1598
17292TIP3    H173367   0.469   4.391  13.764 -0.0008  2.3419 -2.8765
17292TIP3    H273368   0.612   4.351  13.792 -1.2295 -0.2297  0.3578
17293TIP3   OH273369   2.233   5.778  14.007  0.5099  0.1941 -0.1186
17293TIP3    H173370   2.234   5.866  13.968  0.2722  0.8889  1.3574
17293TIP3    H273371   2.157   5.735  13.969 -1.5988  1.9510  1.8128
17294TIP3   OH273372   4.246   1.409  12.718 -0.4449 -0.5000  0.1381
17294TIP3    H173373   4.269   1.400  12.626  0.2756 -1.0743  0.3673
17294TIP3    H273374   4.191   1.333  12.737  0.6958 -1.2546  0.5573
17295TIP3   OH273375   1.116   1.166  14.057 -0.1370  1.2169  0.8265
17295TIP3    H173376   1.139   1.079  14.091  0.7336  1.6752  1.4337
17295TIP3    H273377   1.106   1.152  13.963 -0.5706  0.3438  0.9866
17296TIP3   OH273378   2.662   4.647  14.344  0.5673 -0.4775 -0.6315
17296TIP3    H173379   2.580   4.685  14.377  0.2980 -1.5043 -0.0759
17296TIP3    H273380   2.669   4.562  14.388  2.6293  0.1624  0.4010
17297TIP3   OH273381   3.798   1.043  15.298  0.1686  0.2621  0.2497
17297TIP3    H173382   3.871   1.104  15.298 -0.4500  1.0619 -1.1557
17297TIP3    H273383   3.791   1.014  15.206 -1.6358  0.6919  0.2144
17298TIP3   OH273384   0.729   1.973  15.918  0.3113  0.0302  0.0473
17298TIP3    H173385   0.717   1.919  15.840 -0.0574  0.2496 -0.0504
17298TIP3    H273386   0.641   2.003  15.940  0.4337  0.0944  0.4602
17299TIP3   OH273387   1.759   5.437  16.757 -0.1776  0.4865  0.3867
17299TIP3    H173388   1.670   5.404  16.750 -1.3934  3.0494  2.4220
17299TIP3    H273389   1.785   5.457  16.667 -1.5468 -0.4121 -0.2439
17300TIP3   OH273390   3.924   0.134   3.537 -0.2979 -0.1648 -0.3927
17300TIP3    H173391   3.981   0.084   3.478  0.2929 -0.1420  0.1440
17300TIP3    H273392   3.917   0.078   3.615 -2.7194 -1.1434 -1.2245
17301TIP3   OH273393   4.504   3.797  15.006 -0.4049 -0.5106  0.3441
17301TIP3    H173394   4.583   3.747  15.030 -0.8583 -0.3908  2.2920
17301TIP3    H273395   4.447   3.789  15.083 -1.0368  1.8987  0.2039
17302TIP3   OH273396   3.880   1.036   2.888 -0.1682  0.0402  0.3566
17302TIP3    H173397   3.838   0.950   2.881 -0.2466  0.1243 -0.3721
17302TIP3    H273398   3.827   1.084   2.951 -1.4314  0.2783 -0.8447
17303TIP3   OH273399   2.462   1.523  15.343  0.4175 -0.1842 -0.1253
17303TIP3    H173400   2.535   1.532  15.404  0.0740  0.4978  0.1954
17303TIP3    H273401   2.461   1.430  15.320  0.9446 -0.3275  0.4134
17304TIP3   OH273402   2.748   3.155  16.985 -0.0009 -0.0353 -0.2766
17304TIP3    H173403   2.724   3.185  17.073  1.8840 -0.3403  0.3951
17304TIP3    H273404   2.675   3.100  16.957 -0.4705 -0.2412  1.2741
17305TIP3   OH273405   5.821   0.018  15.225  0.0867  0.0651  0.5981
17305TIP3    H173406   5.759   0.027  15.153 -0.1517 -0.1685  0.7736
17305TIP3    H273407   5.864  -0.066  15.209  2.6147  1.5647 -1.2786
17306TIP3   OH273408   2.592   3.757   5.372 -0.3453 -0.1391 -0.6736
17306TIP3    H173409   2.627   3.785   5.287  1.1221 -0.0032 -0.0665
17306TIP3    H273410   2.608   3.831   5.430 -0.5303 -0.5530 -0.0818
17307TIP3   OH273411   3.926   2.077  15.054 -0.2751 -0.0095 -0.3104
17307TIP3    H173412   3.873   2.096  14.977  0.6206 -0.2783 -1.0163
17307TIP3    H273413   3.896   1.991  15.084 -0.2465 -0.1508 -0.6883
17308TIP3   OH273414   2.371   3.064   4.683  0.0952  0.1477  0.0639
17308TIP3    H173415   2.333   3.137   4.731 -0.8166  0.5452 -1.2126
17308TIP3    H273416   2.307   2.993   4.691  0.6810 -0.3153  0.7637
17309TIP3   OH273417   6.192   3.573  16.337  0.6764 -0.3214  0.1336
17309TIP3    H173418   6.284   3.599  16.340  0.2249  1.2923  1.1793
17309TIP3    H273419   6.152   3.620  16.410 -0.9076 -1.3207 -0.0502
17310TIP3   OH273420   1.295   2.767   3.491  0.3655 -0.2898 -0.0456
17310TIP3    H173421   1.199   2.766   3.491  0.3326 -1.5624 -1.1974
17310TIP3    H273422   1.318   2.816   3.412  0.6614 -0.1776  0.1091
17311TIP3   OH273423   4.144   3.600  17.122  0.0247  0.2482 -0.2718
17311TIP3    H173424   4.079   3.534  17.143 -0.5482  0.5939 -0.9130
17311TIP3    H273425   4.201   3.559  17.057  1.3033 -0.5359  1.2875
17312TIP3   OH273426   0.592   1.136   0.418 -0.3124  0.2683 -0.1860
17312TIP3    H173427   0.577   1.197   0.490 -1.1020  0.6579 -0.6641
17312TIP3    H273428   0.646   1.067   0.456 -0.1318  0.8210  0.5913
17313TIP3   OH273429   2.318   4.026   5.346 -0.0101 -0.3249 -0.9792
17313TIP3    H173430   2.252   4.018   5.277 -0.4243  0.5255 -0.7003
17313TIP3    H273431   2.369   4.103   5.321 -0.7384  0.5408  0.1217
17314TIP3   OH273432   1.219   5.898  13.986 -0.3869 -0.2206  0.2278
17314TIP3    H173433   1.255   5.940  14.064  0.4260  1.0799 -0.7977
17314TIP3    H273434   1.126   5.921  13.986  0.3748  3.6752 -1.4486
17315TIP3   OH273435   3.633   4.760  13.345 -0.3244  0.0539  0.5382
17315TIP3    H173436   3.684   4.680  13.355 -1.5181 -0.6864  0.9668
17315TIP3    H273437   3.545   4.730  13.320 -0.4804  1.2984 -0.5485
17316TIP3   OH273438   2.863   0.966  17.353 -0.0427 -0.5797 -0.8033
17316TIP3    H173439   2.800   1.018  17.403 -0.3186  0.2565 -1.9793
17316TIP3    H273440   2.947   1.009  17.369  0.3194 -1.8723  1.0031
17317TIP3   OH273441   3.358   3.447  16.709  0.3809  0.1050  0.1703
17317TIP3    H173442   3.305   3.526  16.716 -0.3390 -0.2790 -0.6027
17317TIP3    H273443   3.313   3.395  16.642  0.2610 -1.3889  1.3614
17318TIP3   OH273444   0.966   1.564  10.612  0.6220  0.2452 -0.1258
17318TIP3    H173445   1.004   1.504  10.547  1.2456 -2.6438  2.6427
17318TIP3    H273446   1.034   1.571  10.679 -0.7433  1.4909  1.1731
17319TIP3   OH273447   4.450   4.400   6.365 -0.3796 -0.2140  0.5606
17319TIP3    H173448   4.453   4.484   6.412  0.3772  0.3436 -0.4669
17319TIP3    H273449   4.377   4.410   6.304 -0.4549 -0.4148  0.6166
17320TIP3   OH273450   4.272   3.695  15.578 -0.5406 -0.1649  0.2021
17320TIP3    H173451   4.217   3.752  15.525 -0.7534 -0.8235 -0.3076
17320TIP3    H273452   4.231   3.694  15.664 -1.1286 -0.3765 -0.0779
17321TIP3   OH273453   1.582   1.373  16.455 -0.2588  0.3013  0.7126
17321TIP3    H173454   1.580   1.443  16.390  0.6500  0.1077  0.4537
17321TIP3    H273455   1.537   1.300  16.413  0.7967  0.0023  0.0666
17322TIP3   OH273456   5.834   3.068  14.765 -0.4926  0.1852 -0.2157
17322TIP3    H173457   5.857   2.988  14.813  1.2387  0.5670 -0.3485
17322TIP3    H273458   5.818   3.038  14.675 -0.3411 -0.0715 -0.1578
17323TIP3   OH273459   1.088   4.105   4.664 -0.4882  0.1443  0.5044
17323TIP3    H173460   1.036   4.080   4.588 -0.6243 -0.7289  0.8732
17323TIP3    H273461   1.055   4.191   4.689 -0.9676  0.0975  0.0495
17324TIP3   OH273462   3.834   4.153   2.964 -0.1467 -0.5209  0.2120
17324TIP3    H173463   3.885   4.153   3.045  2.1191 -1.8102 -1.0962
17324TIP3    H273464   3.849   4.239   2.926  0.4323 -0.6004  0.2462
17325TIP3   OH273465   3.036   3.667   0.603 -0.1437  0.6845  0.5842
17325TIP3    H173466   3.014   3.651   0.695 -0.8494 -0.2812  0.2669
17325TIP3    H273467   3.116   3.616   0.588 -0.7861 -0.2759  0.3257
17326TIP3   OH273468   6.633   6.088  12.145  0.7971  0.1308  0.3066
17326TIP3    H173469   6.619   6.040  12.226  2.1214 -0.7614  0.0313
17326TIP3    H273470   6.569   6.051  12.083  0.3097  0.2794  0.7173
17327TIP3   OH273471   0.456   6.041   5.541  0.1019 -0.0381  0.4206
17327TIP3    H173472   0.545   6.067   5.564  0.2854 -0.8592  0.6626
17327TIP3    H273473   0.444   5.955   5.581  0.3497 -1.4339 -2.2152
17328TIP3   OH273474   5.558   2.390   5.532  0.1036  0.0456  0.4747
17328TIP3    H173475   5.571   2.470   5.481  0.0478  0.3126  0.8747
17328TIP3    H273476   5.463   2.378   5.535  0.0694  0.4347  1.1278
17329TIP3   OH273477   5.325   1.900   4.499  0.1001 -0.1675 -0.3231
17329TIP3    H173478   5.389   1.831   4.516 -0.4583 -0.2386  1.7106
17329TIP3    H273479   5.263   1.860   4.438  1.2135 -0.5484 -1.2409
17330TIP3   OH273480   4.058   2.161   0.801  0.1224 -0.0451 -0.0078
17330TIP3    H173481   4.151   2.161   0.779 -0.4086  0.8479 -2.6338
17330TIP3    H273482   4.035   2.254   0.806 -0.8845 -0.2450 -0.6965
17331TIP3   OH273483   4.122   5.455  15.819 -0.1950  0.1387 -0.0856
17331TIP3    H173484   4.196   5.395  15.828 -1.1067 -0.7928  1.6589
17331TIP3    H273485   4.120   5.504  15.902 -1.5894  0.0715 -0.0636
17332TIP3   OH273486   6.243   0.201  14.890 -0.2682 -0.0616 -0.4670
17332TIP3    H173487   6.235   0.246  14.805  0.1335 -1.4583 -1.2687
17332TIP3    H273488   6.262   0.271  14.952  0.2252  0.9004 -1.6634
17333TIP3   OH273489   1.621   5.001  13.578  0.1252 -0.3481  0.2851
17333TIP3    H173490   1.687   5.067  13.599 -0.9284  0.2454  2.0043
17333TIP3    H273491   1.550   5.018  13.641 -1.1382 -1.7124 -0.7047
17334TIP3   OH273492   1.274   0.406   3.184 -0.2422  0.2756  0.0541
17334TIP3    H173493   1.346   0.345   3.200 -0.9864 -0.7349 -0.3829
17334TIP3    H273494   1.278   0.468   3.258  1.5674  0.7432 -0.3836
17335TIP3   OH273495   2.677   1.747   6.733 -0.4895 -0.1350  0.7181
17335TIP3    H173496   2.608   1.683   6.750 -1.2672  0.9487  1.8096
17335TIP3    H273497   2.643   1.830   6.769  0.4331  0.9291 -0.7507
17336TIP3   OH273498   3.880   1.944  13.123 -0.2518  0.0633 -0.1849
17336TIP3    H173499   3.802   1.964  13.073 -0.5148 -1.9318 -0.6756
17336TIP3    H273500   3.948   1.929  13.057 -0.0633 -0.4815  0.1184
17337TIP3   OH273501   5.736   6.509   0.396 -0.7996  0.9095  0.4244
17337TIP3    H173502   5.661   6.553   0.437 -0.8460  1.5377 -0.3337
17337TIP3    H273503   5.707   6.491   0.307 -1.1126 -1.4382  0.9253
17338TIP3   OH273504   0.976   6.471  12.911  0.2478  0.7001  0.0848
17338TIP3    H173505   0.937   6.536  12.851 -1.2466 -0.6493 -0.4894
17338TIP3    H273506   0.999   6.398  12.854  0.4880  0.1229  0.9225
17339TIP3   OH273507   6.151   1.845  12.273 -0.3326 -0.4020  0.3348
17339TIP3    H173508   6.161   1.759  12.313  0.3043 -0.8297 -0.7017
17339TIP3    H273509   6.056   1.854  12.258 -0.3776 -1.0028  0.2605
17340TIP3   OH273510   3.563   0.131   2.773 -0.1713 -0.0407  0.6591
17340TIP3    H173511   3.627   0.059   2.773 -1.5728 -1.4593 -1.9312
17340TIP3    H273512   3.479   0.088   2.755 -1.2422  2.1562  0.0814
17341TIP3   OH273513   1.174   1.896   4.104 -0.2781 -0.1169  0.2772
17341TIP3    H173514   1.194   1.814   4.148 -1.6768 -1.7438 -1.9064
17341TIP3    H273515   1.135   1.870   4.020 -0.4134  2.7786 -0.6926
17342TIP3   OH273516   0.634   4.190  15.289 -0.6770  0.3161  0.0705
17342TIP3    H173517   0.555   4.159  15.244  0.3603 -0.2778 -1.4371
17342TIP3    H273518   0.665   4.263  15.235 -1.6001  2.3700  2.1187
17343TIP3   OH273519   5.131   1.558   5.226 -0.6397  0.7780 -0.0415
17343TIP3    H173520   5.036   1.569   5.239 -0.3666  0.8242  2.4042
17343TIP3    H273521   5.150   1.473   5.265  0.4294  1.1195  0.2159
17344TIP3   OH273522   3.938   1.523   1.006 -0.0846 -0.4482 -0.3709
17344TIP3    H173523   4.003   1.457   0.983 -0.2726 -0.5637 -0.5793
17344TIP3    H273524   3.950   1.593   0.942 -0.6717 -0.8128 -0.8918
17345TIP3   OH273525   4.274   2.750   6.010  0.2384 -0.0622 -0.3704
17345TIP3    H173526   4.292   2.774   5.919 -0.9290  0.0853 -0.5721
17345TIP3    H273527   4.311   2.822   6.061  0.7847 -0.0818 -0.7194
17346TIP3   OH273528   3.056   4.162   1.888  0.2868  0.0348 -0.6128
17346TIP3    H173529   3.101   4.079   1.900  0.0828 -0.4870 -2.9694
17346TIP3    H273530   3.012   4.154   1.803 -3.6593  0.8127  1.1339
17347TIP3   OH273531   5.670   3.940  14.892  0.3337  0.2206 -0.6156
17347TIP3    H173532   5.734   3.884  14.849  1.1012 -1.5253  2.4806
17347TIP3    H273533   5.586   3.896  14.876  0.2731  0.7953 -2.0435
17348TIP3   OH273534   2.929   6.794   6.344 -0.0490 -0.0591  0.2471
17348TIP3    H173535   3.024   6.802   6.333 -0.2822  1.8124 -0.7247
17348TIP3    H273536   2.898   6.762   6.259 -0.2383 -1.5045  0.8288
17349TIP3   OH273537   2.704   0.023  13.643 -0.1779  0.2680 -0.6009
17349TIP3    H173538   2.686   0.070  13.724 -0.7914 -0.1457 -0.4917
17349TIP3    H273539   2.646   0.063  13.578  0.7754  1.0387 -1.0046
17350TIP3   OH273540   2.778   2.528  15.784 -0.4715 -0.2235  0.2723
17350TIP3    H173541   2.781   2.440  15.745 -1.1450 -0.6681  1.1833
17350TIP3    H273542   2.778   2.512  15.878 -3.3083  0.5912  0.5066
17351TIP3   OH273543   5.465   0.708   4.065 -0.5865 -0.2863  0.4645
17351TIP3    H173544   5.524   0.724   3.992 -1.2420  0.4515  0.0862
17351TIP3    H273545   5.433   0.619   4.050 -0.8017 -0.1009 -0.2127
17352TIP3   OH273546   0.247   3.738   5.417 -0.4285 -0.5419 -0.2226
17352TIP3    H173547   0.204   3.763   5.499  0.1713  0.7889 -0.3057
17352TIP3    H273548   0.179   3.749   5.350 -0.8198 -1.3148  0.0254
17353TIP3   OH273549   2.686   0.663   5.894 -0.4499 -0.2516 -0.0738
17353TIP3    H173550   2.739   0.584   5.886 -1.9827 -1.3254 -0.0723
17353TIP3    H273551   2.628   0.645   5.968 -1.2400  0.6270 -0.4580
17354TIP3   OH273552   2.578   2.986   0.036  0.5966  0.4909 -0.6283
17354TIP3    H173553   2.507   3.031   0.084  0.1647 -1.2256  0.4289
17354TIP3    H273554   2.539   2.963  -0.048  0.2327  0.4633 -0.4538
17355TIP3   OH273555   3.007   1.455  14.262  0.0541  0.2641  0.2213
17355TIP3    H173556   2.935   1.497  14.310 -0.5613 -1.3729  0.7887
17355TIP3    H273557   3.022   1.373  14.308  1.2033 -0.1754 -0.8794
17356TIP3   OH273558   4.560   2.000   2.570  0.6077 -0.9619  0.3760
17356TIP3    H173559   4.630   1.953   2.615  2.5707 -1.7360 -3.0602
17356TIP3    H273560   4.490   2.007   2.634  2.4457 -3.4244  2.9057
17357TIP3   OH273561   3.154   5.543   6.420 -0.4725 -0.4745 -0.0645
17357TIP3    H173562   3.109   5.625   6.399  0.9745 -0.1794 -2.3371
17357TIP3    H273563   3.247   5.564   6.412 -0.0034 -1.9221  1.0874
17358TIP3   OH273564   6.671   6.389   2.050 -0.4913  0.1212 -0.2552
17358TIP3    H173565   6.727   6.438   1.989 -1.4482 -0.9430 -2.0814
17358TIP3    H273566   6.593   6.444   2.059 -1.0613 -0.4731 -1.3661
17359TIP3   OH273567   0.817   1.496   2.488  0.4345 -0.7270  0.6443
17359TIP3    H173568   0.798   1.575   2.439 -0.1795 -0.3140  1.5216
17359TIP3    H273569   0.908   1.475   2.466  0.6538  0.3033  0.5145
17360TIP3   OH273570   5.416   2.939   2.380  0.0637  0.0281  0.3144
17360TIP3    H173571   5.342   2.918   2.323  0.4395  0.9753 -0.5769
17360TIP3    H273572   5.376   2.958   2.465 -0.8430  1.3193 -0.3468
17361TIP3   OH273573   6.793   4.381  14.692 -0.3289  0.2356  0.1088
17361TIP3    H173574   6.867   4.323  14.679 -0.0445  0.7309 -0.4946
17361TIP3    H273575   6.818   4.463  14.650 -1.4931  0.1865 -0.7418
17362TIP3   OH273576   5.065   0.159   5.910  0.1482 -0.2389  0.0561
17362TIP3    H173577   5.143   0.122   5.950 -0.0845  0.5352  1.2499
17362TIP3    H273578   5.074   0.254   5.920  1.7124  0.3675 -4.7426
17363TIP3   OH273579   1.292   3.993   6.428 -0.5654  0.2076 -0.2932
17363TIP3    H173580   1.208   3.956   6.456 -0.0655  0.0637  1.0959
17363TIP3    H273581   1.323   4.041   6.504  1.2182 -0.8166 -0.3252
17364TIP3   OH273582   4.897   2.798   6.429 -0.2491 -0.0722  0.0081
17364TIP3    H173583   4.828   2.823   6.367 -1.9235 -2.7205  0.5898
17364TIP3    H273584   4.964   2.756   6.375 -0.1512  0.4964 -0.3189
17365TIP3   OH273585   5.675   2.205   2.422  0.8727  0.1170 -0.2279
17365TIP3    H173586   5.626   2.134   2.462 -0.6598  0.4115 -1.4749
17365TIP3    H273587   5.754   2.214   2.476  0.3425 -1.4617  0.8666
17366TIP3   OH273588   2.491   1.892  16.566  0.0746 -0.0280  0.4745
17366TIP3    H173589   2.461   1.835  16.637  0.3202  1.0972  1.5164
17366TIP3    H273590   2.412   1.939  16.538  0.0604 -0.1628  0.2844
17367TIP3   OH273591   5.249   0.865  14.369  0.1447 -0.3597 -0.3053
17367TIP3    H173592   5.161   0.879  14.333  0.1406 -1.8021 -0.9394
17367TIP3    H273593   5.285   0.793  14.317  1.2638 -0.5574  0.6933
17368TIP3   OH273594   0.732   4.918  16.976  0.1423  0.1935  0.4114
17368TIP3    H173595   0.718   4.914  16.881  1.0185 -0.5971  0.2948
17368TIP3    H273596   0.683   4.995  17.004 -2.9243 -1.4097 -0.1619
17369TIP3   OH273597   3.296   3.425   3.008  0.1119 -0.6026  0.2667
17369TIP3    H173598   3.334   3.513   3.002 -1.9397  0.7469  3.9365
17369TIP3    H273599   3.228   3.424   2.941  0.4472  0.4307 -0.1107
17370TIP3   OH273600   4.965   3.883   3.739 -0.0395 -0.0837  0.4612
17370TIP3    H173601   4.915   3.897   3.659  0.0355  1.5731  0.6627
17370TIP3    H273602   4.901   3.890   3.810  0.1236 -0.0889  0.6111
17371TIP3   OH273603   2.167   0.546   3.343  0.6187  0.3619  0.7344
17371TIP3    H173604   2.157   0.641   3.339 -0.4198  0.2207 -1.6323
17371TIP3    H273605   2.232   0.526   3.276  1.5209 -0.5663  1.8402
17372TIP3   OH273606   6.356   5.751   2.414  0.0919 -0.7369 -0.0930
17372TIP3    H173607   6.389   5.841   2.403 -0.5069 -0.7162 -2.3030
17372TIP3    H273608   6.261   5.760   2.412  0.0223 -1.4615 -1.2318
17373TIP3   OH273609   2.405   0.460  17.304 -0.0446  0.2998  0.1797
17373TIP3    H173610   2.376   0.508  17.382 -0.8430 -0.8543  0.6269
17373TIP3    H273611   2.340   0.482  17.237  0.1822  0.6595  0.0779
17374TIP3   OH273612   0.720   2.618  16.390 -0.4077  0.5144 -0.7449
17374TIP3    H173613   0.646   2.677  16.375  0.1056  1.9433  1.8729
17374TIP3    H273614   0.797   2.668  16.364 -0.0018  0.9263  1.1186
17375TIP3   OH273615   4.266   1.620  13.328 -0.2438 -0.0037 -0.1620
17375TIP3    H173616   4.268   1.710  13.362 -1.1910  0.0679 -0.2624
17375TIP3    H273617   4.180   1.587  13.355 -0.2284 -0.6035 -0.8331
17376TIP3   OH273618   5.731   5.567   2.629  0.1494 -0.2543 -0.2023
17376TIP3    H173619   5.809   5.555   2.576  1.7440  0.3843  1.8757
17376TIP3    H273620   5.761   5.555   2.719 -2.2567 -0.4376  0.6398
17377TIP3   OH273621   3.632   0.271  15.846 -0.4941 -0.3640  0.4375
17377TIP3    H173622   3.609   0.195  15.899  0.2059  0.5578  2.1646
17377TIP3    H273623   3.694   0.320  15.900 -1.0524  1.5283 -0.5350
17378TIP3   OH273624   3.186   4.750  12.415 -0.4089  0.2075 -0.0151
17378TIP3    H173625   3.162   4.666  12.454  0.9065  0.8901  2.4820
17378TIP3    H273626   3.232   4.797  12.485  0.7125  2.2063 -1.9557
17379TIP3   OH273627   4.837   0.255  14.688  0.2119  0.0219 -0.8894
17379TIP3    H173628   4.877   0.253  14.775 -0.9758  0.1109 -0.3134
17379TIP3    H273629   4.810   0.164  14.672  1.7294 -0.2925 -1.8192
17380TIP3   OH273630   6.116   4.392   6.146  0.3736  0.8174 -0.0530
17380TIP3    H173631   6.140   4.409   6.055 -1.9214  0.7214 -0.7232
17380TIP3    H273632   6.197   4.359   6.186  1.1703 -0.1449 -2.2986
17381TIP3   OH273633   6.597   1.183   2.883 -0.4348  0.1419 -0.2902
17381TIP3    H173634   6.579   1.241   2.809  2.1273  0.7149 -0.5371
17381TIP3    H273635   6.627   1.102   2.842  1.0416  0.4772  0.0910
17382TIP3   OH273636   1.723   4.395  16.535  0.0187 -0.2101 -0.5821
17382TIP3    H173637   1.655   4.419  16.598  0.7735 -0.8737  0.5191
17382TIP3    H273638   1.713   4.300  16.524  0.5153 -0.2522 -0.6998
17383TIP3   OH273639   3.463   0.548   2.490 -0.0900 -0.0510 -0.3383
17383TIP3    H173640   3.509   0.498   2.557  1.9537  1.3262 -0.6409
17383TIP3    H273641   3.405   0.606   2.539  0.4702  0.0730  0.1907
17384TIP3   OH273642   6.722   0.952   1.865 -0.3895 -0.3882  0.2036
17384TIP3    H173643   6.766   0.950   1.780 -2.0893 -0.3530 -0.7115
17384TIP3    H273644   6.736   1.041   1.897  2.1201 -0.9971  1.0362
17385TIP3   OH273645   2.476   1.509  16.589 -0.2050  0.2813 -0.0239
17385TIP3    H173646   2.542   1.522  16.522  0.1628  0.4028  0.3616
17385TIP3    H273647   2.525   1.485  16.668 -0.5578  1.0612  0.4512
17386TIP3   OH273648   3.186   2.432  13.250  0.1886  0.0115  0.4074
17386TIP3    H173649   3.154   2.514  13.287 -0.1959  1.5912 -2.9980
17386TIP3    H273650   3.281   2.443  13.245  0.0485  0.8236 -1.0818
17387TIP3   OH273651   6.111   5.315  10.595  0.0583 -0.0034  0.1246
17387TIP3    H173652   6.195   5.273  10.577 -0.0203 -0.4223  0.6986
17387TIP3    H273653   6.135   5.405  10.618  0.2168  0.3136 -1.2127
17388TIP3   OH273654   6.430   2.728  14.576 -0.0628 -0.4778  0.0470
17388TIP3    H173655   6.500   2.676  14.615 -1.1296 -1.1489  1.1364
17388TIP3    H273656   6.418   2.801  14.637  0.9465  0.7060 -1.1121
17389TIP3   OH273657   5.460   5.038   2.897 -0.3782  0.2464  0.2915
17389TIP3    H173658   5.450   5.092   2.819  0.8630  1.1795  0.7348
17389TIP3    H273659   5.538   4.985   2.879  0.0106  0.5831  0.9428
17390TIP3   OH273660   0.776   4.500  16.643  0.1706 -0.0083  0.4751
17390TIP3    H173661   0.736   4.558  16.578 -1.8651 -1.8849 -0.0541
17390TIP3    H273662   0.809   4.425  16.592 -2.2175 -1.9168  1.5685
17391TIP3   OH273663   5.463   0.597  15.832 -0.3357 -0.0510 -0.8359
17391TIP3    H173664   5.373   0.602  15.865  0.6047  0.0469  1.9323
17391TIP3    H273665   5.482   0.503  15.828 -0.5784 -0.0805 -1.6215
17392TIP3   OH273666   6.523   4.930   3.542 -0.8107  0.0716  0.6723
17392TIP3    H173667   6.506   4.994   3.472  1.3470 -1.2852 -1.2382
17392TIP3    H273668   6.443   4.878   3.547 -1.4513  0.9699  0.1023
17393TIP3   OH273669   3.558   0.412  17.145  0.0370 -0.1811 -0.4486
17393TIP3    H173670   3.646   0.414  17.109  0.7576  1.1004  1.2718
17393TIP3    H273671   3.549   0.323  17.180  0.6008 -0.3473 -0.7085
17394TIP3   OH273672   1.485   1.177  13.915 -0.2570 -0.1949  0.5013
17394TIP3    H173673   1.571   1.219  13.908 -0.7045  0.6636 -0.0843
17394TIP3    H273674   1.503   1.083  13.909  0.5679  0.0133 -0.5672
17395TIP3   OH273675   0.886   6.704   6.376 -0.6978  0.6168 -0.8002
17395TIP3    H173676   0.952   6.645   6.339 -0.1192  0.4441  0.4293
17395TIP3    H273677   0.879   6.775   6.313  0.1394  0.2725 -1.3065
17396TIP3   OH273678   5.217   3.811  16.907 -0.7911 -0.0148 -0.7361
17396TIP3    H173679   5.237   3.817  17.001 -1.3299  0.2680 -0.6367
17396TIP3    H273680   5.284   3.865  16.865 -0.9581  0.4132 -0.4583
17397TIP3   OH273681   1.117   4.632  12.662  0.0205 -0.0205 -0.5688
17397TIP3    H173682   1.041   4.610  12.716 -0.0934  0.3560 -0.5708
17397TIP3    H273683   1.081   4.644  12.575  0.1565 -0.3060 -0.6658
17398TIP3   OH273684   6.688   5.664  14.227 -1.1445  0.3456 -0.0970
17398TIP3    H173685   6.739   5.720  14.169 -1.7392  0.2875 -0.6859
17398TIP3    H273686   6.611   5.639  14.176 -1.0572 -0.7487  0.2661
17399TIP3   OH273687   1.444   6.169  15.103 -0.0122 -0.3709  0.5737
17399TIP3    H173688   1.391   6.159  15.024  1.7795 -2.1625 -0.5032
17399TIP3    H273689   1.534   6.172  15.072  0.6588  2.6870  2.3233
17400TIP3   OH273690   3.895   0.389   3.516 -0.0216  0.0523 -0.6065
17400TIP3    H173691   3.905   0.299   3.547  0.2730 -0.2505 -1.5351
17400TIP3    H273692   3.870   0.380   3.425 -4.8958  0.8438  0.4090
17401TIP3   OH273693   0.715   1.068  14.669 -0.1141  0.2811  0.2794
17401TIP3    H173694   0.793   1.016  14.651 -0.5430  0.0032 -0.8530
17401TIP3    H273695   0.739   1.157  14.643  0.2993  0.4771  1.3060
17402TIP3   OH273696   1.136   4.312   0.813 -0.0633  0.5210  0.3280
17402TIP3    H173697   1.076   4.248   0.851  1.6625 -1.2844  0.1769
17402TIP3    H273698   1.207   4.319   0.877  1.0088  0.3493 -0.8139
17403TIP3   OH273699   5.115   6.398   2.289  0.5193  0.3277 -0.1278
17403TIP3    H173700   5.107   6.460   2.361  0.3594 -0.7373  0.7988
17403TIP3    H273701   5.180   6.334   2.318  1.0989  0.3468 -1.2937
17404TIP3   OH273702   6.175   5.526  15.052 -0.3270 -0.5366  0.1440
17404TIP3    H173703   6.105   5.559  15.108 -0.0835  2.1790 -1.0157
17404TIP3    H273704   6.252   5.578  15.075  0.2526 -0.6426 -1.3929
17405TIP3   OH273705   1.928   6.731  12.262  0.0800  0.5346  0.4707
17405TIP3    H173706   1.976   6.687  12.332 -0.6279  1.0699  1.3150
17405TIP3    H273707   1.972   6.703  12.182  1.2785  0.3571  1.1569
17406TIP3   OH273708   3.002   1.477   0.241  0.2389 -0.0287  0.5704
17406TIP3    H173709   3.011   1.570   0.221  1.2232 -0.2211  0.0343
17406TIP3    H273710   2.954   1.474   0.323  0.1264  0.9518  0.5458
17407TIP3   OH273711   4.224   4.717  14.802  0.1677 -0.4232  0.0668
17407TIP3    H173712   4.178   4.731  14.719  0.1307 -2.0116 -0.2055
17407TIP3    H273713   4.163   4.665  14.854  0.2394  0.4620  1.0753
17408TIP3   OH273714   0.810   5.631   0.258  0.5083  0.1360 -0.1210
17408TIP3    H173715   0.748   5.585   0.314  0.5397 -1.5218 -1.3860
17408TIP3    H273716   0.758   5.702   0.219 -0.3412 -0.6297 -0.4137
17409TIP3   OH273717   2.122   0.708  12.629  0.0383 -0.4118  0.2312
17409TIP3    H173718   2.154   0.631  12.583 -0.7674 -0.9316  0.5164
17409TIP3    H273719   2.196   0.769  12.628  0.3528 -0.7823 -0.8844
17410TIP3   OH273720   0.628   1.456   6.269 -1.0770 -0.2368  0.1009
17410TIP3    H173721   0.704   1.496   6.225 -1.7079  0.5360 -0.3090
17410TIP3    H273722   0.633   1.363   6.244 -1.2165  0.1127 -1.3590
17411TIP3   OH273723   4.455   4.741   5.676  0.5019 -0.0681  0.2558
17411TIP3    H173724   4.395   4.810   5.703  0.8398  0.5816 -0.6143
17411TIP3    H273725   4.493   4.772   5.594  0.5058 -1.3777 -0.2655
17412TIP3   OH273726   0.503   2.736   5.774 -0.0876 -0.5284 -0.0366
17412TIP3    H173727   0.529   2.698   5.858 -0.9407  0.2152  0.5743
17412TIP3    H273728   0.511   2.830   5.786  2.8421 -0.4086 -1.8106
17413TIP3   OH273729   6.642   3.956  13.616  0.1801  0.1196  0.0271
17413TIP3    H173730   6.583   3.972  13.543  0.1831  0.7932  0.1649
17413TIP3    H273731   6.586   3.957  13.694  0.2421 -0.1384  0.0757
17414TIP3   OH273732   0.497   0.709  11.245  0.2657  0.1008 -0.4302
17414TIP3    H173733   0.572   0.763  11.219  0.1851  0.2461 -0.3610
17414TIP3    H273734   0.427   0.735  11.185  0.2327  0.0592 -0.4094
17415TIP3   OH273735   2.832   3.623  15.193  0.1021  0.4380 -0.2970
17415TIP3    H173736   2.871   3.697  15.147 -0.5152  1.4136  0.7072
17415TIP3    H273737   2.812   3.657  15.280 -0.4873 -0.8248  0.0782
17416TIP3   OH273738   4.912   4.380   5.317  0.0854  0.0572  0.1684
17416TIP3    H173739   4.865   4.362   5.236 -0.4996  0.4843  0.4018
17416TIP3    H273740   4.998   4.411   5.289  0.2806 -0.8536 -0.2644
17417TIP3   OH273741   3.549   3.873  16.710  0.3398  0.0310  0.3108
17417TIP3    H173742   3.504   3.871  16.795 -2.0392 -1.2071 -0.8834
17417TIP3    H273743   3.586   3.786  16.700 -1.6770 -0.7443 -0.9903
17418TIP3   OH273744   1.183   5.886  13.300  0.2396 -0.4166  0.0669
17418TIP3    H173745   1.104   5.934  13.275  0.0705 -0.1962  0.9824
17418TIP3    H273746   1.252   5.953  13.302  0.1783 -0.3614  0.5130
17419TIP3   OH273747   5.005   2.346   0.497 -0.5872 -1.0226 -0.3665
17419TIP3    H173748   5.086   2.387   0.464 -1.1715 -0.6598 -1.3931
17419TIP3    H273749   4.964   2.308   0.419 -0.5665 -2.7169  0.4027
17420TIP3   OH273750   4.403   6.550  11.625 -0.0965 -0.1374  0.0632
17420TIP3    H173751   4.398   6.528  11.718  2.6371 -1.6097 -0.0184
17420TIP3    H273752   4.331   6.502  11.585  0.2041 -1.5457  1.1401
17421TIP3   OH273753   5.676   5.137  13.608 -0.8486 -0.3838 -0.1843
17421TIP3    H173754   5.748   5.095  13.561  1.0353 -0.1113  2.2626
17421TIP3    H273755   5.670   5.224  13.570  2.9574  1.0978  2.0742
17422TIP3   OH273756   0.450   0.288   4.736 -0.2123  0.1229  0.0931
17422TIP3    H173757   0.408   0.363   4.777 -2.6492 -0.4476 -1.1650
17422TIP3    H273758   0.511   0.326   4.672 -0.3436  1.0071  0.4939
17423TIP3   OH273759   0.373   1.837  12.247  0.0552  0.3176 -0.3604
17423TIP3    H173760   0.362   1.743  12.261 -0.3029 -0.0465 -2.6433
17423TIP3    H273761   0.443   1.844  12.182 -2.1872  1.3250 -2.9013
17424TIP3   OH273762   6.535   6.237   5.077 -0.1132 -0.2790  0.8371
17424TIP3    H173763   6.600   6.261   5.011 -0.0685  1.0205  1.3371
17424TIP3    H273764   6.584   6.181   5.138 -0.2758 -1.8959 -0.4377
17425TIP3   OH273765   1.552   2.468   3.100 -0.4951  0.1867 -0.1534
17425TIP3    H173766   1.467   2.452   3.059 -1.5755  0.1191  1.9585
17425TIP3    H273767   1.569   2.561   3.084 -1.1308  0.2783 -0.3296
17426TIP3   OH273768   0.326   2.721  14.957 -0.0213  0.1017 -0.1744
17426TIP3    H173769   0.338   2.804  14.912  1.0496 -1.5339 -3.1464
17426TIP3    H273770   0.414   2.696  14.985  0.0871 -1.1631 -1.5538
17427TIP3   OH273771   0.285   3.412  11.755 -0.0516  0.4471 -0.6220
17427TIP3    H173772   0.267   3.473  11.684 -2.9246 -0.5738 -0.8925
17427TIP3    H273773   0.211   3.421  11.814  1.0231 -0.5708  0.9629
17428TIP3   OH273774   6.487   6.762  13.783  0.1639 -0.1459  0.3232
17428TIP3    H173775   6.545   6.838  13.793 -0.6510  0.8830 -1.9786
17428TIP3    H273776   6.533   6.706  13.720  0.2343 -1.0481  1.1578
17429TIP3   OH273777   3.838   0.273  13.235  0.1003 -0.0933  0.9762
17429TIP3    H173778   3.808   0.244  13.149  1.4741 -0.3509  0.5522
17429TIP3    H273779   3.906   0.338  13.216 -1.4955  1.9423  1.8983
17430TIP3   OH273780   3.329   2.515   2.795  0.2000  0.0939 -0.1868
17430TIP3    H173781   3.243   2.554   2.777  0.1936 -0.2201 -0.8617
17430TIP3    H273782   3.328   2.497   2.889 -0.6396 -0.2921 -0.2585
17431TIP3   OH273783   1.038   3.668   6.556  0.0266  0.2496 -1.0451
17431TIP3    H173784   1.123   3.635   6.584 -0.2202  0.5364  0.0891
17431TIP3    H273785   1.057   3.721   6.479  1.1377  1.7642  0.2085
17432TIP3   OH273786   0.712   2.225  13.617  0.0185 -0.6143  0.0977
17432TIP3    H173787   0.659   2.162  13.667 -0.6941  0.8180  1.2126
17432TIP3    H273788   0.666   2.234  13.533 -0.0655 -1.2948  0.0661
17433TIP3   OH273789   5.420   5.088  13.497  0.4699  0.0797  0.5811
17433TIP3    H173790   5.351   5.119  13.556  0.9989  1.4832  0.4818
17433TIP3    H273791   5.501   5.124  13.533  0.9753 -0.2566 -0.1948
17434TIP3   OH273792   2.929   1.637  16.771 -0.1506 -0.1537  0.0491
17434TIP3    H173793   2.984   1.559  16.768  1.0477  0.6683  0.0536
17434TIP3    H273794   2.990   1.710  16.765 -1.0105  0.8660  2.5715
17435TIP3   OH273795   6.487   4.853   4.395  0.1175  0.8961 -0.0283
17435TIP3    H173796   6.504   4.941   4.362 -2.6771  1.7744  0.6366
17435TIP3    H273797   6.517   4.795   4.325  3.7981  2.1656  0.2603
17436TIP3   OH273798   1.934   3.356   1.963  0.0814 -0.6513 -0.6131
17436TIP3    H173799   1.862   3.294   1.952  0.0757 -0.8167  0.2220
17436TIP3    H273800   1.981   3.323   2.040  0.7110 -0.2220 -0.8083
17437TIP3   OH273801   4.096   0.658   5.273 -0.4106 -0.0072 -0.5088
17437TIP3    H173802   4.014   0.610   5.284  1.7148 -4.2892 -1.3791
17437TIP3    H273803   4.111   0.700   5.358 -2.5322 -0.7222  0.2830
17438TIP3   OH273804   5.680   0.674  11.771  0.5944 -0.1044  0.0767
17438TIP3    H173805   5.614   0.743  11.768  1.1820  0.4958  0.5510
17438TIP3    H273806   5.699   0.653  11.680 -1.5176 -1.5508 -0.1019
17439TIP3   OH273807   2.326   4.433  15.891 -0.3848 -0.2868  0.6849
17439TIP3    H173808   2.251   4.491  15.892  0.9000  1.4369  1.0706
17439TIP3    H273809   2.398   4.485  15.926  0.9510 -1.9486  0.5672
17440TIP3   OH273810   2.548   4.750  12.480 -0.3886 -0.0967  0.5111
17440TIP3    H173811   2.470   4.708  12.515 -0.7084 -1.0670 -1.2657
17440TIP3    H273812   2.541   4.841  12.509 -3.0415  0.2585 -0.9527
17441TIP3   OH273813   4.242   5.133  15.421 -0.1700 -0.1236 -0.4588
17441TIP3    H173814   4.241   5.229  15.417 -0.5855 -0.0975  0.1636
17441TIP3    H273815   4.331   5.109  15.395  0.3885  0.5034  0.7985
17442TIP3   OH273816   3.637   0.036   5.239  0.6321  0.1917 -0.0716
17442TIP3    H173817   3.566  -0.010   5.194  1.2807 -0.3814 -0.5350
17442TIP3    H273818   3.615   0.029   5.332  0.4729 -0.6358 -0.1665
17443TIP3   OH273819   6.561   6.798  17.207  0.4207  0.7932 -0.2060
17443TIP3    H173820   6.605   6.718  17.180 -2.1245 -0.7027 -0.2246
17443TIP3    H273821   6.545   6.845  17.125  0.6818  0.6458 -0.3435
17444TIP3   OH273822   0.803   6.169  11.138 -0.5980  0.1212 -0.0828
17444TIP3    H173823   0.847   6.136  11.217 -1.6888 -1.7466 -0.2006
17444TIP3    H273824   0.866   6.153  11.068 -1.0866 -1.8757 -0.1404
17445TIP3   OH273825   2.068   1.842  15.344  0.0631  0.5428 -0.1812
17445TIP3    H173826   2.099   1.919  15.295 -0.2065  1.0441  0.4253
17445TIP3    H273827   2.022   1.789  15.279 -4.1041  3.2326  0.2371
17446TIP3   OH273828   0.617   6.729   5.836 -1.2063  0.3409  0.8155
17446TIP3    H173829   0.662   6.702   5.917  0.1798 -0.4032 -0.1613
17446TIP3    H273830   0.687   6.738   5.772 -2.4284 -0.8464 -0.7795
17447TIP3   OH273831   6.582   2.085  15.345 -0.6353 -0.2324 -0.2104
17447TIP3    H173832   6.552   2.004  15.386  0.0738 -0.8350 -0.8293
17447TIP3    H273833   6.581   2.065  15.251 -1.2846  0.7786 -0.4348
17448TIP3   OH273834   5.767   1.621   2.065 -0.1030  0.2038 -0.7350
17448TIP3    H173835   5.745   1.566   2.139  0.8329  1.2191  0.3374
17448TIP3    H273836   5.801   1.560   1.999 -0.1758 -0.6197 -0.0295
17449TIP3   OH273837   4.793   3.214   6.914  0.2133 -0.3012 -0.1803
17449TIP3    H173838   4.821   3.122   6.905 -0.7652 -0.6039 -0.2910
17449TIP3    H273839   4.730   3.226   6.842  1.0710  0.7582 -0.7762
17450TIP3   OH273840   1.679   1.266  11.602 -0.1218 -0.1595  0.2720
17450TIP3    H173841   1.645   1.218  11.527  0.2516 -0.3454  0.2195
17450TIP3    H273842   1.676   1.358  11.576 -2.1971  0.0082  0.8963
17451TIP3   OH273843   0.844   2.601  11.143 -0.3509 -0.3352  0.6594
17451TIP3    H173844   0.846   2.622  11.050  1.5202 -0.4445  0.6342
17451TIP3    H273845   0.755   2.571  11.159 -0.9849  0.6091 -0.8730
17452TIP3   OH273846   6.682   2.086  10.925  0.0486 -0.3720 -0.3290
17452TIP3    H173847   6.681   2.007  10.978 -1.4389 -0.1796 -0.0186
17452TIP3    H273848   6.674   2.054  10.835  2.0583 -0.6709 -0.4402
17453TIP3   OH273849   0.742   1.995   2.287 -0.0144  0.2199 -0.3250
17453TIP3    H173850   0.654   2.007   2.251 -0.0539 -1.0910 -0.6930
17453TIP3    H273851   0.779   2.084   2.287 -0.8444  0.5977 -1.4463
17454TIP3   OH273852   0.605   4.936   0.017  0.8071  0.3348  0.3341
17454TIP3    H173853   0.694   4.905  -0.002  1.5378  1.5305  1.6568
17454TIP3    H273854   0.586   4.904   0.105 -0.1229  0.0147  0.0309
17455TIP3   OH273855   5.713   0.742  15.328 -0.4414 -0.4011  0.0467
17455TIP3    H173856   5.670   0.662  15.298  1.8702 -2.1991  1.1062
17455TIP3    H273857   5.806   0.719  15.330  0.3468  2.4274  0.1997
17456TIP3   OH273858   2.365   4.530  14.451 -0.4563 -0.0247 -0.2070
17456TIP3    H173859   2.432   4.461  14.456  0.6874  1.0780  0.6455
17456TIP3    H273860   2.399   4.599  14.509 -1.5670  1.2359 -1.0112
17457TIP3   OH273861   5.921   6.447  12.122  0.1042  0.2268  0.2064
17457TIP3    H173862   5.928   6.430  12.028 -1.9823 -3.3970  0.5321
17457TIP3    H273863   5.852   6.513  12.129 -0.2215  0.0059 -0.7582
17458TIP3   OH273864   6.157   3.669   4.233  0.0522 -0.1497 -0.1831
17458TIP3    H173865   6.153   3.595   4.294  1.8096 -0.9442 -0.9670
17458TIP3    H273866   6.096   3.646   4.163 -1.2318  0.3103  0.7421
17459TIP3   OH273867   5.911   4.584  15.551  0.7656  0.8155 -0.1890
17459TIP3    H173868   5.930   4.625  15.466  1.6515  1.0161  0.1004
17459TIP3    H273869   5.890   4.658  15.609  2.3797  0.8930  0.3383
17460TIP3   OH273870   3.426   0.489   0.562  0.1926  0.1545  0.1185
17460TIP3    H173871   3.508   0.519   0.601  0.3020  0.2253 -0.1651
17460TIP3    H273872   3.415   0.544   0.484 -0.0877  0.0974  0.1159
17461TIP3   OH273873   0.331   0.932  13.347 -0.2058 -0.6633 -0.3539
17461TIP3    H173874   0.287   0.862  13.396  0.0952 -0.8061 -0.2857
17461TIP3    H273875   0.420   0.899  13.334  0.2358  0.1277  0.5576
17462TIP3   OH273876   2.335   5.237  15.504 -0.1505  0.5273  0.1555
17462TIP3    H173877   2.368   5.206  15.420 -0.0057 -1.7718  0.9899
17462TIP3    H273878   2.414   5.244  15.559 -0.6551 -3.4014  1.6698
17463TIP3   OH273879   3.274   3.522  15.186  0.0162 -0.2570  0.3397
17463TIP3    H173880   3.207   3.453  15.185 -1.0354  0.7487  0.4034
17463TIP3    H273881   3.261   3.567  15.269  2.3919 -1.5636  1.5336
17464TIP3   OH273882   6.081   2.837  16.115  0.5482  0.7150 -0.0404
17464TIP3    H173883   5.987   2.846  16.132  0.5333 -1.2996  1.1808
17464TIP3    H273884   6.100   2.905  16.050 -1.5442  1.8010  0.3973
17465TIP3   OH273885   2.636   6.498  16.457  0.1148  0.7897  0.4369
17465TIP3    H173886   2.580   6.445  16.514 -0.1732  1.5520  0.8696
17465TIP3    H273887   2.657   6.440  16.384 -0.1045  0.0403  0.9604
17466TIP3   OH273888   5.792   2.783   0.493  0.0621 -0.0467 -0.0142
17466TIP3    H173889   5.743   2.704   0.475 -0.1094  0.2503 -0.9034
17466TIP3    H273890   5.736   2.835   0.551 -0.0192 -0.3674  0.1925
17467TIP3   OH273891   0.065   3.876   2.328  0.1952  0.1034  0.3561
17467TIP3    H173892   0.006   3.947   2.302  0.9025  0.8053  0.6471
17467TIP3    H273893   0.037   3.853   2.417  1.7535  1.9909  1.4182
17468TIP3   OH273894   3.420   3.451  11.342 -0.8629  0.7968 -0.3442
17468TIP3    H173895   3.427   3.487  11.253  0.1618  0.5078 -0.4057
17468TIP3    H273896   3.478   3.506  11.395 -0.3166  0.0764 -0.1710
17469TIP3   OH273897   4.685   0.328  16.780  0.2762 -0.1735  0.2062
17469TIP3    H173898   4.609   0.317  16.722  0.0098  1.8805  0.0633
17469TIP3    H273899   4.754   0.358  16.722  0.7276 -0.4689  0.5891
17470TIP3   OH273900   5.628   5.573  15.563 -0.1043  0.0749 -0.1287
17470TIP3    H173901   5.717   5.574  15.598 -1.3525  0.4228  3.4922
17470TIP3    H273902   5.597   5.484  15.578 -0.5309  0.0888 -0.8884
17471TIP3   OH273903   5.073   4.660   2.099 -0.1005 -0.2846  0.0652
17471TIP3    H173904   5.168   4.670   2.103 -0.0260 -0.2458 -1.3688
17471TIP3    H273905   5.039   4.736   2.148  0.5894 -0.8104  1.4138
17472TIP3   OH273906   5.681   1.887  16.429 -0.3907  0.3101  0.2028
17472TIP3    H173907   5.639   1.828  16.491 -1.1147 -0.1156 -0.6791
17472TIP3    H273908   5.711   1.831  16.358  0.6241  0.7655  0.2523
17473TIP3   OH273909   2.450   6.165   2.131  0.1178  0.6555  0.0197
17473TIP3    H173910   2.464   6.237   2.193 -1.8994  0.1027  1.1802
17473TIP3    H273911   2.356   6.151   2.130 -0.1104  1.1856 -3.8589
17474TIP3   OH273912   1.310   0.706  12.361  0.3261 -0.4698  0.1146
17474TIP3    H173913   1.388   0.752  12.392  0.9351 -1.3028 -0.1526
17474TIP3    H273914   1.261   0.686  12.441  0.4569 -0.0733  0.2959
17475TIP3   OH273915   1.846   4.572   2.881 -0.0064 -0.4923  0.3861
17475TIP3    H173916   1.807   4.486   2.864 -0.6589 -0.0478 -0.3856
17475TIP3    H273917   1.928   4.571   2.832 -1.1418  0.1983 -1.6575
17476TIP3   OH273918   3.355   5.401  17.141  0.0725 -0.0533 -0.6695
17476TIP3    H173919   3.375   5.395  17.235  0.2754 -0.0308 -0.7104
17476TIP3    H273920   3.368   5.494  17.120  1.0461 -0.2369 -0.9439
17477TIP3   OH273921   6.478   0.065  13.100 -0.1386  0.3783 -0.3308
17477TIP3    H173922   6.400   0.018  13.130  0.0078 -0.0894 -0.6612
17477TIP3    H273923   6.535   0.069  13.176 -1.2572  2.4479  0.4938
17478TIP3   OH273924   2.441   6.288   1.106  0.3579 -0.0255 -0.0124
17478TIP3    H173925   2.409   6.200   1.087  2.1936 -0.9661  0.9696
17478TIP3    H273926   2.531   6.275   1.138  0.7001  2.2062  0.1229
17479TIP3   OH273927   3.073   4.843  15.754 -0.8849 -0.4854  0.0049
17479TIP3    H173928   3.157   4.822  15.714 -0.3535  2.4137 -0.6458
17479TIP3    H273929   3.090   4.840  15.848  0.0863  0.3784 -0.1162
17480TIP3   OH273930   3.468   2.228   6.323 -0.1764 -0.4032 -0.1387
17480TIP3    H173931   3.522   2.149   6.319 -0.1086 -0.3154 -1.4615
17480TIP3    H273932   3.514   2.286   6.383  0.5873 -0.7794 -0.3486
17481TIP3   OH273933   0.354   5.320  17.190  0.1536 -0.0447  0.2182
17481TIP3    H173934   0.311   5.353  17.111  0.5783  0.8116  0.3361
17481TIP3    H273935   0.409   5.248  17.158  2.4240  1.9850 -0.7663
17482TIP3   OH273936   3.335   4.378   1.950  0.1362 -0.5919 -0.2713
17482TIP3    H173937   3.294   4.420   1.875 -0.6247  1.1541  1.0511
17482TIP3    H273938   3.262   4.337   1.997  0.6257 -1.7980 -0.5180
17483TIP3   OH273939   2.002   3.514  10.860  0.1181 -0.2774 -0.0926
17483TIP3    H173940   1.944   3.587  10.837 -0.0449  0.0097  1.1801
17483TIP3    H273941   1.951   3.436  10.842 -0.5843 -0.0284  0.7632
17484TIP3   OH273942   4.933   5.842  15.007  0.0233 -0.0596 -0.1990
17484TIP3    H173943   4.937   5.764  14.953  0.6594  0.1607 -0.4733
17484TIP3    H273944   4.940   5.809  15.097  0.9233 -0.2731 -0.3402
17485TIP3   OH273945   2.943   5.218  15.709  0.1471 -0.1676 -0.4658
17485TIP3    H173946   3.024   5.184  15.670  0.6268 -0.4577  0.7581
17485TIP3    H273947   2.967   5.240  15.799 -1.5621 -2.0065  0.5242
17486TIP3   OH273948   4.927   2.076   6.711  0.1666  0.0229 -0.6994
17486TIP3    H173949   4.946   1.983   6.700 -0.5227 -0.2037 -0.0252
17486TIP3    H273950   4.978   2.103   6.787 -0.4204 -0.0563 -0.2668
17487TIP3   OH273951   6.062   5.833   2.778 -0.0572  0.1428  0.8785
17487TIP3    H173952   6.108   5.749   2.773  0.9916  0.7398 -0.4140
17487TIP3    H273953   5.971   5.812   2.758  0.4851 -0.5167 -1.2092
17488TIP3   OH273954   5.131   4.311  13.677 -0.1729  0.2977 -0.0477
17488TIP3    H173955   5.126   4.406  13.664 -0.4823  0.1969 -0.7147
17488TIP3    H273956   5.046   4.278  13.645 -0.9203 -0.0078  2.0901
17489TIP3   OH273957   3.472   2.578   6.600 -0.9839  0.8304  0.2100
17489TIP3    H173958   3.506   2.496   6.566 -1.6166  0.7938 -0.3550
17489TIP3    H273959   3.493   2.643   6.533 -0.2682  1.1870  0.7629
17490TIP3   OH273960   4.490   3.863   0.342 -0.7708 -0.1854 -0.1310
17490TIP3    H173961   4.515   3.772   0.322  0.8877  0.5426 -1.6965
17490TIP3    H273962   4.418   3.881   0.281  0.2951  0.1599 -1.3333
17491TIP3   OH273963   1.183   0.905   4.355 -0.1885 -0.6941  0.0853
17491TIP3    H173964   1.171   0.835   4.419 -0.2438  0.5224  1.4620
17491TIP3    H273965   1.168   0.863   4.271 -2.9431 -1.7557  0.9947
17492TIP3   OH273966   1.918   4.812  11.422  0.2283  0.9186  0.4237
17492TIP3    H173967   1.989   4.858  11.377 -1.0280 -0.0418 -2.8157
17492TIP3    H273968   1.944   4.720  11.423 -0.1003  0.8187  1.0627
17493TIP3   OH273969   3.577   4.737  12.367 -0.3180 -0.1260  0.1379
17493TIP3    H173970   3.561   4.689  12.286 -0.8347  1.1877 -0.5708
17493TIP3    H273971   3.630   4.812  12.341  0.6130 -0.3764  1.2451
17494TIP3   OH273972   1.172   0.537   3.588  0.2188 -0.2398  0.9172
17494TIP3    H173973   1.106   0.589   3.542 -0.0030 -2.3306 -1.3253
17494TIP3    H273974   1.121   0.469   3.633  0.7184 -1.1058  0.2049
17495TIP3   OH273975   5.134   6.151   1.146 -0.0794  0.4045  0.5666
17495TIP3    H173976   5.228   6.134   1.142 -0.1811 -0.4871  1.4940
17495TIP3    H273977   5.125   6.244   1.127  1.0048  0.5305  0.6301
17496TIP3   OH273978   6.055   3.366  16.981  0.3244 -0.0947 -0.3290
17496TIP3    H173979   6.020   3.369  16.892 -0.3826  0.6235 -0.0342
17496TIP3    H273980   6.097   3.280  16.987 -2.1408 -1.3957 -0.4070
17497TIP3   OH273981   1.107   5.394   3.802 -0.1495  0.1748  0.5447
17497TIP3    H173982   1.049   5.386   3.726 -1.1522  0.5440  1.2493
17497TIP3    H273983   1.163   5.316   3.797 -3.1769 -2.3263  1.8668
17498TIP3   OH273984   0.959   3.612   6.133  0.1558 -0.0093 -0.0863
17498TIP3    H173985   0.971   3.705   6.154 -0.6398  0.1231 -0.1840
17498TIP3    H273986   0.991   3.604   6.043  2.0938 -0.2566  0.5638
17499TIP3   OH273987   3.300   2.364   4.690  0.9514 -0.3248  0.3557
17499TIP3    H173988   3.355   2.344   4.766  2.2576  1.2398 -0.1237
17499TIP3    H273989   3.342   2.439   4.649 -1.2665  0.5964 -0.3718
17500TIP3   OH273990   6.056   6.660  13.968  0.0835 -0.1398 -0.4601
17500TIP3    H173991   5.975   6.609  13.976  0.5695 -0.8986 -0.2677
17500TIP3    H273992   6.083   6.678  14.058 -0.5971  1.3196 -0.5239
17501TIP3   OH273993   1.738   0.907   5.995 -0.5865  0.0619 -0.3576
17501TIP3    H173994   1.704   0.968   6.060  1.4070  1.6079 -0.6671
17501TIP3    H273995   1.694   0.825   6.013 -2.8263  1.3817  0.5687
17502TIP3   OH273996   1.861   4.113  10.278 -0.3593 -0.2690 -0.2380
17502TIP3    H173997   1.916   4.035  10.270  0.8124  0.4083  0.8507
17502TIP3    H273998   1.904   4.166  10.345 -1.6268  0.9095 -0.3099
17503TIP3   OH273999   6.426   5.927  15.264 -0.3294 -0.2070  0.4381
17503TIP3    H174000   6.521   5.923  15.261 -0.1736  1.4421  1.6661
17503TIP3    H274001   6.402   5.867  15.335 -0.0576  0.5712  1.2092
17504TIP3   OH274002   1.161   0.567   4.788 -0.1684  0.0491 -0.2501
17504TIP3    H174003   1.237   0.521   4.750  0.5398  0.8782  0.1361
17504TIP3    H274004   1.085   0.517   4.756  0.5391 -0.9470 -0.4475
17505TIP3   OH274005   4.307   0.324   4.712  0.4138 -0.0787  0.1156
17505TIP3    H174006   4.389   0.321   4.663  1.2417  0.3576  1.4421
17505TIP3    H274007   4.282   0.233   4.725  1.1843 -0.2370  0.5123
17506TIP3   OH274008   1.693   1.763   2.766  0.5731  0.0705 -0.2242
17506TIP3    H174009   1.691   1.858   2.779  1.8179  0.5178 -2.7531
17506TIP3    H274010   1.725   1.729   2.850  2.8102  2.1383 -0.0987
17507TIP3   OH274011   1.344   1.474   1.938  0.0436 -0.7785  0.8345
17507TIP3    H174012   1.258   1.487   1.898  0.0401  0.1062  1.1173
17507TIP3    H274013   1.325   1.467   2.032  0.2547 -0.8334  0.8728
17508TIP3   OH274014   5.473   1.546   5.092  0.6139 -0.0406 -0.3876
17508TIP3    H174015   5.555   1.498   5.078 -0.0553 -1.4107  0.2102
17508TIP3    H274016   5.456   1.539   5.186 -1.1033 -1.4007 -0.7339
17509TIP3   OH274017   4.338   1.729   5.839  0.1840  0.1507  0.0139
17509TIP3    H174018   4.379   1.805   5.796 -1.0183  0.4438 -0.6699
17509TIP3    H274019   4.244   1.750   5.839  0.1052  0.0905  2.6982
17510TIP3   OH274020   2.281   4.551   5.474  0.3475 -0.5474  0.0687
17510TIP3    H174021   2.365   4.507   5.459 -0.0314 -1.5896  0.9010
17510TIP3    H274022   2.225   4.483   5.512 -0.2140  0.6703  1.5373
17511TIP3   OH274023   6.117   3.357  13.494 -0.4771  0.2191  0.4676
17511TIP3    H174024   6.091   3.265  13.488 -3.6376  0.9936  0.6666
17511TIP3    H274025   6.037   3.403  13.519  1.3372  2.8738  1.9111
17512TIP3   OH274026   4.284   6.733  17.044  0.2007 -0.0232  0.4042
17512TIP3    H174027   4.285   6.717  17.138  0.0468 -2.4529  0.0539
17512TIP3    H274028   4.343   6.667  17.007  1.5826  1.9443 -1.1090
17513TIP3   OH274029   1.093   4.886  15.162  0.0377 -0.3282  0.2526
17513TIP3    H174030   1.141   4.809  15.191  0.0203 -0.2486  0.4918
17513TIP3    H274031   1.024   4.852  15.105 -1.0739 -0.6428  1.7497
17514TIP3   OH274032   4.203   2.064   4.536  0.0557  0.0553  0.1096
17514TIP3    H174033   4.216   2.152   4.500 -0.3183  0.2124  0.3427
17514TIP3    H274034   4.263   2.059   4.610 -0.8723  0.6281  0.9366
17515TIP3   OH274035   0.630   1.468  11.455  0.0422 -0.5663 -0.4282
17515TIP3    H174036   0.624   1.540  11.392 -0.5498 -1.9119 -2.0031
17515TIP3    H274037   0.567   1.490  11.523  1.0873  1.2007  0.0410
17516TIP3   OH274038   1.525   2.298  11.153  0.0173 -0.3249 -0.1414
17516TIP3    H174039   1.599   2.264  11.103  1.9603  0.3664  2.0963
17516TIP3    H274040   1.514   2.235  11.225  0.1807  0.9330  1.0240
17517TIP3   OH274041   2.942   3.079  15.322 -0.9367 -0.4051 -0.4037
17517TIP3    H174042   2.898   3.073  15.407  0.5456  0.0642  0.4370
17517TIP3    H274043   2.969   2.990  15.303  0.5194 -0.2177  0.6443
17518TIP3   OH274044   5.232   2.509  13.309 -0.3710  0.5625 -0.3792
17518TIP3    H174045   5.215   2.456  13.231  2.2277 -0.2291 -0.4835
17518TIP3    H274046   5.311   2.558  13.288 -1.4073  2.7984  0.6082
17519TIP3   OH274047   4.675   4.300  14.810  0.1120  0.2090 -0.3485
17519TIP3    H174048   4.708   4.266  14.893  1.1897  0.8251 -0.5133
17519TIP3    H274049   4.708   4.390  14.805  0.7384 -0.0686 -1.8117
17520TIP3   OH274050   2.322   6.717  12.107 -0.2196  0.7865  0.2440
17520TIP3    H174051   2.380   6.790  12.087 -0.4777  1.5858  2.1779
17520TIP3    H274052   2.245   6.731  12.051  0.9273  0.3101 -1.5467
17521TIP3   OH274053   3.982   0.854  12.642 -0.1217 -0.0539  0.1590
17521TIP3    H174054   4.044   0.820  12.578  1.3366  1.2105  0.8193
17521TIP3    H274055   4.022   0.836  12.727  1.1791  3.7344  0.5756
17522TIP3   OH274056   2.755   6.587  12.300  0.3060 -0.5545 -0.4150
17522TIP3    H174057   2.810   6.540  12.363  0.5179  0.5393  0.2506
17522TIP3    H274058   2.667   6.551  12.313  0.1038  0.4818  1.3870
17523TIP3   OH274059   1.829   6.722   4.895  0.6682  0.3661 -0.4392
17523TIP3    H174060   1.760   6.752   4.954  2.0473 -0.0085  1.4727
17523TIP3    H274061   1.910   6.747   4.939  1.7867 -1.3485 -1.4103
17524TIP3   OH274062   1.324   0.085  13.958  0.2777 -0.2708 -0.0951
17524TIP3    H174063   1.258   0.039  13.906 -0.5097  0.0079  0.6345
17524TIP3    H274064   1.357   0.154  13.900  1.3216 -1.5734 -1.1374
17525TIP3   OH274065   2.028   3.227  13.859 -0.2042 -0.0622 -0.2758
17525TIP3    H174066   2.105   3.218  13.916 -0.9711 -1.7311  0.5577
17525TIP3    H274067   2.055   3.290  13.793  0.9875  1.3755  1.4917
17526TIP3   OH274068   1.517   1.214  17.274  0.2736  0.5169  0.7247
17526TIP3    H174069   1.603   1.173  17.269  0.4572  0.8633  0.9958
17526TIP3    H274070   1.489   1.220  17.182 -1.4411 -3.6209  0.7804
17527TIP3   OH274071   4.273   5.443   5.513 -0.2995  0.3194  0.0706
17527TIP3    H174072   4.245   5.507   5.449 -2.7709 -0.2479  0.4840
17527TIP3    H274073   4.304   5.495   5.588  0.3200  0.9742 -0.6251
17528TIP3   OH274074   6.093   5.631  14.395 -0.0905 -0.2525  0.0615
17528TIP3    H174075   6.144   5.593  14.323  0.3490  1.0563 -0.3313
17528TIP3    H274076   6.139   5.711  14.418 -1.9285  0.9537 -0.2817
17529TIP3   OH274077   1.222   6.585   0.776  0.5707 -0.4398 -0.0019
17529TIP3    H174078   1.187   6.529   0.707  0.7632  0.6874 -1.0402
17529TIP3    H274079   1.316   6.587   0.760  0.4284  1.2165 -0.7975
17530TIP3   OH274080   1.540   3.280  12.599 -0.1130  0.1358  0.1441
17530TIP3    H174081   1.557   3.371  12.622  1.0933 -0.3835  1.4403
17530TIP3    H274082   1.513   3.283  12.507 -0.1522  1.7959  0.1872
17531TIP3   OH274083   3.982   6.404   1.543 -0.0943 -0.1812 -0.1592
17531TIP3    H174084   3.974   6.472   1.609 -0.5631  0.2505 -0.6435
17531TIP3    H274085   3.904   6.414   1.489 -0.9379 -2.0687  0.6376
17532TIP3   OH274086   6.211   1.948  13.137  0.2611  0.1217  0.4718
17532TIP3    H174087   6.253   2.019  13.088  1.0435  0.2084  1.2378
17532TIP3    H274088   6.216   1.976  13.228 -0.7761 -0.2377  0.6569
17533TIP3   OH274089   1.975   1.661  11.600  0.0103 -0.3056 -0.0353
17533TIP3    H174090   2.019   1.729  11.651 -0.4208 -0.4663  0.5661
17533TIP3    H274091   2.000   1.579  11.642 -1.1667 -0.3771  0.5824
17534TIP3   OH274092   5.502   1.724  13.095 -0.6704  0.5936  0.2156
17534TIP3    H174093   5.519   1.667  13.170  0.0424  1.4104  0.6972
17534TIP3    H274094   5.578   1.713  13.038 -2.5912 -2.4867 -2.0707
17535TIP3   OH274095   4.848   4.743   3.250  0.5979  0.1740 -0.2936
17535TIP3    H174096   4.828   4.778   3.337 -0.0043 -2.0586  0.5333
17535TIP3    H274097   4.943   4.729   3.251  0.5377 -0.2489  0.1876
17536TIP3   OH274098   0.685   3.426   4.369 -0.0655 -0.2082  0.3551
17536TIP3    H174099   0.725   3.490   4.427  0.4540  0.1566 -0.3918
17536TIP3    H274100   0.615   3.473   4.325  1.1498  0.2630 -1.1716
17537TIP3   OH274101   5.972   6.586   0.031  0.2642  0.4085 -0.4011
17537TIP3    H174102   6.047   6.636   0.061  0.7692  0.8560 -2.2780
17537TIP3    H274103   5.923   6.647  -0.024 -0.9211 -0.1877 -0.0385
17538TIP3   OH274104   2.033   5.749   4.153  0.1460  0.0638 -0.2220
17538TIP3    H174105   1.946   5.773   4.122 -0.4459 -2.4660 -0.7879
17538TIP3    H274106   2.035   5.774   4.245 -1.1382  0.2719 -0.2427
17539TIP3   OH274107   2.804   2.035   3.307  0.3262  0.4418  0.3624
17539TIP3    H174108   2.789   1.953   3.259  0.2747  0.3922  0.4611
17539TIP3    H274109   2.750   2.026   3.385  0.2919  0.5874  0.3548
17540TIP3   OH274110   6.498   2.763   5.068  0.3473  0.0047  0.5271
17540TIP3    H174111   6.437   2.691   5.058 -0.8249  1.0985 -0.5242
17540TIP3    H274112   6.572   2.739   5.011  0.0880 -0.4731  0.3845
17541TIP3   OH274113   6.083   5.304  15.881 -0.0685  0.5670  0.1585
17541TIP3    H174114   6.131   5.280  15.801 -0.9665 -0.1027 -0.1974
17541TIP3    H274115   6.041   5.388  15.860 -0.4010  0.3339 -0.1285
17542TIP3   OH274116   0.187   0.215   4.953 -0.5285  0.5357  0.1745
17542TIP3    H174117   0.118   0.155   4.980 -1.0540 -0.1638 -2.4331
17542TIP3    H274118   0.253   0.159   4.910  0.6272  1.4499  0.6919
17543TIP3   OH274119   6.146   2.526   6.907 -0.3367 -0.0022 -0.3633
17543TIP3    H174120   6.117   2.494   6.821 -0.6718  0.0049 -0.2569
17543TIP3    H274121   6.225   2.576   6.889 -0.1266 -0.4128 -0.6081
17544TIP3   OH274122   6.695   2.616  14.612  0.7555 -0.2038  0.2637
17544TIP3    H174123   6.746   2.637  14.690 -0.7767  1.4630  0.8971
17544TIP3    H274124   6.750   2.646  14.539  1.1693  0.5209  0.8546
17545TIP3   OH274125   5.973   3.473   2.301  0.0999  0.0027 -0.0450
17545TIP3    H174126   6.064   3.501   2.303  0.4265 -0.9365 -0.9005
17545TIP3    H274127   5.959   3.429   2.385  0.6692 -0.5152 -0.2132
17546TIP3   OH274128   2.545   0.208   5.252  0.5293 -0.5167 -0.9677
17546TIP3    H174129   2.488   0.155   5.198  0.8314 -2.4809  0.5369
17546TIP3    H274130   2.634   0.181   5.228  0.7626  0.4990 -1.3141
17547TIP3   OH274131   2.930   6.487   4.066  1.1618 -0.5519 -0.8414
17547TIP3    H174132   2.943   6.419   4.000  0.6087 -1.4724 -0.0305
17547TIP3    H274133   2.872   6.447   4.131 -0.1422  1.0980 -0.9205
17548TIP3   OH274134   1.183   6.712   2.769 -0.6956  0.4590 -0.2529
17548TIP3    H174135   1.214   6.718   2.679 -1.2440 -0.7177 -0.5364
17548TIP3    H274136   1.205   6.797   2.808  2.6576 -0.1363 -0.5042
17549TIP3   OH274137   1.425   2.856  16.828 -0.4017  0.1334  0.0451
17549TIP3    H174138   1.458   2.861  16.918 -0.9366  0.6047  0.2216
17549TIP3    H274139   1.424   2.763  16.808 -1.1988 -0.0495  0.8785
17550TIP3   OH274140   1.664   2.052  12.007 -0.0278  0.2839 -0.4049
17550TIP3    H174141   1.741   1.995  12.003 -1.0762 -1.3181  0.8407
17550TIP3    H274142   1.608   2.022  11.936 -1.4644 -1.7207  1.4395
17551TIP3   OH274143   6.624   0.158  16.177 -0.0986  0.0207  0.1112
17551TIP3    H174144   6.571   0.079  16.165  0.4395 -0.3104 -0.0908
17551TIP3    H274145   6.569   0.228  16.142 -0.7876 -0.1850  0.7441
17552TIP3   OH274146   3.878   3.590  15.105 -0.6061  0.0151  0.0163
17552TIP3    H174147   3.879   3.656  15.036 -1.2063  0.2586  0.2299
17552TIP3    H274148   3.966   3.593  15.143 -0.7345  0.9617  0.2691
17553TIP3   OH274149   5.078   5.573  14.820 -0.6167 -0.4782 -0.1716
17553TIP3    H174150   5.055   5.480  14.818  1.6256 -1.0722 -0.1223
17553TIP3    H274151   5.100   5.591  14.911  1.7127 -0.6550 -0.6563
17554TIP3   OH274152   6.265   4.816   0.133  0.4975 -0.3105  0.3989
17554TIP3    H174153   6.328   4.884   0.106  0.2494 -0.2124  0.0553
17554TIP3    H274154   6.184   4.841   0.090  0.5216 -1.0966 -0.1250
17555TIP3   OH274155   2.688   5.975   0.303  0.2770  0.5474  0.2480
17555TIP3    H174156   2.707   6.005   0.215 -0.7961 -0.6057 -0.4172
17555TIP3    H274157   2.699   5.880   0.298 -0.3936  0.4078  1.1922
17556TIP3   OH274158   2.615   3.300   4.898  0.3319 -0.3002 -0.2701
17556TIP3    H174159   2.530   3.322   4.861  0.3323  1.1925  0.5155
17556TIP3    H274160   2.604   3.312   4.993  0.5620 -3.1974  0.2221
17557TIP3   OH274161   1.952   6.077   4.647  0.0870 -0.3531  0.1423
17557TIP3    H174162   1.878   6.101   4.591  1.1906 -0.6585 -1.5248
17557TIP3    H274163   1.949   5.981   4.652  1.0857 -0.4727 -1.0325
17558TIP3   OH274164   0.640   4.339   4.766  0.1668  0.1846 -0.8522
17558TIP3    H174165   0.568   4.385   4.810  0.6496  0.6381 -0.5181
17558TIP3    H274166   0.652   4.259   4.817 -1.9221 -1.2965 -2.5356
17559TIP3   OH274167   2.172   5.524   1.945 -0.2972 -0.1918  0.3963
17559TIP3    H174168   2.150   5.530   1.852 -1.1545 -1.7863  0.4422
17559TIP3    H274169   2.265   5.502   1.946 -0.8996 -3.3168 -0.3001
17560TIP3   OH274170   5.308   2.104  16.025  0.8217  0.2796  0.4087
17560TIP3    H174171   5.312   2.191  15.985  2.5415  0.2065  0.3494
17560TIP3    H274172   5.290   2.045  15.951  1.0092  0.4535  0.2230
17561TIP3   OH274173   2.053   0.064  14.500 -0.3820  0.6401  0.3247
17561TIP3    H174174   2.058  -0.017  14.450 -0.9880  0.6063  0.3089
17561TIP3    H274175   2.141   0.076  14.536 -0.5633 -0.5795  1.2107
17562TIP3   OH274176   3.758   2.025  14.504 -0.1503  0.4170 -0.7944
17562TIP3    H174177   3.787   2.108  14.541  0.2868 -0.5827  1.2152
17562TIP3    H274178   3.679   2.003  14.552 -1.7553  0.8684 -3.0882
17563TIP3   OH274179   4.521   5.642   4.857  0.7179  0.5278 -0.1969
17563TIP3    H174180   4.599   5.680   4.896  1.6142 -1.3199 -0.1181
17563TIP3    H274181   4.544   5.551   4.840 -0.7475  0.4346 -2.0223
17564TIP3   OH274182   0.546   5.640  13.003  1.0497  0.1751 -0.0755
17564TIP3    H174183   0.618   5.672  13.058  0.7640  1.3697 -0.3804
17564TIP3    H274184   0.588   5.576  12.945  1.7388  0.3917  0.1694
17565TIP3   OH274185   6.319   5.780  13.858 -0.5748  0.0952  0.1132
17565TIP3    H174186   6.364   5.821  13.932  1.9719  0.8106 -1.6557
17565TIP3    H274187   6.357   5.823  13.781 -0.8910 -2.6378 -1.7105
17566TIP3   OH274188   3.737   0.301  15.603 -0.1830 -0.1343  0.2253
17566TIP3    H174189   3.706   0.378  15.555 -3.4848 -2.5151 -1.8510
17566TIP3    H274190   3.691   0.305  15.687 -2.0282 -0.8152 -0.6995
17567TIP3   OH274191   2.522   2.789   1.889  0.9584 -0.3611  0.3400
17567TIP3    H174192   2.569   2.811   1.808  0.2313 -2.4214 -0.6921
17567TIP3    H274193   2.433   2.771   1.861  0.6467 -0.8989  1.6351
17568TIP3   OH274194   3.317   3.350   5.062 -0.3979  0.4611  0.2954
17568TIP3    H174195   3.284   3.273   5.015  0.8736 -0.0939  0.2806
17568TIP3    H274196   3.396   3.320   5.106  0.2833  1.8364  0.0697
17569TIP3   OH274197   4.064   4.711   6.625  0.0574  0.0785  0.0983
17569TIP3    H174198   4.041   4.741   6.537 -0.8358 -0.3302  0.1847
17569TIP3    H274199   4.066   4.616   6.618  1.6924  0.0723  0.1200
17570TIP3   OH274200   4.108   6.440   2.628 -0.3221 -0.0920  0.5839
17570TIP3    H174201   4.161   6.361   2.641  0.7994  0.4005 -0.7812
17570TIP3    H274202   4.023   6.407   2.598 -0.3141 -0.8282  1.3387
17571TIP3   OH274203   2.521   1.442  13.001 -0.2344  0.5510  0.2252
17571TIP3    H174204   2.481   1.394  13.074 -0.6090  0.3833 -0.0875
17571TIP3    H274205   2.576   1.508  13.043 -0.4250  0.4363  0.6610
17572TIP3   OH274206   5.517   0.814  10.671  0.1781 -0.6673  0.0559
17572TIP3    H174207   5.492   0.781  10.584 -2.1968  1.9041 -0.4004
17572TIP3    H274208   5.472   0.899  10.678  1.3894 -0.1478  3.2855
17573TIP3   OH274209   3.129   2.671  15.596 -0.3287  0.0986  0.5476
17573TIP3    H174210   3.118   2.761  15.625  0.1626  1.1467 -2.2044
17573TIP3    H274211   3.200   2.675  15.532 -0.0359 -2.3214  0.6398
17574TIP3   OH274212   2.963   5.515   2.961  0.3932 -0.2020 -0.2455
17574TIP3    H174213   2.873   5.500   2.931  0.9833  0.2676 -2.4903
17574TIP3    H274214   2.981   5.443   3.021 -1.9518  0.5334  1.4754
17575TIP3   OH274215   3.762   2.569   2.072  0.3067 -0.1710  0.0444
17575TIP3    H174216   3.777   2.636   2.005 -1.6946  1.7223  1.3638
17575TIP3    H274217   3.710   2.502   2.029  0.1029  0.4203 -0.6411
17576TIP3   OH274218   1.940   5.505   5.163 -0.3454 -0.2112 -0.1164
17576TIP3    H174219   2.023   5.499   5.209  1.7964  2.6789 -3.1276
17576TIP3    H274220   1.893   5.575   5.207 -1.0997 -1.5400  1.2993
17577TIP3   OH274221   6.449   5.094  13.182 -0.8515 -0.0671 -0.0146
17577TIP3    H174222   6.502   5.021  13.214  0.8856  1.0221 -0.2315
17577TIP3    H274223   6.498   5.127  13.107 -2.1872  0.6287 -0.6078
17578TIP3   OH274224   4.998   3.429  11.395  0.1297 -0.2662 -1.0011
17578TIP3    H174225   4.920   3.417  11.341  0.2256  0.4942 -1.3297
17578TIP3    H274226   5.016   3.523  11.389  0.6402 -0.3185 -0.3320
17579TIP3   OH274227   6.768   4.380   2.208  0.4547  0.4483 -0.4014
17579TIP3    H174228   6.852   4.415   2.178  1.0815  0.7665  1.5401
17579TIP3    H274229   6.727   4.453   2.254 -0.0080 -0.2353  0.2959
17580TIP3   OH274230   4.784   5.138  15.622 -0.1974  0.1009  0.3699
17580TIP3    H174231   4.834   5.218  15.610 -1.4508  1.0769  1.2815
17580TIP3    H274232   4.832   5.089  15.689 -0.5114  1.1096  1.3709
17581TIP3   OH274233   3.637   5.993  13.081 -0.5252 -0.7148 -0.4704
17581TIP3    H174234   3.585   6.024  13.007 -1.3651 -0.3928  0.2363
17581TIP3    H274235   3.727   5.993  13.049 -0.9149 -0.9197 -1.5984
17582TIP3   OH274236   5.714   0.850   2.017  0.4850 -0.0129 -0.1488
17582TIP3    H174237   5.745   0.841   1.927  1.8394  1.0235  0.1774
17582TIP3    H274238   5.769   0.919   2.055 -0.2018 -0.2669  1.4069
17583TIP3   OH274239   3.315   5.888   5.089  0.1497 -0.1465 -0.2505
17583TIP3    H174240   3.355   5.916   5.172  2.2664  2.4027 -1.9680
17583TIP3    H274241   3.388   5.851   5.039 -1.1049 -1.6579 -1.0364
17584TIP3   OH274242   2.686   5.370  12.537 -0.2557  0.2210  0.2434
17584TIP3    H174243   2.699   5.417  12.620 -2.2484  1.6114 -0.1562
17584TIP3    H274244   2.593   5.348  12.537 -0.0060 -0.9512 -1.0580
17585TIP3   OH274245   5.417   0.262   2.136 -0.0739 -0.4484  0.0576
17585TIP3    H174246   5.373   0.271   2.221  0.5784 -0.5603  0.4122
17585TIP3    H274247   5.485   0.329   2.137 -0.0550 -0.4625 -0.3724
17586TIP3   OH274248   6.143   2.301   5.111  0.1371  0.0291  0.7574
17586TIP3    H174249   6.163   2.232   5.047 -2.5884 -0.5672  0.4480
17586TIP3    H274250   6.168   2.382   5.066  1.9991 -0.6069  0.5482
17587TIP3   OH274251   6.791   2.547  11.345  0.5293 -0.3391  0.3937
17587TIP3    H174252   6.779   2.468  11.398  0.2490 -0.6816 -0.1820
17587TIP3    H274253   6.885   2.566  11.352  0.8329 -1.4414 -0.4832
17588TIP3   OH274254   2.636   3.202   3.958 -0.1374 -0.4844 -0.2429
17588TIP3    H174255   2.610   3.282   3.913  0.5123  0.7437  1.4864
17588TIP3    H274256   2.732   3.200   3.951 -0.0445 -0.3913  0.8497
17589TIP3   OH274257   4.701   3.866  17.342 -0.0724  0.1448  0.4731
17589TIP3    H174258   4.619   3.816  17.341  1.4426 -2.5545 -0.1212
17589TIP3    H274259   4.738   3.848  17.429  2.3328 -3.3097 -1.0293
17590TIP3   OH274260   5.040   2.898  11.981  0.4210  0.6683  0.3154
17590TIP3    H174261   5.089   2.854  11.911 -2.7773 -0.9905 -1.1058
17590TIP3    H274262   4.983   2.960  11.934  0.2200  1.6130  1.7491
17591TIP3   OH274263   1.282   6.509  15.207 -0.2704 -0.5070 -0.1146
17591TIP3    H174264   1.302   6.557  15.288  0.5401 -0.0159 -0.5968
17591TIP3    H274265   1.292   6.417  15.232 -1.7586 -0.4578  0.7951
17592TIP3   OH274266   0.979   1.848   4.740 -0.2412  0.1037  0.0676
17592TIP3    H174267   0.920   1.919   4.767 -0.5210  0.1314 -0.5965
17592TIP3    H274268   1.003   1.869   4.651 -0.7720 -0.9149 -0.3404
17593TIP3   OH274269   3.057   4.096  11.251  0.2951  0.0990  0.2850
17593TIP3    H174270   3.099   4.018  11.286 -2.6880 -1.4847  0.6269
17593TIP3    H274271   3.004   4.130  11.323 -0.9088  0.5627 -0.7749
17594TIP3   OH274272   4.869   1.145   3.374 -0.3653 -0.1560  0.1080
17594TIP3    H174273   4.840   1.197   3.449 -1.0434 -0.4026  0.0162
17594TIP3    H274274   4.934   1.085   3.410 -0.3898  0.0008  0.4168
17595TIP3   OH274275   4.159   6.473  11.967  0.2965  0.3201 -0.4829
17595TIP3    H174276   4.253   6.487  11.971  0.2080  0.7198  1.9618
17595TIP3    H274277   4.136   6.439  12.053 -2.0667  2.2882 -0.2080
17596TIP3   OH274278   3.457   4.955  12.190  0.3450 -0.2363 -0.0176
17596TIP3    H174279   3.382   5.013  12.177  0.8457  1.4103  3.3410
17596TIP3    H274280   3.421   4.867  12.184 -1.4632  0.4780 -0.3431
17597TIP3   OH274281   3.504   1.781  11.978  0.1309  0.7929  0.1826
17597TIP3    H174282   3.457   1.715  11.927 -0.1619  1.1849 -0.0615
17597TIP3    H274283   3.468   1.773  12.067  0.6383  0.1109  0.3332
17598TIP3   OH274284   3.823   6.136   1.981  0.1688 -0.1959 -0.1760
17598TIP3    H174285   3.886   6.157   2.050 -1.1403  0.8951  0.7260
17598TIP3    H274286   3.866   6.066   1.931  2.6638  1.3603 -0.4206
17599TIP3   OH274287   1.095   0.067  14.804 -1.1254  0.1288 -0.1588
17599TIP3    H174288   1.189   0.080  14.816 -0.7819 -2.5221  0.7098
17599TIP3    H274289   1.088   0.025  14.719 -1.3593 -0.7888  0.2989
17600TIP3   OH274290   1.784   1.891  13.653  0.1742  0.4544  0.3147
17600TIP3    H174291   1.832   1.828  13.706  0.2404  0.6328  0.4672
17600TIP3    H274292   1.706   1.843  13.624 -0.1263  0.5196  1.0045
17601TIP3   OH274293   0.398   2.417   6.831  0.0013 -0.2960 -0.3253
17601TIP3    H174294   0.438   2.331   6.823  3.4582  1.2538 -1.2784
17601TIP3    H274295   0.465   2.472   6.871 -0.9151  2.6391 -2.4904
17602TIP3   OH274296   5.645   1.892   2.921 -0.4092  0.5245  0.0603
17602TIP3    H174297   5.693   1.973   2.936  0.4890 -0.1023  0.6254
17602TIP3    H274298   5.675   1.833   2.989  0.6917 -1.0468 -1.7092
17603TIP3   OH274299   5.367   1.086  14.507 -0.1614 -0.5717 -0.1156
17603TIP3    H174300   5.319   1.016  14.462  0.1322 -0.4892 -0.5677
17603TIP3    H274301   5.454   1.084  14.467  1.3819 -2.9284  2.9503
17604TIP3   OH274302   0.723   0.024   0.824 -0.2291  0.9791 -0.0442
17604TIP3    H174303   0.730   0.002   0.731 -0.5390  0.9024 -0.0508
17604TIP3    H274304   0.808   0.002   0.861 -0.5107 -0.2371 -0.0495
17605TIP3   OH274305   6.198   1.450   2.567 -0.3085 -0.0875  0.0139
17605TIP3    H174306   6.126   1.463   2.506 -0.7932 -0.7310  0.4354
17605TIP3    H274307   6.234   1.538   2.581  0.3570 -0.0095 -1.8214
17606TIP3   OH274308   4.571   3.861   1.323 -0.0011 -0.1598 -0.8865
17606TIP3    H174309   4.546   3.804   1.250  0.5235 -0.5227 -0.7880
17606TIP3    H274310   4.636   3.921   1.285 -0.5388  0.3772 -0.9864
17607TIP3   OH274311   5.168   2.919  13.060  0.4622  0.0463 -0.0026
17607TIP3    H174312   5.229   2.991  13.074 -0.0734  0.2482  1.3309
17607TIP3    H274313   5.091   2.941  13.111 -1.1446  0.2296 -2.3372
17608TIP3   OH274314   3.478   5.995   6.055  0.2305 -0.0421  0.3973
17608TIP3    H174315   3.545   6.046   6.100  0.3024  0.5779 -0.3921
17608TIP3    H274316   3.399   6.049   6.061  0.6785  0.9989 -1.8499
17609TIP3   OH274317   1.305   5.978  13.713 -0.0972 -0.2994  0.0712
17609TIP3    H174318   1.272   5.953  13.800 -1.3847 -0.3465 -0.4138
17609TIP3    H274319   1.243   5.939  13.652  1.3327 -1.0678 -0.9250
17610TIP3   OH274320   3.144   4.167   0.450  0.0856 -0.1725  0.8054
17610TIP3    H174321   3.056   4.203   0.462  0.8755  1.7687  1.1754
17610TIP3    H274322   3.169   4.137   0.537  0.1655  0.1923  0.9093
17611TIP3   OH274323   4.651   1.367   2.360 -0.5639  0.3607  0.4163
17611TIP3    H174324   4.658   1.287   2.412  0.2047 -0.0693 -0.3356
17611TIP3    H274325   4.557   1.377   2.345 -0.6541 -0.5074  0.3571
17612TIP3   OH274326   1.485   0.258   3.737  0.0523  0.4733  0.0137
17612TIP3    H174327   1.566   0.208   3.739  0.5439  1.2638  2.2083
17612TIP3    H274328   1.512   0.349   3.747 -1.1036  0.7435  0.9133
17613TIP3   OH274329   6.698   1.952   6.764  0.3541  0.4245  0.4115
17613TIP3    H174330   6.659   2.003   6.693  1.1983  0.7817  0.1898
17613TIP3    H274331   6.653   1.983   6.843 -1.3637 -0.7387 -0.0488
17614TIP3   OH274332   4.035   1.308   3.251 -0.2839  0.3412  0.0645
17614TIP3    H174333   4.116   1.341   3.212 -0.2236  0.7316  0.5179
17614TIP3    H274334   3.966   1.361   3.211 -0.4197 -0.6262 -1.0457
17615TIP3   OH274335   2.109   5.087   3.996  0.0321 -0.1948  0.2080
17615TIP3    H174336   2.136   5.059   4.083 -1.1928 -0.5511  0.4985
17615TIP3    H274337   2.118   5.009   3.942 -0.6765 -0.3996  0.3753
17616TIP3   OH274338   2.073   4.414  12.123  0.5541  0.2380  0.7167
17616TIP3    H174339   2.135   4.380  12.058 -1.2866 -1.0845 -0.4487
17616TIP3    H274340   2.087   4.360  12.200  1.5513  0.6573  0.8512
17617TIP3   OH274341   6.766   4.928   2.059  0.0105  0.4008 -0.3347
17617TIP3    H174342   6.801   4.947   2.146 -2.2619 -1.0742  1.0180
17617TIP3    H274343   6.703   4.999   2.043 -1.7247 -0.8537  0.6111
17618TIP3   OH274344   1.539   1.423   4.575  0.4464  0.8023 -0.4440
17618TIP3    H174345   1.491   1.463   4.648 -1.8050 -0.3235 -1.2081
17618TIP3    H274346   1.607   1.370   4.617 -0.5099  0.5380  0.8350
17619TIP3   OH274347   3.393   4.788  12.603  0.0077  0.1726  0.4445
17619TIP3    H174348   3.456   4.781  12.531 -0.0318  1.6961  0.2202
17619TIP3    H274349   3.424   4.863  12.654 -1.8365  1.2490  0.0876
17620TIP3   OH274350   2.529   6.163  11.092  0.4398 -1.0094  0.2613
17620TIP3    H174351   2.613   6.210  11.094  0.1080 -0.4251  1.1546
17620TIP3    H274352   2.531   6.109  11.171  1.1029 -3.0627 -1.0792
17621TIP3   OH274353   1.675   4.914   1.727 -0.3491  0.2856  0.6759
17621TIP3    H174354   1.612   4.898   1.657  0.6876 -0.1732 -0.1685
17621TIP3    H274355   1.648   4.997   1.765 -1.0930  0.4004 -0.0794
17622TIP3   OH274356   5.819   3.852  14.210  0.2201  0.2999 -0.2617
17622TIP3    H174357   5.808   3.859  14.115 -0.0730  0.3760 -0.2228
17622TIP3    H274358   5.767   3.775  14.234  1.0237 -0.2602 -0.2844
17623TIP3   OH274359   3.466   0.034  12.877 -0.0193  0.0837 -1.1039
17623TIP3    H174360   3.541  -0.019  12.848  0.0606  0.6680 -2.0051
17623TIP3    H274361   3.496   0.125  12.869  0.0192  0.2949  0.8989
17624TIP3   OH274362   3.709   5.647   2.809 -0.1124 -0.5592  0.4671
17624TIP3    H174363   3.687   5.721   2.753  3.5582  0.6536  0.3680
17624TIP3    H274364   3.679   5.673   2.896  0.2405  0.6091  0.2530
17625TIP3   OH274365   5.275   2.371   5.414  0.3460 -0.2957 -0.4448
17625TIP3    H174366   5.188   2.334   5.402  0.8707 -1.3630 -1.0321
17625TIP3    H274367   5.300   2.403   5.328  0.7103 -0.3832 -0.3740
17626TIP3   OH274368   6.195   2.705   3.048 -0.4558 -0.3987 -0.2239
17626TIP3    H174369   6.253   2.668   2.981 -2.2265 -1.5393 -1.2112
17626TIP3    H274370   6.109   2.706   3.006 -0.8589  3.3237  0.3369
17627TIP3   OH274371   2.354   0.989   5.993  0.8220 -0.2805 -0.1319
17627TIP3    H174372   2.434   0.992   6.044 -0.6000  0.4010  2.2044
17627TIP3    H274373   2.329   0.896   5.993  0.8415 -0.2895  0.4164
17628TIP3   OH274374   6.307   5.364   0.717 -0.2713 -0.2788  0.1848
17628TIP3    H174375   6.398   5.395   0.726 -0.7922  1.1293  0.9968
17628TIP3    H274376   6.255   5.431   0.762 -1.9905  0.5571 -2.7593
17629TIP3   OH274377   5.734   5.817   4.958 -0.3537  0.0345  0.1583
17629TIP3    H174378   5.655   5.809   5.012 -0.8984  1.9430 -0.2512
17629TIP3    H274379   5.731   5.742   4.899 -0.9186 -0.8729  1.3103
17630TIP3   OH274380   2.954   5.771  11.829  0.5200  0.1640 -0.2761
17630TIP3    H174381   2.896   5.697  11.847 -0.7910  0.8492 -1.4864
17630TIP3    H274382   2.979   5.760  11.737  3.5731 -0.9231  0.5704
17631TIP3   OH274383   0.148   0.654   3.651  0.5044  0.4361  0.1674
17631TIP3    H174384   0.153   0.559   3.656 -0.9900  0.3032 -0.3639
17631TIP3    H274385   0.238   0.684   3.664  1.7344 -1.2362 -3.2948
17632TIP3   OH274386   3.409   1.101   0.193 -0.1302  0.2223 -0.3046
17632TIP3    H174387   3.323   1.143   0.195 -1.1208 -1.7061  0.0816
17632TIP3    H274388   3.460   1.153   0.131 -1.5292  1.4590 -0.4757
17633TIP3   OH274389   1.812   1.697   5.893 -0.0610 -0.0643  0.1893
17633TIP3    H174390   1.834   1.604   5.897 -1.2281 -0.3592  0.3823
17633TIP3    H274391   1.867   1.738   5.959  1.3989 -0.3927 -0.7763
17634TIP3   OH274392   1.247   1.008  13.853  0.0461 -0.4075  0.0603
17634TIP3    H174393   1.265   0.919  13.822  1.8355 -0.4099  0.9851
17634TIP3    H274394   1.301   1.064  13.799 -3.6387  0.6333 -2.9536
17635TIP3   OH274395   6.383   5.340  10.859  0.5769 -0.5446  0.0893
17635TIP3    H174396   6.399   5.361  10.767  2.3022 -0.8841  0.2840
17635TIP3    H274397   6.375   5.426  10.902 -0.7347 -0.3863 -0.4277
17636TIP3   OH274398   4.603   2.236   5.252  0.0306  0.3315  0.5131
17636TIP3    H174399   4.664   2.225   5.180 -0.8051  0.5866 -0.2507
17636TIP3    H274400   4.545   2.307   5.224  0.1563  0.9684  1.7599
17637TIP3   OH274401   5.065   4.975  15.311  0.2666 -0.0823 -0.1123
17637TIP3    H174402   5.068   4.898  15.367 -3.2681  0.8079  1.5812
17637TIP3    H274403   5.011   4.948  15.237 -1.4546  0.8100  0.7572
17638TIP3   OH274404   3.067   1.367   1.904 -0.1345 -0.2472  0.9488
17638TIP3    H174405   3.102   1.282   1.931  0.1524 -0.6403 -0.5655
17638TIP3    H274406   3.125   1.396   1.834 -3.6970 -1.8408 -3.1359
17639TIP3   OH274407   3.612   4.280  15.650  0.0728 -0.6705 -0.4658
17639TIP3    H174408   3.676   4.211  15.631  0.3896 -0.3230 -0.6652
17639TIP3    H274409   3.635   4.310  15.738  0.1327 -0.6080 -0.5022
17640TIP3   OH274410   2.706   5.821  13.179  0.3807 -0.5831 -0.5175
17640TIP3    H174411   2.682   5.755  13.245  1.6593  0.5086  1.1204
17640TIP3    H274412   2.746   5.770  13.108 -0.0695 -1.6996 -0.0062
17641TIP3   OH274413   0.017   3.722  15.695  0.0627  0.1445 -0.0710
17641TIP3    H174414  -0.076   3.741  15.686 -0.5111 -0.8256  2.6948
17641TIP3    H274415   0.036   3.740  15.787  2.2114 -1.2278 -0.1731
17642TIP3   OH274416   0.237   5.069  11.838 -0.5127 -0.7962 -0.1426
17642TIP3    H174417   0.205   5.080  11.748  4.3547 -0.2919 -2.0875
17642TIP3    H274418   0.199   5.143  11.886 -2.6705 -0.6630 -1.8723
17643TIP3   OH274419   4.157   0.557   0.443 -0.4383  0.0845 -0.0553
17643TIP3    H174420   4.239   0.568   0.492 -0.5609  0.0921  0.1488
17643TIP3    H274421   4.147   0.462   0.436  0.4893  0.0778 -1.5995
17644TIP3   OH274422   1.652   0.177   2.633 -0.4733  0.0629 -0.0502
17644TIP3    H174423   1.585   0.118   2.666  0.3149 -1.5257 -1.1522
17644TIP3    H274424   1.675   0.232   2.708  0.2558 -2.4491  1.6902
17645TIP3   OH274425   0.177   2.759   4.825  0.1302 -0.4177  0.1538
17645TIP3    H174426   0.236   2.710   4.768  2.1328 -0.0118  1.7677
17645TIP3    H274427   0.203   2.850   4.814 -1.0631 -0.0849 -0.0252
17646TIP3   OH274428   3.020   1.180  13.455 -0.6822  0.1049 -0.0675
17646TIP3    H174429   2.939   1.226  13.430  0.8584  2.8650 -0.4323
17646TIP3    H274430   2.996   1.129  13.532 -3.4496 -1.6097 -1.9084
17647TIP3   OH274431   3.178   1.063  12.851  0.5868  0.0879  0.0324
17647TIP3    H174432   3.235   0.999  12.894 -0.0900 -0.6895 -0.2038
17647TIP3    H274433   3.090   1.025  12.859  0.3829  0.1734 -1.5882
17648TIP3   OH274434   4.923   5.934  16.929  0.1229  0.1960 -0.4607
17648TIP3    H174435   4.897   5.887  16.850  0.3756  1.9308 -1.6457
17648TIP3    H274436   5.016   5.915  16.939  0.4156  1.0401 -1.4081
17649TIP3   OH274437   4.414   4.391  12.561  0.1146 -0.6215 -0.1938
17649TIP3    H174438   4.463   4.412  12.482  2.0174 -2.6384  0.3288
17649TIP3    H274439   4.356   4.320  12.536 -0.0248 -0.5741 -0.0116
17650TIP3   OH274440   1.520   6.633   3.590 -0.2888  0.0631  0.3461
17650TIP3    H174441   1.559   6.680   3.516  0.6873  0.3400  1.0139
17650TIP3    H274442   1.435   6.603   3.557 -0.9627  2.2724 -0.1170
17651TIP3   OH274443   6.792   4.079  14.423 -0.0599 -0.4493  0.2232
17651TIP3    H174444   6.740   4.002  14.446 -0.3944 -0.6389 -1.0792
17651TIP3    H274445   6.733   4.132  14.370  0.5325  0.1632  0.1662
17652TIP3   OH274446   2.816   1.618   3.004  0.1455  1.0090  0.1499
17652TIP3    H174447   2.745   1.650   2.947 -0.8502 -1.5921 -0.1867
17652TIP3    H274448   2.820   1.524   2.987  2.0903  0.7029  1.9679
17653TIP3   OH274449   0.988   3.114   0.612 -0.0827 -0.1260  0.0136
17653TIP3    H174450   0.939   3.109   0.694 -0.3995 -0.3884 -0.1931
17653TIP3    H274451   1.067   3.062   0.628  0.4705  0.8427  0.5769
17654TIP3   OH274452   0.276   3.371  12.527 -0.1269  0.1470 -0.1432
17654TIP3    H174453   0.182   3.390  12.529 -0.2666 -0.5275  1.0663
17654TIP3    H274454   0.318   3.457  12.525 -0.7613  0.6282  2.7247
17655TIP3   OH274455   6.767   6.227   1.605 -0.4778 -0.1342  0.4075
17655TIP3    H174456   6.732   6.157   1.660  0.3024 -1.7105 -1.0173
17655TIP3    H274457   6.851   6.194   1.574 -0.3581  1.1856 -0.7878
17656TIP3   OH274458   5.831   4.709  13.379  0.0549  0.7055 -0.3245
17656TIP3    H174459   5.859   4.762  13.305 -0.6558  2.8680  0.8717
17656TIP3    H274460   5.736   4.724  13.386 -0.1635 -0.6838  0.1149
17657TIP3   OH274461   6.364   2.175   4.501 -0.2926 -0.3531  0.3257
17657TIP3    H174462   6.406   2.255   4.468  0.9051 -2.0630 -2.5959
17657TIP3    H274463   6.417   2.151   4.578  0.6889  0.4862 -0.0558
17658TIP3   OH274464   2.384   4.280  12.445 -0.3411 -0.4890 -0.0194
17658TIP3    H174465   2.390   4.369  12.411 -2.6835 -0.1382  0.2955
17658TIP3    H274466   2.290   4.259  12.439  0.0918 -2.7554  0.3608
17659TIP3   OH274467   1.018   1.434  15.114 -0.2233  0.4033 -0.0679
17659TIP3    H174468   0.971   1.374  15.056 -0.9124  0.0753  0.8012
17659TIP3    H274469   1.096   1.384  15.141 -1.7938 -1.0032  2.2690
17660TIP3   OH274470   5.173   1.145   4.007  0.2151  0.1257  0.0186
17660TIP3    H174471   5.168   1.241   4.005  1.7887  0.2220 -1.0989
17660TIP3    H274472   5.227   1.125   4.084  0.6083  0.1942 -0.2352
17661TIP3   OH274473   2.588   1.614   3.742  0.2312 -0.0930  0.2458
17661TIP3    H174474   2.662   1.614   3.802 -0.6387  1.9046  1.4121
17661TIP3    H274475   2.512   1.598   3.798 -0.5534  1.3682 -0.3564
17662TIP3   OH274476   5.739   6.471   3.612 -0.1316 -0.3226 -0.1161
17662TIP3    H174477   5.738   6.385   3.569 -3.7259  0.4951 -2.0706
17662TIP3    H274478   5.828   6.504   3.596  1.4015 -3.5957  0.7511
17663TIP3   OH274479   2.288   3.244  16.844  0.1344  0.2896  0.0438
17663TIP3    H174480   2.356   3.221  16.907 -0.2881 -2.2578 -0.2999
17663TIP3    H274481   2.325   3.221  16.759 -0.6001  0.2305 -0.2721
17664TIP3   OH274482   6.596   6.681   3.575 -0.8607 -0.2027  0.0524
17664TIP3    H174483   6.577   6.773   3.557 -1.8561 -0.2698  0.6875
17664TIP3    H274484   6.668   6.684   3.637 -0.0156  0.1051 -0.9094
17665TIP3   OH274485   1.938   4.923   3.784 -0.2809 -0.6873  0.1498
17665TIP3    H174486   2.020   4.964   3.759 -0.6588  0.5110  0.7791
17665TIP3    H274487   1.960   4.831   3.801  0.7707 -0.5366 -0.3854
17666TIP3   OH274488   1.519   1.901   3.977 -0.3234  0.3081 -0.2184
17666TIP3    H174489   1.483   1.962   4.041  0.3351  1.5630 -1.0028
17666TIP3    H274490   1.445   1.846   3.952 -0.8067  0.4094  0.8993
17667TIP3   OH274491   0.279   5.613  12.305  0.0929  0.5370 -0.1208
17667TIP3    H174492   0.245   5.558  12.235  2.9399 -1.4674 -0.1401
17667TIP3    H274493   0.239   5.578  12.384  0.4888 -0.4157 -0.3207
17668TIP3   OH274494   6.266   2.107   5.263 -0.1040 -0.0924  0.0793
17668TIP3    H174495   6.351   2.095   5.221  1.2162  1.6021  2.0091
17668TIP3    H274496   6.240   2.196   5.238 -1.7697 -0.8856 -1.1578
17669TIP3   OH274497   3.903   4.901  13.648 -0.0981 -0.0744 -0.2600
17669TIP3    H174498   3.873   4.822  13.602 -0.4204  0.5554 -1.1554
17669TIP3    H274499   3.926   4.870  13.736 -0.9875 -1.0245 -0.3416
17670TIP3   OH274500   1.940   5.921  15.031  0.3660  0.2663 -0.3232
17670TIP3    H174501   1.950   5.837  15.076 -0.2997 -0.6922 -1.8613
17670TIP3    H274502   1.921   5.983  15.101  2.3477 -0.5462  1.0274
17671TIP3   OH274503   4.865   3.755  16.007  0.1900  0.1100  0.1340
17671TIP3    H174504   4.868   3.659  16.011  0.3803  0.0282 -1.3867
17671TIP3    H274505   4.794   3.779  16.066  3.1533 -0.5976  4.4292
17672TIP3   OH274506   6.672   1.987   1.182  0.0713  0.2143 -0.2890
17672TIP3    H174507   6.670   2.026   1.094  1.2758 -0.5026 -0.6631
17672TIP3    H274508   6.764   1.989   1.207 -0.1417 -0.4021  0.5899
17673TIP3   OH274509   3.989   4.544  16.469 -0.5346  0.3754 -0.1599
17673TIP3    H174510   4.050   4.482  16.428  0.0416  1.7241 -1.4482
17673TIP3    H274511   4.021   4.554  16.559  0.6663  0.4203 -0.5687
17674TIP3   OH274512   3.536   1.315  14.214 -0.0846 -0.6301 -0.2020
17674TIP3    H174513   3.454   1.358  14.237  1.0723  1.3190  0.5128
17674TIP3    H274514   3.594   1.386  14.186  1.7751 -1.7418  0.6017
17675TIP3   OH274515   6.177   5.086  14.598 -0.0411 -0.7516 -0.4413
17675TIP3    H174516   6.241   5.105  14.528  0.7013  1.5228  0.7363
17675TIP3    H274517   6.166   5.170  14.642 -1.3964 -1.8689  1.4488
17676TIP3   OH274518   2.492   6.537  12.296  0.0349  0.3603 -0.5484
17676TIP3    H174519   2.483   6.607  12.360  2.6378  0.8305 -0.5671
17676TIP3    H274520   2.450   6.570  12.217 -1.0849  0.7752  0.2121
17677TIP3   OH274521   5.877   5.178   3.907 -0.4085 -0.6250 -0.1534
17677TIP3    H174522   5.929   5.182   3.986  0.1013 -0.0974 -0.5060
17677TIP3    H274523   5.904   5.097   3.864  0.3362 -0.2229 -0.4694
17678TIP3   OH274524   2.912   0.190  15.735 -0.4996  0.5882 -0.2045
17678TIP3    H174525   2.895   0.234  15.818 -2.1826  1.8864 -1.1637
17678TIP3    H274526   2.949   0.258  15.679  2.6163 -0.7758  0.0201
17679TIP3   OH274527   4.644   2.885   2.602 -0.7111 -0.1490  0.1516
17679TIP3    H174528   4.701   2.902   2.528  0.7260  0.4981  1.3676
17679TIP3    H274529   4.555   2.901   2.569 -0.1358 -0.2768 -1.5115
17680TIP3   OH274530   4.424   3.693  17.336  0.1928  0.0391  0.4658
17680TIP3    H174531   4.371   3.637  17.392 -0.2656  0.8454  0.8597
17680TIP3    H274532   4.374   3.774  17.328  0.1185 -0.1418 -1.3369
17681TIP3   OH274533   0.589   3.580   3.480 -0.0233  1.0006 -0.5779
17681TIP3    H174534   0.681   3.583   3.505  0.4205  0.5470 -2.0658
17681TIP3    H274535   0.562   3.490   3.501  0.3139  0.6579 -1.5826
17682TIP3   OH274536   4.825   4.476  13.296  0.0458  0.2509  0.2031
17682TIP3    H174537   4.743   4.432  13.273  0.3937  0.6439 -2.0736
17682TIP3    H274538   4.867   4.418  13.359 -1.3813 -0.6211  0.3826
17683TIP3   OH274539   2.854   2.726   6.375  0.0456 -0.2187 -0.0744
17683TIP3    H174540   2.867   2.774   6.457  0.4427  1.8143 -1.2661
17683TIP3    H274541   2.763   2.743   6.351  0.2625  0.1661 -0.6353
17684TIP3   OH274542   4.950   3.124   4.089  0.2967  1.1433  0.1180
17684TIP3    H174543   4.975   3.135   3.997 -0.1320 -1.3962 -0.3743
17684TIP3    H274544   4.889   3.196   4.106 -0.8148  0.7797 -2.0544
17685TIP3   OH274545   1.511   3.385   1.486 -0.6208 -0.0392 -0.1802
17685TIP3    H174546   1.557   3.336   1.417 -0.0523 -0.9882  0.8336
17685TIP3    H274547   1.432   3.334   1.503 -0.4424 -0.1760  0.2867
17686TIP3   OH274548   5.091   5.617  15.881  0.2450 -0.0536  0.1593
17686TIP3    H174549   5.158   5.651  15.940  0.2709 -0.9008  0.6432
17686TIP3    H274550   5.021   5.682  15.884  0.0407 -0.3058  1.5184
17687TIP3   OH274551   0.367   0.488  12.249  0.0685 -0.1805  0.3325
17687TIP3    H174552   0.333   0.455  12.166  1.6455 -0.8937 -0.0722
17687TIP3    H274553   0.409   0.571  12.226 -1.5433  0.8180  0.8690
17688TIP3   OH274554   5.520   2.236  13.028  0.6218 -0.9080  0.1478
17688TIP3    H174555   5.591   2.283  12.985 -0.8849  0.1792 -1.2463
17688TIP3    H274556   5.526   2.147  12.994  1.4359 -0.8847  0.2097
17689TIP3   OH274557   5.894   5.534   0.604 -0.4640  0.9105 -0.2431
17689TIP3    H174558   5.940   5.534   0.520  0.2763 -0.0596  0.1540
17689TIP3    H274559   5.955   5.494   0.665 -0.8164  2.0143  0.8757
17690TIP3   OH274560   2.821   1.357   2.904  0.5212 -0.3119 -0.5025
17690TIP3    H174561   2.735   1.361   2.862  0.3834 -0.7648 -0.2702
17690TIP3    H274562   2.882   1.342   2.832  0.6740  2.0288 -0.9592
17691TIP3   OH274563   5.228   3.725   0.962 -0.4081  0.0061  0.2735
17691TIP3    H174564   5.282   3.719   0.882  0.9193  2.1802  0.9378
17691TIP3    H274565   5.144   3.759   0.931 -0.1532  0.1442 -0.2905
17692TIP3   OH274566   5.907   4.626   0.016  0.3379 -0.0279  0.1175
17692TIP3    H174567   5.870   4.658   0.098  0.1611 -0.6260  0.2740
17692TIP3    H274568   5.993   4.668   0.011  0.2054  0.2886  0.4322
17693TIP3   OH274569   6.315   1.706  13.047  0.5732 -0.1438  0.1426
17693TIP3    H174570   6.243   1.663  13.001  1.0090 -1.2558  0.4575
17693TIP3    H274571   6.283   1.794  13.065 -0.5615 -0.4976 -0.0609
17694TIP3   OH274572   5.515   1.349   4.232  0.3770  0.3597  0.3553
17694TIP3    H174573   5.469   1.290   4.291 -0.4845  0.3119 -0.3431
17694TIP3    H274574   5.455   1.422   4.219  0.5517  0.3791 -0.4424
17695TIP3   OH274575   0.118   5.280  12.908  0.7986  0.5258  0.0844
17695TIP3    H174576   0.078   5.330  12.979  0.9960  2.0937 -0.8485
17695TIP3    H274577   0.059   5.292  12.834  1.6480  0.6670 -0.5821
17696TIP3   OH274578   6.671   6.150   3.743 -0.0790 -0.0734  0.2887
17696TIP3    H174579   6.606   6.083   3.765  0.5462 -0.2740  1.5672
17696TIP3    H274580   6.656   6.220   3.806  1.1492 -0.2670  0.8318
17697TIP3   OH274581   4.949   0.951   3.062 -0.5616  0.3940 -0.1845
17697TIP3    H174582   4.967   0.890   3.134 -1.4686  0.7862  0.3966
17697TIP3    H274583   4.933   0.894   2.986  3.1431  0.0029 -0.8412
17698TIP3   OH274584   5.497   4.597  12.466 -0.0634 -0.1388  0.4184
17698TIP3    H174585   5.497   4.542  12.545 -1.0772  1.6893  1.7804
17698TIP3    H274586   5.413   4.644  12.470  1.2674  2.4284  0.0466
17699TIP3   OH274587   3.142   4.682  13.454  0.5693 -0.0760  0.2415
17699TIP3    H174588   3.229   4.659  13.422  0.4968 -0.5333  0.3553
17699TIP3    H274589   3.154   4.694  13.549  0.6254  0.4698  0.1689
17700TIP3   OH274590   2.785   0.019   1.785 -0.0908 -0.3338 -0.4097
17700TIP3    H174591   2.726  -0.013   1.717  1.1590  0.6744 -2.0508
17700TIP3    H274592   2.751   0.105   1.807 -0.0260 -0.3215 -0.3591
17701TIP3   OH274593   3.028   6.368  14.086  0.0585  0.5554 -0.1126
17701TIP3    H174594   3.039   6.372  13.991 -2.0385  2.2055 -0.3583
17701TIP3    H274595   3.085   6.296  14.113  1.0830  0.3415 -2.5395
17702TIP3   OH274596   1.978   0.040   2.800 -0.5384 -0.1079  0.3596
17702TIP3    H174597   2.007  -0.022   2.733 -2.3566 -1.7938  1.0197
17702TIP3    H274598   2.046   0.037   2.866  0.8480  0.9164 -0.9615
17703TIP3   OH274599   5.932   2.834  14.845 -0.2934  0.1196  0.3791
17703TIP3    H174600   6.006   2.801  14.896  0.4673  0.3130 -0.5921
17703TIP3    H274601   5.878   2.756  14.829  0.8614 -0.4536 -0.8446
17704TIP3   OH274602   4.586   3.550   2.983  0.1948 -0.1248  0.4016
17704TIP3    H174603   4.602   3.644   2.995  1.2094 -0.1656 -0.5030
17704TIP3    H274604   4.531   3.526   3.057 -0.5359  1.2931  0.3653
17705TIP3   OH274605   1.163   5.218  12.852  0.3977  0.2373 -0.6447
17705TIP3    H174606   1.244   5.235  12.901 -0.2239  0.8803  0.1981
17705TIP3    H274607   1.160   5.122  12.844  0.3542  0.0766  0.8987
17706TIP3   OH274608   3.343   3.082  14.584  0.0203  0.3649  0.0852
17706TIP3    H174609   3.406   3.018  14.550  0.6911  1.5195 -0.9300
17706TIP3    H274610   3.270   3.078  14.522 -0.5324 -0.3421  0.7670
17707TIP3   OH274611   0.654   4.381  11.252  0.3407 -0.7577 -0.2144
17707TIP3    H174612   0.569   4.346  11.227 -0.1397  0.2366 -0.0652
17707TIP3    H274613   0.658   4.467  11.210  0.8648 -0.4007  0.5317
17708TIP3   OH274614   2.356   2.062   3.597 -0.0860  0.1087  0.1813
17708TIP3    H174615   2.275   2.109   3.617 -0.3796  0.1267 -0.9661
17708TIP3    H274616   2.339   1.972   3.626 -0.0562  0.3864  1.0661
17709TIP3   OH274617   5.185   4.463  13.085 -0.4445 -0.0790 -0.6269
17709TIP3    H174618   5.169   4.442  13.177 -1.2753 -0.3974 -0.8398
17709TIP3    H274619   5.280   4.455  13.075 -0.2686  0.6040  0.3526
17710TIP3   OH274620   2.150   5.630  16.126  0.2683 -0.5183  0.7523
17710TIP3    H174621   2.092   5.703  16.103 -0.8942 -1.8782 -0.9306
17710TIP3    H274622   2.193   5.658  16.206 -2.7085  0.6341  2.1191
17711TIP3   OH274623   1.430   2.969  14.243 -0.2891  0.0150 -0.9077
17711TIP3    H174624   1.448   2.888  14.290 -1.1942 -1.1082 -2.4121
17711TIP3    H274625   1.461   3.038  14.301  1.1478 -1.4270  0.1155
17712TIP3   OH274626   2.336   2.035   1.652 -0.2253  0.0010  0.6827
17712TIP3    H174627   2.399   2.041   1.581  1.4688  1.2000  2.1762
17712TIP3    H274628   2.258   1.995   1.613  1.2697 -1.0813 -1.3550
17713TIP3   OH274629   2.753   2.432  17.297  0.5509  0.0853 -0.7176
17713TIP3    H174630   2.835   2.481  17.295  1.2763 -1.0991 -1.4844
17713TIP3    H274631   2.780   2.340  17.301 -0.7634 -0.2845  0.4146
17714TIP3   OH274632   1.701   0.667  13.550 -0.2083 -0.3267 -0.1738
17714TIP3    H174633   1.671   0.576  13.555  0.0732 -0.4849 -1.1808
17714TIP3    H274634   1.658   0.703  13.473 -1.4660  0.8618  1.0134
17715TIP3   OH274635   1.513   5.234   0.742 -0.1484 -0.0184 -1.3819
17715TIP3    H174636   1.428   5.201   0.771  1.1695 -1.8119  0.8027
17715TIP3    H274637   1.571   5.158   0.748  1.9387  1.4958 -1.3409
17716TIP3   OH274638   0.314   6.379   5.723 -0.0454 -0.2866  0.3692
17716TIP3    H174639   0.384   6.327   5.682 -0.3572 -1.1342  0.8972
17716TIP3    H274640   0.334   6.376   5.816 -0.7262 -0.4382  0.5110
17717TIP3   OH274641   6.636   5.745  15.051 -0.3219  0.3457 -0.3508
17717TIP3    H174642   6.675   5.694  14.980  1.2603 -0.0745  0.7617
17717TIP3    H274643   6.695   5.733  15.125 -2.6665 -0.4659  1.5313
17718TIP3   OH274644   1.644   4.453  11.336  0.3652 -0.5306  0.4083
17718TIP3    H174645   1.651   4.419  11.425  2.6566 -1.0811  0.0947
17718TIP3    H274646   1.706   4.399  11.285 -0.1510  0.4154 -1.3027
17719TIP3   OH274647   5.909   4.095  11.775  0.3955 -0.0156  0.0959
17719TIP3    H174648   5.983   4.149  11.750  0.5485 -0.8279 -1.2995
17719TIP3    H274649   5.944   4.035  11.841  1.1316 -0.7259 -0.9144
17720TIP3   OH274650   0.488   5.092  15.403  0.4055 -0.3415 -0.0984
17720TIP3    H174651   0.408   5.145  15.400 -1.7601 -3.1182  2.5245
17720TIP3    H274652   0.508   5.074  15.311 -0.9176  1.8698 -0.8981
17721TIP3   OH274653   1.492   1.026  14.911  0.9217 -0.0232 -0.3613
17721TIP3    H174654   1.452   0.940  14.927 -0.0097 -0.0880 -2.6125
17721TIP3    H274655   1.418   1.087  14.912  1.7361  1.1060  2.7743
17722TIP3   OH274656   4.758   4.176  16.036 -0.6619 -0.3401  0.3668
17722TIP3    H174657   4.803   4.143  15.958  1.3275  0.9528  0.8763
17722TIP3    H274658   4.733   4.265  16.012  0.0690  0.1046  1.2220
17723TIP3   OH274659   2.190   4.864  14.413 -0.0832 -1.1439 -1.0725
17723TIP3    H174660   2.177   4.958  14.426  1.9879 -0.7385 -1.5816
17723TIP3    H274661   2.114   4.837  14.361 -0.4530  0.3470 -1.3743
17724TIP3   OH274662   6.415   1.313  15.498  0.3036 -0.6176 -0.0691
17724TIP3    H174663   6.373   1.256  15.562 -0.5888 -1.6282 -1.5078
17724TIP3    H274664   6.501   1.273  15.483  0.6503 -0.1910  0.7112
17725TIP3   OH274665   6.065   6.635   0.363  0.2386  0.2282  0.2408
17725TIP3    H174666   6.128   6.704   0.343 -0.4756  0.4092 -1.5385
17725TIP3    H274667   5.980   6.678   0.360 -0.1498 -0.5271  0.0919
17726TIP3   OH274668   4.576   5.510   6.360  0.0515  0.3095  0.2648
17726TIP3    H174669   4.624   5.464   6.430 -0.7973 -2.5798 -0.8943
17726TIP3    H274670   4.485   5.484   6.373 -0.2812  0.6533 -1.2125
17727TIP3   OH274671   5.489   1.037   5.397 -0.0232  0.3365 -0.5847
17727TIP3    H174672   5.575   1.028   5.437  0.2963  2.4757 -0.6831
17727TIP3    H274673   5.488   1.125   5.359 -2.8847  1.1501  1.0302
17728TIP3   OH274674   4.112   1.896  15.875 -0.3348  0.3436 -0.4932
17728TIP3    H174675   4.127   1.808  15.910 -0.6537  0.2294 -0.6392
17728TIP3    H274676   4.017   1.907  15.878 -0.3024  0.6534 -0.5512
17729TIP3   OH274677   0.178   5.196   1.362  0.7318  0.2273 -0.5510
17729TIP3    H174678   0.159   5.233   1.276 -0.1544  1.4868  0.1485
17729TIP3    H274679   0.266   5.226   1.383  0.8444  0.1400 -0.9013
17730TIP3   OH274680   0.142   6.501   6.007  0.0930 -0.4777  0.3393
17730TIP3    H174681   0.132   6.549   6.089  0.8577 -2.0796  1.4223
17730TIP3    H274682   0.235   6.506   5.988 -0.1794  0.4966 -0.8637
17731TIP3   OH274683   1.064   2.560  12.204  0.0319  0.7306  0.6991
17731TIP3    H174684   1.117   2.510  12.267 -0.0644  1.0938  1.0667
17731TIP3    H274685   1.061   2.648  12.239 -0.9913  0.6711  0.7823
17732TIP3   OH274686   1.243   0.659   3.830  0.3014 -0.3314  0.4153
17732TIP3    H174687   1.300   0.598   3.878 -0.3135 -1.7877 -0.6374
17732TIP3    H274688   1.232   0.618   3.744 -0.5001  1.0717 -0.1681
17733TIP3   OH274689   1.140   0.459  11.259  0.7705 -0.0390 -0.1235
17733TIP3    H174690   1.096   0.383  11.222 -3.2235  2.4402 -1.0628
17733TIP3    H274691   1.176   0.504  11.182  1.3249  0.0690  0.1964
17734TIP3   OH274692   5.491   5.277   3.069 -0.0654  0.1483  0.5352
17734TIP3    H174693   5.450   5.220   3.003 -0.9238  2.1523 -0.7640
17734TIP3    H274694   5.449   5.251   3.151 -1.6288 -0.0478 -0.2724
17735TIP3   OH274695   5.436   1.439   2.650 -0.7747  0.3095  0.2900
17735TIP3    H174696   5.527   1.455   2.673 -0.7760 -0.2678  0.7080
17735TIP3    H274697   5.438   1.420   2.556 -0.4676  0.2968  0.2994
17736TIP3   OH274698   4.696   5.442   3.316  0.0626 -0.1705 -0.2034
17736TIP3    H174699   4.727   5.423   3.228  1.1718  1.9233 -0.3377
17736TIP3    H274700   4.775   5.468   3.364 -0.8022  0.7934  0.7735
17737TIP3   OH274701   1.758   5.351  12.951 -0.2336  0.1896  0.2704
17737TIP3    H174702   1.729   5.296  12.878  1.0343  0.1349 -0.2110
17737TIP3    H274703   1.854   5.346  12.949 -0.1620  0.2357  1.9069
17738TIP3   OH274704   3.955   2.559  13.170 -0.1291 -0.0862  0.6343
17738TIP3    H174705   4.040   2.549  13.126 -0.0481  2.1147  0.1257
17738TIP3    H274706   3.939   2.654  13.166 -2.6118 -0.4584  0.7086
17739TIP3   OH274707   0.019   1.357   0.805  0.7719 -0.8673  0.2304
17739TIP3    H174708   0.067   1.276   0.820  1.5855 -0.5990 -0.8202
17739TIP3    H274709   0.077   1.410   0.750  0.5908  0.7578  1.5449
17740TIP3   OH274710   2.931   0.398   2.792  0.1418 -0.0735 -0.3474
17740TIP3    H174711   2.993   0.439   2.732 -0.4500  1.4834  0.0621
17740TIP3    H274712   2.938   0.304   2.774  1.2736  0.2273 -1.5767
17741TIP3   OH274713   5.272   0.652  11.926  0.5658 -0.8484  0.0187
17741TIP3    H174714   5.268   0.598  11.847  0.8446 -0.6093 -0.1595
17741TIP3    H274715   5.276   0.589  11.998  0.0288 -1.0712 -0.1395
17742TIP3   OH274716   3.162   6.175   3.201  0.0934  0.2151  0.3826
17742TIP3    H174717   3.140   6.134   3.285  1.6578  3.0744  2.3434
17742TIP3    H274718   3.244   6.133   3.174 -1.4190 -2.1539 -0.9137
17743TIP3   OH274719   1.672   5.391  11.941  0.0058 -0.2857 -0.3359
17743TIP3    H174720   1.740   5.323  11.943  0.0989 -0.2014 -0.5485
17743TIP3    H274721   1.659   5.407  11.847  0.9872  0.9900 -0.2837
17744TIP3   OH274722   3.101   6.252  12.500  0.1508  0.8496  0.1684
17744TIP3    H174723   3.136   6.311  12.433  1.7255 -1.5657 -1.2619
17744TIP3    H274724   3.175   6.233  12.557 -0.5590  0.8864  1.1313
17745TIP3   OH274725   3.400   1.015   2.099 -0.1560 -0.1508 -0.4169
17745TIP3    H174726   3.458   1.072   2.049  0.8825  1.4127  2.3147
17745TIP3    H274727   3.316   1.020   2.055  0.3440  2.2112 -1.2127
17746TIP3   OH274728   1.974   4.851  15.298 -0.1369 -0.3943  0.2596
17746TIP3    H174729   2.054   4.803  15.275  0.9620  0.8480  1.3067
17746TIP3    H274730   2.006   4.931  15.339 -1.9330  0.6655 -0.3163
17747TIP3   OH274731   3.393   4.842  16.486  0.4911  0.3044 -0.1140
17747TIP3    H174732   3.431   4.764  16.528 -1.8407 -0.1357  1.3928
17747TIP3    H274733   3.469   4.895  16.462  2.1085 -1.4993  0.6363
17748TIP3   OH274734   0.022   1.022   5.416  0.4396  0.3710  0.1335
17748TIP3    H174735   0.091   1.071   5.461  0.4005 -0.8909  1.6148
17748TIP3    H274736   0.006   0.946   5.471 -1.7231  0.3144 -0.5022
17749TIP3   OH274737   6.145   1.475   4.981  0.4030  0.1555  0.2401
17749TIP3    H174738   6.078   1.482   4.914  0.3776  2.5827  0.4308
17749TIP3    H274739   6.227   1.494   4.935  0.4461  1.2804  0.7360
17750TIP3   OH274740   6.635   1.963   5.777  0.7406 -0.6112 -0.1979
17750TIP3    H174741   6.677   1.887   5.817 -0.5009 -1.2549 -0.0431
17750TIP3    H274742   6.629   2.027   5.847  0.0576 -1.1193  0.2321
17751TIP3   OH274743   3.705   5.476   1.111 -0.1232  0.6932 -0.3429
17751TIP3    H174744   3.776   5.481   1.048 -0.3150 -0.0300 -0.6290
17751TIP3    H274745   3.724   5.544   1.175  0.5197  0.8756 -0.7257
17752TIP3   OH274746   4.474   2.684   3.557  0.5315 -0.0993  0.0459
17752TIP3    H174747   4.461   2.592   3.580  1.8545  0.1153  1.8609
17752TIP3    H274748   4.412   2.731   3.613  0.5314  0.1674 -0.1791
17753TIP3   OH274749   2.856   3.097  15.574 -0.5221  0.2453  0.0795
17753TIP3    H174750   2.948   3.123  15.574 -0.0796 -1.0535 -1.9824
17753TIP3    H274751   2.809   3.175  15.603  1.0770  1.7225 -1.0712
17754TIP3   OH274752   6.600   6.602   3.085  0.3851 -0.4797  0.3056
17754TIP3    H174753   6.526   6.588   3.145 -2.5939  2.5262 -2.2260
17754TIP3    H274754   6.667   6.645   3.138  0.4729 -3.2554  2.6969
17755TIP3   OH274755   4.043   3.925  13.570 -0.6588 -0.3266 -0.1430
17755TIP3    H174756   3.954   3.908  13.601 -0.1792 -2.3368  0.2908
17755TIP3    H274757   4.098   3.907  13.647  0.2305 -0.8615 -0.8861
17756TIP3   OH274758   1.576   5.959   5.334  0.2487 -0.1526 -0.1382
17756TIP3    H174759   1.558   6.053   5.333 -0.4039 -0.2674 -0.0554
17756TIP3    H274760   1.637   5.947   5.407  2.5467  0.5545 -1.8146
17757TIP3   OH274761   6.388   0.344   2.316  0.4730  0.4524  0.0662
17757TIP3    H174762   6.409   0.256   2.347 -2.5300 -0.8655 -1.3151
17757TIP3    H274763   6.385   0.336   2.221  2.2521  2.6536 -0.2701
17758TIP3   OH274764   0.272   0.783   5.776  0.0353  0.0549 -0.6079
17758TIP3    H174765   0.190   0.747   5.744 -0.3114  0.1739  0.1057
17758TIP3    H274766   0.321   0.806   5.698  0.0490 -1.4727 -1.0654
17759TIP3   OH274767   3.059   3.607  13.660 -0.3005  0.0657  0.0503
17759TIP3    H174768   2.975   3.618  13.706 -1.6281 -0.5560 -2.0948
17759TIP3    H274769   3.068   3.687  13.608  0.4590  0.1351  0.2828
17760TIP3   OH274770   1.910   3.365  16.255 -0.2889 -0.2652  1.1090
17760TIP3    H174771   1.835   3.375  16.196 -1.2008 -4.8316  1.0769
17760TIP3    H274772   1.985   3.352  16.196  0.0827  1.4989  1.1319
17761TIP3   OH274773   0.942   4.345   4.766 -0.0072 -0.3860 -0.4154
17761TIP3    H174774   0.892   4.316   4.842 -0.3877  1.1834 -0.0209
17761TIP3    H274775   0.877   4.356   4.697  0.1229 -0.4264 -0.5462
17762TIP3   OH274776   0.601   3.275   1.279 -0.1154 -0.8088  0.3637
17762TIP3    H174777   0.616   3.326   1.359  0.4957 -1.9140  0.9820
17762TIP3    H274778   0.672   3.211   1.278  1.2746  0.6286 -2.3133
17763TIP3   OH274779   0.481   4.689   2.876  0.0175 -0.4755  0.2053
17763TIP3    H174780   0.413   4.754   2.864  1.3578  0.5759 -2.5490
17763TIP3    H274781   0.463   4.622   2.810  2.1590  0.3929 -1.3917
17764TIP3   OH274782   5.061   1.652  14.457  0.2716 -0.0272  0.1581
17764TIP3    H174783   5.001   1.577  14.465 -0.4081  0.5026  0.1254
17764TIP3    H274784   5.066   1.688  14.545  0.7302 -0.2054  0.2066
17765TIP3   OH274785   1.544   4.719  14.094  0.1873  0.4197  0.6121
17765TIP3    H174786   1.465   4.675  14.125  0.8632  0.2510  2.1618
17765TIP3    H274787   1.583   4.658  14.031 -1.2354  0.7880 -0.6756
17766TIP3   OH274788   1.040   1.236  13.782  0.5914  0.4124  0.2437
17766TIP3    H174789   0.980   1.162  13.793  0.4291  0.6701  1.1927
17766TIP3    H274790   0.985   1.313  13.793  1.2112  0.6524  1.9300
17767TIP3   OH274791   4.176   0.326   1.296  0.1797 -0.1721  0.3598
17767TIP3    H174792   4.134   0.395   1.245 -0.6177 -0.7870  0.1746
17767TIP3    H274793   4.128   0.246   1.274  2.3885 -1.2162 -1.0541
17768TIP3   OH274794   3.819   2.433  12.259  0.1261 -0.1124 -0.0080
17768TIP3    H174795   3.810   2.354  12.313  0.7720 -0.6498 -0.6588
17768TIP3    H274796   3.730   2.451  12.228 -0.1523 -0.1319  0.7673
17769TIP3   OH274797   1.199   0.361  14.153  0.0762  0.1192 -0.1162
17769TIP3    H174798   1.207   0.277  14.107  0.3745  0.5942 -0.9622
17769TIP3    H274799   1.256   0.352  14.230  0.1488 -0.4354 -0.2304
17770TIP3   OH274800   3.393   3.308  15.951 -0.0125 -0.1361 -0.4916
17770TIP3    H174801   3.326   3.274  15.892  0.7465 -0.6389 -1.0945
17770TIP3    H274802   3.361   3.286  16.039  0.2652 -2.1438 -0.8389
17771TIP3   OH274803   5.437   2.357   3.098 -0.0827  0.2605 -0.5671
17771TIP3    H174804   5.438   2.262   3.110  2.0246  0.1421 -1.3633
17771TIP3    H274805   5.436   2.370   3.003 -0.1550  1.0372 -0.4682
17772TIP3   OH274806   4.053   3.950  15.668 -0.0969  0.2570 -0.3282
17772TIP3    H174807   4.082   4.032  15.627 -1.3840  1.1610  0.5082
17772TIP3    H274808   4.129   3.922  15.719  0.9353  0.0146 -1.9023
17773TIP3   OH274809   0.647   4.207  12.832  0.3837  0.3646 -0.3374
17773TIP3    H174810   0.578   4.142  12.841  0.5773 -0.5321 -3.7985
17773TIP3    H274811   0.722   4.157  12.800  0.5102  2.2146 -3.2077
17774TIP3   OH274812   6.408   4.499   5.277  0.2378  0.2787  0.1029
17774TIP3    H174813   6.382   4.415   5.316  1.7725  0.7373  2.2569
17774TIP3    H274814   6.468   4.475   5.207  0.1528 -0.4328  0.2660
17775TIP3   OH274815   6.429   3.413  17.347 -0.3448  0.6379  0.2682
17775TIP3    H174816   6.445   3.452  17.261  0.2486 -0.2898 -0.0602
17775TIP3    H274817   6.481   3.466  17.408 -2.0873  2.3809  0.3639
17776TIP3   OH274818   2.835   1.483   1.208 -0.0357 -0.5625 -0.4068
17776TIP3    H174819   2.901   1.424   1.170  0.2692  0.2213 -1.1335
17776TIP3    H274820   2.775   1.425   1.255  1.1925 -1.2985  0.3176
17777TIP3   OH274821   3.038   2.295   0.562 -0.1151 -0.2728 -0.3809
17777TIP3    H174822   2.944   2.283   0.557  0.0456 -1.9989  0.0697
17777TIP3    H274823   3.074   2.235   0.498  0.7301 -1.0577  0.7823
17778TIP3   OH274824   6.523   1.708   4.075  0.4045  0.0218  0.0282
17778TIP3    H174825   6.554   1.620   4.093  0.3034 -0.2397 -0.9865
17778TIP3    H274826   6.546   1.759   4.153  3.7292 -0.0339 -0.7784
17779TIP3   OH274827   4.423   5.345   3.333  0.1052  0.0986  0.0041
17779TIP3    H174828   4.384   5.430   3.353 -0.5135 -0.5104  1.4739
17779TIP3    H274829   4.515   5.355   3.358 -0.1187  0.1285  0.8375
17780TIP3   OH274830   2.220   2.205  13.745 -0.3981 -0.4582  0.2675
17780TIP3    H174831   2.307   2.182  13.776  0.0677 -1.4327 -1.5872
17780TIP3    H274832   2.182   2.257  13.815  0.1750 -3.2236  2.8534
17781TIP3   OH274833   0.067   2.321  16.693  0.3792  0.4082  0.0716
17781TIP3    H174834   0.050   2.228  16.708  0.5815 -0.0056 -1.9511
17781TIP3    H274835   0.147   2.339  16.743  0.0811 -0.3819  0.8543
17782TIP3   OH274836   1.045   4.952   2.002 -0.2090 -0.0277 -0.3768
17782TIP3    H174837   1.024   5.024   1.942 -0.0421  0.7285  0.4474
17782TIP3    H274838   1.102   4.894   1.951 -0.6938  0.1857 -1.1930
17783TIP3   OH274839   0.850   5.014  13.723 -0.1021 -0.4484  0.2099
17783TIP3    H174840   0.804   5.098  13.723 -0.7972 -0.8070 -0.7346
17783TIP3    H274841   0.858   4.991  13.630  1.3454 -0.7548  0.3883
17784TIP3   OH274842   6.205   4.374   4.423  0.3386  0.0287  0.4359
17784TIP3    H174843   6.213   4.457   4.470 -0.7527  0.8770 -0.7999
17784TIP3    H274844   6.159   4.397   4.342  2.0463 -1.3983 -1.0101
17785TIP3   OH274845   3.997   6.320  16.311  0.3221  0.2538 -0.1802
17785TIP3    H174846   3.935   6.291  16.244  1.5305  0.3106 -1.3770
17785TIP3    H274847   4.044   6.240  16.337 -0.1056  0.2398  0.5813
17786TIP3   OH274848   1.533   5.093   1.222 -0.5240 -0.0255 -0.4906
17786TIP3    H174849   1.444   5.122   1.240 -0.0737  1.6843 -0.8086
17786TIP3    H274850   1.531   4.998   1.235 -2.2515  0.0490  0.0051
17787TIP3   OH274851   1.620   1.364  14.616  0.1345  0.8825 -0.0063
17787TIP3    H174852   1.634   1.384  14.524 -0.1905 -0.7269 -0.4285
17787TIP3    H274853   1.708   1.354  14.652  0.2765  1.9301 -0.0174
17788TIP3   OH274854   3.732   1.110   5.224  0.3404  0.2741  0.6127
17788TIP3    H174855   3.691   1.157   5.152 -0.8801 -0.8148  0.5518
17788TIP3    H274856   3.820   1.091   5.193  0.1167  0.5826 -0.2475
17789TIP3   OH274857   2.865   2.505   0.288  0.1954 -0.7361  0.2300
17789TIP3    H174858   2.872   2.567   0.360 -0.0939 -0.4946  0.0523
17789TIP3    H274859   2.779   2.523   0.249  0.2591 -1.0086 -0.0397
17790TIP3   OH274860   4.923   1.173  12.851 -0.5582 -0.6024  0.9501
17790TIP3    H174861   4.932   1.262  12.886  2.7981 -0.6235  0.5555
17790TIP3    H274862   4.969   1.177  12.767  1.4674 -3.0928  1.8135
17791TIP3   OH274863   5.311   6.044  14.365 -0.9868 -0.2177 -0.3369
17791TIP3    H174864   5.281   6.082  14.282 -1.6383 -0.0867 -0.0484
17791TIP3    H274865   5.384   5.987  14.341 -0.6937  0.3991 -0.9067
17792TIP3   OH274866   2.611   2.558   0.148 -0.3829 -0.1802 -0.3034
17792TIP3    H174867   2.625   2.505   0.069  0.1174 -1.4807  0.6323
17792TIP3    H274868   2.523   2.534   0.176 -0.2226 -0.3927  0.0218
17793TIP3   OH274869   2.995   0.106   5.436 -0.3121 -0.4461 -0.6999
17793TIP3    H174870   2.921   0.167   5.431  0.8555  1.0081 -1.2974
17793TIP3    H274871   3.073   0.163   5.429  0.8679 -1.8988  0.0126
17794TIP3   OH274872   0.202   2.718   6.107 -0.0362 -0.2619  0.3840
17794TIP3    H174873   0.203   2.809   6.078 -1.7447 -0.2921  0.1534
17794TIP3    H274874   0.217   2.723   6.202 -1.0671  0.3564  0.5322
17795TIP3   OH274875   3.481   1.364   5.628 -0.0163 -0.1415 -0.1729
17795TIP3    H174876   3.472   1.410   5.544  1.3707  1.2734  0.4066
17795TIP3    H274877   3.560   1.312   5.618  2.7630  3.2892  1.5354
17796TIP3   OH274878   6.296   2.546   0.847  0.1431 -0.2181  0.4266
17796TIP3    H174879   6.275   2.553   0.940  0.1044  1.3374  0.3321
17796TIP3    H274880   6.390   2.561   0.842  0.4481 -1.9366  0.3426
17797TIP3   OH274881   1.320   4.887   2.294  0.4265 -0.4914  0.1560
17797TIP3    H174882   1.347   4.969   2.336  0.3598 -0.4403  0.0985
17797TIP3    H274883   1.234   4.906   2.257  1.5100  0.2220 -2.1810
17798TIP3   OH274884   1.764   0.141  11.716 -0.5791 -0.3953 -0.1690
17798TIP3    H174885   1.773   0.207  11.647 -0.1427  0.6750  0.8760
17798TIP3    H274886   1.808   0.063  11.680 -0.3970  0.1188 -1.1055
17799TIP3   OH274887   0.010   4.158  15.908  0.1065 -0.1678 -0.2290
17799TIP3    H174888  -0.025   4.208  15.981  0.3353 -0.2233 -0.0801
17799TIP3    H274889   0.099   4.135  15.935  0.4179  0.3582 -0.7954
17800TIP3   OH274890   1.477   5.371  12.788  0.0835  0.0112 -0.1941
17800TIP3    H174891   1.432   5.387  12.704 -2.4655 -0.0542  1.0571
17800TIP3    H274892   1.504   5.457  12.817  1.5907 -0.0322 -1.3483
17801TIP3   OH274893   1.134   5.863  16.575  0.5303  0.0562  0.3444
17801TIP3    H174894   1.174   5.795  16.629  2.4420  2.0726  1.6533
17801TIP3    H274895   1.083   5.815  16.510 -1.5544 -2.5610  3.5708
17802TIP3   OH274896   6.309   3.870   1.411 -0.1719 -0.0342  0.1688
17802TIP3    H174897   6.383   3.814   1.390 -0.4975 -0.4929  0.2261
17802TIP3    H274898   6.348   3.947   1.453  0.2808 -0.2027  0.0581
17803TIP3   OH274899   0.580   1.211  15.991  0.0163  0.1027  0.0312
17803TIP3    H174900   0.608   1.120  15.995 -0.4924 -0.0297  0.7246
17803TIP3    H274901   0.545   1.222  15.902 -2.1397 -1.0490  0.6730
17804TIP3   OH274902   0.767   4.858  13.959 -0.0139  0.6999  0.3603
17804TIP3    H174903   0.812   4.874  13.876 -1.2983  1.0047 -0.3168
17804TIP3    H274904   0.746   4.764  13.956  0.1601  0.6580  0.4551
17805TIP3   OH274905   3.855   5.602  11.338 -0.2164 -0.0663 -0.4291
17805TIP3    H174906   3.805   5.595  11.419 -2.2065 -0.3922 -1.6115
17805TIP3    H274907   3.790   5.591  11.269  1.8869 -3.7479 -2.1334
17806TIP3   OH274908   5.830   4.327   5.914  0.2569  0.0264 -0.7333
17806TIP3    H174909   5.748   4.372   5.894 -0.8516 -0.7828  1.6042
17806TIP3    H274910   5.833   4.323   6.010  2.2871 -1.3321 -0.7780
17807TIP3   OH274911   1.814   4.218  13.286  0.6776  0.2024  0.1065
17807TIP3    H174912   1.856   4.256  13.209 -1.0375  0.3190 -0.8265
17807TIP3    H274913   1.806   4.125  13.265 -0.8926  0.4264 -0.4417
17808TIP3   OH274914   4.874   3.222  11.606  0.2751  0.6040 -0.7658
17808TIP3    H174915   4.868   3.306  11.562 -0.7935 -0.1463 -2.1308
17808TIP3    H274916   4.954   3.182  11.572  0.7012  0.9890 -0.2308
17809TIP3   OH274917   2.121   4.299  12.357 -0.0045  0.4815 -0.1075
17809TIP3    H174918   2.075   4.356  12.419 -2.8728 -0.7648 -0.9243
17809TIP3    H274919   2.086   4.211  12.375 -0.1478 -0.0759 -2.7706
17810TIP3   OH274920   4.286   3.524  16.651  0.4061  0.6199  0.4521
17810TIP3    H174921   4.227   3.581  16.602 -0.0189 -0.3050 -0.1432
17810TIP3    H274922   4.317   3.578  16.724 -1.0399  1.1807  0.6836
17811TIP3   OH274923   2.432   0.264  15.059  0.7488  0.6035  0.3695
17811TIP3    H174924   2.428   0.242  15.152  1.1911 -2.4259 -0.2378
17811TIP3    H274925   2.352   0.226  15.021  2.6157 -2.1722 -1.1147
17812TIP3   OH274926   6.303   0.067   1.987  0.0081 -0.2855 -0.1577
17812TIP3    H174927   6.362   0.033   2.055 -2.2416  0.4996  2.3757
17812TIP3    H274928   6.248  -0.008   1.964  0.2606 -0.3489 -0.5724
17813TIP3   OH274929   6.257   3.765   0.771 -0.0276  0.4147  0.1726
17813TIP3    H174930   6.233   3.684   0.726 -0.0166  0.5278 -0.0349
17813TIP3    H274931   6.196   3.769   0.845  0.2320  0.0125  0.4144
17814TIP3   OH274932   1.354   3.585   3.261  0.4239 -0.3419  0.5532
17814TIP3    H174933   1.263   3.577   3.289  0.6044  1.1481  1.6474
17814TIP3    H274934   1.374   3.500   3.222 -1.5986 -0.5103 -0.2359
17815TIP3   OH274935   5.061   0.533   5.364  0.1568 -0.2007 -0.1554
17815TIP3    H174936   5.142   0.493   5.393 -0.2414 -0.5659  0.4797
17815TIP3    H274937   4.999   0.460   5.355 -0.4851  0.2148  0.7140
17816TIP3   OH274938   1.681   4.094  12.278  0.1902  0.5196  0.6068
17816TIP3    H174939   1.637   4.178  12.263  1.7621  0.9186 -2.8247
17816TIP3    H274940   1.615   4.028  12.259  0.4928  1.1113 -3.3400
17817TIP3   OH274941   0.053   6.033   1.192 -0.5060 -0.7278 -0.1664
17817TIP3    H174942  -0.022   6.037   1.251 -0.6155  0.0684 -0.3482
17817TIP3    H274943   0.092   6.121   1.196  1.3113 -1.5429  1.0698
17818TIP3   OH274944   0.922   3.931  16.951  1.0204  0.1974  0.3330
17818TIP3    H174945   1.009   3.945  16.915  1.2855 -1.5625  0.2013
17818TIP3    H274946   0.928   3.958  17.042  1.4588  0.8908  0.1009
17819TIP3   OH274947   1.130   3.690   0.782  0.1746 -0.3464  0.0998
17819TIP3    H174948   1.135   3.594   0.786 -1.5970 -0.4220  1.3064
17819TIP3    H274949   1.171   3.720   0.862 -1.2881 -0.2275  0.8400
17820TIP3   OH274950   0.470   5.136   2.007 -0.4491 -0.7128 -0.2927
17820TIP3    H174951   0.535   5.203   2.025 -0.5122 -0.1637 -2.0038
17820TIP3    H274952   0.386   5.182   2.013 -0.4998 -0.6500 -1.3254
17821TIP3   OH274953   2.851   4.198  11.527  0.2477  0.0432 -0.4523
17821TIP3    H174954   2.905   4.273  11.503 -2.0478  1.0044 -3.1013
17821TIP3    H274955   2.794   4.231  11.596  1.8759 -0.5583  1.2924
17822TIP3   OH274956   1.347   3.663   3.902  0.1008  0.1038 -0.5342
17822TIP3    H174957   1.420   3.606   3.924  2.2870  1.8453 -2.6808
17822TIP3    H274958   1.344   3.727   3.973  0.8792  0.1653 -0.5465
17823TIP3   OH274959   1.988   0.041   3.874 -0.4370 -0.3089 -0.3863
17823TIP3    H174960   1.939  -0.030   3.914 -0.8425  0.3284  0.2791
17823TIP3    H274961   2.020   0.092   3.948  1.7444 -1.0213 -0.7688
17824TIP3   OH274962   1.157   3.563  14.301  0.2501  0.8682  0.3080
17824TIP3    H174963   1.200   3.481  14.276 -0.6183  1.0175 -1.9836
17824TIP3    H274964   1.218   3.607  14.359  0.7260 -1.4021  1.6294
17825TIP3   OH274965   0.078   2.313   0.543 -0.3782  0.3930  0.1497
17825TIP3    H174966  -0.003   2.264   0.530 -0.5837  0.0567  2.3221
17825TIP3    H274967   0.055   2.403   0.518 -0.0688 -0.4206 -3.6113
17826TIP3   OH274968   3.989   2.463   6.515 -0.0977 -0.1682 -0.0346
17826TIP3    H174969   4.065   2.480   6.460 -0.8427 -1.9671 -1.7525
17826TIP3    H274970   3.975   2.545   6.563  3.5551 -0.0821  1.2594
17827TIP3   OH274971   0.777   3.938   6.347  0.1543 -0.4335 -0.5546
17827TIP3    H174972   0.805   4.010   6.290 -0.5535  0.7936  0.5852
17827TIP3    H274973   0.698   3.903   6.306  0.2424 -0.2565 -0.8776
17828TIP3   OH274974   6.326   3.690  13.575  0.3787 -0.0113  0.2069
17828TIP3    H174975   6.320   3.776  13.617  1.4746  0.7396 -1.0469
17828TIP3    H274976   6.369   3.634  13.639 -0.0181  0.4799  0.9081
17829TIP3   OH274977   5.049   1.477   1.116 -0.0416 -0.2885  0.5905
17829TIP3    H174978   4.990   1.405   1.140  1.0927 -1.4592  0.0102
17829TIP3    H274979   4.993   1.541   1.072 -1.5582  0.3640  3.2449
17830TIP3   OH274980   4.603   5.664   2.757  0.7452 -0.1736 -0.5692
17830TIP3    H174981   4.636   5.753   2.765  2.0365 -0.6979  0.2683
17830TIP3    H274982   4.621   5.640   2.666 -1.0184  0.9149 -1.2597
17831TIP3   OH274983   6.242   0.618   3.988 -0.0088  0.4660 -0.4527
17831TIP3    H174984   6.283   0.705   3.979 -0.7105  0.8130 -0.3815
17831TIP3    H274985   6.299   0.571   4.048  0.8132  0.6020 -1.1062
17832TIP3   OH274986   0.496   3.560  15.604 -0.3271 -0.2911 -0.3020
17832TIP3    H174987   0.478   3.643  15.560  1.3362  0.2041 -0.1136
17832TIP3    H274988   0.539   3.506  15.537  1.7318  0.2740  0.4818
17833TIP3   OH274989   4.196   5.451  14.577 -0.3683  0.1600  0.2424
17833TIP3    H174990   4.177   5.530  14.629 -0.1915 -0.9162  2.0052
17833TIP3    H274991   4.161   5.472  14.491 -0.5254  2.0912  0.7079
17834TIP3   OH274992   6.308   0.058  13.606 -0.1170  0.0708 -0.0081
17834TIP3    H174993   6.325   0.058  13.700 -1.0502  0.1673  0.1740
17834TIP3    H274994   6.271  -0.028  13.588  1.7978 -0.6795 -0.6534
17835TIP3   OH274995   1.864   4.780  14.014  0.3047  0.0814  0.0443
17835TIP3    H174996   1.843   4.698  14.058 -1.4195  0.1744 -0.5369
17835TIP3    H274997   1.899   4.754  13.929  2.0694 -0.0576  0.7580
17836TIP3   OH274998   4.645   3.774   0.579  0.3559  0.1375  0.3756
17836TIP3    H174999   4.599   3.829   0.516  0.2204  0.6404  0.9040
17836TIP3    H275000   4.613   3.803   0.665  2.4353  1.2730  0.8388
17837TIP3   OH275001   1.886   6.698   3.107  0.3743  0.2634  0.8754
17837TIP3    H175002   1.919   6.629   3.049 -2.2587 -0.2853 -0.0840
17837TIP3    H275003   1.927   6.678   3.192  0.6325 -1.7620  0.3397
17838TIP3   OH275004   4.548   2.024  11.799 -0.0085  0.3175  0.3396
17838TIP3    H175005   4.573   1.991  11.885  0.5229 -1.9528 -0.5915
17838TIP3    H275006   4.529   1.945  11.748 -3.1006  1.6701 -0.8460
17839TIP3   OH275007   0.693   6.704   0.184  0.5633  0.4444 -0.1236
17839TIP3    H175008   0.681   6.651   0.263  0.8134 -0.1571 -0.4841
17839TIP3    H275009   0.701   6.794   0.216 -1.9508  0.5690  0.3894
17840TIP3   OH275010   2.787   3.692  11.684 -0.0340  0.0753 -0.5790
17840TIP3    H175011   2.834   3.682  11.766  0.6192  2.2358 -0.6266
17840TIP3    H275012   2.855   3.688  11.616  0.0766  2.4714 -0.6929
17841TIP3   OH275013   0.936   2.593   5.283 -0.1623  0.8212  0.2094
17841TIP3    H175014   0.945   2.501   5.260  2.3566  0.2171  2.9959
17841TIP3    H275015   0.900   2.634   5.204 -1.7997 -2.5415 -0.9882
17842TIP3   OH275016   3.834   0.852  13.806 -0.4673  0.4835 -0.7614
17842TIP3    H175017   3.743   0.840  13.779 -0.7692  0.7555  0.0995
17842TIP3    H275018   3.849   0.946  13.798 -0.8345  0.7008  0.7909
17843TIP3   OH275019   4.784   2.491   0.624  0.3066  0.4306 -0.3140
17843TIP3    H175020   4.872   2.460   0.600 -0.5077 -0.2035 -2.7540
17843TIP3    H275021   4.736   2.412   0.646 -0.0374  0.6559 -0.2522
17844TIP3   OH275022   3.938   5.187  14.230 -0.4200  0.4487  0.1789
17844TIP3    H175023   3.915   5.155  14.143  1.1067  0.9338 -0.4420
17844TIP3    H275024   3.860   5.232  14.261 -0.9769  0.3049 -0.9583
17845TIP3   OH275025   5.806   6.163  15.021 -0.2705  0.1473  0.9281
17845TIP3    H175026   5.883   6.151  15.077 -1.0304 -1.9011  1.6283
17845TIP3    H275027   5.842   6.174  14.933  0.8391 -1.4886  1.1417
17846TIP3   OH275028   1.506   1.959   2.940  0.4300  0.1318  0.7029
17846TIP3    H175029   1.490   2.027   2.875 -0.5124 -0.8140 -0.1077
17846TIP3    H275030   1.485   2.000   3.024 -1.9058  0.3580  0.0771
17847TIP3   OH275031   4.820   3.691  17.092  0.2875 -0.3172 -0.4391
17847TIP3    H175032   4.823   3.711  17.186  0.9256 -1.7282 -0.1436
17847TIP3    H275033   4.740   3.734  17.062  1.1501  2.0171  0.2837
17848TIP3   OH275034   3.882   6.679   5.031  0.1797 -0.7354  0.0876
17848TIP3    H175035   3.792   6.696   5.005  0.1526 -1.1115 -0.0800
17848TIP3    H275036   3.923   6.766   5.037 -0.5454 -0.4716  1.5143
17849TIP3   OH275037   6.164   2.592   2.643 -0.4683  0.1410 -0.0942
17849TIP3    H175038   6.208   2.617   2.562  0.5762  0.9143  0.6890
17849TIP3    H275039   6.228   2.610   2.712 -0.5521 -2.4704  0.7443
17850TIP3   OH275040   4.626   4.314   5.119  0.6637 -0.5876 -0.0155
17850TIP3    H175041   4.562   4.304   5.049 -1.8690  0.0221  2.0413
17850TIP3    H275042   4.622   4.231   5.167  0.3693 -0.0395  0.9269
17851TIP3   OH275043   6.677   4.686  12.066  0.6957  0.0321  0.6918
17851TIP3    H175044   6.713   4.720  12.148  1.2131 -0.0969  0.5240
17851TIP3    H275045   6.734   4.612  12.044  0.1835 -0.3272  0.5399
17852TIP3   OH275046   5.707   0.861  13.473  0.5059  0.1060 -0.2090
17852TIP3    H175047   5.741   0.941  13.512 -0.5049  1.1964 -1.4795
17852TIP3    H275048   5.760   0.849  13.394 -0.1620  0.2420 -0.6867
17853TIP3   OH275049   6.043   6.555   4.099 -0.6973  0.1010 -0.5580
17853TIP3    H175050   5.987   6.605   4.158 -0.7221  0.3713 -0.8109
17853TIP3    H275051   6.076   6.619   4.036  0.2810  0.0329 -0.1274
17854TIP3   OH275052   2.250   5.287   3.657 -0.3866 -0.2892  0.1907
17854TIP3    H175053   2.163   5.269   3.619 -0.4728  0.1477  0.1734
17854TIP3    H275054   2.246   5.251   3.745 -1.6617  2.3887  1.3297
17855TIP3   OH275055   2.457   6.203   3.139 -0.2924 -0.0252 -0.7080
17855TIP3    H175056   2.519   6.133   3.160  2.1874  1.9647 -0.9799
17855TIP3    H275057   2.444   6.196   3.045  0.1588  0.0315 -0.7765
17856TIP3   OH275058   3.242   5.235   2.863 -0.2076 -0.2211  0.6994
17856TIP3    H175059   3.330   5.201   2.849  0.3200  0.2047  2.5794
17856TIP3    H275060   3.237   5.313   2.808  1.4583  1.0165  2.1811
17857TIP3   OH275061   0.181   2.824  16.945  0.0316  0.1139 -0.0511
17857TIP3    H175062   0.180   2.782  17.031  0.9396  1.1832  0.5187
17857TIP3    H275063   0.256   2.785  16.900 -1.4055 -1.6717 -1.0612
17858TIP3   OH275064   0.115   2.578   5.752  0.3064 -0.1220 -0.0847
17858TIP3    H175065   0.161   2.654   5.788 -1.0818  0.6032  0.2237
17858TIP3    H275066   0.074   2.611   5.672 -0.9073 -0.3447  0.4342
17859TIP3   OH275067   3.226   0.257   5.416  0.0904  0.3784 -0.6407
17859TIP3    H175068   3.178   0.334   5.385  1.4382  1.9713  1.0019
17859TIP3    H275069   3.315   0.268   5.381  0.5783  0.1681  0.4702
17860TIP3   OH275070   1.535   1.687  14.207 -0.1689  0.1241 -0.5261
17860TIP3    H175071   1.447   1.705  14.174 -0.4297  1.1504  0.6338
17860TIP3    H275072   1.593   1.740  14.153 -0.2902 -0.3538 -1.1261
17861TIP3   OH275073   0.833   1.839   1.323  0.3564 -0.5012 -0.4118
17861TIP3    H175074   0.891   1.897   1.372 -0.6929  0.3086 -0.0790
17861TIP3    H275075   0.755   1.892   1.306  0.0604 -1.2736 -1.6101
17862TIP3   OH275076   4.196   6.012   0.214  0.1471 -0.0931 -0.1565
17862TIP3    H175077   4.125   5.963   0.254  0.2093 -0.7293 -0.7949
17862TIP3    H275078   4.153   6.089   0.176 -0.0660 -0.0324  0.2041
17863TIP3   OH275079   3.975   1.311  11.187  0.0013  0.3220  0.5508
17863TIP3    H175080   3.985   1.405  11.171 -0.8226  0.5182  1.0947
17863TIP3    H275081   4.024   1.269  11.117 -0.1948  1.1574 -0.1036
17864TIP3   OH275082   1.413   0.940   4.986  0.1374 -0.1578 -0.7042
17864TIP3    H175083   1.482   0.953   4.921  0.9497  0.9783  0.3644
17864TIP3    H275084   1.456   0.948   5.070 -0.6936 -2.6917  0.0582
17865TIP3   OH275085   4.245   6.204   2.687 -0.5460 -0.2918  0.7849
17865TIP3    H175086   4.172   6.152   2.653  0.2685 -0.0187 -1.5431
17865TIP3    H275087   4.320   6.144   2.684  0.0047  0.4164 -0.1058
17866TIP3   OH275088   3.608   5.862   4.694 -0.3606  0.1028 -0.1598
17866TIP3    H175089   3.696   5.893   4.716 -1.2848  1.9425  1.2011
17866TIP3    H275090   3.616   5.833   4.603  1.6893  0.0175 -0.0124
17867TIP3   OH275091   1.654   5.001   3.776  0.0674  0.1043 -0.3499
17867TIP3    H175092   1.740   4.959   3.770  0.6693  1.4591 -2.5557
17867TIP3    H275093   1.597   4.944   3.724 -0.8505 -1.6655  2.4065
17868TIP3   OH275094   1.099   3.493  11.633  0.4107 -0.6677 -0.2599
17868TIP3    H175095   1.173   3.552  11.647 -0.8921  0.7700  0.9121
17868TIP3    H275096   1.094   3.442  11.714  0.4475 -1.1601 -0.5626
17869TIP3   OH275097   0.371   2.585   2.970  0.2505 -0.4947 -0.2729
17869TIP3    H175098   0.349   2.670   2.932  2.6296 -0.0022 -0.6965
17869TIP3    H275099   0.404   2.533   2.896 -2.5735 -2.3984 -0.3322
17870TIP3   OH275100   6.794   1.863   2.702 -0.5071 -0.2319  0.2630
17870TIP3    H175101   6.752   1.917   2.769  0.5793  0.1670  0.6435
17870TIP3    H275102   6.801   1.776   2.743 -0.7354 -0.2419  0.2852
17871TIP3   OH275103   6.298   2.364  11.889 -0.2089 -0.1495  0.2983
17871TIP3    H175104   6.340   2.313  11.958  0.4169  1.3510  1.0827
17871TIP3    H275105   6.371   2.399  11.837 -0.5713  0.5266  0.2271
17872TIP3   OH275106   5.737   3.610   1.346 -0.4530  0.3360  0.2884
17872TIP3    H175107   5.803   3.643   1.285  1.4578 -1.0538  1.5024
17872TIP3    H275108   5.675   3.562   1.291 -0.8271  2.1255 -0.9384
17873TIP3   OH275109   3.436   5.408  11.830  0.1671  0.2751 -0.0635
17873TIP3    H175110   3.441   5.367  11.917  0.1798 -1.6097 -0.9012
17873TIP3    H275111   3.469   5.341  11.770 -0.3574  1.3301 -1.5903
17874TIP3   OH275112   1.459   6.772   1.757 -0.4696 -0.1611  0.1466
17874TIP3    H175113   1.460   6.868   1.759  1.1347 -0.1669  0.6129
17874TIP3    H275114   1.410   6.747   1.835  0.7943  0.2892  1.1216
17875TIP3   OH275115   0.068   1.094  11.574 -0.0555 -0.1376  0.3260
17875TIP3    H175116   0.160   1.066  11.571  0.1277  0.4632  0.2161
17875TIP3    H275117   0.071   1.185  11.605 -0.6559 -0.2974  0.8868
17876TIP3   OH275118   5.724   3.308   3.408  0.1628  0.1387 -0.5198
17876TIP3    H175119   5.732   3.299   3.313  0.9073  0.8571 -0.5425
17876TIP3    H275120   5.757   3.396   3.426 -0.8426  0.3538  0.3125
17877TIP3   OH275121   0.475   5.933  12.512 -0.2349 -0.1124 -0.4582
17877TIP3    H175122   0.493   6.026  12.524  0.1177 -0.3710  1.2134
17877TIP3    H275123   0.523   5.889  12.583 -1.0468 -1.4955 -0.7226
17878TIP3   OH275124   3.495   3.649  11.105 -0.3217  0.2765 -0.2670
17878TIP3    H175125   3.422   3.626  11.048 -1.4915  0.2726  1.1785
17878TIP3    H275126   3.454   3.692  11.180  1.0946 -0.4508  0.9651
17879TIP3   OH275127   4.675   3.264   0.239  0.9807 -0.4596  0.3938
17879TIP3    H175128   4.698   3.344   0.286  2.9069 -1.0270  0.5133
17879TIP3    H275129   4.701   3.193   0.299  1.5347 -1.1692 -0.6486
17880TIP3   OH275130   3.914   3.296  14.624 -0.4841  0.3665 -0.0633
17880TIP3    H175131   3.893   3.295  14.717  0.4363  0.7194  0.1533
17880TIP3    H275132   3.863   3.370  14.589 -0.2575  0.7021  0.3029
17881TIP3   OH275133   2.502   2.077   1.457 -0.5165  0.5738  0.5729
17881TIP3    H175134   2.591   2.051   1.479 -1.2172 -1.5653  1.0859
17881TIP3    H275135   2.490   2.049   1.366 -0.6420  0.9218  0.4807
17882TIP3   OH275136   6.310   3.157   1.935  0.6754 -0.1941 -0.6330
17882TIP3    H175137   6.291   3.075   1.980 -2.2331  0.5961 -0.1797
17882TIP3    H275138   6.345   3.131   1.850 -0.3085 -1.9090 -0.5540
17883TIP3   OH275139   5.728   1.790  13.322 -0.1610  0.0964  0.3179
17883TIP3    H175140   5.743   1.881  13.296 -0.4731  0.2416  0.6386
17883TIP3    H275141   5.804   1.743  13.289 -1.1567  0.0282 -2.1121
17884TIP3   OH275142   5.970   0.400  13.777 -0.3032 -0.4701 -0.1706
17884TIP3    H175143   6.000   0.344  13.706  0.1399  0.6020 -0.8553
17884TIP3    H275144   6.046   0.455  13.799 -0.9982  0.5272 -0.1919
17885TIP3   OH275145   1.116   1.365   0.950 -0.1006 -0.1486 -0.4858
17885TIP3    H175146   1.195   1.349   1.001 -0.6403  1.1375  0.8269
17885TIP3    H275147   1.131   1.318   0.868  1.5520 -0.8189  0.1467
17886TIP3   OH275148   0.340   6.123   6.580  0.0501  0.1289  0.6803
17886TIP3    H175149   0.372   6.214   6.583 -1.2360  0.5853  1.0240
17886TIP3    H275150   0.263   6.123   6.637 -0.4068 -1.0021  0.0831
17887TIP3   OH275151   0.190   0.177   2.781  0.4169  0.3734  0.4565
17887TIP3    H175152   0.100   0.208   2.791 -0.4441  0.1929 -4.3494
17887TIP3    H275153   0.243   0.256   2.789 -0.1033  0.5408  2.9744
17888TIP3   OH275154   2.855   5.693   5.860 -0.5813  0.0392  0.3162
17888TIP3    H175155   2.849   5.748   5.781 -0.7716  0.5451  0.6810
17888TIP3    H275156   2.839   5.604   5.828 -3.2800  0.4961  0.1490
17889TIP3   OH275157   5.278   3.591   2.341  0.6758  0.2106 -0.1754
17889TIP3    H175158   5.345   3.567   2.405  1.1599  1.1787 -0.2904
17889TIP3    H275159   5.196   3.559   2.378  1.0953 -0.2262  0.3854
17890TIP3   OH275160   2.812   3.159  13.218 -0.2268  0.0721 -0.3409
17890TIP3    H175161   2.828   3.250  13.194 -1.7756  0.0744 -1.4816
17890TIP3    H275162   2.767   3.121  13.143  0.8132 -1.7940 -0.1027
17891TIP3   OH275163   4.594   2.321   1.660  0.2245  0.3258  0.1852
17891TIP3    H175164   4.674   2.346   1.614  0.4876 -1.0794 -0.1923
17891TIP3    H275165   4.524   2.364   1.611  0.7417  1.6104  0.5506
17892TIP3   OH275166   1.090   0.830  14.922  0.8061 -0.1264  0.0305
17892TIP3    H175167   0.997   0.849  14.912  0.6745  0.2702  1.6077
17892TIP3    H275168   1.135   0.899  14.873  0.2671  0.1427 -0.0876
17893TIP3   OH275169   6.203   4.440  14.704 -0.3791 -0.0246  0.7093
17893TIP3    H175170   6.212   4.514  14.765 -2.8380  0.3053  0.7918
17893TIP3    H275171   6.123   4.460  14.655  0.1596 -1.5407 -0.8817
17894TIP3   OH275172   0.907   3.649  14.309 -0.2782 -0.0429  0.4223
17894TIP3    H175173   1.000   3.630  14.303 -0.5054 -0.9440 -0.6321
17894TIP3    H275174   0.900   3.741  14.284  0.3234  0.0260  0.4923
17895TIP3   OH275175   0.103   2.909   6.531  0.2331  0.2099  0.0747
17895TIP3    H175176   0.055   2.851   6.591  0.8424  0.7808  1.1575
17895TIP3    H275177   0.123   2.986   6.584  0.5226  0.8781 -0.9765
17896TIP3   OH275178   1.674   2.716  11.592  0.0492 -0.1137 -0.3245
17896TIP3    H175179   1.675   2.751  11.503  0.3440 -1.4413 -0.8682
17896TIP3    H275180   1.587   2.680  11.602  0.1980 -0.4561 -0.2741
17897TIP3   OH275181   2.489   1.376  15.715 -0.0107 -0.0556 -0.3391
17897TIP3    H175182   2.398   1.390  15.689 -1.1741 -2.8182  1.6699
17897TIP3    H275183   2.493   1.405  15.806  1.1145  0.0316 -0.4037
17898TIP3   OH275184   5.305   2.156   0.667 -0.1508 -1.1686 -0.3181
17898TIP3    H175185   5.211   2.140   0.660 -0.2348 -2.2629  2.1445
17898TIP3    H275186   5.344   2.097   0.603 -1.1135 -1.0705 -1.0136
17899TIP3   OH275187   0.572   4.637  17.279  0.2561 -0.3117  0.7197
17899TIP3    H175188   0.656   4.660  17.240  0.8154  0.2506  2.2106
17899TIP3    H275189   0.575   4.674  17.367 -2.0243  0.7980  0.4108
17900TIP3   OH275190   2.103   0.675   4.542 -0.0102 -0.0133 -0.3430
17900TIP3    H175191   2.056   0.592   4.540 -0.3515  0.1016  1.4595
17900TIP3    H275192   2.063   0.728   4.473 -1.8551 -0.2880  0.4795
17901TIP3   OH275193   3.961   3.739  12.222 -0.6255 -0.2004 -0.4269
17901TIP3    H175194   4.005   3.655  12.207 -1.7771 -0.5717 -2.0064
17901TIP3    H275195   4.009   3.779  12.294 -0.0410 -2.2063  0.3572
17902TIP3   OH275196   2.147   6.395   2.740  0.6622 -0.1086  0.8173
17902TIP3    H175197   2.083   6.424   2.805  1.5640 -1.7415  2.5415
17902TIP3    H275198   2.096   6.349   2.674 -0.2078  1.0921  0.6170
17903TIP3   OH275199   1.495   0.947   1.624 -0.3761 -0.1655  0.1167
17903TIP3    H175200   1.486   0.883   1.553 -2.1440 -1.0917  1.1025
17903TIP3    H275201   1.503   1.031   1.579 -1.4359 -0.7278 -1.2010
17904TIP3   OH275202   3.517   1.187   2.312 -0.4961  0.0429 -1.1318
17904TIP3    H175203   3.531   1.101   2.273  2.0788 -0.1221 -0.0738
17904TIP3    H275204   3.604   1.227   2.313 -1.3032  1.9208  0.1059
17905TIP3   OH275205   6.342   4.589   1.276  0.2051  0.1737  0.1820
17905TIP3    H175206   6.354   4.678   1.309 -1.6459  1.2466 -1.8125
17905TIP3    H275207   6.421   4.571   1.225 -0.1569  1.4018 -0.8486
17906TIP3   OH275208   4.113   6.615   2.023  0.3295 -0.0322 -0.1974
17906TIP3    H175209   4.102   6.645   2.114  0.7055 -2.3373  0.6707
17906TIP3    H275210   4.187   6.554   2.026  0.1121 -0.4430 -1.9925
17907TIP3   OH275211   0.840   5.970   0.370 -0.0507 -0.0384  0.1674
17907TIP3    H175212   0.760   5.928   0.336 -0.4171  0.6330  0.1899
17907TIP3    H275213   0.847   5.938   0.460 -1.1078  1.0052  0.6534
17908TIP3   OH275214   2.402   4.446   1.308 -0.6708 -0.0246 -0.2192
17908TIP3    H175215   2.433   4.380   1.246 -0.5166  1.1353 -1.4265
17908TIP3    H275216   2.406   4.528   1.259  1.8555  1.3809  2.0852
17909TIP3   OH275217   2.853   1.971  11.774  0.1778 -0.5865  0.2301
17909TIP3    H175218   2.789   1.904  11.748 -0.0758 -0.5518  0.7471
17909TIP3    H275219   2.933   1.923  11.792 -0.4147 -0.9485  2.0503
17910TIP3   OH275220   6.375   4.221   2.751 -0.0322 -0.0335  0.1013
17910TIP3    H175221   6.430   4.233   2.829  0.5116 -0.0165 -0.2775
17910TIP3    H275222   6.286   4.237   2.782  0.3299  1.7899  0.3472
17911TIP3   OH275223   1.105   3.653  12.186 -0.1383  0.4099 -0.6353
17911TIP3    H175224   1.160   3.667  12.263  0.1438 -0.7454 -0.5976
17911TIP3    H275225   1.107   3.736  12.139 -1.3845  1.5623  1.2582
17912TIP3   OH275226   5.608   3.893   2.632  0.6172  0.3057 -0.1491
17912TIP3    H175227   5.577   3.867   2.545  3.9615 -0.3577 -1.2704
17912TIP3    H275228   5.557   3.839   2.693 -1.6138  0.5877 -1.6566
17913TIP3   OH275229   4.488   1.302   4.245  0.1713  0.1962 -0.2722
17913TIP3    H175230   4.426   1.234   4.220  1.2403  0.2514 -3.4444
17913TIP3    H275231   4.527   1.270   4.326 -0.1198 -2.4795 -1.0946
17914TIP3   OH275232   6.759   6.052   3.234 -0.5025 -0.5951  0.1749
17914TIP3    H175233   6.759   6.054   3.138  0.2685 -1.8064  0.1321
17914TIP3    H275234   6.841   6.096   3.258 -0.2904 -1.0187  0.2415
17915TIP3   OH275235   3.564   1.910   5.083 -0.4755  0.5207 -0.0755
17915TIP3    H175236   3.479   1.947   5.059 -0.8023 -0.0920  0.1337
17915TIP3    H275237   3.552   1.816   5.080  0.2616  0.4204 -0.2544
17916TIP3   OH275238   3.136   4.736  13.737  0.7631 -0.0396 -0.1290
17916TIP3    H175239   3.099   4.650  13.755  0.7188 -0.2908 -1.3738
17916TIP3    H275240   3.181   4.760  13.818  1.6005 -1.6552 -0.0745
17917TIP3   OH275241   2.109   2.559   4.617  0.0068  0.0273 -0.4017
17917TIP3    H175242   2.165   2.525   4.686  1.8113  2.0105 -0.7741
17917TIP3    H275243   2.020   2.545   4.648  0.7524  1.0291  2.4400
17918TIP3   OH275244   6.575   0.445  14.209 -0.1860  0.2828  0.5734
17918TIP3    H175245   6.662   0.418  14.181 -0.1886 -0.0642  0.9042
17918TIP3    H275246   6.522   0.443  14.129 -0.0132  0.0018  0.4652
17919TIP3   OH275247   5.845   4.934  11.202  0.0109  0.1647 -0.2301
17919TIP3    H175248   5.806   4.990  11.135  0.9486  0.8049 -0.2756
17919TIP3    H275249   5.933   4.971  11.215  0.4088 -0.8998  0.2244
17920TIP3   OH275250   0.491   5.711   4.619 -0.1967 -0.4788  0.6618
17920TIP3    H175251   0.520   5.781   4.560  1.1289 -0.9001  0.7771
17920TIP3    H275252   0.396   5.714   4.615 -0.1446  0.5410 -0.2717
17921TIP3   OH275253   6.762   4.079   1.641 -0.3801  0.6601 -0.4378
17921TIP3    H175254   6.673   4.080   1.677  0.5307 -1.9415  2.2527
17921TIP3    H275255   6.754   4.027   1.561 -1.3724  1.1699 -0.6975
17922TIP3   OH275256   4.165   5.670  11.483 -0.0084  0.0278 -0.3632
17922TIP3    H175257   4.127   5.746  11.527  0.6318  0.0199  0.2094
17922TIP3    H275258   4.110   5.596  11.512  1.6708 -0.3259  2.1832
17923TIP3   OH275259   1.045   1.947  16.776  0.1005 -0.5902  0.1625
17923TIP3    H175260   0.986   2.002  16.828  0.1033 -1.9096  1.6645
17923TIP3    H275261   1.002   1.937  16.692 -1.7153 -1.2601  1.1165
17924TIP3   OH275262   4.233   5.223  16.280 -0.0916 -0.5761  0.3455
17924TIP3    H175263   4.301   5.198  16.217  1.1111 -1.3102  1.8640
17924TIP3    H275264   4.213   5.141  16.327 -1.0631 -0.0799  0.8143
17925TIP3   OH275265   4.132   0.512  15.279  0.6601  0.7138 -0.3575
17925TIP3    H175266   4.212   0.460  15.269 -0.6445 -1.4839 -0.0988
17925TIP3    H275267   4.090   0.508  15.193  0.5831  1.4839 -0.3644
17926TIP3   OH275268   3.616   1.558  11.203 -0.2495  0.1988  0.1120
17926TIP3    H175269   3.675   1.549  11.129  1.7493 -0.3105  1.6781
17926TIP3    H275270   3.534   1.517  11.173 -0.2973  1.9856 -2.5264
17927TIP3   OH275271   1.736   1.249  13.891 -0.5012 -0.2140  0.1683
17927TIP3    H175272   1.741   1.292  13.977  0.7269  4.2350 -1.8190
17927TIP3    H275273   1.821   1.207  13.880 -0.6325 -0.7356  1.0360
17928TIP3   OH275274   2.438   4.720  13.261 -0.2526 -0.3261 -0.2065
17928TIP3    H175275   2.459   4.791  13.322  1.3453 -1.6966  0.9297
17928TIP3    H275276   2.375   4.759  13.200  1.6384  2.5262 -0.5554
17929TIP3   OH275277   5.364   1.599   5.882 -0.4726 -0.2048  0.1844
17929TIP3    H175278   5.293   1.537   5.867 -2.3018  1.7389  0.1978
17929TIP3    H275279   5.428   1.579   5.814 -0.2835 -2.9568  1.0530
17930TIP3   OH275280   0.242   1.081  15.195  0.5420 -0.3526  0.2077
17930TIP3    H175281   0.212   1.165  15.160  1.3215 -0.1127  0.0835
17930TIP3    H275282   0.169   1.050  15.249 -0.3567 -0.3402 -0.9694
17931TIP3   OH275283   2.787   2.134   0.679 -0.2174 -0.0121  0.0096
17931TIP3    H175284   2.764   2.203   0.618  0.2751  0.6683  0.5757
17931TIP3    H275285   2.750   2.054   0.641 -1.6587  0.7030 -0.1558
17932TIP3   OH275286   3.229   0.008   0.993 -0.2839  0.4296 -0.2390
17932TIP3    H175287   3.283  -0.001   0.915  0.2655 -0.7105  0.2596
17932TIP3    H275288   3.198  -0.081   1.012 -0.7278  0.7524  0.6196
17933TIP3   OH275289   2.151   0.900   4.095 -0.0043  0.1009  0.3062
17933TIP3    H175290   2.245   0.893   4.112  0.1131  3.0330  1.4354
17933TIP3    H275291   2.110   0.873   4.178 -0.0098  1.0662  0.6366
17934TIP3   OH275292   5.527   3.043  16.500  0.2366 -0.1754 -0.1197
17934TIP3    H175293   5.495   3.103  16.569  0.2554 -1.1048  0.7133
17934TIP3    H275294   5.571   2.973  16.548  3.1849  0.7911 -1.2036
17935TIP3   OH275295   5.913   5.828  11.106  0.2694  0.1412 -0.0608
17935TIP3    H175296   5.880   5.899  11.051 -2.3538 -0.3235  0.8057
17935TIP3    H275297   5.893   5.748  11.056 -1.6106 -0.2460  1.2234
17936TIP3   OH275298   4.053   4.196  15.109 -0.1205  0.4668 -0.2257
17936TIP3    H175299   4.090   4.236  15.030  0.2794  0.3562 -0.0925
17936TIP3    H275300   3.959   4.215  15.103  0.1249  1.8746  0.0967
17937TIP3   OH275301   0.916   0.508  12.515  0.2402 -0.3841  0.0578
17937TIP3    H175302   0.850   0.466  12.460  0.8042 -2.4630  0.8784
17937TIP3    H275303   0.975   0.437  12.540  1.2540  0.9176  1.5395
17938TIP3   OH275304   3.706   4.193   4.245  0.1337 -0.5746  0.7812
17938TIP3    H175305   3.630   4.159   4.198 -0.6045  0.7360  0.9904
17938TIP3    H275306   3.686   4.177   4.337 -0.3428  0.6126  0.9015
17939TIP3   OH275307   0.321   0.644   2.716 -0.3850 -0.0947 -0.6248
17939TIP3    H175308   0.352   0.729   2.686 -0.6182 -0.0046 -0.6103
17939TIP3    H275309   0.368   0.629   2.798 -0.3639  0.0313 -0.6139
17940TIP3   OH275310   2.346   1.233   2.583 -0.6425 -0.2494  0.0591
17940TIP3    H175311   2.422   1.290   2.592  0.0240 -1.3493  1.7299
17940TIP3    H275312   2.272   1.288   2.611 -0.8124  1.3608 -3.1334
17941TIP3   OH275313   1.319   0.967  11.918  0.2267 -0.0751 -0.5279
17941TIP3    H175314   1.342   0.886  11.872  0.9852  1.3762 -2.9238
17941TIP3    H275315   1.235   0.948  11.960  0.1363 -1.9353 -1.4450
17942TIP3   OH275316   0.921   0.444   4.699  0.1217 -0.4752 -0.1342
17942TIP3    H175317   0.896   0.494   4.621 -1.5433 -1.1467 -0.0785
17942TIP3    H275318   0.890   0.355   4.681 -0.3040 -0.6372  1.2809
17943TIP3   OH275319   5.774   0.429   6.016 -0.3443 -0.1704  0.2114
17943TIP3    H175320   5.813   0.403   5.933 -3.3253 -1.7160 -0.8540
17943TIP3    H275321   5.690   0.468   5.993  0.0542  2.2608  2.3952
17944TIP3   OH275322   4.809   5.934  15.550 -0.6125  0.0944 -0.0549
17944TIP3    H175323   4.832   5.999  15.618 -0.0699 -1.1557  1.0025
17944TIP3    H275324   4.893   5.910  15.511 -0.7863 -0.1417 -0.2851
17945TIP3   OH275325   3.946   0.639  15.078  0.3966  0.3052  0.1194
17945TIP3    H175326   3.906   0.582  15.012  0.1280  2.3289 -1.5631
17945TIP3    H275327   3.877   0.651  15.144  0.0157 -0.2781 -0.1592
17946TIP3   OH275328   4.212   4.302   0.311 -0.5101 -0.4238 -0.1252
17946TIP3    H175329   4.148   4.258   0.366  1.3266  1.0929  3.5636
17946TIP3    H275330   4.191   4.395   0.318 -0.4457 -0.1676 -2.4439
17947TIP3   OH275331   0.337   6.312  11.601 -0.0619 -0.7257 -0.5407
17947TIP3    H175332   0.423   6.340  11.571  0.9546 -1.5010  1.5037
17947TIP3    H275333   0.335   6.218  11.581 -2.0261 -0.1375 -4.0468
17948TIP3   OH275334   3.149   1.226   0.282  0.1495  0.2000  0.4182
17948TIP3    H175335   3.111   1.145   0.315  0.5081 -0.2125 -0.1662
17948TIP3    H275336   3.096   1.295   0.321 -1.9848 -0.3705 -1.3035
17949TIP3   OH275337   5.829   6.507   4.905 -0.2548  0.0690 -0.3341
17949TIP3    H175338   5.750   6.549   4.870  0.1126  0.1297 -1.1152
17949TIP3    H275339   5.878   6.481   4.827  0.2062 -0.5221  0.1481
17950TIP3   OH275340   0.075   0.488   1.753 -0.6098 -0.0739  0.4365
17950TIP3    H175341   0.054   0.519   1.664 -0.0122  0.4634  0.4703
17950TIP3    H275342   0.098   0.568   1.800 -0.8959 -0.3634  1.0724
17951TIP3   OH275343   2.098   1.161   3.772 -0.0781 -1.0938  0.1286
17951TIP3    H175344   2.179   1.110   3.770  1.9528  1.7962  1.5689
17951TIP3    H275345   2.117   1.238   3.718 -1.3062  0.3176  1.6098
17952TIP3   OH275346   1.925   3.439  16.961 -0.0167  0.3323  0.1475
17952TIP3    H175347   1.949   3.346  16.959  1.9660  0.7843  1.0396
17952TIP3    H275348   1.977   3.479  16.891  0.1585  1.0007  0.6512
17953TIP3   OH275349   0.107   4.377  17.167  0.0238 -0.9082 -0.1344
17953TIP3    H175350   0.088   4.422  17.085  0.5407 -1.0409 -0.3361
17953TIP3    H275351   0.161   4.439  17.217 -1.2498 -0.3627  0.6099
17954TIP3   OH275352   5.712   2.583  15.235 -0.0138 -0.1236 -0.1759
17954TIP3    H175353   5.679   2.582  15.325  1.5402 -0.1480  0.4102
17954TIP3    H275354   5.638   2.551  15.182 -0.5612 -1.2220  1.2076
17955TIP3   OH275355   0.176   2.280   0.799 -0.7483 -0.2133 -0.3919
17955TIP3    H175356   0.171   2.185   0.813 -1.2073 -0.7836 -3.6842
17955TIP3    H275357   0.129   2.294   0.717  0.5994  2.6880 -0.7547
17956TIP3   OH275358   6.030   4.877  14.678 -0.2458  0.1862 -0.2130
17956TIP3    H175359   6.087   4.935  14.627 -0.6332  0.2932 -0.5245
17956TIP3    H275360   6.090   4.813  14.717  0.1742  0.7423  0.0628
17957TIP3   OH275361   3.477   3.572   1.388 -0.3258  0.5169 -0.0799
17957TIP3    H175362   3.533   3.649   1.394 -0.5046  0.6051  0.5729
17957TIP3    H275363   3.497   3.534   1.303  0.7780  0.5102  0.1683
17958TIP3   OH275364   0.083   5.594   0.037 -0.0892 -0.0625  0.0117
17958TIP3    H175365   0.041   5.651   0.101  1.8047  0.1188  1.1958
17958TIP3    H275366   0.012   5.545  -0.003 -1.5993  1.8777  0.2035
17959TIP3   OH275367   1.033   2.107  12.089 -0.5771  0.3322 -0.5314
17959TIP3    H175368   0.967   2.177  12.093 -2.6376 -1.5104  0.0855
17959TIP3    H275369   1.018   2.065  12.005 -1.9270 -1.5833  0.5748
17960TIP3   OH275370   4.025   2.890   5.711 -0.0850 -0.1170  0.0271
17960TIP3    H175371   3.954   2.954   5.715 -0.5830 -0.5059 -1.5540
17960TIP3    H275372   4.008   2.842   5.630  0.5770 -1.8877  0.8855
17961TIP3   OH275373   3.030   4.647   1.938 -0.0193 -0.5942  0.0356
17961TIP3    H175374   3.094   4.707   1.901 -0.4927 -0.9049 -1.3280
17961TIP3    H275375   2.995   4.599   1.863 -0.8755 -1.3811  0.9053
17962TIP3   OH275376   2.483   2.409  13.658 -0.0588  0.1514 -0.4310
17962TIP3    H175377   2.502   2.329  13.707 -2.1859 -0.4603 -0.4931
17962TIP3    H275378   2.432   2.463  13.720 -0.4496  0.5392 -1.0787
17963TIP3   OH275379   3.072   4.202   5.998 -0.4997  0.1759  0.4662
17963TIP3    H175380   3.116   4.271   5.948 -0.6267  0.3215  0.5557
17963TIP3    H275381   3.112   4.207   6.085 -0.1043 -0.2392  0.3114
17964TIP3   OH275382   1.014   3.380  16.577 -0.1983  0.0125 -0.0348
17964TIP3    H175383   0.967   3.429  16.510  1.9517  3.2585  0.5817
17964TIP3    H275384   1.097   3.356  16.535 -0.0359 -0.5362  0.5804
17965TIP3   OH275385   4.699   0.320   1.459  0.0197  0.2296 -0.0495
17965TIP3    H175386   4.667   0.396   1.411 -0.9988 -0.3721 -0.3396
17965TIP3    H275387   4.627   0.296   1.517 -0.6879 -2.0294 -1.7352
17966TIP3   OH275388   2.930   6.396  12.779 -0.5121 -0.8140 -0.2716
17966TIP3    H175389   2.932   6.481  12.735  0.5247 -0.1082  1.0792
17966TIP3    H275390   2.924   6.332  12.707  0.6191  0.2997 -1.4004
17967TIP3   OH275391   4.628   5.979  14.076  0.3186  0.1334  0.0128
17967TIP3    H175392   4.664   6.012  13.993 -0.9109 -1.5507 -1.2656
17967TIP3    H275393   4.643   5.885  14.073 -0.3470 -0.0430  1.4256
17968TIP3   OH275394   3.908   6.098   4.367  0.5997  0.5560 -0.3534
17968TIP3    H175395   3.955   6.015   4.367  1.3371  0.9633 -0.4430
17968TIP3    H275396   3.827   6.080   4.319  1.1753  0.1182 -1.1844
17969TIP3   OH275397   5.284   6.380   3.761 -0.3085 -0.8162  0.2068
17969TIP3    H175398   5.376   6.357   3.751 -0.2537  0.1040 -1.9258
17969TIP3    H275399   5.252   6.321   3.830  2.3979  0.5297  2.8254
17970TIP3   OH275400   2.363   2.772  15.547 -0.2522  0.2393 -0.0408
17970TIP3    H175401   2.434   2.709  15.536 -0.2240  0.5672 -2.0967
17970TIP3    H275402   2.284   2.719  15.550 -0.0976  0.0020 -0.1652
17971TIP3   OH275403   3.627   6.196   3.550  0.0816  0.0408  0.5724
17971TIP3    H175404   3.716   6.195   3.515  0.0177  1.6466  0.3019
17971TIP3    H275405   3.632   6.143   3.629  0.9272 -1.1043 -0.2222
17972TIP3   OH275406   0.153   6.060   2.636 -0.3681  0.9021 -0.2609
17972TIP3    H175407   0.189   5.987   2.586 -0.8903 -0.3060  1.0653
17972TIP3    H275408   0.080   6.093   2.583 -1.6451 -1.0863  0.1708
17973TIP3   OH275409   2.665   4.454  11.177 -0.1856  0.2870 -0.0899
17973TIP3    H175410   2.751   4.424  11.147 -0.7462 -2.0272  0.4086
17973TIP3    H275411   2.610   4.449  11.098 -0.5374 -1.1834  0.2185
17974TIP3   OH275412   2.272   5.074   0.237  0.1728  0.2289 -0.1473
17974TIP3    H175413   2.223   5.131   0.295 -1.4696 -1.4567  0.2111
17974TIP3    H275414   2.213   5.057   0.164  0.6310 -0.9477 -0.2708
17975TIP3   OH275415   0.853   1.382   0.021  0.2858 -0.1260 -0.2819
17975TIP3    H175416   0.788   1.408  -0.044 -0.9933  0.4769  1.1907
17975TIP3    H275417   0.807   1.320   0.078 -0.1303  2.7280  2.7468
17976TIP3   OH275418   4.829   4.009  14.050  0.5340  0.4110  0.1327
17976TIP3    H175419   4.847   3.998  14.144 -0.3165 -0.5296  0.2047
17976TIP3    H275420   4.888   3.947  14.007  0.4784  0.3856  0.0932
17977TIP3   OH275421   5.939   2.083  11.523  0.3184  0.3131 -0.2399
17977TIP3    H175422   5.976   2.098  11.610 -0.0073 -0.5929  0.0661
17977TIP3    H275423   5.961   2.162  11.474 -1.0363  1.6076  1.1623
17978TIP3   OH275424   6.249   1.969  15.709 -0.0026  0.3723  0.5565
17978TIP3    H175425   6.226   1.960  15.616 -2.9676 -1.2408  1.3150
17978TIP3    H275426   6.291   1.887  15.732 -1.0270 -0.0412  1.0275
17979TIP3   OH275427   1.920   5.390  11.692  0.1076 -0.9680 -0.3001
17979TIP3    H175428   1.840   5.440  11.670  1.3736  1.8789  1.0374
17979TIP3    H275429   1.936   5.337  11.614 -2.1510 -0.3713 -1.2749
17980TIP3   OH275430   0.937   4.636  15.527  0.0601  0.2603 -0.3371
17980TIP3    H175431   0.844   4.658  15.521 -0.4064 -1.4746  0.0625
17980TIP3    H275432   0.982   4.717  15.502 -1.5440  0.9822 -1.0448
17981TIP3   OH275433   2.796   2.115  12.651  0.3006 -0.1814  0.6327
17981TIP3    H175434   2.714   2.090  12.695 -0.1855  1.2132  0.5671
17981TIP3    H275435   2.778   2.201  12.615  1.2262 -0.5984 -0.9257
17982TIP3   OH275436   5.260   4.541  14.523 -0.0625  0.8045 -0.2651
17982TIP3    H175437   5.185   4.485  14.543  0.6790  0.0355  0.4813
17982TIP3    H275438   5.228   4.602  14.457 -0.9334 -0.4389 -1.0387
17983TIP3   OH275439   5.195   4.703   3.546  0.1658 -0.3506 -0.3310
17983TIP3    H175440   5.250   4.766   3.595  1.0351 -0.5229 -1.0550
17983TIP3    H275441   5.231   4.705   3.457 -0.5208 -1.0522 -0.6283
17984TIP3   OH275442   6.289   3.853   2.500 -0.0168  0.3812  0.7917
17984TIP3    H175443   6.209   3.802   2.483  0.1804  0.7546 -1.5837
17984TIP3    H275444   6.308   3.838   2.592 -0.7160 -2.7723  0.5212
17985TIP3   OH275445   1.187   0.510   0.518  0.2888  0.3036  0.0537
17985TIP3    H175446   1.115   0.503   0.455  2.1505  0.4327 -2.2224
17985TIP3    H275447   1.216   0.419   0.531 -0.3271  0.2360  1.0885
17986TIP3   OH275448   3.260   0.210  16.042 -0.2285 -0.0469  0.3628
17986TIP3    H175449   3.317   0.271  15.996  0.2017  0.6179  1.7299
17986TIP3    H275450   3.255   0.134  15.984  2.0610 -0.1287  0.1909
17987TIP3   OH275451   1.126   5.853   3.171  0.4101  0.2023 -0.3100
17987TIP3    H175452   1.037   5.874   3.143  0.2192 -0.2830 -0.0812
17987TIP3    H275453   1.167   5.938   3.185  0.0180  0.4331 -0.5192
17988TIP3   OH275454   3.125   5.040   3.718 -0.0735  0.2883  0.0204
17988TIP3    H175455   3.182   5.017   3.791 -0.5460 -0.7972  0.0576
17988TIP3    H275456   3.040   5.057   3.759 -0.4413 -0.7108 -0.3019
17989TIP3   OH275457   5.748   4.246   0.118  0.1468  0.1715 -0.2179
17989TIP3    H175458   5.799   4.179   0.165  0.3223  0.2018 -0.3627
17989TIP3    H275459   5.722   4.308   0.186 -0.6010 -0.4052  0.0299
17990TIP3   OH275460   2.032   1.458   4.968 -0.1271  0.3342  0.0737
17990TIP3    H175461   2.002   1.543   5.002 -2.4156 -0.1973 -0.4449
17990TIP3    H275462   1.953   1.418   4.932  1.3359 -1.0733 -1.7333
17991TIP3   OH275463   0.296   5.547   1.385  0.5598  0.1718 -0.8533
17991TIP3    H175464   0.371   5.594   1.348  1.1841 -0.2335 -0.1368
17991TIP3    H275465   0.219   5.595   1.352  1.1266  0.6302 -1.5495
17992TIP3   OH275466   2.480   2.036   4.661 -0.6430 -0.3770  0.3631
17992TIP3    H175467   2.420   1.971   4.624 -1.0463  0.1924  0.0007
17992TIP3    H275468   2.524   2.075   4.586 -0.2562 -0.3698  0.5911
17993TIP3   OH275469   0.605   3.663  12.157  0.1771 -0.1565  0.2291
17993TIP3    H175470   0.545   3.731  12.186 -0.2823 -0.4691  0.0285
17993TIP3    H275471   0.685   3.679  12.207  0.8042  1.7764 -1.2997
17994TIP3   OH275472   2.854   0.932   5.905 -0.1026 -0.0040  0.1050
17994TIP3    H175473   2.826   0.963   5.819  0.5539 -1.0232 -0.4898
17994TIP3    H275474   2.896   0.848   5.888 -2.1171 -1.4273  1.7009
17995TIP3   OH275475   4.003   1.222   0.226  0.1906 -0.1051 -0.5313
17995TIP3    H175476   3.970   1.284   0.161  0.0460 -2.2554 -2.6468
17995TIP3    H275477   3.925   1.174   0.254  0.3298  0.4770  0.9370
17996TIP3   OH275478   5.018   5.224   1.316  0.3123  0.5497  0.3005
17996TIP3    H175479   5.109   5.231   1.287 -0.4992  0.3311 -2.5730
17996TIP3    H275480   4.986   5.143   1.275 -1.2166  0.6748  1.1761
17997TIP3   OH275481   4.679   4.127   2.866  0.2181 -0.2503  0.1654
17997TIP3    H175482   4.698   4.081   2.785 -0.4089 -1.8495  0.8870
17997TIP3    H275483   4.585   4.117   2.879  0.2370  0.3513  0.8616
17998TIP3   OH275484   0.139   3.589  14.833  0.6869 -0.1399 -0.0502
17998TIP3    H175485   0.227   3.623  14.851  0.2168  0.6916  0.7745
17998TIP3    H275486   0.134   3.508  14.885  0.7040  0.2158  0.5174
17999TIP3   OH275487   6.753   6.129   1.899 -0.2086  0.4006  0.2970
17999TIP3    H175488   6.717   6.203   1.948 -0.3084 -1.0688  2.5620
17999TIP3    H275489   6.848   6.144   1.901 -0.3008  1.2648 -0.6740
18000TIP3   OH275490   5.181   3.885   1.237 -0.0655 -0.2119 -0.5500
18000TIP3    H175491   5.089   3.864   1.255  0.0990 -1.2539 -0.8830
18000TIP3    H275492   5.230   3.840   1.305  0.2113  0.4037 -0.3268
18001TIP3   OH275493   4.474   2.295  15.049 -0.5199 -0.3394  0.1458
18001TIP3    H175494   4.397   2.266  15.098 -0.1590  0.1948  1.0249
18001TIP3    H275495   4.523   2.350  15.109  0.3940 -0.4018 -0.5155
18002TIP3   OH275496   3.459   4.416  15.952 -0.2136  0.5720 -0.4719
18002TIP3    H175497   3.382   4.452  15.908 -0.8714 -0.9240 -0.6121
18002TIP3    H275498   3.490   4.487  16.008 -0.1357  2.0924 -2.3153
18003TIP3   OH275499   4.081   2.481  15.914  0.3936  0.2285 -0.2901
18003TIP3    H175500   4.108   2.505  15.825 -0.0698  0.5571 -0.3476
18003TIP3    H275501   4.038   2.560  15.948  1.9684  0.6687  0.8154
18004TIP3   OH275502   3.907   5.486  13.065 -0.0853  0.1396 -0.2004
18004TIP3    H175503   3.973   5.485  13.134 -1.7440  1.1314  1.4895
18004TIP3    H275504   3.949   5.441  12.991  1.5231 -1.5724  1.6320
18005TIP3   OH275505   3.480   0.598  15.735 -0.2320 -0.6407 -0.6985
18005TIP3    H175506   3.441   0.648  15.664 -0.6147 -0.9020 -0.6753
18005TIP3    H275507   3.441   0.511  15.728 -0.1524 -0.7148 -0.2682
18006TIP3   OH275508   5.464   6.727  14.911 -0.6200 -0.4444 -0.2129
18006TIP3    H175509   5.517   6.688  14.841  0.4181  0.6588 -0.0697
18006TIP3    H275510   5.378   6.688  14.899  0.2698 -2.5189 -0.2667
18007TIP3   OH275511   0.001   1.452   0.266 -0.7086  0.6149 -0.5350
18007TIP3    H175512   0.081   1.486   0.305 -0.8256  0.4482 -0.1496
18007TIP3    H275513  -0.003   1.494   0.180 -0.1862  0.5889 -0.5738
18008TIP3   OH275514   1.020   0.591  14.710 -0.3249  0.0054  0.5635
18008TIP3    H175515   1.032   0.677  14.750  0.6416 -1.1386  2.9244
18008TIP3    H275516   1.056   0.529  14.773 -2.5939 -2.3207 -0.2046
18009TIP3   OH275517   3.382   1.338  13.612 -0.6871 -0.6657 -0.1992
18009TIP3    H175518   3.400   1.422  13.655 -2.9727  0.6383 -1.6172
18009TIP3    H275519   3.314   1.298  13.666  0.2171 -1.5613  0.3269
18010TIP3   OH275520   0.429   6.401   4.255 -0.4393  0.0185 -0.5575
18010TIP3    H175521   0.399   6.405   4.346  1.1488  3.7028 -0.0293
18010TIP3    H275522   0.350   6.421   4.203 -1.3056 -1.8967 -0.0656
18011TIP3   OH275523   0.736   2.355  12.883 -0.1776 -0.3374 -0.0684
18011TIP3    H175524   0.772   2.298  12.815  0.8600 -0.6038  0.6934
18011TIP3    H275525   0.666   2.303  12.923  0.7683 -1.1105  0.6288
18012TIP3   OH275526   1.268   5.420  14.845 -0.2822  0.1899 -0.2432
18012TIP3    H175527   1.326   5.369  14.903 -1.1093 -1.1829 -0.5724
18012TIP3    H275528   1.321   5.436  14.767 -0.2374 -0.8307 -0.4388
18013TIP3   OH275529   2.723   3.392   2.424 -0.1371 -0.6396 -0.7273
18013TIP3    H175530   2.763   3.426   2.505 -0.4078 -0.3329 -0.7201
18013TIP3    H275531   2.797   3.382   2.364  0.0722 -0.8936 -0.4341
18014TIP3   OH275532   1.158   0.522  15.279  0.5064  0.5495 -0.1533
18014TIP3    H175533   1.167   0.516  15.374  1.6899  0.2597 -0.2731
18014TIP3    H275534   1.137   0.433  15.251  0.2588  0.6145 -0.1786
18015TIP3   OH275535   2.791   3.005   2.602 -0.2019  0.3277 -0.1341
18015TIP3    H175536   2.781   3.085   2.653 -0.5492  1.0859 -1.3242
18015TIP3    H275537   2.882   2.978   2.615  0.0557  1.1927 -0.1061
18016TIP3   OH275538   2.985   3.531   0.074 -0.3685  0.4677  0.0462
18016TIP3    H175539   3.050   3.552   0.140  0.3238  2.6951 -1.2159
18016TIP3    H275540   2.910   3.496   0.123  1.3632 -1.2520  1.6046
18017TIP3   OH275541   0.740   3.104   2.283  0.0610  0.0644 -0.1735
18017TIP3    H175542   0.703   3.134   2.200  0.5682  1.5482  0.1041
18017TIP3    H275543   0.735   3.008   2.278 -0.9029  0.1501 -1.4481
18018TIP3   OH275544   6.551   6.670   1.975  0.1968 -0.1119 -0.2631
18018TIP3    H175545   6.486   6.676   2.045  0.8148 -0.0532  0.3150
18018TIP3    H275546   6.499   6.665   1.894 -0.5158  0.4597  0.1483
18019TIP3   OH275547   4.711   6.765  16.641 -0.1574  0.2656 -0.0996
18019TIP3    H175548   4.754   6.710  16.576 -1.6937 -0.0750 -0.8782
18019TIP3    H275549   4.730   6.723  16.724  2.2685  0.9891 -0.2146
18020TIP3   OH275550   2.558   4.051  13.446  0.1709  0.0350  0.2042
18020TIP3    H175551   2.612   4.084  13.517 -0.2866  2.4018 -0.4386
18020TIP3    H275552   2.621   4.017  13.382  0.7210  0.2346  0.6314
18021TIP3   OH275553   0.225   6.024  16.209 -0.2402 -0.2310 -0.3982
18021TIP3    H175554   0.261   6.101  16.165  3.4120 -1.4716  0.0668
18021TIP3    H275555   0.252   6.034  16.301 -1.6424 -1.0337  0.1342
18022TIP3   OH275556   1.165   1.876  13.097 -0.3968  0.1452 -0.6462
18022TIP3    H175557   1.244   1.832  13.066  0.3545  1.6590 -0.9305
18022TIP3    H275558   1.194   1.961  13.128 -1.6065 -0.1002  1.3270
18023TIP3   OH275559   5.125   3.444  15.776  0.4790 -0.6652 -0.3677
18023TIP3    H175560   5.076   3.364  15.755  1.0600 -1.0216 -0.3689
18023TIP3    H275561   5.193   3.450  15.710 -0.5065  0.6929 -1.3290
18024TIP3   OH275562   4.668   5.252  12.586 -0.3638 -0.4026  0.8259
18024TIP3    H175563   4.757   5.245  12.622 -0.8498  1.3862  2.5239
18024TIP3    H275564   4.631   5.328  12.629 -2.2473 -0.2326 -0.9617
18025TIP3   OH275565   0.524   0.650  13.542 -0.0412 -0.2514 -0.1251
18025TIP3    H175566   0.561   0.728  13.503 -0.5349  0.0831  0.0617
18025TIP3    H275567   0.568   0.577  13.498  0.7235  0.1329  0.0039
18026TIP3   OH275568   4.651   4.468   1.512 -0.3616 -0.6770 -0.1786
18026TIP3    H175569   4.600   4.422   1.445  0.6443 -0.6479 -0.9771
18026TIP3    H275570   4.697   4.399   1.559 -0.1872 -0.6120 -0.2547
18027TIP3   OH275571   6.146   1.749   2.407  0.8273 -0.7835  0.0785
18027TIP3    H175572   6.227   1.743   2.457  0.9779 -2.2133 -0.2897
18027TIP3    H275573   6.174   1.758   2.316  0.5534  1.6026  0.1739
18028TIP3   OH275574   1.966   1.174   4.528 -0.1015  0.1893  0.4656
18028TIP3    H175575   2.009   1.245   4.575  0.2808  0.2533  0.0227
18028TIP3    H275576   2.020   1.160   4.451 -0.4453 -0.2562  0.3024
18029TIP3   OH275577   2.837   2.144  11.429  0.6074  0.5043  0.1632
18029TIP3    H175578   2.807   2.152  11.519  0.3865 -0.8690  0.2306
18029TIP3    H275579   2.932   2.135  11.435  0.9803  3.4803  0.0333
18030TIP3   OH275580   5.703   5.599   4.775  0.8282 -0.1582 -0.4896
18030TIP3    H175581   5.723   5.646   4.694  0.1972  1.1375  0.0612
18030TIP3    H275582   5.612   5.572   4.764  0.3717  0.9994  0.1927
18031TIP3   OH275583   0.230   0.446  13.787 -0.4591 -0.5829  0.7169
18031TIP3    H175584   0.247   0.539  13.772 -0.4882 -0.5508  0.8780
18031TIP3    H275585   0.284   0.400  13.723 -0.6721 -0.4455  0.4358
18032TIP3   OH275586   3.343   6.339  12.213  0.2758 -0.0770 -0.6611
18032TIP3    H175587   3.403   6.291  12.270  0.0030 -0.6814 -0.8712
18032TIP3    H275588   3.372   6.318  12.124 -0.2268 -0.3676 -0.7645
18033TIP3   OH275589   3.538   6.338   4.443  0.0249 -0.1800  0.2357
18033TIP3    H175590   3.565   6.256   4.483 -1.3670  0.1725  2.0483
18033TIP3    H275591   3.612   6.397   4.455  0.7269 -0.9188 -0.3735
18034TIP3   OH275592   0.925   3.175  12.630 -0.4661  0.3216 -0.8263
18034TIP3    H175593   0.854   3.236  12.651  1.5888  1.7014  3.2032
18034TIP3    H275594   0.996   3.231  12.598  0.6911 -0.1978  0.7393
18035TIP3   OH275595   3.881   2.571  15.229 -0.3191 -0.2831 -0.3085
18035TIP3    H175596   3.869   2.577  15.324  4.0801 -0.7121  0.5013
18035TIP3    H275597   3.868   2.479  15.209 -1.1206 -0.2165 -0.1486
18036TIP3   OH275598   1.117   0.564   4.283  0.4733 -0.1665 -0.4764
18036TIP3    H175599   1.184   0.516   4.331  2.8385  2.3940 -0.8914
18036TIP3    H275600   1.034   0.536   4.321  1.9335 -1.5914  1.8952
18037TIP3   OH275601   6.034   1.456   2.327  0.0079  0.4248 -0.6061
18037TIP3    H175602   5.939   1.461   2.336  0.1215 -0.1324  1.2374
18037TIP3    H275603   6.062   1.547   2.317 -0.4216  1.1221  3.0446
18038TIP3   OH275604   4.389   5.911   1.690 -0.2213  0.1493  1.1916
18038TIP3    H175605   4.410   5.864   1.771  0.4500  0.6599  1.3208
18038TIP3    H275606   4.324   5.856   1.647  2.7324 -2.5345 -0.2103
18039TIP3   OH275607   3.442   2.509  13.202 -0.1234 -0.6006 -0.0982
18039TIP3    H175608   3.475   2.598  13.214 -2.8055  0.4502  0.1586
18039TIP3    H275609   3.486   2.478  13.123 -0.4914  1.7004 -1.3027
18040TIP3   OH275610   6.557   3.490   1.594  0.0151  0.1399  0.8211
18040TIP3    H175611   6.472   3.535   1.595  0.3100  0.7247  0.3961
18040TIP3    H275612   6.616   3.550   1.640  0.1009 -0.4630  1.4955
18041TIP3   OH275613   1.560   6.651  17.230 -0.0473 -0.1637 -0.3240
18041TIP3    H175614   1.490   6.676  17.290 -1.1978  1.0269 -2.0636
18041TIP3    H275615   1.640   6.658  17.283 -0.9037  1.8084  0.8432
18042TIP3   OH275616   3.818   6.553   2.466  0.3339  0.0235 -0.0816
18042TIP3    H175617   3.822   6.478   2.407 -0.3816 -1.4557  1.6344
18042TIP3    H275618   3.727   6.582   2.461  0.0438 -0.6532  0.8616
18043TIP3   OH275619   2.536   2.915   5.055 -0.1786 -0.4321  0.3961
18043TIP3    H175620   2.482   2.993   5.065 -0.5062 -0.5701 -0.2691
18043TIP3    H275621   2.624   2.943   5.081 -0.3427  0.0861  0.4009
18044TIP3   OH275622   1.613   6.238   5.367  0.0182 -0.0788  0.3287
18044TIP3    H175623   1.562   6.272   5.293  0.1442 -0.0527  0.2531
18044TIP3    H275624   1.702   6.266   5.349  0.1113 -0.3833  0.3035
18045TIP3   OH275625   2.256   1.001   1.391  1.0158  0.2190  0.2141
18045TIP3    H175626   2.329   0.983   1.450  1.5999 -1.4845 -0.9379
18045TIP3    H275627   2.225   0.915   1.364 -0.4049  0.9347 -0.5723
18046TIP3   OH275628   6.240   3.586  16.978 -0.2692 -0.2524 -0.0905
18046TIP3    H175629   6.189   3.504  16.982 -2.4868  1.0569  1.6290
18046TIP3    H275630   6.202   3.639  17.048  1.5078  2.0354 -0.7753
18047TIP3   OH275631   0.296   1.355  17.144  0.2338  0.2517 -0.0825
18047TIP3    H175632   0.310   1.385  17.234  0.9484 -3.2492  1.1452
18047TIP3    H275633   0.384   1.339  17.110 -0.0728 -0.3912 -0.6144
18048TIP3   OH275634   1.115   2.334   6.290 -0.4141 -0.3047  0.1787
18048TIP3    H175635   1.067   2.417   6.290 -0.2227 -0.1779  1.2540
18048TIP3    H275636   1.126   2.313   6.382  2.0419 -0.0758 -0.0010
18049TIP3   OH275637   0.833   5.941  14.800 -0.3757  0.2998  0.6299
18049TIP3    H175638   0.859   5.975  14.886  1.0198 -0.7193  0.6452
18049TIP3    H275639   0.798   5.854  14.819  1.9315 -0.8524  0.0322
18050TIP3   OH275640   2.640   0.997   0.187 -0.6417  0.2732 -0.4325
18050TIP3    H175641   2.623   0.951   0.270  1.0617  0.0135 -0.2037
18050TIP3    H275642   2.553   1.011   0.150 -1.3978 -0.2133  1.0732
18051TIP3   OH275643   4.973   0.228  14.066 -0.2947 -0.1051 -0.6830
18051TIP3    H175644   5.053   0.277  14.050 -1.1901  1.8053  0.3597
18051TIP3    H275645   5.002   0.137  14.072  1.7774  0.5157 -0.4141
18052TIP3   OH275646   1.966   1.771  17.272 -0.5694 -0.4365 -0.4910
18052TIP3    H175647   1.955   1.786  17.178 -1.0578 -0.7192 -0.4799
18052TIP3    H275648   1.982   1.859  17.308 -0.9338 -0.2565 -0.7611
18053TIP3   OH275649   4.794   5.685   1.897  0.2359 -0.2196  0.0795
18053TIP3    H175650   4.858   5.685   1.968  1.9045  0.4436 -1.3495
18053TIP3    H275651   4.830   5.624   1.832 -0.4935  0.2576 -0.8064
18054TIP3   OH275652   2.123   0.659   1.742  1.0715  0.4162  0.4303
18054TIP3    H175653   2.045   0.604   1.743  1.9006 -0.8146  1.2002
18054TIP3    H275654   2.167   0.637   1.660  0.5117  1.2647 -0.1018
18055TIP3   OH275655   5.512   2.627  11.072  0.3727 -0.3259  0.1684
18055TIP3    H175656   5.494   2.721  11.078  0.3240 -0.3191 -0.0735
18055TIP3    H275657   5.584   2.620  11.010  1.8411 -0.2798  1.7980
18056TIP3   OH275658   6.148   4.789  17.231 -0.3908 -0.0451  0.3450
18056TIP3    H175659   6.240   4.778  17.256 -0.1868 -0.8361 -0.6751
18056TIP3    H275660   6.138   4.884  17.221  1.4017 -0.0308 -3.1470
18057TIP3   OH275661   4.863   1.053  10.717 -0.7338 -0.7128 -0.0266
18057TIP3    H175662   4.816   1.078  10.638 -0.0808  1.2055  0.1344
18057TIP3    H275663   4.847   0.959  10.726  0.1974 -1.2559 -3.1011
18058TIP3   OH275664   5.425   3.800  14.869  0.2395 -0.0668 -0.2131
18058TIP3    H175665   5.332   3.820  14.864  0.3673  0.5896 -0.0261
18058TIP3    H275666   5.434   3.717  14.822 -0.1115  0.9068 -2.1299
18059TIP3   OH275667   1.621   1.586   6.180 -0.1495 -0.2263 -0.5898
18059TIP3    H175668   1.530   1.587   6.210 -0.2551 -1.2341 -0.8273
18059TIP3    H275669   1.648   1.495   6.190  2.1349  0.6298  3.3256
18060TIP3   OH275670   6.730   5.946   2.907 -0.2213 -0.3304 -0.0843
18060TIP3    H175671   6.635   5.958   2.917 -0.1469 -0.5310  1.0345
18060TIP3    H275672   6.739   5.855   2.878 -0.4321  0.1543 -1.7708
18061TIP3   OH275673   1.290   6.430  12.537  0.5736  0.0220 -0.2854
18061TIP3    H175674   1.329   6.444  12.451  2.1366  0.2921  0.4222
18061TIP3    H275675   1.314   6.507  12.588  0.3423 -0.4752  0.6159
18062TIP3   OH275676   2.864   4.520  17.047 -0.3019  0.4891 -0.4800
18062TIP3    H175677   2.947   4.567  17.045 -0.8040  1.3816 -0.7004
18062TIP3    H275678   2.883   4.437  17.003  1.0149 -0.2493  1.3545
18063TIP3   OH275679   6.027   4.551  12.655  0.1384 -0.5420 -0.5744
18063TIP3    H175680   5.940   4.585  12.674  0.8594  0.5461  0.9761
18063TIP3    H275681   6.056   4.512  12.738  1.7342  0.5225 -0.5896
18064TIP3   OH275682   2.990   4.525   1.444  0.2347  0.2579 -0.1144
18064TIP3    H175683   3.037   4.442   1.437  1.9595  1.0133  1.5854
18064TIP3    H275684   2.974   4.551   1.353  3.3973  0.0612 -0.8405
18065TIP3   OH275685   2.355   0.853  12.556 -0.3467  0.2018 -0.3428
18065TIP3    H175686   2.388   0.765  12.542 -0.4171 -0.0147  0.7221
18065TIP3    H275687   2.376   0.900  12.476 -0.2686 -0.7673 -0.9050
18066TIP3   OH275688   1.475   3.206   0.140 -0.0605 -0.3409  0.3542
18066TIP3    H175689   1.498   3.245   0.055  0.1719 -1.3749 -0.0698
18066TIP3    H275690   1.492   3.275   0.204  0.9999  0.0231 -0.3036
18067TIP3   OH275691   5.121   2.546  12.809  0.2282 -0.1807  0.9028
18067TIP3    H175692   5.203   2.589  12.785 -0.8024  0.6050 -1.4907
18067TIP3    H275693   5.065   2.555  12.732 -1.6345 -1.9355  1.9379
18068TIP3   OH275694   4.170   2.012   1.607 -0.2620 -0.2591 -0.1315
18068TIP3    H175695   4.253   2.028   1.653 -0.8071 -0.5435  0.9772
18068TIP3    H275696   4.123   2.094   1.614  0.1921  0.1284 -1.3718
18069TIP3   OH275697   1.091   4.293   1.925  0.7310 -0.1084 -0.3748
18069TIP3    H175698   1.141   4.213   1.906  0.3913 -0.4343  0.0963
18069TIP3    H275699   1.000   4.268   1.914  0.3555 -0.7666  3.0613
18070TIP3   OH275700   1.279   3.656  12.826 -0.0875  0.0773  0.4933
18070TIP3    H175701   1.271   3.674  12.919 -0.8101 -1.9328  0.8591
18070TIP3    H275702   1.251   3.565  12.816 -0.8646  0.4923 -1.8013
18071TIP3   OH275703   0.060   2.531   3.874  0.2212 -0.0192  0.0337
18071TIP3    H175704   0.148   2.530   3.912  0.6138  2.0199 -0.6769
18071TIP3    H275705   0.029   2.441   3.882  2.5257 -0.8864 -0.0538
18072TIP3   OH275706   4.627   3.158   4.583 -0.2205 -0.3335  0.1778
18072TIP3    H175707   4.683   3.196   4.650 -1.2513 -0.0588  0.9100
18072TIP3    H275708   4.670   3.179   4.500 -0.1892  1.4669  0.6264
18073TIP3   OH275709   3.956   5.544   1.071 -0.3678  0.3229 -0.3990
18073TIP3    H175710   3.911   5.598   1.135 -1.2414 -2.0202  1.1093
18073TIP3    H275711   3.951   5.594   0.989 -0.1937  2.9087  1.0697
18074TIP3   OH275712   1.920   1.206  15.715  0.2507 -0.1227 -0.1071
18074TIP3    H175713   1.980   1.188  15.643 -1.0154  0.5861 -1.3863
18074TIP3    H275714   1.884   1.292  15.695 -0.6956 -0.2465  0.9756
18075TIP3   OH275715   2.450   4.300   3.136 -0.2712  0.3985  0.6799
18075TIP3    H175716   2.467   4.360   3.064 -0.2437 -0.4821 -0.0752
18075TIP3    H275717   2.359   4.318   3.162 -0.1938  0.8962  0.5962
18076TIP3   OH275718   0.307   3.368   4.344 -0.2404  0.0456 -0.6072
18076TIP3    H175719   0.222   3.380   4.388 -0.2109 -1.0594 -0.2111
18076TIP3    H275720   0.342   3.457   4.335  0.2724  0.2857  2.6311
18077TIP3   OH275721   0.808   2.348   5.984 -0.5971 -0.0466  0.4125
18077TIP3    H175722   0.882   2.288   5.988 -0.7203 -0.1796  0.7294
18077TIP3    H275723   0.763   2.337   6.068 -0.2575  0.9611  0.7422
18078TIP3   OH275724   6.507   2.331   6.169  0.0175  0.4099  0.5820
18078TIP3    H175725   6.491   2.308   6.261 -0.8615  1.0250  0.5989
18078TIP3    H275726   6.560   2.411   6.174  0.2342  0.2714  0.5421
18079TIP3   OH275727   4.051   2.149  16.305  0.2117 -0.1895 -0.1543
18079TIP3    H175728   3.997   2.119  16.232  1.0396 -0.1952 -0.7903
18079TIP3    H275729   4.032   2.243  16.313  0.4300 -0.0941 -0.6770
18080TIP3   OH275730   3.174   5.126  15.551 -0.1457 -0.4936  0.1503
18080TIP3    H175731   3.190   5.035  15.574  2.8779  0.4462  2.3487
18080TIP3    H275732   3.260   5.162  15.532 -1.1385  2.1334  0.1490
18081TIP3   OH275733   4.842   6.316  11.019  0.6220  0.1878 -0.1247
18081TIP3    H175734   4.877   6.349  11.101  0.1641 -2.1659  1.1215
18081TIP3    H275735   4.918   6.308  10.962  1.3109 -0.1509  0.8156
18082TIP3   OH275736   5.842   1.343   1.282 -0.2981  0.1789 -0.1611
18082TIP3    H175737   5.786   1.369   1.208 -1.9204 -0.3995  0.8069
18082TIP3    H275738   5.826   1.410   1.348 -1.4465 -1.0594  0.8748
18083TIP3   OH275739   4.745   6.018   4.617  0.2187  0.2796  0.0300
18083TIP3    H175740   4.654   6.041   4.637  0.2219 -0.3119  0.7370
18083TIP3    H275741   4.738   5.948   4.552  0.2090  2.5342 -2.6189
18084TIP3   OH275742   4.137   0.630  13.324  0.3870  0.8450 -0.2528
18084TIP3    H175743   4.195   0.691  13.279  0.3381 -0.1276 -1.6948
18084TIP3    H275744   4.196   0.566  13.363  0.4252  1.6517  1.0729
18085TIP3   OH275745   2.209   2.187  12.389 -1.0382 -0.3657 -0.0383
18085TIP3    H175746   2.254   2.189  12.473 -3.5344 -0.2688  1.3999
18085TIP3    H275747   2.242   2.107  12.347  2.0874  0.8390 -0.1645
18086TIP3   OH275748   2.586   2.493  12.958 -0.5899  0.2177  0.3581
18086TIP3    H175749   2.561   2.487  12.866 -1.5370 -0.6108  0.6530
18086TIP3    H275750   2.603   2.403  12.985 -0.8093  0.3970  1.1269
18087TIP3   OH275751   0.147   1.328  15.176 -0.4288  0.2612 -0.2545
18087TIP3    H175752   0.053   1.324  15.157 -0.6740 -0.1081  0.9694
18087TIP3    H275753   0.167   1.421  15.179 -0.6460  0.3420 -0.9708
18088TIP3   OH275754   4.281   5.256  16.609 -0.2645  0.3822  0.0859
18088TIP3    H175755   4.252   5.207  16.686 -1.6099 -1.6129 -1.5904
18088TIP3    H275756   4.375   5.240  16.605 -0.5877 -1.6921 -0.1016
18089TIP3   OH275757   0.104   4.947   0.931 -0.1401 -0.7291 -0.0127
18089TIP3    H175758   0.131   4.945   0.839 -1.3252 -3.0089 -0.3809
18089TIP3    H275759   0.181   4.919   0.980  0.3827  0.1377 -0.3102
18090TIP3   OH275760   2.985   3.653   2.525  0.1085  0.6338 -0.1272
18090TIP3    H175761   2.938   3.736   2.525 -0.7774  0.1829  1.3292
18090TIP3    H275762   2.930   3.594   2.577  2.0316 -0.0523  1.2738
18091TIP3   OH275763   1.640   2.294   1.425  0.0397  0.4034 -0.0265
18091TIP3    H175764   1.604   2.351   1.358  0.2649 -0.8339 -1.2540
18091TIP3    H275765   1.579   2.220   1.429  1.5578 -0.9878 -1.0660
18092TIP3   OH275766   1.638   2.711   3.658  0.6624 -0.9273 -0.8023
18092TIP3    H175767   1.710   2.722   3.596  1.5853 -4.5590 -0.6037
18092TIP3    H275768   1.679   2.674   3.736 -0.6784  2.2408  1.5861
18093TIP3   OH275769   0.701   2.168   5.504 -0.5879 -0.1334  0.5556
18093TIP3    H175770   0.636   2.100   5.518  0.4335 -1.1208  0.6086
18093TIP3    H275771   0.706   2.214   5.587 -0.7802 -0.4412  0.7382
18094TIP3   OH275772   2.535   0.525  13.198  0.2218  0.0852 -0.1574
18094TIP3    H175773   2.549   0.474  13.118  0.8721 -0.9637  0.6134
18094TIP3    H275774   2.595   0.599  13.190  0.0935  0.1278 -0.7596
18095TIP3   OH275775   1.232   1.678   1.430 -0.0691 -0.2915  0.0101
18095TIP3    H175776   1.172   1.728   1.374 -1.6548 -0.5396  1.4115
18095TIP3    H275777   1.274   1.744   1.486  0.6860 -0.1626 -0.6899
18096TIP3   OH275778   0.621   5.097   2.328  0.1253  0.1290 -0.5933
18096TIP3    H175779   0.588   5.025   2.274 -0.4768 -0.5312  0.6079
18096TIP3    H275780   0.602   5.070   2.418  0.4378  1.5310 -0.0814
18097TIP3   OH275781   6.535   3.505   0.651  0.5120 -0.4723 -0.1390
18097TIP3    H175782   6.447   3.509   0.614  0.9583 -1.2528 -1.3362
18097TIP3    H275783   6.568   3.418   0.628  1.0979 -0.7326  1.4942
18098TIP3   OH275784   2.521   5.633   1.355 -0.4013 -0.3776 -0.3072
18098TIP3    H175785   2.586   5.646   1.424  0.1955 -0.3568 -0.8611
18098TIP3    H275786   2.464   5.564   1.388 -0.2223 -0.2527  0.2764
18099TIP3   OH275787   1.433   1.942   4.447 -0.6667 -0.1556  0.5584
18099TIP3    H175788   1.395   2.018   4.403 -2.1368 -0.9544  0.3625
18099TIP3    H275789   1.524   1.939   4.416 -1.0591  0.5534 -0.7361
18100TIP3   OH275790   0.588   5.513   2.998  0.4355 -0.0085 -0.1050
18100TIP3    H175791   0.509   5.480   2.955  0.4399 -0.2696  0.0833
18100TIP3    H275792   0.632   5.564   2.931 -0.4712  1.1044  0.1138
18101TIP3   OH275793   2.569   6.793   1.588 -0.1436  0.1422 -0.4296
18101TIP3    H175794   2.597   6.738   1.515 -0.5228  0.6279 -0.9547
18101TIP3    H275795   2.529   6.733   1.650 -0.2906 -0.2101 -0.8632
18102TIP3   OH275796   4.683   6.529   5.430  0.1240  0.3646  0.2437
18102TIP3    H175797   4.676   6.596   5.497  0.9693  2.0682 -1.2595
18102TIP3    H275798   4.606   6.474   5.441  0.6328  0.0872  3.0514
18103TIP3   OH275799   0.928   3.886   0.739  0.4232  0.2332  0.3009
18103TIP3    H175800   0.906   3.829   0.665 -0.6265 -0.3317  1.0184
18103TIP3    H275801   1.000   3.841   0.783  1.2651  0.7283 -0.5339
18104TIP3   OH275802   6.625   6.147   2.198  0.3906 -0.2350 -0.2306
18104TIP3    H175803   6.689   6.156   2.269  0.2879 -0.4121 -0.1157
18104TIP3    H275804   6.622   6.234   2.158 -1.1355  0.4692  1.3256
18105TIP3   OH275805   3.168   4.301   0.005  0.0727 -0.1900 -0.4431
18105TIP3    H175806   3.141   4.274  -0.082 -0.4905 -0.3134 -0.2330
18105TIP3    H275807   3.101   4.266   0.063 -0.9671  2.0344 -0.1944
18106TIP3   OH275808   0.957   5.775  12.998  0.1022 -0.1970 -0.6571
18106TIP3    H175809   0.936   5.741  13.085 -4.2635 -0.1033 -1.4347
18106TIP3    H275810   0.964   5.870  13.011  0.5949 -0.2834 -0.2643
18107TIP3   OH275811   4.335   0.097  14.548  0.0589 -0.4734  0.5880
18107TIP3    H175812   4.381   0.014  14.563  1.7019  0.6709  2.3786
18107TIP3    H275813   4.277   0.106  14.624 -1.1257 -0.5902 -0.2808
18108TIP3   OH275814   2.838   0.444  13.255 -0.4400 -0.9434 -0.4565
18108TIP3    H175815   2.888   0.384  13.310  0.0177 -0.4746 -0.3529
18108TIP3    H275816   2.837   0.403  13.168 -1.2570 -1.7351 -0.0878
18109TIP3   OH275817   0.049   5.429   2.319 -0.2696  0.0693  0.0264
18109TIP3    H175818   0.116   5.361   2.315 -0.1221  0.2749 -3.1605
18109TIP3    H275819   0.097   5.510   2.336  0.2639  0.1132 -1.5485
18110TIP3   OH275820   4.184   1.352  14.189  0.4905  0.3202  0.8256
18110TIP3    H175821   4.097   1.320  14.168  1.0924 -1.2279  0.5602
18110TIP3    H275822   4.201   1.322  14.278  0.9501  0.1520  0.6853
18111TIP3   OH275823   0.265   6.227   5.140  0.3831 -0.3556 -0.0160
18111TIP3    H175824   0.187   6.272   5.173  0.6510 -0.5188  0.8444
18111TIP3    H275825   0.334   6.294   5.144 -0.0062  0.2833 -2.2310
18112TIP3   OH275826   4.620   0.907  14.804  0.3673 -0.1920  0.5596
18112TIP3    H175827   4.664   0.824  14.786  1.0037  0.3470 -0.4312
18112TIP3    H275828   4.591   0.938  14.719 -1.4983 -0.2619  1.1184
18113TIP3   OH275829   2.576   5.176   3.546  0.5458  0.0777 -0.2186
18113TIP3    H175830   2.491   5.172   3.591  0.7289  1.3871  0.2883
18113TIP3    H275831   2.636   5.130   3.605  0.0130 -1.8453 -1.0979
18114TIP3   OH275832   0.217   5.264   5.420  0.2672 -0.3699  0.0094
18114TIP3    H175833   0.189   5.215   5.343  0.3419  0.6816 -0.6989
18114TIP3    H275834   0.157   5.235   5.489  0.8462 -2.0698 -0.1648
18115TIP3   OH275835   5.579   1.563  14.889 -0.9339  0.5746 -0.0380
18115TIP3    H175836   5.540   1.608  14.964 -0.7720  0.4299  0.1332
18115TIP3    H275837   5.568   1.624  14.816 -2.4165  0.1241 -0.2331
18116TIP3   OH275838   4.770   3.938  14.655  0.0112  0.2004 -0.4061
18116TIP3    H175839   4.712   3.862  14.666 -0.4599  0.3409 -1.6544
18116TIP3    H275840   4.710   4.012  14.646  0.4501  0.6295  0.1421
18117TIP3   OH275841   3.829   6.212   2.464 -0.1886 -0.3114 -0.1626
18117TIP3    H175842   3.783   6.158   2.399 -1.7446  1.9809 -1.0895
18117TIP3    H275843   3.769   6.285   2.481  1.2674  0.4633  2.0108
18118TIP3   OH275844   1.630   5.528  14.049  0.6782 -0.4226  0.2172
18118TIP3    H175845   1.555   5.578  14.016 -0.1931 -1.2258  0.9308
18118TIP3    H275846   1.662   5.479  13.973  1.5822  1.2219 -0.5094
18119TIP3   OH275847   6.080   4.180  12.372 -0.4619  0.2813  0.0011
18119TIP3    H175848   6.087   4.124  12.295  0.6428  1.3136 -0.6963
18119TIP3    H275849   6.047   4.263  12.338  0.6791  0.9723  0.4830
18120TIP3   OH275850   3.408   2.728   2.638 -0.4320  0.1123  0.4070
18120TIP3    H175851   3.413   2.641   2.599  0.0462  0.0628  0.5706
18120TIP3    H275852   3.335   2.723   2.700  0.2218 -0.4826  1.1599
18121TIP3   OH275853   4.476   3.757  12.673 -0.5613 -0.1064 -0.3653
18121TIP3    H175854   4.536   3.683  12.662 -0.0851 -0.0513  1.5476
18121TIP3    H275855   4.501   3.796  12.757 -0.5194  2.5188 -1.5030
18122TIP3   OH275856   6.630   2.893  13.858 -0.2466 -0.8059 -0.1616
18122TIP3    H175857   6.553   2.868  13.909 -1.2760 -0.8417 -1.6576
18122TIP3    H275858   6.653   2.814  13.809 -2.0711  0.2990 -3.1140
18123TIP3   OH275859   5.081   1.778  12.950 -0.1260  0.4572 -0.2763
18123TIP3    H175860   5.152   1.725  12.988  1.2180  1.3650 -1.4248
18123TIP3    H275861   5.001   1.735  12.980  0.9042 -1.0628  0.4374
18124TIP3   OH275862   5.049   3.577   0.296 -0.1935 -0.1779  0.1793
18124TIP3    H175863   4.991   3.508   0.326  1.1539 -2.0397 -1.2818
18124TIP3    H275864   5.002   3.619   0.224  0.6190 -2.4982 -1.8469
18125TIP3   OH275865   5.553   5.168  16.960  0.2866  0.3035 -0.3193
18125TIP3    H175866   5.529   5.149  17.051  0.9942  1.7140  0.1940
18125TIP3    H275867   5.494   5.239  16.934  0.5026  0.3279 -0.7560
18126TIP3   OH275868   4.388   1.787  16.199  0.6603  0.2646 -0.0882
18126TIP3    H175869   4.473   1.770  16.238 -0.0562 -0.4609  1.2079
18126TIP3    H275870   4.328   1.793  16.273 -0.4884  0.3472 -0.9987
18127TIP3   OH275871   4.762   2.749   3.990 -0.0909  0.1066  0.2791
18127TIP3    H175872   4.855   2.756   4.013  0.2573  3.0527 -1.4711
18127TIP3    H275873   4.745   2.655   3.989  2.3850 -0.4966  2.3232
18128TIP3   OH275874   2.347   1.241   1.619  0.3176 -0.4051  0.0009
18128TIP3    H175875   2.360   1.282   1.705 -0.9108 -1.6553  0.8442
18128TIP3    H275876   2.374   1.150   1.632 -0.0973 -0.6588 -0.8641
18129TIP3   OH275877   2.026   4.517  10.758  0.0821 -0.3764  0.1106
18129TIP3    H175878   1.996   4.536  10.669  1.0840  2.8496  0.3191
18129TIP3    H275879   2.115   4.483  10.747  0.6767  1.1783 -0.1545
18130TIP3   OH275880   2.697   6.785   2.726  0.3792  0.3092  0.2898
18130TIP3    H175881   2.659   6.860   2.771  1.3846  0.4385  0.9480
18130TIP3    H275882   2.746   6.823   2.653 -1.5003  0.0835 -1.1764
18131TIP3   OH275883   4.510   6.650  16.430  0.1265 -0.5663  0.1592
18131TIP3    H175884   4.565   6.718  16.391  0.7784 -2.1445 -1.8586
18131TIP3    H275885   4.566   6.607  16.493 -0.0659  0.2658  0.9243
18132TIP3   OH275886   2.774   0.126  16.809 -0.1555 -0.0842  0.4030
18132TIP3    H175887   2.792   0.219  16.801  0.3064 -0.2781 -0.9561
18132TIP3    H275888   2.730   0.118  16.894  1.1080  1.1607  1.2320
18133TIP3   OH275889   3.877   3.037   2.048  0.1845  0.0810  0.2699
18133TIP3    H175890   3.955   3.029   2.102  0.3483 -1.9486 -0.1878
18133TIP3    H275891   3.908   3.024   1.958 -0.4176  1.0988 -0.0964
18134TIP3   OH275892   6.259   5.678  17.234 -0.1805  0.1503 -0.0425
18134TIP3    H175893   6.212   5.671  17.151 -0.9435 -1.7352  0.4868
18134TIP3    H275894   6.347   5.646  17.216  0.2642  1.5671 -0.5244
18135TIP3   OH275895   0.672   2.139  14.062 -0.1908  0.1500  0.3907
18135TIP3    H175896   0.653   2.047  14.044  0.9333  0.1867 -1.1960
18135TIP3    H275897   0.734   2.137  14.135  2.2983 -0.5904 -1.6237
18136TIP3   OH275898   4.180   5.037   5.006 -0.0401  0.0762  0.1254
18136TIP3    H175899   4.134   4.984   4.941 -1.0823  2.0521 -0.8276
18136TIP3    H275900   4.113   5.066   5.067  0.0189  2.2071 -0.7366
18137TIP3   OH275901   4.243   1.191  11.580 -0.0154 -0.5242 -0.0554
18137TIP3    H175902   4.241   1.099  11.553 -1.0713 -0.3611 -0.5980
18137TIP3    H275903   4.217   1.239  11.502  2.2918  0.4011 -0.3199
18138TIP3   OH275904   4.265   4.939   5.838 -0.1278 -0.0273 -0.5490
18138TIP3    H175905   4.234   4.862   5.886  0.4606  0.3424  0.4493
18138TIP3    H275906   4.187   4.973   5.795 -0.2118 -1.8319 -1.9803
18139TIP3   OH275907   5.693   2.073   4.501  0.2989 -0.5143 -0.1651
18139TIP3    H175908   5.773   2.124   4.515 -0.2514  0.2453  0.2970
18139TIP3    H275909   5.630   2.110   4.563 -0.7599 -0.3191 -1.3212
18140TIP3   OH275910   0.246   3.450  16.500  0.5334  0.6429  0.7252
18140TIP3    H175911   0.189   3.501  16.442 -0.3141  1.5061  2.2429
18140TIP3    H275912   0.330   3.446  16.454 -0.0416  1.4999 -0.4467
18141TIP3   OH275913   2.348   3.496  11.923 -0.0591  0.0246 -0.3872
18141TIP3    H175914   2.423   3.554  11.937 -0.0405  0.0932 -0.7509
18141TIP3    H275915   2.345   3.483  11.828 -0.3434 -0.1982 -0.3503
18142TIP3   OH275916   1.636   3.464  11.962  0.3499  0.4313 -0.0373
18142TIP3    H175917   1.684   3.533  11.917  2.6423 -1.3526 -0.5167
18142TIP3    H275918   1.595   3.413  11.892 -0.0136  0.3872  0.2061
18143TIP3   OH275919   4.429   5.745   3.941  0.1223  0.7800  0.3118
18143TIP3    H175920   4.364   5.813   3.928 -1.6360 -0.5783  1.4218
18143TIP3    H275921   4.402   5.702   4.023  0.0377 -2.3761 -1.2325
18144TIP3   OH275922   6.124   1.039  15.889  0.2252  0.2185  0.4268
18144TIP3    H175923   6.065   1.022  15.816  1.3145 -0.7027 -0.2736
18144TIP3    H275924   6.090   1.119  15.929  0.0137  1.1454 -1.5107
18145TIP3   OH275925   2.893   5.311   3.775 -0.0989 -0.7278  0.6332
18145TIP3    H175926   2.862   5.225   3.746 -2.4442 -0.0133  0.8186
18145TIP3    H275927   2.912   5.299   3.868  0.7699 -1.3387  0.3812
18146TIP3   OH275928   1.700   6.359   3.393 -0.5405 -0.4550  0.5333
18146TIP3    H175929   1.784   6.403   3.384 -0.5943 -0.6536 -1.5050
18146TIP3    H275930   1.678   6.367   3.486  0.5089  1.8138  0.6418
18147TIP3   OH275931   1.230   0.407  17.149  0.1092 -0.3336 -0.0649
18147TIP3    H175932   1.202   0.361  17.228  1.0451 -1.3612 -0.3118
18147TIP3    H275933   1.302   0.463  17.177  0.2703 -0.5058 -0.1271
18148TIP3   OH275934   5.000   6.182   0.552  0.5210  0.3221 -0.2652
18148TIP3    H175935   5.074   6.166   0.494  0.9549  2.3640 -0.3608
18148TIP3    H275936   5.017   6.128   0.628 -0.0985 -2.4960 -1.9831
18149TIP3   OH275937   4.630   4.859  11.122  0.3161  0.4256 -0.4921
18149TIP3    H175938   4.552   4.823  11.081 -0.4083  1.4034 -0.0189
18149TIP3    H275939   4.639   4.809  11.204  0.1001  0.4248 -0.4696
18150TIP3   OH275940   2.389   0.180   4.121 -0.5640 -0.2431  0.2810
18150TIP3    H175941   2.460   0.166   4.059 -0.2338  1.1305  0.3150
18150TIP3    H275942   2.432   0.218   4.198 -1.3499  0.8885  0.1864
18151TIP3   OH275943   1.628   5.896  14.047 -0.1996 -0.5974  0.0549
18151TIP3    H175944   1.677   5.847  13.980  0.3982  0.0953 -0.0307
18151TIP3    H275945   1.695   5.927  14.107 -0.3505  1.4202 -0.7302
18152TIP3   OH275946   0.617   5.153   0.364 -0.3363  0.1747  0.4880
18152TIP3    H175947   0.550   5.085   0.373 -0.6081 -0.3629 -3.7224
18152TIP3    H275948   0.694   5.106   0.332 -0.6516  1.6942 -2.9141
18153TIP3   OH275949   3.384   2.172   3.460 -0.7857 -0.0493  0.0204
18153TIP3    H175950   3.302   2.154   3.414  0.1116  0.6044 -1.9484
18153TIP3    H275951   3.364   2.245   3.519 -1.3487  0.9381 -1.3427
18154TIP3   OH275952   0.034   1.931   6.257  0.2801  0.5605  0.1022
18154TIP3    H175953   0.074   1.945   6.343  0.8493 -2.2564  0.3943
18154TIP3    H275954   0.106   1.943   6.195  0.3539  0.5752  0.1902
18155TIP3   OH275955   3.924   4.651   3.293  0.7306  0.2958  0.0547
18155TIP3    H175956   3.933   4.658   3.198 -0.4825 -1.2361 -0.2112
18155TIP3    H275957   4.012   4.668   3.327  1.8278 -1.7935 -1.5216
18156TIP3   OH275958   6.744   0.062  12.477 -1.4368  0.6808 -0.2222
18156TIP3    H175959   6.715   0.123  12.410 -0.1077  0.3684 -1.1279
18156TIP3    H275960   6.708  -0.023  12.450  0.2307  0.2901 -1.3544
18157TIP3   OH275961   3.446   5.238  13.864  0.6254 -0.1000 -0.1556
18157TIP3    H175962   3.477   5.206  13.949  0.0143  0.3501  0.2482
18157TIP3    H275963   3.520   5.286  13.828 -0.0570  2.3851  1.5383
18158TIP3   OH275964   0.103   5.516  14.053 -0.9202  0.5255  0.0538
18158TIP3    H175965   0.090   5.445  14.117  3.3736 -1.4433 -0.9478
18158TIP3    H275966   0.160   5.579  14.098 -0.7221  0.8830 -0.6817
18159TIP3   OH275967   1.474   3.064   1.488 -0.1057 -0.1183 -0.2094
18159TIP3    H175968   1.394   3.056   1.539  0.1918  2.9025  0.8936
18159TIP3    H275969   1.544   3.058   1.552  0.3207  2.1168 -0.3762
18160TIP3   OH275970   4.113   1.037   1.501 -0.3093 -0.4689 -0.1859
18160TIP3    H175971   4.160   0.954   1.506  0.2066 -0.2044 -0.5486
18160TIP3    H275972   4.027   1.014   1.466 -0.5514 -0.9914  0.7201
18161TIP3   OH275973   3.152   5.294   5.567 -0.1058  0.2198  0.4106
18161TIP3    H175974   3.101   5.357   5.619  0.9233  1.4044  0.0326
18161TIP3    H275975   3.243   5.323   5.577  0.2330 -0.3047 -0.9966
18162TIP3   OH275976   1.502   4.112   0.905 -0.1077 -0.5033 -0.0452
18162TIP3    H175977   1.465   4.035   0.862  0.1092 -0.7511  0.2146
18162TIP3    H275978   1.548   4.159   0.835  0.1330 -0.8373 -0.1115
18163TIP3   OH275979   3.074   3.212   2.938 -0.2705 -0.0473 -0.5612
18163TIP3    H175980   3.137   3.167   2.994 -0.4979  0.5702  0.2210
18163TIP3    H275981   3.122   3.232   2.858  0.6981  0.8840  0.2230
18164TIP3   OH275982   5.726   3.582  13.203 -0.0581 -0.1856 -0.1196
18164TIP3    H175983   5.706   3.508  13.259  0.8149 -0.7033 -0.4690
18164TIP3    H275984   5.643   3.604  13.161 -0.4003 -0.7206  0.2708
18165TIP3   OH275985   4.152   6.745  17.360 -0.4666 -0.2324  0.2134
18165TIP3    H175986   4.235   6.780  17.391 -0.6047  0.4390 -0.1406
18165TIP3    H275987   4.152   6.653  17.386  0.9259 -0.5615 -0.8521
18166TIP3   OH275988   5.170   5.178  13.145  0.1845  0.0551 -0.5223
18166TIP3    H175989   5.264   5.191  13.161  0.3881 -0.2534 -1.3600
18166TIP3    H275990   5.146   5.249  13.086  0.2795 -0.7591 -1.5794
18167TIP3   OH275991   0.883   5.481  15.469 -0.1301  0.3703  0.3817
18167TIP3    H175992   0.931   5.486  15.552  3.7376  2.2908 -1.6943
18167TIP3    H275993   0.829   5.559  15.468  0.1118  0.5492  0.9481
18168TIP3   OH275994   4.205   5.601  12.017 -0.1769 -0.1697  0.3194
18168TIP3    H175995   4.112   5.612  12.040  0.1439 -1.0171  2.2616
18168TIP3    H275996   4.205   5.587  11.922 -2.2289 -1.8661  0.4913
18169TIP3   OH275997   0.341   3.263  12.188  0.2313  0.4684 -0.3014
18169TIP3    H175998   0.395   3.340  12.172 -0.8502  1.0298 -1.4301
18169TIP3    H275999   0.326   3.263  12.282  0.6052  1.3908 -0.2333
18170TIP3   OH276000   3.493   1.235  11.345  0.0920  0.2377 -0.4689
18170TIP3    H176001   3.580   1.241  11.305 -0.0698  1.7475 -0.6511
18170TIP3    H276002   3.446   1.173  11.290  1.0918 -0.7432 -0.2608
18171TIP3   OH276003   4.042   6.405  15.877 -0.3911 -0.1160 -0.3862
18171TIP3    H176004   4.134   6.413  15.851 -0.6814 -0.6454 -1.6487
18171TIP3    H276005   4.035   6.316  15.911 -0.0051  0.5793  1.7230
18172TIP3   OH276006   3.625   0.816  16.864  0.1550  0.2751  0.1277
18172TIP3    H176007   3.587   0.895  16.825 -1.6574 -0.3543  0.5228
18172TIP3    H276008   3.566   0.746  16.837  1.3473 -0.8572  0.3653
18173TIP3   OH276009   5.820   0.414  14.022  0.8916 -0.1237  0.1676
18173TIP3    H176010   5.844   0.334  14.068 -0.0708 -1.7598 -2.0034
18173TIP3    H276011   5.870   0.411  13.940 -0.2442  0.7241 -0.6023
18174TIP3   OH276012   4.764   0.361  12.622  0.4735  0.8195  0.2020
18174TIP3    H176013   4.688   0.386  12.570  0.1362  0.6253  0.5875
18174TIP3    H276014   4.786   0.273  12.592 -0.2462  0.3646  0.9543
18175TIP3   OH276015   5.458   4.633  12.017  0.0037  0.0363 -0.1932
18175TIP3    H176016   5.363   4.638  12.011  0.1069  1.7627 -0.9694
18175TIP3    H276017   5.483   4.569  11.951 -0.6034 -0.5060  0.0851
18176TIP3   OH276018   2.208   6.436  12.373 -0.0808  0.0354 -0.7246
18176TIP3    H176019   2.303   6.425  12.380 -0.1551 -0.5576 -0.5871
18176TIP3    H276020   2.172   6.351  12.400 -0.6840  0.5765  0.2488
18177TIP3   OH276021   0.874   3.875  13.053  0.3039 -0.3179  0.0591
18177TIP3    H176022   0.913   3.789  13.034 -0.5615 -1.4012  2.6713
18177TIP3    H276023   0.935   3.916  13.114 -0.7129 -0.4023  1.1720
18178TIP3   OH276024   6.215   5.477   0.442  0.5732 -0.0060 -0.3087
18178TIP3    H176025   6.310   5.477   0.447  0.5297  0.7560  1.0909
18178TIP3    H276026   6.190   5.386   0.456  1.0159  0.2781  3.3831
18179TIP3   OH276027   2.665   1.081   4.774 -0.2320 -0.1688 -0.8156
18179TIP3    H176028   2.570   1.069   4.770 -0.1840 -0.9269 -0.0171
18179TIP3    H276029   2.679   1.140   4.848 -0.0474 -0.5300 -0.5603
18180TIP3   OH276030   6.091   3.023  14.690 -0.1210  0.1101  0.1752
18180TIP3    H176031   6.051   2.940  14.664  0.9050 -1.0308  2.0050
18180TIP3    H276032   6.018   3.077  14.718 -0.8229 -0.0934 -1.1729
18181TIP3   OH276033   2.152   0.780  11.374  0.6918 -0.1974  0.1163
18181TIP3    H176034   2.117   0.723  11.443 -1.9905  2.7071  1.4129
18181TIP3    H276035   2.121   0.741  11.292  1.0169 -1.8368  0.7289
18182TIP3   OH276036   3.907   6.384   4.125  0.0073  0.7080  0.3137
18182TIP3    H176037   3.916   6.372   4.030  1.3648  0.2382  0.4777
18182TIP3    H276038   3.859   6.466   4.134  0.6497  1.2334 -0.7788
18183TIP3   OH276039   6.086   4.830  13.755 -0.4288 -0.3474  0.3890
18183TIP3    H176040   6.061   4.819  13.847 -2.8860 -0.6451 -0.2482
18183TIP3    H276041   6.107   4.741  13.725 -1.2390 -0.4968  0.2513
18184TIP3   OH276042   2.845   1.386   0.704 -0.2721  0.6502  0.2484
18184TIP3    H176043   2.789   1.423   0.773  0.3629  0.2258  1.0141
18184TIP3    H276044   2.824   1.436   0.626 -2.9736 -0.5742  0.0630
18185TIP3   OH276045   1.771   0.629   6.172 -0.1401 -0.2713 -0.2842
18185TIP3    H176046   1.849   0.682   6.189 -0.6741  0.8514 -1.2058
18185TIP3    H276047   1.804   0.539   6.164  0.9061  0.0442  0.3879
18186TIP3   OH276048   0.759   3.584   1.761 -0.8673 -0.2464  0.3469
18186TIP3    H176049   0.734   3.664   1.808  0.5870  0.4822 -0.0634
18186TIP3    H276050   0.827   3.613   1.700 -1.9208 -1.3620 -1.4502
18187TIP3   OH276051   5.023   1.666  11.555  0.2229  0.3425  0.2057
18187TIP3    H176052   5.008   1.577  11.525 -1.0385  0.8208 -0.6538
18187TIP3    H276053   4.993   1.722  11.483  0.6458  1.4722  0.8703
18188TIP3   OH276054   5.093   5.501   4.809 -0.3582  0.6877 -0.0432
18188TIP3    H176055   5.179   5.541   4.798  0.8567 -1.3911  1.1017
18188TIP3    H276056   5.067   5.523   4.898 -0.8139  0.9236 -0.2313
18189TIP3   OH276057   0.928   4.461   3.280  0.5061 -0.1203 -0.1417
18189TIP3    H176058   0.943   4.446   3.373  1.4815 -0.2932 -0.3125
18189TIP3    H276059   0.921   4.373   3.243 -2.2051 -0.0672  0.0862
18190TIP3   OH276060   5.436   3.713   4.865 -0.6758 -0.0478 -0.1571
18190TIP3    H176061   5.471   3.635   4.822  0.7780 -1.0131  2.4959
18190TIP3    H276062   5.482   3.786   4.825  1.7472 -1.0151  0.6912
18191TIP3   OH276063   3.342   5.910   1.459  0.0600  0.0999 -0.0358
18191TIP3    H176064   3.324   5.971   1.387  0.1288 -0.1267 -0.2474
18191TIP3    H276065   3.387   5.836   1.417  0.0191 -0.0742  0.2243
18192TIP3   OH276066   0.776   6.399   4.125 -0.1807  0.2500  0.2624
18192TIP3    H176067   0.818   6.355   4.198  0.8809  1.2094  0.2536
18192TIP3    H276068   0.757   6.329   4.062 -1.1781 -0.5947  1.4581
18193TIP3   OH276069   4.460   4.025  16.233 -0.3348 -0.1549 -0.5356
18193TIP3    H176070   4.417   4.102  16.196 -1.9368 -0.5875  0.3520
18193TIP3    H276071   4.391   3.979  16.280  1.4491  0.1155  2.6265
18194TIP3   OH276072   3.031   3.342  14.268 -0.5758 -0.7741 -0.3420
18194TIP3    H176073   3.012   3.386  14.351  0.6256  1.2971 -1.0964
18194TIP3    H276074   3.015   3.409  14.201  1.1115 -1.5291 -1.5748
18195TIP3   OH276075   4.129   6.186   4.730 -0.7570  0.1915  0.4531
18195TIP3    H176076   4.206   6.142   4.766  1.0809 -0.1483 -3.3320
18195TIP3    H276077   4.143   6.279   4.747  0.1640  0.0635  0.4171
18196TIP3   OH276078   5.962   0.200  16.581  0.0024 -0.6833  0.1223
18196TIP3    H176079   6.030   0.235  16.522 -0.8643  1.2344  0.1962
18196TIP3    H276080   6.005   0.128  16.626  1.2602 -1.0367 -1.5389
18197TIP3   OH276081   6.799   4.787   4.207 -0.5315  0.0548 -0.1472
18197TIP3    H176082   6.727   4.732   4.175 -1.1584  0.8526 -0.1178
18197TIP3    H276083   6.761   4.874   4.217 -0.0633  0.0951  1.6599
18198TIP3   OH276084   4.445   3.736  14.741 -0.4084 -0.2548 -0.4865
18198TIP3    H176085   4.463   3.751  14.834 -0.6385 -0.9648 -0.3218
18198TIP3    H276086   4.363   3.781  14.724 -0.6031 -0.5103 -0.2294
18199TIP3   OH276087   3.005   3.361  12.977 -0.0265  0.1364  0.1771
18199TIP3    H176088   2.954   3.380  13.056  0.3041  1.0638  0.1787
18199TIP3    H276089   3.096   3.361  13.007 -0.0054 -1.9494  0.2642
18200TIP3   OH276090   1.507   4.707  14.866  0.3054 -0.0028 -0.5356
18200TIP3    H176091   1.589   4.750  14.844  0.1282  0.1534 -0.9014
18200TIP3    H276092   1.525   4.660  14.947  0.5606  0.5728 -0.2555
18201TIP3   OH276093   2.985   0.586   1.377 -0.9376  0.4388  0.0818
18201TIP3    H176094   2.957   0.603   1.287 -1.8514  4.3211  0.9562
18201TIP3    H276095   2.926   0.637   1.432 -1.0747 -2.5616  3.1076
18202TIP3   OH276096   5.599   6.795   0.371 -0.2531 -0.4660 -0.6717
18202TIP3    H176097   5.549   6.853   0.313 -0.7603  0.3815  0.5661
18202TIP3    H276098   5.597   6.839   0.456 -0.9663 -2.4842  0.4293
18203TIP3   OH276099   2.591   2.290   1.020 -0.3318 -0.6032 -0.4844
18203TIP3    H176100   2.534   2.332   1.084 -1.6706  0.1106 -2.0620
18203TIP3    H276101   2.629   2.216   1.066  0.4211  1.0544  1.7486
18204TIP3   OH276102   3.291   3.546   2.009 -0.1848  0.0144  0.2828
18204TIP3    H176103   3.384   3.569   2.004 -0.6973  2.1275 -0.5561
18204TIP3    H276104   3.263   3.578   2.095  0.1490 -2.0492  1.2314
18205TIP3   OH276105   0.461   1.139   6.152  0.1940 -0.1441 -0.2128
18205TIP3    H176106   0.552   1.161   6.175 -0.1232  0.0474  0.9518
18205TIP3    H276107   0.411   1.216   6.178 -0.2638 -0.0866 -1.2339
18206TIP3   OH276108   4.414   6.554  13.288 -0.3348 -0.1084  0.2421
18206TIP3    H176109   4.420   6.557  13.193  0.5889 -1.3349  0.2374
18206TIP3    H276110   4.421   6.461  13.310  0.8076  0.2602  1.5854
18207TIP3   OH276111   5.095   3.731   2.073 -0.6076 -0.3032 -0.0162
18207TIP3    H176112   5.018   3.766   2.119 -0.0644 -0.0083  0.6891
18207TIP3    H276113   5.096   3.777   1.989 -0.3632  0.8000  0.5780
18208TIP3   OH276114   2.764   4.894   1.971 -0.2688 -0.7275  0.3138
18208TIP3    H176115   2.823   4.968   1.978 -1.5528  0.3199  0.5870
18208TIP3    H276116   2.757   4.877   1.877 -1.8434  1.1355  0.0356
18209TIP3   OH276117   6.484   1.215   1.377 -0.2576 -0.3768  0.7953
18209TIP3    H176118   6.548   1.145   1.391  0.5562 -0.0931 -1.1633
18209TIP3    H276119   6.402   1.180   1.413  0.5580 -1.5472  1.5748
18210TIP3   OH276120   4.360   5.223  14.615 -0.5125 -0.1785 -0.0143
18210TIP3    H176121   4.331   5.311  14.593  0.0591  0.0070 -0.0425
18210TIP3    H276122   4.367   5.178  14.531  1.1533  0.3703 -0.2086
18211TIP3   OH276123   5.274   2.331  13.085  0.0545  0.1002 -0.1246
18211TIP3    H176124   5.252   2.253  13.137 -1.0804 -0.8603 -1.9501
18211TIP3    H276125   5.363   2.314  13.053  0.8520  0.7985  1.5984
18212TIP3   OH276126   3.809   2.784  14.241 -0.1176  0.0278  0.1226
18212TIP3    H176127   3.864   2.859  14.219  0.6381 -0.1610  1.2824
18212TIP3    H276128   3.853   2.709  14.199 -0.4413  0.1130 -0.3776
18213TIP3   OH276129   6.008   1.388  13.247  0.1750 -0.3723  0.0091
18213TIP3    H176130   5.959   1.306  13.240 -0.4082  0.0336 -0.8077
18213TIP3    H276131   5.948   1.455  13.211  0.8724  0.3155  0.1013
18214TIP3   OH276132   5.796   3.543   4.930 -0.1182  0.0973 -0.5563
18214TIP3    H176133   5.847   3.593   4.867 -0.9910  0.3910 -1.0368
18214TIP3    H276134   5.800   3.595   5.010 -0.0033  0.3203 -0.7064
18215TIP3   OH276135   3.737   1.716   4.491  0.5363 -0.1409 -0.3937
18215TIP3    H176136   3.668   1.659   4.526 -0.5994  1.9086  0.9395
18215TIP3    H276137   3.760   1.774   4.564  2.6848  0.1734 -1.2504
18216TIP3   OH276138   2.524   3.428  15.439  0.0333 -0.4156  0.0853
18216TIP3    H176139   2.548   3.441  15.348 -3.9158 -0.6574 -1.1667
18216TIP3    H276140   2.499   3.516  15.470 -1.0295 -0.7111  0.0990
18217TIP3   OH276141   6.662   0.319  14.913  0.1121  0.1089  0.5406
18217TIP3    H176142   6.747   0.293  14.880  0.1345 -0.0446  0.7197
18217TIP3    H276143   6.603   0.248  14.888 -0.9236  2.0792 -3.4913
18218TIP3   OH276144   1.658   2.984  13.334  0.1624 -0.5250 -0.2039
18218TIP3    H176145   1.676   2.890  13.330 -1.5195 -0.8340 -1.5206
18218TIP3    H276146   1.568   2.990  13.364  0.3484  0.7083  0.1680
18219TIP3   OH276147   4.491   4.080  14.962 -0.6798 -0.0642  0.2630
18219TIP3    H176148   4.574   4.106  14.924 -0.6852  0.0919  0.3566
18219TIP3    H276149   4.504   3.990  14.991 -0.6299 -0.1346  0.0291
18220TIP3   OH276150   4.018   3.368   1.532  0.3664 -0.5558  0.5913
18220TIP3    H176151   3.946   3.413   1.487 -1.1172 -1.9131  1.4821
18220TIP3    H276152   3.986   3.356   1.622  1.7274 -1.1823  1.0244
18221TIP3   OH276153   5.446   0.358  17.352 -0.2060 -0.0929 -0.0506
18221TIP3    H176154   5.372   0.316  17.395 -1.2229  1.7123  0.0708
18221TIP3    H276155   5.410   0.396  17.272  0.9099 -0.3913 -0.7205
18222TIP3   OH276156   4.842   3.131  14.285 -0.0139  0.8271  0.0138
18222TIP3    H176157   4.769   3.069  14.286  0.5359  0.1186 -1.2112
18222TIP3    H276158   4.918   3.079  14.311  0.4830  0.9050 -1.1938
18223TIP3   OH276159   1.003   6.528  16.517 -0.3618  0.0683  0.1393
18223TIP3    H176160   1.024   6.537  16.424 -1.2887  1.0165  0.0123
18223TIP3    H276161   0.998   6.433  16.531 -1.7712 -0.0874 -1.1426
18224TIP3   OH276162   3.123   3.572  14.063 -0.4540  0.1701 -0.7390
18224TIP3    H176163   3.143   3.528  13.980 -1.7569  1.5979 -1.8675
18224TIP3    H276164   3.114   3.665  14.039  1.8465  1.0768  1.4952
18225TIP3   OH276165   1.980   0.205  15.328 -0.1481  0.1969  0.0951
18225TIP3    H176166   1.976   0.294  15.362  1.9321 -0.1224  1.4305
18225TIP3    H276167   2.055   0.205  15.268  2.4262 -1.3265  2.9478
18226TIP3   OH276168   3.144   2.765   4.647 -0.4296  0.0749 -0.0288
18226TIP3    H176169   3.110   2.752   4.558 -1.7362  0.5263  0.3790
18226TIP3    H276170   3.122   2.855   4.668  0.4437  0.1632  0.5248
18227TIP3   OH276171   0.468   2.474   4.965 -0.0217 -0.9536  0.0340
18227TIP3    H176172   0.452   2.434   5.050 -2.8476 -0.5151 -0.2081
18227TIP3    H276173   0.494   2.564   4.985  0.5111 -1.1964  0.4451
18228TIP3   OH276174   3.246   3.371   0.194 -0.4230 -0.0201 -0.0810
18228TIP3    H176175   3.173   3.414   0.239 -0.5651  0.3210 -0.6377
18228TIP3    H276176   3.257   3.288   0.241 -2.4002 -0.9544 -1.1380
18229TIP3   OH276177   0.239   5.225   2.359 -0.5772  0.7050 -0.2078
18229TIP3    H176178   0.284   5.253   2.279 -1.2083  2.0016 -0.1344
18229TIP3    H276179   0.192   5.146   2.334 -0.7264  1.0716 -1.1223
18230TIP3   OH276180   2.875   2.802  12.914  0.3870 -0.0482 -0.2562
18230TIP3    H176181   2.782   2.825  12.920  0.6096  0.8326 -0.0079
18230TIP3    H276182   2.882   2.718  12.959 -0.1929  0.1805  0.2746
18231TIP3   OH276183   5.496   2.848   5.234  0.0550 -0.0524 -0.4786
18231TIP3    H176184   5.449   2.875   5.313 -0.6406 -3.4484  0.4249
18231TIP3    H276185   5.448   2.888   5.163 -1.2932  0.4471  0.6705
18232TIP3   OH276186   5.874   1.576  13.589  0.0452  0.2503  0.5958
18232TIP3    H176187   5.783   1.547  13.586 -0.7866  2.6683 -0.2433
18232TIP3    H276188   5.911   1.548  13.505  0.5624 -2.0133  1.5284
18233TIP3   OH276189   0.467   3.196   3.030 -0.2779  0.1978 -0.0707
18233TIP3    H176190   0.381   3.204   3.071 -0.3016  0.4700 -0.1759
18233TIP3    H276191   0.472   3.104   3.004 -0.5716  0.2026 -0.1471
18234TIP3   OH276192   0.917   1.927  11.912 -0.1275 -0.6816  0.3148
18234TIP3    H176193   0.945   1.960  11.827  1.6766 -0.0076  1.1345
18234TIP3    H276194   0.821   1.929  11.907 -0.0677 -0.0813 -1.4667
18235TIP3   OH276195   2.539   0.686   5.459  0.0822  0.2117  0.5149
18235TIP3    H176196   2.520   0.657   5.548 -0.7279 -1.2057 -0.0875
18235TIP3    H276197   2.535   0.606   5.406  0.5898  1.0210 -0.7913
18236TIP3   OH276198   1.904   3.021  16.183 -0.3278 -0.0679 -0.2270
18236TIP3    H176199   1.837   3.008  16.250 -1.0227 -0.9279 -1.0723
18236TIP3    H276200   1.987   3.002  16.228 -0.8894 -1.9534  0.0560
18237TIP3   OH276201   5.433   2.751   3.926  0.2809 -0.4411 -0.1109
18237TIP3    H176202   5.502   2.737   3.862  0.7017  0.7641  0.0533
18237TIP3    H276203   5.407   2.842   3.914 -1.3869 -0.8914 -0.2585
18238TIP3   OH276204   4.356   6.553   4.222 -0.6833  0.1930 -0.0303
18238TIP3    H176205   4.273   6.508   4.243  0.1260 -1.4287 -0.1403
18238TIP3    H276206   4.348   6.638   4.264 -2.2371 -0.0926  0.3330
18239TIP3   OH276207   0.776   4.712   1.375  0.2459 -0.2690 -0.0889
18239TIP3    H176208   0.706   4.769   1.343  1.5207  1.0139 -0.7091
18239TIP3    H276209   0.765   4.631   1.325 -1.5862 -0.6192  0.8010
18240TIP3   OH276210   0.209   5.430   2.951 -0.2915  0.3004  0.5847
18240TIP3    H176211   0.137   5.441   2.889  0.7175  3.0361 -0.2173
18240TIP3    H276212   0.247   5.345   2.928 -0.4439  0.8568 -2.0438
18241TIP3   OH276213   6.308   5.747   5.753 -0.6033 -0.0972  1.0127
18241TIP3    H176214   6.265   5.733   5.669 -1.1854  2.5735  0.7729
18241TIP3    H276215   6.400   5.765   5.730 -0.4958 -0.5926  1.0564
18242TIP3   OH276216   0.667   6.635  12.045 -0.2492 -0.2658  0.1409
18242TIP3    H176217   0.590   6.590  12.010  0.6401 -1.9181  0.2405
18242TIP3    H276218   0.631   6.713  12.088 -1.7047 -0.1167 -1.2381
18243TIP3   OH276219   3.348   6.459  15.758 -0.1712 -0.0443 -0.0013
18243TIP3    H176220   3.274   6.465  15.818 -0.8674  1.2286 -0.9474
18243TIP3    H276221   3.308   6.452  15.671  0.8020  0.9210 -0.5469
18244TIP3   OH276222   2.568   5.710  16.193  0.6220 -0.4401  0.4052
18244TIP3    H176223   2.516   5.643  16.148  0.8784 -0.5805  0.3143
18244TIP3    H276224   2.515   5.735  16.269 -0.2756  0.4925 -0.4779
18245TIP3   OH276225   0.838   4.007  15.052 -0.0356 -0.0428  0.1707
18245TIP3    H176226   0.815   4.094  15.021 -0.0165 -0.5178 -1.2447
18245TIP3    H276227   0.799   4.001  15.139  0.5578  1.6234  0.5806
18246TIP3   OH276228   6.617   6.181  11.632 -0.2407 -0.5090  0.1916
18246TIP3    H176229   6.583   6.245  11.695 -0.7447 -1.2378  0.6840
18246TIP3    H276230   6.704   6.213  11.610  0.1971 -0.5549  1.7414
18247TIP3   OH276231   3.603   0.491  15.467  0.1398 -0.1678 -0.4755
18247TIP3    H176232   3.569   0.580  15.458 -0.5690 -0.4497 -0.7114
18247TIP3    H276233   3.549   0.440  15.407  1.1015 -0.6127 -0.9765
18248TIP3   OH276234   2.828   4.375   4.518 -0.1374  0.3629  0.0920
18248TIP3    H176235   2.864   4.290   4.545 -0.1188  0.0761 -0.8093
18248TIP3    H276236   2.809   4.364   4.425 -1.4031  0.9131  0.2703
18249TIP3   OH276237   3.997   3.879  16.721  0.7771  0.5763 -0.0125
18249TIP3    H176238   3.997   3.967  16.758  0.9816  0.6182 -0.1089
18249TIP3    H276239   3.960   3.823  16.790  0.3445  0.7840 -0.0704
18250TIP3   OH276240   1.605   4.956  16.961  0.6421  0.2825 -0.0063
18250TIP3    H176241   1.592   5.038  16.914  0.8011  0.2194 -0.1627
18250TIP3    H276242   1.649   4.983  17.042 -0.8149  0.5411  0.7211
18251TIP3   OH276243   6.288   2.412   4.173 -0.1855  0.5218 -0.8616
18251TIP3    H176244   6.193   2.404   4.183 -0.2742  0.4347 -1.6870
18251TIP3    H276245   6.301   2.501   4.140 -0.1269  0.0341 -2.2367
18252TIP3   OH276246   1.510   6.472   4.273 -0.6298 -0.1358  0.2025
18252TIP3    H176247   1.547   6.391   4.309  0.1701 -0.6981 -1.7790
18252TIP3    H276248   1.470   6.446   4.191 -0.8514  1.3961 -0.2005
18253TIP3   OH276249   4.336   2.874  12.975  0.5196  0.5523 -0.0069
18253TIP3    H176250   4.282   2.884  13.053 -2.2721  2.5347 -1.9456
18253TIP3    H276251   4.389   2.953  12.972  2.9156 -0.8951  1.3164
18254TIP3   OH276252   4.614   6.273   4.856 -0.3071  0.0630  0.7971
18254TIP3    H176253   4.585   6.308   4.940 -1.9733 -0.7919  0.6289
18254TIP3    H276254   4.539   6.287   4.797  1.2843  1.8635 -0.9469
18255TIP3   OH276255   0.521   3.554   6.190 -0.1637  0.3532 -0.2732
18255TIP3    H176256   0.484   3.636   6.223 -1.0383  2.0374 -4.7615
18255TIP3    H276257   0.445   3.503   6.160  0.6089  0.3359 -2.3635
18256TIP3   OH276258   2.918   5.127  14.802 -0.0608  0.5705  0.2690
18256TIP3    H176259   2.940   5.219  14.809 -0.1862  0.7127 -0.9417
18256TIP3    H276260   2.996   5.080  14.834  1.4276  1.0730 -2.3436
18257TIP3   OH276261   3.785   2.812   5.532 -0.9357 -0.1807  0.1455
18257TIP3    H176262   3.840   2.794   5.456 -0.6968 -0.4717  0.3818
18257TIP3    H276263   3.795   2.734   5.587 -0.5701  0.3056  0.7856
18258TIP3   OH276264   2.635   1.168  12.203 -0.0967  0.1862 -0.0870
18258TIP3    H176265   2.573   1.150  12.273 -0.2196 -0.1447 -0.2814
18258TIP3    H276266   2.679   1.248  12.231  1.3768 -1.0751  1.4103
18259TIP3   OH276267   2.896   2.498   1.765 -0.6681  0.0650  0.2207
18259TIP3    H176268   2.937   2.582   1.783 -1.2107  0.1233  1.2434
18259TIP3    H276269   2.806   2.508   1.795 -0.3413 -1.3576  1.8673
18260TIP3   OH276270   2.862   3.996   1.743 -0.0525 -0.1386  0.3859
18260TIP3    H176271   2.929   3.946   1.790 -0.0742  0.8537  1.5438
18260TIP3    H276272   2.836   3.940   1.670  1.9393 -0.6182 -0.0191
18261TIP3   OH276273   6.374   6.066  12.962 -0.2967  0.0871 -0.3159
18261TIP3    H176274   6.441   6.104  13.019 -0.0604 -0.5621 -0.1453
18261TIP3    H276275   6.423   6.016  12.896 -0.6038 -1.1952  0.3809
18262TIP3   OH276276   4.616   1.926  16.647 -0.7231 -0.5489  0.5748
18262TIP3    H176277   4.642   1.979  16.723 -0.4884  1.7123 -0.9806
18262TIP3    H276278   4.579   1.847  16.685 -0.3527  0.3589  3.0430
18263TIP3   OH276279   6.733   4.889  15.598  0.2533  0.0844  0.0240
18263TIP3    H176280   6.714   4.795  15.598  1.9398 -0.3082  1.3902
18263TIP3    H276281   6.740   4.912  15.506  0.4764 -1.2792 -0.3173
18264TIP3   OH276282   4.677   3.056  16.171 -0.6762 -0.3227  0.3082
18264TIP3    H176283   4.708   3.044  16.081  1.4370  0.1921  0.8932
18264TIP3    H276284   4.600   3.000  16.178 -0.2392 -1.2349 -1.4870
18265TIP3   OH276285   6.142   3.810   3.560 -0.0611  0.3097  0.1361
18265TIP3    H176286   6.135   3.826   3.466 -0.4030  1.8254  0.4016
18265TIP3    H276287   6.060   3.767   3.583  0.1695 -0.3910 -0.2985
18266TIP3   OH276288   5.440   5.392  14.872  0.0732  0.5464  0.2078
18266TIP3    H176289   5.521   5.340  14.871  0.0002  0.3837 -1.6341
18266TIP3    H276290   5.466   5.476  14.909  0.9633  0.2941  0.1873
18267TIP3   OH276291   5.767   5.787  14.065  0.1503  0.0597  0.0587
18267TIP3    H176292   5.826   5.863  14.073 -1.6122  1.5556 -0.4357
18267TIP3    H276293   5.781   5.737  14.145  2.0621  0.3650 -0.0325
18268TIP3   OH276294   5.237   2.194  12.308  0.4445 -0.1811 -0.5694
18268TIP3    H176295   5.213   2.159  12.393 -2.0165 -0.0887 -1.1474
18268TIP3    H276296   5.299   2.130  12.272  0.8466 -0.6543  0.8924
18269TIP3   OH276297   2.133   1.546   1.416 -0.2928  0.8539 -0.3297
18269TIP3    H176298   2.098   1.457   1.425 -0.4906  0.7539 -1.7788
18269TIP3    H276299   2.079   1.586   1.348  0.4081  1.7572 -0.3685
18270TIP3   OH276300   4.123   6.465   4.738 -0.2941  0.3929  0.4881
18270TIP3    H176301   4.093   6.434   4.823 -2.3723 -0.0531 -0.3522
18270TIP3    H276302   4.088   6.554   4.732 -1.7623 -0.2380 -0.6377
18271TIP3   OH276303   2.502   6.591   3.915 -0.3154 -0.0083  0.1222
18271TIP3    H176304   2.465   6.545   3.840  1.8367 -1.5583 -0.0975
18271TIP3    H276305   2.478   6.537   3.990 -0.8831  0.5292  0.3350
18272TIP3   OH276306   3.317   4.847  15.045 -0.5074  0.0016 -0.6623
18272TIP3    H176307   3.315   4.752  15.056 -0.6957 -0.0155 -0.8289
18272TIP3    H276308   3.255   4.879  15.111  1.5198  0.2054  1.2361
18273TIP3   OH276309   5.998   4.298  14.904  0.0031  0.1282  0.0057
18273TIP3    H176310   5.986   4.368  14.840  1.6919  1.0889  0.6999
18273TIP3    H276311   6.080   4.318  14.948  1.7083 -3.3835 -1.1800
18274TIP3   OH276312   2.910   3.087  12.812 -0.4956  0.1023 -0.0424
18274TIP3    H176313   2.880   3.046  12.893  0.9887 -2.9589 -0.9162
18274TIP3    H276314   2.959   3.164  12.842  0.1646 -1.0430  1.9960
18275TIP3   OH276315   5.785   2.943  11.147 -0.1684  0.5796 -0.4649
18275TIP3    H176316   5.791   2.852  11.120 -0.6157  0.0837  1.0199
18275TIP3    H276317   5.692   2.965  11.139 -0.7823 -0.3545  2.8881
18276TIP3   OH276318   0.149   0.403   2.447  0.2977  0.4405  0.0037
18276TIP3    H176319   0.180   0.365   2.365 -3.5469 -0.9546 -1.0189
18276TIP3    H276320   0.207   0.365   2.514  0.8695 -1.8589 -1.6595
18277TIP3   OH276321   3.609   4.230   0.230  0.1946 -0.1235  0.3138
18277TIP3    H176322   3.591   4.259   0.319 -0.1436  1.4478 -0.2381
18277TIP3    H276323   3.701   4.201   0.232  0.8259  1.7329  0.7620
18278TIP3   OH276324   2.928   2.232  11.687  0.4648  0.1098  0.4247
18278TIP3    H176325   2.926   2.146  11.729 -2.8784 -0.1535 -0.0459
18278TIP3    H276326   2.999   2.278  11.732  2.5331 -2.8795  0.5442
18279TIP3   OH276327   1.537   5.232  16.214  0.4766 -0.3828  0.3900
18279TIP3    H176328   1.480   5.195  16.281  0.2195 -1.9131 -0.6231
18279TIP3    H276329   1.532   5.326  16.228 -0.7378 -0.5896  1.5605
18280TIP3   OH276330   1.226   4.500   5.454 -0.4675 -0.0278  0.9586
18280TIP3    H176331   1.132   4.516   5.451 -0.2921  1.1329  1.2086
18280TIP3    H276332   1.247   4.493   5.547 -0.3078 -0.3728  0.9023
18281TIP3   OH276333   3.070   0.121  12.601  0.5287 -0.7576 -0.3914
18281TIP3    H176334   3.054   0.209  12.565  2.2604 -0.9311 -1.7385
18281TIP3    H276335   3.166   0.112  12.600  0.3966 -2.5899 -0.0796
18282TIP3   OH276336   5.649   5.488  14.465  0.2947 -0.4367 -0.0691
18282TIP3    H176337   5.632   5.454  14.377  0.0758 -0.9218  0.1546
18282TIP3    H276338   5.678   5.411  14.515 -1.3797 -0.5786  0.7627
18283TIP3   OH276339   0.340   3.724   3.261 -0.2731  0.4286  0.2477
18283TIP3    H176340   0.388   3.682   3.190  0.5179  1.2936  0.2574
18283TIP3    H276341   0.265   3.766   3.218 -0.7517 -0.4844  0.1670
18284TIP3   OH276342   2.302   4.640  12.499 -0.2674  0.1330 -0.2517
18284TIP3    H176343   2.273   4.610  12.585 -3.1894 -3.5277 -2.2552
18284TIP3    H276344   2.227   4.627  12.442  2.4189 -0.5878 -4.0077
18285TIP3   OH276345   4.242   3.803  16.241 -0.4029 -0.0291 -0.1465
18285TIP3    H176346   4.335   3.784  16.237 -0.6602 -1.7237  0.6761
18285TIP3    H276347   4.200   3.717  16.248 -1.9597  0.7243  0.4316
18286TIP3   OH276348   4.595   2.649   3.280 -0.3302 -0.1480 -0.6294
18286TIP3    H176349   4.582   2.628   3.372  0.4344 -0.3603 -0.5596
18286TIP3    H276350   4.580   2.743   3.275 -0.2223 -0.1068 -0.2542
18287TIP3   OH276351   0.187   4.678   3.294 -0.1623 -0.1723  0.1317
18287TIP3    H176352   0.176   4.692   3.388  0.7442  0.4838  0.1519
18287TIP3    H276353   0.211   4.586   3.285 -0.5953 -0.3268  0.5002
18288TIP3   OH276354   0.614   6.677   1.970  0.7288  1.4011  0.1898
18288TIP3    H176355   0.594   6.684   2.063 -1.3973 -0.9820  0.0259
18288TIP3    H276356   0.673   6.602   1.963 -1.9516 -0.8394 -0.5310
18289TIP3   OH276357   4.013   0.764  11.296  0.2396 -0.4242 -0.1092
18289TIP3    H176358   4.067   0.842  11.287 -0.6905  0.4567  1.4923
18289TIP3    H276359   3.983   0.745  11.207  0.9968  0.6520 -0.6095
18290TIP3   OH276360   1.241   3.025   0.757  0.9355 -0.2920 -0.3068
18290TIP3    H176361   1.182   2.953   0.735  0.1419  0.5119 -0.8944
18290TIP3    H276362   1.211   3.055   0.842  0.2113  0.3747 -0.7818
18291TIP3   OH276363   0.356   3.277   1.498 -0.0873 -0.3753  0.1515
18291TIP3    H176364   0.442   3.319   1.490 -0.1274 -0.6629 -3.2141
18291TIP3    H276365   0.373   3.184   1.484 -0.9605 -0.3633 -1.1893
18292TIP3   OH276366   0.795   6.586  16.659  0.1691  0.5348 -0.0580
18292TIP3    H176367   0.871   6.579  16.601 -0.4409 -2.7013 -0.6742
18292TIP3    H276368   0.733   6.521  16.625 -1.3168  0.3834  2.6488
18293TIP3   OH276369   3.921   2.741  13.505  0.5038 -0.6554  0.7718
18293TIP3    H176370   3.985   2.770  13.440 -0.6385  0.3353  0.0513
18293TIP3    H276371   3.948   2.652  13.527  2.1926 -0.2331  0.5959
18294TIP3   OH276372   2.473   1.050  14.437  0.0987  0.1634  0.2052
18294TIP3    H176373   2.399   1.092  14.394 -1.8419 -1.6574  1.5465
18294TIP3    H276374   2.521   1.007  14.366 -2.1738 -1.5285 -0.4133
18295TIP3   OH276375   0.726   2.326   5.714 -0.1769 -0.3359 -0.2580
18295TIP3    H176376   0.774   2.345   5.794 -1.2028 -2.8356  1.0914
18295TIP3    H276377   0.680   2.407   5.692  0.3612  0.4867  1.5289
18296TIP3   OH276378   3.658   3.281  12.274  0.0433 -0.5256 -0.0545
18296TIP3    H176379   3.585   3.267  12.333  1.4284  3.0526  2.8500
18296TIP3    H276380   3.736   3.260  12.326  1.2837  1.7574 -0.8523
18297TIP3   OH276381   0.419   3.506  14.693  0.3426  0.2766 -0.4123
18297TIP3    H176382   0.361   3.570  14.651 -0.7274  0.2236  0.9220
18297TIP3    H276383   0.463   3.555  14.762  0.8651 -0.0190 -0.5273
18298TIP3   OH276384   2.235   5.798   1.759  0.0315 -0.3961  0.1488
18298TIP3    H176385   2.266   5.878   1.801  2.2481 -1.4792  0.7626
18298TIP3    H276386   2.290   5.729   1.797 -1.3991 -2.1257 -0.7973
18299TIP3   OH276387   0.692   3.613  12.450 -0.1684  0.0232 -0.2624
18299TIP3    H176388   0.643   3.695  12.447 -2.1474 -1.1444 -1.2984
18299TIP3    H276389   0.738   3.617  12.534 -0.5424  1.9832 -0.0907
18300TIP3   OH276390   6.049   6.332  16.942  0.5041  0.2960 -0.1782
18300TIP3    H176391   6.042   6.251  16.991 -1.3987  0.2466 -0.4491
18300TIP3    H276392   6.123   6.378  16.982  1.2000 -1.2597  0.4035
18301TIP3   OH276393   1.557   1.864   5.974 -0.4472 -0.1385  0.3486
18301TIP3    H176394   1.540   1.924   5.901  0.3457  0.1837  0.4137
18301TIP3    H276395   1.644   1.828   5.955  0.9290  1.8162  2.3291
18302TIP3   OH276396   1.552   5.053   2.872  0.1733  0.3143 -0.3896
18302TIP3    H176397   1.645   5.037   2.858  0.1155  0.3060 -0.7797
18302TIP3    H276398   1.543   5.063   2.967  0.1868 -2.1355 -0.0692
18303TIP3   OH276399   1.659   3.854   4.700 -0.2556 -0.2700  0.0305
18303TIP3    H176400   1.599   3.826   4.630 -0.0855  1.1977 -0.7528
18303TIP3    H276401   1.658   3.950   4.695  0.8372 -0.1769  1.1448
18304TIP3   OH276402   3.395   6.297  11.447  0.1153  0.2447 -0.4032
18304TIP3    H176403   3.391   6.349  11.527 -0.8334  1.0728 -0.9604
18304TIP3    H276404   3.466   6.336  11.396 -0.3212  0.7513 -0.6387
18305TIP3   OH276405   5.840   0.210   2.874 -0.4060  0.4333 -0.1604
18305TIP3    H176406   5.832   0.200   2.969 -0.8489  0.8994 -0.1456
18305TIP3    H276407   5.852   0.121   2.842 -0.1418  0.2850  0.3448
18306TIP3   OH276408   2.363   3.867  16.846  0.1446  0.7391 -0.4094
18306TIP3    H176409   2.440   3.817  16.871  0.0817  0.8321 -0.0252
18306TIP3    H276410   2.356   3.855  16.751  0.3175  0.2842 -0.3668
18307TIP3   OH276411   3.517   5.830  14.793  0.4746  0.4319 -0.0604
18307TIP3    H176412   3.603   5.865  14.770  0.4952 -0.0616 -0.7630
18307TIP3    H276413   3.513   5.745  14.749 -0.6283  0.7450 -0.6044
18308TIP3   OH276414   5.017   3.340   1.481  0.1986 -0.0215  0.3843
18308TIP3    H176415   4.988   3.253   1.451  0.2649  0.8255 -2.4766
18308TIP3    H276416   5.112   3.331   1.491  0.2032 -0.3187  0.1172
18309TIP3   OH276417   5.826   4.843  17.119  0.1693 -0.2092  0.5867
18309TIP3    H176418   5.921   4.843  17.130  0.3177  1.0859 -0.4262
18309TIP3    H276419   5.794   4.899  17.190  0.1342 -0.8381  1.0719
18310TIP3   OH276420   2.753   1.807  15.867 -0.0671  0.1360 -0.1216
18310TIP3    H176421   2.712   1.873  15.922 -1.6188 -1.4680  0.7295
18310TIP3    H276422   2.826   1.774  15.919 -2.0783 -2.0447  1.5601
18311TIP3   OH276423   6.449   1.800  15.371  0.3008  0.3362 -0.3545
18311TIP3    H176424   6.440   1.711  15.407 -0.5307  1.3243  2.0975
18311TIP3    H276425   6.363   1.818  15.332 -0.9882  1.3747  2.6316
18312TIP3   OH276426   4.958   2.639   5.958 -0.1517  0.3393  0.2990
18312TIP3    H176427   4.919   2.563   5.915  1.5774  0.2406 -1.2723
18312TIP3    H276428   4.921   2.714   5.913  1.0902  0.2547 -0.9512
18313TIP3   OH276429   6.759   0.623   5.100 -0.8030  0.2185  0.5279
18313TIP3    H176430   6.762   0.710   5.060  0.5180  0.1257  0.3697
18313TIP3    H276431   6.824   0.572   5.051 -0.1455 -0.2982  1.8857
18314TIP3   OH276432   0.784   3.793   4.136 -0.5940 -0.4290 -0.3443
18314TIP3    H176433   0.829   3.861   4.186 -0.3522 -1.0455  0.2934
18314TIP3    H276434   0.759   3.836   4.054  0.1545  0.2378 -0.2364
18315TIP3   OH276435   1.155   3.290   0.306 -0.0887 -0.1527 -0.5052
18315TIP3    H176436   1.081   3.328   0.353 -0.1530  0.6298 -1.2151
18315TIP3    H276437   1.145   3.322   0.216 -2.1498 -4.6183 -2.1264
18316TIP3   OH276438   5.136   4.526  11.496 -0.1336  0.0253 -0.0015
18316TIP3    H176439   5.199   4.454  11.502 -0.4166 -0.1095  2.1068
18316TIP3    H276440   5.110   4.528  11.403 -0.4825 -2.9258 -0.0700
18317TIP3   OH276441   2.301   5.510  15.081 -0.1466 -0.1457  0.1765
18317TIP3    H176442   2.310   5.578  15.015 -1.3428 -1.2304 -1.1900
18317TIP3    H276443   2.220   5.531  15.128  0.0834 -0.0125  0.5172
18318TIP3   OH276444   6.105   3.344  13.803 -0.2025  0.3173 -0.3090
18318TIP3    H176445   6.130   3.351  13.711  2.1709  1.8225  0.3762
18318TIP3    H276446   6.056   3.424  13.822  0.3429  0.5930 -0.0114
18319TIP3   OH276447   1.933   5.117  12.750 -0.6066 -0.3896  0.1417
18319TIP3    H176448   1.940   5.070  12.667 -1.6908 -1.3607  0.5851
18319TIP3    H276449   1.874   5.190  12.732 -0.7951 -0.5664  0.0373
18320TIP3   OH276450   3.262   1.623  11.588  0.0228  0.1023  0.9948
18320TIP3    H176451   3.277   1.562  11.516 -1.9331  0.5164  0.1670
18320TIP3    H276452   3.338   1.681  11.587 -0.1981  0.4168 -1.1027
18321TIP3   OH276453   1.914   0.985   4.723  0.3099  0.1039  0.2330
18321TIP3    H176454   1.926   1.069   4.679 -0.7185  0.6033  0.8737
18321TIP3    H276455   2.003   0.951   4.734  1.0328  2.3943  2.4466
18322TIP3   OH276456   2.724   0.117   3.545 -0.2740 -0.0320 -0.2251
18322TIP3    H176457   2.714   0.038   3.598 -0.9997 -0.9702 -1.7137
18322TIP3    H276458   2.696   0.188   3.603  1.8580 -0.6307  1.6670
18323TIP3   OH276459   3.831   3.459   1.342  0.5885  0.2884 -0.1997
18323TIP3    H176460   3.763   3.394   1.326  1.2884 -0.3788 -0.5511
18323TIP3    H276461   3.789   3.543   1.325 -0.0445 -0.1391 -0.8029
18324TIP3   OH276462   0.988   4.240  16.861 -0.0290  0.3404  0.7589
18324TIP3    H176463   0.922   4.173  16.879  0.1762 -0.2082 -0.3881
18324TIP3    H276464   0.963   4.314  16.916 -1.0705 -0.1887  1.0335
18325TIP3   OH276465   1.911   2.987  14.901 -0.2778  0.3210 -0.5584
18325TIP3    H176466   1.949   3.015  14.985  0.2743  0.1119 -0.7330
18325TIP3    H276467   1.958   3.039  14.836  0.2198 -0.4482 -0.8282
18326TIP3   OH276468   3.863   3.964  14.422 -0.0522  0.1714  0.3114
18326TIP3    H176469   3.861   3.954  14.327  1.2687  0.9507  0.1721
18326TIP3    H276470   3.933   4.028  14.438  2.4553 -2.6816  1.9765
18327TIP3   OH276471   6.290   2.583   4.984  0.2341  0.3103 -0.1441
18327TIP3    H176472   6.331   2.540   4.908  0.3228  0.4121 -0.1541
18327TIP3    H276473   6.222   2.638   4.946  0.0271  0.0748 -0.1212
18328TIP3   OH276474   1.813   3.194   5.331 -0.0738 -0.2349  0.0097
18328TIP3    H176475   1.779   3.231   5.413  0.2267 -0.8080  0.4003
18328TIP3    H276476   1.881   3.133   5.359  0.1289 -0.3328 -0.6796
18329TIP3   OH276477   0.394   4.288   3.616  0.1362  0.1817 -0.7529
18329TIP3    H176478   0.420   4.333   3.535  0.4480 -0.0625 -0.7898
18329TIP3    H276479   0.476   4.262   3.657 -0.0414 -1.6578 -1.4646
18330TIP3   OH276480   3.598   6.166  15.029  0.0686 -0.9470 -0.0108
18330TIP3    H176481   3.516   6.121  15.011 -0.4548  0.1844 -0.5459
18330TIP3    H276482   3.592   6.247  14.980  0.1364  0.6329  2.4002
18331TIP3   OH276483   1.767   4.230   4.002  0.0125  0.5766 -0.2423
18331TIP3    H176484   1.801   4.213   3.915 -0.5161 -1.1415 -0.1565
18331TIP3    H276485   1.672   4.224   3.992 -0.0335 -1.9935  0.7958
18332TIP3   OH276486   6.038   2.184  17.370 -1.0958  0.0315  0.4066
18332TIP3    H176487   6.092   2.160  17.445 -0.5839 -1.0163 -0.2896
18332TIP3    H276488   6.042   2.280  17.368  1.6898 -0.0338 -0.3033
18333TIP3   OH276489   6.489   5.951  11.615 -0.0644 -0.3674  0.3444
18333TIP3    H176490   6.547   6.027  11.621  0.1377 -0.4686 -0.2670
18333TIP3    H276491   6.424   5.965  11.685 -1.0369  1.2430 -0.7989
18334TIP3   OH276492   6.531   1.417   5.208  1.0016 -0.0763  0.4563
18334TIP3    H176493   6.592   1.367   5.154 -1.0176  0.2054 -2.3164
18334TIP3    H276494   6.522   1.501   5.163  1.2492  1.2939  2.7859
18335TIP3   OH276495   4.769   5.367   6.208  0.4358 -0.2263 -0.7614
18335TIP3    H176496   4.728   5.383   6.123  0.8247  2.3175 -0.5280
18335TIP3    H276497   4.729   5.431   6.267 -0.0028 -2.0847  1.0986
18336TIP3   OH276498   2.789   0.511   3.312  0.2740  0.0103 -0.1497
18336TIP3    H176499   2.729   0.577   3.277 -1.1867 -1.3472 -0.3251
18336TIP3    H276500   2.765   0.430   3.266  0.2735 -1.2127  1.8750
18337TIP3   OH276501   4.552   2.086   0.621  0.2898  0.0667  0.5129
18337TIP3    H176502   4.535   2.179   0.636 -0.7457  0.1060 -0.7136
18337TIP3    H276503   4.512   2.042   0.696  0.7438  0.5919  1.0787
18338TIP3   OH276504   0.856   3.463  15.585 -0.1892 -0.5319  0.1293
18338TIP3    H176505   0.858   3.388  15.645 -1.6095 -0.1967  0.6423
18338TIP3    H276506   0.948   3.488  15.574  0.2522 -1.9335  0.4693
18339TIP3   OH276507   1.719   2.239   3.145  0.0722 -0.0705 -0.2150
18339TIP3    H176508   1.686   2.319   3.104  0.0967  0.1739  0.2404
18339TIP3    H276509   1.813   2.252   3.152  0.2442 -0.6289 -1.2024
18340TIP3   OH276510   6.512   5.667  13.622 -0.5803  0.0611  0.3764
18340TIP3    H176511   6.447   5.597  13.621 -0.6079  0.0964 -0.9493
18340TIP3    H276512   6.558   5.656  13.706 -1.9374 -0.2729  1.0940
18341TIP3   OH276513   1.582   0.530  11.136  0.2551  0.1536  0.4480
18341TIP3    H176514   1.496   0.496  11.113  0.6202 -0.1593 -0.5317
18341TIP3    H276515   1.643   0.473  11.089  0.9048  1.9438 -1.0058
18342TIP3   OH276516   2.068   3.130   0.145 -0.0811 -0.5833  0.2706
18342TIP3    H176517   2.068   3.200   0.080 -0.3457 -1.7235 -1.0227
18342TIP3    H276518   2.067   3.175   0.229 -0.1991  0.9519 -0.5106
18343TIP3   OH276519   6.613   5.414   2.180 -0.7566  0.1337 -0.2688
18343TIP3    H176520   6.686   5.406   2.241 -0.9917 -0.3365 -0.0352
18343TIP3    H276521   6.633   5.490   2.126 -0.0354 -0.0781 -0.2982
18344TIP3   OH276522   1.991   4.840  11.856 -0.4048 -0.0371 -0.5669
18344TIP3    H176523   1.994   4.839  11.951  2.8426  0.3031 -0.5606
18344TIP3    H276524   1.976   4.748  11.831  2.3900 -0.8322  0.3418
18345TIP3   OH276525   5.406   4.247   2.210 -0.5911 -0.2539 -0.1416
18345TIP3    H176526   5.439   4.176   2.265 -1.3812  0.0872  0.7846
18345TIP3    H276527   5.429   4.327   2.256  1.6790  0.2377 -1.9238
18346TIP3   OH276528   4.251   0.647   1.098  0.1856 -0.2793  0.0217
18346TIP3    H176529   4.245   0.740   1.075 -1.5175  0.1107  1.7798
18346TIP3    H276530   4.330   0.616   1.053 -0.2165  1.5442 -2.1353
18347TIP3   OH276531   1.248   0.151   2.865 -0.1695  0.2970  0.7861
18347TIP3    H176532   1.177   0.192   2.914 -0.2614  1.8912 -0.5984
18347TIP3    H276533   1.309   0.222   2.846  1.0570 -0.7550  0.6641
18348TIP3   OH276534   6.332   4.751  16.057 -0.3490 -0.2217 -0.2362
18348TIP3    H176535   6.365   4.837  16.030 -1.4824  0.5778  0.8472
18348TIP3    H276536   6.409   4.694  16.053  0.3185  0.7195 -1.4180
18349TIP3   OH276537   2.487   2.537   4.575 -0.3611 -0.5006  0.1272
18349TIP3    H176538   2.469   2.593   4.499 -1.2555 -2.3169 -1.0583
18349TIP3    H276539   2.476   2.596   4.650  3.2216  2.0829 -1.0870
18350TIP3   OH276540   6.454   3.828  11.672 -0.3319  0.2570 -0.4328
18350TIP3    H176541   6.435   3.917  11.699 -2.2405 -0.4742  0.8727
18350TIP3    H276542   6.379   3.804  11.617  0.7338 -0.1861 -1.7576
18351TIP3   OH276543   1.798   5.320  10.500  0.1685  0.5471 -0.3380
18351TIP3    H176544   1.770   5.386  10.563  0.0780  1.6478 -1.4945
18351TIP3    H276545   1.739   5.246  10.515 -0.3613  1.0920  0.3328
18352TIP3   OH276546   5.009   4.586   4.573  0.1117  0.5905 -0.4272
18352TIP3    H176547   5.092   4.550   4.543  0.9330  2.0251  0.0711
18352TIP3    H276548   4.947   4.513   4.565  0.9375  0.0650 -2.7492
18353TIP3   OH276549   2.617   0.992  12.630  0.0895  0.1189 -0.3798
18353TIP3    H176550   2.704   0.984  12.589 -0.2258 -1.8109 -0.7759
18353TIP3    H276551   2.559   1.012  12.557 -0.0823 -0.7286 -0.4947
18354TIP3   OH276552   2.101   2.484  11.596 -0.5102 -0.1737  0.0900
18354TIP3    H176553   2.041   2.558  11.590  0.5866  0.7044 -0.4544
18354TIP3    H276554   2.137   2.476  11.508  4.0336  2.7124  1.3265
18355TIP3   OH276555   0.218   6.201   1.937 -0.6989  0.4345 -0.1462
18355TIP3    H176556   0.234   6.113   1.971  0.4877 -0.0233 -1.7622
18355TIP3    H276557   0.251   6.259   2.006  0.0974 -0.4171  0.2285
18356TIP3   OH276558   4.170   1.697   3.993  0.3964 -0.0765  0.5555
18356TIP3    H176559   4.119   1.775   3.975 -0.5500 -1.1002 -1.6197
18356TIP3    H276560   4.237   1.725   4.055 -0.8645  2.0513  1.0406
18357TIP3   OH276561   3.279   1.417  14.303  0.1439  0.5105 -0.5432
18357TIP3    H176562   3.250   1.326  14.310  2.8476 -0.5306 -1.4645
18357TIP3    H276563   3.217   1.458  14.243 -1.9068 -0.3017  0.9234
18358TIP3   OH276564   1.175   5.592   5.595 -0.6736 -0.0966 -0.0407
18358TIP3    H176565   1.094   5.543   5.612 -0.4808 -0.1144  0.8705
18358TIP3    H276566   1.221   5.592   5.679  0.9418 -1.2917 -0.8831
18359TIP3   OH276567   0.630   3.854   0.784 -0.2822 -0.0078 -0.1370
18359TIP3    H176568   0.598   3.929   0.834  0.0195  0.7598 -1.0518
18359TIP3    H276569   0.725   3.867   0.780 -0.3814  0.3777 -1.5671
18360TIP3   OH276570   3.541   6.520  15.014 -0.0332  0.4673  0.5809
18360TIP3    H176571   3.583   6.580  14.952  0.5627 -0.8355 -0.3492
18360TIP3    H276572   3.579   6.543  15.099  2.5648 -0.5241 -0.1837
18361TIP3   OH276573   6.539   2.293  11.013 -0.9491  0.0076  0.0142
18361TIP3    H176574   6.577   2.213  10.976  1.9274  0.9261  0.7393
18361TIP3    H276575   6.521   2.348  10.936  1.0346  0.2490 -0.3460
18362TIP3   OH276576   5.202   4.680  16.776 -0.1118 -0.4581 -0.0390
18362TIP3    H176577   5.121   4.630  16.783 -0.2023 -0.2565  0.4007
18362TIP3    H276578   5.174   4.772  16.778  0.0425 -0.3813 -0.9386
18363TIP3   OH276579   0.778   1.759  16.707  0.4860 -0.6859 -0.3041
18363TIP3    H176580   0.850   1.700  16.686  0.0363 -0.9402 -1.1743
18363TIP3    H276581   0.787   1.832  16.646 -0.9333 -1.5173 -1.5779
18364TIP3   OH276582   4.440   6.220  15.959 -0.5610  0.0619 -0.1913
18364TIP3    H176583   4.386   6.174  16.023  0.5396  0.4730  1.0730
18364TIP3    H276584   4.496   6.152  15.921  0.6232  0.1979  1.2190
18365TIP3   OH276585   0.435   4.203   0.843 -0.2777 -0.1698  0.0167
18365TIP3    H176586   0.425   4.270   0.776 -2.2163 -0.4576 -0.0221
18365TIP3    H276587   0.380   4.130   0.814 -0.9742 -0.4007  1.7789
18366TIP3   OH276588   5.792   0.142   3.731  1.0366 -0.2602  0.2664
18366TIP3    H176589   5.763   0.062   3.774  0.9412  0.1039  0.8960
18366TIP3    H276590   5.766   0.132   3.640  3.1262 -1.9935 -0.2166
18367TIP3   OH276591   5.211   5.543   3.462  0.1626  0.6111 -0.4925
18367TIP3    H176592   5.229   5.586   3.545  2.2060  2.0383 -1.6138
18367TIP3    H276593   5.242   5.453   3.474  0.5806  0.8457  0.2223
18368TIP3   OH276594   5.577   6.706   1.141  0.0018  0.2541 -0.8719
18368TIP3    H176595   5.643   6.756   1.188 -0.1504  0.9107 -1.3486
18368TIP3    H276596   5.579   6.740   1.052 -0.6522 -0.0439 -1.0089
18369TIP3   OH276597   4.045   1.267  13.480  0.5251  0.2929  0.1437
18369TIP3    H176598   4.087   1.302  13.402 -0.0729  1.0243  0.1461
18369TIP3    H276599   3.984   1.335  13.508 -0.3473 -0.5732  0.3964
18370TIP3   OH276600   1.815   2.232  13.875 -0.0487  0.0259 -0.4479
18370TIP3    H176601   1.748   2.300  13.868  0.3149  0.3432 -0.8984
18370TIP3    H276602   1.806   2.181  13.794 -0.7657 -0.8899  0.1795
18371TIP3   OH276603   4.502   1.568   3.868  0.1997  0.6094  0.4051
18371TIP3    H176604   4.574   1.532   3.816 -0.4924 -0.6120  0.2390
18371TIP3    H276605   4.423   1.532   3.828 -0.4280  0.7847  1.4339
18372TIP3   OH276606   5.158   1.311  13.685 -0.0680 -0.4390 -0.4970
18372TIP3    H176607   5.117   1.357  13.612 -0.3235  0.2843  0.0892
18372TIP3    H276608   5.172   1.222  13.653 -0.3303 -0.1744 -1.3617
18373TIP3   OH276609   1.771   0.749  11.790 -0.0259  0.0387  0.9022
18373TIP3    H176610   1.806   0.815  11.849  0.8054  0.6256 -0.1944
18373TIP3    H276611   1.746   0.799  11.712  1.5200 -1.0329 -0.3366
18374TIP3   OH276612   1.142   2.090  14.131 -0.3966 -0.5664  0.0198
18374TIP3    H176613   1.227   2.065  14.167 -0.7866  1.6726  2.8051
18374TIP3    H276614   1.161   2.164  14.073 -0.3181 -0.9547 -0.4563
18375TIP3   OH276615   3.206   3.494   2.499 -0.1470  0.0893 -0.3831
18375TIP3    H176616   3.288   3.541   2.486 -0.4991  0.8558  0.0832
18375TIP3    H276617   3.140   3.562   2.505 -0.4250 -0.2759  2.3562
18376TIP3   OH276618   0.333   0.354  14.553  0.3728  0.1431 -0.2101
18376TIP3    H176619   0.364   0.367  14.642  0.5410  1.3783 -0.4417
18376TIP3    H276620   0.397   0.397  14.497  0.2936 -0.6465 -0.9462
18377TIP3   OH276621   0.948   1.557   6.437  0.2678  0.0712  0.1382
18377TIP3    H176622   0.964   1.647   6.407  1.7406 -0.3908 -0.5309
18377TIP3    H276623   0.931   1.566   6.531 -1.2492  1.2015 -0.1949
18378TIP3   OH276624   3.138   0.428  11.865 -0.4019  0.6780 -0.3137
18378TIP3    H176625   3.056   0.455  11.907 -0.2753 -0.5019  0.7617
18378TIP3    H276626   3.123   0.443  11.772 -1.9946  0.1296 -0.1852
18379TIP3   OH276627   0.665   5.483  16.107  0.4494 -0.0676 -0.3454
18379TIP3    H176628   0.646   5.393  16.134 -1.3869 -0.1869 -1.7983
18379TIP3    H276629   0.751   5.478  16.065  0.8943 -0.8883  0.6243
18380TIP3   OH276630   0.777   3.876   3.835  0.6624  0.4526 -0.2909
18380TIP3    H176631   0.850   3.817   3.819  0.8080  0.1910  1.2099
18380TIP3    H276632   0.708   3.845   3.776  0.9990 -0.7199 -0.0949
18381TIP3   OH276633   2.904   5.832  12.116 -0.0084  0.0323 -0.1828
18381TIP3    H176634   2.900   5.763  12.049 -2.8100  0.7809 -0.9122
18381TIP3    H276635   2.908   5.914  12.066 -2.2137  0.6029  0.4443
18382TIP3   OH276636   2.644   5.863  14.525  0.5625  0.2913  0.0106
18382TIP3    H176637   2.617   5.773  14.505  1.7582  0.0878 -0.7469
18382TIP3    H276638   2.582   5.918  14.477  0.4049 -0.1433 -0.2868
18383TIP3   OH276639   4.284   5.401  14.891  0.3891  0.3358 -0.1003
18383TIP3    H176640   4.277   5.321  14.840 -1.0484 -0.4864  1.3241
18383TIP3    H276641   4.231   5.386  14.969  1.4889  2.0195  1.0569
18384TIP3   OH276642   3.556   1.499   4.091  0.5630 -0.6598 -0.2420
18384TIP3    H176643   3.648   1.490   4.064  0.2028 -2.2671 -1.0619
18384TIP3    H276644   3.516   1.553   4.023  0.7567 -0.5405 -0.2615
18385TIP3   OH276645   5.044   0.596   3.640 -0.7882  0.4065  0.1073
18385TIP3    H176646   5.092   0.516   3.619 -1.3578 -0.0949  0.6809
18385TIP3    H276647   4.952   0.570   3.639 -1.1453  1.5819 -1.9647
18386TIP3   OH276648   3.096   1.370   0.775  0.4739  0.2188 -0.5647
18386TIP3    H176649   3.004   1.379   0.751 -0.2412 -2.5585  0.6837
18386TIP3    H276650   3.144   1.403   0.699 -1.5457  0.7839 -1.6685
18387TIP3   OH276651   6.441   5.847  16.566 -0.2087  0.9462  0.3476
18387TIP3    H176652   6.385   5.849  16.488 -0.3848  1.2997  0.4808
18387TIP3    H276653   6.518   5.898  16.542  1.1999 -1.4753 -0.6785
18388TIP3   OH276654   2.761   1.100   4.240  0.1940  0.0392 -0.5282
18388TIP3    H176655   2.688   1.047   4.208  1.3882 -1.7450 -0.3999
18388TIP3    H276656   2.770   1.075   4.332  0.5688  0.7173 -0.3761
18389TIP3   OH276657   6.286   2.800   4.481  0.0219  0.7633 -0.1700
18389TIP3    H176658   6.223   2.872   4.473 -0.6951  0.4924  2.2250
18389TIP3    H276659   6.324   2.811   4.568  1.0488 -0.8658 -0.3714
18390TIP3   OH276660   0.565   3.853   5.648  0.0728 -0.1496 -0.3843
18390TIP3    H176661   0.610   3.770   5.661 -0.5614 -0.5985 -0.9524
18390TIP3    H276662   0.502   3.858   5.720 -0.8608 -0.8479 -1.1309
18391TIP3   OH276663   6.616   1.334   1.936  0.3277 -0.2926  0.3013
18391TIP3    H176664   6.616   1.353   2.030 -1.8754  0.2048  0.2655
18391TIP3    H276665   6.616   1.420   1.895  0.5546 -0.5062 -0.1484
18392TIP3   OH276666   4.235   1.649   6.203 -0.2836 -0.2300  0.3776
18392TIP3    H176667   4.237   1.674   6.295  1.3300  0.3607  0.2081
18392TIP3    H276668   4.303   1.701   6.161  0.7886 -2.3307 -0.6657
18393TIP3   OH276669   1.077   1.275   4.100  0.0366  0.3972  0.4324
18393TIP3    H176670   1.118   1.192   4.074 -3.4425 -1.7181  1.0911
18393TIP3    H276671   1.148   1.324   4.142  2.1790 -2.4201  0.4057
18394TIP3   OH276672   2.697   2.671  14.351  0.1172 -0.5364  0.2249
18394TIP3    H176673   2.767   2.664  14.416  0.3518 -2.2609 -0.1839
18394TIP3    H276674   2.654   2.754  14.372  1.2050 -0.2724  1.5559
18395TIP3   OH276675   1.427   2.355   3.956  0.1637  0.6797  0.4257
18395TIP3    H176676   1.460   2.280   4.004  0.0434  0.6297  0.4301
18395TIP3    H276677   1.349   2.382   4.003  1.0471  1.7681  1.3374
18396TIP3   OH276678   6.443   5.442   5.140  0.5128 -0.3338 -0.2799
18396TIP3    H176679   6.431   5.502   5.067 -0.9309 -0.0460  0.1670
18396TIP3    H276680   6.468   5.498   5.213  0.5394 -0.4476 -0.2015
18397TIP3   OH276681   6.667   2.696  14.288 -0.0133 -0.0338 -0.8318
18397TIP3    H176682   6.645   2.616  14.240  0.4753 -0.4486 -0.3757
18397TIP3    H276683   6.586   2.747  14.288  0.0538  0.1305 -2.3710
18398TIP3   OH276684   0.231   5.679   3.051  0.0835  0.4122  0.3139
18398TIP3    H176685   0.251   5.591   3.017  0.3041  1.2192 -1.8179
18398TIP3    H276686   0.141   5.695   3.021  0.5834  1.4822 -0.6778
18399TIP3   OH276687   0.317   4.788   1.335 -0.1139 -0.0054  0.5418
18399TIP3    H176688   0.305   4.695   1.354  3.0845 -0.7312 -0.4321
18399TIP3    H276689   0.240   4.830   1.373 -3.4736 -3.3241 -1.8715
18400TIP3   OH276690   3.688   3.467  14.586  0.3219 -0.1617 -0.0718
18400TIP3    H176691   3.632   3.407  14.635 -1.1557 -0.9896 -2.5711
18400TIP3    H276692   3.629   3.509  14.524  2.2210 -0.0707 -1.9255
18401TIP3   OH276693   5.015   2.840   4.746  0.0216 -0.1037  0.1948
18401TIP3    H176694   4.936   2.804   4.786  1.5946 -2.8627  1.0530
18401TIP3    H276695   5.087   2.792   4.787  1.9555 -0.4805 -3.2454
18402TIP3   OH276696   5.253   0.256  16.101  0.2548  0.1281 -0.1699
18402TIP3    H176697   5.238   0.198  16.175 -3.8988 -0.0177 -0.8951
18402TIP3    H276698   5.258   0.344  16.140 -1.2480 -0.0116  0.4065
18403TIP3   OH276699   1.021   1.758   4.387  0.0864  0.3662 -0.1774
18403TIP3    H176700   1.096   1.738   4.331  1.9279 -1.1277  2.6282
18403TIP3    H276701   0.945   1.724   4.339  0.9524  2.5830 -3.4457
18404TIP3   OH276702   5.164   2.870   2.193 -0.0058  0.1188 -0.2997
18404TIP3    H176703   5.232   2.809   2.163 -0.0444  0.7131 -1.6828
18404TIP3    H276704   5.195   2.956   2.165 -0.4058  0.6421  0.8050
18405TIP3   OH276705   1.405   4.553  11.081 -0.0240  0.0478  0.1215
18405TIP3    H176706   1.347   4.605  11.136 -1.2603 -2.2048  1.0489
18405TIP3    H276707   1.368   4.562  10.993 -0.9075 -0.1761  0.4610
18406TIP3   OH276708   5.606   3.931  15.561 -0.5335  0.4274  0.3066
18406TIP3    H176709   5.558   3.860  15.604  0.3916 -0.0694  0.5401
18406TIP3    H276710   5.545   4.005  15.562 -0.6689  0.3462  2.2019
18407TIP3   OH276711   6.341   3.114   0.506 -0.4123  0.1946 -0.4856
18407TIP3    H176712   6.427   3.134   0.468  0.3981  0.5176  1.3996
18407TIP3    H276713   6.287   3.189   0.482  0.9886  2.0044  1.6265
18408TIP3   OH276714   2.562   6.389  17.095  0.0915 -0.6613 -0.1684
18408TIP3    H176715   2.509   6.463  17.126  1.1176 -0.3952  1.0419
18408TIP3    H276716   2.555   6.324  17.164  1.4319 -0.5610  0.0897
18409TIP3   OH276717   0.634   6.683   6.756  0.3162  0.4871  0.6204
18409TIP3    H176718   0.583   6.643   6.826 -0.4237  1.3968  0.6234
18409TIP3    H276719   0.587   6.658   6.676  0.3216  0.6532  0.5653
18410TIP3   OH276720   2.825   2.649   5.323  0.3623  0.0454  0.3882
18410TIP3    H176721   2.890   2.715   5.298  0.8200 -0.0362  1.3283
18410TIP3    H276722   2.763   2.648   5.250  1.1549  0.4651 -0.3142
18411TIP3   OH276723   4.694   2.992  16.771  0.0625  0.0146  0.2434
18411TIP3    H176724   4.638   3.069  16.765 -2.0643 -1.4219  0.5810
18411TIP3    H276725   4.746   3.006  16.850 -1.6647  0.2731  1.3804
18412TIP3   OH276726   2.418   5.147  16.373 -0.3050  0.4178  0.1680
18412TIP3    H176727   2.436   5.190  16.457 -1.5465  1.9971 -0.3480
18412TIP3    H276728   2.383   5.061  16.398  1.0708  0.1121  1.2174
18413TIP3   OH276729   4.391   2.072  16.973  1.0016 -0.9014  0.3261
18413TIP3    H176730   4.421   2.022  17.049  0.7041 -1.0730  0.3312
18413TIP3    H276731   4.391   2.009  16.901  1.3126 -0.7309  0.1732
18414TIP3   OH276732   4.940   0.232   1.530  0.3244  0.3457  0.0474
18414TIP3    H176733   4.850   0.250   1.503  0.6458 -0.9245 -2.1382
18414TIP3    H276734   4.983   0.318   1.527  0.0540  0.4880 -2.7414
18415TIP3   OH276735   6.541   2.484  14.103  0.3942 -0.2403  0.0553
18415TIP3    H176736   6.450   2.491  14.076  0.2647 -0.2292  0.4904
18415TIP3    H276737   6.537   2.454  14.194  0.8435 -1.6276 -0.3531
18416TIP3   OH276738   2.091   5.015   4.920  0.0740  0.4629  0.1917
18416TIP3    H176739   2.056   5.104   4.916  0.2650  0.4907 -1.6213
18416TIP3    H276740   2.182   5.023   4.893  0.1291 -0.2485  0.1413
18417TIP3   OH276741   2.037   6.590   3.357 -0.1081  0.4323  0.5366
18417TIP3    H176742   2.126   6.582   3.323 -0.1164 -1.7559  0.8523
18417TIP3    H276743   2.049   6.609   3.450 -0.0719  3.7412 -0.0249
18418TIP3   OH276744   5.238   5.303   5.097  0.1586 -0.4128 -0.0937
18418TIP3    H176745   5.308   5.284   5.159 -0.6030 -1.0156  0.5844
18418TIP3    H276746   5.256   5.393   5.069  0.5756 -0.1777  0.8964
18419TIP3   OH276747   0.331   3.958   0.279  0.0867  0.0826  0.1380
18419TIP3    H176748   0.320   3.865   0.301 -0.1112 -0.2229 -1.1617
18419TIP3    H276749   0.284   3.968   0.196  1.3688  1.0192 -0.4953
18420TIP3   OH276750   5.268   1.825   4.072  0.3233 -0.4929 -0.2966
18420TIP3    H176751   5.350   1.805   4.116  1.0941 -0.7343 -1.7698
18420TIP3    H276752   5.240   1.908   4.109  1.2431 -0.3972  0.2111
18421TIP3   OH276753   4.493   1.613   4.777  0.2013 -0.7553  0.0514
18421TIP3    H176754   4.510   1.618   4.683 -0.9478  0.5708 -0.1163
18421TIP3    H276755   4.556   1.548   4.810  1.9478  0.1836 -1.3049
18422TIP3   OH276756   0.675   1.810  16.158  0.6317 -0.0080  0.0415
18422TIP3    H176757   0.666   1.880  16.222 -2.0532  0.3889 -0.6370
18422TIP3    H276758   0.691   1.855  16.075  0.0963 -0.2709 -0.2056
18423TIP3   OH276759   3.153   0.459  14.471 -0.6389  0.0224  0.1917
18423TIP3    H176760   3.163   0.529  14.536 -1.2581 -0.0698  0.3907
18423TIP3    H276761   3.198   0.384  14.510 -0.4061  0.1618  0.1979
18424TIP3   OH276762   2.461   4.706  15.649  0.3306 -0.6010 -0.2982
18424TIP3    H176763   2.450   4.724  15.556 -0.9251  0.3708  0.0270
18424TIP3    H276764   2.487   4.613  15.652  0.6997 -0.5564 -1.6191
18425TIP3   OH276765   3.781   4.443   2.982  0.2680 -0.2224 -0.5017
18425TIP3    H176766   3.826   4.527   2.972 -1.9937  1.1524 -0.0013
18425TIP3    H276767   3.723   4.456   3.057  0.4089 -2.5326  0.0747
18426TIP3   OH276768   1.619   5.052  13.288  0.0789  0.0813  0.3693
18426TIP3    H176769   1.625   5.144  13.263  0.3145  0.0606  0.3515
18426TIP3    H276770   1.614   5.053  13.383  0.2753  0.1017  0.3788
18427TIP3   OH276771   0.237   4.335   5.413 -0.7758  0.5970 -0.0959
18427TIP3    H176772   0.159   4.381   5.444  0.2470  1.0868  1.8841
18427TIP3    H276773   0.260   4.275   5.483  1.2942  1.3055 -0.0979
18428TIP3   OH276774   1.490   2.796   5.766  0.5564 -0.0239 -0.1390
18428TIP3    H176775   1.511   2.724   5.707 -0.1397  0.5982 -1.1681
18428TIP3    H276776   1.396   2.788   5.782  0.5114  0.5297 -0.0936
18429TIP3   OH276777   2.805   6.508   0.610  0.0563  0.0567 -0.7692
18429TIP3    H176778   2.768   6.496   0.697  1.1832  1.0174 -0.1411
18429TIP3    H276779   2.767   6.436   0.558 -1.4141  0.0678  0.2258
18430TIP3   OH276780   0.363   5.704   5.920 -0.3910 -0.2288  0.0184
18430TIP3    H176781   0.366   5.609   5.910 -2.7014 -0.3230 -0.3945
18430TIP3    H276782   0.349   5.718   6.014  1.1768 -0.2067  0.2743
18431TIP3   OH276783   2.231   4.920   3.742  0.8743 -0.3185  0.0523
18431TIP3    H176784   2.325   4.928   3.761  1.1090  2.8093 -1.7524
18431TIP3    H276785   2.226   4.923   3.646 -1.1003 -0.5371  0.1065
18432TIP3   OH276786   4.989   1.440  12.889  0.0744  0.3627 -0.2099
18432TIP3    H176787   4.982   1.464  12.797 -1.6639  1.6487  0.2040
18432TIP3    H276788   4.945   1.511  12.936 -1.6209 -1.6108  1.4142
18433TIP3   OH276789   6.013   4.819   0.403 -0.1141  0.1173 -0.4161
18433TIP3    H176790   6.082   4.757   0.381 -1.9127 -2.0699 -0.1613
18433TIP3    H276791   5.939   4.793   0.348 -1.2439  1.4268  0.4261
18434TIP3   OH276792   0.396   2.930  16.540  1.0379  0.2909 -0.0934
18434TIP3    H176793   0.468   2.985  16.572  0.2918 -0.0267  2.3332
18434TIP3    H276794   0.322   2.991  16.532  1.6339  0.7423 -3.1717
18435TIP3   OH276795   4.344   2.145  14.835  0.3473 -0.1070  0.1049
18435TIP3    H176796   4.257   2.150  14.873 -0.3120 -0.0836 -1.3461
18435TIP3    H276797   4.392   2.218  14.875 -1.0871  1.5011 -0.9850
18436TIP3   OH276798   4.689   1.310   1.607 -0.1036  0.1162  0.1733
18436TIP3    H176799   4.730   1.307   1.694  1.6830  0.5317 -0.6111
18436TIP3    H276800   4.754   1.354   1.551 -1.2182 -0.1216 -1.3712
18437TIP3   OH276801   4.819   3.813   0.218 -0.4956  0.3547 -0.2565
18437TIP3    H176802   4.778   3.801   0.303 -0.7012 -2.4485 -0.6720
18437TIP3    H276803   4.906   3.848   0.238 -1.1897  1.4509  0.9531
18438TIP3   OH276804   5.165   5.574  13.548  0.6832  0.0785 -0.7629
18438TIP3    H176805   5.148   5.634  13.475  0.4394  2.0326  0.8207
18438TIP3    H276806   5.220   5.505  13.510 -0.6104  0.2497 -3.0944
18439TIP3   OH276807   6.621   1.346  15.091 -0.1477 -0.3581  0.2532
18439TIP3    H176808   6.605   1.318  15.181  0.9321  0.1478  0.6228
18439TIP3    H276809   6.573   1.283  15.037  3.1924 -3.8334  0.9454
18440TIP3   OH276810   2.103   0.252   3.215  0.0148 -0.2616 -0.7271
18440TIP3    H176811   2.187   0.266   3.260 -0.0122  1.2998 -1.1116
18440TIP3    H276812   2.046   0.321   3.250 -1.2446 -1.5162 -0.2032
18441TIP3   OH276813   5.495   2.226   5.272 -0.8567 -0.1235  0.5897
18441TIP3    H176814   5.440   2.280   5.329  0.1724  1.7043 -0.0654
18441TIP3    H276815   5.576   2.214   5.323 -1.5106 -2.1351  1.2312
18442TIP3   OH276816   2.486   0.497   3.532  0.3913 -0.1490  0.1860
18442TIP3    H176817   2.439   0.447   3.465  1.8667 -0.8827 -0.3397
18442TIP3    H276818   2.471   0.588   3.509  1.3512 -0.3801 -1.5379
18443TIP3   OH276819   5.218   1.632  16.137 -0.1365 -0.4406 -0.1300
18443TIP3    H176820   5.240   1.606  16.048 -0.4030 -0.6845 -0.1253
18443TIP3    H276821   5.291   1.687  16.165 -0.4493  0.3230 -0.7974
18444TIP3   OH276822   2.170   0.818   3.317  0.5007 -0.5002 -0.0439
18444TIP3    H176823   2.253   0.844   3.276  0.2274 -0.6397 -0.7002
18444TIP3    H276824   2.146   0.893   3.371  1.1884 -0.5625  0.3714
18445TIP3   OH276825   3.202   5.412  13.838 -0.6995  0.3317  0.0146
18445TIP3    H176826   3.278   5.361  13.866 -0.0646  2.3618  2.3792
18445TIP3    H276827   3.150   5.352  13.786  1.8565 -1.5357 -0.5579
18446TIP3   OH276828   4.374   3.335   3.960 -0.5042 -0.1885 -0.1575
18446TIP3    H176829   4.450   3.364   3.909 -0.6638  2.3860  0.9069
18446TIP3    H276830   4.409   3.268   4.019  0.9770  0.8976  0.2598
18447TIP3   OH276831   5.896   1.179   4.145  0.0448 -0.4895 -0.6611
18447TIP3    H176832   5.954   1.104   4.129 -0.3888 -0.6785 -1.3924
18447TIP3    H276833   5.808   1.141   4.148 -0.1360 -0.0681 -0.6064
18448TIP3   OH276834   3.731   2.251   4.695 -0.4773 -0.7229  0.0967
18448TIP3    H176835   3.677   2.206   4.630 -1.6141  0.5182  0.1421
18448TIP3    H276836   3.722   2.199   4.775  0.0484 -1.6498 -0.4379
18449TIP3   OH276837   6.187   1.656  15.380 -0.0627  0.4874  0.1540
18449TIP3    H176838   6.239   1.644  15.460  1.0903 -2.4890 -0.9086
18449TIP3    H276839   6.146   1.571  15.365  0.3852  0.6752 -2.8097
18450TIP3   OH276840   1.228   3.656   0.510 -0.6659 -0.4405 -0.1665
18450TIP3    H176841   1.268   3.628   0.428  0.3656  0.8380 -0.1311
18450TIP3    H276842   1.231   3.752   0.507 -0.1492 -0.3625  1.5545
18451TIP3   OH276843   6.085   0.493  16.193 -0.4884  0.1649 -0.3787
18451TIP3    H176844   6.024   0.532  16.131 -1.8120  1.7733  1.7885
18451TIP3    H276845   6.169   0.536  16.175 -1.4898  2.7459  0.6887
18452TIP3   OH276846   3.673   4.563  11.675  0.2881  0.2985  0.6502
18452TIP3    H176847   3.656   4.469  11.682  1.7940  0.0737  1.6890
18452TIP3    H276848   3.588   4.604  11.690 -0.3166 -0.8793  0.5603
18453TIP3   OH276849   0.414   0.601   5.175  0.0090  0.2693 -0.2817
18453TIP3    H176850   0.499   0.572   5.207 -0.4666  0.1066  0.8949
18453TIP3    H276851   0.382   0.527   5.123 -0.2409 -0.4782  0.8851
18454TIP3   OH276852   4.178   4.211   1.993  0.2755 -0.5887 -0.3275
18454TIP3    H176853   4.152   4.149   2.061  1.3604  0.1320  0.7882
18454TIP3    H276854   4.273   4.218   2.003  0.1306  1.6229 -0.0711
18455TIP3   OH276855   6.512   6.717  15.124 -0.3221  0.2144 -0.1476
18455TIP3    H176856   6.506   6.621  15.130 -0.3228  0.2906  1.3228
18455TIP3    H276857   6.468   6.738  15.041  1.7444 -1.2173 -1.7092
18456TIP3   OH276858   3.160   6.421   4.215 -0.1047 -0.3014  0.2842
18456TIP3    H176859   3.131   6.329   4.212 -0.3082 -0.2580  0.8298
18456TIP3    H276860   3.088   6.470   4.174  0.1518 -0.4152 -0.3148
18457TIP3   OH276861   2.394   3.406   3.319  0.3914  0.3187 -0.2287
18457TIP3    H176862   2.302   3.430   3.325 -0.4122 -2.3415 -0.3312
18457TIP3    H276863   2.426   3.407   3.409  0.0710  0.5813 -0.1171
18458TIP3   OH276864   0.189   0.636   3.361 -0.1039  0.1715  0.2065
18458TIP3    H176865   0.279   0.669   3.354 -0.6663  1.9565  0.9342
18458TIP3    H276866   0.189   0.584   3.442  0.2002  0.4256  0.3726
18459TIP3   OH276867   5.894   0.140  12.692 -0.2082 -0.4065  0.1893
18459TIP3    H176868   5.826   0.075  12.707  0.3094 -0.9027  0.4070
18459TIP3    H276869   5.851   0.208  12.639 -2.0823  1.3897  3.6586
18460TIP3   OH276870   3.403   4.679  10.858 -0.7335 -0.5750 -0.3745
18460TIP3    H176871   3.430   4.687  10.766 -0.3392 -0.5820 -0.2607
18460TIP3    H276872   3.319   4.725  10.862 -1.7063 -2.1842 -1.1495
18461TIP3   OH276873   0.102   6.574  12.887  0.3050 -0.0771 -0.4980
18461TIP3    H176874   0.131   6.511  12.953 -0.9953 -0.4225 -0.2166
18461TIP3    H276875   0.087   6.522  12.808 -0.8009 -0.1591 -0.2561
18462TIP3   OH276876   6.049   4.962  12.625 -0.3632 -0.1453 -0.0619
18462TIP3    H176877   6.092   4.885  12.588  2.6649  1.7520 -0.8464
18462TIP3    H276878   6.062   4.954  12.720  0.2438 -0.4573 -0.1647
18463TIP3   OH276879   0.964   0.018   3.166  0.4506 -0.0009 -0.0482
18463TIP3    H176880   1.052   0.026   3.203  1.1998 -1.2358 -1.4698
18463TIP3    H276881   0.966  -0.062   3.114 -1.4830  0.0164 -0.2466
18464TIP3   OH276882   0.065   3.302  14.277  0.2547  0.3726 -0.1648
18464TIP3    H176883  -0.017   3.276  14.317  1.5297  1.6265  3.6662
18464TIP3    H276884   0.063   3.398  14.278  1.0099  0.4427 -1.8496
18465TIP3   OH276885   1.901   1.125   3.269 -0.6160 -0.7260  0.4701
18465TIP3    H176886   1.911   1.212   3.230 -1.1228 -1.2820 -0.9863
18465TIP3    H276887   1.865   1.071   3.198 -1.4367 -1.8433  1.6758
18466TIP3   OH276888   5.997   2.662  11.773  0.6127 -0.5137 -0.2680
18466TIP3    H176889   5.952   2.698  11.697  2.8504  2.0415 -0.5210
18466TIP3    H276890   6.089   2.685  11.760  1.0142  0.7648  3.5842
18467TIP3   OH276891   2.263   6.258   0.043 -0.6003  0.6150 -0.3617
18467TIP3    H176892   2.350   6.281   0.009 -0.9108  2.2161 -0.1856
18467TIP3    H276893   2.213   6.340   0.037 -1.3023  0.4235  1.9889
18468TIP3   OH276894   4.843   5.576  12.248 -0.0964 -0.0194  0.0204
18468TIP3    H176895   4.832   5.628  12.328 -1.5163  0.1944 -0.2761
18468TIP3    H276896   4.824   5.486  12.276 -3.6982  0.3920 -0.5639
18469TIP3   OH276897   6.782   2.396  17.300 -0.0620  0.1656 -0.5024
18469TIP3    H176898   6.692   2.425  17.289 -0.2478 -0.5567 -0.9358
18469TIP3    H276899   6.791   2.379  17.393 -0.3393  0.3404 -0.4432
18470TIP3   OH276900   4.732   0.196   5.285  0.3627  0.1936  0.4458
18470TIP3    H176901   4.756   0.107   5.257  0.5364 -0.1828  1.7370
18470TIP3    H276902   4.803   0.223   5.343 -0.4841  0.5255  1.3539
18471TIP3   OH276903   3.205   3.887   5.057 -0.3896 -0.2904 -0.8245
18471TIP3    H176904   3.148   3.928   4.992 -2.5275 -0.6593  0.6915
18471TIP3    H276905   3.204   3.794   5.035  1.8354 -0.0124 -2.3430
18472TIP3   OH276906   6.078   2.663  13.644  0.6414  0.1670 -0.2710
18472TIP3    H176907   6.037   2.619  13.719  0.2297  0.2850 -0.4222
18472TIP3    H276908   6.063   2.757  13.660 -3.0179  0.1440 -2.4176
18473TIP3   OH276909   1.882   1.034  12.102  0.1452  0.4209 -0.0601
18473TIP3    H176910   1.891   0.944  12.133 -2.0920  0.1224 -0.1370
18473TIP3    H276911   1.924   1.034  12.016  0.0861 -0.5704 -0.0980
18474TIP3   OH276912   1.696   6.804   3.418  0.5239 -0.0766 -0.2134
18474TIP3    H176913   1.749   6.860   3.475  1.1202  0.1583 -0.9977
18474TIP3    H276914   1.643   6.865   3.366 -3.0451 -0.2428  2.7661
18475TIP3   OH276915   5.918   0.724  17.285 -0.3663  0.3140 -0.3446
18475TIP3    H176916   5.994   0.712  17.229 -0.0010 -0.4347  0.2894
18475TIP3    H276917   5.858   0.653  17.260  0.3436 -0.8267  1.0652
18476TIP3   OH276918   4.064   3.720  16.490  0.3891  0.0355 -0.2135
18476TIP3    H176919   3.983   3.674  16.467  0.1865 -0.1522  0.7959
18476TIP3    H276920   4.041   3.769  16.570  1.3889 -0.3937  0.3533
18477TIP3   OH276921   2.372   2.563   5.773 -0.2582  0.0964 -0.2650
18477TIP3    H176922   2.360   2.469   5.786  2.7318 -0.4514 -0.6932
18477TIP3    H276923   2.374   2.575   5.678 -1.2448  0.7052 -0.2170
18478TIP3   OH276924   2.558   1.789  14.328  0.0917  0.0229  0.1734
18478TIP3    H176925   2.605   1.852  14.382  0.0614 -0.0656  0.3018
18478TIP3    H276926   2.542   1.714  14.385 -1.1315  0.4666  0.4558
18479TIP3   OH276927   0.350   2.320  16.789 -0.1784 -0.9220 -0.4631
18479TIP3    H176928   0.351   2.231  16.755  1.2003 -0.1066 -2.7955
18479TIP3    H276929   0.381   2.312  16.879  0.6287 -2.7146 -0.8681
18480TIP3   OH276930   4.656   6.481  14.697  0.0304 -0.2981  0.0839
18480TIP3    H176931   4.633   6.481  14.790  0.2241 -1.0903  0.1409
18480TIP3    H276932   4.682   6.390  14.678  0.6394 -0.0026 -0.5838
18481TIP3   OH276933   2.440   2.369   0.777  0.1333 -0.3880  0.0302
18481TIP3    H176934   2.379   2.295   0.779  0.2052 -0.5024 -1.1607
18481TIP3    H276935   2.487   2.363   0.860 -1.6242 -0.1444  1.0990
18482TIP3   OH276936   3.051   5.285   2.278 -0.1395 -0.2603 -0.1004
18482TIP3    H176937   3.062   5.304   2.371 -0.5699 -1.3848  0.2076
18482TIP3    H276938   3.085   5.362   2.232 -0.1239  0.3965  0.9906
18483TIP3   OH276939   5.555   2.682   5.871 -0.4184  0.4184  0.3706
18483TIP3    H176940   5.631   2.709   5.820  0.0890  0.3399  1.0778
18483TIP3    H276941   5.519   2.607   5.823 -0.6103  1.0320 -0.4696
18484TIP3   OH276942   4.887   4.879  15.985  0.3921  0.4573  0.0499
18484TIP3    H176943   4.792   4.883  15.984  0.2947 -0.8935  1.3555
18484TIP3    H276944   4.914   4.945  15.921 -1.4270 -0.1728 -1.4623
18485TIP3   OH276945   6.667   1.843  11.039  0.4048 -0.1978  0.2916
18485TIP3    H176946   6.742   1.848  11.097 -1.4051  0.1966  2.7579
18485TIP3    H276947   6.633   1.754  11.051  0.7245 -0.5461 -1.1902
18486TIP3   OH276948   6.016   2.139  12.625  0.3644  0.1616 -0.1217
18486TIP3    H176949   6.090   2.099  12.579 -0.6988 -2.0596 -0.0274
18486TIP3    H276950   5.975   2.196  12.559  0.6512 -0.5935 -0.9792
18487TIP3   OH276951   0.590   5.876  12.748 -0.3040  0.6345 -0.3728
18487TIP3    H176952   0.586   5.781  12.752  1.0798  0.5456 -0.7413
18487TIP3    H276953   0.598   5.904  12.839  2.6872  0.1827 -0.4264
18488TIP3   OH276954   5.479   0.106   0.876 -0.0112  0.3948  0.1966
18488TIP3    H176955   5.465   0.190   0.920 -0.1652 -0.9033  2.8177
18488TIP3    H276956   5.398   0.058   0.889  0.4112 -0.5207 -0.4207
18489TIP3   OH276957   4.165   0.585   3.144 -0.2259 -0.7933 -0.5298
18489TIP3    H176958   4.103   0.600   3.216 -0.1481  1.3525 -0.8312
18489TIP3    H276959   4.225   0.660   3.148  0.3373 -1.0948 -2.2799
18490TIP3   OH276960   4.793   5.907  16.665  0.0149 -0.3288 -0.3622
18490TIP3    H176961   4.787   5.996  16.632 -1.3697 -0.3594 -0.2867
18490TIP3    H276962   4.791   5.851  16.587  1.0570 -0.3015 -0.4177
18491TIP3   OH276963   3.846   3.558  16.505  0.0843 -0.1748 -0.2293
18491TIP3    H176964   3.818   3.531  16.418  0.4475  0.1190 -0.4403
18491TIP3    H276965   3.845   3.478  16.557 -0.9631 -0.2006 -0.2774
18492TIP3   OH276966   3.186   4.960  16.355  0.5338  0.1801 -0.1680
18492TIP3    H176967   3.212   4.974  16.264 -0.3882 -0.8648 -0.6154
18492TIP3    H276968   3.265   4.930  16.398  1.2378  1.6221 -0.3688
18493TIP3   OH276969   4.144   0.517  12.884 -0.0184 -0.1409  0.0929
18493TIP3    H176970   4.133   0.609  12.909 -1.3306  0.2490 -1.7210
18493TIP3    H276971   4.175   0.520  12.793 -2.4640 -1.4383 -0.8832
18494TIP3   OH276972   6.369   2.033  16.173 -0.1933 -0.3998 -0.0513
18494TIP3    H176973   6.410   1.978  16.106 -0.8839 -1.7853  0.6139
18494TIP3    H276974   6.279   2.000  16.180 -0.6932  0.9503  0.2584
18495TIP3   OH276975   4.829   0.186   6.226 -0.6346 -0.7764  0.0644
18495TIP3    H176976   4.755   0.215   6.279  0.1109  1.5749 -0.0452
18495TIP3    H276977   4.838   0.255   6.159  1.3299 -1.2558 -0.2132
18496TIP3   OH276978   2.677   1.856  16.376 -0.3564  0.0987  0.0341
18496TIP3    H176979   2.699   1.768  16.406 -0.4357  0.5494  1.5381
18496TIP3    H276980   2.616   1.889  16.442 -0.7321  1.0971 -0.7821
18497TIP3   OH276981   4.182   2.384   1.345  0.2732 -0.4156  0.3776
18497TIP3    H176982   4.130   2.421   1.416  0.8643 -0.3095  0.7705
18497TIP3    H276983   4.162   2.439   1.269  1.2882  0.8695  1.0041
18498TIP3   OH276984   1.891   0.774  12.202 -0.3560 -0.0630 -0.1137
18498TIP3    H176985   1.851   0.688  12.195  2.3535 -1.6399  1.7898
18498TIP3    H276986   1.900   0.789  12.296  0.3158  1.7770 -0.4248
18499TIP3   OH276987   1.551   6.241  15.610  0.3407  0.1855 -0.6114
18499TIP3    H176988   1.499   6.182  15.663  1.0439  0.0427 -0.0659
18499TIP3    H276989   1.543   6.326  15.653  0.6793  0.1307 -0.4377
18500TIP3   OH276990   4.104   0.757   4.366  0.2079 -0.8986 -0.2344
18500TIP3    H176991   4.134   0.842   4.398 -0.5477  0.6803 -3.2770
18500TIP3    H276992   4.182   0.701   4.369  1.4721  0.7637 -0.7200
18501TIP3   OH276993   3.741   3.381  17.122 -0.3917 -0.2783  0.1997
18501TIP3    H176994   3.733   3.445  17.192 -0.2371  0.9742 -0.8849
18501TIP3    H276995   3.829   3.394  17.087  0.6346 -2.8481  1.5594
18502TIP3   OH276996   4.114   4.846   1.704  0.2591 -0.0778  0.4657
18502TIP3    H176997   4.135   4.904   1.778  1.1857  0.2741 -0.0614
18502TIP3    H276998   4.054   4.898   1.650  1.5947  0.6694 -0.3402
18503TIP3   OH276999   0.321   1.123   5.863 -0.0276 -0.5247  1.3183
18503TIP3    H177000   0.278   1.089   5.942 -2.0531  1.3334  1.1209
18503TIP3    H277001   0.350   1.211   5.889  0.3119 -0.3377  0.3234
18504TIP3   OH277002   5.880   5.447   4.370  0.2777 -0.0781  0.0533
18504TIP3    H177003   5.932   5.510   4.320 -0.0218 -0.2577 -0.4976
18504TIP3    H277004   5.910   5.457   4.460 -1.1816  2.3968  0.3937
18505TIP3   OH277005   5.414   1.139   4.442  0.1182  0.2263 -0.1704
18505TIP3    H177006   5.344   1.184   4.489 -0.1582 -0.9166  0.5446
18505TIP3    H277007   5.458   1.086   4.508  0.0949 -0.9592 -1.0621
18506TIP3   OH277008   1.854   6.667  13.121 -0.2418  0.2893  0.1877
18506TIP3    H177009   1.824   6.584  13.084 -1.5136  0.7521  0.1382
18506TIP3    H277010   1.842   6.658  13.215  1.2643 -0.2021  0.3651
18507TIP3   OH277011   2.673   6.454  13.540 -0.0259  0.7879 -0.3521
18507TIP3    H177012   2.646   6.495  13.458 -1.1506 -2.3951 -1.7248
18507TIP3    H277013   2.591   6.431  13.584  0.5380 -0.0331  0.3195
18508TIP3   OH277014   1.072   1.869   5.547  0.1085 -0.4541  0.7251
18508TIP3    H177015   1.108   1.789   5.508 -1.0877 -0.4302 -0.5271
18508TIP3    H277016   1.034   1.840   5.630  0.9652 -0.8983  0.9686
18509TIP3   OH277017   0.211   2.444  15.416  0.1571 -0.0087 -0.1449
18509TIP3    H177018   0.154   2.519  15.436 -0.0775 -0.3674  0.5778
18509TIP3    H277019   0.183   2.376  15.478  0.4809 -0.6360 -0.6814
18510TIP3   OH277020   4.333   6.300  16.828 -0.1075  0.2344  0.2841
18510TIP3    H177021   4.359   6.225  16.775  1.9907  0.1025  1.3859
18510TIP3    H277022   4.415   6.345  16.848 -1.2302  2.4764  0.2226
18511TIP3   OH277023   4.883   5.319   5.446 -0.2047 -0.4319 -0.3301
18511TIP3    H177024   4.881   5.374   5.367  0.6535  1.1732  0.7020
18511TIP3    H277025   4.962   5.266   5.437 -0.3917 -0.6350 -0.7903
18512TIP3   OH277026   3.400   0.607   1.787 -0.5388  0.8108 -0.3818
18512TIP3    H177027   3.491   0.616   1.816 -0.6320  0.4768  0.0149
18512TIP3    H277028   3.367   0.531   1.834 -1.3953  1.6417  0.4232
18513TIP3   OH277029   0.775   2.020   2.768  0.1173 -0.4733 -0.0019
18513TIP3    H177030   0.715   2.004   2.694 -2.3127  1.1015  1.4903
18513TIP3    H277031   0.839   2.082   2.734  0.9233 -2.0638 -1.5948
18514TIP3   OH277032   3.242   3.049   5.205 -0.1027  0.6540  0.3533
18514TIP3    H177033   3.267   3.012   5.120  0.8461  2.1207 -0.0541
18514TIP3    H277034   3.260   2.979   5.267  1.0869  0.2050 -0.4422
18515TIP3   OH277035   4.769   0.508  15.956 -0.2016  0.1400 -0.1041
18515TIP3    H177036   4.728   0.504  15.870 -1.2402  0.9058  0.3434
18515TIP3    H277037   4.720   0.444  16.008 -0.7401  0.9429  0.3886
18516TIP3   OH277038   1.901   4.789   0.971 -0.4972  0.4464 -0.5331
18516TIP3    H177039   1.912   4.882   0.989 -0.1756  0.6275 -1.6085
18516TIP3    H277040   1.888   4.784   0.876 -0.3679 -0.6155 -0.5085
18517TIP3   OH277041   3.644   4.052   5.691 -0.9714 -0.4609 -0.0615
18517TIP3    H177042   3.602   4.114   5.631  0.0353  0.2450 -0.0640
18517TIP3    H277043   3.573   4.021   5.747 -1.2246  2.3745  1.4182
18518TIP3   OH277044   6.441   6.074  11.146  0.2055 -0.1810 -0.4801
18518TIP3    H177045   6.407   5.987  11.126  0.5032 -0.1631 -1.0802
18518TIP3    H277046   6.433   6.122  11.063  0.3035  0.2770 -0.2281
18519TIP3   OH277047   1.331   6.077  14.840  0.4935 -0.4986  0.2802
18519TIP3    H177048   1.423   6.067  14.814  0.3337 -0.9811 -0.1225
18519TIP3    H277049   1.289   5.997  14.809  0.1275 -0.7285  1.3307
18520TIP3   OH277050   0.912   5.639   5.182 -0.3666  0.0415 -0.2004
18520TIP3    H177051   0.894   5.563   5.237 -0.0548  0.6086  0.7085
18520TIP3    H277052   0.997   5.672   5.213 -0.6221  0.9175 -0.3906
18521TIP3   OH277053   2.733   6.311  11.876 -0.5938 -0.5917  0.2944
18521TIP3    H177054   2.704   6.310  11.968 -0.5697  1.3216  0.3687
18521TIP3    H277055   2.657   6.278  11.827 -0.2224 -2.7102  1.0506
18522TIP3   OH277056   0.610   0.527   3.426  0.2755 -0.2907 -0.0288
18522TIP3    H177057   0.552   0.459   3.461  1.2859 -1.5529 -0.7599
18522TIP3    H277058   0.696   0.505   3.459  0.5435  0.9573  0.1535
18523TIP3   OH277059   0.413   1.018   3.921  0.0986 -0.3733  0.5704
18523TIP3    H177060   0.355   1.057   3.855 -0.1385 -1.3174  0.2055
18523TIP3    H277061   0.354   0.967   3.977 -0.0045  1.9386  2.7470
18524TIP3   OH277062   1.832   5.314   6.463  0.3569 -0.0883  0.2359
18524TIP3    H177063   1.836   5.394   6.514  1.3080  0.2738 -0.3915
18524TIP3    H277064   1.862   5.339   6.376  0.7739 -1.1503  0.0607
18525TIP3   OH277065   0.961   2.591   6.299 -0.3538  0.0511  0.6940
18525TIP3    H177066   0.961   2.686   6.288  0.6236  0.1204  1.2131
18525TIP3    H277067   0.886   2.574   6.356 -1.2951  0.3683 -0.4072
18526TIP3   OH277068   3.175   6.606  17.065 -0.4071  0.7724  0.2724
18526TIP3    H177069   3.102   6.634  17.010  0.4292 -0.0012 -1.2758
18526TIP3    H277070   3.236   6.564  17.005  0.6546  0.1005  1.7660
18527TIP3   OH277071   2.978   3.301  16.969  0.1002 -0.1553 -0.2232
18527TIP3    H177072   2.938   3.218  16.943  1.9190 -0.8226 -1.0397
18527TIP3    H277073   2.985   3.350  16.887  0.4137  0.1832  0.0083
18528TIP3   OH277074   4.789   5.809   0.936 -0.8079 -0.1716 -0.0586
18528TIP3    H177075   4.734   5.834   1.010 -0.2015 -1.0843  0.7354
18528TIP3    H277076   4.871   5.781   0.976 -0.7043 -1.3452 -1.0331
18529TIP3   OH277077   5.830   0.363  15.627  0.4230 -0.1674 -0.5183
18529TIP3    H177078   5.923   0.359  15.652  0.2616 -1.7867 -0.0886
18529TIP3    H277079   5.825   0.311  15.547  0.0138  0.6366 -1.0271
18530TIP3   OH277080   4.468   3.283   0.047  0.1364 -0.0205 -0.6652
18530TIP3    H177081   4.547   3.321   0.085  0.7482 -1.4256 -0.4563
18530TIP3    H277082   4.400   3.348   0.061  1.1178  0.9432 -0.2671
18531TIP3   OH277083   1.964   3.941   5.528  0.2460  0.0587  0.6771
18531TIP3    H177084   1.869   3.942   5.512  0.4422  0.5889 -0.5547
18531TIP3    H277085   1.974   3.884   5.603 -0.8718 -1.8174 -0.5117
18532TIP3   OH277086   2.633   1.989  14.149  0.4881 -0.3979 -0.2063
18532TIP3    H177087   2.605   1.916  14.204  1.3943 -0.0509  0.7495
18532TIP3    H277088   2.553   2.019  14.106  0.1435 -2.1385 -0.8897
18533TIP3   OH277089   0.679   4.972   1.579 -0.4362  0.0932 -0.9110
18533TIP3    H177090   0.674   4.900   1.517  0.5685  0.0806 -0.9904
18533TIP3    H277091   0.761   5.016   1.558 -0.5303  0.6316 -0.1801
18534TIP3   OH277092   2.029   5.207  17.011 -0.2762 -0.8304  0.4196
18534TIP3    H177093   2.097   5.239  16.953  0.0499 -0.3999  1.0282
18534TIP3    H277094   1.991   5.286  17.050  2.1367 -1.1315  3.7866
18535TIP3   OH277095   2.522   6.142  14.347  0.3346 -0.5340 -0.1590
18535TIP3    H177096   2.598   6.089  14.321  0.9472 -0.3387  1.1696
18535TIP3    H277097   2.517   6.210  14.280 -1.2811 -2.9250 -2.6987
18536TIP3   OH277098   5.823   6.196   6.557  0.2045  0.2929 -0.1075
18536TIP3    H177099   5.831   6.147   6.475  3.8763  0.2333  0.1055
18536TIP3    H277100   5.848   6.285   6.533 -1.1702  0.8775  0.5335
18537TIP3   OH277101   2.321   1.628  11.539  0.1748  0.6579  0.3915
18537TIP3    H177102   2.284   1.652  11.624 -0.2306 -1.6182  0.9139
18537TIP3    H277103   2.405   1.675  11.535 -0.7457  2.4586  1.0781
18538TIP3   OH277104   4.373   5.144   2.211 -0.2366 -0.3898  0.2370
18538TIP3    H177105   4.338   5.095   2.137  0.0110 -0.5777  0.2446
18538TIP3    H277106   4.460   5.172   2.183 -1.2184  2.0077 -0.6595
18539TIP3   OH277107   4.591   4.094   3.949  0.1088  0.1817 -0.4245
18539TIP3    H177108   4.648   4.165   3.978 -1.2331  1.3858 -0.5648
18539TIP3    H277109   4.552   4.127   3.868 -1.0131 -0.4322 -0.1561
18540TIP3   OH277110   2.544   6.614   0.450  0.3257  0.0933  0.3275
18540TIP3    H177111   2.578   6.546   0.508 -0.8557  0.0984  1.0563
18540TIP3    H277112   2.506   6.680   0.509  0.0233  0.6010 -0.4150
18541TIP3   OH277113   6.185   0.268  13.285  0.0526  0.5006 -0.0778
18541TIP3    H177114   6.253   0.320  13.241  0.3393  1.1328  1.0940
18541TIP3    H277115   6.193   0.181  13.246  1.8676  0.4302  0.3728
18542TIP3   OH277116   4.730   3.069  12.949 -0.5191  0.2147  0.6710
18542TIP3    H177117   4.770   2.996  12.902 -1.0694  0.7056 -0.6101
18542TIP3    H277118   4.790   3.143  12.935 -0.1113  0.1121  1.7203
18543TIP3   OH277119   4.825   0.954   5.070 -0.7819  0.1183 -1.1017
18543TIP3    H177120   4.858   0.882   5.124  1.1387  1.8286  0.1316
18543TIP3    H277121   4.867   0.942   4.985  0.2096  0.2549 -0.6398
18544TIP3   OH277122   0.073   3.404   2.569 -0.4367 -0.0900  0.1106
18544TIP3    H177123   0.070   3.470   2.639  0.8496 -0.4140  0.5040
18544TIP3    H277124   0.078   3.455   2.489 -1.8691  0.2889  0.2254
18545TIP3   OH277125   6.689   3.826  14.711  0.4682 -0.0631  0.0496
18545TIP3    H177126   6.612   3.825  14.654  1.6211  0.6266 -1.6163
18545TIP3    H277127   6.683   3.908  14.759 -1.0792 -1.1391  1.8360
18546TIP3   OH277128   1.697   0.225   1.373 -0.1890 -0.7500  0.3317
18546TIP3    H177129   1.632   0.211   1.304 -1.1800 -2.0837  1.4847
18546TIP3    H277130   1.694   0.146   1.427  1.6835 -0.4165  1.0204
18547TIP3   OH277131   3.114   0.333  14.093 -0.1405  0.2037  0.2277
18547TIP3    H177132   3.064   0.283  14.158  1.9203  0.6152  2.2875
18547TIP3    H277133   3.191   0.279  14.074  0.5973  1.2187  0.1814
18548TIP3   OH277134   1.853   1.170   1.268 -0.2507  0.5521 -0.5759
18548TIP3    H177135   1.853   1.166   1.364 -0.2318 -1.4545 -0.6249
18548TIP3    H277136   1.945   1.168   1.244 -0.2882 -1.4989 -0.6690
18549TIP3   OH277137   4.914   2.568  15.311  0.4430 -0.1983 -0.3282
18549TIP3    H177138   4.837   2.610  15.273 -0.1023 -0.9589 -0.0831
18549TIP3    H277139   4.885   2.537  15.397  0.8027 -1.1494 -0.5345
18550TIP3   OH277140   6.783   6.258  16.739  1.1296  0.4435 -0.3963
18550TIP3    H177141   6.716   6.326  16.746  0.5571 -0.1033 -0.4947
18550TIP3    H277142   6.834   6.282  16.662 -0.3922 -0.3765 -1.7166
18551TIP3   OH277143   2.147   6.155   2.148  0.0622 -0.5249 -0.0296
18551TIP3    H177144   2.071   6.096   2.146  0.2952 -0.8633  0.7525
18551TIP3    H277145   2.139   6.206   2.068  0.9893 -3.0663 -1.8956
18552TIP3   OH277146   5.529   3.192  11.100  0.4751 -0.4753  0.2419
18552TIP3    H177147   5.535   3.270  11.045 -1.6660  0.6119  1.4031
18552TIP3    H277148   5.512   3.226  11.188 -1.7484 -2.1861  0.5844
18553TIP3   OH277149   0.078   2.820   2.312  0.1073  0.1987 -0.0778
18553TIP3    H177150   0.086   2.877   2.235  0.0333  1.4665  0.8328
18553TIP3    H277151   0.024   2.870   2.373 -0.4249 -1.0906  0.5378
18554TIP3   OH277152   5.352   0.236  14.455 -0.2693  0.0891 -0.2130
18554TIP3    H177153   5.340   0.212  14.363 -1.0248 -0.4912  0.0230
18554TIP3    H277154   5.354   0.332  14.454  0.2729  0.0803 -0.8880
18555TIP3   OH277155   3.062   2.192  12.657 -0.2958 -0.6742 -0.5340
18555TIP3    H177156   2.970   2.172  12.645 -0.3405  0.0807 -1.5047
18555TIP3    H277157   3.090   2.230  12.574  1.3304 -2.4777 -0.8895
18556TIP3   OH277158   6.348   1.532  12.558 -0.3380 -0.1762 -0.2998
18556TIP3    H177159   6.424   1.497  12.604 -0.4880  1.6688  1.4541
18556TIP3    H277160   6.379   1.614  12.519 -1.1499  0.0331 -0.5242
18557TIP3   OH277161   0.614   0.798  12.023  0.1372  0.4015  0.2720
18557TIP3    H177162   0.675   0.780  11.952 -1.5800 -2.1381 -0.7129
18557TIP3    H277163   0.558   0.867  11.990 -0.4793 -0.5764 -0.7965
18558TIP3   OH277164   0.172   0.934   1.296  0.3324  0.2861 -0.6246
18558TIP3    H177165   0.246   0.905   1.349 -0.5911  1.6298  1.5264
18558TIP3    H277166   0.124   0.853   1.277  0.1498 -0.1781  1.5159
18559TIP3   OH277167   5.576   6.689   3.664 -0.3773 -0.3740 -0.0373
18559TIP3    H177168   5.637   6.616   3.650  0.2570 -0.3194  2.1740
18559TIP3    H277169   5.539   6.673   3.751  0.0839  2.1418  0.6935
18560TIP3   OH277170   4.830   4.623  11.300  0.0773 -0.2976  0.0795
18560TIP3    H177171   4.772   4.659  11.368 -0.5637  0.1276 -0.6790
18560TIP3    H277172   4.910   4.674  11.309  0.6137 -1.3205  1.5600
18561TIP3   OH277173   1.971   3.865  16.325 -0.1548 -0.0127  0.3584
18561TIP3    H177174   1.909   3.890  16.256 -0.0079 -0.1377  0.1780
18561TIP3    H277175   2.010   3.947  16.353  0.6376 -0.0627 -0.5296
18562TIP3   OH277176   2.043   1.408   0.853  0.2048  0.3390 -0.1939
18562TIP3    H177177   2.105   1.335   0.849 -0.7024 -0.4124 -1.9337
18562TIP3    H277178   2.079   1.473   0.792 -0.6481 -0.0773 -1.1673
18563TIP3   OH277179   5.836   0.088  16.841  0.0979 -0.0379 -0.4157
18563TIP3    H177180   5.822   0.183  16.843 -1.1691 -0.2095  0.3262
18563TIP3    H277181   5.909   0.073  16.901  1.1175  0.5530 -1.4554
18564TIP3   OH277182   4.878   6.266   2.914  0.1576 -0.1849 -0.2212
18564TIP3    H177183   4.797   6.262   2.862  0.6398 -0.0609 -1.0072
18564TIP3    H277184   4.891   6.359   2.932 -0.6510 -0.3186  1.1915
18565TIP3   OH277185   5.369   2.781   0.225  0.6961 -0.5034  0.3683
18565TIP3    H177186   5.309   2.706   0.225 -1.5488  1.0529 -2.7568
18565TIP3    H277187   5.325   2.847   0.280  1.2519 -0.4938  0.8091
18566TIP3   OH277188   4.162   6.341  13.655 -0.2704 -0.8572  0.0131
18566TIP3    H177189   4.244   6.384  13.679 -0.4386  0.3154 -1.4199
18566TIP3    H277190   4.094   6.402  13.683 -0.6587 -1.6396  0.8165
18567TIP3   OH277191   4.818   1.838   1.942  0.2733  0.1754  0.0945
18567TIP3    H177192   4.876   1.813   2.013  0.7589  2.5160  0.5942
18567TIP3    H277193   4.739   1.869   1.985 -1.7072 -3.4123 -0.5802
18568TIP3   OH277194   2.238   1.661   2.187  0.3857 -0.1211  0.3293
18568TIP3    H177195   2.259   1.587   2.244 -0.3165 -0.5611  0.0404
18568TIP3    H277196   2.175   1.713   2.237  1.4531  0.7075  0.8381
18569TIP3   OH277197   4.440   3.457   1.476  0.1737  0.0668  0.4370
18569TIP3    H177198   4.382   3.517   1.430  1.9188  0.6389 -1.1556
18569TIP3    H277199   4.389   3.376   1.485 -0.7422  0.4192 -1.2316
18570TIP3   OH277200   0.017   5.885   3.571  0.4674 -0.6629 -0.7361
18570TIP3    H177201  -0.000   5.979   3.573 -1.2583 -0.8950 -2.3791
18570TIP3    H277202   0.111   5.878   3.553  0.8531  0.6980  0.4960
18571TIP3   OH277203   6.351   0.771  13.424  0.3363  0.0412  0.0064
18571TIP3    H177204   6.371   0.800  13.335  0.9415 -0.0526  0.1036
18571TIP3    H277205   6.401   0.689  13.433 -1.1725 -0.9371 -0.1989
18572TIP3   OH277206   0.701   1.874  14.023 -0.3592 -0.0099 -0.2083
18572TIP3    H177207   0.656   1.805  14.072  0.4516 -1.6465 -1.6337
18572TIP3    H277208   0.714   1.836  13.936  1.4301  1.3994 -0.6091
18573TIP3   OH277209   3.309   5.250   4.866 -0.1606 -0.0711 -0.1931
18573TIP3    H177210   3.234   5.194   4.883  0.1832 -0.6767 -0.6328
18573TIP3    H277211   3.385   5.191   4.869  0.6386  0.8951  2.7974
18574TIP3   OH277212   3.733   6.228   0.610 -0.1393 -0.3474 -0.4044
18574TIP3    H177213   3.764   6.185   0.690 -0.3766  0.7813  0.3173
18574TIP3    H277214   3.638   6.215   0.611 -0.6918  2.6488  1.4465
18575TIP3   OH277215   4.157   1.485   5.436  0.1142  0.5233 -0.1708
18575TIP3    H177216   4.080   1.447   5.392 -0.5243  1.6237 -0.0458
18575TIP3    H277217   4.177   1.563   5.385 -2.2185  3.3330  2.7779
18576TIP3   OH277218   2.820   2.179   1.144 -0.1693 -0.0328  0.1343
18576TIP3    H177219   2.883   2.176   1.072  0.1532 -0.3256  0.4237
18576TIP3    H277220   2.791   2.089   1.155 -1.1477  0.2043 -0.4329
18577TIP3   OH277221   4.207   0.687  10.775 -0.3486  0.3294  0.2673
18577TIP3    H177222   4.134   0.652  10.825 -0.4261  1.7628  1.2019
18577TIP3    H277223   4.172   0.766  10.733  0.8053  1.4446  1.3045
18578TIP3   OH277224   5.437   2.883  14.874 -0.8342  0.4063 -0.6253
18578TIP3    H177225   5.523   2.876  14.915 -0.4947  0.3074 -1.3263
18578TIP3    H277226   5.385   2.935  14.935 -0.7593 -0.8287  0.5421
18579TIP3   OH277227   4.794   2.171  10.779  0.1326  0.2331 -0.2802
18579TIP3    H177228   4.785   2.168  10.874  0.4968  0.2384 -0.2427
18579TIP3    H277229   4.768   2.084  10.750  1.2249 -0.1939 -0.0571
18580TIP3   OH277230   3.519   0.348  16.218 -0.1953  0.1430  0.0708
18580TIP3    H177231   3.611   0.353  16.246 -0.5140 -0.5274  1.3200
18580TIP3    H277232   3.507   0.423  16.160  0.8034  0.9957  0.9393
18581TIP3   OH277233   1.404   2.066   5.523 -0.3935 -0.5743  0.2371
18581TIP3    H177234   1.369   2.105   5.603 -0.2940  0.5224 -0.2302
18581TIP3    H277235   1.475   2.009   5.552  0.1877  0.4481  0.8738
18582TIP3   OH277236   2.089   1.268   1.519 -0.1849 -0.1357  0.4322
18582TIP3    H177237   2.178   1.242   1.544 -0.8807 -4.1902 -0.6054
18582TIP3    H277238   2.033   1.223   1.582 -1.5566  0.1280 -0.5588
18583TIP3   OH277239   0.634   6.254   1.941  0.0389  0.4027 -0.5023
18583TIP3    H177240   0.638   6.159   1.951  0.7901  0.6573  3.1154
18583TIP3    H277241   0.596   6.268   1.855 -2.3528 -3.1669 -0.2129
18584TIP3   OH277242   3.522   4.137   3.999 -1.0144 -0.4849  0.2006
18584TIP3    H177243   3.555   4.068   3.942 -0.0572 -0.8070  1.1303
18584TIP3    H277244   3.584   4.209   3.987  0.0275 -1.0496  1.8590
18585TIP3   OH277245   5.164   1.369   3.019 -0.1520 -0.1349 -0.0745
18585TIP3    H177246   5.230   1.310   2.982 -0.6035  0.4940 -2.0183
18585TIP3    H277247   5.105   1.311   3.067  0.6538 -0.9651 -0.0472
18586TIP3   OH277248   2.920   4.066  12.968  0.9530  0.6263  0.0422
18586TIP3    H177249   2.893   4.076  13.059  3.0071 -0.8800  0.8938
18586TIP3    H277250   2.992   4.127  12.957 -0.2159  1.8965 -1.0941
18587TIP3   OH277251   0.237   3.114  12.648 -0.2229  0.1447 -0.5877
18587TIP3    H177252   0.273   3.176  12.586 -0.8665  0.0177 -1.0957
18587TIP3    H277253   0.312   3.086  12.700  0.0289  1.5702 -0.1430
18588TIP3   OH277254   4.742   6.765  14.864  0.0681  0.7157  0.0667
18588TIP3    H177255   4.656   6.740  14.897  0.2899 -0.0324  0.1006
18588TIP3    H277256   4.739   6.745  14.771  0.9648 -1.5965  0.4544
18589TIP3   OH277257   2.715   0.209   5.725  0.1759  0.3424 -0.2686
18589TIP3    H177258   2.640   0.260   5.694  0.6410  1.2999  0.1450
18589TIP3    H277259   2.770   0.273   5.771  1.0091 -0.4420 -0.1542
18590TIP3   OH277260   1.107   3.242   0.913 -0.4779 -0.3462 -0.9065
18590TIP3    H177261   1.030   3.295   0.891 -0.6592 -0.1689  0.0943
18590TIP3    H277262   1.177   3.306   0.928 -0.4713 -0.4332 -0.5562
18591TIP3   OH277263   1.010   1.741  11.010  0.5171  0.0696  0.3745
18591TIP3    H177264   1.032   1.754  10.918 -0.4161 -2.3304 -0.2435
18591TIP3    H277265   0.927   1.787  11.022  0.6120  0.3395  0.0129
18592TIP3   OH277266   5.047   0.918   6.076 -0.2391 -0.0098  0.5628
18592TIP3    H177267   5.025   0.994   6.130 -0.9283 -0.2967  0.6976
18592TIP3    H277268   5.123   0.946   6.025  0.6140  0.1657  1.8857
18593TIP3   OH277269   6.328   2.952  12.952  0.4499  0.3295 -0.6067
18593TIP3    H177270   6.389   2.951  12.878  1.8121  1.6942  0.4219
18593TIP3    H277271   6.351   3.031  13.000 -0.5503 -0.3929  1.1480
18594TIP3   OH277272   4.005   0.293   2.558 -0.2047 -0.4044 -0.3197
18594TIP3    H177273   3.949   0.259   2.627 -0.7823 -0.4929 -0.8192
18594TIP3    H277274   4.017   0.385   2.581 -1.1581 -0.2019 -0.5829
18595TIP3   OH277275   1.490   6.573  13.560  0.0245 -0.1832  0.3947
18595TIP3    H177276   1.408   6.545  13.518 -0.0052  0.5331 -0.0376
18595TIP3    H277277   1.555   6.571  13.490  0.1146  0.4095  0.4598
18596TIP3   OH277278   2.652   1.453  11.985  0.2388  0.0121 -0.4206
18596TIP3    H177279   2.558   1.440  11.988  0.3518 -0.8307 -0.3477
18596TIP3    H277280   2.666   1.539  12.025 -0.3955 -0.3477  0.5955
18597TIP3   OH277281   6.613   0.702   2.406 -0.1479  0.1678 -0.0029
18597TIP3    H177282   6.681   0.679   2.342  1.4170  2.1767  0.8109
18597TIP3    H277283   6.555   0.762   2.358  0.3634  0.7661  0.1152
18598TIP3   OH277284   5.851   4.805   4.477 -0.1834  0.3089  0.5177
18598TIP3    H177285   5.884   4.739   4.538 -0.1492  0.4793  0.6833
18598TIP3    H277286   5.817   4.875   4.533  1.0948  1.0933  0.3517
18599TIP3   OH277287   5.251   2.401  14.442  0.3390 -0.1648 -0.1427
18599TIP3    H177288   5.252   2.496  14.456 -0.2413 -0.1024 -0.4834
18599TIP3    H277289   5.342   2.374  14.455  0.3111  0.2757  1.0817
18600TIP3   OH277290   1.537   6.688   2.473  0.9255  0.0794 -0.3991
18600TIP3    H177291   1.617   6.687   2.419  1.0550  1.6333 -0.2819
18600TIP3    H277292   1.568   6.704   2.562  0.5372 -0.1161 -0.2266
18601TIP3   OH277293   5.682   5.753   4.547  0.9770 -0.2986  0.5686
18601TIP3    H177294   5.674   5.764   4.453 -1.8274  0.2210  0.7769
18601TIP3    H277295   5.667   5.840   4.583  0.4549 -0.7613  1.5259
18602TIP3   OH277296   6.327   0.144   1.345 -0.1038 -0.2631  0.4986
18602TIP3    H177297   6.400   0.107   1.395  0.8968 -0.5304 -1.0642
18602TIP3    H277298   6.278   0.196   1.408  2.2325  1.0678  1.3477
18603TIP3   OH277299   5.355   3.542  16.734  0.6181  0.2398 -0.0880
18603TIP3    H177300   5.299   3.590  16.795  0.3961  0.7835 -0.7052
18603TIP3    H277301   5.436   3.592  16.731  0.7749 -0.0026  0.0551
18604TIP3   OH277302   6.571   0.792  16.853  0.3855 -0.0624  0.4418
18604TIP3    H177303   6.632   0.728  16.890  0.3974  0.6813  1.7585
18604TIP3    H277304   6.531   0.834  16.929 -1.4676 -0.2244 -0.3991
18605TIP3   OH277305   2.749   6.000  14.289 -0.2936 -0.3345 -0.4758
18605TIP3    H177306   2.787   6.023  14.204  1.5433  0.0162  0.3822
18605TIP3    H277307   2.742   5.904  14.287 -0.0027 -0.3482 -0.9359
18606TIP3   OH277308   0.985   6.109  14.339 -0.4178 -0.4213 -0.1986
18606TIP3    H177309   1.081   6.115  14.338 -0.3356 -0.7214  1.7778
18606TIP3    H277310   0.957   6.162  14.265  1.3062 -1.1882 -1.4560
18607TIP3   OH277311   3.077   1.803  11.741  0.4120  0.7479  0.2272
18607TIP3    H177312   3.042   1.721  11.777  2.3817  0.0045  0.6136
18607TIP3    H277313   3.089   1.785  11.648 -2.0456  1.7189 -0.3610
18608TIP3   OH277314   0.788   2.111  15.069  0.1138 -0.1249  0.2905
18608TIP3    H177315   0.872   2.068  15.052  0.1303 -0.2905  0.7766
18608TIP3    H277316   0.724   2.054  15.027 -0.2146 -2.4098  3.5208
18609TIP3   OH277317   5.539   1.093  14.010  0.7074 -0.3998 -0.1584
18609TIP3    H177318   5.481   1.149  13.958 -0.6570 -1.5935  0.0117
18609TIP3    H277319   5.565   1.148  14.085 -1.2025 -0.2026  0.4091
18610TIP3   OH277320   1.820   2.310  11.546 -0.1063 -0.7886 -0.2013
18610TIP3    H177321   1.754   2.358  11.597  1.6432  0.0971  1.3643
18610TIP3    H277322   1.784   2.307  11.458 -2.4418 -0.7451  0.6584
18611TIP3   OH277323   2.710   5.995  14.743 -0.7288 -0.1243 -0.1560
18611TIP3    H177324   2.796   6.021  14.709 -1.1040 -1.7233 -2.6086
18611TIP3    H277325   2.674   5.939  14.674 -2.9218 -1.0961  1.6769
18612TIP3   OH277326   5.883   3.516  13.524 -0.2108 -0.0825 -0.2055
18612TIP3    H177327   5.802   3.472  13.498 -0.7443  0.0185  1.2185
18612TIP3    H277328   5.860   3.564  13.603  0.9129  1.0475 -0.5404
18613TIP3   OH277329   2.109   6.192  12.469 -0.3227 -0.2222 -0.1600
18613TIP3    H177330   2.025   6.155  12.496 -0.8023  0.7548 -0.2597
18613TIP3    H277331   2.173   6.123  12.486 -0.9589 -0.5157  1.1360
18614TIP3   OH277332   4.735   0.695   5.942  0.4117  1.0629  0.0009
18614TIP3    H177333   4.673   0.649   5.999  2.2816 -0.9042  0.6221
18614TIP3    H277334   4.695   0.780   5.926 -1.4841  0.6447  2.0015
18615TIP3   OH277335   1.483   2.645   0.714 -0.0101 -0.2781 -0.5916
18615TIP3    H177336   1.534   2.569   0.687  0.3319 -0.2943  0.0814
18615TIP3    H277337   1.489   2.705   0.640  0.3429 -0.6005 -0.8277
18616TIP3   OH277338   0.245   5.470  15.248  0.0620  0.1914  0.0780
18616TIP3    H177339   0.272   5.396  15.302 -1.0810  1.0503  1.9412
18616TIP3    H277340   0.324   5.523  15.240  1.0374 -1.4243 -1.7428
18617TIP3   OH277341   3.356   0.825   5.348  0.1542  0.0607  0.4462
18617TIP3    H177342   3.414   0.888   5.393 -1.6915  2.0590  0.1877
18617TIP3    H277343   3.297   0.880   5.297  0.1986 -2.0509 -2.0372
18618TIP3   OH277344   2.378   3.981  13.633 -0.4347 -0.1181 -0.0390
18618TIP3    H177345   2.430   4.020  13.563  0.5325  0.4832  0.9908
18618TIP3    H277346   2.358   4.053  13.692 -1.1504 -0.6377  0.3718
18619TIP3   OH277347   6.771   0.628   6.519  0.2149  0.4345 -0.1964
18619TIP3    H177348   6.693   0.641   6.573  0.3369 -0.3573  0.1831
18619TIP3    H277349   6.746   0.559   6.457  0.3635  0.7197 -0.5773
18620TIP3   OH277350   1.627   2.391   1.688  0.2675 -0.3550 -0.5287
18620TIP3    H177351   1.717   2.415   1.666  0.7406 -0.0202  1.5557
18620TIP3    H277352   1.603   2.325   1.622  2.6839 -1.7505 -0.1401
18621TIP3   OH277353   6.584   1.796  13.738 -0.1002 -1.0390  0.1887
18621TIP3    H177354   6.602   1.789  13.832  2.7577 -1.5520 -0.3274
18621TIP3    H277355   6.565   1.706  13.711 -0.2758 -0.9867  0.1330
18622TIP3   OH277356   1.872   0.521   0.067  0.1593  0.3635 -0.1330
18622TIP3    H177357   1.843   0.495   0.155  1.2547  0.3979  0.2498
18622TIP3    H277358   1.857   0.615   0.063 -0.9159  0.1969 -0.3969
18623TIP3   OH277359   5.317   6.482   1.167 -0.0729  0.3665 -0.5939
18623TIP3    H177360   5.347   6.535   1.240 -1.3464 -0.8179  0.8632
18623TIP3    H277361   5.234   6.445   1.197  0.4711 -1.9657 -1.7459
18624TIP3   OH277362   4.606   6.222   2.813 -0.2543  0.1297 -0.0629
18624TIP3    H177363   4.602   6.165   2.890  3.0696 -0.6352 -0.3355
18624TIP3    H277364   4.570   6.169   2.742  0.8251 -0.8634  0.1087
18625TIP3   OH277365   5.916   4.544  12.062 -0.1929 -0.7031  0.4124
18625TIP3    H177366   5.889   4.620  12.011 -1.0251 -1.1584  0.1555
18625TIP3    H277367   5.839   4.521  12.114 -0.4486 -2.2612 -0.6148
18626TIP3   OH277368   5.534   4.596   3.045 -0.1412  0.0110 -0.1598
18626TIP3    H177369   5.570   4.516   3.084 -1.9352  0.5694  2.9036
18626TIP3    H277370   5.599   4.663   3.066 -0.4902  0.0577  0.8485
18627TIP3   OH277371   1.358   6.136   4.001  0.3462  0.2523 -0.1488
18627TIP3    H177372   1.447   6.133   4.037  0.7550 -0.6677 -1.1708
18627TIP3    H277373   1.307   6.078   4.058  0.6619 -0.0868 -0.2051
18628TIP3   OH277374   2.105   5.367   2.315  0.0168  0.0258  0.0246
18628TIP3    H177375   2.156   5.443   2.340  1.5130 -0.8491 -0.2455
18628TIP3    H277376   2.160   5.292   2.337 -0.3159 -0.9080 -1.9978
18629TIP3   OH277377   6.708   2.224  13.010  0.0891  0.3122 -0.2173
18629TIP3    H177378   6.747   2.191  12.929  2.1679 -3.6401  2.1177
18629TIP3    H277379   6.782   2.263  13.057  0.2879 -2.4818  2.0090
18630TIP3   OH277380   2.478   4.985  11.587 -0.2117 -0.6178 -0.2678
18630TIP3    H177381   2.404   4.971  11.646 -0.0969  2.0538  0.6511
18630TIP3    H277382   2.555   4.959  11.638 -0.1718  1.0724  0.6143
18631TIP3   OH277383   5.763   0.776  12.497 -0.8284 -0.0409  0.2643
18631TIP3    H177384   5.755   0.868  12.473 -1.1375 -0.0438  0.3526
18631TIP3    H277385   5.798   0.733  12.419 -1.2085  0.0600  0.0356
18632TIP3   OH277386   0.730   3.412  17.052  0.3554  0.4435 -0.0467
18632TIP3    H177387   0.819   3.448  17.043  0.3880  0.5149  0.4952
18632TIP3    H277388   0.711   3.372  16.967  1.0428  0.1331 -0.0618
18633TIP3   OH277389   2.677   2.195  11.902  0.4657  0.4759  0.4609
18633TIP3    H177390   2.666   2.202  11.808  1.9837  2.0588  0.3452
18633TIP3    H277391   2.751   2.135  11.913 -1.3867 -1.8660  0.8026
18634TIP3   OH277392   3.190   6.132  10.825  0.1308 -0.4221  0.6409
18634TIP3    H177393   3.199   6.044  10.791 -1.4596 -0.6567  0.7429
18634TIP3    H277394   3.121   6.172  10.772  1.8068  1.2978 -0.3835
18635TIP3   OH277395   0.678   0.496  13.793  0.0144 -0.5675 -0.4875
18635TIP3    H177396   0.675   0.591  13.807  1.5864 -0.5924  0.1429
18635TIP3    H277397   0.675   0.459  13.881  1.0464 -1.0390 -0.6439
18636TIP3   OH277398   1.870   4.544  14.188  0.0277 -0.0931  0.0708
18636TIP3    H177399   1.790   4.492  14.200 -0.7294  1.1919  0.7640
18636TIP3    H277400   1.928   4.486  14.139 -1.6576 -0.7439 -1.2992
18637TIP3   OH277401   6.532   1.780   2.940 -0.1104 -0.0700 -0.1088
18637TIP3    H177402   6.454   1.825   2.906 -0.2159 -0.0042  0.2143
18637TIP3    H277403   6.559   1.722   2.869 -0.1164  0.3284 -0.4410
18638TIP3   OH277404   3.846   3.881   0.041  0.3992 -0.2536 -0.1942
18638TIP3    H177405   3.766   3.915   0.001  0.5538  0.9565  0.4744
18638TIP3    H277406   3.902   3.958   0.051  1.3229 -0.9474  0.1163
18639TIP3   OH277407   0.390   5.448   5.737 -0.2241 -0.0601 -0.0106
18639TIP3    H177408   0.396   5.446   5.833 -1.7255  0.6083  0.1337
18639TIP3    H277409   0.384   5.356   5.712  0.8408 -0.2761  0.4696
18640TIP3   OH277410   5.576   4.868  12.536  0.2633 -0.6294 -0.1626
18640TIP3    H177411   5.583   4.780  12.499  1.9243  0.4459 -2.6630
18640TIP3    H277412   5.487   4.895  12.516  0.5221 -0.8282 -1.7295
18641TIP3   OH277413   5.221   0.572  11.222  0.0448 -0.2134  0.1797
18641TIP3    H177414   5.297   0.522  11.194  1.2399  1.3188  0.5527
18641TIP3    H277415   5.256   0.657  11.249 -1.7086  0.2893  1.0639
18642TIP3   OH277416   5.422   4.861  17.315  0.1586  0.7350  0.1220
18642TIP3    H177417   5.412   4.905  17.399 -1.9967  1.1591 -0.2970
18642TIP3    H277418   5.491   4.797  17.329 -0.2730  0.6739  2.2751
18643TIP3   OH277419   4.919   5.104  16.539 -0.1854  0.1605  0.4161
18643TIP3    H177420   4.837   5.064  16.511 -0.8426  1.1082  0.9746
18643TIP3    H277421   4.932   5.177  16.479  1.1510 -0.9783 -0.7703
18644TIP3   OH277422   5.376   4.264   5.624  0.0709  0.5758 -0.8600
18644TIP3    H177423   5.410   4.229   5.706  3.1312  1.6536 -1.5641
18644TIP3    H277424   5.407   4.202   5.557 -1.0354  0.5617 -1.3827
18645TIP3   OH277425   6.564   6.215  13.619  0.2716  0.0190 -0.1083
18645TIP3    H177426   6.489   6.271  13.599 -1.1003 -1.1683  1.4681
18645TIP3    H277427   6.628   6.274  13.659 -0.5878  0.7158  0.2693
18646TIP3   OH277428   5.738   5.105   2.134 -0.0307 -0.1880 -0.1456
18646TIP3    H177429   5.806   5.102   2.201 -1.2213 -1.1162  1.0856
18646TIP3    H277430   5.656   5.118   2.184 -0.8132  0.4323 -1.5318
18647TIP3   OH277431   6.268   0.463  10.690  0.2419  0.0408 -0.2473
18647TIP3    H177432   6.340   0.405  10.716 -0.1064 -0.3875 -0.2091
18647TIP3    H277433   6.194   0.433  10.743 -0.2372 -0.2316 -1.0485
18648TIP3   OH277434   4.917   3.228   7.153 -0.0440 -0.3794 -0.3242
18648TIP3    H177435   4.962   3.312   7.157 -1.0235  0.3101 -2.3750
18648TIP3    H277436   4.856   3.237   7.080  0.0629 -2.9842 -0.8408
18649TIP3   OH277437   3.504   1.211  11.612 -0.6255  0.8583  0.1218
18649TIP3    H177438   3.497   1.242  11.521 -0.0499  0.8984  0.0857
18649TIP3    H277439   3.589   1.168  11.616 -1.0815 -0.0286  0.3864
18650TIP3   OH277440   3.127   0.499  11.105  0.1834 -0.2100  0.5166
18650TIP3    H177441   3.100   0.580  11.062  0.9994  0.1030  0.5876
18650TIP3    H277442   3.062   0.486  11.174 -1.6881 -1.1870 -1.2911
18651TIP3   OH277443   1.754   0.089   0.322 -0.4414  0.0335 -0.7881
18651TIP3    H177444   1.807   0.127   0.251  0.9148  0.7869  0.5778
18651TIP3    H277445   1.762  -0.006   0.310  0.0297  0.1487 -1.4415
18652TIP3   OH277446   0.880   5.768   4.940  0.8062  0.2711  0.4725
18652TIP3    H177447   0.929   5.716   5.004  1.2205  0.2851  0.1734
18652TIP3    H277448   0.809   5.808   4.991  1.2819  0.4912  0.9746
18653TIP3   OH277449   6.611   6.638  16.576  0.4186  0.1095 -0.4489
18653TIP3    H177450   6.652   6.700  16.517 -1.5039  1.8211 -0.1009
18653TIP3    H277451   6.597   6.560  16.523  0.8280  0.7766 -1.5818
18654TIP3   OH277452   0.318   6.409  12.393 -0.2066  0.2982 -0.0525
18654TIP3    H177453   0.414   6.414  12.393 -0.1296 -0.8828  0.4558
18654TIP3    H277454   0.290   6.490  12.351  1.0108  0.7800  0.0189
18655TIP3   OH277455   5.101   2.738  14.744 -0.1497  0.1743 -0.1192
18655TIP3    H177456   5.066   2.816  14.703 -0.7506 -0.6594 -1.2504
18655TIP3    H277457   5.076   2.746  14.837  0.0789  1.4497 -0.1615
18656TIP3   OH277458   5.963   4.606   2.332 -0.6253 -0.1535 -0.4696
18656TIP3    H177459   5.977   4.607   2.427  1.8483 -1.3207 -0.7392
18656TIP3    H277460   5.878   4.562   2.321 -1.4163  0.8352  1.1938
18657TIP3   OH277461   3.091   3.595  12.022  0.2015  0.3063  0.2645
18657TIP3    H177462   3.075   3.573  12.114 -1.1494 -0.0050 -0.0365
18657TIP3    H277463   3.106   3.511  11.979 -2.0026  0.1691 -0.3211
18658TIP3   OH277464   0.439   0.567   4.851 -0.1392 -0.1467  0.1128
18658TIP3    H177465   0.406   0.632   4.913  1.4034  3.0012 -2.0838
18658TIP3    H277466   0.368   0.557   4.787  0.2753  0.7984 -0.5108
18659TIP3   OH277467   3.829   0.276  14.653  0.5159 -0.4526  0.5221
18659TIP3    H177468   3.917   0.252  14.627  2.3397  3.9051  1.7682
18659TIP3    H277469   3.776   0.266  14.574  3.1886  1.0131 -1.6157
18660TIP3   OH277470   4.325   3.494   1.202  0.4538  0.7347  0.5669
18660TIP3    H177471   4.315   3.585   1.228 -0.0127  0.9640 -0.3561
18660TIP3    H277472   4.280   3.488   1.117  0.4207 -0.3655  0.6443
18661TIP3   OH277473   3.488   1.151  13.829  0.0483  0.8206  0.0929
18661TIP3    H177474   3.397   1.180  13.821  0.1931  1.1184 -0.5626
18661TIP3    H277475   3.533   1.190  13.754  0.4323 -0.4123 -0.3560
18662TIP3   OH277476   0.991   3.736   1.299  0.5198 -0.0311 -0.4860
18662TIP3    H177477   0.974   3.714   1.207 -0.3364  0.0492 -0.3544
18662TIP3    H277478   0.933   3.809   1.317  0.5078 -0.2047  0.1899
18663TIP3   OH277479   0.079   2.245   3.850 -0.3934  0.2141  0.0315
18663TIP3    H177480   0.162   2.209   3.880 -0.3106 -1.7486 -2.2275
18663TIP3    H277481   0.079   2.231   3.755 -2.2458  2.4650 -0.4231
18664TIP3   OH277482   5.233   4.263  11.414  1.0838  0.0500  0.2095
18664TIP3    H177483   5.143   4.241  11.392  0.4265  0.9023  1.8917
18664TIP3    H277484   5.251   4.216  11.495  2.3490 -0.5367 -0.3880
18665TIP3   OH277485   4.813   0.456  15.627 -0.1582 -0.0908 -0.1669
18665TIP3    H177486   4.905   0.481  15.640  0.3765  0.6394 -4.0599
18665TIP3    H277487   4.764   0.537  15.645  0.2584  0.2685 -0.6149
18666TIP3   OH277488   3.384   2.205   3.133  0.3605  0.0851  0.1929
18666TIP3    H177489   3.443   2.180   3.204  0.8075  1.1091  0.2018
18666TIP3    H277490   3.387   2.132   3.072  0.1238 -0.7240  1.1254
18667TIP3   OH277491   6.698   4.405  16.726 -0.1141  0.4906 -0.4861
18667TIP3    H177492   6.781   4.426  16.684 -0.2775 -0.7448 -1.4980
18667TIP3    H277493   6.651   4.351  16.662 -1.6201  0.9833  0.1370
18668TIP3   OH277494   0.552   3.244   2.765 -0.1610 -0.0939 -0.3302
18668TIP3    H177495   0.533   3.265   2.857  0.3457 -2.2067  0.3373
18668TIP3    H277496   0.466   3.226   2.727 -0.2415 -1.7827  0.5091
18669TIP3   OH277497   5.128   3.063   4.605 -0.0607 -0.4824  1.1954
18669TIP3    H177498   5.091   2.981   4.636  0.3768 -0.2006  2.5048
18669TIP3    H277499   5.158   3.044   4.516  0.2104 -1.7842  1.5541
18670TIP3   OH277500   4.065   3.907  15.101  0.3540 -0.1819 -0.6031
18670TIP3    H177501   4.083   4.000  15.090 -0.3109 -0.1688 -1.7402
18670TIP3    H277502   4.031   3.878  15.016 -1.0886 -1.0645  0.2239
18671TIP3   OH277503   0.304   6.522   3.790 -0.9442 -0.4331  0.3070
18671TIP3    H177504   0.256   6.517   3.707 -0.8346 -3.6102  0.3038
18671TIP3    H277505   0.386   6.476   3.774  0.2863  1.2105  1.5094
18672TIP3   OH277506   4.342   1.149   1.374  0.0354  0.3614 -0.0895
18672TIP3    H177507   4.278   1.159   1.445  0.2581 -0.7119  0.2800
18672TIP3    H277508   4.425   1.135   1.420  0.6919  2.3601 -0.5479
18673TIP3   OH277509   5.428   1.174  12.387 -0.4021 -0.6253  0.3800
18673TIP3    H177510   5.379   1.105  12.432  0.9326 -0.7224  1.7629
18673TIP3    H277511   5.422   1.250  12.445 -1.0356  0.1551 -0.6662
18674TIP3   OH277512   2.081   3.610  15.325  0.0355  0.1223  0.1879
18674TIP3    H177513   2.065   3.672  15.254  0.5541 -1.1046 -1.0265
18674TIP3    H277514   2.033   3.647  15.399  1.3126  2.6206 -0.1149
18675TIP3   OH277515   3.877   6.012   1.537  0.8661 -0.2480  0.1062
18675TIP3    H177516   3.948   6.051   1.589  0.4733  0.3974  0.1745
18675TIP3    H277517   3.831   6.088   1.500  1.9481 -0.6914 -2.3009
18676TIP3   OH277518   3.898   0.242   1.292  0.4692  0.2715  0.3073
18676TIP3    H177519   3.898   0.244   1.196  1.8085 -0.9296  0.2490
18676TIP3    H277520   3.828   0.181   1.315  1.0502 -0.5185  0.0281
18677TIP3   OH277521   5.001   6.351   4.137  0.6386 -0.4212 -0.0562
18677TIP3    H177522   4.988   6.261   4.166  1.2140 -0.3333  0.5056
18677TIP3    H277523   5.061   6.388   4.202  0.0109  0.5134  0.0169
18678TIP3   OH277524   1.313   4.894  15.685 -0.0181 -0.0559 -0.8557
18678TIP3    H177525   1.408   4.887  15.693 -0.1420 -0.4911  0.5599
18678TIP3    H277526   1.299   4.946  15.606  1.3737 -0.5583 -1.4633
18679TIP3   OH277527   2.665   6.609  13.851 -0.1718  0.7431  0.0572
18679TIP3    H177528   2.711   6.647  13.777  1.0126 -0.1250  0.3057
18679TIP3    H277529   2.602   6.548  13.813 -0.3610  1.1411 -0.2635
18680TIP3   OH277530   4.193   2.476   0.476  0.7331  0.2039 -0.1909
18680TIP3    H177531   4.245   2.511   0.548  0.4387 -0.2232  0.2278
18680TIP3    H277532   4.118   2.536   0.469  2.9087  2.9512 -3.0431
18681TIP3   OH277533   5.022   1.105   4.784 -0.5197 -0.2688  0.4183
18681TIP3    H177534   4.971   1.033   4.748  0.6800 -0.8007 -0.2799
18681TIP3    H277535   5.005   1.178   4.724  2.0983 -1.3596 -1.9138
18682TIP3   OH277536   0.280   6.562  16.196  0.1866 -0.2608  0.1222
18682TIP3    H177537   0.344   6.556  16.267 -0.2306  0.8107  0.6093
18682TIP3    H277538   0.329   6.540  16.117  1.7783  2.6476  0.1563
18683TIP3   OH277539   5.894   0.165   5.880  0.1637 -0.1519 -0.4308
18683TIP3    H177540   5.913   0.092   5.821  1.7472 -0.2469  0.1526
18683TIP3    H277541   5.903   0.243   5.825 -0.0211 -0.3205 -0.7021
18684TIP3   OH277542   3.164   1.438  12.561 -0.4723 -0.1652 -0.0753
18684TIP3    H177543   3.179   1.431  12.656  0.9192  2.5934  0.0112
18684TIP3    H277544   3.240   1.396  12.522  0.7994  1.7653  0.1717
18685TIP3   OH277545   5.167   5.816  11.114  0.2758 -0.3780 -0.4389
18685TIP3    H177546   5.125   5.775  11.190  0.7773  0.6207  0.4210
18685TIP3    H277547   5.145   5.909  11.123  2.4514  0.1468 -0.0762
18686TIP3   OH277548   2.137   4.432  16.183  0.5382  0.6005  0.3674
18686TIP3    H177549   2.189   4.511  16.200 -0.8926  1.6263  0.1463
18686TIP3    H277550   2.121   4.434  16.089 -0.2204  0.5177  0.4917
18687TIP3   OH277551   2.407   2.757   3.850 -0.2775  0.5544 -0.0306
18687TIP3    H177552   2.477   2.814   3.881  1.1047 -1.7104  1.2839
18687TIP3    H277553   2.327   2.811   3.859  0.7931  1.9422  2.1180
18688TIP3   OH277554   6.131   1.574   6.338 -0.2131  0.1218 -0.1110
18688TIP3    H177555   6.093   1.662   6.348 -1.6683 -0.6411  1.8474
18688TIP3    H277556   6.204   1.573   6.400 -0.7815 -0.3200  0.5644
18689TIP3   OH277557   2.212   3.776  14.996  0.2086 -0.1292  0.1687
18689TIP3    H177558   2.190   3.869  14.983  0.7731  0.0505  0.4226
18689TIP3    H277559   2.208   3.738  14.908 -1.4082 -0.1930  0.2415
18690TIP3   OH277560   5.359   2.616  14.820 -0.6495  0.3010 -0.1198
18690TIP3    H177561   5.378   2.704  14.851 -1.0768  0.1339  0.6438
18690TIP3    H277562   5.263   2.613  14.813 -0.5642  0.3183 -1.4273
18691TIP3   OH277563   0.842   4.852   3.130 -0.3706  0.2660 -0.2946
18691TIP3    H177564   0.830   4.804   3.048  1.0873 -2.5086  0.9700
18691TIP3    H277565   0.913   4.914   3.112  0.4912 -0.8730 -0.9689
18692TIP3   OH277566   5.260   1.645   2.066  0.1953 -0.1132 -0.4622
18692TIP3    H177567   5.193   1.583   2.095 -1.0524  2.3003  2.4266
18692TIP3    H277568   5.340   1.614   2.107 -0.5300  0.3804  1.4422
18693TIP3   OH277569   4.027   0.492   1.072  0.5583  0.2322  0.0945
18693TIP3    H177570   4.029   0.482   0.976  2.2699 -1.5156  0.2478
18693TIP3    H277571   4.103   0.547   1.091 -0.3279  1.3879  0.4273
18694TIP3   OH277572   1.320   6.421  14.301  0.4395  0.0107  0.1369
18694TIP3    H177573   1.243   6.424  14.244  0.1464  0.1664  0.5324
18694TIP3    H277574   1.395   6.415  14.241  0.0878 -0.7122 -0.2344
18695TIP3   OH277575   2.179   4.662   2.180  0.0114  0.9085 -0.3637
18695TIP3    H177576   2.109   4.709   2.134 -0.0419  0.1184 -1.1116
18695TIP3    H277577   2.251   4.661   2.117  0.6886  1.6691  0.3847
18696TIP3   OH277578   6.474   5.540  14.082 -0.7061  0.3537 -0.1007
18696TIP3    H177579   6.492   5.450  14.106  0.7535  0.5514 -0.3456
18696TIP3    H277580   6.492   5.544  13.988  0.5137  1.1612  0.1307
18697TIP3   OH277581   4.948   6.122   3.181  0.3933 -0.3516 -0.2285
18697TIP3    H177582   4.875   6.087   3.231  0.5377 -0.9922 -0.4585
18697TIP3    H277583   4.912   6.199   3.137 -0.0885 -0.5451 -0.1750
18698TIP3   OH277584   5.174   5.031  11.876 -0.5610  0.0555 -0.1707
18698TIP3    H177585   5.142   4.944  11.898 -1.4976  0.2911 -0.5729
18698TIP3    H277586   5.175   5.033  11.780  1.9619 -0.4090 -0.2136
18699TIP3   OH277587   1.869   2.655   5.981 -0.0540 -0.1752  0.2260
18699TIP3    H177588   1.937   2.654   5.914 -0.4519 -1.2007 -0.1848
18699TIP3    H277589   1.909   2.612   6.057  0.4452  1.1151  0.7226
18700TIP3   OH277590   5.789   0.017  13.905  0.2932  0.4275 -1.0695
18700TIP3    H177591   5.862   0.049  13.852  1.2989  0.5368  0.3411
18700TIP3    H277592   5.813   0.039  13.995 -1.1118 -0.2545 -0.5008
18701TIP3   OH277593   0.761   2.369  14.960 -0.6886  0.1290 -0.0681
18701TIP3    H177594   0.846   2.412  14.974 -0.6089  0.1166 -0.4845
18701TIP3    H277595   0.778   2.276  14.975 -0.0700 -0.1882 -2.3508
18702TIP3   OH277596   1.269   1.710  13.346 -0.3249 -0.1789 -0.3843
18702TIP3    H177597   1.345   1.758  13.312  0.3596 -0.5543  0.5587
18702TIP3    H277598   1.201   1.776  13.355  0.3191  0.4458  0.0334
18703TIP3   OH277599   2.561   1.646   0.325 -0.2180  0.7319 -0.0841
18703TIP3    H177600   2.572   1.661   0.231  2.0248  1.9380  0.2993
18703TIP3    H277601   2.488   1.585   0.331  0.2529 -0.2260 -2.6828
18704TIP3   OH277602   3.049   4.366  13.621  0.3644  0.2708 -0.4334
18704TIP3    H177603   2.984   4.296  13.613  0.1776  0.4087 -0.1562
18704TIP3    H277604   3.087   4.374  13.534  0.0663  0.1348 -0.5778
18705TIP3   OH277605   1.614   3.108   6.663 -0.0398 -0.1173 -0.0783
18705TIP3    H177606   1.529   3.073   6.689  0.6813 -1.7287  0.2403
18705TIP3    H277607   1.636   3.171   6.731  0.5576 -2.2308  1.7713
18706TIP3   OH277608   5.932   0.705   2.257  0.2556 -0.4637 -0.8014
18706TIP3    H177609   5.868   0.758   2.304  0.1932 -2.1525  1.1893
18706TIP3    H277610   5.880   0.635   2.216  0.4022  0.5520 -2.8533
18707TIP3   OH277611   0.910   4.167  15.333 -0.5111 -0.0511 -0.5605
18707TIP3    H177612   0.839   4.103  15.344  0.2636 -0.6904  1.0506
18707TIP3    H277613   0.989   4.114  15.332  0.6124  0.8669  5.0164
18708TIP3   OH277614   3.383   2.238   6.790 -0.1664  0.4999 -0.0073
18708TIP3    H177615   3.413   2.328   6.796 -0.9862  0.7616  0.2789
18708TIP3    H277616   3.454   2.192   6.745  0.1294  1.3400 -0.4131
18709TIP3   OH277617   1.006   2.011  15.673  0.2569  0.2023  0.6564
18709TIP3    H177618   1.082   1.997  15.730 -0.2163 -1.4838  0.9098
18709TIP3    H277619   1.044   2.015  15.585  0.6903 -0.2986  0.8092
18710TIP3   OH277620   4.065   3.655   1.384  0.1905 -0.3298 -0.2746
18710TIP3    H177621   4.021   3.631   1.302  0.5032 -0.3304 -0.4437
18710TIP3    H277622   4.148   3.692   1.356  0.1394  0.0174  0.0297
18711TIP3   OH277623   3.029   2.246   2.796  0.3442 -0.3385 -0.5127
18711TIP3    H177624   3.063   2.275   2.711 -1.5752  0.1832 -1.1485
18711TIP3    H277625   3.040   2.322   2.853  1.3084 -0.5743 -0.3546
18712TIP3   OH277626   4.056   5.484   2.093  0.5793 -0.1240 -0.0979
18712TIP3    H177627   4.126   5.491   2.158  0.4135  0.5582  0.0171
18712TIP3    H277628   3.975   5.488   2.145  0.3772  2.4548 -0.4359
18713TIP3   OH277629   5.288   1.697   0.539 -0.2637  0.3924  0.3060
18713TIP3    H177630   5.282   1.657   0.453 -0.7689  0.6134  0.2340
18713TIP3    H277631   5.230   1.774   0.534 -2.1506 -0.8565  1.5219
18714TIP3   OH277632   2.837   0.100   4.414  0.0570  0.3389  0.0425
18714TIP3    H177633   2.795   0.021   4.381  0.2218  0.7516 -1.2525
18714TIP3    H277634   2.923   0.071   4.444  0.1930  0.0357 -0.6040
18715TIP3   OH277635   6.152   2.975   3.108 -0.5060  0.2820  0.5944
18715TIP3    H177636   6.195   2.890   3.100 -1.2566 -0.1913  1.3338
18715TIP3    H277637   6.213   3.037   3.069 -0.1062 -0.6455 -0.3066
18716TIP3   OH277638   2.218   4.098   1.222  0.2414 -0.2861  0.6014
18716TIP3    H177639   2.299   4.083   1.271 -0.3112 -1.6251  1.1342
18716TIP3    H277640   2.188   4.184   1.251  2.0578  0.8004 -0.4801
18717TIP3   OH277641   2.201   2.137  16.782 -0.3413 -0.6065  0.5819
18717TIP3    H177642   2.224   2.045  16.795  1.2006 -0.0963  1.6815
18717TIP3    H277643   2.121   2.149  16.833  1.0339 -0.6775  2.8913
18718TIP3   OH277644   3.066   3.859   3.023  0.1089 -0.1517 -0.0486
18718TIP3    H177645   3.005   3.929   3.045  1.5756  0.7765  1.2891
18718TIP3    H277646   3.062   3.799   3.098 -0.0421 -0.7277 -0.5099
18719TIP3   OH277647   6.036   3.293   1.488 -0.3769  0.4631 -0.4599
18719TIP3    H177648   6.056   3.346   1.411 -0.4872  0.4094 -0.5271
18719TIP3    H277649   6.102   3.224   1.489 -1.0807 -0.2401 -1.1890
18720TIP3   OH277650   1.326   0.032  16.110  0.5873  0.2528 -0.1799
18720TIP3    H177651   1.400   0.093  16.105 -0.6000  1.6785 -1.7286
18720TIP3    H277652   1.272   0.067  16.181  0.1668  0.7191 -0.7212
18721TIP3   OH277653   5.407   4.585  13.162  0.3138 -0.0909  0.6418
18721TIP3    H177654   5.430   4.676  13.141  1.0446 -0.2833  0.5933
18721TIP3    H277655   5.348   4.592  13.237  0.0549  0.4475  0.3893
18722TIP3   OH277656   1.370   4.094   5.181 -0.2053  0.1639  0.0549
18722TIP3    H177657   1.410   4.153   5.117 -0.4164  0.2407 -0.0062
18722TIP3    H277658   1.303   4.148   5.224  2.4053  1.4225  3.0653
18723TIP3   OH277659   3.882   3.664   3.404  0.0215 -0.9553 -0.0005
18723TIP3    H177660   3.789   3.643   3.417 -0.5947  0.7983 -1.1083
18723TIP3    H277661   3.917   3.591   3.354 -0.0448 -2.9177  2.5848
18724TIP3   OH277662   1.929   3.913  11.719 -0.3721 -0.7334 -0.5488
18724TIP3    H177663   2.019   3.883  11.728 -0.4444 -0.5021  1.2360
18724TIP3    H277664   1.879   3.861  11.781 -0.8331  1.6025  1.1894
18725TIP3   OH277665   5.815   1.866   5.060 -0.9747  0.3161 -0.5736
18725TIP3    H177666   5.838   1.881   5.151 -1.4537 -0.9140 -0.2380
18725TIP3    H277667   5.722   1.888   5.054 -0.4151  2.7846 -1.3516
18726TIP3   OH277668   3.915   5.632  11.903 -0.2812  0.0572 -0.4119
18726TIP3    H177669   3.929   5.666  11.992  2.4555 -0.4765 -0.5493
18726TIP3    H277670   3.831   5.588  11.908 -0.4581  0.4781  1.7769
18727TIP3   OH277671   5.799   6.445   3.997  0.1006  0.6301 -0.1407
18727TIP3    H177672   5.772   6.428   4.087  0.0221  0.3978 -0.2072
18727TIP3    H277673   5.890   6.473   4.004 -0.4670  2.4729  0.1820
18728TIP3   OH277674   0.040   0.159   0.989 -0.2811 -0.3937  0.0994
18728TIP3    H177675  -0.041   0.209   0.979 -1.1635 -1.9264 -0.9318
18728TIP3    H277676   0.108   0.216   0.953 -1.3665 -0.2015 -1.7968
18729TIP3   OH277677   5.284   5.554   0.296  0.5014  0.6564  0.0203
18729TIP3    H177678   5.250   5.495   0.364 -0.7756 -0.2517 -1.3384
18729TIP3    H277679   5.345   5.611   0.342 -0.9035  0.5936  2.0785
18730TIP3   OH277680   2.569   6.342  14.578 -0.6003  0.0824  0.0428
18730TIP3    H177681   2.580   6.273  14.513  1.4805  0.9279 -0.5940
18730TIP3    H277682   2.587   6.423  14.530 -1.9136  0.9913  1.0235
18731TIP3   OH277683   4.262   2.682   6.820 -0.0077 -0.2537  0.7239
18731TIP3    H177684   4.248   2.664   6.727 -0.5398 -1.5883  1.0531
18731TIP3    H277685   4.352   2.717   6.823  0.0970 -0.3962 -0.2517
18732TIP3   OH277686   5.893   4.591   1.597 -0.4350  0.1959  0.0719
18732TIP3    H177687   5.914   4.667   1.543 -0.3692  0.5753  0.6348
18732TIP3    H277688   5.962   4.527   1.575 -0.4916  0.2887 -0.3959
18733TIP3   OH277689   6.532   3.536  13.423 -0.2553 -0.1986  0.2834
18733TIP3    H177690   6.612   3.583  13.399 -0.2033 -1.0832 -1.4377
18733TIP3    H277691   6.481   3.600  13.473  0.6177  1.0700 -0.3928
18734TIP3   OH277692   6.030   5.181  13.460 -0.4646  0.0238  0.5073
18734TIP3    H177693   5.985   5.098  13.476  0.2284 -0.0710  2.2874
18734TIP3    H277694   6.061   5.175  13.370 -0.4952 -1.6237  0.5762
18735TIP3   OH277695   3.261   3.105  14.853 -0.4791 -0.6053 -0.1376
18735TIP3    H177696   3.279   3.026  14.904  1.2904  0.1825  0.5270
18735TIP3    H277697   3.313   3.094  14.773  0.1823  0.0952  0.1848
18736TIP3   OH277698   2.786   4.512   5.592  0.4405 -0.0447 -0.1119
18736TIP3    H177699   2.846   4.440   5.575  1.0338  0.1754  0.9396
18736TIP3    H277700   2.836   4.591   5.572 -0.1341  0.0873 -1.0555
18737TIP3   OH277701   6.086   4.024  14.635  0.6971 -0.2450  0.3932
18737TIP3    H177702   6.035   3.951  14.672 -0.7297  1.5021  2.0547
18737TIP3    H277703   6.141   4.054  14.707  0.8852  0.6593 -0.1110
18738TIP3   OH277704   3.352   4.893  10.543 -0.4250  0.2724 -0.0695
18738TIP3    H177705   3.419   4.831  10.572  1.1153  1.5709 -0.6810
18738TIP3    H277706   3.383   4.978  10.575 -1.7109  0.9462 -0.5292
18739TIP3   OH277707   4.515   0.802  11.976  0.3535 -0.2204  0.9118
18739TIP3    H177708   4.478   0.887  11.954  0.6212  0.0464  1.4834
18739TIP3    H277709   4.605   0.821  12.005  0.7485 -0.7990  0.0963
18740TIP3   OH277710   2.946   5.250  16.294  0.2645  0.8828  0.5607
18740TIP3    H177711   2.920   5.315  16.229 -1.7274 -1.0749 -0.7211
18740TIP3    H277712   2.940   5.166  16.249  2.2255 -0.3054  2.3051
18741TIP3   OH277713   0.697   1.546  11.885  0.1082 -0.1216 -0.4091
18741TIP3    H177714   0.789   1.567  11.897 -0.3733  1.8415  0.3543
18741TIP3    H277715   0.657   1.565  11.971 -0.7617 -2.6181 -0.1691
18742TIP3   OH277716   1.551   0.954  15.984  0.7217 -0.2243 -0.5494
18742TIP3    H177717   1.628   0.898  15.976  2.3151  1.8500 -0.7173
18742TIP3    H277718   1.497   0.911  16.051  0.6215 -3.1781 -2.3689
18743TIP3   OH277719   2.067   2.614  16.777  0.0472  0.5167 -0.1985
18743TIP3    H177720   2.124   2.687  16.801  1.8769 -1.5729  2.4317
18743TIP3    H277721   2.115   2.568  16.709  0.1093  0.4057 -0.0816
18744TIP3   OH277722   0.169   4.119  13.875 -0.1964  0.7304  0.0278
18744TIP3    H177723   0.254   4.102  13.915  0.6074  1.0485 -1.4701
18744TIP3    H277724   0.107   4.070  13.929  1.1610 -1.0763  0.0682
18745TIP3   OH277725   4.548   0.579   3.588 -0.2076 -0.5027 -0.0049
18745TIP3    H177726   4.565   0.673   3.574  3.5727 -1.1140 -0.5542
18745TIP3    H277727   4.491   0.577   3.665 -0.2322  2.2391  0.1642
18746TIP3   OH277728   3.528   6.556  16.492 -0.2462 -0.2452  0.0697
18746TIP3    H177729   3.552   6.570  16.583 -0.1921  2.5515 -0.2884
18746TIP3    H277730   3.609   6.572  16.443 -1.1647  2.8016 -0.6889
18747TIP3   OH277731   0.684   2.472  13.554 -1.0721 -0.1130  0.1300
18747TIP3    H177732   0.718   2.382  13.554 -1.2577 -0.1823  0.1569
18747TIP3    H277733   0.596   2.464  13.591 -0.2573  0.3912  2.3517
18748TIP3   OH277734   5.935   2.425   2.200  0.2899 -0.1492  0.2725
18748TIP3    H177735   5.850   2.393   2.169  0.6771 -1.0556  0.0900
18748TIP3    H277736   5.972   2.350   2.248  0.6314  0.5122  1.0619
18749TIP3   OH277737   3.230   5.980   0.342  0.4783  0.2881 -0.0493
18749TIP3    H177738   3.225   6.073   0.319  0.9066 -0.0792 -1.8262
18749TIP3    H277739   3.264   5.979   0.431 -1.6618  1.8718  0.8776
18750TIP3   OH277740   3.430   2.101  11.525  0.0108  0.0155  0.7337
18750TIP3    H177741   3.347   2.142  11.548  0.2364 -0.3439  2.2684
18750TIP3    H277742   3.476   2.167  11.473 -2.1772 -0.6295 -2.3008
18751TIP3   OH277743   2.087   2.977  12.510  0.4709  0.1532 -0.6180
18751TIP3    H177744   2.022   2.970  12.579 -1.5241 -3.8257 -2.5792
18751TIP3    H277745   2.038   3.004  12.433  1.8878  0.6924 -1.3724
18752TIP3   OH277746   4.906   1.460   1.491  0.0572  0.3299 -0.5460
18752TIP3    H177747   4.986   1.409   1.505 -1.3557 -2.2485 -1.1278
18752TIP3    H277748   4.895   1.462   1.396 -0.5069  0.7370 -0.4806
18753TIP3   OH277749   2.142   4.210  15.412  0.2836  0.1189 -0.5509
18753TIP3    H177750   2.122   4.139  15.350  0.7524 -1.2857  0.8336
18753TIP3    H277751   2.236   4.227  15.400  0.7459 -1.2708  0.8226
18754TIP3   OH277752   1.312   0.145   0.945  0.4135  0.2626  0.0290
18754TIP3    H177753   1.391   0.101   0.912 -0.5970 -0.0569 -2.0725
18754TIP3    H277754   1.346   0.213   1.004  2.3171  0.4730 -1.2155
18755TIP3   OH277755   5.676   3.422  14.200 -0.2826 -0.0030  0.3022
18755TIP3    H177756   5.749   3.474  14.236  0.1109 -0.6393  0.4375
18755TIP3    H277757   5.681   3.436  14.106  1.1470 -1.4606  0.1225
18756TIP3   OH277758   4.801   1.564   5.003  0.1583 -0.8725  0.7096
18756TIP3    H177759   4.751   1.508   4.943  1.3924 -1.9221  0.6057
18756TIP3    H277760   4.865   1.608   4.947  1.0270 -1.5186  1.1676
18757TIP3   OH277761   2.449   1.013  11.420 -0.2263  0.1759  0.4069
18757TIP3    H177762   2.424   0.955  11.491  0.5401 -0.0114  0.5326
18757TIP3    H277763   2.477   1.094  11.463  1.3099 -0.3179  0.4252
18758TIP3   OH277764   3.083   6.084  15.136  0.3037 -0.1311 -0.0556
18758TIP3    H177765   3.003   6.118  15.095 -1.1800  0.0172  2.6801
18758TIP3    H277766   3.071   5.989  15.136  0.1546 -0.1160  0.2254
18759TIP3   OH277767   0.245   1.838   5.854  0.4377 -0.1293 -0.5564
18759TIP3    H177768   0.272   1.848   5.945 -1.5178  0.6503 -0.0285
18759TIP3    H277769   0.233   1.927   5.822 -1.4179 -0.4104 -0.7565
18760TIP3   OH277770   5.495   1.285   5.290 -0.3159 -0.2253 -0.0948
18760TIP3    H177771   5.543   1.365   5.314  1.0374 -1.4306  1.4979
18760TIP3    H277772   5.542   1.251   5.214  1.0588 -1.0275  1.0391
18761TIP3   OH277773   4.105   6.013  14.993 -0.0523  0.2501  0.0229
18761TIP3    H177774   4.039   6.008  14.924  0.0749 -2.9824 -0.0064
18761TIP3    H277775   4.187   5.993  14.948  0.5058  1.1564  0.6165
18762TIP3   OH277776   1.645   4.457  15.019  0.0759  0.6378 -0.1663
18762TIP3    H177777   1.676   4.391  15.081 -2.1535  0.5260  0.9269
18762TIP3    H277778   1.674   4.425  14.933  0.8782 -0.6298  0.5493
18763TIP3   OH277779   3.199   1.546   6.000  0.0388  0.0957 -0.0258
18763TIP3    H177780   3.194   1.541   6.096  0.5645 -1.8902 -0.0662
18763TIP3    H277781   3.255   1.622   5.983  0.5519  0.0331  1.2627
18764TIP3   OH277782   1.075   3.586  16.827  0.1459  0.3258 -0.2382
18764TIP3    H177783   1.128   3.611  16.751  0.4100  1.5422  0.3158
18764TIP3    H277784   1.112   3.503  16.856 -0.5244 -0.6166 -1.9418
18765TIP3   OH277785   5.566   2.328   4.877  0.2852  0.5552 -0.0632
18765TIP3    H177786   5.563   2.411   4.924 -0.6685  0.7250 -0.4010
18765TIP3    H277787   5.580   2.353   4.786 -0.0577  0.3564 -0.1742
18766TIP3   OH277788   0.103   4.961   4.894 -0.1857  0.0323 -0.0308
18766TIP3    H177789   0.072   5.032   4.838  0.5580  0.2385 -0.1929
18766TIP3    H277790   0.171   5.001   4.948 -0.1869 -0.4110  0.3024
18767TIP3   OH277791   3.203   3.264   0.591  0.3470  0.6417  0.1986
18767TIP3    H177792   3.268   3.251   0.660  0.1234 -2.0627  0.0256
18767TIP3    H277793   3.133   3.203   0.613 -0.8006  1.4074 -1.1765
18768TIP3   OH277794   5.628   4.522   6.214 -0.6796  1.0696  0.3686
18768TIP3    H177795   5.672   4.572   6.282 -0.3673 -1.8957  2.5720
18768TIP3    H277796   5.694   4.459   6.184 -0.7838  2.2965 -2.8701
18769TIP3   OH277797   5.659   0.057  15.725 -0.2473 -0.1504 -0.0989
18769TIP3    H177798   5.725   0.059  15.655 -1.6078 -0.1440 -1.4306
18769TIP3    H277799   5.682  -0.020  15.776  0.3097 -0.6311 -1.0371
18770TIP3   OH277800   2.563   1.279  14.108  0.3408 -0.6992 -0.4552
18770TIP3    H177801   2.611   1.257  14.188  2.0109  0.9876 -0.8944
18770TIP3    H277802   2.603   1.223  14.041 -0.7228 -1.7616 -0.2278
18771TIP3   OH277803   4.222   0.344  13.568 -0.0807  0.2570 -0.0330
18771TIP3    H177804   4.140   0.384  13.597 -0.2341  0.8850 -1.2907
18771TIP3    H277805   4.195   0.275  13.508  0.3283  1.0765 -1.1841
18772TIP3   OH277806   4.466   0.706   4.652  0.1578  0.4600 -0.2147
18772TIP3    H177807   4.520   0.723   4.729 -0.0551 -3.4396  0.9716
18772TIP3    H277808   4.383   0.673   4.687 -0.9362  1.0382 -2.1080
18773TIP3   OH277809   0.746   1.289   5.599 -0.1065  0.3273  0.0799
18773TIP3    H177810   0.840   1.283   5.585 -0.2421  0.6321 -1.1385
18773TIP3    H277811   0.737   1.319   5.689  0.9714  0.5645  0.1254
18774TIP3   OH277812   2.768   4.332   1.989  0.6047  0.4287 -0.1505
18774TIP3    H177813   2.768   4.312   1.895 -0.4814 -0.2776 -0.0210
18774TIP3    H277814   2.751   4.247   2.031 -0.8743  1.0550  0.5841
18775TIP3   OH277815   3.888   5.931  15.264 -0.1860  0.5123  0.2362
18775TIP3    H177816   3.930   5.904  15.346 -0.7509 -0.2501  0.2903
18775TIP3    H277817   3.942   6.002  15.231  0.1971  0.6557  1.1447
18776TIP3   OH277818   3.144   4.982  13.582 -0.6237  0.2970  0.2278
18776TIP3    H177819   3.230   5.017  13.605 -0.6042  1.4153 -1.3758
18776TIP3    H277820   3.141   4.895  13.622  0.9777  0.5100  0.8582
18777TIP3   OH277821   3.740   3.514  12.533 -0.1222  0.8057 -0.0330
18777TIP3    H177822   3.691   3.551  12.460  0.4001  0.6885 -0.4512
18777TIP3    H277823   3.780   3.590  12.576  0.8494  0.7615 -0.8184
18778TIP3   OH277824   3.663   2.336   0.240 -0.1665  0.7726  0.2938
18778TIP3    H177825   3.688   2.324   0.148  0.0544  0.4153  0.3994
18778TIP3    H277826   3.744   2.320   0.289 -0.8151 -1.4456  0.7172
18779TIP3   OH277827   3.216   6.110  13.718 -0.3901 -0.2340 -0.2924
18779TIP3    H177828   3.290   6.090  13.661 -1.7093  0.8848 -2.5767
18779TIP3    H277829   3.149   6.145  13.658 -1.5876  1.8584  2.0962
18780TIP3   OH277830   4.875   2.501  11.994  0.3360  0.2511  0.8834
18780TIP3    H177831   4.969   2.523  11.988  0.4944 -0.2769  1.3620
18780TIP3    H277832   4.866   2.423  11.940  0.1997  0.2249  0.9454
18781TIP3   OH277833   6.188   0.609   4.525  0.5939  0.5157 -0.4415
18781TIP3    H177834   6.252   0.621   4.455  0.5727 -0.4196 -0.6329
18781TIP3    H277835   6.217   0.669   4.594  1.6525  0.1601 -0.5516
18782TIP3   OH277836   3.035   2.989  14.738 -0.5926  0.0936 -0.1336
18782TIP3    H177837   3.047   3.051  14.667  0.8602 -0.1015 -0.0898
18782TIP3    H277838   3.098   3.017  14.805  0.5337 -1.7278 -0.3473
18783TIP3   OH277839   6.513   1.932  11.570 -0.3789 -0.2450  0.4261
18783TIP3    H177840   6.419   1.945  11.560 -0.0499  1.6150 -0.6313
18783TIP3    H277841   6.545   2.014  11.609  1.0368 -0.0918 -0.9555
18784TIP3   OH277842   5.267   3.403  12.277  0.4671  0.3753 -0.1739
18784TIP3    H177843   5.217   3.338  12.228 -0.2907  0.9709 -0.2058
18784TIP3    H277844   5.271   3.368  12.366  0.6276 -0.0239 -0.3352
18785TIP3   OH277845   6.557   1.646   4.680 -0.0725  0.0230 -0.3311
18785TIP3    H177846   6.518   1.610   4.759 -2.3067 -0.5769 -1.6105
18785TIP3    H277847   6.520   1.734   4.673  2.1311  1.1127  0.5748
18786TIP3   OH277848   4.717   4.175  12.495 -0.1911  0.0345  0.3978
18786TIP3    H177849   4.652   4.133  12.439 -0.1411  0.5296 -0.0365
18786TIP3    H277850   4.763   4.102  12.537 -0.9285 -0.3160  0.6046
18787TIP3   OH277851   3.849   2.370  16.945  0.4665 -0.0378 -0.6028
18787TIP3    H177852   3.874   2.279  16.930  0.3863 -0.1095 -0.3114
18787TIP3    H277853   3.904   2.399  17.017 -2.5673 -1.2590  2.4401
18788TIP3   OH277854   6.557   5.128  11.837 -0.3435  0.5943 -0.6736
18788TIP3    H177855   6.560   5.037  11.808  2.2026  0.2314  0.4859
18788TIP3    H277856   6.595   5.177  11.764  0.0746  0.4959 -0.5199
18789TIP3   OH277857   0.013   1.952   4.152 -0.4524 -0.0318  0.0474
18789TIP3    H177858   0.105   1.936   4.131 -0.0924  0.2195  1.3503
18789TIP3    H277859  -0.031   1.952   4.067  0.2099 -3.3172 -0.4212
18790TIP3   OH277860   4.755   0.055   4.469  0.1114  0.2442 -0.0197
18790TIP3    H177861   4.821  -0.014   4.469 -0.3928 -0.2485 -0.8659
18790TIP3    H277862   4.797   0.128   4.422  0.8436  0.7463  1.3398
18791TIP3   OH277863   0.361   5.433  15.937 -0.4228 -0.5051 -0.0672
18791TIP3    H177864   0.426   5.368  15.910  1.8068  1.5602 -0.0285
18791TIP3    H277865   0.346   5.416  16.030 -0.3403 -1.3232 -0.2033
18792TIP3   OH277866   1.622   0.575   1.989  0.1201  0.5440  0.4887
18792TIP3    H177867   1.629   0.609   1.899 -0.8223  1.8404  0.8757
18792TIP3    H277868   1.675   0.636   2.041  0.5599 -0.1337  0.8465
18793TIP3   OH277869   4.099   2.334  16.663 -0.0173  0.2543 -0.1367
18793TIP3    H177870   4.111   2.415  16.712 -4.7234  2.3874 -1.9176
18793TIP3    H277871   4.094   2.361  16.571 -2.0474 -1.9244 -0.7915
18794TIP3   OH277872   5.195   0.721  13.192 -0.0059 -0.8648 -0.1185
18794TIP3    H177873   5.288   0.697  13.193  0.4427  0.6981  1.5454
18794TIP3    H277874   5.181   0.764  13.276 -1.5568  1.4646 -1.4647
18795TIP3   OH277875   0.457   0.555   0.905 -0.0485  0.3613 -0.4006
18795TIP3    H177876   0.525   0.496   0.940  1.2282  1.0508 -1.6048
18795TIP3    H277877   0.498   0.642   0.908 -0.9930  0.8328 -0.9243
18796TIP3   OH277878   2.816   5.447   2.219 -0.4917 -0.3176 -0.0375
18796TIP3    H177879   2.827   5.364   2.266  1.0848 -0.3896 -0.5035
18796TIP3    H277880   2.843   5.427   2.129  1.8898  1.1550  0.2673
18797TIP3   OH277881   4.981   5.053  16.193 -0.0284  0.4958  0.5048
18797TIP3    H177882   4.970   4.982  16.130 -2.1080  1.0018  0.2130
18797TIP3    H277883   4.930   5.125  16.156  1.9219  2.1404  0.8368
18798TIP3   OH277884   1.953   6.240  16.604 -0.2669  0.4290  0.3180
18798TIP3    H177885   2.027   6.216  16.660 -0.8239  1.3571  1.5039
18798TIP3    H277886   1.885   6.267  16.665 -1.0620  1.0519 -0.8060
18799TIP3   OH277887   6.094   5.673   4.280  0.0637 -0.0237 -0.2410
18799TIP3    H177888   6.167   5.733   4.296  0.9931 -1.3681  0.7942
18799TIP3    H277889   6.033   5.723   4.227  0.3726  2.1510  1.3116
18800TIP3   OH277890   3.865   1.792  11.584  0.1685  0.2334  0.5136
18800TIP3    H177891   3.791   1.751  11.629 -0.4636  1.8234  0.9680
18800TIP3    H277892   3.838   1.800  11.493  0.4327 -0.6411  0.3491
18801TIP3   OH277893   0.558   6.351   0.364 -0.6569 -0.2344 -0.1555
18801TIP3    H177894   0.574   6.352   0.459  0.3595  2.4991 -0.2679
18801TIP3    H277895   0.462   6.353   0.356 -0.7423  0.2404  0.8367
18802TIP3   OH277896   3.675   1.510   3.393  0.8839 -0.0723  0.3489
18802TIP3    H177897   3.598   1.470   3.434  0.1116  0.9700 -0.0407
18802TIP3    H277898   3.663   1.604   3.407  3.2717  0.0359  2.3395
18803TIP3   OH277899   3.285   0.699   3.169 -0.0817  0.2892  0.3091
18803TIP3    H177900   3.216   0.760   3.143 -1.4535 -0.8483  1.1214
18803TIP3    H277901   3.255   0.664   3.253  0.5654 -1.6041 -0.2054
18804TIP3   OH277902   0.820   1.995  11.207 -0.2244 -0.1051  0.4049
18804TIP3    H177903   0.833   1.920  11.148 -2.7907  1.5155 -2.5656
18804TIP3    H277904   0.789   1.956  11.288  0.7641 -2.3555 -0.2096
18805TIP3   OH277905   6.359   1.088   4.748 -0.2080  0.1738  0.4171
18805TIP3    H177906   6.336   1.180   4.734  0.1078  0.2443  0.3504
18805TIP3    H277907   6.329   1.069   4.837 -0.4526  0.2828  0.3610
18806TIP3   OH277908   2.752   3.684   6.535 -0.1852  0.4228 -0.5054
18806TIP3    H177909   2.832   3.726   6.503  0.8149  0.8128  2.2342
18806TIP3    H277910   2.701   3.755   6.574 -0.4424 -0.2547  0.4310
18807TIP3   OH277911   3.226   3.698  11.542 -0.0940 -0.3415 -0.1154
18807TIP3    H177912   3.270   3.688  11.626  0.1124  0.8229 -0.0752
18807TIP3    H277913   3.171   3.620  11.534  1.2327 -1.3498  0.2729
18808TIP3   OH277914   4.921   4.658  16.420 -0.2242 -0.4344 -0.5249
18808TIP3    H177915   4.896   4.720  16.352 -2.1175 -0.0401  0.4485
18808TIP3    H277916   4.948   4.579  16.373  0.2147  0.4177 -1.7393
18809TIP3   OH277917   5.749   0.428  17.203  0.7220 -0.1278 -0.4538
18809TIP3    H177918   5.716   0.339  17.205 -0.2974  0.1481  3.2524
18809TIP3    H277919   5.686   0.478  17.255  2.9405  2.0497  0.3343
18810TIP3   OH277920   5.770   0.594  16.952  0.0542 -0.1770  0.1604
18810TIP3    H177921   5.789   0.559  17.039 -0.5825  0.2966  0.4966
18810TIP3    H277922   5.734   0.681  16.968 -0.3653 -0.2062 -0.5688
18811TIP3   OH277923   5.668   0.674  13.656 -0.4079  0.4182  0.1642
18811TIP3    H177924   5.696   0.720  13.576  0.7756  2.2342  1.5146
18811TIP3    H277925   5.633   0.591  13.625 -0.6639  1.3418 -2.2947
18812TIP3   OH277926   2.851   1.267   0.154 -0.1707  0.6820 -0.3148
18812TIP3    H177927   2.925   1.319   0.185 -0.2149  0.4345  0.2281
18812TIP3    H277928   2.860   1.183   0.201 -0.2163  0.2768 -1.0184
18813TIP3   OH277929   0.458   3.479  16.897  0.2853 -0.2818  0.1976
18813TIP3    H177930   0.365   3.488  16.919 -0.1861 -1.0513 -1.3377
18813TIP3    H277931   0.499   3.557  16.933 -1.4469  1.5498 -1.5649
18814TIP3   OH277932   5.977   1.650  12.420  0.0952 -0.3148  0.4840
18814TIP3    H177933   5.948   1.575  12.472  0.0805  0.7295  2.0675
18814TIP3    H277934   5.897   1.696  12.396  0.1002 -0.8138 -0.5349
18815TIP3   OH277935   4.694   3.648  11.990 -0.1922 -0.2491  0.0341
18815TIP3    H177936   4.716   3.717  12.053  0.0150  1.2798 -1.6370
18815TIP3    H277937   4.653   3.580  12.043  0.8854  0.5246  1.9590
18816TIP3   OH277938   1.600   6.136  12.974 -0.3639 -0.1096  0.1622
18816TIP3    H177939   1.581   6.088  12.893 -0.8521  0.9908 -0.4153
18816TIP3    H277940   1.695   6.147  12.974 -0.1631 -1.6450  0.6638
18817TIP3   OH277941   6.228   5.864  16.744 -0.3556 -0.4256 -0.1585
18817TIP3    H177942   6.149   5.830  16.701 -0.3614  0.8011 -1.1683
18817TIP3    H277943   6.299   5.843  16.684 -0.0135 -0.8098  0.3717
18818TIP3   OH277944   5.906   0.177  14.130 -0.5866  0.0103  0.3749
18818TIP3    H177945   5.867   0.123  14.199 -0.9871 -0.9469 -0.5588
18818TIP3    H277946   5.972   0.229  14.174 -1.1603 -0.2311  1.5595
18819TIP3   OH277947   0.632   1.616  16.477 -0.3037  0.0087 -0.0762
18819TIP3    H177948   0.681   1.677  16.532  0.0900  1.7003 -2.1597
18819TIP3    H277949   0.699   1.566  16.430 -0.6080 -0.3526 -0.1306
18820TIP3   OH277950   1.543   1.829  12.263 -0.3200  0.2102  0.1837
18820TIP3    H177951   1.605   1.856  12.195  0.1266  1.8257  1.1736
18820TIP3    H277952   1.598   1.791  12.332 -0.6403 -0.2059  0.2111
18821TIP3   OH277953   0.558   4.759  16.147  0.9813 -0.3184  0.1898
18821TIP3    H177954   0.464   4.745  16.157  0.3234  2.0877 -1.7661
18821TIP3    H277955   0.581   4.710  16.068  0.6251  1.6601 -1.2072
18822TIP3   OH277956   2.770   0.631  12.490  0.1153 -0.1544 -0.9157
18822TIP3    H177957   2.719   0.646  12.570 -0.1419 -0.4704 -1.0212
18822TIP3    H277958   2.787   0.537  12.490  1.4820  0.0553 -0.4085
18823TIP3   OH277959   6.065   2.017   1.377  0.1169  0.7306  0.2814
18823TIP3    H177960   6.013   2.094   1.354 -0.5472  0.4187  0.7079
18823TIP3    H277961   6.117   1.998   1.299 -0.1547  1.2554 -0.0290
18824TIP3   OH277962   4.297   1.679  13.692 -0.8115  0.2772 -0.4754
18824TIP3    H177963   4.239   1.749  13.659 -1.8813  0.3578  1.4411
18824TIP3    H277964   4.241   1.627  13.750  1.2639  1.0457  2.4381
18825TIP3   OH277965   4.491   4.938   5.292 -0.0892 -0.3024 -0.4510
18825TIP3    H177966   4.419   4.935   5.355  1.7390 -0.8568  1.7373
18825TIP3    H277967   4.514   5.030   5.286  0.2077 -0.3172  0.3207
18826TIP3   OH277968   4.488   0.942   2.981 -0.3151 -0.2130  0.0092
18826TIP3    H177969   4.560   0.888   2.948  0.6723  0.2574  1.3268
18826TIP3    H277970   4.491   1.021   2.928  0.3989 -0.0355  0.2996
18827TIP3   OH277971   4.639   5.400  14.047  0.5117  0.3457 -0.2007
18827TIP3    H177972   4.694   5.322  14.042 -1.8862 -1.5052 -0.0644
18827TIP3    H277973   4.634   5.420  14.140  0.8823  0.4695 -0.2065
18828TIP3   OH277974   1.000   0.697  15.965  0.1463  0.0744 -0.7924
18828TIP3    H177975   1.080   0.660  16.002  0.3058  2.4236  1.5485
18828TIP3    H277976   0.932   0.633  15.986  0.9886 -0.6717 -0.2787
18829TIP3   OH277977   6.594   4.422  13.808 -0.1037  0.3239 -0.1336
18829TIP3    H177978   6.595   4.497  13.867 -0.8371 -1.2229  1.9637
18829TIP3    H277979   6.682   4.384  13.814  1.2425  2.5043 -3.4026
18830TIP3   OH277980   3.274   1.931  17.052 -0.0717 -0.0203 -0.7735
18830TIP3    H177981   3.340   1.861  17.042  1.6779  1.3786  0.4026
18830TIP3    H277982   3.307   2.002  16.998 -1.2411  0.3294 -1.0512
18831TIP3   OH277983   1.343   0.189  11.893  0.2750 -0.0049  0.0065
18831TIP3    H177984   1.401   0.224  11.825  0.2390  0.2170  0.0905
18831TIP3    H277985   1.267   0.157  11.845  0.1180  0.4183 -0.0355
18832TIP3   OH277986   3.700   6.516   3.151  0.4905  0.1205 -0.4491
18832TIP3    H177987   3.634   6.462   3.105  1.0522 -1.1028  0.1323
18832TIP3    H277988   3.749   6.559   3.081 -1.7117  2.1124 -0.9001
18833TIP3   OH277989   5.430   4.392   0.210  0.2806  0.1950  0.2173
18833TIP3    H177990   5.521   4.416   0.227  1.1366 -0.2336 -3.0421
18833TIP3    H277991   5.418   4.309   0.257  1.3641  0.5644  1.1797
18834TIP3   OH277992   6.401   0.604  11.871 -0.2587  0.8751 -0.0613
18834TIP3    H177993   6.338   0.671  11.895 -0.1577  0.9406  0.0225
18834TIP3    H277994   6.484   0.651  11.862 -0.5630  1.1404 -2.0272
18835TIP3   OH277995   2.702   5.147   2.250  0.4280  0.3874  0.2880
18835TIP3    H177996   2.635   5.079   2.261  0.7616  0.0196  0.0933
18835TIP3    H277997   2.784   5.101   2.267  0.5401  1.1914  2.0899
18836TIP3   OH277998   4.344   3.452  12.521  0.6321  0.1936 -0.0479
18836TIP3    H177999   4.287   3.528  12.532 -2.6396 -2.3361  2.3393
18836TIP3    H278000   4.408   3.459  12.592 -0.3964  0.1772  0.9029
18837TIP3   OH278001   1.220   6.127   3.232 -0.2201  0.5905 -0.5051
18837TIP3    H178002   1.186   6.217   3.232 -0.3947  0.5306  0.2370
18837TIP3    H278003   1.307   6.134   3.270 -0.5788  0.3249  0.3729
18838TIP3   OH278004   4.260   6.523   1.511 -0.4744  0.2635  0.8450
18838TIP3    H178005   4.280   6.481   1.427  3.0389 -0.9129  2.0841
18838TIP3    H278006   4.198   6.463   1.553  1.0251 -1.4446  0.7480
18839TIP3   OH278007   2.690   2.810  16.687  0.3800  0.7214  0.0811
18839TIP3    H178008   2.722   2.838  16.601 -0.8715  1.6524 -0.1145
18839TIP3    H278009   2.761   2.758  16.723  1.5679  1.6230 -0.8671
18840TIP3   OH278010   0.863   1.767   1.630 -0.1269  0.2698 -0.2715
18840TIP3    H178011   0.795   1.703   1.650  0.1736 -0.3364 -1.1623
18840TIP3    H278012   0.897   1.741   1.545  2.2601 -0.3352  0.7809
18841TIP3   OH278013   5.019   3.632   6.178 -0.0174 -0.1235  0.6277
18841TIP3    H178014   4.990   3.608   6.090  0.8291 -0.3256  0.3987
18841TIP3    H278015   5.016   3.551   6.228 -0.4145 -0.0253  0.7710
18842TIP3   OH278016   2.427   5.075   4.086 -0.3671 -0.4232 -0.5899
18842TIP3    H178017   2.408   5.093   3.995  2.4054  2.1969 -0.8327
18842TIP3    H278018   2.522   5.061   4.088 -0.4354 -1.0160  1.8004
18843TIP3   OH278019   0.413   2.321   2.123 -0.5906 -0.2606 -0.0481
18843TIP3    H178020   0.469   2.279   2.058 -0.5912 -1.5994  0.7920
18843TIP3    H278021   0.389   2.405   2.083  2.8537  0.8889 -0.0652
18844TIP3   OH278022   0.735   0.491  12.298  0.3548  0.4101 -0.6688
18844TIP3    H178023   0.694   0.422  12.351  2.0820  1.7129  2.6710
18844TIP3    H278024   0.696   0.480  12.211 -3.8928 -0.9757  1.1065
18845TIP3   OH278025   0.823   6.195  11.905 -0.3561  0.2190  0.2683
18845TIP3    H178026   0.760   6.215  11.974 -1.5079 -0.3408 -0.5905
18845TIP3    H278027   0.811   6.102  11.887  0.3929  0.2071 -0.2421
18846TIP3   OH278028   0.659   3.164  11.052 -0.0198 -0.2473 -0.4711
18846TIP3    H178029   0.572   3.164  11.093  0.8380 -3.7693  1.8608
18846TIP3    H278030   0.642   3.153  10.959 -2.2429 -3.1799  0.1285
18847TIP3   OH278031   0.213   6.692  16.510  0.3276 -0.2481  0.4633
18847TIP3    H178032   0.309   6.682  16.513  0.3482 -1.0823 -1.4211
18847TIP3    H278033   0.180   6.602  16.517 -0.2832 -0.0282  0.3829
18848TIP3   OH278034   4.110   5.491   6.164 -0.3182  0.1291 -0.0212
18848TIP3    H178035   4.027   5.445   6.151  0.4940 -1.6378  0.7620
18848TIP3    H278036   4.120   5.496   6.259  1.3123 -1.3364 -0.0729
18849TIP3   OH278037   5.449   1.005   0.933 -0.1525  0.2010 -0.1641
18849TIP3    H178038   5.404   1.088   0.916  0.9961  0.8755 -0.0337
18849TIP3    H278039   5.444   0.994   1.028  1.6669  1.3322  0.1160
18850TIP3   OH278040   0.690   3.278   0.991  0.4353  0.0182 -0.2366
18850TIP3    H178041   0.691   3.363   0.947  0.8902  0.8676  1.3335
18850TIP3    H278042   0.676   3.299   1.083  1.4672 -1.5446  0.3219
18851TIP3   OH278043   0.196   0.886  16.920  0.2227  0.5215  0.0699
18851TIP3    H178044   0.231   0.944  16.853 -0.3021  1.0631  0.2560
18851TIP3    H278045   0.138   0.942  16.972 -0.8853 -0.3423 -0.2151
18852TIP3   OH278046   0.675   0.023  14.688 -0.0787 -0.4355 -0.3757
18852TIP3    H178047   0.678   0.082  14.612 -1.5929  0.2904  0.0861
18852TIP3    H278048   0.633  -0.056  14.655  0.5783 -0.6809 -0.6328
18853TIP3   OH278049   5.169   0.597  15.340  0.1345 -0.5951 -0.7531
18853TIP3    H178050   5.173   0.516  15.392  1.0880 -0.2719 -0.3043
18853TIP3    H278051   5.076   0.615  15.331 -0.1181  0.8997  3.3075
18854TIP3   OH278052   2.958   5.751   6.367 -0.2561  0.7963 -0.2460
18854TIP3    H178053   2.953   5.827   6.426  1.3267  1.3774 -0.8046
18854TIP3    H278054   2.987   5.788   6.283 -0.7012 -0.2602 -0.8807
18855TIP3   OH278055   4.094   4.345  15.873 -0.2568  0.0824 -0.0125
18855TIP3    H178056   4.075   4.395  15.952 -0.5505 -0.0131 -0.0226
18855TIP3    H278057   4.073   4.255  15.895  0.4371 -0.0679  0.0585
18856TIP3   OH278058   4.948   1.485  12.613  0.1259 -0.2531  0.4274
18856TIP3    H178059   4.876   1.448  12.562  0.2990  0.6178 -0.4936
18856TIP3    H278060   5.015   1.506  12.547  0.6033  0.3272  1.0886
18857TIP3   OH278061   2.065   2.478   2.078 -0.3596  0.1266 -0.5679
18857TIP3    H178062   2.052   2.454   1.986  0.4063  0.5068 -0.7826
18857TIP3    H278063   2.078   2.573   2.077  0.4135  0.0367 -0.1602
18858TIP3   OH278064   2.719   1.688  14.005  0.3494 -0.2015  0.0419
18858TIP3    H178065   2.784   1.693  14.075  0.5567 -0.1914 -0.1494
18858TIP3    H278066   2.695   1.779  13.988  0.2463 -0.2088  0.1489
18859TIP3   OH278067   6.214   4.047  15.795 -0.7460 -0.2519  0.3219
18859TIP3    H178068   6.206   4.112  15.864  1.8108  0.4825  0.0214
18859TIP3    H278069   6.223   4.097  15.714  3.2844 -0.7345  0.2920
18860TIP3   OH278070   4.688   1.391  12.531 -0.4199  0.3996 -0.3895
18860TIP3    H178071   4.669   1.472  12.483  1.2460  1.0687  0.0099
18860TIP3    H278072   4.641   1.401  12.613 -2.6569 -0.4087 -1.4904
18861TIP3   OH278073   6.288   5.567   5.544 -0.3862 -0.6740  0.5697
18861TIP3    H178074   6.357   5.560   5.478 -2.2992  0.1245 -1.6236
18861TIP3    H278075   6.303   5.492   5.602  1.7791 -1.0062 -0.3179
18862TIP3   OH278076   6.734   5.919  13.442 -0.1928  0.1773  0.3573
18862TIP3    H178077   6.733   5.981  13.515 -0.2813  1.1183 -0.4200
18862TIP3    H278078   6.818   5.935  13.398 -0.3647 -0.0126 -0.0491
18863TIP3   OH278079   4.016   2.544  17.071 -0.0043 -0.4544  0.5858
18863TIP3    H178080   4.069   2.512  16.997 -1.1330  1.1161 -0.9761
18863TIP3    H278081   4.076   2.601  17.120  0.4015 -0.5285  0.1823
18864TIP3   OH278082   4.971   0.824   6.684 -0.2612  0.2077 -0.0138
18864TIP3    H178083   5.009   0.739   6.706  0.7945 -0.2956 -3.2380
18864TIP3    H278084   5.044   0.885   6.687 -0.5718  0.5760  0.1877
18865TIP3   OH278085   6.112   4.868  15.756  0.5029  0.1862 -0.0077
18865TIP3    H178086   6.172   4.897  15.687  0.7477  3.3812  1.3615
18865TIP3    H278087   6.144   4.781  15.781  1.6718 -0.1616 -2.4439
18866TIP3   OH278088   2.535   2.946   4.080  0.1497  0.1833  0.0112
18866TIP3    H178089   2.568   2.984   3.999 -1.3315  2.5960  0.4347
18866TIP3    H278090   2.440   2.947   4.070 -0.0034 -1.0359  1.1312
18867TIP3   OH278091   6.157   5.119  13.226  0.0689 -0.4326 -0.0687
18867TIP3    H178092   6.234   5.064  13.241 -0.8933 -1.4207  1.4558
18867TIP3    H278093   6.109   5.075  13.156  1.6978  1.1452 -2.3541
18868TIP3   OH278094   5.056   1.168  13.922  0.4758  0.2310 -0.1787
18868TIP3    H178095   5.094   1.249  13.889 -0.2832  0.7404  0.1661
18868TIP3    H278096   4.971   1.161  13.878  1.0131 -0.9901 -1.0830
18869TIP3   OH278097   0.551   4.803  14.894 -0.1352 -0.6538  0.1152
18869TIP3    H178098   0.596   4.720  14.911 -1.5719 -1.4805 -0.0120
18869TIP3    H278099   0.619   4.859  14.855  0.8094 -1.8185  0.0338
18870TIP3   OH278100   5.357   0.740   5.683 -0.6202 -0.3629  0.6822
18870TIP3    H178101   5.451   0.726   5.670 -0.6060 -1.1661  1.5294
18870TIP3    H278102   5.334   0.808   5.620  0.0840 -1.6700 -1.0910
18871TIP3   OH278103   0.272   4.964   5.849  0.5136  0.0249  0.1779
18871TIP3    H178104   0.293   4.879   5.888  0.5939 -0.4067 -0.7962
18871TIP3    H278105   0.198   4.997   5.901 -1.3423 -1.8826 -1.1254
18872TIP3   OH278106   2.244   2.201  15.580  0.5384 -0.1089 -0.5147
18872TIP3    H178107   2.331   2.161  15.569  0.7274  0.1967 -0.1689
18872TIP3    H278108   2.242   2.227  15.672 -0.6991 -1.9285  0.0250
18873TIP3   OH278109   5.038   2.419  15.760  0.5504 -0.0356  0.4320
18873TIP3    H178110   5.123   2.378  15.742 -1.3864 -3.2829 -2.7145
18873TIP3    H278111   5.003   2.370  15.834  0.4018 -0.4933  0.0660
18874TIP3   OH278112   5.432   1.411  12.907  0.5824  0.4306 -0.6766
18874TIP3    H178113   5.427   1.333  12.852 -3.0607  0.8266 -1.1542
18874TIP3    H278114   5.499   1.465  12.865  1.3594 -1.3373 -1.8419
18875TIP3   OH278115   1.063   5.482   2.005  0.4359 -0.0664 -0.1959
18875TIP3    H178116   1.043   5.430   2.083  0.8060  0.3072  0.1523
18875TIP3    H278117   1.041   5.425   1.932 -0.2372 -0.3014  0.1805
18876TIP3   OH278118   6.057   5.166   4.118 -0.1966 -0.2426 -0.3958
18876TIP3    H178119   6.063   5.110   4.195 -0.1843  1.5610  0.9937
18876TIP3    H278120   6.148   5.178   4.090 -0.2448 -1.3824 -1.0867
18877TIP3   OH278121   6.246   3.557   0.592  0.6287 -0.2596 -0.2838
18877TIP3    H178122   6.212   3.471   0.567  0.2072 -0.1475 -0.1026
18877TIP3    H278123   6.213   3.616   0.524  0.0768 -0.0740  0.1398
18878TIP3   OH278124   4.501   2.376  16.343 -0.0339 -0.4473 -0.0639
18878TIP3    H178125   4.595   2.382  16.360 -0.2991 -0.2076  1.5075
18878TIP3    H278126   4.490   2.295  16.293  1.1741  0.4177 -1.8321
18879TIP3   OH278127   5.926   3.399   0.733 -0.3073 -0.7705  0.1736
18879TIP3    H178128   5.944   3.406   0.827  0.7278 -0.2505 -0.0534
18879TIP3    H278129   5.877   3.478   0.712  0.9907  0.0019 -0.0506
18880TIP3   OH278130   6.719   4.811  14.706  0.4792  0.4196 -0.3227
18880TIP3    H178131   6.701   4.772  14.791 -0.2985 -1.9938 -1.4930
18880TIP3    H278132   6.814   4.819  14.703  0.4884  0.9588  0.9200
18881TIP3   OH278133   0.262   5.886   3.455 -0.2364  0.2055  0.1837
18881TIP3    H178134   0.301   5.960   3.407  0.6643  0.7914  1.7667
18881TIP3    H278135   0.273   5.811   3.395  0.3841  1.0081 -0.7479
18882TIP3   OH278136   2.502   3.026  10.751  0.5118 -0.8788  0.9269
18882TIP3    H178137   2.537   2.955  10.804  0.9761 -0.8952  0.6069
18882TIP3    H278138   2.577   3.057  10.700 -0.0947 -1.4248 -0.3447
18883TIP3   OH278139   3.130   6.621  14.735 -0.0791  0.2762  0.0699
18883TIP3    H178140   3.172   6.686  14.679 -2.1318  0.5646 -1.2348
18883TIP3    H278141   3.130   6.540  14.684  1.4372 -0.5082  1.2329
18884TIP3   OH278142   5.528   1.103   2.506  0.6000  0.2860  0.2177
18884TIP3    H178143   5.592   1.166   2.474  1.4979 -0.3917  0.6651
18884TIP3    H278144   5.449   1.122   2.455  0.7941  1.8777  0.4582
18885TIP3   OH278145   3.131   1.073   1.154 -0.7903 -0.4723  0.7772
18885TIP3    H178146   3.067   1.142   1.138  0.8706  0.7788 -0.9367
18885TIP3    H278147   3.102   1.000   1.099  0.8758  1.2412 -2.6840
18886TIP3   OH278148   6.758   6.725  15.984 -0.0626  0.0440  0.3089
18886TIP3    H178149   6.714   6.759  15.907  2.4957  0.7140 -0.9738
18886TIP3    H278150   6.821   6.662  15.950  1.2006  0.4237  1.8041
18887TIP3   OH278151   1.344   1.177   4.712 -0.2968 -0.6862  0.1343
18887TIP3    H178152   1.365   1.127   4.633  0.3507  0.8593 -0.7066
18887TIP3    H278153   1.305   1.258   4.680 -0.4876 -0.2418  1.4277
18888TIP3   OH278154   2.991   3.145  11.692  0.3830 -0.0725 -0.3965
18888TIP3    H178155   3.044   3.115  11.619  0.6927  1.2425 -0.7348
18888TIP3    H278156   2.927   3.205  11.653 -0.9842 -1.1483  0.0839
18889TIP3   OH278157   3.974   3.423   0.003 -0.6865  0.0449 -0.4380
18889TIP3    H178158   3.905   3.359  -0.011 -0.3139 -0.7283  1.0205
18889TIP3    H278159   4.050   3.387  -0.044 -1.0829  0.5908 -1.5292
18890TIP3   OH278160   1.799   5.685  11.860 -0.0481  0.5319  0.5307
18890TIP3    H178161   1.777   5.674  11.768  0.4373  1.1164  0.3341
18890TIP3    H278162   1.872   5.748  11.859  0.0287  0.4571  1.3016
18891TIP3   OH278163   2.078   6.726  13.275  0.0112 -0.4191  0.4454
18891TIP3    H178164   2.061   6.818  13.257  1.6293 -0.2216 -0.2996
18891TIP3    H278165   2.106   6.690  13.190  3.3686 -0.5927  1.4734
18892TIP3   OH278166   4.825   4.792  16.655 -0.3882  0.1862  0.2973
18892TIP3    H178167   4.774   4.838  16.589 -1.3654 -0.8773  0.2722
18892TIP3    H278168   4.875   4.727  16.606  0.0544  0.4047  0.4523
18893TIP3   OH278169   1.859   2.075   5.219 -0.0645  0.6545  0.7150
18893TIP3    H178170   1.867   2.061   5.125  1.3133  0.6189  0.8110
18893TIP3    H278171   1.821   1.995   5.253  1.3827 -0.1969  0.4225
18894TIP3   OH278172   1.906   1.022   1.918 -0.2247 -0.0608 -0.2531
18894TIP3    H178173   1.954   1.105   1.922  0.7121 -0.6112  0.5749
18894TIP3    H278174   1.853   1.021   1.997 -0.6590  0.0002 -0.5447
18895TIP3   OH278175   2.885   4.306   0.482  0.0060  0.4919  0.2732
18895TIP3    H178176   2.822   4.347   0.541 -0.3484  0.1201  0.1582
18895TIP3    H278177   2.836   4.236   0.439  0.6908 -0.2880  0.7302
18896TIP3   OH278178   5.929   6.776   5.705  0.2739 -0.5148  0.2274
18896TIP3    H178179   5.908   6.685   5.682 -1.8846 -0.0041 -0.0377
18896TIP3    H278180   6.024   6.778   5.709  0.5236 -2.2243 -2.2194
18897TIP3   OH278181   6.249   5.112   6.120  0.6198 -0.3586 -1.0439
18897TIP3    H178182   6.211   5.048   6.180 -3.0241  2.4398 -0.0205
18897TIP3    H278183   6.299   5.171   6.176  0.3571  0.1246 -1.3140
18898TIP3   OH278184   3.034   0.765  11.828  0.0628 -0.0577 -0.1188
18898TIP3    H178185   2.996   0.680  11.851 -0.1616  0.1363  0.2313
18898TIP3    H278186   2.959   0.824  11.826  0.3301  0.3036  0.4453
18899TIP3   OH278187   5.032   1.740  12.240  0.1225 -0.4153 -0.5014
18899TIP3    H178188   5.017   1.646  12.250 -1.3118 -0.3027 -1.3088
18899TIP3    H278189   5.062   1.769  12.326  0.8650 -1.6477 -0.3231
18900TIP3   OH278190   6.087   4.473  11.264  0.3452  0.1189 -0.0413
18900TIP3    H178191   6.033   4.537  11.218  2.8330  0.9079 -2.1118
18900TIP3    H278192   6.104   4.404  11.199  1.3578 -0.3747  0.7038
18901TIP3   OH278193   6.466   5.828   5.103 -0.4672  0.2955 -0.2538
18901TIP3    H178194   6.489   5.875   5.023  1.9631  0.5363  0.5004
18901TIP3    H278195   6.527   5.754   5.106 -0.7706  0.0652  1.1776
18902TIP3   OH278196   4.270   3.180   1.504 -0.4112 -0.2057 -0.1624
18902TIP3    H178197   4.268   3.141   1.417  1.2171  1.1990 -0.8965
18902TIP3    H278198   4.191   3.233   1.509 -0.9213 -0.9261 -0.4578
18903TIP3   OH278199   6.670   1.112  12.459  0.3131  0.6958 -0.0492
18903TIP3    H178200   6.753   1.071  12.432 -0.6142 -2.4798  1.4683
18903TIP3    H278201   6.673   1.112  12.554 -1.4002  0.6335  0.0334
18904TIP3   OH278202   0.457   2.547  17.191  0.0200  0.0717 -0.2000
18904TIP3    H178203   0.463   2.578  17.281  0.3514 -0.8513  0.1020
18904TIP3    H278204   0.365   2.560  17.168  0.0658  0.9230  0.0326
18905TIP3   OH278205   5.831   2.611   3.415 -0.3801 -0.2051  0.4483
18905TIP3    H178206   5.745   2.650   3.431 -0.3748  0.9410 -1.8563
18905TIP3    H278207   5.832   2.593   3.321  1.7670 -0.5057  0.4748
18906TIP3   OH278208   3.128   3.744   4.531 -0.4440  0.0001 -0.4771
18906TIP3    H178209   3.077   3.685   4.475  0.3672  0.0826 -1.3301
18906TIP3    H278210   3.199   3.690   4.565 -0.9803 -0.0660  0.5459
18907TIP3   OH278211   2.341   3.972   2.452 -0.7551 -0.3318  0.1384
18907TIP3    H178212   2.434   3.988   2.465 -0.5647 -0.4172 -0.9926
18907TIP3    H278213   2.309   4.053   2.412 -0.8620 -0.8345 -0.8107
18908TIP3   OH278214   6.468   0.188   5.227  0.2785 -0.5718  0.1422
18908TIP3    H178215   6.473   0.162   5.319  0.4426 -1.2939 -0.0642
18908TIP3    H278216   6.421   0.116   5.185  2.2565 -1.4168 -0.7505
18909TIP3   OH278217   6.100   2.753  15.738 -0.7348 -0.2321 -0.4456
18909TIP3    H178218   6.047   2.833  15.743 -0.6470 -0.0064 -2.4049
18909TIP3    H278219   6.190   2.785  15.729 -0.6636 -0.5501 -0.8658
18910TIP3   OH278220   4.626   1.602   4.529 -0.2409  0.1509 -0.7488
18910TIP3    H178221   4.678   1.536   4.575 -2.2264 -1.4881 -0.7091
18910TIP3    H278222   4.622   1.571   4.439 -1.5402 -0.0518 -0.6424
18911TIP3   OH278223   1.531   6.699  11.195  0.0039 -0.1830 -0.5932
18911TIP3    H178224   1.535   6.676  11.288  0.6654 -0.6325 -0.7281
18911TIP3    H278225   1.467   6.770  11.191  1.8853  1.7024  0.6007
18912TIP3   OH278226   0.460   4.177   4.516 -0.3307  0.5194  0.1601
18912TIP3    H178227   0.505   4.160   4.434 -2.0285 -0.9565 -0.5371
18912TIP3    H278228   0.518   4.236   4.564  2.0857 -0.8995 -0.8560
18913TIP3   OH278229   4.789   1.656  15.173  1.0070 -0.5946  0.3699
18913TIP3    H178230   4.784   1.582  15.233 -1.0217 -1.7663 -1.1033
18913TIP3    H278231   4.752   1.730  15.222  3.2245 -0.4123  1.9181
18914TIP3   OH278232   0.908   3.876  15.858  0.2588 -0.4990  0.1090
18914TIP3    H178233   0.862   3.844  15.935 -1.1516  1.2948  0.0723
18914TIP3    H278234   0.870   3.826  15.785  1.8113 -2.4183  0.5213
18915TIP3   OH278235   3.581   2.785  14.705  0.2345  0.3460 -0.2906
18915TIP3    H178236   3.579   2.826  14.618 -0.9868  1.5861  0.2928
18915TIP3    H278237   3.606   2.856  14.764  0.0480 -0.2433  0.5083
18916TIP3   OH278238   2.700   4.822  15.322 -0.4862 -0.0538 -0.3446
18916TIP3    H178239   2.617   4.775  15.327 -0.7644  0.3006 -1.3156
18916TIP3    H278240   2.714   4.857  15.409 -1.2760 -0.2487 -0.1325
18917TIP3   OH278241   6.348   4.037  15.526  0.2179 -0.1380 -0.5220
18917TIP3    H178242   6.256   4.017  15.538 -0.0931  1.1115 -0.6921
18917TIP3    H278243   6.352   4.081  15.441  0.8142  0.7747 -0.0354
18918TIP3   OH278244   5.954   1.761   6.580 -0.8849 -0.2901  0.8220
18918TIP3    H178245   5.953   1.848   6.621  0.0502 -0.1489  0.5737
18918TIP3    H278246   5.883   1.765   6.516 -0.0915  0.7445 -0.0449
18919TIP3   OH278247   2.960   3.520  11.265  0.0394 -0.2687  0.3169
18919TIP3    H178248   3.032   3.544  11.206  0.8453  0.4376  1.5344
18919TIP3    H278249   2.979   3.430  11.291  1.0779  0.2256  1.3959
18920TIP3   OH278250   0.620   2.267   5.117  0.1489  0.4887 -0.0567
18920TIP3    H178251   0.622   2.334   5.185 -0.6345  0.6377 -0.1712
18920TIP3    H278252   0.638   2.185   5.164  0.0946  0.6482  0.2488
18921TIP3   OH278253   1.732   2.466   0.094 -0.0250  0.1671  0.0971
18921TIP3    H178254   1.671   2.455   0.021 -0.9885 -2.1447  1.1192
18921TIP3    H278255   1.708   2.550   0.133 -1.3139  0.1739 -0.6409
18922TIP3   OH278256   5.033   3.634   2.433 -0.8032 -0.2365 -0.3012
18922TIP3    H178257   4.996   3.679   2.357 -1.6363 -0.9894 -0.3541
18922TIP3    H278258   4.958   3.618   2.490 -0.2369  0.0015  0.5213
18923TIP3   OH278259   0.154   2.769   3.458 -0.2771  0.0585  1.0730
18923TIP3    H178260   0.186   2.822   3.532  3.8698 -0.6944  0.0716
18923TIP3    H278261   0.147   2.681   3.493  0.4053 -0.0560  0.9474
18924TIP3   OH278262   3.019   6.729  15.772  0.4251 -0.2528  0.7438
18924TIP3    H178263   2.982   6.818  15.769 -0.6743 -0.6985 -1.5131
18924TIP3    H278264   2.944   6.673  15.792  0.5732 -0.8709 -0.3753
18925TIP3   OH278265   2.356   5.800   0.347 -0.1053  0.3715 -0.4520
18925TIP3    H178266   2.408   5.860   0.294 -0.5019  0.2764 -0.9528
18925TIP3    H278267   2.271   5.797   0.304 -1.0746  1.7574  1.2230
18926TIP3   OH278268   0.108   5.793   3.844 -0.3225 -0.8502  0.4946
18926TIP3    H178269   0.161   5.841   3.908 -3.0029  1.4211  1.2096
18926TIP3    H278270   0.131   5.832   3.759 -1.9721  1.4060  0.9943
18927TIP3   OH278271   1.198   4.849  14.434 -0.4931 -0.1336 -0.2095
18927TIP3    H178272   1.178   4.778  14.494 -1.1150 -0.5939 -0.9367
18927TIP3    H278273   1.294   4.848  14.426 -0.2266  0.9605  1.9651
18928TIP3   OH278274   2.722   4.458   4.049  0.1289  0.0887 -0.1913
18928TIP3    H178275   2.654   4.403   4.088  1.2867  0.3426  2.3736
18928TIP3    H278276   2.681   4.544   4.041 -0.8456 -0.4732 -1.7684
18929TIP3   OH278277   5.638   4.765   3.409 -0.0550  0.6362 -0.3591
18929TIP3    H178278   5.629   4.737   3.500  0.7720  0.4397 -0.3281
18929TIP3    H278279   5.649   4.860   3.414 -0.2034  0.6483 -0.2708
18930TIP3   OH278280   3.248   2.785   0.269  0.4198 -0.1091  0.3149
18930TIP3    H178281   3.329   2.786   0.219  0.3364  2.8823  0.0808
18930TIP3    H278282   3.270   2.738   0.350  1.8825 -0.8185 -0.4627
18931TIP3   OH278283   1.752   0.353   5.935  0.4489  0.2875  0.5086
18931TIP3    H178284   1.666   0.315   5.951  0.8207 -0.5796  0.4956
18931TIP3    H278285   1.795   0.352   6.020  0.5756  0.4075  0.4478
18932TIP3   OH278286   1.886   4.636  12.090 -0.2870  0.0749  0.3086
18932TIP3    H178287   1.935   4.563  12.054 -0.3727 -0.1526  0.6448
18932TIP3    H278288   1.824   4.595  12.151 -0.2176  0.4398  0.6258
18933TIP3   OH278289   1.360   3.032  13.358 -0.3378 -0.3048  0.6042
18933TIP3    H178290   1.349   2.976  13.281  0.1622  1.1606 -0.5839
18933TIP3    H278291   1.320   2.982  13.429  1.1385 -2.7254 -0.1165
18934TIP3   OH278292   5.365   3.509  16.300 -0.0160  0.3290 -0.1253
18934TIP3    H178293   5.379   3.599  16.331 -1.1778  0.4703  0.0348
18934TIP3    H278294   5.274   3.508  16.270  0.3006 -0.5115 -1.1281
18935TIP3   OH278295   3.081   5.240  13.651  0.3866 -0.0001  0.1087
18935TIP3    H178296   3.128   5.164  13.619  0.3742 -0.0955  0.3120
18935TIP3    H278297   2.991   5.208  13.664  0.4092  0.0157  0.3087
18936TIP3   OH278298   0.386   3.110  11.940 -0.3020 -0.0248  0.0665
18936TIP3    H178299   0.431   3.064  12.011 -1.1644 -1.3952 -0.2344
18936TIP3    H278300   0.374   3.199  11.972 -0.9426 -0.6901  1.7695
18937TIP3   OH278301   1.954   0.680  15.656  0.3802  0.0042 -0.1383
18937TIP3    H178302   1.874   0.648  15.614  0.9834 -0.3126 -1.0742
18937TIP3    H278303   1.925   0.755  15.709 -0.3013  0.9592 -1.7773
18938TIP3   OH278304   4.826   5.761   3.001  0.0767  0.3882 -0.6776
18938TIP3    H178305   4.829   5.676   2.957  0.5244  0.8446 -1.5613
18938TIP3    H278306   4.877   5.819   2.944  1.0316  0.9138  0.6503
18939TIP3   OH278307   3.292   3.794   2.496  0.3209 -0.3751  0.6840
18939TIP3    H178308   3.239   3.862   2.539  1.0880  2.1849 -2.0759
18939TIP3    H278309   3.348   3.760   2.566 -2.2734 -0.5116  2.8674
18940TIP3   OH278310   1.395   0.737  11.383  0.1845 -0.7615  0.3773
18940TIP3    H178311   1.393   0.802  11.312 -1.0936 -1.0385  0.1348
18940TIP3    H278312   1.474   0.759  11.433 -0.3577  1.1819  0.4794
18941TIP3   OH278313   3.829   4.535  13.630 -0.3181  0.6586  0.0989
18941TIP3    H178314   3.754   4.562  13.682 -1.3843  0.1479 -1.1197
18941TIP3    H278315   3.792   4.512  13.545  0.9274 -1.5534  0.0739
18942TIP3   OH278316   3.869   4.935   3.412 -0.5806  0.4650  0.2588
18942TIP3    H178317   3.948   4.881   3.418 -0.4245  0.5255 -0.8894
18942TIP3    H278318   3.820   4.917   3.492  0.9996  1.0828  1.4109
18943TIP3   OH278319   2.141   0.293  11.487  0.0240 -0.2177  0.5053
18943TIP3    H178320   2.119   0.220  11.545 -2.4361  0.8338  1.0417
18943TIP3    H278321   2.221   0.266  11.443  1.1362 -1.7396  3.2333
18944TIP3   OH278322   0.689   0.665   1.430 -0.2584 -0.2057  0.2407
18944TIP3    H178323   0.663   0.731   1.495  2.1339 -0.4890  1.5979
18944TIP3    H278324   0.629   0.679   1.357 -2.6175  0.6149  2.1867
18945TIP3   OH278325   0.864   3.764   0.287 -0.1603  0.1618  0.2022
18945TIP3    H178326   0.912   3.732   0.364  1.4444 -0.2489 -0.9193
18945TIP3    H278327   0.778   3.787   0.321 -0.0820 -1.6509  1.8100
18946TIP3   OH278328   0.799   4.246  12.192 -0.3256 -0.6709  0.1261
18946TIP3    H178329   0.856   4.203  12.128 -0.6888  0.0186 -0.6745
18946TIP3    H278330   0.833   4.216  12.277 -2.1146 -4.6098 -0.3140
18947TIP3   OH278331   2.101   4.043   0.375 -0.0792  0.1120 -0.2123
18947TIP3    H178332   2.099   4.008   0.286  0.5645 -0.2815 -0.0807
18947TIP3    H278333   2.166   4.114   0.372  0.1919 -0.1243  0.0205
18948TIP3   OH278334   0.469   2.126   2.884 -0.4295 -0.4610  0.6620
18948TIP3    H178335   0.473   2.033   2.865 -1.8584  0.0219 -2.7426
18948TIP3    H278336   0.392   2.136   2.939 -0.8745 -1.2083  0.1852
18949TIP3   OH278337   5.970   4.787   3.578  0.2777 -0.6963 -0.1435
18949TIP3    H178338   5.955   4.748   3.491  0.5193 -0.3573 -0.3380
18949TIP3    H278339   6.065   4.801   3.581  0.1138  0.5035 -0.3422
18950TIP3   OH278340   5.769   2.312  14.843  0.2442 -0.0320 -0.8048
18950TIP3    H178341   5.725   2.350  14.767 -0.4876  0.2737 -0.2346
18950TIP3    H278342   5.728   2.226  14.853 -1.1315  0.7285  0.4617
18951TIP3   OH278343   4.032   5.483   0.691  0.6155  0.6794  0.3194
18951TIP3    H178344   4.004   5.570   0.718 -0.9622  1.0933 -2.2566
18951TIP3    H278345   4.127   5.486   0.691  0.6114  1.8652  1.7413
18952TIP3   OH278346   5.672   0.641   1.147 -0.0614  0.4767 -0.2275
18952TIP3    H178347   5.602   0.656   1.211 -0.6993  0.0981 -0.8196
18952TIP3    H278348   5.632   0.662   1.063  0.2229 -0.6965 -0.6785
18953TIP3   OH278349   5.713   2.659   0.191  0.5922 -0.7771  0.1885
18953TIP3    H178350   5.807   2.671   0.204  0.8273 -0.8175 -1.2644
18953TIP3    H278351   5.677   2.748   0.191  1.0313 -0.5492 -1.7345
18954TIP3   OH278352   2.628   2.454  13.374  0.1832  0.2019  0.5816
18954TIP3    H178353   2.712   2.426  13.338  0.8542  2.1606  0.4879
18954TIP3    H278354   2.616   2.401  13.453 -0.2376 -2.5774 -1.1903
18955TIP3   OH278355   3.555   5.043  15.485  0.1477 -0.6205  0.0121
18955TIP3    H178356   3.510   5.033  15.401 -1.9109 -0.7413  1.0745
18955TIP3    H278357   3.576   5.136  15.490 -1.6595 -0.1924  0.2631
18956TIP3   OH278358   3.763   3.164  15.697  0.1844 -0.0112 -0.4779
18956TIP3    H178359   3.823   3.191  15.767  0.5556  1.6949 -1.4065
18956TIP3    H278360   3.753   3.242  15.643 -4.3420  0.3882  0.5906
18957TIP3   OH278361   0.920   0.267  13.350  0.2743  0.4588 -0.0285
18957TIP3    H178362   0.903   0.180  13.315 -0.6233  0.6781 -0.1684
18957TIP3    H278363   0.848   0.283  13.411  0.1456  1.3034 -0.3886
18958TIP3   OH278364   0.248   3.566  17.054  0.0120 -0.2656 -0.2320
18958TIP3    H178365   0.278   3.631  16.990 -0.6559 -1.4728 -1.8423
18958TIP3    H278366   0.167   3.602  17.089  0.0068  0.0895 -0.5997
18959TIP3   OH278367   3.198   1.049   5.283  0.5542 -0.9031 -0.3483
18959TIP3    H178368   3.263   1.118   5.277  0.1774 -0.5590 -0.5128
18959TIP3    H278369   3.190   1.016   5.193  0.3822 -0.8315 -0.3596
18960TIP3   OH278370   3.459   2.529   4.380  0.0170 -0.1646  0.3720
18960TIP3    H178371   3.422   2.530   4.468 -0.8854 -1.8608  0.0556
18960TIP3    H278372   3.522   2.458   4.381  0.9046  0.5940 -0.0328
18961TIP3   OH278373   5.989   1.713  13.197  0.4960  0.0220 -0.2611
18961TIP3    H178374   6.004   1.757  13.114  0.8553  0.5430  0.0751
18961TIP3    H278375   6.068   1.731  13.249  0.2635 -0.2649  0.2066
18962TIP3   OH278376   3.340   5.867   2.697 -0.3520  0.4750  1.0467
18962TIP3    H178377   3.412   5.814   2.663 -0.5803  1.2993 -0.9251
18962TIP3    H278378   3.351   5.867   2.792  2.6783  1.1582  0.7772
18963TIP3   OH278379   3.778   1.424   4.860  0.4518 -0.7567  0.4431
18963TIP3    H178380   3.834   1.357   4.822  0.4471 -0.3721 -0.2590
18963TIP3    H278381   3.699   1.424   4.805 -0.2081 -1.2202  1.3527
18964TIP3   OH278382   3.881   3.211   1.078 -0.4064 -0.7280 -0.8867
18964TIP3    H178383   3.860   3.247   0.992 -1.4157 -0.8261 -0.6944
18964TIP3    H278384   3.953   3.265   1.111 -0.3157 -0.4131 -1.5978
18965TIP3   OH278385   2.633   2.708   0.518  0.1887  0.1429  0.0018
18965TIP3    H178386   2.729   2.701   0.513  0.0569 -1.0944 -1.3266
18965TIP3    H278387   2.601   2.625   0.483 -1.3888 -0.0784  1.8440
18966TIP3   OH278388   2.310   6.534  14.379  0.3508  0.1823  0.4343
18966TIP3    H178389   2.220   6.560  14.359  0.3433  2.0878  2.4837
18966TIP3    H278390   2.308   6.515  14.473  2.1306  0.5195  0.5625
18967TIP3   OH278391   5.993   6.005   1.486  0.1694 -0.2733  0.3994
18967TIP3    H178392   5.983   5.924   1.437 -0.9250 -0.3037  0.6466
18967TIP3    H278393   6.072   6.046   1.450 -0.5836 -0.3054 -1.3593
18968TIP3   OH278394   5.435   2.742  10.541  0.0781 -0.9545  0.1846
18968TIP3    H178395   5.478   2.759  10.624  0.2542  0.1757 -0.1176
18968TIP3    H278396   5.403   2.652  10.548 -2.5216  0.0111  2.6399
18969TIP3   OH278397   4.378   1.141  12.011 -0.1020  0.1259 -0.2686
18969TIP3    H178398   4.295   1.185  11.992  0.1090  0.2546 -0.9046
18969TIP3    H278399   4.357   1.083  12.085 -1.4260 -1.7300 -1.9785
18970TIP3   OH278400   4.839   0.334   1.199  0.0871  0.3852 -0.2561
18970TIP3    H178401   4.864   0.289   1.279  1.5433  2.1256  0.3243
18970TIP3    H278402   4.761   0.384   1.223  1.1190  1.7313  0.4336
18971TIP3   OH278403   2.848   1.624   6.285 -0.6755  0.2586 -0.1910
18971TIP3    H178404   2.904   1.553   6.255 -2.0104 -0.4614 -1.0516
18971TIP3    H278405   2.836   1.607   6.378 -0.9420 -0.6220 -0.3792
18972TIP3   OH278406   5.814   2.003  16.076  0.1937  0.1964 -0.5664
18972TIP3    H178407   5.906   1.996  16.101  0.5498  1.7337 -1.3319
18972TIP3    H278408   5.773   2.046  16.152  0.6222  1.7803 -1.1867
18973TIP3   OH278409   1.697   5.325   2.917 -0.1001 -0.2653 -0.3978
18973TIP3    H178410   1.783   5.295   2.887 -0.2502  0.1894 -1.3112
18973TIP3    H278411   1.635   5.266   2.876 -0.2471 -0.4890  0.1290
18974TIP3   OH278412   1.210   3.822   5.238 -0.5795 -0.8201 -0.2684
18974TIP3    H178413   1.154   3.751   5.270  0.9953 -0.8668  2.7109
18974TIP3    H278414   1.161   3.902   5.258 -0.6565 -0.9305 -0.0146
18975TIP3   OH278415   3.709   0.634  15.254  0.2783  0.6973  0.7120
18975TIP3    H178416   3.624   0.641  15.209 -0.3219  0.4646  1.7832
18975TIP3    H278417   3.696   0.565  15.319  0.9603  1.4215  1.6273
18976TIP3   OH278418   2.678   1.222  17.324 -0.2390  0.1054  0.0150
18976TIP3    H178419   2.724   1.229  17.240 -1.5461 -1.3548 -0.8947
18976TIP3    H278420   2.745   1.239  17.390  1.8976 -2.7913 -1.1731
18977TIP3   OH278421   0.348   4.017  14.887  0.2816  0.1490 -0.2317
18977TIP3    H178422   0.421   4.062  14.844  0.6014  0.1120  0.2546
18977TIP3    H278423   0.298   3.977  14.816  1.0869 -0.3362 -0.5432
18978TIP3   OH278424   3.597   1.220  17.349  0.6466  0.1107 -0.2798
18978TIP3    H178425   3.529   1.283  17.326  1.4333  0.4440 -1.7907
18978TIP3    H278426   3.605   1.164  17.272 -0.4364 -2.2921  1.2009
18979TIP3   OH278427   2.639   1.781   4.803  0.3470 -0.0720  0.4319
18979TIP3    H178428   2.599   1.828   4.876  0.0019 -0.5467  0.5550
18979TIP3    H278429   2.568   1.769   4.741  0.2451 -1.0815  0.7312
18980TIP3   OH278430   1.244   5.963  12.774 -0.6842  0.0989 -0.0888
18980TIP3    H178431   1.237   5.882  12.824  0.3755  0.4179  0.5927
18980TIP3    H278432   1.276   6.028  12.836  0.4926  0.5456 -1.1025
18981TIP3   OH278433   1.822   3.495   3.843 -0.4185  0.1400  0.2156
18981TIP3    H178434   1.908   3.466   3.811 -0.3623 -0.5840  0.9860
18981TIP3    H278435   1.799   3.431   3.910 -0.8047  1.2614  1.1788
18982TIP3   OH278436   5.926   1.093   3.379 -0.0083  0.8516 -0.3062
18982TIP3    H178437   5.937   1.154   3.306  1.7709 -0.7831 -1.4960
18982TIP3    H278438   5.921   1.148   3.457  0.6787  2.5246 -1.4092
18983TIP3   OH278439   0.991   4.895  12.604 -0.1197 -0.1492  0.5178
18983TIP3    H178440   0.968   4.818  12.552  2.7981 -0.6566 -0.1974
18983TIP3    H278441   0.961   4.874  12.693  0.6916 -2.1971  0.3609
18984TIP3   OH278442   6.490   3.470   2.918 -0.0803 -0.3039 -0.1022
18984TIP3    H178443   6.466   3.512   3.000 -1.3715 -1.0457 -0.0746
18984TIP3    H278444   6.508   3.542   2.858 -0.1812  0.2523  0.5284
18985TIP3   OH278445   6.482   2.133   4.869 -0.0687  0.0601 -0.7022
18985TIP3    H178446   6.520   2.184   4.798  0.3347  0.2699 -0.3421
18985TIP3    H278447   6.555   2.119   4.930 -0.7463  1.1981  0.4156
18986TIP3   OH278448   1.563   3.169  12.128 -0.5016 -0.4025 -1.0505
18986TIP3    H178449   1.635   3.220  12.092 -0.2903  0.3386  0.3504
18986TIP3    H278450   1.493   3.176  12.063  0.2639 -0.1248 -1.8620
18987TIP3   OH278451   4.709   0.026  14.593  0.5554  0.3118 -0.5821
18987TIP3    H178452   4.765  -0.026  14.536  1.5001  1.2495 -0.5336
18987TIP3    H278453   4.623  -0.015  14.586  1.0893 -0.7427 -1.1853
18988TIP3   OH278454   2.527   1.445   0.058  0.0558  0.3807 -0.0886
18988TIP3    H178455   2.571   1.376   0.009 -0.3642 -1.8859  2.4663
18988TIP3    H278456   2.435   1.417   0.062  0.2985 -0.4361  3.0840
18989TIP3   OH278457   6.375   6.064   4.472 -0.0624 -0.0657 -0.5027
18989TIP3    H178458   6.311   5.994   4.488 -1.1985  0.9294 -0.5410
18989TIP3    H278459   6.331   6.124   4.412  1.1861  0.2980 -1.0884
18990TIP3   OH278460   1.971   5.494  16.456 -0.2530 -0.2993  0.1717
18990TIP3    H178461   1.946   5.409  16.420 -1.0722 -1.0664  2.3523
18990TIP3    H278462   2.065   5.486  16.471 -0.2880 -0.7586  0.1723
18991TIP3   OH278463   3.380   5.522   2.414 -0.2882  0.1170 -0.7351
18991TIP3    H178464   3.451   5.581   2.388 -1.5695  3.0772  1.8948
18991TIP3    H278465   3.409   5.485   2.497 -1.9753  1.8741  0.7099
18992TIP3   OH278466   4.629   3.305   1.897  0.1155 -0.6538 -0.2286
18992TIP3    H178467   4.699   3.260   1.849  0.3016  0.0642 -0.6391
18992TIP3    H278468   4.674   3.372   1.947 -0.1508 -0.9978  0.4766
18993TIP3   OH278469   5.629   0.538   0.352  0.0243 -0.3549 -0.5264
18993TIP3    H178470   5.560   0.602   0.341 -0.0784  0.1262  2.3192
18993TIP3    H278471   5.710   0.588   0.343 -0.0413 -0.1430  0.0434
18994TIP3   OH278472   1.247   1.452   0.320  0.2108  0.1120 -0.1005
18994TIP3    H178473   1.271   1.361   0.335 -0.1688  0.2038  1.2073
18994TIP3    H278474   1.192   1.450   0.241  0.9782 -0.6453 -0.6373
18995TIP3   OH278475   6.094   0.916  13.557  0.1938  0.2212 -0.4032
18995TIP3    H178476   6.101   0.828  13.521  0.7765  1.1566 -2.7427
18995TIP3    H278477   6.046   0.904  13.639 -0.8809 -2.1022 -1.2697
18996TIP3   OH278478   1.479   3.988  16.997 -1.0835  0.0361  0.0934
18996TIP3    H178479   1.425   3.970  16.921 -0.9615 -0.2013  0.0616
18996TIP3    H278480   1.538   3.913  17.003 -1.4033 -0.1760  0.6959
18997TIP3   OH278481   4.069   3.264  16.849 -0.0121  0.1304  0.1160
18997TIP3    H178482   4.046   3.172  16.852 -1.7868  0.5322 -0.3783
18997TIP3    H278483   4.089   3.281  16.756 -1.0732  0.5344 -0.0541
18998TIP3   OH278484   1.095   4.633  14.977 -0.1902  0.8360  0.7087
18998TIP3    H178485   1.146   4.586  15.043  1.5141  0.6491 -0.6551
18998TIP3    H278486   1.009   4.591  14.979  0.2674 -0.1262  1.7988
18999TIP3   OH278487   1.402   2.888  11.464 -0.1554  0.7888 -1.0073
18999TIP3    H178488   1.384   2.836  11.542  0.1944 -0.3456 -1.6560
18999TIP3    H278489   1.454   2.962  11.496 -0.5453  0.6827 -0.0861
19000TIP3   OH278490   2.209   6.148   5.062  0.2379  0.4472  0.3830
19000TIP3    H178491   2.145   6.169   4.994  0.2773 -1.2380 -0.2279
19000TIP3    H278492   2.289   6.126   5.013 -0.0514 -1.9079  0.8455
19001TIP3   OH278493   5.329   6.665   0.961 -0.6124  0.3212 -0.0192
19001TIP3    H178494   5.409   6.659   0.909 -1.2601 -0.7532 -0.9478
19001TIP3    H278495   5.333   6.589   1.019 -1.8192 -0.8605 -1.3969
19002TIP3   OH278496   1.072   2.212   3.602  0.3124 -0.6377 -0.6198
19002TIP3    H178497   1.106   2.255   3.523 -1.1605  0.6835 -0.5788
19002TIP3    H278498   0.978   2.204   3.586  0.0612 -0.7131  0.8358
19003TIP3   OH278499   0.420   3.493   4.031 -0.3528 -0.3230  0.5583
19003TIP3    H178500   0.453   3.405   4.017  2.1719  0.7913 -1.1952
19003TIP3    H278501   0.325   3.484   4.025 -0.1610 -2.8537  0.1613
19004TIP3   OH278502   5.754   2.856   2.053  0.0247 -1.0210  0.1709
19004TIP3    H178503   5.833   2.908   2.040 -0.1443 -0.4908  1.2243
19004TIP3    H278504   5.769   2.777   2.000  1.0635 -0.7337  0.0141
19005TIP3   OH278505   6.165   6.190  16.623  0.1330  0.2492 -0.3740
19005TIP3    H178506   6.130   6.103  16.607  1.5031  0.1832 -4.1776
19005TIP3    H278507   6.233   6.178  16.689  0.0428 -1.5135 -0.5630
19006TIP3   OH278508   0.828   4.058   1.878  0.0225  0.3941 -0.6865
19006TIP3    H178509   0.888   4.066   1.804 -0.4414 -1.0776 -1.2541
19006TIP3    H278510   0.786   4.143   1.884 -1.2276  0.0300 -3.2630
19007TIP3   OH278511   6.214   5.276  15.640  0.0939  0.4901 -0.1905
19007TIP3    H178512   6.129   5.243  15.612  0.8008  0.5322 -2.6176
19007TIP3    H278513   6.226   5.357  15.591  0.5503  1.7583  1.9151
19008TIP3   OH278514   6.760   0.792  15.139  0.0993 -0.1838  0.1833
19008TIP3    H178515   6.814   0.759  15.210  0.1776 -0.8572 -0.1831
19008TIP3    H278516   6.672   0.758  15.157 -0.0992  0.4742  0.4939
19009TIP3   OH278517   4.180   3.670  12.527 -0.6351 -0.1758  0.0814
19009TIP3    H178518   4.155   3.761  12.543 -0.0982  0.2327 -1.2217
19009TIP3    H278519   4.118   3.619  12.578 -0.5280  0.9253  1.3712
19010TIP3   OH278520   1.460   6.761  12.082 -0.3427 -0.4212  0.1800
19010TIP3    H178521   1.479   6.798  11.996  0.9844  1.1149  1.0713
19010TIP3    H278522   1.502   6.675  12.080  0.3578 -0.0778 -0.4513
19011TIP3   OH278523   6.040   5.044   3.205  0.2386 -0.2397 -0.4802
19011TIP3    H178524   6.111   5.041   3.269  0.5282 -2.3742 -0.8426
19011TIP3    H278525   6.055   4.968   3.149 -1.6664 -0.0641 -1.2925
19012TIP3   OH278526   1.203   2.136  12.302  0.1367  0.6114 -0.4612
19012TIP3    H178527   1.169   2.210  12.351  1.1146  1.1591 -0.5817
19012TIP3    H278528   1.142   2.126  12.228 -0.5253  0.6825  0.0607
19013TIP3   OH278529   4.670   1.854  15.352  0.6308 -0.2206 -0.4159
19013TIP3    H178530   4.675   1.888  15.441  2.0918 -1.0395 -0.1511
19013TIP3    H278531   4.635   1.927  15.300 -1.5468 -0.1525  1.0013
19014TIP3   OH278532   0.106   0.466   4.912 -0.0042  0.2149  0.1762
19014TIP3    H178533   0.186   0.497   4.870 -0.2950  1.3070  0.4144
19014TIP3    H278534   0.128   0.377   4.941  0.5187 -0.1881 -1.3711
19015TIP3   OH278535   2.889   6.451  11.663 -0.3091  0.0523  0.2181
19015TIP3    H178536   2.825   6.396  11.707  0.1485  0.4137  1.3888
19015TIP3    H278537   2.846   6.537  11.656 -0.7509 -0.2389 -0.9611
19016TIP3   OH278538   2.364   0.135   1.463  0.2794 -0.1452  0.2302
19016TIP3    H178539   2.443   0.092   1.496  0.0210  0.5922  1.9285
19016TIP3    H278540   2.396   0.211   1.416  0.6085 -0.0438  0.6122
19017TIP3   OH278541   2.661   1.519   1.726  0.5205 -0.4121 -0.6596
19017TIP3    H178542   2.719   1.479   1.661  0.1715  0.1027 -1.2921
19017TIP3    H278543   2.719   1.574   1.779  0.6489 -0.0499 -1.1664
19018TIP3   OH278544   1.924   6.648  11.349  0.1357 -0.7505  0.5416
19018TIP3    H178545   1.923   6.556  11.373  1.7865 -0.8444  0.4077
19018TIP3    H278546   2.017   6.667  11.333 -0.2595  0.7465 -0.1395
19019TIP3   OH278547   5.307   1.705   3.681 -0.0563  0.1036  0.2484
19019TIP3    H178548   5.216   1.676   3.668 -0.0771 -0.1354  0.8944
19019TIP3    H278549   5.325   1.686   3.773  0.5851  0.3379  0.1735
19020TIP3   OH278550   1.363   3.923   4.879  0.0588 -0.1972 -0.3746
19020TIP3    H178551   1.458   3.935   4.885  0.0153  0.9574 -1.5462
19020TIP3    H278552   1.329   4.011   4.863 -1.0456 -0.8199 -1.6202
19021TIP3   OH278553   4.951   0.611  13.065 -0.0603 -0.4999  0.4105
19021TIP3    H178554   4.892   0.675  13.025 -1.1317 -2.0087 -0.5404
19021TIP3    H278555   5.032   0.661  13.083 -1.1064  1.2712  0.4450
19022TIP3   OH278556   1.998   1.717   4.007 -0.6756  0.1768  0.3145
19022TIP3    H178557   1.909   1.750   4.012 -0.6020  0.5973 -0.9352
19022TIP3    H278558   1.988   1.624   3.987 -0.8298  0.2500  0.0550
19023TIP3   OH278559   2.926   5.721   0.870 -0.0373 -0.1926  0.1815
19023TIP3    H178560   2.932   5.740   0.777  0.0071  2.6295  0.6571
19023TIP3    H278561   3.018   5.711   0.898 -0.0969 -3.8462 -0.4364
19024TIP3   OH278562   0.644   4.529   4.569  0.3939 -0.1172  0.1393
19024TIP3    H178563   0.652   4.464   4.639  0.9772 -0.7707 -0.5193
19024TIP3    H278564   0.659   4.613   4.613 -1.0706 -0.3306  1.1443
19025TIP3   OH278565   4.121   4.353  15.336 -0.3537  0.3673  0.8381
19025TIP3    H178566   4.089   4.302  15.261 -1.9958  0.9078  1.1431
19025TIP3    H278567   4.096   4.301  15.413  1.7633 -0.4391  1.0660
19026TIP3   OH278568   2.952   5.371   3.408 -0.2954  0.4599  0.6837
19026TIP3    H178569   3.014   5.413   3.467  0.9952 -0.8951  0.3469
19026TIP3    H278570   2.951   5.279   3.436 -1.7793  0.3362  0.3453
19027TIP3   OH278571   4.177   1.592  11.823 -0.8711 -0.5032 -0.0543
19027TIP3    H178572   4.117   1.613  11.894  0.3167 -0.2083  0.8866
19027TIP3    H278573   4.190   1.498  11.828 -1.3854 -0.5975 -0.3838
19028TIP3   OH278574   3.616   3.017  15.292  0.6147 -0.5657 -0.4676
19028TIP3    H178575   3.620   3.113  15.294  0.4173 -0.5594 -0.2231
19028TIP3    H278576   3.683   2.989  15.354  1.1907 -0.6065 -1.0991
19029TIP3   OH278577   3.965   3.549  12.994 -0.5827 -0.3555 -0.4625
19029TIP3    H178578   3.875   3.516  12.998 -2.2469  3.5818 -1.0566
19029TIP3    H278579   3.984   3.577  13.084  0.2589 -1.5084 -0.2601
19030TIP3   OH278580   2.357   1.325   1.139  0.0697 -0.2399  0.7808
19030TIP3    H178581   2.384   1.349   1.228  1.2155  1.4447  0.0294
19030TIP3    H278582   2.290   1.389   1.116  0.1671 -0.3352  0.2204
19031TIP3   OH278583   3.730   4.039  13.450 -0.6816  0.0644 -0.0060
19031TIP3    H178584   3.717   4.022  13.357 -1.8009 -0.7649  0.2863
19031TIP3    H278585   3.768   3.959  13.485 -0.9712  0.0961  0.3910
19032TIP3   OH278586   3.932   3.804  13.912 -0.4150 -0.1608 -0.1970
19032TIP3    H178587   3.988   3.879  13.890 -0.6129  0.0629  0.0516
19032TIP3    H278588   3.985   3.727  13.891 -0.2236  0.0484 -0.4957
19033TIP3   OH278589   5.788   5.055  12.454 -0.3280  0.3237 -0.0133
19033TIP3    H178590   5.711   5.007  12.484 -0.2637  0.2809  0.0838
19033TIP3    H278591   5.759   5.146  12.451 -1.3144 -0.0037 -2.9195
19034TIP3   OH278592   3.339   2.578   5.986 -0.2722  0.2605  0.4730
19034TIP3    H178593   3.368   2.600   6.074 -1.2922  1.8712  0.4419
19034TIP3    H278594   3.262   2.523   5.999  0.7295 -1.1872  0.5484
19035TIP3   OH278595   1.000   0.614  14.415  0.1220  0.5892 -0.0839
19035TIP3    H178596   1.033   0.596  14.503  0.9320  0.1857 -0.4632
19035TIP3    H278597   1.065   0.673  14.377 -0.1187  0.5956 -0.4895
19036TIP3   OH278598   4.967   1.099  13.309 -0.1211 -0.5158  0.3301
19036TIP3    H178599   5.011   1.162  13.251 -0.1483 -0.9663 -0.1912
19036TIP3    H278600   4.951   1.023  13.253  0.8717 -1.4124  1.2109
19037TIP3   OH278601   2.001   0.062  16.334 -1.0396  0.1563 -0.4124
19037TIP3    H178602   2.047   0.017  16.264  0.8961  1.7356 -0.2239
19037TIP3    H278603   2.054   0.140  16.352 -2.1965  0.4920  1.8866
19038TIP3   OH278604   1.927   2.713   3.518  0.0446 -0.2554 -0.1238
19038TIP3    H178605   1.961   2.652   3.583 -0.6783  0.6945  1.1929
19038TIP3    H278606   1.973   2.690   3.437  1.2265 -1.2435  0.7888
19039TIP3   OH278607   0.895   6.110   2.468 -0.4385  0.0180  0.1314
19039TIP3    H178608   0.948   6.040   2.506 -0.1774 -0.4758 -1.0915
19039TIP3    H278609   0.818   6.066   2.432 -0.7730  0.4928  0.2522
19040TIP3   OH278610   1.569   2.422   1.199 -0.3181  0.1389 -0.3323
19040TIP3    H178611   1.506   2.432   1.128 -0.1469  1.7975 -0.2943
19040TIP3    H278612   1.654   2.410   1.155 -0.4103 -0.3336 -0.3876
19041TIP3   OH278613   3.700   5.580  15.152  0.1726  0.0266 -0.3419
19041TIP3    H178614   3.789   5.602  15.125  0.1325  0.2036 -0.3259
19041TIP3    H278615   3.644   5.645  15.110 -0.0504 -0.7047 -1.1969
19042TIP3   OH278616   5.028   5.627  14.554  0.1508  0.1698  0.1919
19042TIP3    H178617   5.097   5.692  14.572  1.3805 -1.0801  0.1671
19042TIP3    H278618   5.020   5.578  14.636 -0.5413  0.1314  0.1089
19043TIP3   OH278619   2.032   0.325   6.365  0.0689  0.4574 -0.1118
19043TIP3    H178620   2.086   0.400   6.392  2.1279 -0.6972 -0.8011
19043TIP3    H278621   2.033   0.328   6.270  0.3769 -0.5828 -0.1435
19044TIP3   OH278622   0.706   1.696  12.475  0.0784 -0.7256  0.1998
19044TIP3    H178623   0.695   1.778  12.427 -1.6535 -0.2007  1.4150
19044TIP3    H278624   0.711   1.722  12.567 -2.0469 -2.0395  0.7619
19045TIP3   OH278625   6.490   5.826  15.899  0.1432 -0.4091  0.2338
19045TIP3    H178626   6.582   5.849  15.905 -0.0084  0.6916 -1.0304
19045TIP3    H278627   6.481   5.745  15.950  1.6051 -0.0344  1.1324
19046TIP3   OH278628   1.821   0.258   0.943 -0.3763  0.2968  0.0012
19046TIP3    H178629   1.891   0.262   0.878 -1.7642 -0.4597 -1.6194
19046TIP3    H278630   1.867   0.254   1.027  1.4703  1.7199 -0.8669
19047TIP3   OH278631   0.683   5.177   2.835 -0.4534  0.4469 -0.0732
19047TIP3    H178632   0.743   5.125   2.782  1.8873  2.3338  0.5306
19047TIP3    H278633   0.622   5.214   2.771 -0.5031 -0.8945 -0.8331
19048TIP3   OH278634   2.938   6.044   2.275 -0.0365  0.2442  0.2120
19048TIP3    H178635   3.003   5.998   2.327 -0.5630  0.1458  0.7936
19048TIP3    H278636   2.899   6.106   2.335 -1.8661 -1.0523  0.4294
19049TIP3   OH278637   3.573   6.610   3.692 -0.2650  0.1926 -0.2295
19049TIP3    H178638   3.560   6.645   3.780  1.3066  0.3473 -0.0183
19049TIP3    H278639   3.639   6.542   3.704  0.4298  0.6408 -1.3721
19050TIP3   OH278640   0.518   4.357   6.297 -0.0681  0.1117 -0.0152
19050TIP3    H178641   0.602   4.386   6.261 -0.9235  0.2179 -2.0665
19050TIP3    H278642   0.467   4.437   6.308 -0.6617 -0.1385 -0.8748
19051TIP3   OH278643   6.666   6.123  15.457 -0.0983  0.0837  0.3902
19051TIP3    H178644   6.650   6.034  15.491 -0.5466  0.2812  0.7114
19051TIP3    H278645   6.648   6.116  15.363  0.7060 -0.3625  0.2606
19052TIP3   OH278646   5.196   5.160  12.118 -0.0232  0.0544 -0.5503
19052TIP3    H178647   5.256   5.086  12.127 -1.2516 -0.9952 -0.7236
19052TIP3    H278648   5.134   5.133  12.050 -0.4370  1.2833 -0.6822
19053TIP3   OH278649   0.782   2.799  12.352  0.3733  0.4844  0.0934
19053TIP3    H178650   0.761   2.890  12.375  0.4843  1.0395 -1.8554
19053TIP3    H278651   0.696   2.759  12.336  0.2065 -0.2195  2.3310
19054TIP3   OH278652   4.270   4.205   4.300  0.0554  0.4405 -0.3267
19054TIP3    H178653   4.212   4.259   4.246  0.5543  1.1661 -0.1546
19054TIP3    H278654   4.298   4.264   4.370  1.8480  0.4436 -0.9985
19055TIP3   OH278655   5.404   3.515   2.599  0.7168 -0.0422  0.3832
19055TIP3    H178656   5.425   3.443   2.540 -0.0624  0.5576 -0.6586
19055TIP3    H278657   5.409   3.476   2.687  1.9572 -0.9253 -0.0525
19056TIP3   OH278658   0.477   1.548  16.731  0.2086 -0.5394 -0.6866
19056TIP3    H178659   0.521   1.536  16.647 -0.8212 -0.1766 -1.2860
19056TIP3    H278660   0.456   1.459  16.760  0.4137 -0.6526 -0.8811
19057TIP3   OH278661   3.209   0.395  12.842  0.2150 -0.1941 -0.1266
19057TIP3    H178662   3.209   0.311  12.889  3.1034  0.9952  2.3514
19057TIP3    H278663   3.275   0.384  12.773  0.7605  0.0789  0.3440
19058TIP3   OH278664   1.369   0.099   1.426  0.0072  0.0028  0.5292
19058TIP3    H178665   1.283   0.082   1.464 -1.1767 -0.0293 -1.9884
19058TIP3    H278666   1.419   0.019   1.443 -1.1237 -0.7737  0.2925
19059TIP3   OH278667   5.678   2.583  12.396 -0.2537  0.1063  0.0301
19059TIP3    H178668   5.653   2.676  12.390 -0.1698  0.0893 -0.7153
19059TIP3    H278669   5.770   2.582  12.368 -0.1612 -0.1582  0.3484
19060TIP3   OH278670   0.612   5.327   3.723  0.4263 -0.0651 -0.4529
19060TIP3    H178671   0.629   5.234   3.738 -0.8712 -0.1456  0.7213
19060TIP3    H278672   0.694   5.370   3.747  1.1860 -0.9251 -1.4258
19061TIP3   OH278673   3.730   1.348  13.723  0.5356 -0.7942  0.2901
19061TIP3    H178674   3.793   1.419  13.734 -0.5117  0.2606 -0.2891
19061TIP3    H278675   3.657   1.371  13.781  0.2653 -1.4982  0.2359
19062TIP3   OH278676   5.719   4.337  16.607  0.0121 -0.1083 -0.4680
19062TIP3    H178677   5.699   4.392  16.531 -0.5773  0.2251 -0.0891
19062TIP3    H278678   5.654   4.364  16.673 -2.8437 -3.7839 -1.4403
19063TIP3   OH278679   4.297   4.585   4.739  0.0480  0.4029  0.3759
19063TIP3    H178680   4.251   4.617   4.661 -2.3148 -0.0540  1.4934
19063TIP3    H278681   4.229   4.542   4.791  2.2670 -2.8838  0.8585
19064TIP3   OH278682   5.928   1.774  16.691 -0.2237  0.2298 -0.0735
19064TIP3    H178683   5.848   1.805  16.649 -0.9669  0.4984  1.4685
19064TIP3    H278684   5.934   1.682  16.667 -1.6640 -0.1043  0.7405
19065TIP3   OH278685   4.070   0.953  16.957  0.2770  0.0807  0.0802
19065TIP3    H178686   4.139   0.909  16.906 -0.6326  1.7610 -2.8641
19065TIP3    H278687   4.041   0.887  17.020  1.7066 -2.1210 -1.4201
19066TIP3   OH278688   3.770   1.162  16.987 -0.1557 -0.3861  0.9318
19066TIP3    H178689   3.797   1.245  17.026 -0.8750  0.4485 -0.2591
19066TIP3    H278690   3.850   1.126  16.949 -0.1484  0.6863 -0.1411
19067TIP3   OH278691   6.306   4.956  12.254 -0.7636  0.3708 -0.0008
19067TIP3    H178692   6.326   5.010  12.331 -1.1282  1.0995 -0.4073
19067TIP3    H278693   6.212   4.970  12.239 -0.5177  0.9467 -1.1127
19068TIP3   OH278694   0.538   0.550   4.025  0.2111  0.1464 -0.2628
19068TIP3    H178695   0.577   0.518   3.943 -0.9143  1.4251 -1.3352
19068TIP3    H278696   0.532   0.645   4.013  0.4725  0.4234  1.5260
19069TIP3   OH278697   0.428   1.666   3.052 -0.3843  0.0802  0.1824
19069TIP3    H178698   0.366   1.718   3.103 -1.4134 -1.7194  0.8689
19069TIP3    H278699   0.472   1.611   3.117  0.0642 -0.5103 -0.5974
19070TIP3   OH278700   4.823   1.727   4.723 -0.1547 -0.1393 -0.2883
19070TIP3    H178701   4.910   1.692   4.703  0.8854  2.6956 -1.2740
19070TIP3    H278702   4.762   1.667   4.681  1.5194 -0.5006 -2.3528
19071TIP3   OH278703   4.529   1.250  11.542 -0.1391  0.0014 -0.0590
19071TIP3    H178704   4.435   1.268  11.545  0.1499  1.8182 -0.5071
19071TIP3    H278705   4.536   1.161  11.508 -1.6977 -0.1059 -0.1409
19072TIP3   OH278706   3.432   5.973   5.321  0.2721  0.1694  0.0419
19072TIP3    H178707   3.422   6.064   5.347 -1.2102 -0.8619  3.7068
19072TIP3    H278708   3.512   5.944   5.365 -0.4884 -0.8128  0.8350
19073TIP3   OH278709   4.174   1.668  16.013 -0.3639  0.5146 -0.1677
19073TIP3    H178710   4.255   1.624  16.038 -0.0872  1.2957  0.3627
19073TIP3    H278711   4.147   1.716  16.091 -0.2199  1.9144 -0.9360
19074TIP3   OH278712   2.548   3.938   4.777 -0.3112  0.6149 -0.2032
19074TIP3    H178713   2.583   3.881   4.709 -1.5990 -1.5217  0.8001
19074TIP3    H278714   2.582   4.025   4.757  1.6574 -0.4768 -1.8964
19075TIP3   OH278715   0.388   2.719   2.613  0.1303 -0.9528 -0.3281
19075TIP3    H178716   0.433   2.643   2.651 -0.5790 -1.0542  0.3168
19075TIP3    H278717   0.316   2.738   2.673  0.6102  0.5729 -0.1919
19076TIP3   OH278718   5.968   6.719   3.265  0.4022 -0.5844  0.4436
19076TIP3    H178719   5.893   6.664   3.291  0.6899 -1.3221 -0.2365
19076TIP3    H278720   6.032   6.704   3.335  0.5956 -1.3703  0.1109
19077TIP3   OH278721   4.578   1.263   2.068 -0.3218 -0.4791 -0.5313
19077TIP3    H178722   4.627   1.327   2.120 -1.8939  2.1545 -2.0545
19077TIP3    H278723   4.538   1.206   2.133 -0.6138  1.4620  1.1099
19078TIP3   OH278724   0.414   1.678  17.184  0.6410 -0.1214  0.1003
19078TIP3    H178725   0.452   1.747  17.131  0.1486 -0.2293 -0.4006
19078TIP3    H278726   0.357   1.630  17.124 -0.6803  0.3519  0.9342
19079TIP3   OH278727   3.757   2.700   2.696  0.0741  0.4687 -0.1532
19079TIP3    H178728   3.726   2.667   2.611  0.5098 -0.6386  0.1087
19079TIP3    H278729   3.842   2.740   2.677  0.1335  0.2958 -0.2499
19080TIP3   OH278730   3.341   1.493   4.874  0.0809 -0.2437  0.5172
19080TIP3    H178731   3.394   1.499   4.954  0.7958  1.3676 -0.0376
19080TIP3    H278732   3.265   1.440   4.900 -0.0772  0.8445  2.4713
19081TIP3   OH278733   1.588   4.404   1.570 -0.5437  0.6903 -0.3671
19081TIP3    H178734   1.550   4.484   1.533  0.3414  1.4513  0.3110
19081TIP3    H278735   1.677   4.401   1.534 -0.0664  0.8201  0.7443
19082TIP3   OH278736   3.895   2.446  17.299 -0.3857 -0.2483 -0.1208
19082TIP3    H178737   3.946   2.368  17.321  0.7096  0.4872  0.0145
19082TIP3    H278738   3.911   2.460  17.206 -0.1508  0.1264 -0.0228
19083TIP3   OH278739   1.779   3.745   0.175 -0.0142 -0.0550  0.1377
19083TIP3    H178740   1.847   3.727   0.110  0.2873  1.7462 -0.0810
19083TIP3    H278741   1.698   3.748   0.125  0.3105  2.0978 -0.3319
19084TIP3   OH278742   2.910   4.184   5.775 -0.8307 -0.3479 -0.1131
19084TIP3    H178743   2.935   4.161   5.864  1.9686  0.0174 -0.7317
19084TIP3    H278744   2.814   4.193   5.779 -1.2377 -3.7761  2.0181
19085TIP3   OH278745   2.305   3.381  13.221  0.1688 -0.3370  0.1549
19085TIP3    H178746   2.308   3.475  13.201 -2.1823 -0.5272 -1.4905
19085TIP3    H278747   2.278   3.377  13.313  0.8394  0.5974  0.4003
19086TIP3   OH278748   4.775   6.413   2.269 -0.1758  0.0020  1.1353
19086TIP3    H178749   4.821   6.485   2.226 -1.9129  0.5479  0.0944
19086TIP3    H278750   4.766   6.440   2.360  0.0672  0.6450  0.9688
19087TIP3   OH278751   1.376   5.369  11.543  0.3222  0.0689 -0.0516
19087TIP3    H178752   1.400   5.314  11.469 -0.2997 -1.0381  0.5353
19087TIP3    H278753   1.288   5.402  11.521 -1.2853 -2.7962  1.4692
19088TIP3   OH278754   4.289   0.861  13.523 -0.0127  0.2337 -0.0840
19088TIP3    H178755   4.213   0.905  13.562  0.1941  1.4441 -0.9704
19088TIP3    H278756   4.325   0.809  13.595 -2.0683 -0.9641  0.1818
19089TIP3   OH278757   0.944   4.504  12.894  0.0092  0.0736  0.3494
19089TIP3    H178758   0.872   4.491  12.832 -0.7235 -1.5472  1.4736
19089TIP3    H278759   0.983   4.417  12.904  1.8210  0.8220  0.1720
19090TIP3   OH278760   2.817   3.428  13.180 -0.4105  0.3187  0.7064
19090TIP3    H178761   2.736   3.448  13.133  0.3386  0.4931 -0.5672
19090TIP3    H278762   2.839   3.509  13.225 -0.2151  0.7138 -0.0843
19091TIP3   OH278763   6.024   5.806  11.892  0.2215 -0.1811  0.2664
19091TIP3    H178764   5.982   5.726  11.860  1.0721  0.3387 -2.3722
19091TIP3    H278765   6.088   5.829  11.825 -0.7176  3.2969  0.3644
19092TIP3   OH278766   2.771   3.499   5.213 -0.0376  0.1500  1.0282
19092TIP3    H178767   2.680   3.471   5.204 -0.1949  0.9506 -0.0545
19092TIP3    H278768   2.773   3.587   5.177  1.0922  0.3100  1.4358
19093TIP3   OH278769   0.179   4.280  14.298  0.3602  0.7861  0.3695
19093TIP3    H178770   0.148   4.212  14.357  1.4606 -0.9952 -1.0215
19093TIP3    H278771   0.100   4.316  14.258 -0.2339  0.4102  1.1934
19094TIP3   OH278772   5.044   0.077  14.435 -0.4965 -0.2773  0.0376
19094TIP3    H178773   5.042   0.007  14.501  1.5966 -0.0804  0.3646
19094TIP3    H278774   5.130   0.068  14.393 -0.5722  1.5128 -0.5767
19095TIP3   OH278775   6.713   2.072  16.320  0.1530  0.1988  0.4364
19095TIP3    H178776   6.761   1.990  16.328  2.0157  1.2321  0.4775
19095TIP3    H278777   6.781   2.140  16.327 -0.8007  1.7065 -3.0760
19096TIP3   OH278778   5.094   3.612   3.967  0.4782  0.4879  0.0969
19096TIP3    H178779   5.172   3.577   3.923  0.2338 -0.7240  0.5816
19096TIP3    H278780   5.021   3.581   3.914  0.2553  0.2106  0.5559
19097TIP3   OH278781   0.505   1.603   2.301  0.2723 -0.1300  0.6200
19097TIP3    H178782   0.535   1.659   2.372  3.6510  0.0068 -0.7411
19097TIP3    H278783   0.532   1.515   2.326  0.6278 -0.2173 -0.0547
19098TIP3   OH278784   1.566   4.434   6.036 -0.6810 -0.0435  0.4169
19098TIP3    H178785   1.519   4.455   6.116  0.1270 -0.1544  0.9345
19098TIP3    H278786   1.581   4.519   5.994 -0.6456  0.0668  0.6503
19099TIP3   OH278787   0.917   1.976   2.026  0.1590  0.7967 -0.4174
19099TIP3    H178788   0.888   1.910   1.963 -0.6121 -0.1764  0.9134
19099TIP3    H278789   0.843   2.037   2.031 -0.0486  0.5128  0.0194
19100TIP3   OH278790   6.224   0.459  13.869 -0.2604 -0.1362  0.4608
19100TIP3    H178791   6.290   0.463  13.938 -0.3510 -0.5913  0.5782
19100TIP3    H278792   6.260   0.399  13.804  0.6054  1.6074 -0.7469
19101TIP3   OH278793   0.377   4.441   2.714  0.3098 -0.1621 -0.5844
19101TIP3    H178794   0.385   4.351   2.744  1.6889  0.4884  1.2435
19101TIP3    H278795   0.451   4.453   2.654 -0.2174 -0.3928 -1.2917
19102TIP3   OH278796   2.300   0.865   2.018 -0.0377 -0.1476  0.5176
19102TIP3    H178797   2.361   0.810   1.968  0.4088  1.0307 -0.2657
19102TIP3    H278798   2.301   0.949   1.973 -1.0345  0.3852  1.4503
19103TIP3   OH278799   5.745   0.556  13.187 -0.1409 -0.5075 -0.5273
19103TIP3    H178800   5.778   0.645  13.178 -0.3373 -0.4089 -0.2969
19103TIP3    H278801   5.821   0.505  13.215  0.2650 -0.6549 -1.8559
19104TIP3   OH278802   3.551   3.955   6.078 -0.0017  0.4670 -0.2120
19104TIP3    H178803   3.456   3.944   6.081  0.1805 -1.3916  0.3242
19104TIP3    H278804   3.581   3.926   6.164  1.3037 -2.6684 -1.5700
19105TIP3   OH278805   3.428   5.505   1.175  0.3780  0.0103 -0.1107
19105TIP3    H178806   3.399   5.596   1.161  0.2862 -0.1445 -1.0005
19105TIP3    H278807   3.516   5.502   1.138 -0.2493 -0.6648 -1.6523
19106TIP3   OH278808   4.166   1.044  14.929  0.1321 -0.4852  0.0054
19106TIP3    H178809   4.170   0.954  14.961 -0.1026 -1.1938 -1.8037
19106TIP3    H278810   4.109   1.040  14.852  0.3567  1.1595 -0.2970
19107TIP3   OH278811   4.389   0.241   3.478  0.3999  0.8871  0.9356
19107TIP3    H178812   4.361   0.321   3.434 -0.7720  0.9477  1.7360
19107TIP3    H278813   4.470   0.266   3.524  0.8290  1.2032  0.0350
19108TIP3   OH278814   5.707   6.422  14.516 -0.2557  0.2406  0.5130
19108TIP3    H178815   5.648   6.474  14.461 -0.9965 -0.3240  0.7654
19108TIP3    H278816   5.783   6.406  14.461 -0.5964  0.4589 -0.0288
19109TIP3   OH278817   4.687   4.936   4.641  0.4592  0.5152  0.3549
19109TIP3    H178818   4.626   4.863   4.631 -1.6630  1.8473  2.4521
19109TIP3    H278819   4.765   4.898   4.680 -0.4407 -0.7328  1.0093
19110TIP3   OH278820   5.755   5.992  17.180  0.4407 -0.4209  0.4384
19110TIP3    H178821   5.662   5.986  17.205  0.1425 -3.0912 -0.9138
19110TIP3    H278822   5.800   5.934  17.242  1.1067  0.2271  0.5751
19111TIP3   OH278823   2.641   0.273   0.936  0.1074  0.5473  0.1777
19111TIP3    H178824   2.626   0.264   1.030 -0.8873  2.8743  0.3025
19111TIP3    H278825   2.609   0.191   0.899 -1.4851  0.4365  1.6710
19112TIP3   OH278826   2.412   1.205   5.578  0.0992 -0.6222 -0.1936
19112TIP3    H178827   2.483   1.215   5.642 -1.1021 -2.2532  1.5042
19112TIP3    H278828   2.363   1.129   5.609 -2.3856  0.4253 -1.3217
19113TIP3   OH278829   1.050   6.791  13.155  0.8044 -0.2437 -0.3190
19113TIP3    H178830   0.967   6.788  13.204  1.1689  0.2352  0.3404
19113TIP3    H278831   1.068   6.699  13.135 -0.0613 -0.3265 -0.7760
19114TIP3   OH278832   6.515   4.051  12.367 -0.0859  1.0644  0.7234
19114TIP3    H178833   6.455   4.002  12.311  0.8390 -0.7490  1.2654
19114TIP3    H278834   6.579   4.087  12.307  0.9341 -0.9208  0.5477
19115TIP3   OH278835   1.037   2.864  14.642 -0.5255  0.9584  0.2732
19115TIP3    H178836   1.105   2.846  14.707  1.6184 -1.3007 -2.3309
19115TIP3    H278837   1.071   2.939  14.593 -0.3007  0.3933 -0.4608
19116TIP3   OH278838   1.676   4.575   5.625 -0.4989  0.2930  0.0223
19116TIP3    H178839   1.710   4.492   5.657 -1.5326 -1.2549 -2.6338
19116TIP3    H278840   1.746   4.610   5.570  0.5732  2.0870  2.3320
19117TIP3   OH278841   0.722   0.905  15.989 -0.1521 -0.2617  0.1162
19117TIP3    H178842   0.743   0.910  15.895  0.1311 -0.6479  0.1549
19117TIP3    H278843   0.805   0.926  16.033 -0.2460 -0.2274  0.2754
19118TIP3   OH278844   5.380   4.024  14.644  0.1330 -0.2954  0.2555
19118TIP3    H178845   5.444   4.016  14.715 -1.7300  1.2685  2.2735
19118TIP3    H278846   5.347   4.114  14.652 -0.0578 -0.0015 -2.7434
19119TIP3   OH278847   6.400   3.877   0.411  0.8965 -0.2272 -0.4215
19119TIP3    H178848   6.333   3.822   0.372  2.1279 -0.1705 -2.7789
19119TIP3    H278849   6.430   3.934   0.340  1.1606  2.0428  1.3787
19120TIP3   OH278850   5.882   2.378   0.377 -0.2922  0.0937 -0.5824
19120TIP3    H178851   5.830   2.412   0.450  0.4187  2.1835 -0.9717
19120TIP3    H278852   5.827   2.391   0.300 -1.6612 -3.4772 -0.3873
19121TIP3   OH278853   2.712   3.541   1.612  0.3430 -0.0929  0.0516
19121TIP3    H178854   2.675   3.535   1.700  0.6878  1.2605  0.3082
19121TIP3    H278855   2.789   3.484   1.616  0.2731 -0.1612  0.5796
19122TIP3   OH278856   3.123   1.869  15.558 -0.0081 -0.2952 -0.7402
19122TIP3    H178857   3.067   1.822  15.496  0.6074  0.8767 -2.2487
19122TIP3    H278858   3.119   1.960  15.530 -1.7271  0.8004  2.5348
19123TIP3   OH278859   6.007   4.123  16.415 -0.4258  0.4389  0.1424
19123TIP3    H178860   6.021   4.211  16.380 -0.1851  1.1126  1.8349
19123TIP3    H278861   6.094   4.092  16.437 -0.3535 -0.8278 -1.7256
19124TIP3   OH278862   2.755   6.192  13.463 -0.1541  0.1850  0.0082
19124TIP3    H178863   2.698   6.176  13.388 -2.2999  2.7742  0.9344
19124TIP3    H278864   2.744   6.285  13.481  1.6751  0.0010  2.4598
19125TIP3   OH278865   3.402   4.283  12.984  0.0289  0.1746  0.0075
19125TIP3    H178866   3.429   4.368  12.950 -0.0619 -0.3936 -1.5229
19125TIP3    H278867   3.479   4.227  12.974  0.2270  0.1526  1.4002
19126TIP3   OH278868   1.931   6.620  13.478  0.2005 -0.1069  0.0612
19126TIP3    H178869   1.999   6.663  13.427 -0.8966  1.9998  0.2384
19126TIP3    H278870   1.932   6.667  13.562 -1.7031  0.2589 -0.0842
19127TIP3   OH278871   2.175   6.253  15.426 -0.4325  0.1176  0.7518
19127TIP3    H178872   2.108   6.313  15.393 -0.5451  0.0069  0.7790
19127TIP3    H278873   2.257   6.302  15.418 -0.3129 -0.2856 -0.6765
19128TIP3   OH278874   3.617   6.596  13.400  0.2012 -0.6388  0.3850
19128TIP3    H178875   3.656   6.651  13.333 -1.9990  1.4032  0.6507
19128TIP3    H278876   3.549   6.650  13.440  0.9949 -1.9290  3.9210
19129TIP3   OH278877   2.899   6.011  15.697 -0.1223  0.0915 -0.4101
19129TIP3    H178878   2.902   5.924  15.736  0.6174  0.4367  0.3241
19129TIP3    H278879   2.807   6.036  15.702 -0.4958 -0.9708 -1.3942
19130TIP3   OH278880   0.579   6.131   2.532 -0.0569  0.1452  0.2413
19130TIP3    H178881   0.520   6.201   2.503  1.2852  0.9718 -0.6136
19130TIP3    H278882   0.540   6.099   2.613 -2.0872  0.1168 -0.6916
19131TIP3   OH278883   6.609   2.152   4.636 -0.0818  0.2709 -0.5507
19131TIP3    H178884   6.682   2.099   4.666 -1.1167 -1.5019 -1.0130
19131TIP3    H278885   6.648   2.234   4.608  1.4659  0.1575  1.1214
19132TIP3   OH278886   3.922   1.640  16.952 -0.7999  0.1162  0.0903
19132TIP3    H178887   4.008   1.645  16.911 -2.6206  0.5500 -4.1161
19132TIP3    H278888   3.915   1.722  17.002  0.6549  0.7997 -0.7683
19133TIP3   OH278889   2.076   4.670  17.328  0.1087  0.3090 -0.7554
19133TIP3    H178890   1.992   4.700  17.364 -0.2653 -0.2290 -1.1743
19133TIP3    H278891   2.061   4.665  17.234  0.8996  1.1110 -0.9396
19134TIP3   OH278892   2.582   1.718   0.735  0.2156  0.3790  0.4086
19134TIP3    H178893   2.611   1.650   0.795 -0.4122  2.4960  3.3274
19134TIP3    H278894   2.492   1.693   0.713  0.0683  0.1313  1.2622
19135TIP3   OH278895   5.422   5.923   2.419 -0.0235 -0.5582 -0.7906
19135TIP3    H178896   5.372   5.864   2.363 -0.1946 -1.5652  0.3992
19135TIP3    H278897   5.487   5.867   2.461 -1.7444 -0.4830  2.2670
19136TIP3   OH278898   4.816   1.083   2.119 -0.0541 -0.0733  0.0623
19136TIP3    H178899   4.822   0.987   2.123 -0.2674 -0.0614  1.0944
19136TIP3    H278900   4.746   1.101   2.057 -2.2586 -0.6951  2.2077
19137TIP3   OH278901   4.601   1.752   4.100  0.2687  0.0462  0.1613
19137TIP3    H178902   4.695   1.754   4.112  0.4681  0.6335 -1.2581
19137TIP3    H278903   4.587   1.693   4.026 -0.7266 -2.1546  1.9880
19138TIP3   OH278904   2.797   6.104   0.550 -0.8691  0.1799  0.4154
19138TIP3    H178905   2.777   6.090   0.458 -1.0213  1.1699  0.2852
19138TIP3    H278906   2.749   6.183   0.574 -1.5500 -0.5508  1.5918
19139TIP3   OH278907   2.609   0.856   0.922  0.4166  0.1792 -0.0871
19139TIP3    H178908   2.652   0.771   0.923 -0.1696 -0.1430  1.9470
19139TIP3    H278909   2.520   0.838   0.893  0.5943  0.2777 -0.7049
19140TIP3   OH278910   0.612   0.302  15.273 -0.0336  0.0566 -0.4592
19140TIP3    H178911   0.649   0.352  15.200  4.0262 -2.7885 -0.6629
19140TIP3    H278912   0.648   0.343  15.351  0.0326 -0.1295 -0.3914
19141TIP3   OH278913   0.939   0.654   3.757  0.4682  0.4755  0.6376
19141TIP3    H178914   1.021   0.637   3.803 -0.2828  0.2497  1.9422
19141TIP3    H278915   0.872   0.646   3.825 -0.5642  1.4850 -0.2371
19142TIP3   OH278916   2.036   1.848   5.629 -0.1578  0.5098 -0.1632
19142TIP3    H178917   2.119   1.877   5.591  0.1104 -0.2024 -0.1283
19142TIP3    H278918   2.019   1.763   5.590  0.7832 -0.8689  2.2259
19143TIP3   OH278919   0.617   5.382   1.645  0.0184 -0.3159 -0.2299
19143TIP3    H178920   0.656   5.312   1.697 -0.3163 -0.7364 -0.5455
19143TIP3    H278921   0.605   5.454   1.708  1.4945 -0.0905 -0.1717
19144TIP3   OH278922   1.340   2.949  16.345 -0.4360  0.2319 -0.2912
19144TIP3    H178923   1.337   2.874  16.286  0.1113 -0.3859  0.4416
19144TIP3    H278924   1.300   3.020  16.296  0.7467 -0.0366 -1.7283
19145TIP3   OH278925   3.351   2.165   4.399 -0.2784 -0.1977 -0.0111
19145TIP3    H178926   3.297   2.241   4.382  0.1887  0.5842  1.7719
19145TIP3    H278927   3.354   2.118   4.316 -2.0598  0.7564 -0.6562
19146TIP3   OH278928   3.964   5.107  13.473  0.4048  0.6825 -0.4627
19146TIP3    H178929   3.924   5.188  13.502 -0.0773  0.4046 -0.3391
19146TIP3    H278930   3.928   5.040  13.531  0.9594  0.4089 -0.4230
19147TIP3   OH278931   3.274   1.667  13.993  0.3118 -0.3492 -0.2723
19147TIP3    H178932   3.208   1.733  13.973  2.1952  1.3904 -1.1039
19147TIP3    H278933   3.352   1.717  14.017  1.9592 -2.2489 -1.3097
19148TIP3   OH278934   5.488   2.708   4.217 -0.4013 -0.6522 -0.1456
19148TIP3    H178935   5.476   2.700   4.123 -1.8527 -1.2710  0.0584
19148TIP3    H278936   5.463   2.623   4.252  0.7515 -0.6446  0.7645
19149TIP3   OH278937   0.454   4.804   1.625  0.5919  0.1531 -0.3815
19149TIP3    H178938   0.500   4.825   1.707  0.0310  0.9704 -0.2600
19149TIP3    H278939   0.469   4.880   1.569  1.5321 -0.6871 -1.3030
19150TIP3   OH278940   2.867   1.863  12.471  0.6644 -0.5437 -0.1514
19150TIP3    H178941   2.874   1.946  12.517 -3.6105 -1.1758  2.1360
19150TIP3    H278942   2.789   1.872  12.417  0.6455 -2.7397 -0.5765
19151TIP3   OH278943   2.747   5.777   3.599  0.0432 -0.0326  0.2477
19151TIP3    H178944   2.792   5.707   3.645 -1.2494 -1.2187 -0.2344
19151TIP3    H278945   2.683   5.810   3.662 -1.2632 -1.2013 -0.4252
19152TIP3   OH278946   2.204   2.452  16.598  0.3739  0.6412  0.3186
19152TIP3    H178947   2.147   2.404  16.539  0.3994  1.1482 -0.1243
19152TIP3    H278948   2.286   2.403  16.598 -0.0473 -0.0974  0.9667
19153TIP3   OH278949   5.373   4.236   1.942 -0.3522  0.3481  0.3520
19153TIP3    H178950   5.280   4.253   1.957 -0.9430 -2.7112  0.8615
19153TIP3    H278951   5.411   4.228   2.030  0.2806  1.0127  0.1482
19154TIP3   OH278952   0.216   5.086  16.705 -0.3309  0.4962  0.2463
19154TIP3    H178953   0.179   5.004  16.739 -0.9297  0.9716  0.7800
19154TIP3    H278954   0.186   5.090  16.614 -1.0796  0.5605  0.4846
19155TIP3   OH278955   2.408   5.483  12.993  0.5403  0.3528 -0.8271
19155TIP3    H178956   2.349   5.551  13.025  0.7433 -0.1050  0.5638
19155TIP3    H278957   2.406   5.415  13.060  2.7172  0.3575 -0.6626
19156TIP3   OH278958   3.307   5.206  14.730 -0.1745  0.5601 -0.1221
19156TIP3    H178959   3.261   5.139  14.781  1.9384 -1.0300 -0.1538
19156TIP3    H278960   3.250   5.282  14.734 -0.1202  0.7031  4.8874
19157TIP3   OH278961   0.829   4.737   0.053 -0.8223 -0.0577 -0.4854
19157TIP3    H178962   0.863   4.676  -0.014 -0.6373 -0.4501 -0.0374
19157TIP3    H278963   0.798   4.680   0.123  0.5021  0.3905  0.4927
19158TIP3   OH278964   3.284   4.630  15.341 -0.2617  0.5243 -0.3703
19158TIP3    H178965   3.269   4.536  15.353 -0.2987  0.7563  1.6859
19158TIP3    H278966   3.210   4.658  15.286 -0.4635 -0.5544 -0.6895
19159TIP3   OH278967   3.755   1.608  15.766 -0.2991 -0.2634 -0.3789
19159TIP3    H178968   3.718   1.524  15.791 -0.8413  0.1583  0.2744
19159TIP3    H278969   3.847   1.590  15.750  0.1015 -0.5786  1.9682
19160TIP3   OH278970   4.206   6.297  10.617 -0.0318 -0.4072  0.4188
19160TIP3    H178971   4.220   6.212  10.577 -1.5738 -0.9426  0.9329
19160TIP3    H278972   4.187   6.356  10.544  1.3913 -0.3940  0.0305
19161TIP3   OH278973   1.844   5.050   2.870 -0.4813  0.7463 -0.1062
19161TIP3    H178974   1.869   4.959   2.886  1.3507  1.3095  0.4630
19161TIP3    H278975   1.915   5.102   2.908 -1.2030  2.4098 -0.9206
19162TIP3   OH278976   0.475   6.649  16.579  0.1074  0.4740 -0.1958
19162TIP3    H178977   0.523   6.696  16.647 -1.0917 -0.5196  1.4175
19162TIP3    H278978   0.513   6.561  16.580  1.4581  0.9598 -2.2954
19163TIP3   OH278979   1.371   6.120  16.331 -0.7345  0.5304 -0.3744
19163TIP3    H178980   1.357   6.193  16.270  0.7991  0.5524 -0.7174
19163TIP3    H278981   1.411   6.051  16.279 -2.1975 -0.6266 -0.0637
19164TIP3   OH278982   1.584   2.656   6.529 -0.3776 -0.5200  0.2214
19164TIP3    H178983   1.556   2.596   6.461  0.6474  0.9107 -1.5552
19164TIP3    H278984   1.663   2.616   6.566 -1.0401 -1.3908  0.7145
19165TIP3   OH278985   3.275   1.007  13.227  0.0410 -0.0457  0.1555
19165TIP3    H178986   3.255   0.916  13.243 -0.0357 -0.2767 -1.0973
19165TIP3    H278987   3.368   1.007  13.204  0.4261  0.4117  1.6555
19166TIP3   OH278988   2.761   1.383   2.183 -0.4450 -0.0959  0.1734
19166TIP3    H178989   2.742   1.429   2.265  0.9093 -1.4070  1.2977
19166TIP3    H278990   2.856   1.372   2.184 -0.4047 -0.0576 -1.6495
19167TIP3   OH278991   6.000   2.636   6.340  0.5033  0.2390  0.4147
19167TIP3    H178992   5.921   2.662   6.386 -0.6112  1.1286 -1.8439
19167TIP3    H278993   5.988   2.543   6.322  1.3491 -0.3448  2.5329
19168TIP3   OH278994   4.524   6.404   5.081  0.0478  0.1211  1.0931
19168TIP3    H178995   4.550   6.496   5.067 -0.8441  0.1399 -0.7486
19168TIP3    H278996   4.429   6.404   5.070  0.2562 -1.3744 -1.4769
19169TIP3   OH278997   4.685   1.483  16.412 -0.3060  0.3532  0.1541
19169TIP3    H178998   4.631   1.549  16.370  0.5814 -0.0066 -1.6505
19169TIP3    H278999   4.697   1.415  16.345  2.3520  0.4288  0.4365
19170TIP3   OH279000   4.964   6.412  15.930 -0.0873 -0.1402  0.1086
19170TIP3    H179001   4.954   6.464  15.850 -0.7362 -1.7779 -0.9336
19170TIP3    H279002   4.875   6.400  15.963  0.0291 -0.7219  0.2310
19171TIP3   OH279003   3.227   1.458   0.539 -0.0846 -0.7627  0.1628
19171TIP3    H179004   3.294   1.390   0.547 -0.6475 -1.3162  0.3093
19171TIP3    H279005   3.275   1.537   0.517  0.5857 -1.2113 -0.0127
19172TIP3   OH279006   6.702   0.368   1.394 -0.1536  0.2818  0.2183
19172TIP3    H179007   6.628   0.309   1.377 -0.4462  0.2287  1.5939
19172TIP3    H279008   6.778   0.319   1.362 -0.5856 -0.1321 -0.1964
19173TIP3   OH279009   5.586   1.537   3.281  0.0101 -0.0182  0.3589
19173TIP3    H179010   5.622   1.528   3.369 -0.0305 -0.1470  0.3624
19173TIP3    H279011   5.658   1.572   3.229 -0.0523  0.3437  0.5070
19174TIP3   OH279012   5.701   4.481   1.009 -0.3963 -0.3727 -0.3345
19174TIP3    H179013   5.635   4.547   0.986 -0.2998 -0.4373 -0.8028
19174TIP3    H279014   5.734   4.510   1.094 -1.5672 -0.7545  0.2689
19175TIP3   OH279015   6.226   6.206   6.013 -1.0392 -0.3438  0.2837
19175TIP3    H179016   6.231   6.137   5.947  0.1720 -3.1153  3.0246
19175TIP3    H279017   6.260   6.166   6.093 -2.5929  2.7015  2.7183
19176TIP3   OH279018   3.827   4.124  16.518 -0.5101 -0.1920  0.9724
19176TIP3    H179019   3.829   4.028  16.517 -0.1317 -0.2211  2.2535
19176TIP3    H279020   3.918   4.149  16.537 -0.2826  0.4793 -0.8401
19177TIP3   OH279021   0.061   3.350   1.121 -0.2481  0.0493  0.7045
19177TIP3    H179022   0.142   3.400   1.105 -0.1905 -0.5180 -1.0101
19177TIP3    H279023  -0.007   3.417   1.126 -0.0442  0.3938 -0.6834
19178TIP3   OH279024   5.277   4.718   2.630 -0.1509 -0.6006  0.0512
19178TIP3    H179025   5.326   4.636   2.641  1.5746  0.3397 -0.2265
19178TIP3    H279026   5.220   4.723   2.706 -0.1166 -1.9487  0.1886
19179TIP3   OH279027   6.444   3.225  17.101  0.5465  0.1941  0.0724
19179TIP3    H179028   6.452   3.317  17.076 -0.5363  0.7356  1.5859
19179TIP3    H279029   6.359   3.198  17.066 -0.6140  0.7335  2.2703
19180TIP3   OH279030   0.417   6.260  16.166  0.2692 -0.0531 -0.0787
19180TIP3    H179031   0.511   6.240  16.158  0.1457 -0.2508 -1.2395
19180TIP3    H279032   0.414   6.339  16.218  1.0936 -0.0242 -0.0549
19181TIP3   OH279033   2.407   6.151  12.286  0.1589 -0.1122 -0.3986
19181TIP3    H179034   2.353   6.204  12.228 -0.7882  1.0613  1.4416
19181TIP3    H279035   2.345   6.106  12.343  1.0498 -1.0780 -0.1505
19182TIP3   OH279036   0.365   5.946   1.915 -0.2719  0.3825  0.2888
19182TIP3    H179037   0.336   5.859   1.943 -2.1621  0.9514  0.2221
19182TIP3    H279038   0.457   5.950   1.941 -0.1688 -1.5920  0.3832
19183TIP3   OH279039   2.310   0.413   2.181 -0.2824  0.4341  0.4411
19183TIP3    H179040   2.294   0.392   2.273  0.6191 -0.4352  0.4219
19183TIP3    H279041   2.249   0.484   2.161 -1.4826 -0.3140  1.3161
19184TIP3   OH279042   3.349   1.644   3.580 -0.0636 -0.1272 -0.7803
19184TIP3    H179043   3.347   1.556   3.543 -1.8242 -0.7369  0.5735
19184TIP3    H279044   3.264   1.682   3.555 -0.8135 -0.1372  1.4792
19185TIP3   OH279045   6.566   4.563  11.641 -0.0176  0.1442  0.3653
19185TIP3    H179046   6.511   4.638  11.662 -1.2559 -0.5579 -0.2765
19185TIP3    H279047   6.645   4.575  11.695 -0.5229  1.4811  0.8434
19186TIP3   OH279048   0.570   3.986  11.373 -0.2882 -0.0141  0.4864
19186TIP3    H179049   0.593   4.078  11.381  0.6197 -0.2292  0.4579
19186TIP3    H279050   0.474   3.985  11.369 -0.3336  0.8659  1.1739
19187TIP3   OH279051   3.668   1.743   4.220  0.3816 -0.0280  0.3857
19187TIP3    H179052   3.674   1.750   4.315  0.6972 -0.2447  0.3818
19187TIP3    H279053   3.576   1.723   4.203  0.2873  0.1914  0.6341
19188TIP3   OH279054   0.042   2.111   1.401 -0.1306 -0.0888  0.6175
19188TIP3    H179055   0.129   2.083   1.373  1.1060  2.6864  1.4028
19188TIP3    H279056   0.053   2.138   1.492 -2.2775 -1.3140  1.3325
19189TIP3   OH279057   3.577   3.194  14.232 -0.3412  0.0662  0.1812
19189TIP3    H179058   3.561   3.135  14.158 -0.2720  1.4512 -1.0065
19189TIP3    H279059   3.671   3.212  14.228 -0.3596  0.2475  0.5393
19190TIP3   OH279060   2.019   3.595   5.621  0.6711  0.3098  0.0231
19190TIP3    H179061   2.034   3.634   5.534 -1.5929  0.4188 -0.3586
19190TIP3    H279062   2.040   3.503   5.610 -0.7513  0.0901 -0.9852
19191TIP3   OH279063   0.960   1.217  14.284 -0.6532 -0.7271  0.7145
19191TIP3    H179064   0.959   1.287  14.349 -0.6546 -0.5710  0.5454
19191TIP3    H279065   1.052   1.210  14.258 -0.5310 -1.2776  1.2616
19192TIP3   OH279066   0.482   4.412   0.234  0.0963  0.6785  0.1882
19192TIP3    H179067   0.503   4.387   0.144 -1.9489  2.0848 -0.7591
19192TIP3    H279068   0.516   4.340   0.288  0.0977 -0.8993 -1.8240
19193TIP3   OH279069   1.049   6.230  12.570 -0.7527  0.5002 -0.1824
19193TIP3    H179070   1.018   6.227  12.480  0.9404 -0.2268 -0.7771
19193TIP3    H279071   1.137   6.268  12.565 -0.8621  1.0226  1.2443
19194TIP3   OH279072   1.679   1.118  16.246 -0.5282  0.3500 -0.1880
19194TIP3    H179073   1.585   1.119  16.263 -0.4310 -1.9512  0.8295
19194TIP3    H279074   1.719   1.125  16.333  0.1424 -2.1053 -0.2383
19195TIP3   OH279075   2.399   3.803   1.246  0.3276 -0.2971  0.2522
19195TIP3    H179076   2.406   3.762   1.332  0.0196  0.4715  0.6556
19195TIP3    H279077   2.325   3.864   1.254 -1.3908 -2.0471 -1.3218
19196TIP3   OH279078   6.482   3.042   1.736 -0.1192 -0.5274 -0.0158
19196TIP3    H179079   6.563   3.056   1.785 -0.0486  0.9914 -0.4910
19196TIP3    H279080   6.500   3.080   1.650 -2.0817  2.1238  0.6216
19197TIP3   OH279081   2.551   2.255  15.589 -0.1768 -0.4257 -0.1748
19197TIP3    H179082   2.601   2.240  15.670 -0.5949 -3.7597 -0.3704
19197TIP3    H279083   2.610   2.226  15.519 -1.0192 -0.8001 -0.7391
19198TIP3   OH279084   2.468   3.685  14.458 -0.5812  0.1106  0.6408
19198TIP3    H179085   2.423   3.736  14.391  0.4985  0.8747  0.4593
19198TIP3    H279086   2.558   3.677  14.425  0.0840  0.8684  2.1784
19199TIP3   OH279087   4.538   0.461   1.264 -0.2366  0.1083  0.6374
19199TIP3    H179088   4.492   0.504   1.336  0.1342 -0.2298  1.0812
19199TIP3    H279089   4.499   0.374   1.259 -0.1935  0.0963  0.4858
19200TIP3   OH279090   3.549   2.816  16.793  0.7370 -0.5819 -0.0973
19200TIP3    H179091   3.492   2.751  16.833 -0.0254  0.5497  0.7393
19200TIP3    H279092   3.524   2.816  16.701  0.1161 -0.8422  0.0626
19201TIP3   OH279093   5.281   3.850   6.436  0.0595 -0.0351  0.2435
19201TIP3    H179094   5.216   3.906   6.478 -0.3356  0.0455 -0.4569
19201TIP3    H279095   5.288   3.774   6.493  1.5277  1.2619  1.8857
19202TIP3   OH279096   4.189   3.002  17.257 -0.3122 -0.0500  0.4546
19202TIP3    H179097   4.243   2.930  17.223  0.0399  0.6587 -0.5263
19202TIP3    H279098   4.102   2.985  17.222 -0.2127  0.0336  0.1622
19203TIP3   OH279099   3.244   3.419   1.383 -0.0517  0.0675  0.2200
19203TIP3    H179100   3.247   3.344   1.443 -2.1438  1.7065  2.6292
19203TIP3    H279101   3.320   3.472   1.407  1.4570 -1.2309 -1.5207
19204TIP3   OH279102   6.184   3.722   5.119  0.4832  0.1306 -0.2473
19204TIP3    H179103   6.209   3.733   5.210 -2.8961 -0.6305  0.9091
19204TIP3    H279104   6.210   3.633   5.097 -0.0994 -0.2476  0.5364
19205TIP3   OH279105   4.452   1.454  12.105  0.4499  0.1783  0.3436
19205TIP3    H179106   4.440   1.491  12.018 -0.4218  0.7756  0.7022
19205TIP3    H279107   4.454   1.360  12.091 -1.3776  0.1798 -0.1635
19206TIP3   OH279108   2.434   2.653  11.249 -0.2605  0.0596  0.3681
19206TIP3    H179109   2.478   2.570  11.267  0.3607  0.5711  1.3394
19206TIP3    H279110   2.499   2.705  11.201  0.7936  1.2763  2.8653
19207TIP3   OH279111   3.148   1.817  16.318  0.1916  0.7541  0.3393
19207TIP3    H179112   3.063   1.817  16.362  0.0692 -1.4328  0.2012
19207TIP3    H279113   3.152   1.903  16.274 -1.5030  1.2859  1.1305
19208TIP3   OH279114   2.720   6.191   4.658  0.2932  0.3333 -0.8201
19208TIP3    H179115   2.653   6.259   4.662  0.2655  0.2648  0.0002
19208TIP3    H279116   2.685   6.119   4.711  1.6480  0.8705  0.8735
19209TIP3   OH279117   5.930   6.461  11.494 -0.5289  0.5154  0.5845
19209TIP3    H179118   5.848   6.438  11.450 -0.2608 -1.8004  1.1618
19209TIP3    H279119   5.906   6.469  11.587 -0.0539 -0.5971  0.8155
19210TIP3   OH279120   0.328   3.468   1.797 -0.6468  0.0320 -0.1375
19210TIP3    H179121   0.296   3.452   1.708  0.3045  0.2862 -0.5357
19210TIP3    H279122   0.318   3.384   1.841 -1.7082  0.0605 -0.2861
19211TIP3   OH279123   1.503   5.884  15.708 -0.5711 -0.6618 -0.1749
19211TIP3    H179124   1.531   5.798  15.738 -0.0391 -0.9386 -1.3985
19211TIP3    H279125   1.575   5.914  15.652 -1.0918  0.2383 -0.3750
19212TIP3   OH279126   2.868   4.814   3.605  0.3318 -0.4741  1.1693
19212TIP3    H179127   2.776   4.818   3.578  0.7370 -0.0691 -0.2214
19212TIP3    H279128   2.867   4.846   3.696 -0.6028  1.9131  0.3975
19213TIP3   OH279129   0.038   2.126  12.756  0.4328  0.3144  0.3900
19213TIP3    H179130   0.023   2.037  12.725 -0.4890  0.1973  1.1610
19213TIP3    H279131   0.133   2.139  12.746  0.8597 -1.3727  1.9171
19214TIP3   OH279132   1.970   4.173   5.027  0.1564  0.0023  0.3735
19214TIP3    H179133   2.034   4.209   5.088 -1.0448  1.1763  0.9989
19214TIP3    H279134   1.900   4.140   5.082 -0.7955  0.7750 -0.3321
19215TIP3   OH279135   4.550   5.599  16.675 -0.1450 -0.4663 -0.4687
19215TIP3    H179136   4.468   5.585  16.628 -0.5721  0.3005  0.0191
19215TIP3    H279137   4.543   5.689  16.709  1.9544  0.5743 -2.5252
19216TIP3   OH279138   1.339   5.243   3.038 -0.0172 -0.0897  0.3460
19216TIP3    H179139   1.324   5.166   2.983  0.4821 -0.4653  0.7380
19216TIP3    H279140   1.293   5.224   3.120  1.3330 -0.6213  1.0057
19217TIP3   OH279141   2.609   0.608   4.156  0.1825 -0.1222 -0.2362
19217TIP3    H179142   2.615   0.540   4.090 -0.6570 -2.5105  1.9767
19217TIP3    H279143   2.695   0.608   4.199 -0.1775 -0.6341  0.5079
19218TIP3   OH279144   2.549   6.735  15.352  0.3036  0.1537  0.4044
19218TIP3    H179145   2.587   6.734  15.439  2.0153  0.4169 -0.3051
19218TIP3    H279146   2.571   6.650  15.314  1.0090  0.6359 -0.3256
19219TIP3   OH279147   6.417   3.901  14.623 -0.0743  0.0982  0.2107
19219TIP3    H179148   6.364   3.824  14.642 -1.6455  1.2971  0.8372
19219TIP3    H279149   6.401   3.960  14.697  0.9575  1.1085 -0.3425
19220TIP3   OH279150   6.307   4.262  13.592 -0.3146  0.0047 -0.0002
19220TIP3    H179151   6.332   4.234  13.680 -2.7384  0.9648  1.0591
19220TIP3    H279152   6.378   4.321  13.565  0.0906  0.3049  1.6240
19221TIP3   OH279153   6.439   2.405  15.335  0.1058 -0.4194  0.1613
19221TIP3    H179154   6.460   2.441  15.421  0.6052  0.9628 -0.5122
19221TIP3    H279155   6.347   2.381  15.341  0.0529 -0.0396  0.9726
19222TIP3   OH279156   1.774   3.544  14.591 -0.3492 -0.0325  0.7291
19222TIP3    H179157   1.860   3.570  14.623 -0.9209  0.3029  2.0600
19222TIP3    H279158   1.785   3.537  14.496  1.7608 -2.3941  1.0359
19223TIP3   OH279159   5.444   3.645  17.044 -0.7278  0.3653  0.6403
19223TIP3    H179160   5.369   3.671  17.097  0.4121 -0.0638  2.5467
19223TIP3    H279161   5.508   3.715  17.056  0.3453 -0.7360  1.5701
19224TIP3   OH279162   3.596   2.176  11.144  0.0717  0.1623 -0.1406
19224TIP3    H179163   3.547   2.107  11.098 -0.1032 -0.5547  1.1014
19224TIP3    H279164   3.679   2.135  11.167  0.6757  0.9220 -0.9275
19225TIP3   OH279165   0.938   6.661   1.262 -0.4253 -0.0689 -0.2062
19225TIP3    H179166   1.010   6.597   1.265  0.1715  0.5449 -0.8396
19225TIP3    H279167   0.982   6.746   1.273 -1.0442  0.3186 -0.6890
19226TIP3   OH279168   3.907   0.205   3.239  0.2146  0.0563 -0.3056
19226TIP3    H179169   3.887   0.112   3.225  2.6782 -0.5793  0.0296
19226TIP3    H279170   3.989   0.205   3.289 -0.4573  2.4187  0.9511
19227TIP3   OH279171   0.039   3.167   2.793  0.1181 -0.2478 -0.3177
19227TIP3    H179172  -0.050   3.151   2.761 -0.6554  0.2664  1.4701
19227TIP3    H279173   0.039   3.259   2.819  0.8530 -0.5063  0.6433
19228TIP3   OH279174   1.954   1.527   2.052  0.1066 -0.1560  0.0493
19228TIP3    H179175   1.875   1.580   2.041 -0.3577 -0.3738  1.9372
19228TIP3    H279176   2.025   1.583   2.021 -0.6941  0.2841 -1.0829
19229TIP3   OH279177   3.181   4.418  11.465 -0.8214 -0.2629 -0.1527
19229TIP3    H179178   3.272   4.413  11.435 -0.5189  1.3015  0.4265
19229TIP3    H279179   3.178   4.364  11.544 -0.0869  0.6956  0.5327
19230TIP3   OH279180   4.987   0.339  14.444  0.1983  0.1010  0.2080
19230TIP3    H179181   5.020   0.254  14.415  1.6130  0.2329  1.3391
19230TIP3    H279182   4.936   0.320  14.522 -0.6982  0.1440 -0.3539
19231TIP3   OH279183   6.510   0.538   2.580 -0.4790  0.0103  0.2818
19231TIP3    H179184   6.422   0.567   2.605 -0.5768  0.1959 -0.2746
19231TIP3    H279185   6.539   0.602   2.516  0.2181  0.1652  0.7386
19232TIP3   OH279186   0.133   0.212  15.887  0.1639  0.1515 -0.6960
19232TIP3    H179187   0.069   0.177  15.824 -0.8279  0.0549  0.3334
19232TIP3    H279188   0.194   0.141  15.902 -1.6976 -1.1623  1.1991
19233TIP3   OH279189   6.778   3.915  17.134 -0.2364 -0.1375 -0.1168
19233TIP3    H179190   6.815   3.839  17.090 -0.5548 -0.5894  0.3768
19233TIP3    H279191   6.782   3.985  17.069 -0.2381 -0.6593 -0.6892
19234TIP3   OH279192   0.602   1.712   2.065  0.2605 -0.1792 -0.0057
19234TIP3    H179193   0.685   1.671   2.039  0.1878  0.2378 -0.9353
19234TIP3    H279194   0.584   1.677   2.152  1.6351  0.0517  0.3967
19235TIP3   OH279195   6.470   2.701  10.881  0.2916  0.2858  0.5087
19235TIP3    H179196   6.383   2.719  10.916  0.5024 -0.2144  1.3019
19235TIP3    H279197   6.473   2.606  10.871  0.7106  0.3073  0.3952
19236TIP3   OH279198   1.753   5.393   6.155 -0.0323 -0.0539 -0.0408
19236TIP3    H179199   1.694   5.462   6.187  0.4815 -0.7078  2.5886
19236TIP3    H279200   1.696   5.333   6.107 -1.3958 -0.1445  1.5766
19237TIP3   OH279201   6.281   4.108  16.459  0.1787  0.3577 -0.6171
19237TIP3    H179202   6.317   4.192  16.429 -0.4535  0.6699 -0.5358
19237TIP3    H279203   6.333   4.042  16.414  0.4246  0.8022 -0.9961
19238TIP3   OH279204   3.563   3.117  14.889 -0.2717  0.0975 -0.0698
19238TIP3    H179205   3.559   3.191  14.951  0.6477 -0.2482  0.4049
19238TIP3    H279206   3.590   3.043  14.942 -1.1371 -0.5913 -0.5623
19239TIP3   OH279207   2.403   2.220   2.997 -0.6158  0.0746  0.1867
19239TIP3    H179208   2.479   2.208   2.939  0.1773  0.7524  1.0609
19239TIP3    H279209   2.437   2.202   3.085 -1.6253 -0.2162  0.5317
19240TIP3   OH279210   6.722   2.712  17.314  0.3732  0.1972 -0.1847
19240TIP3    H179211   6.678   2.696  17.231 -1.0234  0.0945  0.5437
19240TIP3    H279212   6.691   2.799  17.341 -1.2121 -0.8078  1.4180
19241TIP3   OH279213   3.218   3.336  11.498  0.6883  0.4853 -0.2482
19241TIP3    H179214   3.156   3.293  11.440 -1.8971  1.3746  1.6591
19241TIP3    H279215   3.262   3.401  11.443  2.0962 -2.0331 -2.3161
19242TIP3   OH279216   2.332   3.397   5.797  0.0687  0.0653  1.1242
19242TIP3    H179217   2.377   3.360   5.873  0.2364 -0.8278  0.6073
19242TIP3    H279218   2.350   3.491   5.802 -0.3896  0.1045  2.4827
19243TIP3   OH279219   2.599   6.205  12.086  0.1378 -0.2217  0.8988
19243TIP3    H179220   2.617   6.152  12.164 -1.6085 -2.4912 -0.1154
19243TIP3    H279221   2.521   6.256  12.110 -0.5004 -1.0448  0.6155
19244TIP3   OH279222   0.878   4.819  15.010  0.1311  0.2113 -0.2116
19244TIP3    H179223   0.819   4.745  14.996  0.5057  0.2612 -2.4042
19244TIP3    H279224   0.865   4.875  14.933  2.4647  0.6134 -0.3902
19245TIP3   OH279225   3.190   1.654  11.932  0.5007 -0.6252  0.5043
19245TIP3    H179226   3.135   1.589  11.976 -0.5151  0.6378  1.1383
19245TIP3    H279227   3.162   1.650  11.840 -0.9416  0.2409  0.8734
19246TIP3   OH279228   0.026   0.951  15.845 -0.0446  0.4691  0.5020
19246TIP3    H179229  -0.057   0.984  15.812 -0.0775  0.8735  0.9817
19246TIP3    H279230   0.035   0.865  15.804 -1.1154  0.0489  1.1005
19247TIP3   OH279231   6.560   2.423   6.833 -0.1516  0.4388  0.2030
19247TIP3    H179232   6.476   2.404   6.873  0.6409  0.4209  1.9348
19247TIP3    H279233   6.567   2.519   6.834 -0.5030  0.4889 -0.7500
19248TIP3   OH279234   1.424   0.451   4.698  0.4284 -0.2930  0.2628
19248TIP3    H179235   1.463   0.422   4.616 -0.7397 -0.6558 -0.1872
19248TIP3    H279236   1.497   0.488   4.748  1.0024  0.8243 -1.3178
19249TIP3   OH279237   0.754   2.580  15.293 -0.0703 -0.2924  0.5618
19249TIP3    H179238   0.778   2.489  15.308 -2.1410 -0.8265  0.9250
19249TIP3    H279239   0.679   2.595  15.351 -1.7180  0.7157 -1.6943
19250TIP3   OH279240   2.211   2.440  15.766  0.1838 -0.3078 -0.4333
19250TIP3    H179241   2.294   2.459  15.723  1.6096 -2.0069  1.4205
19250TIP3    H279242   2.229   2.367  15.824 -2.2526  0.2248  1.1835
19251TIP3   OH279243   6.061   1.278   4.382  0.3999 -1.1788  0.1898
19251TIP3    H179244   6.066   1.188   4.414 -0.7682 -1.2981  0.0738
19251TIP3    H279245   5.969   1.302   4.392  0.7552  0.1247  0.5448
19252TIP3   OH279246   2.019   1.115  15.096  0.4415 -0.2065 -0.1762
19252TIP3    H179247   2.089   1.179  15.090 -0.9773  1.3024 -1.6181
19252TIP3    H279248   1.966   1.144  15.170  0.9376 -0.9730  0.5017
19253TIP3   OH279249   6.103   2.212  14.319  0.1527  0.1722  0.5750
19253TIP3    H179250   6.122   2.140  14.378  0.7581  1.1264  1.5933
19253TIP3    H279251   6.087   2.171  14.234 -0.0819 -1.1781  1.2594
19254TIP3   OH279252   2.515   6.619   2.198 -0.3137  0.3419  0.5525
19254TIP3    H179253   2.424   6.649   2.202 -0.3937  0.0580  0.9594
19254TIP3    H279254   2.508   6.523   2.203  0.0240  0.3359  0.9501
19255TIP3   OH279255   1.276   4.878   3.185 -0.0229 -0.8099 -0.1700
19255TIP3    H179256   1.275   4.791   3.144  1.1545  0.0792 -2.2174
19255TIP3    H279257   1.206   4.926   3.141  0.0766 -0.3613  0.1556
19256TIP3   OH279258   4.416   2.304  14.012  0.6814  0.3158 -0.3686
19256TIP3    H179259   4.431   2.305  13.917 -0.2764  1.4768 -0.5227
19256TIP3    H279260   4.503   2.319  14.050  1.0920 -0.2768 -1.0481
19257TIP3   OH279261   5.727   2.845   2.355 -0.5528  0.4749  0.4221
19257TIP3    H179262   5.720   2.837   2.260  0.8455 -0.0266  0.3400
19257TIP3    H279263   5.667   2.779   2.390  1.4131 -1.7689 -0.1777
19258TIP3   OH279264   0.603   1.866  17.048  0.5133  0.0899  0.2569
19258TIP3    H179265   0.607   1.931  16.978  0.7613 -0.5875 -0.3736
19258TIP3    H279266   0.676   1.888  17.106  0.5441  0.4180  0.0945
19259TIP3   OH279267   6.507   3.283   3.823  0.0728  0.0965 -0.1206
19259TIP3    H179268   6.430   3.337   3.804  0.0173  0.2949  0.6376
19259TIP3    H279269   6.500   3.210   3.761 -1.0755 -0.2236  0.3486
19260TIP3   OH279270   4.102   6.705   5.882  0.1237 -0.9483 -0.0376
19260TIP3    H179271   4.128   6.620   5.919  0.3895 -0.7758  0.1802
19260TIP3    H279272   4.158   6.769   5.928  0.1960 -0.6933 -0.4746
19261TIP3   OH279273   0.371   2.421  13.591 -0.0424  0.2674 -0.2481
19261TIP3    H179274   0.354   2.356  13.524 -2.1643  1.0476 -0.5521
19261TIP3    H279275   0.369   2.372  13.673  0.7470 -0.3950 -0.6083
19262TIP3   OH279276   5.216   6.692   1.906 -0.0617 -0.6384 -0.2633
19262TIP3    H179277   5.132   6.648   1.916 -1.1041  0.9675 -1.3785
19262TIP3    H279278   5.201   6.758   1.838  2.1092 -0.2877 -0.4940
19263TIP3   OH279279   3.136   0.620  16.596 -0.7453  0.3965  0.5530
19263TIP3    H179280   3.144   0.665  16.512  0.3803  1.0887  1.0091
19263TIP3    H279281   3.200   0.549  16.591 -0.5376  0.5566  0.8879
19264TIP3   OH279282   5.147   3.819   3.360  0.4627 -0.4058 -0.1543
19264TIP3    H179283   5.199   3.848   3.285  1.1961 -2.2807 -0.4280
19264TIP3    H279284   5.062   3.796   3.323 -0.9441  3.3268  0.3956
19265TIP3   OH279285   0.709   5.875   1.392  0.3342 -0.3321  0.3083
19265TIP3    H179286   0.647   5.862   1.321 -0.2744  0.9625  0.5765
19265TIP3    H279287   0.682   5.812   1.460 -1.9940  1.5301  1.2420
19266TIP3   OH279288   0.470   0.114  14.898  0.0036 -0.7561  0.6325
19266TIP3    H179289   0.546   0.102  14.841  0.1715  0.2949  0.6152
19266TIP3    H279290   0.505   0.108  14.987  0.0046 -0.8960  0.6210
19267TIP3   OH279291   0.143   4.475   2.041 -0.2715 -0.0173 -0.0960
19267TIP3    H179292   0.103   4.453   1.957  0.7165 -1.1138 -0.3076
19267TIP3    H279293   0.235   4.492   2.020 -0.2237  0.6738  0.6288
19268TIP3   OH279294   5.462   0.110   3.587 -0.1068  0.2093  0.0759
19268TIP3    H179295   5.403   0.071   3.523  1.8963  1.4517 -2.7711
19268TIP3    H279296   5.516   0.038   3.618  1.4577 -0.0023 -2.7337
19269TIP3   OH279297   4.608   2.742   0.652  0.0775  0.2981  0.0690
19269TIP3    H179298   4.685   2.685   0.655  0.1782  0.4428  0.3393
19269TIP3    H279299   4.534   2.683   0.669  0.1241  0.1531 -0.2251
19270TIP3   OH279300   6.694   2.736   4.872  0.6615 -0.0808  0.0357
19270TIP3    H179301   6.785   2.718   4.848  0.4507  0.5549 -1.3566
19270TIP3    H279302   6.683   2.829   4.854 -1.0175 -0.6926 -2.5505
19271TIP3   OH279303   5.585   6.175  15.204  0.9577 -0.0822  0.4853
19271TIP3    H179304   5.645   6.150  15.133 -0.5669 -0.0992 -0.8598
19271TIP3    H279305   5.556   6.262  15.180  1.7347  0.6382  2.0526
19272TIP3   OH279306   0.932   0.008   2.491 -0.1124  0.0045 -0.6137
19272TIP3    H179307   0.933   0.023   2.397 -0.2895  0.2771 -0.5739
19272TIP3    H279308   1.006   0.059   2.524 -1.1787  1.4860 -0.3839
19273TIP3   OH279309   0.427   3.987  12.115  0.0437  0.8924  0.3162
19273TIP3    H179310   0.446   3.961  12.025 -0.4972  0.4724  0.3232
19273TIP3    H279311   0.362   4.057  12.106 -0.4695  0.4311  0.4012
19274TIP3   OH279312   0.790   6.707   6.040  0.0369 -0.5064 -0.2182
19274TIP3    H179313   0.809   6.774   6.106 -0.8037 -0.3382 -0.1366
19274TIP3    H279314   0.875   6.687   6.001  1.0936 -2.4900  2.6868
19275TIP3   OH279315   0.644   1.340   5.879  0.2729  0.0584  0.3098
19275TIP3    H179316   0.554   1.374   5.876 -0.2114 -1.1807 -0.0359
19275TIP3    H279317   0.655   1.309   5.969  0.4145  0.3638  0.3979
19276TIP3   OH279318   4.109   0.032  15.378 -0.0301  0.5995 -0.0009
19276TIP3    H179319   4.163  -0.047  15.379 -1.3154 -0.3176  0.5312
19276TIP3    H279320   4.131   0.075  15.295 -0.0254 -0.8482 -0.7827
19277TIP3   OH279321   5.803   0.616   6.445  0.2809  0.0335  0.2710
19277TIP3    H179322   5.839   0.531   6.420  1.7818  0.7799 -0.2240
19277TIP3    H279323   5.743   0.596   6.517 -2.3553 -1.8906 -2.2104
19278TIP3   OH279324   6.753   2.833  16.737 -0.3961 -0.1311  0.3242
19278TIP3    H179325   6.809   2.815  16.661  0.2148  0.6753  0.5563
19278TIP3    H279326   6.814   2.833  16.811 -1.1624 -2.0913  1.0133
19279TIP3   OH279327   3.487   2.360  13.805  0.2351  0.3038 -0.0064
19279TIP3    H179328   3.553   2.426  13.823  0.7104 -0.5848  1.6546
19279TIP3    H279329   3.420   2.374  13.872 -0.4278  0.0876 -0.6123
19280TIP3   OH279330   1.686   4.843   5.077  0.5818 -0.2444  0.3684
19280TIP3    H179331   1.733   4.783   5.134 -0.1358 -2.2861 -1.0615
19280TIP3    H279332   1.713   4.930   5.106  1.7277 -1.2257  2.4900
19281TIP3   OH279333   2.500   5.788  12.516  0.1713 -0.0805  0.3757
19281TIP3    H179334   2.550   5.788  12.435  0.9721 -1.9981  0.8137
19281TIP3    H279335   2.425   5.731  12.498  0.3689 -0.5407  0.9712
19282TIP3   OH279336   3.197   3.570  16.922 -0.1475  0.2104 -0.1437
19282TIP3    H179337   3.139   3.527  16.860  0.2591  2.1111 -1.9807
19282TIP3    H279338   3.161   3.658  16.931  0.5862  0.3921  1.2869
19283TIP3   OH279339   0.934   4.307   5.954  0.1919 -0.3350  0.7466
19283TIP3    H179340   1.010   4.253   5.973  0.0636 -0.7602  0.0727
19283TIP3    H279341   0.875   4.249   5.906 -0.2607  0.1922  0.6577
19284TIP3   OH279342   5.296   0.788  12.169  0.3063 -0.4643 -0.1681
19284TIP3    H179343   5.208   0.796  12.132  0.2581 -0.4080 -0.0445
19284TIP3    H279344   5.354   0.799  12.095  0.2085 -0.4795 -0.2473
19285TIP3   OH279345   2.886   1.949  15.177  0.1824 -0.5322 -0.0780
19285TIP3    H179346   2.868   2.037  15.210 -0.7460 -1.4949  2.2018
19285TIP3    H279347   2.981   1.946  15.167  0.4153  0.1651  1.6136
19286TIP3   OH279348   6.688   1.189  17.022 -0.5142  0.1286  0.4681
19286TIP3    H179349   6.670   1.254  17.090  4.4279  2.8569 -0.3613
19286TIP3    H279350   6.754   1.131  17.061 -1.1600 -1.2889 -0.4727
19287TIP3   OH279351   0.293   0.325  13.539 -0.5835 -0.5584 -0.1909
19287TIP3    H179352   0.244   0.246  13.561 -1.7095 -0.1062 -0.9574
19287TIP3    H279353   0.247   0.361  13.463 -0.3086  1.0104  0.3356
19288TIP3   OH279354   4.111   6.370   1.214  0.5667 -0.0336 -0.8350
19288TIP3    H179355   4.120   6.453   1.261  0.4723 -0.5030  0.0221
19288TIP3    H279356   4.170   6.310   1.258  0.0020 -0.6565 -0.9068
19289TIP3   OH279357   3.548   6.682   3.973 -0.4338 -0.3171  0.6148
19289TIP3    H179358   3.511   6.769   3.989  0.2677  0.2096 -0.5172
19289TIP3    H279359   3.617   6.673   4.039  1.1108  1.0167 -0.7281
19290TIP3   OH279360   0.328   1.068   4.594 -0.1939  0.6365  0.1613
19290TIP3    H179361   0.254   1.123   4.568 -0.2433  0.8612  0.7702
19290TIP3    H279362   0.297   0.978   4.580  0.5943  0.6999 -2.8722
19291TIP3   OH279363   0.765   4.844  16.695 -0.2861  0.3104  0.1846
19291TIP3    H179364   0.858   4.819  16.695 -0.2570  0.4223  0.2687
19291TIP3    H279365   0.720   4.768  16.732 -0.4286 -0.5144 -1.5403
19292TIP3   OH279366   3.183   0.194  17.275 -0.5344 -0.3448  0.0551
19292TIP3    H179367   3.164   0.199  17.182  0.1752 -1.1943 -0.1515
19292TIP3    H279368   3.099   0.176  17.316 -1.3976  2.7224 -0.0943
19293TIP3   OH279369   1.061   0.596  11.801  0.1247 -0.0146  0.2479
19293TIP3    H179370   1.071   0.551  11.717  0.1349 -0.5755  0.5430
19293TIP3    H279371   1.040   0.526  11.864  1.1285  0.2523  0.9063
19294TIP3   OH279372   0.191   0.563   1.072  0.6178 -0.3528 -0.4764
19294TIP3    H179373   0.216   0.488   1.018  2.1459  0.8204 -1.4624
19294TIP3    H279374   0.241   0.552   1.153 -0.6511 -1.3848  0.2229
19295TIP3   OH279375   1.153   6.333   2.595 -0.0699 -0.1629 -0.2049
19295TIP3    H179376   1.245   6.357   2.607 -0.2378  1.1372 -1.2912
19295TIP3    H279377   1.132   6.279   2.671  1.1653  0.7777  0.8464
19296TIP3   OH279378   2.367   6.055   4.810  0.0334 -0.2530 -0.3828
19296TIP3    H179379   2.366   6.151   4.810 -0.3860 -0.2475  0.3978
19296TIP3    H279380   2.458   6.032   4.831  0.2017 -0.0321 -0.8615
19297TIP3   OH279381   3.543   0.794   1.034  0.2766  0.5242 -0.3290
19297TIP3    H179382   3.489   0.869   1.056  2.1072  2.0862 -0.8679
19297TIP3    H279383   3.598   0.781   1.111  1.9603  1.6514 -1.2697
19298TIP3   OH279384   3.783   2.019  12.213  0.1770  0.3685 -0.5871
19298TIP3    H179385   3.777   2.065  12.129  0.4173  2.5119  0.4847
19298TIP3    H279386   3.773   2.088  12.278 -0.9126 -1.3439  1.1767
19299TIP3   OH279387   3.796   3.849  16.497 -0.0703  0.1444 -0.1332
19299TIP3    H179388   3.818   3.758  16.517  0.4393  0.2515 -0.1874
19299TIP3    H279389   3.701   3.851  16.492 -0.1290 -0.2126  0.7006
19300TIP3   OH279390   2.675   1.265  15.376 -0.4183 -0.0888  0.0952
19300TIP3    H179391   2.611   1.201  15.407  0.0103 -0.1652  0.8615
19300TIP3    H279392   2.759   1.220  15.382 -0.0506  0.6965  1.1387
19301TIP3   OH279393   3.520   4.587  14.594 -0.2427 -0.6921 -0.6432
19301TIP3    H179394   3.550   4.628  14.513 -2.9067  1.0780 -0.8868
19301TIP3    H279395   3.504   4.660  14.654  0.8735 -1.9093  1.2319
19302TIP3   OH279396   6.283   4.571   2.562  0.0833  0.0800 -0.1646
19302TIP3    H179397   6.265   4.568   2.468 -0.0108 -0.2274 -0.1403
19302TIP3    H279398   6.281   4.664   2.584 -1.0405  0.0919 -0.2492
19303TIP3   OH279399   2.439   3.539  12.545  0.0184 -0.1019 -0.3748
19303TIP3    H179400   2.443   3.634  12.556  0.3467 -0.0508 -0.9260
19303TIP3    H279401   2.393   3.526  12.463 -1.0538 -0.4533  0.2662
19304TIP3   OH279402   2.050   4.006   5.272 -0.1550 -0.1619  0.1032
19304TIP3    H179403   2.050   4.007   5.368  1.1977 -1.3974  0.1651
19304TIP3    H279404   1.961   3.980   5.248 -0.5691  0.3662  1.0058
19305TIP3   OH279405   4.707   2.159  13.543  0.0741  0.4762 -0.0800
19305TIP3    H179406   4.742   2.220  13.478  0.3154  0.3726 -0.0503
19305TIP3    H279407   4.679   2.083  13.491 -2.2003  1.4352 -0.3726
19306TIP3   OH279408   1.424   4.355  14.545  0.6245  0.2508 -0.2663
19306TIP3    H179409   1.389   4.439  14.573  0.9310 -0.0287  1.0056
19306TIP3    H279410   1.346   4.302  14.526  0.3469  0.0311  1.3602
19307TIP3   OH279411   0.183   4.477  12.473 -0.4936  0.1133  0.1130
19307TIP3    H179412   0.141   4.457  12.557  0.3667 -0.1172  0.4935
19307TIP3    H279413   0.215   4.566  12.483  1.6847 -0.6812  0.9327
19308TIP3   OH279414   5.147   1.963  16.362  0.1583  0.5088  0.4250
19308TIP3    H179415   5.205   1.916  16.421  0.0001  1.1889  1.1294
19308TIP3    H279416   5.179   1.940  16.274  1.6763  1.1030  0.7994
19309TIP3   OH279417   1.388   6.509   3.036  0.0933 -0.9124 -0.1141
19309TIP3    H179418   1.459   6.549   3.087 -0.8780  0.4245  0.2307
19309TIP3    H279419   1.431   6.479   2.956  1.0172  0.0816 -0.0240
19310TIP3   OH279420   3.972   4.010  14.713  0.2028  0.1258 -0.5944
19310TIP3    H179421   3.947   3.929  14.670  2.0405 -2.0829  2.1361
19310TIP3    H279422   4.067   4.013  14.704  0.2285  1.6705 -0.1167
19311TIP3   OH279423   3.036   5.236   1.179 -0.1526  0.0673 -0.4438
19311TIP3    H179424   2.992   5.320   1.183 -1.4858 -0.4885 -2.1747
19311TIP3    H279425   3.126   5.254   1.208 -0.9056  1.6732  1.0213
19312TIP3   OH279426   6.485   0.973  16.361  0.3983  0.1436 -0.4832
19312TIP3    H179427   6.428   0.899  16.383 -1.2809  0.6646 -2.6568
19312TIP3    H279428   6.432   1.050  16.381  1.9353  0.8278  1.2699
19313TIP3   OH279429   0.011   3.345   1.519  0.2962  0.2437  0.3478
19313TIP3    H179430   0.073   3.332   1.590  0.9680  0.0377 -0.2611
19313TIP3    H279431  -0.073   3.361   1.562  0.5170 -0.7586  1.1767
19314TIP3   OH279432   1.417   0.489   3.444 -1.1800  0.0512 -0.1336
19314TIP3    H179433   1.477   0.509   3.516 -0.5741 -0.0159 -0.6177
19314TIP3    H279434   1.330   0.498   3.483 -0.8623  0.2254  0.5536
19315TIP3   OH279435   1.955   4.801  14.289 -0.0807  0.1310 -0.1996
19315TIP3    H179436   1.866   4.819  14.321 -0.2601 -0.0950 -0.5570
19315TIP3    H279437   1.956   4.706  14.274  0.9184 -0.2392  1.8849
19316TIP3   OH279438   5.559   1.975   2.542 -0.0233  0.5278  0.1260
19316TIP3    H179439   5.528   2.019   2.621 -1.2689 -0.2975  0.1139
19316TIP3    H279440   5.597   1.893   2.574 -0.1598  0.3797 -0.0917
19317TIP3   OH279441   6.281   2.388  17.205 -0.4059 -0.1079  0.3038
19317TIP3    H179442   6.253   2.448  17.136 -0.0296 -0.5195 -0.2140
19317TIP3    H279443   6.358   2.344  17.169  0.5706  0.5823  1.4734
19318TIP3   OH279444   3.871   0.735   3.146 -0.6836  0.0685 -0.1293
19318TIP3    H179445   3.921   0.816   3.139 -2.4046  1.0979 -1.4395
19318TIP3    H279446   3.850   0.727   3.239 -0.2946  1.0200  0.0470
19319TIP3   OH279447   6.716   3.356   2.149  0.4178  0.3632  0.4233
19319TIP3    H179448   6.803   3.356   2.188  0.1538 -0.2822  1.0561
19319TIP3    H279449   6.698   3.447   2.128  0.7623  0.6669  1.4006
19320TIP3   OH279450   5.663   0.317   2.497  0.2582  0.4074  0.0280
19320TIP3    H179451   5.592   0.286   2.554  2.4740 -1.5832  1.9079
19320TIP3    H279452   5.695   0.397   2.540 -0.3590  0.9453 -0.4758
19321TIP3   OH279453   0.469   0.819   2.165 -0.5502 -0.5378  1.0528
19321TIP3    H179454   0.407   0.872   2.115 -1.2469 -1.0017  1.4038
19321TIP3    H279455   0.489   0.745   2.107  2.0468  1.0694 -0.3179
19322TIP3   OH279456   4.565   1.568   5.861  0.0980  0.2374  0.0782
19322TIP3    H179457   4.480   1.600   5.831  0.7215  0.9400 -1.0044
19322TIP3    H279458   4.614   1.648   5.884  1.2399  0.0416 -1.4739
19323TIP3   OH279459   4.427   2.218  11.980  0.1170 -0.1145  0.0062
19323TIP3    H179460   4.484   2.295  11.970 -1.8635  1.3942 -0.3630
19323TIP3    H279461   4.444   2.164  11.904 -0.2680  1.2633 -1.0971
19324TIP3   OH279462   6.131   5.346   2.381 -0.8644  0.0513  0.7233
19324TIP3    H179463   6.166   5.280   2.441  1.0424 -0.6317 -0.9969
19324TIP3    H279464   6.131   5.302   2.295 -0.1063  2.0726 -0.3752
19325TIP3   OH279465   0.956   1.132   3.906 -0.2383  0.0810 -0.1388
19325TIP3    H179466   0.941   1.205   3.966 -0.7469  0.9841 -1.3170
19325TIP3    H279467   0.944   1.170   3.819  0.5903 -1.1591 -0.8273
19326TIP3   OH279468   1.968   2.104  11.627 -0.7141 -0.6964 -0.5484
19326TIP3    H179469   2.054   2.128  11.593  0.0218  0.1524  1.7500
19326TIP3    H279470   1.912   2.178  11.605 -0.4565 -0.5261 -0.6349
19327TIP3   OH279471   0.836   4.373  14.167 -0.1385 -0.2624  1.1369
19327TIP3    H179472   0.770   4.430  14.207  1.4887  0.3634  3.1059
19327TIP3    H279473   0.827   4.290  14.212  0.9189  0.0794  2.0187
19328TIP3   OH279474   5.089   3.827  13.244 -0.4296  0.2510 -0.5637
19328TIP3    H179475   5.009   3.851  13.291 -0.1530  0.6699 -0.3010
19328TIP3    H279476   5.070   3.740  13.207 -0.3893 -0.4439  0.9617
19329TIP3   OH279477   2.532   2.959   5.491  0.0315 -0.2752  0.0845
19329TIP3    H179478   2.538   2.929   5.400 -0.6668 -0.4194  0.0843
19329TIP3    H279479   2.552   2.881   5.543  0.7064 -0.1260  0.0558
19330TIP3   OH279480   4.410   1.986  14.080  0.6261 -0.5924 -0.1421
19330TIP3    H179481   4.371   2.009  13.996 -0.2450  0.6038  0.5560
19330TIP3    H279482   4.491   2.037  14.085  0.1766  0.1198  0.1413
19331TIP3   OH279483   2.637   3.185   5.620 -0.8083  0.2273  1.0284
19331TIP3    H179484   2.610   3.152   5.705 -2.3725 -0.1518  0.4245
19331TIP3    H279485   2.629   3.110   5.561 -0.0524  0.5614  0.4760
19332TIP3   OH279486   4.442   4.407  13.609  0.2843  0.6724  0.7253
19332TIP3    H179487   4.508   4.412  13.679  0.5431 -0.4766  0.5819
19332TIP3    H279488   4.417   4.498  13.594  0.7546  1.0028  1.8121
19333TIP3   OH279489   6.151   2.902   2.342 -0.0617  0.0927 -0.1837
19333TIP3    H179490   6.118   2.988   2.318  0.1646  0.1801 -0.1843
19333TIP3    H279491   6.085   2.867   2.403  0.7148  1.0032  1.2325
19334TIP3   OH279492   3.355   5.556   3.657  0.0807  0.2848  0.8371
19334TIP3    H179493   3.265   5.527   3.639  0.0887  0.5781  0.3095
19334TIP3    H279494   3.406   5.475   3.661  0.2980  0.2344 -1.6815
19335TIP3   OH279495   4.689   4.873   0.681 -0.5233 -0.3283 -0.0189
19335TIP3    H179496   4.673   4.947   0.740  3.6365 -0.1798  1.2345
19335TIP3    H279497   4.648   4.799   0.725 -0.6181  0.4167  1.1974
19336TIP3   OH279498   3.639   3.759   0.315  0.1397 -0.0058  0.0247
19336TIP3    H179499   3.571   3.725   0.257 -0.1261  0.7919 -0.1436
19336TIP3    H279500   3.713   3.699   0.303 -0.1943 -0.3113 -0.5319
19337TIP3   OH279501   1.074   1.824  12.698  0.2046 -0.0600 -1.0341
19337TIP3    H179502   1.093   1.864  12.613  1.3168 -0.3412 -0.9383
19337TIP3    H279503   1.098   1.732  12.687  0.0903 -0.1548 -0.5042
19338TIP3   OH279504   4.017   1.569  13.491  0.1647  0.0365 -0.6371
19338TIP3    H179505   4.019   1.574  13.587  1.2780  0.6247 -0.6789
19338TIP3    H279506   3.978   1.651  13.463  0.3443  0.1010 -0.7011
19339TIP3   OH279507   2.141   1.223  15.511  0.0804 -0.4043  0.4303
19339TIP3    H179508   2.217   1.281  15.521  0.3572 -0.8073  0.6744
19339TIP3    H279509   2.073   1.279  15.473  0.0172  0.3482  1.6159
19340TIP3   OH279510   2.286   6.041  14.560 -0.0537  0.5013 -0.3348
19340TIP3    H179511   2.309   6.113  14.503 -1.5445  1.6143  0.3961
19340TIP3    H279512   2.278   5.965  14.501  4.1119  0.1769 -0.7934
19341TIP3   OH279513   4.370   2.455  11.308 -0.7706  0.3945 -0.6914
19341TIP3    H179514   4.445   2.475  11.365  0.1459 -2.1120 -0.9027
19341TIP3    H279515   4.341   2.541  11.276  2.2238  1.4658 -0.8769
19342TIP3   OH279516   2.884   3.392   4.532  0.3514  0.6863  0.5817
19342TIP3    H179517   2.888   3.297   4.519  1.4691  0.9433 -1.3430
19342TIP3    H279518   2.897   3.404   4.626  1.5575 -1.0037  0.6708
19343TIP3   OH279519   3.169   4.038   4.501  0.2309  0.3110 -0.5287
19343TIP3    H179520   3.175   3.943   4.494  0.3570  0.2415  0.3849
19343TIP3    H279521   3.086   4.054   4.545  0.1488  0.6338 -0.7928
19344TIP3   OH279522   3.300   6.175   5.072 -0.2124  0.2655  0.1649
19344TIP3    H179523   3.340   6.198   5.156 -0.6902 -1.0743  0.7883
19344TIP3    H279524   3.286   6.080   5.077 -0.6806  0.2389 -1.2444
19345TIP3   OH279525   2.886   1.275  11.807  0.2699 -0.3484  0.0848
19345TIP3    H179526   2.884   1.244  11.717  0.0810  1.4042 -0.5578
19345TIP3    H279527   2.813   1.230  11.850 -0.0324 -0.7235 -0.8133
19346TIP3   OH279528   0.475   6.221  13.067 -0.1438  0.1343 -0.2897
19346TIP3    H179529   0.462   6.293  13.005 -0.3046  0.1250 -0.2685
19346TIP3    H279530   0.423   6.245  13.143  0.4757  0.3949  0.0566
19347TIP3   OH279531   5.308   3.293   5.041  0.4100 -0.4676  0.7374
19347TIP3    H179532   5.403   3.291   5.043  0.3875 -1.9853  1.6434
19347TIP3    H279533   5.284   3.360   5.106  0.8431  0.1795  0.2438
19348TIP3   OH279534   6.451   1.245  13.411 -0.2171 -0.1214 -0.3645
19348TIP3    H179535   6.431   1.172  13.469 -0.0470 -0.2624 -0.4842
19348TIP3    H279536   6.535   1.222  13.370 -0.8826 -0.5498 -1.5295
19349TIP3   OH279537   3.155   4.958   1.194 -0.4623 -0.2284  0.0775
19349TIP3    H179538   3.121   4.965   1.283 -1.0536  1.5796 -0.2363
19349TIP3    H279539   3.078   4.972   1.138 -0.5757 -3.5727 -0.8384
19350TIP3   OH279540   1.382   0.820   2.220  0.4151  0.3205  0.4130
19350TIP3    H179541   1.302   0.847   2.175 -0.1591 -0.6445  0.8165
19350TIP3    H279542   1.449   0.882   2.189 -0.7957  2.1550  1.2601
19351TIP3   OH279543   6.561   5.365   4.819  0.1737  0.6801  0.1671
19351TIP3    H179544   6.500   5.433   4.848 -0.0153  0.0605  1.2987
19351TIP3    H279545   6.549   5.294   4.883  2.0241  0.5076  0.3745
19352TIP3   OH279546   2.989   5.706   1.630 -0.6852 -0.1148 -0.2097
19352TIP3    H179547   2.974   5.613   1.648  0.2226 -0.5901 -1.7042
19352TIP3    H279548   3.084   5.713   1.618 -0.5271  1.3398  1.5241
19353TIP3   OH279549   0.733   1.106  13.485  0.3182 -0.9613 -0.1746
19353TIP3    H179550   0.817   1.120  13.528  1.0335 -1.6675 -1.2823
19353TIP3    H279551   0.743   1.149  13.400 -1.4200  1.2951  0.6859
19354TIP3   OH279552   2.720   0.625   0.852 -0.6882 -0.9574 -0.2359
19354TIP3    H179553   2.644   0.586   0.809 -2.8662  2.8599 -0.3424
19354TIP3    H279554   2.779   0.647   0.780 -1.2024 -0.7180 -0.5948
19355TIP3   OH279555   2.664   1.813  15.346  0.2148  0.3112  0.3600
19355TIP3    H179556   2.655   1.718  15.337  1.7031  0.1033  0.8345
19355TIP3    H279557   2.758   1.827  15.355  0.1611  1.9884 -1.2961
19356TIP3   OH279558   2.506   2.747   4.351  0.6564 -0.3388 -0.2990
19356TIP3    H179559   2.580   2.800   4.379  0.4469  0.5034 -1.2902
19356TIP3    H279560   2.431   2.807   4.354 -0.2073 -1.4024  1.6068
19357TIP3   OH279561   3.845   0.546  12.825  0.0372  0.8138  0.0725
19357TIP3    H179562   3.755   0.544  12.860 -0.4750  2.6126 -1.0321
19357TIP3    H279563   3.892   0.605  12.883  1.0219 -1.3358  1.6175
19358TIP3   OH279564   1.048   1.445  14.424 -0.0982 -0.6118  0.2451
19358TIP3    H179565   1.067   1.538  14.419 -1.0826 -0.3933  0.3503
19358TIP3    H279566   1.015   1.431  14.513 -1.7703 -0.6769 -0.3523
19359TIP3   OH279567   3.521   5.090   4.827  0.2978  0.0436  1.1043
19359TIP3    H179568   3.556   5.004   4.849  0.7067  0.6349  2.9367
19359TIP3    H279569   3.503   5.085   4.733 -0.2733 -2.2277  1.2736
19360TIP3   OH279570   2.449   4.688  15.345 -0.3104  0.6713  0.4924
19360TIP3    H179571   2.399   4.653  15.271  1.0792  1.7315 -1.0159
19360TIP3    H279572   2.502   4.614  15.376  0.6553  0.7067 -0.9694
19361TIP3   OH279573   3.440   2.502   6.864 -0.1935 -0.0757  0.0710
19361TIP3    H179574   3.486   2.559   6.926  1.3847 -0.4590 -0.6730
19361TIP3    H279575   3.463   2.537   6.778  1.3006 -2.0968 -0.4363
19362TIP3   OH279576   6.555   6.725   1.135 -0.9489  0.6204  0.1366
19362TIP3    H179577   6.637   6.681   1.157 -0.7623  0.8919 -0.0054
19362TIP3    H279578   6.487   6.666   1.165 -0.7662 -1.1980 -2.7044
19363TIP3   OH279579   5.903   1.336  14.523  0.1490 -0.0124  0.5807
19363TIP3    H179580   5.830   1.397  14.532 -1.0563 -1.1917 -0.6440
19363TIP3    H279581   5.926   1.313  14.613 -2.0867 -0.8159  1.0127
19364TIP3   OH279582   1.805   4.438   3.494 -0.5195  0.2941 -0.1537
19364TIP3    H179583   1.894   4.457   3.465 -0.2473  1.3170  1.2060
19364TIP3    H279584   1.780   4.358   3.447  1.0075  0.1334 -0.7460
19365TIP3   OH279585   1.034   2.208  15.358 -0.0045 -0.2226 -0.2371
19365TIP3    H179586   1.073   2.269  15.295 -1.7551  1.4270  0.1710
19365TIP3    H279587   1.103   2.145  15.377  1.1025  0.2320 -2.5074
19366TIP3   OH279588   0.108   5.194  14.703 -0.1900  0.3688  0.2215
19366TIP3    H179589   0.051   5.163  14.773  2.0586  1.5488  2.7675
19366TIP3    H279590   0.159   5.116  14.678 -0.0295  0.2344  0.9442
19367TIP3   OH279591   5.501   2.285   0.833 -0.0802 -0.2499 -0.0360
19367TIP3    H179592   5.564   2.316   0.899 -0.4374  0.2308  0.0822
19367TIP3    H279593   5.507   2.190   0.838  1.3051 -0.2259 -0.6605
19368TIP3   OH279594   5.467   6.623  12.671 -0.5555 -0.5519  0.4344
19368TIP3    H179595   5.473   6.528  12.677  1.0609 -0.5051 -0.0702
19368TIP3    H279596   5.452   6.640  12.578  1.3642 -0.2587  0.1401
19369TIP3   OH279597   2.500   1.737   2.123 -0.1910  0.1986  0.0107
19369TIP3    H179598   2.508   1.679   2.046 -0.3920  0.7679 -0.4430
19369TIP3    H279599   2.418   1.710   2.164  0.6629 -1.1633  0.9289
19370TIP3   OH279600   6.417   0.637  15.132 -0.9755 -0.1690  0.2871
19370TIP3    H179601   6.391   0.680  15.051 -1.1792  0.2247  0.5579
19370TIP3    H279602   6.351   0.664  15.196 -0.3519  0.1974  0.7835
19371TIP3   OH279603   1.412   5.226   2.707  0.1004 -0.1033 -0.2478
19371TIP3    H179604   1.467   5.262   2.638  1.4642 -0.3870  0.6684
19371TIP3    H279605   1.459   5.149   2.739  0.0157  0.5769  1.6660
19372TIP3   OH279606   4.464   1.505  15.850 -0.5135 -0.4220  0.3475
19372TIP3    H179607   4.538   1.562  15.870 -0.4435 -0.9345  1.5739
19372TIP3    H279608   4.413   1.501  15.931 -1.5503 -0.5818 -0.2920
19373TIP3   OH279609   6.156   4.995   1.205 -0.4806  0.1158 -0.4542
19373TIP3    H179610   6.114   4.981   1.120 -1.8690  0.6964  0.1058
19373TIP3    H279611   6.116   4.929   1.262  1.5739 -1.3239 -0.5640
19374TIP3   OH279612   4.325   1.122   5.337 -0.4433 -0.1007  0.4952
19374TIP3    H179613   4.305   1.163   5.421 -0.9160  0.8714 -0.0699
19374TIP3    H279614   4.328   1.195   5.275 -1.2836 -0.9134 -0.5511
19375TIP3   OH279615   0.921   6.766   5.254 -0.3718 -0.2753 -0.0830
19375TIP3    H179616   0.874   6.850   5.251 -1.0377 -0.6512 -0.5252
19375TIP3    H279617   0.954   6.754   5.165  0.2899 -0.1766  0.1420
19376TIP3   OH279618   4.589   5.115  17.095  0.1199  0.0025 -0.2113
19376TIP3    H179619   4.597   5.020  17.102  0.3915  0.0293 -0.1267
19376TIP3    H279620   4.501   5.129  17.060  1.0816 -0.4018 -3.0361
19377TIP3   OH279621   1.631   1.467   5.918 -0.0557 -0.2260 -0.0428
19377TIP3    H179622   1.718   1.443   5.886 -0.1339 -2.1312  1.0481
19377TIP3    H279623   1.647   1.514   6.000 -0.0455 -1.1021  0.4702
19378TIP3   OH279624   5.246   2.561   4.046  0.7255 -0.3276 -0.3118
19378TIP3    H179625   5.325   2.600   4.009  0.3642  0.6978 -0.0474
19378TIP3    H279626   5.255   2.573   4.141  0.6560 -0.9927 -0.2175
19379TIP3   OH279627   2.245   0.328  15.956 -0.2608 -0.4179  0.5180
19379TIP3    H179628   2.177   0.391  15.932 -0.6330 -0.9386  0.1914
19379TIP3    H279629   2.261   0.278  15.877 -0.0896 -0.8436  0.8167
19380TIP3   OH279630   0.643   6.071  16.361 -0.5310  0.5780  0.2435
19380TIP3    H179631   0.697   6.146  16.336  0.0490  0.3561  0.7804
19380TIP3    H279632   0.665   6.003  16.297  0.1905  0.3378  0.7318
19381TIP3   OH279633   1.420   0.563   4.011 -0.3363  0.1420  0.0681
19381TIP3    H179634   1.443   0.628   4.077 -1.0066  0.0393  0.4118
19381TIP3    H279635   1.484   0.493   4.023  0.5060  0.8034 -0.4239
19382TIP3   OH279636   4.273   6.511   3.014 -0.1140 -0.0716  0.3554
19382TIP3    H179637   4.273   6.418   2.990 -0.4720 -0.0447  0.2428
19382TIP3    H279638   4.192   6.545   2.977  0.6396  0.5919 -0.7886
19383TIP3   OH279639   1.974   6.388   3.861  0.8980  0.0181 -0.0528
19383TIP3    H179640   1.974   6.355   3.772  1.4970 -2.3444  0.7680
19383TIP3    H279641   1.897   6.446   3.865  1.0343  0.4031 -2.1360
19384TIP3   OH279642   5.632   1.323  11.482  0.4220  0.3396 -0.1782
19384TIP3    H179643   5.544   1.350  11.509 -0.1974 -1.7596  0.0199
19384TIP3    H279644   5.645   1.368  11.398 -1.7693 -0.9953 -1.3324
19385TIP3   OH279645   4.576   1.303  15.263  0.4978  0.2211  0.1083
19385TIP3    H179646   4.527   1.270  15.187  0.4973 -1.4173  0.7734
19385TIP3    H279647   4.647   1.240  15.274  0.7360  0.6771  1.2259
19386TIP3   OH279648   6.347   6.568  14.400 -0.2056  0.6144 -0.2679
19386TIP3    H179649   6.291   6.490  14.394  0.2109  0.2098  0.8699
19386TIP3    H279650   6.419   6.550  14.340 -0.4318  0.3950 -0.4781
19387TIP3   OH279651   2.801   2.034  11.057 -0.1036 -0.9936  0.5022
19387TIP3    H179652   2.869   2.080  11.008 -0.0694 -1.6347 -0.0512
19387TIP3    H279653   2.765   1.971  10.996 -1.3034 -0.5733  0.7464
19388TIP3   OH279654   0.837   5.047  16.391  0.3792  0.3181  0.0696
19388TIP3    H179655   0.862   5.042  16.483 -0.9762  1.3655  0.5235
19388TIP3    H279656   0.744   5.027  16.389  0.5312 -0.3800 -1.1711
19389TIP3   OH279657   1.893   5.251  11.938  0.6072  0.3816  0.3119
19389TIP3    H179658   1.929   5.325  11.986 -0.9659  1.9824 -0.8696
19389TIP3    H279659   1.909   5.270  11.846 -2.9925  1.2043 -0.3062
19390TIP3   OH279660   6.360   3.981   0.661 -0.3738  0.4062  0.0350
19390TIP3    H179661   6.383   3.962   0.570  0.5361  0.8777  0.1607
19390TIP3    H279662   6.342   3.895   0.699  1.7304 -0.0804  0.0598
19391TIP3   OH279663   1.370   2.004  12.027 -0.6618 -0.7194  0.1510
19391TIP3    H179664   1.337   2.051  12.104 -0.0487 -1.6724  1.0254
19391TIP3    H279665   1.378   2.071  11.960  1.2693  0.6904  1.6833
19392TIP3   OH279666   6.448   4.822   0.349 -0.5366 -0.5295 -0.1851
19392TIP3    H179667   6.394   4.855   0.278 -0.3270 -0.3924 -0.2816
19392TIP3    H279668   6.499   4.751   0.311 -0.2025 -0.2562 -0.2503
19393TIP3   OH279669   5.758   2.615  14.858 -0.0429 -0.7446 -0.3868
19393TIP3    H179670   5.729   2.569  14.779 -0.7306  0.6451 -0.9856
19393TIP3    H279671   5.678   2.639  14.904  0.3386 -1.0889  0.4868
19394TIP3   OH279672   5.028   5.967   2.525 -0.1867 -0.0177  0.2194
19394TIP3    H179673   5.081   5.949   2.602 -0.6283 -0.0091  0.5333
19394TIP3    H279674   5.013   5.882   2.485 -2.7959 -0.5378  2.0455
19395TIP3   OH279675   0.735   5.870  16.159  0.0887  0.4879  0.1442
19395TIP3    H179676   0.748   5.946  16.102 -1.3850  0.5250 -0.1581
19395TIP3    H279677   0.820   5.825  16.158  0.3977  1.0625 -1.2201
19396TIP3   OH279678   1.850   6.106   3.776  0.0220 -0.1887 -0.3277
19396TIP3    H179679   1.877   6.086   3.686 -0.3800 -0.1657 -0.4526
19396TIP3    H279680   1.801   6.188   3.769  1.0310  0.4733  0.0831
19397TIP3   OH279681   3.002   3.319   3.229 -0.0206  0.2698 -0.2819
19397TIP3    H179682   3.054   3.355   3.300 -0.7414  1.2793 -0.2417
19397TIP3    H279683   3.058   3.253   3.189  0.1377 -0.8073  1.6454
19398TIP3   OH279684   0.848   6.497  14.327 -0.4043  0.2295 -0.3153
19398TIP3    H179685   0.904   6.518  14.252  0.2229 -0.0127  0.0755
19398TIP3    H279686   0.908   6.462  14.393 -1.4216 -3.3453 -1.0964
19399TIP3   OH279687   4.987   3.172  16.011  0.4806 -0.3365 -0.8332
19399TIP3    H179688   5.065   3.123  16.039  0.5840  1.2573  2.0640
19399TIP3    H279689   4.934   3.107  15.964  0.7821 -3.2466  2.4237
19400TIP3   OH279690   5.518   2.560   2.008  0.1555 -0.3433  0.0216
19400TIP3    H179691   5.489   2.515   1.929  0.2121 -2.6402  1.2234
19400TIP3    H279692   5.613   2.545   2.011  0.5124  1.5220 -0.4939
19401TIP3   OH279693   1.819   6.374  12.768 -0.2135  0.2775 -0.2321
19401TIP3    H179694   1.776   6.398  12.850 -2.2642  0.0224 -1.1595
19401TIP3    H279695   1.812   6.452  12.713  1.8298  0.7066  0.0388
19402TIP3   OH279696   5.140   6.005  14.557  0.1537  1.0467 -0.2605
19402TIP3    H179697   5.177   5.929  14.602 -1.3398  0.9392  0.8603
19402TIP3    H279698   5.208   6.033  14.496  1.1662 -0.4935  0.1274
19403TIP3   OH279699   5.316   3.505   3.771  0.1175 -0.6880 -0.3864
19403TIP3    H179700   5.286   3.586   3.729  0.1757  0.6698  1.9958
19403TIP3    H279701   5.373   3.535   3.842  2.4177 -2.9745 -1.0943
19404TIP3   OH279702   0.325   3.992   2.320 -1.1271  0.0512 -0.2817
19404TIP3    H179703   0.235   4.021   2.308 -0.9688  1.9073  2.2544
19404TIP3    H279704   0.378   4.058   2.275 -0.9090  2.1856  2.8122
19405TIP3   OH279705   6.344   4.100   0.224  0.1491  0.2949  0.3423
19405TIP3    H179706   6.374   4.021   0.180  1.5765  1.3746 -0.7213
19405TIP3    H279707   6.343   4.167   0.156 -1.0131  1.2167  1.2130
19406TIP3   OH279708   5.593   1.603  12.237  0.3229 -0.6555  0.2320
19406TIP3    H179709   5.634   1.652  12.308 -1.8672  0.5749  0.7715
19406TIP3    H279710   5.641   1.630  12.158  0.7800  0.4364  0.8593
19407TIP3   OH279711   3.083   6.418  13.826 -0.4606  0.1448 -0.4298
19407TIP3    H179712   3.120   6.343  13.780  2.0028  1.2931 -0.5025
19407TIP3    H279713   3.137   6.492  13.799 -0.8591  1.4211  1.9429
19408TIP3   OH279714   6.205   5.006  15.012  0.3058  0.2159  0.6383
19408TIP3    H179715   6.201   4.950  14.933  1.0486  0.9249  0.0892
19408TIP3    H279716   6.280   4.972  15.061 -0.8750 -1.0148  1.6768
19409TIP3   OH279717   3.940   3.038   1.784 -0.1653 -0.6125  0.1082
19409TIP3    H179718   3.860   3.067   1.740 -0.5191  0.2436  1.2707
19409TIP3    H279719   3.997   3.007   1.713 -1.1208 -0.2670 -0.8289
19410TIP3   OH279720   4.487   5.911  11.189  0.4335  0.4546 -0.8076
19410TIP3    H179721   4.469   5.961  11.109  2.8786  1.6349 -0.7121
19410TIP3    H279722   4.530   5.973  11.247 -1.3581 -0.3537  1.5378
19411TIP3   OH279723   3.803   5.522  14.660  0.6582  0.1774 -0.8000
19411TIP3    H179724   3.867   5.559  14.599  2.4488 -0.5373  0.5550
19411TIP3    H279725   3.847   5.524  14.745 -1.4266  0.3236  0.3387
19412TIP3   OH279726   0.734   6.472  15.849 -0.1719 -0.1558  0.4488
19412TIP3    H179727   0.733   6.383  15.813 -2.4513  0.7656 -2.1742
19412TIP3    H279728   0.785   6.522  15.785  0.3924  0.6000  1.4710
19413TIP3   OH279729   1.766   5.170   3.492 -0.3132 -0.6119 -0.6852
19413TIP3    H179730   1.746   5.082   3.460 -2.5881 -1.5808  2.7851
19413TIP3    H279731   1.690   5.222   3.466  0.3032 -0.0441 -1.3813
19414TIP3   OH279732   5.980   2.014  10.641  0.0889  0.3633 -0.3960
19414TIP3    H179733   6.005   1.924  10.659  1.0224  0.4294 -1.3213
19414TIP3    H279734   6.062   2.063  10.642 -0.5145  1.4223  1.2057
19415TIP3   OH279735   6.662   2.571   6.196  0.0620 -0.7374  0.3377
19415TIP3    H179736   6.633   2.650   6.151 -3.0027 -0.9610  1.6741
19415TIP3    H279737   6.701   2.602   6.278  0.1294 -0.5571  0.2367
19416TIP3   OH279738   4.284   4.147   6.652 -0.4046  0.3301  0.8673
19416TIP3    H179739   4.365   4.194   6.671 -0.3865  0.9655 -0.6581
19416TIP3    H279740   4.247   4.193   6.577 -1.7619 -0.4692  1.0154
19417TIP3   OH279741   2.328   3.964   2.770 -0.5264  0.2606 -0.0501
19417TIP3    H179742   2.347   4.001   2.856 -3.7745  1.0212  0.4693
19417TIP3    H279743   2.275   3.886   2.789  1.3150 -1.3973 -1.3397
19418TIP3   OH279744   5.681   4.842   2.013  0.5963  0.2755  0.2314
19418TIP3    H179745   5.609   4.873   1.958 -0.2842  0.9283  1.7035
19418TIP3    H279746   5.722   4.922   2.046 -0.2147 -0.0539  2.1835
19419TIP3   OH279747   0.996   1.694  16.556  0.7182  0.2996  0.1598
19419TIP3    H179748   0.992   1.766  16.493  1.4160 -0.8124 -1.2032
19419TIP3    H279749   1.075   1.646  16.532  0.2421 -0.9475  1.0197
19420TIP3   OH279750   5.228   0.873   0.065 -0.1966  0.1849  0.5543
19420TIP3    H179751   5.258   0.884  -0.025  0.1284  0.1080  0.6524
19420TIP3    H279752   5.296   0.914   0.118  0.2586 -0.8994  0.8426
19421TIP3   OH279753   4.875   4.997  14.770  0.2969  0.0435  0.2413
19421TIP3    H179754   4.965   4.982  14.800  0.3757 -0.1012 -0.0669
19421TIP3    H279755   4.859   4.926  14.707 -0.7419 -1.1964  1.8238
19422TIP3   OH279756   0.291   2.071   3.944 -0.1118 -0.3959 -0.5965
19422TIP3    H179757   0.383   2.049   3.928 -0.2350 -2.2753  0.9257
19422TIP3    H279758   0.288   2.099   4.035 -1.1610 -1.0469 -0.4156
19423TIP3   OH279759   6.381   6.610   3.994 -0.3771 -0.5257  0.0836
19423TIP3    H179760   6.466   6.649   3.972 -0.7968  0.2241 -0.2883
19423TIP3    H279761   6.396   6.516   3.993  0.3401 -0.4169 -0.4626
19424TIP3   OH279762   6.154   2.016  15.187 -0.0820  0.5473  0.4197
19424TIP3    H179763   6.079   2.019  15.127 -0.1581  0.7807  0.5272
19424TIP3    H279764   6.230   2.004  15.130 -0.1210  1.0839  0.2523
19425TIP3   OH279765   4.177   0.366  16.290 -0.0316 -0.1986 -0.2774
19425TIP3    H179766   4.263   0.324  16.294  0.5574  1.0635  1.1438
19425TIP3    H279767   4.117   0.303  16.330  0.6189 -0.2340  0.6745
19426TIP3   OH279768   5.367   1.887   2.347  0.1016 -0.2447  0.7279
19426TIP3    H179769   5.417   1.917   2.423 -1.1333 -1.7395  2.2051
19426TIP3    H279770   5.279   1.869   2.381 -0.9900  0.6411 -1.4353
19427TIP3   OH279771   3.381   4.928   1.069 -0.3179 -0.0052 -0.4608
19427TIP3    H179772   3.293   4.921   1.106 -0.4763 -1.6090 -1.0707
19427TIP3    H279773   3.378   5.008   1.017 -1.0627  0.5669  0.4251
19428TIP3   OH279774   3.370   6.797   1.410 -0.5925  0.1567  0.0824
19428TIP3    H179775   3.372   6.887   1.442 -1.2403  0.3640 -0.4353
19428TIP3    H279776   3.414   6.747   1.478 -0.5370  0.8156  0.5437
19429TIP3   OH279777   6.706   2.315   5.606  0.3079  0.2559  0.4033
19429TIP3    H179778   6.741   2.264   5.679  0.1510  0.0358  0.3224
19429TIP3    H279779   6.649   2.380   5.647 -1.3132 -1.0858  0.3464
19430TIP3   OH279780   6.606   3.547  14.675 -0.3640  0.3930  0.5264
19430TIP3    H179781   6.697   3.531  14.649 -0.5140  1.5188 -0.8125
19430TIP3    H279782   6.611   3.629  14.725 -0.6235  0.4179  0.5094
19431TIP3   OH279783   5.846   2.932   6.595  0.2762  0.7781 -0.1824
19431TIP3    H179784   5.812   2.870   6.530 -0.2232  2.4462 -1.6120
19431TIP3    H279785   5.793   3.011   6.582  0.7659  1.4535  1.6876
19432TIP3   OH279786   5.535   2.716   1.629  0.3339 -0.3385 -0.3132
19432TIP3    H179787   5.575   2.633   1.604  0.4340 -0.7492  1.1502
19432TIP3    H279788   5.567   2.778   1.564  0.4438 -1.3810 -1.2952
19433TIP3   OH279789   6.560   0.822   3.067  0.4762 -0.8401 -0.0699
19433TIP3    H179790   6.607   0.828   2.984  0.5111 -1.8990 -0.1408
19433TIP3    H279791   6.553   0.913   3.098  1.5352 -0.5548 -0.6284
19434TIP3   OH279792   6.222   6.456  14.829  0.0053  0.2114 -0.0679
19434TIP3    H179793   6.172   6.464  14.748 -1.6795  0.5084  0.9487
19434TIP3    H279794   6.219   6.363  14.850 -2.0350  0.4797  1.0846
19435TIP3   OH279795   1.175   4.996  17.206  0.6404  0.2825  0.4270
19435TIP3    H179796   1.151   5.086  17.186  1.7517  0.6543  0.7153
19435TIP3    H279797   1.114   4.943  17.154  0.0279  1.1845  0.1925
19436TIP3   OH279798   3.809   4.034  13.117  0.0241  0.5122 -0.2059
19436TIP3    H179799   3.840   4.061  13.030  0.4103  0.4574 -0.0890
19436TIP3    H279800   3.889   4.013  13.165 -0.2653 -1.0995 -0.3771
19437TIP3   OH279801   3.747   3.121   1.583  0.2375 -0.4175  0.1845
19437TIP3    H179802   3.658   3.157   1.576  0.0740 -0.5161  1.4065
19437TIP3    H279803   3.804   3.198   1.579  0.0844 -0.3270 -0.3469
19438TIP3   OH279804   1.279   1.980   0.025 -0.2059  1.3081 -0.3954
19438TIP3    H179805   1.196   1.943   0.056 -0.0638  1.2616 -0.0580
19438TIP3    H279806   1.339   1.967   0.099  0.9110 -1.3251 -1.6202
19439TIP3   OH279807   4.626   6.458  14.286  0.1445 -0.0483  0.5559
19439TIP3    H179808   4.653   6.402  14.358 -0.1789 -1.9455 -0.7143
19439TIP3    H279809   4.536   6.430  14.266  0.3311  0.2012 -0.7612
19440TIP3   OH279810   1.907   6.372  15.324  0.5289 -0.0831  0.0385
19440TIP3    H179811   1.913   6.358  15.230 -1.9379  1.6847 -0.4706
19440TIP3    H279812   1.913   6.467  15.335 -1.6950 -0.0214  1.3525
19441TIP3   OH279813   6.383   6.750  16.158  0.0782 -0.5549 -0.4472
19441TIP3    H179814   6.355   6.679  16.100 -0.5314 -0.1367 -0.6815
19441TIP3    H279815   6.308   6.810  16.160  1.2382  0.9973 -1.6999
19442TIP3   OH279816   1.941   6.518   5.188 -0.0687 -0.3187 -0.6236
19442TIP3    H179817   1.861   6.565   5.210 -0.5501 -2.0390  1.6820
19442TIP3    H279818   2.008   6.556   5.244 -0.2347 -1.5541  0.4774
19443TIP3   OH279819   1.293   6.119   2.265 -0.3427 -0.2799  0.2478
19443TIP3    H179820   1.263   6.061   2.195 -1.3036 -1.2493  1.4270
19443TIP3    H279821   1.319   6.061   2.336  0.2157  0.6973  0.8792
19444TIP3   OH279822   5.775   3.847   2.917  0.3132 -0.3507  0.2309
19444TIP3    H179823   5.789   3.901   2.996  1.1918  0.0407 -0.1719
19444TIP3    H279824   5.748   3.910   2.850  2.3744 -0.1763 -0.5283
19445TIP3   OH279825   3.578   0.239  12.520  0.0088  0.1979  0.0789
19445TIP3    H179826   3.673   0.231  12.521 -0.0399 -0.4907 -0.3563
19445TIP3    H279827   3.551   0.197  12.438 -0.7645 -0.6847  0.7586
19446TIP3   OH279828   1.365   3.538   2.056  0.4292 -0.1540 -0.4694
19446TIP3    H179829   1.272   3.528   2.040  0.5739 -2.3265 -0.2341
19446TIP3    H279830   1.392   3.611   2.000 -1.2624  0.0508 -1.0473
19447TIP3   OH279831   1.889   3.204   5.916  0.0822  0.0611 -0.2752
19447TIP3    H179832   1.803   3.162   5.918  0.9080 -1.7279  1.8314
19447TIP3    H279833   1.947   3.140   5.958  2.1247  1.8886 -0.1775
19448TIP3   OH279834   6.728   6.168   0.900  0.7511  0.1395 -0.1105
19448TIP3    H179835   6.747   6.083   0.941 -1.6625 -0.7970 -0.7873
19448TIP3    H279836   6.716   6.228   0.973  0.0504 -0.6873  0.4768
19449TIP3   OH279837   3.617   5.591  12.807 -0.5894 -0.2205 -0.1506
19449TIP3    H179838   3.665   5.626  12.732  0.7621 -0.8473  0.3907
19449TIP3    H279839   3.594   5.668  12.859 -2.7495  0.3700 -1.8383
19450TIP3   OH279840   5.750   5.356   0.210  0.4001  0.3537 -0.2440
19450TIP3    H179841   5.736   5.424   0.277  1.0344 -0.3102  0.5925
19450TIP3    H279842   5.825   5.306   0.243 -0.6562 -1.3717 -0.3231
19451TIP3   OH279843   6.097   5.732   3.846  0.4199  0.2285  0.0537
19451TIP3    H179844   6.031   5.792   3.813  0.6781  0.7947  0.5474
19451TIP3    H279845   6.150   5.711   3.769  0.9050  1.3891  0.0458
19452TIP3   OH279846   5.679   6.277   4.500 -0.4854  0.1221  0.3460
19452TIP3    H179847   5.598   6.319   4.530 -1.0398 -1.0405  0.5365
19452TIP3    H279848   5.703   6.217   4.570 -0.4507 -0.8311 -0.4491
19453TIP3   OH279849   0.579   2.021   1.400 -0.2639 -0.5361 -0.1294
19453TIP3    H179850   0.619   2.048   1.483  1.4312 -2.2772 -0.3283
19453TIP3    H279851   0.615   2.082   1.335  0.5218 -0.8370  0.0133
19454TIP3   OH279852   2.789   3.810  13.335 -0.5662 -0.3019  0.4544
19454TIP3    H179853   2.867   3.757  13.351 -0.6869  0.0646  2.5631
19454TIP3    H279854   2.824   3.897  13.317 -0.4468  0.0085  2.0164
19455TIP3   OH279855   2.199   5.838   2.142 -0.1513  0.0742  0.0301
19455TIP3    H179856   2.163   5.856   2.230  1.4499  0.1923  0.6873
19455TIP3    H279857   2.234   5.923   2.114  1.2402 -0.4304  0.1952
19456TIP3   OH279858   6.423   1.439   3.081  0.0989  0.0503  0.0634
19456TIP3    H179859   6.428   1.488   2.999  1.1960 -0.2953 -0.0830
19456TIP3    H279860   6.356   1.372   3.064  0.4298 -0.1170 -0.6017
19457TIP3   OH279861   5.058   4.234   2.598  1.0865 -0.4330 -0.1805
19457TIP3    H179862   4.986   4.225   2.536 -0.5529 -0.5627  1.6638
19457TIP3    H279863   5.053   4.155   2.652  1.8335  0.1419  0.7639
19458TIP3   OH279864   3.026   2.668   2.541  0.0598  0.0587  0.3720
19458TIP3    H179865   3.066   2.602   2.484 -0.2170 -0.3250  0.6154
19458TIP3    H279866   2.976   2.723   2.481 -0.2206 -0.3338  0.2358
19459TIP3   OH279867   0.462   0.867   2.650 -0.2695 -0.5518  0.3373
19459TIP3    H179868   0.503   0.805   2.589  0.1280 -0.2412  0.2816
19459TIP3    H279869   0.486   0.953   2.615 -0.6863 -0.3661  0.5027
19460TIP3   OH279870   4.426   3.401  12.779 -0.3242 -0.0437  0.0002
19460TIP3    H179871   4.351   3.425  12.833 -0.9061 -0.2397 -0.7004
19460TIP3    H279872   4.502   3.421  12.833 -0.8023  2.1688 -0.0608
19461TIP3   OH279873   2.395   3.178  17.113  0.2452  0.1819  0.1651
19461TIP3    H179874   2.476   3.217  17.144  0.5948 -1.0373  0.8474
19461TIP3    H279875   2.397   3.088  17.146 -1.6839  0.3111  0.7490
19462TIP3   OH279876   2.669   0.930   2.269  0.0363  0.1766  0.4696
19462TIP3    H179877   2.678   0.956   2.361 -0.5679 -2.1103  1.2379
19462TIP3    H279878   2.575   0.931   2.253  0.2254  3.0520 -0.9711
19463TIP3   OH279879   0.557   6.350  16.600  0.5416  0.2668 -0.1105
19463TIP3    H179880   0.611   6.305  16.665 -0.6362  0.1083  0.7942
19463TIP3    H279881   0.470   6.311  16.609  0.0489  1.1205 -0.9184
19464TIP3   OH279882   1.966   5.245   1.721  0.3981 -0.0580 -0.1162
19464TIP3    H179883   1.974   5.329   1.676  0.0077  0.3004  0.4652
19464TIP3    H279884   1.886   5.253   1.773  0.4978 -0.6969  0.1501
19465TIP3   OH279885   1.012   3.277   1.382  0.6430 -0.0473 -0.5428
19465TIP3    H179886   1.025   3.202   1.324  1.0651 -0.0932 -0.3926
19465TIP3    H279887   0.974   3.240   1.462  2.2880 -0.3484  0.1439
19466TIP3   OH279888   4.423   1.864   2.341  0.3199  0.1071  0.1420
19466TIP3    H179889   4.413   1.947   2.386  1.1285  0.5465 -0.4622
19466TIP3    H279890   4.495   1.820   2.387  0.3185  0.0220  0.0633
19467TIP3   OH279891   0.365   3.617  12.495  0.2152  0.8058 -0.2811
19467TIP3    H179892   0.363   3.701  12.449 -1.3792 -0.3456 -2.4949
19467TIP3    H279893   0.441   3.624  12.553 -0.7888  4.3733  0.8855
19468TIP3   OH279894   0.701   6.733  10.982 -0.2036  0.0666  0.0509
19468TIP3    H179895   0.675   6.711  10.892 -0.0761 -0.1059  0.0569
19468TIP3    H279896   0.712   6.828  10.981 -1.0892  0.1789  0.1098
19469TIP3   OH279897   5.269   3.698   3.605 -0.2606  0.5036 -0.7148
19469TIP3    H179898   5.238   3.762   3.541 -0.4968  3.6664  2.2480
19469TIP3    H279899   5.363   3.693   3.590 -0.5482 -0.2589 -2.4331
19470TIP3   OH279900   6.698   4.479  13.302  0.2260  0.1087 -0.0139
19470TIP3    H179901   6.611   4.484  13.260  0.3649  1.6960 -0.1752
19470TIP3    H279902   6.715   4.568  13.332  1.7095 -0.2327  0.2284
19471TIP3   OH279903   2.617   6.330   1.842  0.1426 -0.2576 -0.4784
19471TIP3    H179904   2.571   6.251   1.813 -2.6112  0.4237  1.6435
19471TIP3    H279905   2.628   6.318   1.936 -0.4142  1.8679 -0.0960
19472TIP3   OH279906   3.776   5.502  16.030 -0.1914 -0.3780  0.4545
19472TIP3    H179907   3.800   5.436  15.965  1.1342  0.9592 -0.4976
19472TIP3    H279908   3.860   5.536  16.061 -0.8360  0.5572  1.2181
19473TIP3   OH279909   6.423   0.659   0.859  0.3338 -0.1533  0.3485
19473TIP3    H179910   6.341   0.634   0.816  0.8321  1.0275 -1.3849
19473TIP3    H279911   6.431   0.753   0.843  1.2696  0.0642  1.8578
19474TIP3   OH279912   3.621   3.069   3.025  0.3783  0.1421 -0.6286
19474TIP3    H179913   3.581   3.112   3.101 -0.6263 -1.3651 -0.2522
19474TIP3    H279914   3.561   3.087   2.953 -1.9436 -3.2359  0.2065
19475TIP3   OH279915   4.081   4.899   2.770 -1.1699  0.6080 -0.2022
19475TIP3    H179916   4.099   4.829   2.707  0.3077  2.2133 -1.6674
19475TIP3    H279917   4.129   4.874   2.849  0.2475  0.4895 -1.0881
19476TIP3   OH279918   4.106   4.321   5.684  0.1568  0.2127  0.1867
19476TIP3    H179919   4.168   4.253   5.710  0.6336 -0.0345 -1.5090
19476TIP3    H279920   4.080   4.298   5.595 -1.5210  0.9444  0.4486
19477TIP3   OH279921   4.009   4.966   5.712  0.2831  0.1165  0.0874
19477TIP3    H179922   3.940   5.018   5.752 -0.0231  1.0780 -1.5920
19477TIP3    H279923   3.996   4.978   5.618  1.0799 -1.8688 -0.3243
19478TIP3   OH279924   6.362   6.565  12.326 -0.2288 -0.0776 -0.1716
19478TIP3    H179925   6.365   6.661  12.332  0.6806 -0.1940  2.8029
19478TIP3    H279926   6.270   6.544  12.315 -0.5614  1.1235  0.1871
19479TIP3   OH279927   5.973   1.066  11.898  0.3807  0.3609  0.2189
19479TIP3    H179928   5.956   1.030  11.811 -2.0839  1.4289  0.1683
19479TIP3    H279929   5.966   0.991  11.957  0.0078 -0.0480 -0.3334
19480TIP3   OH279930   4.149   1.459  16.641  0.7253 -0.3655 -0.8832
19480TIP3    H179931   4.176   1.489  16.727 -0.2257 -1.9507  0.0176
19480TIP3    H279932   4.231   1.454  16.591  1.4873 -0.6492  0.3423
19481TIP3   OH279933   4.608   5.197  11.562  0.4213  0.0673 -0.1001
19481TIP3    H179934   4.561   5.121  11.529 -0.0935  0.0557  0.6300
19481TIP3    H279935   4.696   5.189  11.524  0.6022 -1.2857  0.5424
19482TIP3   OH279936   5.630   1.970   0.839  0.5390 -0.5935 -0.3308
19482TIP3    H179937   5.563   1.974   0.907  0.8603  0.3236 -0.0469
19482TIP3    H279938   5.595   1.909   0.774  0.8575 -2.6822  1.3250
19483TIP3   OH279939   5.864   1.295  17.323  0.1033 -0.0713  0.9535
19483TIP3    H179940   5.848   1.209  17.286 -0.4156 -0.1611  1.3656
19483TIP3    H279941   5.911   1.279  17.404  0.2799  0.0521  0.8761
19484TIP3   OH279942   3.518   1.402  15.329  0.4351 -0.8092 -0.1762
19484TIP3    H179943   3.535   1.461  15.402 -1.5917 -1.5369  0.9594
19484TIP3    H279944   3.447   1.443  15.279  1.0771 -0.8414 -1.1575
19485TIP3   OH279945   3.777   0.471   3.253 -0.5951 -0.0569 -0.6282
19485TIP3    H179946   3.791   0.516   3.170 -0.5465 -0.8552 -1.0641
19485TIP3    H279947   3.794   0.379   3.233 -1.1259 -0.3271  0.1385
19486TIP3   OH279948   1.882   2.107   2.403 -0.5504  0.9304  0.4233
19486TIP3    H179949   1.819   2.036   2.415 -0.6889  0.6861 -1.4589
19486TIP3    H279950   1.945   2.095   2.474 -1.9404  0.4635  1.6254
19487TIP3   OH279951   0.059   3.266   6.362  0.2854 -0.0149 -0.0646
19487TIP3    H179952   0.054   3.354   6.323 -1.5598 -0.7451 -1.6799
19487TIP3    H279953   0.146   3.261   6.400  0.8511  2.1150 -0.9285
19488TIP3   OH279954   0.050   3.820   2.611 -0.3501  0.3349  0.1752
19488TIP3    H179955   0.050   3.755   2.681 -0.8452 -1.0224 -1.0193
19488TIP3    H279956  -0.042   3.847   2.604 -0.2060  0.8944  0.4242
19489TIP3   OH279957   0.479   3.405  13.416  0.1149 -0.2369  0.3299
19489TIP3    H179958   0.485   3.499  13.399  1.4146  0.0818  2.1818
19489TIP3    H279959   0.385   3.388  13.422 -0.1402  0.9568 -0.0232
19490TIP3   OH279960   1.013   5.621  15.244  0.3811  0.1038 -0.0541
19490TIP3    H179961   1.007   5.582  15.157  0.1777  0.6622 -0.2984
19490TIP3    H279962   0.971   5.558  15.302 -1.3128  0.6237 -0.6537
19491TIP3   OH279963   4.513   0.464  13.876  0.1536  0.3707 -0.2599
19491TIP3    H179964   4.460   0.385  13.879 -0.3481  0.7186  0.4204
19491TIP3    H279965   4.594   0.438  13.832 -0.3598 -0.2978 -0.8024
19492TIP3   OH279966   0.552   6.544  15.182  0.5207 -0.4532  0.2267
19492TIP3    H179967   0.508   6.481  15.126  1.1739 -1.0210  0.3342
19492TIP3    H279968   0.482   6.591  15.226  0.0211 -1.3221  0.3823
19493TIP3   OH279969   1.287   0.730  13.719  0.5427 -0.2977  0.1216
19493TIP3    H179970   1.195   0.733  13.744  0.2129  3.5496 -0.9119
19493TIP3    H279971   1.285   0.729  13.623  1.6691 -1.7050  0.0738
19494TIP3   OH279972   2.336   2.567  15.004  0.3799 -0.7088  0.0412
19494TIP3    H179973   2.300   2.570  15.093  0.0310  1.6671 -0.1112
19494TIP3    H279974   2.278   2.509  14.956 -1.1116  0.1617  0.7209
19495TIP3   OH279975   1.120   2.119   2.442 -0.2847  0.1261 -0.1283
19495TIP3    H179976   1.136   2.064   2.365  0.6971 -1.1864  0.9554
19495TIP3    H279977   1.139   2.208   2.413  1.4743 -0.4951 -1.0297
19496TIP3   OH279978   0.182   2.735  12.768 -0.3829  0.2518  0.4193
19496TIP3    H179979   0.144   2.823  12.769  0.8263  0.7916 -0.1012
19496TIP3    H279980   0.188   2.712  12.676 -0.6647 -0.3744  0.5511
19497TIP3   OH279981   1.647   6.385  14.461  0.4349 -0.0837  0.5987
19497TIP3    H179982   1.597   6.306  14.482 -1.6096  0.0118 -3.0601
19497TIP3    H279983   1.585   6.457  14.474  1.1733  0.5785  0.5548
19498TIP3   OH279984   0.023   2.300  14.202  0.4868  0.1830 -0.2314
19498TIP3    H179985  -0.013   2.352  14.130  2.6421  0.4857 -1.1595
19498TIP3    H279986  -0.023   2.216  14.196 -0.6200  0.8106 -0.8400
19499TIP3   OH279987   3.709   1.406   0.826  0.4618 -0.0513 -0.4559
19499TIP3    H179988   3.711   1.500   0.842 -1.0670  0.4237 -2.6391
19499TIP3    H279989   3.783   1.390   0.767 -0.5955  0.2218 -1.9015
19500TIP3   OH279990   5.049   4.709  15.487 -0.0837  0.9051  0.3664
19500TIP3    H179991   5.058   4.629  15.436 -1.8626  0.1840  1.1215
19500TIP3    H279992   5.139   4.731  15.513  0.2728 -2.6415  2.8747
19501TIP3   OH279993   4.153   0.080  15.106 -0.0740 -0.5530 -0.1639
19501TIP3    H179994   4.149   0.176  15.099  0.8429 -0.5952 -1.6218
19501TIP3    H279995   4.091   0.048  15.040 -0.6854 -0.9858  0.5969
19502TIP3   OH279996   1.797   1.547   5.408  0.7260 -0.1900  0.2055
19502TIP3    H179997   1.772   1.455   5.417  0.1370 -0.0975 -0.4093
19502TIP3    H279998   1.767   1.588   5.490  0.9330 -0.5292  0.4532
19503TIP3   OH279999   5.415   1.167   3.866  0.0792  0.3963 -0.5806
19503TIP3    H180000   5.333   1.132   3.898  1.0244 -2.0990 -0.6869
19503TIP3    H280001   5.425   1.128   3.779  0.8586  1.5547 -1.0325
19504TIP3   OH280002   4.872   1.582  17.362 -0.2246 -0.0096  0.2341
19504TIP3    H180003   4.810   1.608  17.430 -1.9713  0.6841 -1.5254
19504TIP3    H280004   4.938   1.530  17.408 -2.2719 -1.0459  2.1668
19505TIP3   OH280005   1.087   5.750   0.274 -0.2765 -0.5506  0.1863
19505TIP3    H180006   0.993   5.739   0.288  0.0905 -0.2446  4.1057
19505TIP3    H280007   1.124   5.663   0.290  0.3756  0.2284  3.6818
19506TIP3   OH280008   4.668   5.453  11.104  0.1706 -0.0582 -0.2693
19506TIP3    H180009   4.741   5.438  11.044 -1.3638  0.5044 -2.3930
19506TIP3    H280010   4.604   5.386  11.081 -2.1614  2.6482 -2.2246
19507TIP3   OH280011   3.948   5.343  16.692 -0.1414 -0.0199 -0.2712
19507TIP3    H180012   3.974   5.341  16.600  0.7482  1.1292 -0.0658
19507TIP3    H280013   4.029   5.358  16.740 -0.8501  1.2464  0.5714
19508TIP3   OH280014   0.013   4.398  12.015  0.9899 -0.0237 -0.5194
19508TIP3    H180015   0.090   4.361  12.059  0.6277 -0.2533 -0.0639
19508TIP3    H280016  -0.059   4.342  12.043  1.0846 -1.8032 -3.4400
19509TIP3   OH280017   4.193   0.959  11.238  0.1468 -0.0396 -0.3702
19509TIP3    H180018   4.287   0.955  11.220  0.0615 -0.0705 -0.8029
19509TIP3    H280019   4.187   1.008  11.321  0.3869  2.5271 -1.7688
19510TIP3   OH280020   6.212   3.639   6.276 -0.1326  0.3717 -0.5204
19510TIP3    H180021   6.136   3.581   6.285 -0.5099  1.1526  2.2767
19510TIP3    H280022   6.247   3.647   6.365  3.8230 -0.6119 -1.7537
19511TIP3   OH280023   2.933   0.424   0.922 -0.3752 -0.5180  0.0448
19511TIP3    H180024   2.876   0.387   0.990 -0.2083  0.9904  1.0640
19511TIP3    H280025   2.874   0.440   0.848 -0.8154 -1.0642  0.2690
19512TIP3   OH280026   2.226   4.244  16.634  0.2394  0.2285  0.7422
19512TIP3    H180027   2.249   4.305  16.564  0.1913 -0.9118 -0.2982
19512TIP3    H280028   2.132   4.256  16.646  0.0929 -0.1496  0.0276
19513TIP3   OH280029   6.665   2.207   3.037  0.0740 -0.5639 -0.1117
19513TIP3    H180030   6.598   2.157   2.990  1.1849 -1.1689 -1.0990
19513TIP3    H280031   6.743   2.202   2.982  1.0522 -0.1725  1.1652
19514TIP3   OH280032   0.357   2.403   5.211  0.3178 -0.2130  0.0112
19514TIP3    H180033   0.286   2.439   5.265 -1.2615 -3.5953  0.4630
19514TIP3    H280034   0.428   2.387   5.274 -0.5297 -1.6379  0.6711
19515TIP3   OH280035   2.179   6.484  11.921 -0.3898  0.4087  0.1694
19515TIP3    H180036   2.216   6.475  11.834  1.6830 -0.9374  1.1139
19515TIP3    H280037   2.238   6.544  11.967 -0.5863 -0.0857  1.0905
19516TIP3   OH280038   0.493   3.182  16.420 -0.6638  0.1190 -0.1838
19516TIP3    H180039   0.405   3.180  16.460 -0.1931 -1.6439  0.8579
19516TIP3    H280040   0.483   3.134  16.338 -0.2286 -2.2198  1.0502
19517TIP3   OH280041   4.084   1.647  12.789 -0.4344  0.0568 -0.2899
19517TIP3    H180042   4.082   1.666  12.696 -0.3308  0.8133 -0.1453
19517TIP3    H280043   4.091   1.552  12.794 -2.4997 -0.1796 -1.0363
19518TIP3   OH280044   6.453   2.850  12.053 -0.2939  0.6577 -0.4312
19518TIP3    H180045   6.390   2.814  11.990  0.0406 -0.5738 -0.0962
19518TIP3    H280046   6.404   2.918  12.100 -0.3018  2.2450 -2.5700
19519TIP3   OH280047   5.667   0.965   4.857 -0.0584  0.0095 -0.0946
19519TIP3    H180048   5.698   0.884   4.818  0.8621 -0.1134  0.8541
19519TIP3    H280049   5.595   0.938   4.915  0.0558 -0.0937 -0.0015
19520TIP3   OH280050   5.573   5.961   1.590  0.1151  0.8256  0.4814
19520TIP3    H180051   5.615   6.018   1.655  0.7502 -0.1780  0.9797
19520TIP3    H280052   5.505   6.015   1.551 -0.6611  1.3072  2.3666
19521TIP3   OH280053   3.721   1.967  11.442 -0.1799 -0.0444  0.7279
19521TIP3    H180054   3.681   1.931  11.364 -0.1541 -0.3690  0.8620
19521TIP3    H280055   3.739   2.058  11.420 -0.9108  0.0848  0.6394
19522TIP3   OH280056   1.546   3.813  15.850  0.0044 -0.3202 -0.1650
19522TIP3    H180057   1.503   3.890  15.888  0.8054  0.4273 -0.7444
19522TIP3    H280058   1.476   3.748  15.842 -0.7211  0.4064  0.1532
19523TIP3   OH280059   0.161   6.712   1.524 -0.6264  0.1896  0.3695
19523TIP3    H180060   0.107   6.634   1.508  0.5478 -0.7005  0.5674
19523TIP3    H280061   0.249   6.686   1.495 -0.3980  1.7698 -0.4175
19524TIP3   OH280062   6.308   0.612   1.115  0.3320 -0.2881  0.0434
19524TIP3    H180063   6.379   0.672   1.138 -0.6333  0.8028  0.2918
19524TIP3    H280064   6.326   0.587   1.024  0.5703  0.6680 -0.1873
19525TIP3   OH280065   0.108   2.583   4.198 -0.5925 -0.2331 -0.8896
19525TIP3    H180066   0.033   2.588   4.140 -2.3634 -1.0784  1.1667
19525TIP3    H280067   0.106   2.493   4.233  1.0130 -0.0855 -0.3256
19526TIP3   OH280068   2.379   3.638   4.819 -0.2513  0.1009 -0.5117
19526TIP3    H180069   2.471   3.658   4.800  0.5230 -3.0611 -0.7371
19526TIP3    H280070   2.379   3.609   4.910 -1.5419  2.3870  0.2832
19527TIP3   OH280071   6.277   3.120  11.525  0.4207  0.2706 -0.3897
19527TIP3    H180072   6.306   3.034  11.496  0.8789  0.2420  0.1298
19527TIP3    H280073   6.342   3.181  11.489  0.4956  0.3234 -0.1683
19528TIP3   OH280074   5.137   0.326   3.546 -0.2075  0.3765  0.6982
19528TIP3    H180075   5.138   0.258   3.478 -2.2047 -0.1667  1.1547
19528TIP3    H280076   5.199   0.296   3.612 -3.3570 -2.8644  2.5252
19529TIP3   OH280077   2.374   1.435   0.378 -0.1582  0.0191  0.0978
19529TIP3    H180078   2.386   1.364   0.441  0.7526  1.3872  1.5491
19529TIP3    H280079   2.292   1.477   0.406 -0.2642  0.0320 -0.2371
19530TIP3   OH280080   2.971   3.605   1.385  0.3496  0.0308  0.0199
19530TIP3    H180081   3.060   3.638   1.371  1.0498 -1.4675  0.7121
19530TIP3    H280082   2.978   3.510   1.374 -0.8875 -0.2565  1.3078
19531TIP3   OH280083   0.351   3.835  17.221 -0.2030 -0.4816 -0.4064
19531TIP3    H180084   0.312   3.886  17.292  1.1577 -0.5537  0.4351
19531TIP3    H280085   0.352   3.894  17.146  1.9071  0.9927  0.7117
19532TIP3   OH280086   6.571   5.751   3.487 -0.3779  0.1633  0.1017
19532TIP3    H180087   6.568   5.656   3.500  1.1544 -0.1500 -1.4265
19532TIP3    H280088   6.652   5.778   3.531  0.2077  0.4278 -1.0917
19533TIP3   OH280089   0.783   1.849  11.455 -0.8922 -0.0800  0.0014
19533TIP3    H180090   0.762   1.783  11.388  0.6306  0.3844 -0.9777
19533TIP3    H280091   0.825   1.800  11.525 -0.1582 -0.2195 -0.5301
19534TIP3   OH280092   5.795   4.862  12.872 -0.8345 -0.2515  0.4493
19534TIP3    H180093   5.793   4.801  12.798 -1.0643  0.7333 -0.3750
19534TIP3    H280094   5.711   4.908  12.867 -0.1460  1.0229  0.2890
19535TIP3   OH280095   0.239   1.586  15.172  0.1085 -0.1322 -0.4631
19535TIP3    H180096   0.291   1.575  15.092  0.0678  1.1778 -0.6907
19535TIP3    H280097   0.302   1.571  15.243  0.2894 -0.6799 -0.7282
19536TIP3   OH280098   5.984   3.741   0.438  0.3769  0.5497 -0.0285
19536TIP3    H180099   5.900   3.719   0.397 -0.9619  1.8603  1.8058
19536TIP3    H280100   5.971   3.722   0.531  3.0275 -1.6157  0.0105
19537TIP3   OH280101   4.149   4.394   4.888  0.5495  0.5317 -0.1132
19537TIP3    H180102   4.105   4.392   4.973  0.4877 -2.8141 -0.0646
19537TIP3    H280103   4.081   4.425   4.827 -0.2356  0.4351  0.6865
19538TIP3   OH280104   2.298   2.706  10.892  0.3590  0.1667  0.3358
19538TIP3    H180105   2.389   2.720  10.864 -0.0044  1.3185 -0.3098
19538TIP3    H280106   2.259   2.793  10.893 -1.2324 -0.4748 -1.0509
19539TIP3   OH280107   4.455   0.190  14.322 -0.2400 -0.4132 -0.8759
19539TIP3    H180108   4.383   0.161  14.266  0.1913 -1.7996 -0.7449
19539TIP3    H280109   4.428   0.165  14.410 -0.1473  0.2045 -0.6680
19540TIP3   OH280110   6.426   3.152  14.348 -0.1810 -0.3632  0.2678
19540TIP3    H180111   6.404   3.086  14.414 -2.2990 -0.9250 -0.9153
19540TIP3    H280112   6.504   3.195  14.383 -0.8796 -1.0063  2.8537
19541TIP3   OH280113   6.758   1.515   1.502  0.3928 -0.4155 -0.3375
19541TIP3    H180114   6.680   1.472   1.537 -0.9296  2.2983  0.3193
19541TIP3    H280115   6.824   1.505   1.571 -1.0523  1.6715  1.4774
19542TIP3   OH280116   2.608   4.093   2.452  0.3961  0.4026  0.7583
19542TIP3    H180117   2.694   4.073   2.414 -0.0675 -1.2674  0.5342
19542TIP3    H280118   2.583   4.176   2.412  0.4768 -0.6875 -1.6792
19543TIP3   OH280119   2.574   6.226  14.829 -0.1282  0.2602  0.4136
19543TIP3    H180120   2.549   6.270  14.748 -2.3040 -1.0980  0.2751
19543TIP3    H280121   2.611   6.143  14.801 -0.3542  0.0288  0.7985
19544TIP3   OH280122   4.326   5.093   1.233 -0.2222 -0.6963 -0.2707
19544TIP3    H180123   4.380   5.039   1.290  0.5956  1.2158  0.8453
19544TIP3    H280124   4.257   5.034   1.202  1.8187 -2.9352 -0.8598
19545TIP3   OH280125   5.885   5.543  14.787 -0.1125  1.0415  0.6719
19545TIP3    H180126   5.812   5.589  14.746  0.4635  1.7533  0.4144
19545TIP3    H280127   5.944   5.521  14.714 -1.6364 -2.6441  0.3446
19546TIP3   OH280128   0.175   1.273  13.176 -0.0122 -0.3684 -0.3188
19546TIP3    H180129   0.179   1.364  13.205 -1.0264 -0.3115 -0.3153
19546TIP3    H280130   0.239   1.267  13.105  0.4717  0.1951  0.0612
19547TIP3   OH280131   2.726   0.770  14.044 -0.0729 -0.0984 -0.4859
19547TIP3    H180132   2.816   0.764  14.078  0.1872 -0.5591 -1.2212
19547TIP3    H280133   2.736   0.757  13.950 -0.8856  0.1528 -0.6088
19548TIP3   OH280134   4.099   6.742  11.325  0.6417 -0.0350  0.2634
19548TIP3    H180135   4.017   6.708  11.290  1.2517 -3.3665  1.7341
19548TIP3    H280136   4.082   6.754  11.418  1.7632 -0.5353  0.5383
19549TIP3   OH280137   2.135   5.682   2.632 -0.2265  0.3449 -0.5590
19549TIP3    H180138   2.042   5.694   2.651 -0.1628  1.4860 -0.8842
19549TIP3    H280139   2.154   5.747   2.565  0.8745  0.3440 -0.2622
19550TIP3   OH280140   3.513   1.367   1.870  0.5283  0.1652 -0.1007
19550TIP3    H180141   3.545   1.394   1.784  1.9558  0.2508  0.4374
19550TIP3    H280142   3.425   1.333   1.852  0.0881  1.8152 -1.3182
19551TIP3   OH280143   1.524   4.631  12.507  0.0195  0.5040 -0.1622
19551TIP3    H180144   1.440   4.639  12.461  0.0429  1.0918 -0.1113
19551TIP3    H280145   1.589   4.621  12.437  0.1578  2.2790 -0.3262
19552TIP3   OH280146   0.835   0.133  16.995  0.3522 -0.0940  0.2489
19552TIP3    H180147   0.811   0.223  16.975 -0.1089 -0.1609  0.5022
19552TIP3    H280148   0.807   0.119  17.085 -0.3911 -0.7681 -0.0745
19553TIP3   OH280149   6.741   5.088   5.217 -0.8111  0.4581  0.4124
19553TIP3    H180150   6.836   5.100   5.208 -0.7312 -0.0728  0.5236
19553TIP3    H280151   6.704   5.129   5.139 -0.5418  1.2627  0.6894
19554TIP3   OH280152   0.029   3.911   4.553  1.0487 -0.2173 -0.2826
19554TIP3    H180153   0.018   3.926   4.647  1.7596 -1.4871  0.0198
19554TIP3    H280154   0.124   3.912   4.540  0.9728 -0.6827 -0.8810
19555TIP3   OH280155   2.101   2.608   4.360 -0.1487  0.0386  0.0448
19555TIP3    H180156   2.101   2.591   4.454 -0.8052 -1.4114 -0.1937
19555TIP3    H280157   2.158   2.540   4.324 -1.0520 -0.3215 -0.7339
19556TIP3   OH280158   4.912   0.752   3.282 -1.2027 -0.4064  0.7103
19556TIP3    H180159   4.960   0.671   3.265  0.5489  0.7663 -0.2605
19556TIP3    H280160   4.963   0.796   3.350 -1.2531  0.5755  0.1238
19557TIP3   OH280161   0.518   3.825  15.476 -0.3809 -0.6162 -0.0356
19557TIP3    H180162   0.536   3.862  15.562 -0.5695  0.6584 -0.5183
19557TIP3    H280163   0.422   3.830  15.468 -0.2359  1.8062 -1.3399
19558TIP3   OH280164   4.786   2.392  16.350 -0.0395 -0.4605  0.3594
19558TIP3    H180165   4.847   2.439  16.406 -0.4511 -1.4262  1.6851
19558TIP3    H280166   4.841   2.345  16.288  0.3904  1.3518 -0.7019
19559TIP3   OH280167   4.202   5.114   2.410  0.5702 -0.5230  0.4671
19559TIP3    H180168   4.227   5.050   2.476 -0.2917 -1.1094  0.2434
19559TIP3    H280169   4.265   5.101   2.339  0.6391 -0.8446  0.5862
19560TIP3   OH280170   1.590   0.792  15.154  0.7140 -0.3055 -0.0110
19560TIP3    H180171   1.513   0.831  15.112  0.1788 -0.4022  0.8628
19560TIP3    H280172   1.612   0.851  15.225 -1.7015 -2.7106  3.0447
19561TIP3   OH280173   0.689   2.999   4.812 -1.2144  0.4497 -0.1447
19561TIP3    H180174   0.660   2.908   4.810  1.4079 -0.4936 -1.8887
19561TIP3    H280175   0.613   3.048   4.842 -3.1399 -2.1578 -0.3661
19562TIP3   OH280176   3.979   2.443   1.783  0.3229 -0.3555 -0.0863
19562TIP3    H180177   4.028   2.523   1.800  1.4633 -1.2448  0.9774
19562TIP3    H280178   3.991   2.390   1.862 -1.2818 -1.1623 -0.3285
19563TIP3   OH280179   5.041   3.912   6.224 -0.1981  0.5525  0.0653
19563TIP3    H180180   5.047   3.817   6.237 -2.2263  0.4182  0.4013
19563TIP3    H280181   5.015   3.946   6.309  1.2805  1.5502  0.1583
19564TIP3   OH280182   5.442   3.697   2.823  0.3178 -0.0673  0.4058
19564TIP3    H180183   5.357   3.668   2.789  0.2231 -0.3600  0.8856
19564TIP3    H280184   5.420   3.750   2.900  0.5953 -0.6860  0.9180
19565TIP3   OH280185   0.369   0.337   5.117 -0.2738  0.4520 -0.3753
19565TIP3    H180186   0.349   0.290   5.197 -0.9284  0.3329 -0.5992
19565TIP3    H280187   0.307   0.303   5.052 -0.9356  1.7727 -0.4828
19566TIP3   OH280188   0.742   6.550   5.168 -0.6950  0.2596 -0.6155
19566TIP3    H180189   0.807   6.610   5.134  1.0842 -1.7874 -1.0827
19566TIP3    H280190   0.658   6.589   5.145  0.2608  3.4637  0.8011
19567TIP3   OH280191   2.116   4.904  11.269  0.0163  0.0651 -0.3682
19567TIP3    H180192   2.210   4.900  11.288 -0.3169 -1.0893  1.2475
19567TIP3    H280193   2.106   4.980  11.211  1.8615  0.5258 -0.1358
19568TIP3   OH280194   1.146   0.093   4.427 -0.0491 -0.6556 -0.6709
19568TIP3    H180195   1.230   0.108   4.383 -0.5380  0.2520 -1.3242
19568TIP3    H280196   1.084   0.148   4.379 -0.6866  0.0539  0.9086
19569TIP3   OH280197   0.519   0.088  11.776 -0.3202 -0.0528  0.1050
19569TIP3    H180198   0.446   0.078  11.837 -0.2500 -0.5017  0.1157
19569TIP3    H280199   0.482   0.066  11.691 -0.0400 -0.9060  0.2003
19570TIP3   OH280200   0.699   3.565  13.012  0.0604 -0.1657 -0.4153
19570TIP3    H180201   0.700   3.505  13.087  2.1218  0.0280 -0.2287
19570TIP3    H280202   0.643   3.521  12.947 -0.9964 -0.7847  0.8516
19571TIP3   OH280203   1.541   0.750  12.619 -0.4643 -0.0386 -0.0578
19571TIP3    H180204   1.469   0.740  12.682 -1.5369  0.1420 -1.2258
19571TIP3    H280205   1.619   0.720  12.667 -1.4075 -0.8526  1.0242
19572TIP3   OH280206   5.528   0.119  11.616 -0.0990  0.4257 -0.0534
19572TIP3    H180207   5.578   0.197  11.639 -0.1358  0.1918  0.8669
19572TIP3    H280208   5.593   0.049  11.610 -0.3923 -0.1710  2.4925
19573TIP3   OH280209   0.889   3.949  16.554 -0.6109  0.2255  0.1885
19573TIP3    H180210   0.883   3.855  16.570  0.7293 -0.0584 -0.8434
19573TIP3    H280211   0.798   3.978  16.549 -1.0558 -0.7245  2.0469
19574TIP3   OH280212   4.413   1.265   6.283 -0.5322 -0.1289 -0.0979
19574TIP3    H180213   4.399   1.339   6.342  1.0505 -0.4592  0.7448
19574TIP3    H280214   4.383   1.296   6.198  0.0231  1.4560  0.2587
19575TIP3   OH280215   3.307   3.610  14.343  0.3582 -0.0859 -0.0686
19575TIP3    H180216   3.275   3.593  14.432 -1.8166 -0.4625 -0.8564
19575TIP3    H280217   3.285   3.531  14.294  0.3197  0.6232 -1.2393
19576TIP3   OH280218   4.587   6.250  11.712 -0.1710 -0.0804 -0.2886
19576TIP3    H180219   4.558   6.303  11.786 -1.4389  0.0147 -0.8369
19576TIP3    H280220   4.560   6.300  11.635 -0.6342 -1.1154 -0.8174
19577TIP3   OH280221   0.664   5.496   2.168 -0.5021 -0.5573  0.0232
19577TIP3    H180222   0.586   5.471   2.118 -0.8196  0.1514  0.1540
19577TIP3    H280223   0.670   5.591   2.156  0.2678 -0.5916  0.1209
19578TIP3   OH280224   6.631   3.029   4.843  0.0333  0.2795  0.6277
19578TIP3    H180225   6.560   3.088   4.867 -0.0813  0.9357 -1.1449
19578TIP3    H280226   6.708   3.085   4.838  0.3008 -0.0743  0.7182
19579TIP3   OH280227   3.751   6.468   0.263  0.3399 -0.5327  0.4118
19579TIP3    H180228   3.821   6.478   0.199  0.0313  0.0019  0.1526
19579TIP3    H280229   3.759   6.377   0.293  1.1098 -0.4945  0.3544
19580TIP3   OH280230   4.767   1.538  16.985  0.3150  0.5617 -0.1321
19580TIP3    H180231   4.842   1.479  16.978  0.7370  1.1442 -0.6326
19580TIP3    H280232   4.766   1.564  17.077 -0.5148 -1.0266  0.3424
19581TIP3   OH280233   2.200   4.078  12.935  0.1897  0.2357 -0.1562
19581TIP3    H180234   2.118   4.049  12.974  1.4306 -2.0124  1.0451
19581TIP3    H280235   2.179   4.159  12.890 -2.9522 -0.9172 -1.0079
19582TIP3   OH280236   3.537   5.123  10.983 -0.2692  0.1415 -0.2587
19582TIP3    H180237   3.574   5.207  10.956  0.3748 -0.4825 -1.4121
19582TIP3    H280238   3.600   5.089  11.046  0.5459 -0.3799 -1.3266
19583TIP3   OH280239   0.037   6.729   4.337 -0.0329  0.0677  0.0308
19583TIP3    H180240  -0.003   6.654   4.292 -1.4484  0.3653  0.7217
19583TIP3    H280241   0.084   6.776   4.268 -2.6420  0.8584 -1.3665
19584TIP3   OH280242   3.066   4.958   6.443  0.0039 -0.0104  0.3562
19584TIP3    H180243   3.064   4.998   6.530  0.5782  0.3155  0.2247
19584TIP3    H280244   3.036   5.027   6.384 -0.7679 -0.3558  0.3353
19585TIP3   OH280245   4.373   3.894  12.148 -0.0838 -0.4526  0.2893
19585TIP3    H180246   4.351   3.972  12.200 -0.5095 -0.2990 -0.1106
19585TIP3    H280247   4.466   3.904  12.127 -0.2302  0.1580 -0.0982
19586TIP3   OH280248   4.929   3.847   5.522  0.0249 -0.0095 -0.4477
19586TIP3    H180249   4.968   3.931   5.496  0.5336  0.0687  0.5470
19586TIP3    H280250   4.877   3.821   5.446 -2.0471  2.3675  0.0167
19587TIP3   OH280251   4.392   5.484  12.859  0.4697 -0.5263 -0.1411
19587TIP3    H180252   4.364   5.423  12.790 -0.0133  0.7785 -1.1421
19587TIP3    H280253   4.380   5.435  12.941 -0.1074 -1.6919 -0.8965
19588TIP3   OH280254   4.657   0.292   4.170  0.3670 -0.1707  0.2716
19588TIP3    H180255   4.718   0.313   4.099  0.1347  2.1677  0.6935
19588TIP3    H280256   4.590   0.238   4.128  1.4578 -0.8068 -0.7275
19589TIP3   OH280257   6.069   2.768   6.591 -0.4887  0.4962 -0.5776
19589TIP3    H180258   6.001   2.835   6.603 -0.3222  0.4279  1.1118
19589TIP3    H280259   6.122   2.775   6.671  1.0099 -0.0018 -1.4881
19590TIP3   OH280260   5.111   4.446   3.596 -0.1472  0.1163  0.5818
19590TIP3    H180261   5.186   4.390   3.574  0.5591  0.8876  0.9716
19590TIP3    H280262   5.141   4.535   3.577 -1.1360  0.4036  0.2974
19591TIP3   OH280263   6.243   1.221   3.757  0.4667 -0.2832  0.3621
19591TIP3    H180264   6.271   1.312   3.763  0.4997 -0.2031 -0.7601
19591TIP3    H280265   6.290   1.186   3.682  0.4429 -1.2311  0.7721
19592TIP3   OH280266   4.999   0.121  11.082  0.3312  0.0558  0.0197
19592TIP3    H180267   4.948   0.043  11.057 -1.5116  0.6663  1.6011
19592TIP3    H280268   5.059   0.090  11.149 -0.1070 -0.0881  0.3479
19593TIP3   OH280269   6.635   4.395  12.694  0.1566  0.0771  0.6692
19593TIP3    H180270   6.636   4.409  12.789 -0.3630  2.4607  0.3665
19593TIP3    H280271   6.707   4.448  12.661 -0.7009  0.5876 -0.4292
19594TIP3   OH280272   6.759   4.524  16.975  0.4941 -0.7365 -0.3042
19594TIP3    H180273   6.749   4.497  16.883 -1.4721 -0.4071 -0.2130
19594TIP3    H280274   6.791   4.614  16.969  0.8199 -0.8682 -0.6481
19595TIP3   OH280275   6.769   6.512   1.241 -0.2411 -0.1940  0.4970
19595TIP3    H180276   6.830   6.583   1.220 -1.3756  0.7878  0.3754
19595TIP3    H280277   6.742   6.479   1.155 -1.5695  0.8960  0.4665
19596TIP3   OH280278   5.450   4.813  11.611  0.6504  0.1230 -0.6111
19596TIP3    H180279   5.454   4.788  11.519 -1.2972 -0.4793 -0.5806
19596TIP3    H280280   5.507   4.889  11.618  1.2081 -0.1113 -2.2051
19597TIP3   OH280281   6.100   6.194   4.935  0.0179 -0.5496 -0.1025
19597TIP3    H180282   6.042   6.119   4.945  0.9302 -1.1024  1.3275
19597TIP3    H280283   6.043   6.270   4.951  0.0419 -1.1570  3.8803
19598TIP3   OH280284   2.547   3.901   1.609  0.0692  0.3221 -0.0968
19598TIP3    H180285   2.485   3.835   1.578 -0.8724  0.7380  0.8417
19598TIP3    H280286   2.612   3.851   1.659 -0.0762 -0.0026 -0.2264
19599TIP3   OH280287   4.612   3.587   1.800  0.4647 -0.2464  0.3541
19599TIP3    H180288   4.653   3.565   1.716  0.1898 -0.6579  0.3235
19599TIP3    H280289   4.603   3.683   1.798  0.7395 -0.2250  0.0460
19600TIP3   OH280290   0.639   0.350  10.684 -0.2245  0.1184  0.2764
19600TIP3    H180291   0.571   0.378  10.623  0.1037  1.1289  0.3675
19600TIP3    H280292   0.694   0.427  10.696  0.0729 -0.2510  1.3645
19601TIP3   OH280293   2.322   2.426  11.759  0.0447 -0.5109 -0.3936
19601TIP3    H180294   2.395   2.487  11.763  0.5916 -1.1066 -1.0133
19601TIP3    H280295   2.252   2.474  11.714  0.0582  0.0475  0.1760
19602TIP3   OH280296   5.159   3.634  17.332 -0.6008 -0.0321  0.2359
19602TIP3    H180297   5.224   3.643  17.401 -0.2381  0.0728 -0.1166
19602TIP3    H280298   5.161   3.718  17.285 -0.3769 -0.3352 -0.3060
19603TIP3   OH280299   5.953   0.656   5.726 -0.4113  0.8510  0.2601
19603TIP3    H180300   6.001   0.708   5.661 -1.4845  1.2638 -0.2343
19603TIP3    H280301   5.998   0.673   5.808 -0.3009  2.0087 -0.0199
19604TIP3   OH280302   3.418   5.425   2.645  0.1526  0.0808 -0.6459
19604TIP3    H180303   3.508   5.395   2.660 -0.0598 -0.5833 -0.6673
19604TIP3    H280304   3.379   5.431   2.732  0.0738 -0.0883 -0.6697
19605TIP3   OH280305   4.352   4.696  14.528 -0.1791  0.4384 -0.4878
19605TIP3    H180306   4.267   4.654  14.542 -0.4103  1.0313 -0.0702
19605TIP3    H280307   4.404   4.672  14.604 -0.2127  0.6547 -0.3945
19606TIP3   OH280308   3.892   1.066  11.400 -0.2349 -0.0730  0.0150
19606TIP3    H180309   3.953   1.001  11.436 -1.8500 -0.6570  1.9309
19606TIP3    H280310   3.948   1.129  11.354  1.7223 -0.9354  1.0725
19607TIP3   OH280311   6.277   3.218  14.905 -0.8693  0.1356  0.4602
19607TIP3    H180312   6.307   3.167  14.980 -0.2728 -0.7056 -0.3211
19607TIP3    H280313   6.354   3.271  14.879 -0.0329 -1.8236 -1.3805
19608TIP3   OH280314   3.558   2.180   1.087  0.2042 -0.2670 -0.1997
19608TIP3    H180315   3.501   2.212   1.016 -1.0213 -0.8149  0.4965
19608TIP3    H280316   3.522   2.094   1.109  1.6769 -0.8837 -0.1051
19609TIP3   OH280317   6.037   4.776  14.012 -0.0194  0.2284  0.0849
19609TIP3    H180318   5.950   4.813  14.022  0.0169  0.7106 -1.3061
19609TIP3    H280319   6.085   4.808  14.089 -0.8382  0.5639  0.4682
19610TIP3   OH280320   6.088   5.532   7.097  0.1134  0.3569 -0.2326
19610TIP3    H180321   6.132   5.584   7.164  0.2977  0.5214 -0.4784
19610TIP3    H280322   6.159   5.502   7.040 -0.2946  2.7658 -2.1334
19611TIP3   OH280323   6.164   6.704  12.101 -0.4667 -0.0135  0.0193
19611TIP3    H180324   6.176   6.646  12.176 -0.1340  1.3315  1.0519
19611TIP3    H280325   6.107   6.773  12.134 -1.5133 -0.1590 -1.4126
19612TIP3   OH280326   4.248   1.237   4.553 -0.3544 -0.0935 -0.5442
19612TIP3    H180327   4.340   1.211   4.551 -0.5388 -1.0349  1.1644
19612TIP3    H280328   4.251   1.332   4.565  0.3836 -0.0410 -1.0787
19613TIP3   OH280329   6.458   0.403  16.338 -0.5619 -0.3977 -0.1275
19613TIP3    H180330   6.533   0.375  16.390 -0.9354 -0.5222  0.3518
19613TIP3    H280331   6.482   0.380  16.248  1.2325  2.2152 -0.4278
19614TIP3   OH280332   4.976   5.091  15.816 -0.5147  0.3353  0.2865
19614TIP3    H180333   5.067   5.085  15.784 -0.4337 -1.8599  0.7326
19614TIP3    H280334   4.966   5.182  15.843  2.2442  0.2485  2.0837
19615TIP3   OH280335   1.209   4.261   0.543 -1.0078 -0.3655  0.4976
19615TIP3    H180336   1.201   4.298   0.631  1.4985  2.2116 -0.2020
19615TIP3    H280337   1.136   4.200   0.536 -1.5482 -0.3675  4.1827
19616TIP3   OH280338   2.430   1.157   4.039 -0.0876  0.5735  0.1306
19616TIP3    H180339   2.459   1.119   4.121  0.2936  0.4301 -0.0697
19616TIP3    H280340   2.334   1.155   4.044 -0.0897  1.8122  1.1479
19617TIP3   OH280341   0.708   5.587  11.642  0.0018 -0.3352  0.4271
19617TIP3    H180342   0.771   5.633  11.696  0.7392 -0.8495  0.0249
19617TIP3    H280343   0.708   5.634  11.558 -1.9984  1.1755  1.2058
19618TIP3   OH280344   6.223   3.859   3.853  0.7941 -0.1131  0.4512
19618TIP3    H180345   6.286   3.893   3.790  0.1091 -0.4519 -0.4397
19618TIP3    H280346   6.276   3.829   3.927  1.6662 -0.3350 -0.2497
19619TIP3   OH280347   3.357   5.789   5.891 -0.2672 -0.0575  0.6531
19619TIP3    H180348   3.395   5.844   5.960  0.4968 -1.7297  1.6163
19619TIP3    H280349   3.299   5.729   5.938  1.1662 -2.0104  0.0298
19620TIP3   OH280350   1.125   2.839  17.252  0.0424  0.2334 -0.1213
19620TIP3    H180351   1.064   2.908  17.276  0.5908  0.4362  0.7439
19620TIP3    H280352   1.078   2.786  17.187  0.1892  2.3434 -2.0503
19621TIP3   OH280353   0.382   4.064  16.760 -0.0778  0.5514 -0.5900
19621TIP3    H180354   0.330   4.145  16.755 -0.9393  0.0322 -0.2783
19621TIP3    H280355   0.442   4.079  16.832 -2.4764 -0.2981  1.7485
19622TIP3   OH280356   3.084   4.451  12.128 -0.0725 -0.2109  1.0049
19622TIP3    H180357   3.126   4.410  12.205 -0.0994 -0.3315  0.9564
19622TIP3    H280358   3.092   4.385  12.059 -1.1824 -0.6300  1.2475
19623TIP3   OH280359   6.216   3.062   0.915  0.4081  0.2672 -0.4809
19623TIP3    H180360   6.241   2.989   0.860 -0.9983 -0.4210 -0.2641
19623TIP3    H280361   6.296   3.114   0.925  0.5697  0.8685 -3.7782
19624TIP3   OH280362   6.640   4.031   6.251  0.0145 -0.2774  0.9649
19624TIP3    H180363   6.575   4.019   6.320  0.0699  1.2421  1.3312
19624TIP3    H280364   6.710   4.080   6.293  0.1074  0.5773 -0.1321
19625TIP3   OH280365   6.373   4.410  14.496 -0.3546  0.4371  0.0583
19625TIP3    H180366   6.304   4.419  14.561 -0.7308  1.1192 -0.4259
19625TIP3    H280367   6.383   4.315  14.485  0.0381  0.2954  1.4310
19626TIP3   OH280368   6.718   1.167   0.300 -0.1686 -0.1710  0.3199
19626TIP3    H180369   6.718   1.263   0.304 -0.3177 -0.2050  1.9196
19626TIP3    H280370   6.718   1.140   0.392  0.1839 -1.7123 -0.1145
19627TIP3   OH280371   3.329   4.013  12.510 -0.2993  0.0778 -0.3091
19627TIP3    H180372   3.375   4.093  12.536  1.9930 -1.3135  0.1105
19627TIP3    H280373   3.250   4.013  12.565  1.5786  0.1365  2.6020
19628TIP3   OH280374   1.742   0.574  15.141 -0.2893  0.5362 -0.0486
19628TIP3    H180375   1.817   0.602  15.088  0.7238  0.3857  1.2434
19628TIP3    H280376   1.690   0.654  15.152  0.0168  0.7922 -0.4256
19629TIP3   OH280377   3.788   1.666   0.777  0.1892  0.4164 -0.1817
19629TIP3    H180378   3.765   1.621   0.696  0.3215  2.5329 -1.4550
19629TIP3    H280379   3.874   1.703   0.761 -0.0699  1.4502  0.6641
19630TIP3   OH280380   5.364   5.885  13.749  0.6714 -0.0258  0.3138
19630TIP3    H180381   5.434   5.842  13.700 -0.2050 -0.6213 -0.4347
19630TIP3    H280382   5.320   5.815  13.797  0.3595  0.2904  0.5030
19631TIP3   OH280383   3.937   1.640  14.097 -0.1418 -0.3536 -0.1143
19631TIP3    H180384   3.979   1.612  14.016  1.4513  1.9029 -0.1714
19631TIP3    H280385   3.906   1.728  14.078 -1.2408 -0.4226  1.2358
19632TIP3   OH280386   3.901   2.344  13.344  0.0666  0.7356  0.3809
19632TIP3    H180387   3.819   2.357  13.390 -0.6684  0.1075 -0.6909
19632TIP3    H280388   3.913   2.423  13.292 -1.5185 -0.3747 -1.8511
19633TIP3   OH280389   1.204   4.495  13.781  0.0628  0.6340  0.1674
19633TIP3    H180390   1.112   4.474  13.767 -0.3002  0.5868  2.3378
19633TIP3    H280391   1.222   4.469  13.871  2.1182  0.9733 -0.0857
19634TIP3   OH280392   4.978   6.012  16.384 -0.0400 -0.4329  0.2358
19634TIP3    H180393   4.977   6.093  16.434  0.1319  0.0313 -0.4941
19634TIP3    H280394   5.023   6.035  16.303 -1.5510 -0.8008 -0.7471
19635TIP3   OH280395   5.291   5.997   5.709 -0.1726  0.0693 -0.0116
19635TIP3    H180396   5.356   6.028   5.646  0.1534 -1.2321 -0.3358
19635TIP3    H280397   5.321   6.030   5.793  0.5879 -0.0247 -0.2443
19636TIP3   OH280398   5.897   5.206  13.087  0.0714  0.5069  0.2951
19636TIP3    H180399   5.832   5.240  13.024  1.1820  1.0807 -0.5790
19636TIP3    H280400   5.876   5.250  13.169 -1.5506 -0.4247  0.4272
19637TIP3   OH280401   1.818   0.129   3.011 -0.4928 -0.1825  0.2932
19637TIP3    H180402   1.850   0.112   2.923 -1.4079 -0.0788 -0.0624
19637TIP3    H280403   1.845   0.052   3.061  0.4748 -0.0152  0.0568
19638TIP3   OH280404   5.430   3.896  16.758 -0.2727 -0.3460 -0.2374
19638TIP3    H180405   5.489   3.971  16.766 -0.0449 -0.4820 -0.6489
19638TIP3    H280406   5.487   3.820  16.755 -0.5499 -0.7166  2.0990
19639TIP3   OH280407   2.321   5.920  13.780  0.1950  0.2992 -0.0235
19639TIP3    H180408   2.309   6.013  13.758  0.6382  0.6300  1.0570
19639TIP3    H280409   2.412   5.901  13.755  0.1557  0.1972 -0.0885
19640TIP3   OH280410   0.005   2.641   2.606  0.3128  0.2739 -0.2152
19640TIP3    H180411  -0.042   2.709   2.557  0.7546  0.5261 -0.2928
19640TIP3    H280412  -0.053   2.565   2.603 -1.1027  1.2175  1.5353
19641TIP3   OH280413   1.481   4.584   2.787 -0.1873 -0.2138  0.5813
19641TIP3    H180414   1.560   4.548   2.747 -0.3961 -0.8062  0.6889
19641TIP3    H280415   1.411   4.561   2.726 -0.3571 -0.1934  0.7682
19642TIP3   OH280416   6.684   4.155  10.990  0.5746  0.5700  0.4125
19642TIP3    H180417   6.600   4.144  10.946  1.4798 -1.0689 -1.0126
19642TIP3    H280418   6.661   4.159  11.083 -1.1975  1.9821 -0.0223
19643TIP3   OH280419   4.025   6.636   1.261  0.2693  0.5441  0.0770
19643TIP3    H180420   3.932   6.621   1.240  0.1141 -0.5002  1.3794
19643TIP3    H280421   4.025   6.660   1.354  1.3259  0.2065  0.1777
19644TIP3   OH280422   0.747   2.213  11.802  0.3983  0.1319  0.3257
19644TIP3    H180423   0.714   2.194  11.714 -0.1455 -0.9067  0.7291
19644TIP3    H280424   0.840   2.192  11.798  0.1897 -0.8152  0.2324
19645TIP3   OH280425   6.050   0.744   1.054  0.6676  0.1733 -0.2365
19645TIP3    H180426   6.140   0.715   1.066  0.4754 -0.1627  0.4445
19645TIP3    H280427   6.046   0.774   0.963  1.4031 -0.0201 -0.3367
19646TIP3   OH280428   1.862   3.059  17.330  0.0928 -0.1383  0.4500
19646TIP3    H180429   1.944   3.044  17.377  0.1392 -1.5250 -0.0178
19646TIP3    H280430   1.828   2.971  17.313 -0.9058  0.3878 -0.3819
19647TIP3   OH280431   5.250   3.248   6.454 -0.4462 -0.3861  0.6810
19647TIP3    H180432   5.284   3.298   6.529 -0.9467  1.3617 -0.2121
19647TIP3    H280433   5.192   3.183   6.493  1.4105 -1.3520  2.0009
19648TIP3   OH280434   5.788   6.518   6.173  0.3262  0.9485  0.4410
19648TIP3    H180435   5.842   6.466   6.233  0.0567 -0.0523 -0.1475
19648TIP3    H280436   5.700   6.514   6.212  0.0704 -0.0327 -0.1954
19649TIP3   OH280437   4.515   3.118   4.057  0.4088  0.3518 -0.2127
19649TIP3    H180438   4.574   3.064   4.005 -0.0800 -0.9308  0.5205
19649TIP3    H280439   4.434   3.067   4.061  0.3427  0.5585  1.5368
19650TIP3   OH280440   5.651   4.597   2.108 -0.0364 -0.0295 -0.0571
19650TIP3    H180441   5.629   4.545   2.031 -1.1252 -0.0407  0.2467
19650TIP3    H280442   5.645   4.688   2.077 -0.4231 -0.0356 -0.0140
19651TIP3   OH280443   2.263   6.311  12.131 -0.4897  0.2400  0.2723
19651TIP3    H180444   2.215   6.341  12.053  1.1574 -0.6084 -1.1258
19651TIP3    H280445   2.259   6.384  12.192 -2.4682  0.6472 -0.2807
19652TIP3   OH280446   1.881   3.557   0.350  0.4233  0.0799 -0.3770
19652TIP3    H180447   1.858   3.641   0.309 -1.8825  0.2334  1.0777
19652TIP3    H280448   1.851   3.491   0.287 -0.2548  0.3445 -0.3454
19653TIP3   OH280449   6.592   6.051  14.232 -0.6109  0.7471 -0.0927
19653TIP3    H180450   6.615   6.088  14.318 -2.7459  0.2563  0.7510
19653TIP3    H280451   6.643   6.103  14.170  2.0435  0.2613  1.4900
19654TIP3   OH280452   4.386   4.093   3.721 -0.4880  0.2038  0.1533
19654TIP3    H180453   4.452   4.137   3.666 -0.9360  1.6413  0.7080
19654TIP3    H280454   4.403   4.000   3.709  0.7840  0.5222 -0.7608
19655TIP3   OH280455   3.637   2.366   1.942 -0.5802 -0.2105 -0.0628
19655TIP3    H180456   3.654   2.284   1.989 -2.4355 -0.8008 -0.3298
19655TIP3    H280457   3.557   2.349   1.892 -0.7126  1.5979 -0.5463
19656TIP3   OH280458   0.489   3.528  16.384 -0.3311  0.0329 -0.0329
19656TIP3    H180459   0.536   3.560  16.461 -0.8624 -2.0817  1.2540
19656TIP3    H280460   0.557   3.493  16.327  0.0231  1.1846 -0.3374
19657TIP3   OH280461   3.727   4.637  14.349  0.4454 -0.2677  0.3923
19657TIP3    H180462   3.707   4.711  14.406  1.7951  0.0566  0.4793
19657TIP3    H280463   3.780   4.675  14.279 -0.6548 -0.7767 -0.7473
19658TIP3   OH280464   6.112   5.214  16.673 -0.2025 -0.0704 -0.8011
19658TIP3    H180465   6.075   5.128  16.691  0.9880 -0.3143  0.7376
19658TIP3    H280466   6.095   5.229  16.580 -0.2857 -2.0424 -1.1370
19659TIP3   OH280467   0.149   1.092  17.125  0.3471 -0.1457  0.3570
19659TIP3    H180468   0.174   1.184  17.136  0.5669  0.0853 -1.5953
19659TIP3    H280469   0.155   1.055  17.212  3.6016  0.8861  0.7062
19660TIP3   OH280470   5.935   2.709   4.426 -0.4099  0.0785 -0.1579
19660TIP3    H180471   5.985   2.628   4.432 -1.5969 -0.5943  0.9986
19660TIP3    H280472   5.873   2.694   4.354 -0.2867  0.1727 -0.2860
19661TIP3   OH280473   1.920   1.876  16.050  0.1684  0.2118  0.3965
19661TIP3    H180474   1.834   1.910  16.076  0.0749 -0.6149  1.2789
19661TIP3    H280475   1.964   1.949  16.008 -1.0870  0.5645 -0.3592
19662TIP3   OH280476   6.795   5.404   4.994  0.1106  0.1178 -0.7042
19662TIP3    H180477   6.870   5.411   5.053  0.3419 -1.9462 -0.6786
19662TIP3    H280478   6.826   5.348   4.923 -0.5652  1.5308 -2.1692
19663TIP3   OH280479   0.060   3.063  11.317 -0.0380 -0.2798  0.0880
19663TIP3    H180480   0.013   3.118  11.379  2.0433  2.9074 -0.9613
19663TIP3    H280481   0.075   3.119  11.241  3.6332 -1.6935 -0.4227
19664TIP3   OH280482   4.893   6.474  12.368 -0.1548  0.5888  0.0948
19664TIP3    H180483   4.935   6.481  12.283  1.4741 -3.7357  0.2891
19664TIP3    H280484   4.799   6.481  12.350  0.2431  1.6993 -1.7075
19665TIP3   OH280485   2.459   0.135   3.110 -0.1420  0.3097 -0.0827
19665TIP3    H180486   2.375   0.166   3.076 -1.8852 -1.5215  2.2013
19665TIP3    H280487   2.463   0.043   3.085  0.4293 -0.0317  1.2011
19666TIP3   OH280488   3.804   0.562   0.337  0.0125 -0.6053  0.4218
19666TIP3    H180489   3.860   0.636   0.314 -2.8348  1.1846 -1.2507
19666TIP3    H280490   3.794   0.513   0.256  0.5474 -1.9636  1.1398
19667TIP3   OH280491   4.987   4.948   0.834  0.2155 -0.1498 -0.6108
19667TIP3    H180492   5.053   4.981   0.772  0.8925  0.8654  0.6040
19667TIP3    H280493   4.983   4.854   0.816  2.1434 -0.2764 -0.6028
19668TIP3   OH280494   4.384   5.750  12.218 -0.2012 -0.2057  0.6848
19668TIP3    H180495   4.319   5.787  12.279 -0.7317 -0.1168  0.0766
19668TIP3    H280496   4.380   5.807  12.141  1.2047  0.3062  0.9521
19669TIP3   OH280497   4.046   1.064  16.511 -0.1292  0.2725 -1.0970
19669TIP3    H180498   3.983   1.136  16.514 -0.8497 -0.2838 -2.0618
19669TIP3    H280499   4.116   1.095  16.455  0.9176  1.2054  0.6288
19670TIP3   OH280500   2.369   1.571   3.882 -0.5332  0.1562  0.2954
19670TIP3    H180501   2.310   1.628   3.932  0.8635  0.1674  2.0420
19670TIP3    H280502   2.416   1.521   3.950 -1.0498 -2.4319 -1.1227
19671TIP3   OH280503   3.188   1.662  13.040  0.7127 -0.3944 -0.3553
19671TIP3    H180504   3.280   1.681  13.022  0.6124 -0.6477 -1.1509
19671TIP3    H280505   3.146   1.748  13.042  1.0711 -0.2233  0.6848
19672TIP3   OH280506   6.131   0.001  16.693  0.0349  0.1497 -0.3911
19672TIP3    H180507   6.217   0.005  16.653 -0.1572 -1.0712 -0.9727
19672TIP3    H280508   6.092  -0.080  16.659 -0.0693 -1.0903  2.3792
19673TIP3   OH280509   2.375   2.369   2.311 -0.5468 -0.0533  0.2938
19673TIP3    H180510   2.375   2.274   2.298  0.8034  0.0940 -1.0589
19673TIP3    H280511   2.325   2.382   2.392 -1.5364 -1.8272  0.0306
19674TIP3   OH280512   1.163   2.516  11.957 -0.0375 -0.3351  0.3091
19674TIP3    H180513   1.111   2.505  12.037 -0.1410 -1.1411  0.1365
19674TIP3    H280514   1.254   2.509  11.985 -0.0986 -1.7398  0.2018
19675TIP3   OH280515   4.895   3.674  13.381 -0.0559  0.3366 -0.1553
19675TIP3    H180516   4.953   3.664  13.457 -1.2333 -2.1073  0.4966
19675TIP3    H280517   4.909   3.596  13.329 -2.0051  0.1616 -0.4909
19676TIP3   OH280518   1.797   3.512  12.720 -0.7421 -0.0095 -0.2021
19676TIP3    H180519   1.701   3.520  12.725 -0.8488 -0.7626 -0.8069
19676TIP3    H280520   1.820   3.451  12.789 -0.6865  0.2158 -0.0191
19677TIP3   OH280521   0.414   6.608   1.457 -0.1641  0.0610  0.4725
19677TIP3    H180522   0.375   6.523   1.438 -0.4957  0.3084  0.0259
19677TIP3    H280523   0.493   6.611   1.404 -0.1651  0.0411  0.4699
19678TIP3   OH280524   1.148   5.167  13.977 -0.0295  0.2951  0.3314
19678TIP3    H180525   1.142   5.138  14.068 -0.1762  2.1479  0.9656
19678TIP3    H280526   1.228   5.219  13.973  0.7905 -1.0019 -1.0134
19679TIP3   OH280527   2.460   0.830  12.039 -0.3726  0.3153 -0.0119
19679TIP3    H180528   2.487   0.780  12.116 -0.5775  0.2120 -0.0080
19679TIP3    H280529   2.447   0.764  11.971 -1.2458  0.2977  0.1594
19680TIP3   OH280530   3.094   5.237  14.086  0.0931  0.4188 -0.2862
19680TIP3    H180531   3.169   5.177  14.085  0.5843  1.0111  0.0360
19680TIP3    H280532   3.018   5.181  14.076  0.5422 -0.2650  0.0568
19681TIP3   OH280533   0.464   5.822  10.720 -0.5016  0.4715  0.7663
19681TIP3    H180534   0.400   5.881  10.760  0.4527  2.2411 -0.2028
19681TIP3    H280535   0.495   5.869  10.642 -1.0405 -2.1067 -1.1298
19682TIP3   OH280536   5.916   3.487  12.824  0.4251 -0.4726 -0.5029
19682TIP3    H180537   5.946   3.424  12.890 -1.2966  0.2059  0.9894
19682TIP3    H280538   5.940   3.573  12.859  1.4598 -0.1559 -1.8511
19683TIP3   OH280539   5.631   1.824  16.683 -0.3440 -0.5195 -0.2242
19683TIP3    H180540   5.553   1.879  16.683 -1.4768 -2.0374  1.3567
19683TIP3    H280541   5.598   1.735  16.672  1.1643 -1.1893  0.4477
19684TIP3   OH280542   0.016   2.372  14.962  0.2685  1.0723  0.1253
19684TIP3    H180543   0.044   2.446  14.908  0.7391  0.4909 -0.4529
19684TIP3    H280544  -0.022   2.412  15.040 -1.7078  2.0021 -1.2229
19685TIP3   OH280545   3.494   3.561   2.409 -0.1304  0.8233  0.0471
19685TIP3    H180546   3.535   3.624   2.350  1.9617 -1.1995 -0.8255
19685TIP3    H280547   3.427   3.517   2.356 -0.3870  1.1073  0.1329
19686TIP3   OH280548   2.805   0.114  12.373 -0.0075  0.1338  0.0191
19686TIP3    H180549   2.776   0.024  12.364  1.4948 -0.3333 -0.4101
19686TIP3    H280550   2.888   0.118  12.327  1.0175  1.1957  1.8040
19687TIP3   OH280551   5.522   0.500  13.511  0.3693 -0.3320  0.1345
19687TIP3    H180552   5.552   0.463  13.428 -0.4725  1.1917 -0.9009
19687TIP3    H280553   5.427   0.508  13.501  0.3551  0.6435  0.8885
19688TIP3   OH280554   3.127   2.698  13.294 -0.2241 -0.9487 -0.3260
19688TIP3    H180555   3.159   2.737  13.375  1.0981 -1.4748 -0.5758
19688TIP3    H280556   3.032   2.711  13.297  0.0275  1.1838  0.1732
19689TIP3   OH280557   5.785   0.360  12.551  0.7262 -0.0686 -0.3984
19689TIP3    H180558   5.783   0.366  12.455  1.2746 -1.9725 -0.5659
19689TIP3    H280559   5.695   0.337  12.575  0.1494  2.1009 -0.2596
19690TIP3   OH280560   4.761   4.279  16.831 -0.5229  0.3523 -0.3144
19690TIP3    H180561   4.694   4.246  16.770 -1.9063 -0.1466  1.3915
19690TIP3    H280562   4.725   4.362  16.862 -0.3405  0.1001  0.5893
19691TIP3   OH280563   0.659   0.255  13.978 -0.2276  0.1533  0.0379
19691TIP3    H180564   0.717   0.242  13.903 -1.5280 -1.3909 -0.7652
19691TIP3    H280565   0.571   0.248  13.941 -0.8926 -0.2024  1.6279
19692TIP3   OH280566   3.026   5.948   2.024 -0.1406  0.3943  0.6588
19692TIP3    H180567   3.025   6.040   1.995 -0.4100  0.5277  1.0966
19692TIP3    H280568   2.964   5.945   2.097 -0.6660 -0.2837  0.1992
19693TIP3   OH280569   2.225   5.649  13.099 -0.1273  0.0213 -1.1015
19693TIP3    H180570   2.160   5.653  13.169 -1.1677  0.1851 -2.0432
19693TIP3    H280571   2.224   5.736  13.061 -0.4298 -0.3839 -2.0549
19694TIP3   OH280572   0.486   6.194  11.865 -0.2192 -0.1812  0.1966
19694TIP3    H180573   0.534   6.222  11.787 -0.8581  0.7102  0.1027
19694TIP3    H280574   0.488   6.270  11.923 -1.0945 -0.2936  0.3903
19695TIP3   OH280575   0.608   0.156  14.458  0.2942  0.2734  0.1806
19695TIP3    H180576   0.528   0.106  14.440  0.9260 -0.1663 -1.6214
19695TIP3    H280577   0.600   0.235  14.405  0.9864  0.2931  0.0973
19696TIP3   OH280578   0.243   5.654  14.672 -0.0910 -0.1590 -0.2226
19696TIP3    H180579   0.165   5.631  14.621  0.5315 -1.0222 -0.8017
19696TIP3    H280580   0.236   5.748  14.685 -1.8917 -0.3991  0.8394
19697TIP3   OH280581   4.585   2.667   2.149  0.1795  0.1694 -0.1219
19697TIP3    H180582   4.641   2.685   2.074 -1.6174 -1.6745 -2.0470
19697TIP3    H280583   4.633   2.603   2.200  0.9398  0.5914 -0.2986
19698TIP3   OH280584   1.268   1.382   5.905 -0.1820 -0.3930 -0.2070
19698TIP3    H180585   1.306   1.464   5.937  0.9511 -1.3616  1.0546
19698TIP3    H280586   1.337   1.317   5.917 -1.8766 -2.0606  1.2800
19699TIP3   OH280587   1.794   3.004  16.890  0.2008 -0.8911  0.0653
19699TIP3    H180588   1.810   3.027  16.981 -1.4348 -0.9009  0.3914
19699TIP3    H280589   1.794   3.087  16.844 -1.1080 -0.6469  0.4616
19700TIP3   OH280590   4.904   3.768   1.225  0.0918 -0.1468  0.2504
19700TIP3    H180591   4.960   3.691   1.229 -0.2750 -0.3804  1.9026
19700TIP3    H280592   4.816   3.734   1.237 -0.0133  0.5643  1.7306
19701TIP3   OH280593   1.238   3.766   1.011 -0.1772 -0.1671 -0.6204
19701TIP3    H180594   1.322   3.783   1.052 -0.7667  0.2476  0.4611
19701TIP3    H280595   1.186   3.844   1.030 -1.1744 -0.8991 -0.2695
19702TIP3   OH280596   6.376   3.762   4.055  0.4005 -0.0493 -0.1887
19702TIP3    H180597   6.332   3.724   4.131  0.4793  2.0372  0.9606
19702TIP3    H280598   6.460   3.793   4.088  2.3405 -2.7585 -2.0695
19703TIP3   OH280599   0.205   4.415   6.198 -0.1321  0.2868  0.1310
19703TIP3    H180600   0.118   4.435   6.233 -0.6219  0.7671 -1.2911
19703TIP3    H280601   0.257   4.493   6.217 -0.7607  1.0943 -1.3148
19704TIP3   OH280602   3.664   4.451   1.514  0.4342  0.3257 -0.0551
19704TIP3    H180603   3.672   4.502   1.595  0.3847  1.0050 -0.4676
19704TIP3    H280604   3.754   4.428   1.490  0.4682  0.3405  0.0604
19705TIP3   OH280605   3.001   6.632  16.149 -0.4755 -0.5222  0.3910
19705TIP3    H180606   3.045   6.586  16.077 -0.3157 -1.1972  0.9066
19705TIP3    H280607   3.008   6.725  16.127 -0.2572 -0.7167 -0.3636
19706TIP3   OH280608   1.676   6.090  11.986 -1.3895  0.5426 -0.3488
19706TIP3    H180609   1.608   6.025  11.968  1.2050 -2.4413 -0.1092
19706TIP3    H280610   1.720   6.103  11.902 -0.6317  0.4820  0.0361
19707TIP3   OH280611   1.266   3.663   1.368 -0.5499  0.0767  0.0582
19707TIP3    H180612   1.172   3.662   1.352 -0.4799 -2.1674 -0.5255
19707TIP3    H280613   1.299   3.586   1.321  1.1932 -0.7582  2.4866
19708TIP3   OH280614   2.819   5.116  13.606 -0.0357 -0.5886 -0.0920
19708TIP3    H180615   2.872   5.040  13.628  2.8244  0.3386 -2.9201
19708TIP3    H280616   2.758   5.084  13.540 -0.1567 -0.8200  0.1305
19709TIP3   OH280617   6.581   6.678   5.075 -0.5087  0.0389  0.0685
19709TIP3    H180618   6.525   6.602   5.061 -1.1124  0.6868 -1.0838
19709TIP3    H280619   6.565   6.703   5.166 -2.3031  0.3687 -0.3018
19710TIP3   OH280620   1.765   3.299   1.585 -0.1781  0.5112 -0.4341
19710TIP3    H180621   1.676   3.326   1.563  0.2715  1.0588 -1.6808
19710TIP3    H280622   1.809   3.379   1.615 -0.6172 -0.1141  2.1412
19711TIP3   OH280623   3.715   1.974  17.056 -0.3940  0.4218  0.2219
19711TIP3    H180624   3.690   1.897  17.004 -0.3713  0.5937 -0.0483
19711TIP3    H280625   3.690   1.952  17.146 -0.7756  0.2702  0.0821
19712TIP3   OH280626   5.700   1.630  17.244  0.3289 -0.2496  0.2995
19712TIP3    H180627   5.648   1.668  17.173  0.6280 -0.3996  0.0001
19712TIP3    H280628   5.679   1.684  17.321 -0.4905 -0.4904  0.2497
19713TIP3   OH280629   4.826   4.182  13.645  0.0725 -0.3260 -0.2957
19713TIP3    H180630   4.761   4.111  13.635 -0.4494  0.1182 -0.1113
19713TIP3    H280631   4.812   4.214  13.734 -0.0161  0.3268 -0.5436
19714TIP3   OH280632   1.744   3.547   1.281  0.4065  0.2300 -0.0855
19714TIP3    H180633   1.795   3.629   1.277  3.1306 -1.3703 -2.4297
19714TIP3    H280634   1.807   3.481   1.310 -0.8852 -1.5252 -1.0695
19715TIP3   OH280635   0.162   2.377  15.969  0.7522  0.1770 -0.1729
19715TIP3    H180636   0.228   2.444  15.951 -0.0170  1.3285  1.0959
19715TIP3    H280637   0.091   2.396  15.908  0.7246  0.2419 -0.1211
19716TIP3   OH280638   3.931   4.304   3.528  0.4450 -0.0163  0.1360
19716TIP3    H180639   3.956   4.327   3.439 -0.8851 -1.6519 -0.6967
19716TIP3    H280640   3.969   4.374   3.582  1.7035  0.7273 -1.6279
19717TIP3   OH280641   1.721   1.988  11.547  0.0872  0.1890  0.3741
19717TIP3    H180642   1.685   1.957  11.630 -0.1370  1.0377  0.6080
19717TIP3    H280643   1.801   2.034  11.571 -0.1593  0.7369  0.1646
19718TIP3   OH280644   2.046   3.947  14.889  0.1821 -0.2256  0.4042
19718TIP3    H180645   2.043   3.955  14.794 -0.0904  1.5191  0.5305
19718TIP3    H280646   1.968   3.897  14.911  0.3853 -0.8762 -0.2913
19719TIP3   OH280647   3.788   0.359   1.861  0.0317 -0.2105 -0.3098
19719TIP3    H180648   3.764   0.363   1.953  0.6408 -0.2971 -0.1441
19719TIP3    H280649   3.884   0.361   1.861  0.1386  3.5527 -1.0498
19720TIP3   OH280650   3.422   3.854  16.945  0.4000  0.2132  0.2277
19720TIP3    H180651   3.338   3.876  16.985 -0.0964  1.0050 -1.1807
19720TIP3    H280652   3.440   3.764  16.974 -0.9101  0.0397  0.5668
19721TIP3   OH280653   5.408   0.842  13.985 -0.0442  0.0121 -0.4113
19721TIP3    H180654   5.405   0.821  13.892 -0.6857 -0.4606 -0.2929
19721TIP3    H280655   5.459   0.923  13.990  1.3497 -0.7964 -1.0088
19722TIP3   OH280656   5.328   3.916   4.097  0.7423 -0.3990  0.0983
19722TIP3    H180657   5.281   3.871   4.026 -0.3320 -0.8447  1.0639
19722TIP3    H280658   5.348   3.846   4.159  1.0405  0.1065  0.5698
19723TIP3   OH280659   3.420   4.096  16.522  0.1352 -0.2573  0.4880
19723TIP3    H180660   3.370   4.060  16.596 -0.4080  1.6753  1.1282
19723TIP3    H280661   3.468   4.021  16.487 -2.4758 -2.0146  0.4301
19724TIP3   OH280662   3.281   2.821   3.041  0.3162  0.0378  0.5306
19724TIP3    H180663   3.371   2.789   3.051  0.3237 -0.3170 -0.5186
19724TIP3    H280664   3.250   2.835   3.130  0.9785 -1.0665  0.9547
19725TIP3   OH280665   4.485   1.658  12.697 -0.3282  0.1672 -0.0770
19725TIP3    H180666   4.407   1.714  12.699 -0.8007 -0.5002  0.2485
19725TIP3    H280667   4.464   1.585  12.755  1.5192  1.2563  2.1514
19726TIP3   OH280668   4.986   4.122  11.450 -0.4835  0.4720  0.6759
19726TIP3    H180669   4.909   4.114  11.393  1.3136 -0.5007 -1.7909
19726TIP3    H280670   4.969   4.058  11.520 -1.6865 -0.1366 -0.1126
19727TIP3   OH280671   6.630   5.154   2.080 -0.0899  0.4163 -0.1331
19727TIP3    H180672   6.557   5.167   2.018  1.4703 -0.3308 -2.2487
19727TIP3    H280673   6.651   5.243   2.110 -1.3631  0.7193 -0.0735
19728TIP3   OH280674   2.626   5.794   2.253 -0.5395  0.1897 -0.4562
19728TIP3    H180675   2.693   5.843   2.205  0.1405  0.5685  0.8364
19728TIP3    H280676   2.666   5.775   2.338 -1.5335 -0.8799 -0.1957
19729TIP3   OH280677   4.710   6.422   2.547 -0.1669 -0.3311  0.1357
19729TIP3    H180678   4.619   6.432   2.521  0.1140  0.2948 -0.6473
19729TIP3    H280679   4.711   6.439   2.641 -0.7478  0.3393  0.0255
19730TIP3   OH280680   5.454   0.267   2.713 -0.3138  0.0587  0.2365
19730TIP3    H180681   5.436   0.174   2.721 -0.6818  0.1418  0.3854
19730TIP3    H280682   5.546   0.276   2.737 -0.0876 -0.3581 -0.4470
19731TIP3   OH280683   3.320   5.546   2.985  0.1284  0.7326 -0.3291
19731TIP3    H180684   3.255   5.547   3.055 -1.1879 -5.4470 -0.9165
19731TIP3    H280685   3.270   5.532   2.905  1.9251  0.2864 -1.4322
19732TIP3   OH280686   4.315   4.454  15.506 -0.1136  0.2685 -0.3117
19732TIP3    H180687   4.283   4.429  15.419 -0.4187  2.5176 -0.8991
19732TIP3    H280688   4.236   4.480  15.554  0.1777  0.0601  0.2948
19733TIP3   OH280689   1.766   3.372  12.189  0.3944 -0.0572 -0.1558
19733TIP3    H180690   1.735   3.434  12.123 -0.9097 -0.2274  0.2775
19733TIP3    H280691   1.838   3.418  12.233  0.9217  0.2642 -1.3210
19734TIP3   OH280692   2.579   6.377   2.324 -0.5280 -0.3612  0.3531
19734TIP3    H180693   2.521   6.402   2.396 -0.2629  0.7933  0.1971
19734TIP3    H280694   2.667   6.399   2.355 -0.5374  1.7090 -0.8871
19735TIP3   OH280695   3.820   0.211   5.776  0.2011 -0.2818  0.0178
19735TIP3    H180696   3.857   0.209   5.688  1.2242 -0.4351  0.4316
19735TIP3    H280697   3.895   0.227   5.833  0.3853 -4.3869  1.2667
19736TIP3   OH280698   3.584   5.724   2.352 -0.1585  0.3833 -0.2182
19736TIP3    H180699   3.622   5.783   2.417 -2.4410  2.2307 -0.4354
19736TIP3    H280700   3.620   5.754   2.268  0.5089 -0.0922 -0.1073
19737TIP3   OH280701   0.224   0.748  14.570 -0.3859  0.1524 -0.0831
19737TIP3    H180702   0.312   0.785  14.577  1.9118 -4.5948  0.0690
19737TIP3    H280703   0.207   0.745  14.476  0.5827 -0.7792 -0.2445
19738TIP3   OH280704   5.096   2.270  11.674  0.1477 -0.1343 -0.1951
19738TIP3    H180705   5.115   2.360  11.648 -0.5218  0.3314  0.8845
19738TIP3    H280706   5.182   2.233  11.696  0.3817  0.3659 -0.2525
19739TIP3   OH280707   3.671   1.987  12.533 -0.1079 -0.3944  0.6854
19739TIP3    H180708   3.659   1.892  12.532 -0.4972 -0.3473  0.4443
19739TIP3    H280709   3.581   2.022  12.534  0.0266 -0.0268  0.2124
19740TIP3   OH280710   5.341   3.465   5.230  0.3952 -0.3482  0.1644
19740TIP3    H180711   5.273   3.513   5.277  0.0102  1.2282 -1.8615
19740TIP3    H280712   5.410   3.530   5.214  1.9146 -1.6207  1.1441
19741TIP3   OH280713   5.681   4.959  11.442 -0.5205 -0.4018  0.2896
19741TIP3    H180714   5.753   4.959  11.505  0.1120 -0.5670 -0.4270
19741TIP3    H280715   5.722   4.941  11.358 -1.4636 -1.0298 -0.0571
19742TIP3   OH280716   0.251   2.832   4.055 -0.0129 -0.6138  0.0283
19742TIP3    H180717   0.229   2.746   4.093  1.5627 -0.3969  1.5391
19742TIP3    H280718   0.218   2.895   4.118  0.3528 -0.1508 -0.2411
19743TIP3   OH280719   6.221   3.141  14.170  0.4810 -0.2193  0.1718
19743TIP3    H180720   6.286   3.154  14.239 -0.0104 -0.3645  0.6747
19743TIP3    H280721   6.176   3.060  14.194  2.0356 -1.7503 -1.7475
19744TIP3   OH280722   0.571   2.726   5.346 -0.4485  0.0169  0.2885
19744TIP3    H180723   0.661   2.741   5.373 -0.2836 -0.3841 -0.0267
19744TIP3    H280724   0.520   2.793   5.392  0.0943  0.6807 -0.0534
19745TIP3   OH280725   2.528   3.963   5.566 -0.3019  0.1330 -0.1412
19745TIP3    H180726   2.506   3.960   5.659 -0.2311  0.6065 -0.1049
19745TIP3    H280727   2.444   3.971   5.522 -0.2959  0.6356 -0.0731
19746TIP3   OH280728   1.412   4.789  16.323  0.8392 -0.5247  0.2334
19746TIP3    H180729   1.446   4.701  16.340  0.8335 -0.8664 -1.3555
19746TIP3    H280730   1.427   4.802  16.229 -0.3823  0.6485  0.1826
19747TIP3   OH280731   0.836   2.628   0.967 -0.4969  0.1489 -0.5753
19747TIP3    H180732   0.843   2.557   0.903 -0.5578 -0.0203 -0.3957
19747TIP3    H280733   0.742   2.637   0.982 -0.4506 -0.2359 -0.0393
19748TIP3   OH280734   1.228   0.680  13.443  0.0688 -0.3253 -0.5740
19748TIP3    H180735   1.291   0.648  13.378 -1.0118 -2.0731 -0.8296
19748TIP3    H280736   1.143   0.670  13.400 -0.4678  1.6307 -0.0975
19749TIP3   OH280737   5.073   6.212   1.438 -0.1442 -0.6030  0.0626
19749TIP3    H180738   5.055   6.178   1.350  0.7983  0.4245 -0.5617
19749TIP3    H280739   5.043   6.143   1.497 -2.2005 -0.6728 -0.9961
19750TIP3   OH280740   2.831   1.087  16.454  0.0129 -0.0614 -0.1907
19750TIP3    H180741   2.804   1.107  16.364  0.0121 -1.0224 -0.4115
19750TIP3    H280742   2.806   0.996  16.467  0.9538 -0.2464  0.4317
19751TIP3   OH280743   4.462   4.203  13.435  0.1600 -0.3054 -0.2617
19751TIP3    H180744   4.541   4.156  13.462 -0.0276 -0.7324 -0.4416
19751TIP3    H280745   4.462   4.283  13.488  0.3396 -0.6365  0.2506
19752TIP3   OH280746   5.928   5.238   0.377 -0.9683 -0.0500  0.5580
19752TIP3    H180747   5.871   5.264   0.450 -0.9047  0.1339  0.5442
19752TIP3    H280748   6.010   5.210   0.420 -0.6717  0.7451  0.5248
19753TIP3   OH280749   0.063   2.701  15.415  0.3049  0.3945  0.2162
19753TIP3    H180750   0.137   2.757  15.391 -0.0797  0.8103 -0.0294
19753TIP3    H280751   0.021   2.747  15.488  0.4940 -0.0258  0.6020
19754TIP3   OH280752   5.692   0.396  12.285 -0.4804 -0.1731 -0.2800
19754TIP3    H180753   5.752   0.373  12.214 -0.7529 -0.1573 -0.5153
19754TIP3    H280754   5.659   0.483  12.261  0.8850  0.7020  0.8239
19755TIP3   OH280755   2.388   5.648  14.851 -1.0865  0.1848  0.8131
19755TIP3    H180756   2.322   5.691  14.797 -1.2197  0.5477  1.2614
19755TIP3    H280757   2.424   5.717  14.906 -1.2839 -0.2570  1.5225
19756TIP3   OH280758   4.883   1.271   4.184 -0.0609  0.6782  0.1532
19756TIP3    H180759   4.881   1.220   4.103 -2.7622  0.1468  0.4556
19756TIP3    H280760   4.946   1.226   4.240  0.0382 -0.3642 -0.7761
19757TIP3   OH280761   4.523   6.646   3.014 -0.1918  0.3948 -0.3697
19757TIP3    H180762   4.439   6.603   2.999  0.4367 -1.1686  0.3697
19757TIP3    H280763   4.550   6.616   3.101  0.9676  1.1555 -0.4494
19758TIP3   OH280764   5.634   1.173   4.060 -0.5655 -0.5963  0.1899
19758TIP3    H180765   5.605   1.230   4.132 -1.1612 -1.8039  0.9265
19758TIP3    H280766   5.560   1.169   4.001 -0.1300  0.2691 -0.4359
19759TIP3   OH280767   2.831   2.395   2.232 -0.1351  0.4083 -0.1585
19759TIP3    H180768   2.816   2.489   2.241  0.3985  0.5117 -0.3067
19759TIP3    H280769   2.800   2.358   2.315  0.1379  0.7793  0.1185
19760TIP3   OH280770   3.004   0.725  16.997  0.9717  0.4844  0.5287
19760TIP3    H180771   3.052   0.801  17.031  0.5767  1.9026 -1.8722
19760TIP3    H280772   2.936   0.709  17.063  1.3789  1.8956  1.3452
19761TIP3   OH280773   2.228   3.894   4.826  0.4827 -0.1253  0.4274
19761TIP3    H180774   2.311   3.867   4.788  0.6583  1.1370 -0.1591
19761TIP3    H280775   2.252   3.943   4.904  0.2921  0.1779  0.2974
19762TIP3   OH280776   2.600   3.675   2.383 -0.0342  0.3598 -0.1173
19762TIP3    H180777   2.574   3.699   2.472  0.3249  1.1457 -0.2127
19762TIP3    H280778   2.660   3.602   2.394 -0.7836 -0.2176  0.2190
19763TIP3   OH280779   3.816   5.071  13.990  0.0078  0.2875 -0.5394
19763TIP3    H180780   3.854   5.117  13.915  1.4015  1.1310  0.6265
19763TIP3    H280781   3.748   5.016  13.952  1.0083  0.2946 -2.4775
19764TIP3   OH280782   1.942   5.789   4.741 -0.4831  0.0074 -0.1155
19764TIP3    H180783   1.883   5.739   4.797 -0.8129 -0.0028 -0.4730
19764TIP3    H280784   1.972   5.726   4.675  0.9904 -0.3552  0.8424
19765TIP3   OH280785   1.335   4.100   6.682  0.4114  0.6292  0.2781
19765TIP3    H180786   1.410   4.158   6.667  0.6035  0.1579 -0.6196
19765TIP3    H280787   1.259   4.158   6.678  0.6908  1.0404  0.7721
19766TIP3   OH280788   5.843   1.445   1.876 -0.6602 -0.4075  0.0608
19766TIP3    H180789   5.931   1.413   1.896  0.0987  1.8407  0.6092
19766TIP3    H280790   5.834   1.432   1.781  0.1033 -1.0081  0.0601
19767TIP3   OH280791   4.175   0.874   5.062  0.9609 -0.0068 -0.1454
19767TIP3    H180792   4.263   0.836   5.055  0.3993 -1.1206 -1.7751
19767TIP3    H280793   4.131   0.817   5.125  1.4820  0.7614  0.9422
19768TIP3   OH280794   2.745   0.866  16.897 -0.3712  0.1800  0.1679
19768TIP3    H180795   2.710   0.788  16.940  0.6786  0.2584  1.1999
19768TIP3    H280796   2.808   0.832  16.833 -2.9966 -0.0330 -2.5006
19769TIP3   OH280797   5.564   0.722   3.183  0.1625 -0.4817  0.0248
19769TIP3    H180798   5.556   0.643   3.130 -1.5045 -0.7995  0.6946
19769TIP3    H280799   5.644   0.708   3.234  0.5785 -1.1501 -0.7817
19770TIP3   OH280800   0.924   0.217  12.005 -0.0996  0.9637  0.6968
19770TIP3    H180801   0.880   0.212  11.920 -0.3738 -1.1593  0.9151
19770TIP3    H280802   0.944   0.310  12.016 -1.5492  1.5190 -0.9207
19771TIP3   OH280803   6.020   6.194  12.191 -0.3929  0.2001 -0.4473
19771TIP3    H180804   5.985   6.281  12.169  0.6724  0.4674 -1.1676
19771TIP3    H280805   5.988   6.137  12.121 -0.1855  0.2480 -0.5829
19772TIP3   OH280806   4.568   3.712   6.339 -0.1591 -0.4418 -0.0527
19772TIP3    H180807   4.504   3.652   6.377 -0.4366 -0.6522 -0.8355
19772TIP3    H280808   4.639   3.714   6.402 -0.5263 -0.9354  0.3869
19773TIP3   OH280809   4.745   5.693  15.733  0.1260  0.5112  0.1838
19773TIP3    H180810   4.740   5.756  15.660 -1.2701  0.5538  0.3018
19773TIP3    H280811   4.799   5.738  15.798  3.1953 -0.3415 -1.5713
19774TIP3   OH280812   3.562   0.562  12.000  0.2917  0.3814  0.5030
19774TIP3    H180813   3.618   0.557  12.078  0.1248  0.8655  0.6593
19774TIP3    H280814   3.501   0.633  12.019 -1.4995 -1.2176  1.0567
19775TIP3   OH280815   5.833   4.115  17.069  0.1447  0.3971  0.3198
19775TIP3    H180816   5.921   4.141  17.042  0.2918 -0.3020  0.1114
19775TIP3    H280817   5.805   4.184  17.129 -0.3193  2.1539 -1.8249
19776TIP3   OH280818   1.019   6.576   3.373 -0.0402  0.3956 -0.1199
19776TIP3    H180819   1.033   6.657   3.421 -2.5537  0.2255  1.0496
19776TIP3    H280820   0.963   6.601   3.300  1.2172  0.0925 -1.2339
19777TIP3   OH280821   2.079   5.604   4.565  0.3881 -0.1645 -0.0178
19777TIP3    H180822   2.165   5.584   4.602  0.3679 -0.0374  0.0997
19777TIP3    H280823   2.094   5.608   4.470  0.3541 -0.8981 -0.0557
19778TIP3   OH280824   0.363   2.506   6.018 -0.2512  0.0658  0.1360
19778TIP3    H180825   0.353   2.470   5.930  0.3234  0.3383 -0.0490
19778TIP3    H280826   0.289   2.566   6.029 -0.0236  0.4449 -0.3751
19779TIP3   OH280827   2.571   1.690  15.708 -0.4987 -0.1677  0.3259
19779TIP3    H180828   2.634   1.643  15.653 -0.1747  1.2213 -0.5373
19779TIP3    H280829   2.623   1.721  15.782 -0.6650 -0.9136  0.7739
19780TIP3   OH280830   6.763   1.082  15.163  0.4536 -0.3064  0.7386
19780TIP3    H180831   6.763   0.987  15.146  1.9994 -0.6015  2.1625
19780TIP3    H280832   6.748   1.121  15.077  0.3486 -1.8231  0.0253
19781TIP3   OH280833   3.332   3.642   4.139  0.0311  0.1689 -0.2429
19781TIP3    H180834   3.309   3.576   4.203  0.0456 -0.3720 -0.7877
19781TIP3    H280835   3.304   3.725   4.178 -0.0872 -0.1678  0.3924
19782TIP3   OH280836   5.588   2.535   5.063  0.4083 -0.2385  0.0467
19782TIP3    H180837   5.550   2.616   5.028  0.5149  0.0604  0.6155
19782TIP3    H280838   5.670   2.562   5.103 -0.5145 -0.2654  2.0593
19783TIP3   OH280839   4.312   6.685   4.548  0.2164 -0.1111  0.5601
19783TIP3    H180840   4.295   6.708   4.639 -0.5496  0.4965  0.2768
19783TIP3    H280841   4.345   6.766   4.509 -0.2757 -0.1329  0.0960
19784TIP3   OH280842   3.939   3.580  14.690 -0.8964  0.5623 -0.5121
19784TIP3    H180843   3.903   3.521  14.756  0.3154  0.8763  0.4719
19784TIP3    H280844   3.862   3.625  14.654 -1.7831 -1.1122 -0.8406
19785TIP3   OH280845   2.363   1.738  16.753  0.2766  0.1889  0.2040
19785TIP3    H180846   2.403   1.662  16.709  0.9733 -0.0846  1.2796
19785TIP3    H280847   2.276   1.707  16.778  0.2763 -0.0069 -0.0304
19786TIP3   OH280848   5.771   2.848  13.658  0.1467 -0.0443 -0.1747
19786TIP3    H180849   5.765   2.932  13.703  1.6568 -1.4637  3.0666
19786TIP3    H280850   5.708   2.792  13.703  2.2118 -1.7324  0.8093
19787TIP3   OH280851   2.127   1.289   4.308 -0.3336  0.6577 -0.0045
19787TIP3    H180852   2.191   1.360   4.303 -0.3547  0.5857 -2.1118
19787TIP3    H280853   2.135   1.243   4.224 -0.9018 -1.3355  0.9542
19788TIP3   OH280854   6.222   3.648  15.151  0.0730 -0.3487  0.3905
19788TIP3    H180855   6.196   3.696  15.230  0.0414  2.3110 -1.1179
19788TIP3    H280856   6.148   3.592  15.130 -0.4067 -0.1714  1.5561
19789TIP3   OH280857   4.121   1.869  13.562 -0.4827  0.6514  0.6461
19789TIP3    H180858   4.167   1.899  13.484 -0.5727 -0.6904  0.0416
19789TIP3    H280859   4.030   1.861  13.535 -0.4635 -0.1381  0.7757
19790TIP3   OH280860   5.207   5.703  12.474  0.0186  0.0600  0.5629
19790TIP3    H180861   5.129   5.757  12.486 -0.0885  0.4996 -1.5960
19790TIP3    H280862   5.211   5.687  12.380  2.1382 -0.5621  0.6905
19791TIP3   OH280863   4.647   0.599   5.365 -0.2200  0.1558 -0.1931
19791TIP3    H180864   4.649   0.551   5.448 -0.4649  0.2169 -0.1500
19791TIP3    H280865   4.608   0.539   5.303  0.1207  0.0500 -0.3042
19792TIP3   OH280866   4.378   4.487   1.900 -0.5517 -0.3474 -0.2108
19792TIP3    H180867   4.406   4.402   1.868  0.5934  0.3666 -1.1884
19792TIP3    H280868   4.431   4.502   1.979 -0.3058 -0.2829 -0.3869
19793TIP3   OH280869   1.747   6.346  16.760  0.0112 -0.1216 -0.1973
19793TIP3    H180870   1.687   6.284  16.800 -0.4792  0.1821 -0.4495
19793TIP3    H280871   1.759   6.414  16.827  1.0338 -0.7865  0.3166
19794TIP3   OH280872   5.066   2.630   6.214  0.2320  0.2393 -0.2909
19794TIP3    H180873   5.045   2.632   6.121 -1.6324  1.3368  0.0930
19794TIP3    H280874   5.059   2.538   6.239 -1.3912  0.1815 -0.8357
19795TIP3   OH280875   4.924   2.665   5.606  0.2674  0.7643 -0.6276
19795TIP3    H180876   5.017   2.645   5.608  0.0458 -0.3261  0.8642
19795TIP3    H280877   4.900   2.660   5.513  1.4228 -0.2828 -0.8980
19796TIP3   OH280878   4.611   0.240   1.876  0.4674  0.1582 -0.0046
19796TIP3    H180879   4.695   0.273   1.909 -0.0690  1.9760 -0.3570
19796TIP3    H280880   4.554   0.316   1.876 -0.8682 -0.8062 -0.8369
19797TIP3   OH280881   0.443   0.906   5.266  0.2339 -0.0683  0.6211
19797TIP3    H180882   0.492   0.829   5.238 -0.2015  0.4962 -1.9521
19797TIP3    H280883   0.354   0.873   5.282  0.3095 -0.2794  0.6061
19798TIP3   OH280884   0.950   5.399   0.566  0.5177  0.1906 -0.2713
19798TIP3    H180885   0.976   5.307   0.559  1.3424  0.5440 -2.4310
19798TIP3    H280886   0.856   5.396   0.583  0.2351 -1.0645 -1.8641
19799TIP3   OH280887   0.998   1.135  13.452  0.0061  0.2264  0.5586
19799TIP3    H180888   1.081   1.163  13.490  1.5303 -0.6882 -1.8949
19799TIP3    H280889   1.010   1.145  13.358 -2.6118 -0.1666  0.1075
19800TIP3   OH280890   0.699   1.867   5.721  0.2880 -0.2236  0.7429
19800TIP3    H180891   0.650   1.795   5.759 -1.0052  1.0863  1.6885
19800TIP3    H280892   0.637   1.910   5.662  1.0383  0.1107  0.1673
19801TIP3   OH280893   2.385   1.326   4.809  0.6735  0.1693 -0.4464
19801TIP3    H180894   2.330   1.285   4.876 -1.5822  3.9221  0.3014
19801TIP3    H280895   2.432   1.395   4.855  1.9722  0.4563 -2.1079
19802TIP3   OH280896   5.795   0.109  13.464 -0.0879  0.5943 -0.2222
19802TIP3    H180897   5.800   0.097  13.370  0.5812 -1.9697  0.0750
19802TIP3    H280898   5.877   0.152  13.488  0.3994 -0.0986 -0.6402
19803TIP3   OH280899   6.045   0.115   4.375  0.5755  0.4329  0.4106
19803TIP3    H180900   6.076   0.193   4.421  0.8800  0.4106  0.2452
19803TIP3    H280901   5.981   0.148   4.312  1.5271  0.6968 -0.4482
19804TIP3   OH280902   3.773   4.955   2.242  0.0248 -0.5173  0.3096
19804TIP3    H180903   3.720   5.008   2.302 -0.7221 -0.1436 -0.6647
19804TIP3    H280904   3.742   4.865   2.254 -1.3554 -0.2100 -0.7651
19805TIP3   OH280905   6.526   0.133   4.011  0.3107  0.6356  0.2921
19805TIP3    H180906   6.503   0.146   4.103  1.1291  0.0709  0.5876
19805TIP3    H280907   6.520   0.221   3.972  0.8768  1.0466  1.1049
19806TIP3   OH280908   1.249   2.962  11.167  0.1038 -0.0355  0.3113
19806TIP3    H180909   1.283   2.877  11.195 -3.9033 -1.4011  1.6102
19806TIP3    H280910   1.221   2.949  11.076  2.4151  0.9791 -0.6300
19807TIP3   OH280911   3.127   6.694  13.150  0.1746  0.0235 -0.3670
19807TIP3    H180912   3.034   6.693  13.131  0.1654  2.3840 -0.7231
19807TIP3    H280913   3.134   6.657  13.238 -1.0443 -0.4342 -0.4434
19808TIP3   OH280914   4.328   5.967   4.756 -0.0942 -0.1979 -0.6372
19808TIP3    H180915   4.323   5.884   4.709 -0.7792  0.0201 -0.9649
19808TIP3    H280916   4.368   6.027   4.693  1.0058 -0.4342 -0.1723
19809TIP3   OH280917   5.800   5.718  13.801 -0.6383 -0.4907  0.0951
19809TIP3    H180918   5.755   5.755  13.876 -0.9901  0.1104 -0.4020
19809TIP3    H280919   5.882   5.767  13.795 -1.2681  0.4852 -0.7824
19810TIP3   OH280920   0.499   5.276  10.203  0.8273 -0.2617  0.7991
19810TIP3    H180921   0.594   5.266  10.192  1.4198  2.0865  2.7816
19810TIP3    H280922   0.473   5.202  10.257  1.5613 -0.8594  0.3426
19811TIP3   OH280923   2.241   3.862  13.379  0.3853 -0.0335  0.5253
19811TIP3    H180924   2.270   3.895  13.294 -0.4369 -0.7719 -0.0540
19811TIP3    H280925   2.278   3.924  13.442 -0.5444  1.6155 -0.4744
19812TIP3   OH280926   4.745   6.721   1.693 -0.4765 -0.5226  0.0284
19812TIP3    H180927   4.756   6.742   1.600  0.6917  0.5578  0.3813
19812TIP3    H280928   4.799   6.643   1.707 -0.5737 -0.6269 -0.1820
19813TIP3   OH280929   0.505   6.343   1.319  0.7787 -0.3998 -0.0334
19813TIP3    H180930   0.430   6.363   1.375  1.3477  0.8290  0.3077
19813TIP3    H280931   0.577   6.329   1.380  0.6019 -2.8825 -0.2748
19814TIP3   OH280932   6.130   0.905   0.587 -0.1651  0.0374 -0.3161
19814TIP3    H180933   6.151   0.938   0.675  0.8388 -0.1172 -0.4793
19814TIP3    H280934   6.072   0.972   0.550  0.1326  0.5594  0.1390
19815TIP3   OH280935   3.338   5.809  15.720  0.1465  0.9532 -0.3943
19815TIP3    H180936   3.428   5.808  15.752  0.1618 -0.1344 -0.4483
19815TIP3    H280937   3.343   5.770  15.633 -0.5484 -0.2589  0.0896
19816TIP3   OH280938   1.678   0.338  15.007 -0.0641  0.8667 -0.6347
19816TIP3    H180939   1.720   0.279  14.945 -0.5572 -0.8994  0.6281
19816TIP3    H280940   1.747   0.399  15.034  0.4801  0.8327 -1.9141
19817TIP3   OH280941   3.811   3.785  11.560 -0.8253 -0.1505 -0.0257
19817TIP3    H180942   3.784   3.876  11.544  1.2733  0.3416 -1.1359
19817TIP3    H280943   3.850   3.787  11.648 -2.8711 -0.5461  0.9512
19818TIP3   OH280944   6.392   4.089   3.380 -0.5705 -0.3098  0.3193
19818TIP3    H180945   6.476   4.135   3.371  0.5689 -2.1100  1.1634
19818TIP3    H280946   6.335   4.152   3.423  0.9425  0.3226  1.4875
19819TIP3   OH280947   5.802   5.974  13.109  0.1498  0.1902  0.0614
19819TIP3    H180948   5.869   5.994  13.175 -1.2013  1.9110  0.9807
19819TIP3    H280949   5.750   6.054  13.102 -0.5748 -0.4079 -2.1411
19820TIP3   OH280950   5.022   4.183   3.852  0.0528  0.0352  0.4490
19820TIP3    H180951   5.076   4.128   3.796 -0.7539 -1.0123  0.6727
19820TIP3    H280952   4.938   4.190   3.805  0.0843  0.9467  0.5042
19821TIP3   OH280953   2.938   2.705   6.943 -0.2452 -0.3424 -0.0533
19821TIP3    H180954   3.002   2.635   6.950 -0.7771 -0.8060  0.3314
19821TIP3    H280955   2.988   2.785   6.953  0.5568 -0.5959 -1.7049
19822TIP3   OH280956   1.846   5.839   1.208  0.4175  0.0865  0.3133
19822TIP3    H180957   1.886   5.872   1.289 -2.0304 -1.6445  2.4211
19822TIP3    H280958   1.913   5.784   1.169  1.1311 -0.4180  2.1471
19823TIP3   OH280959   0.074   2.302   1.919 -0.3763  0.1060 -0.9395
19823TIP3    H180960   0.115   2.380   1.957 -2.0529  0.8869 -0.6292
19823TIP3    H280961   0.032   2.259   1.994 -0.3174 -0.5320 -1.2768
19824TIP3   OH280962   5.373   5.446  12.855  0.1875  0.4261  0.3217
19824TIP3    H180963   5.365   5.463  12.762 -0.4966  0.6070  0.4094
19824TIP3    H280964   5.385   5.532  12.895  1.0693  0.3046  0.3573
19825TIP3   OH280965   4.245   1.203  15.489  0.6664  0.2459  0.0941
19825TIP3    H180966   4.325   1.170  15.530  1.3942  0.2386 -1.2545
19825TIP3    H280967   4.262   1.297  15.477  0.7223  0.1381 -0.7136
19826TIP3   OH280968   4.692   1.312  12.004  0.5651 -0.0089  0.6440
19826TIP3    H180969   4.728   1.380  12.061  1.2742  0.5922 -0.4784
19826TIP3    H280970   4.665   1.358  11.925  0.0433 -0.8878  0.2938
19827TIP3   OH280971   2.484   5.802  15.606  0.1870  0.0643  0.3001
19827TIP3    H180972   2.444   5.879  15.647  1.2184  1.4036 -1.0742
19827TIP3    H280973   2.547   5.770  15.671 -0.5419  0.1207  1.0497
19828TIP3   OH280974   0.081   1.492   2.473 -0.0943  0.3644  0.0019
19828TIP3    H180975   0.156   1.433   2.477  1.2658  2.0131  0.3429
19828TIP3    H280976   0.094   1.541   2.391 -1.2715  0.0969 -0.3591
19829TIP3   OH280977   3.617   2.902  10.769  0.0226  0.4264 -0.1837
19829TIP3    H180978   3.598   2.809  10.764 -0.0845  0.3934  0.6667
19829TIP3    H280979   3.542   2.944  10.726 -0.8357  0.1846  1.0279
19830TIP3   OH280980   3.341   2.556  16.784 -0.0642  0.0595  0.1484
19830TIP3    H180981   3.433   2.532  16.781  0.1985  1.0557 -0.0506
19830TIP3    H280982   3.316   2.567  16.692 -0.8804 -1.9781  0.0791
19831TIP3   OH280983   4.397   4.313   2.421  0.4301 -0.1158  0.4703
19831TIP3    H180984   4.315   4.271   2.449  0.2106 -0.1378 -0.1781
19831TIP3    H280985   4.379   4.407   2.427  0.2030 -0.1170 -0.0706
19832TIP3   OH280986   1.749   3.490  15.339  0.3969 -0.3421  0.2281
19832TIP3    H180987   1.824   3.520  15.288  0.8435 -1.4926  0.1766
19832TIP3    H280988   1.676   3.489  15.277  0.1013  1.6197  0.4870
19833TIP3   OH280989   4.738   5.028   6.409  0.2523  0.6183 -0.0491
19833TIP3    H180990   4.788   5.021   6.327 -0.0789  1.3546 -0.3211
19833TIP3    H280991   4.792   5.085   6.465  0.6316 -0.1397  0.3709
19834TIP3   OH280992   1.543   6.782  11.800  0.1172 -0.0639  0.4256
19834TIP3    H180993   1.616   6.842  11.784 -0.4151  0.8071  1.1939
19834TIP3    H280994   1.559   6.709  11.740  0.9038  0.7290 -0.3658
19835TIP3   OH280995   0.982   2.449  12.941  0.3356 -0.0621 -0.2711
19835TIP3    H180996   0.974   2.501  13.021 -0.5592  2.4483 -1.8860
19835TIP3    H280997   0.896   2.408  12.931  0.0121  0.6886 -0.6192
19836TIP3   OH280998   6.547   5.565   2.445 -0.4949  0.8679  0.4706
19836TIP3    H180999   6.576   5.576   2.354  0.5871  1.6444  0.8997
19836TIP3    H281000   6.469   5.620   2.452 -0.3942  1.0591  0.1104
19837TIP3   OH281001   5.643   3.080  13.055 -0.1661  0.6327  0.1927
19837TIP3    H181002   5.709   3.076  13.124 -1.8371  1.0433  1.9299
19837TIP3    H281003   5.691   3.068  12.974  1.7485 -1.2372  1.5010
19838TIP3   OH281004   4.760   6.706   3.341 -0.5080  0.0038 -0.1250
19838TIP3    H181005   4.734   6.797   3.356 -0.2198  0.0276  0.2317
19838TIP3    H281006   4.694   6.655   3.388 -0.3747  0.0424  0.1051
19839TIP3   OH281007   6.000   5.147   6.037 -1.1568  0.3111  0.3820
19839TIP3    H181008   6.082   5.190   6.062 -1.1734 -0.5761  2.1460
19839TIP3    H281009   6.026   5.081   5.973 -0.2192 -0.8434  1.8598
19840TIP3   OH281010   1.394   1.910  15.933 -0.3075 -0.4566 -0.2345
19840TIP3    H181011   1.474   1.946  15.970 -0.4040 -0.3831 -0.0960
19840TIP3    H281012   1.422   1.866  15.853 -0.4657  1.8410 -1.6536
19841TIP3   OH281013   2.633   1.531   5.996 -0.2315 -0.1503 -0.3306
19841TIP3    H181014   2.595   1.552   6.082  1.8506 -0.0195  0.6086
19841TIP3    H281015   2.695   1.460   6.014  1.0404  0.6141 -1.5044
19842TIP3   OH281016   2.327   1.887  15.660 -0.2099 -0.8256  0.1916
19842TIP3    H181017   2.379   1.907  15.582 -0.8850 -0.3575 -0.1412
19842TIP3    H281018   2.279   1.807  15.637 -1.0627 -0.2102 -0.1945
19843TIP3   OH281019   3.203   0.655   0.683 -0.2886 -0.4132 -0.3005
19843TIP3    H181020   3.258   0.604   0.623 -0.5070  0.3513 -1.1797
19843TIP3    H281021   3.259   0.671   0.758  0.0053 -1.3647 -0.3019
19844TIP3   OH281022   5.668   6.594  11.606  0.0634 -0.2092 -0.1727
19844TIP3    H181023   5.635   6.612  11.518 -0.8326  0.8087  0.3438
19844TIP3    H281024   5.735   6.661  11.620 -0.3885  0.1668  0.2237
19845TIP3   OH281025   6.489   2.399  12.991  0.7909  0.0212  0.1424
19845TIP3    H181026   6.568   2.348  13.008  0.4860 -0.0716  1.4039
19845TIP3    H281027   6.517   2.490  12.995  1.4875  0.0270 -2.8597
19846TIP3   OH281028   0.926   0.680  13.340  0.2728 -0.1108  0.1180
19846TIP3    H181029   0.881   0.623  13.403 -0.2955 -0.5687 -0.6798
19846TIP3    H281030   0.965   0.619  13.277 -0.5599  0.3673 -0.8946
19847TIP3   OH281031   4.337   1.380  12.434 -0.3175 -0.1412 -0.4064
19847TIP3    H181032   4.384   1.296  12.437  0.0159  0.0701  1.0381
19847TIP3    H281033   4.406   1.446  12.438 -0.6422  0.1858 -0.2031
19848TIP3   OH281034   6.782   2.504  16.173 -0.0186  0.3199  0.0892
19848TIP3    H181035   6.713   2.440  16.189  1.0240 -0.5697  1.2921
19848TIP3    H281036   6.823   2.476  16.092 -0.1122 -0.0402  0.1655
19849TIP3   OH281037   2.385   3.391   3.620 -0.3351  0.0520 -0.7455
19849TIP3    H181038   2.345   3.460   3.673 -1.9142 -0.4291 -1.2470
19849TIP3    H281039   2.317   3.324   3.613  0.1692 -0.3241 -2.5699
19850TIP3   OH281040   0.753   3.260   6.697  0.4632  0.3644  0.6000
19850TIP3    H181041   0.822   3.326   6.702  0.3757  0.5292 -0.2027
19850TIP3    H281042   0.678   3.301   6.740 -0.7395  2.3206 -2.9270
19851TIP3   OH281043   5.834   4.352   6.198 -0.6564  0.1041 -0.1561
19851TIP3    H181044   5.826   4.287   6.269  0.2766  0.5910  0.4136
19851TIP3    H281045   5.928   4.362   6.186 -0.8043  0.7171 -0.8369
19852TIP3   OH281046   4.657   2.232   6.357  0.0200  0.5178 -0.3768
19852TIP3    H181047   4.749   2.251   6.341 -0.3989  3.0123 -0.3006
19852TIP3    H281048   4.630   2.297   6.422 -1.3210 -1.4853  1.1939
19853TIP3   OH281049   1.584   2.902   2.421 -0.2345 -0.4215  0.0790
19853TIP3    H181050   1.547   2.864   2.342  3.2878 -0.0629 -1.9329
19853TIP3    H281051   1.587   2.996   2.403 -1.1271 -0.0699  1.5217
19854TIP3   OH281052   6.466   0.854   1.954  0.0455 -0.1138 -0.2170
19854TIP3    H181053   6.422   0.925   2.002  0.1768  1.6466 -2.5422
19854TIP3    H281054   6.539   0.897   1.909  1.0705 -2.0484 -0.5095
19855TIP3   OH281055   3.513   2.234   2.236  0.1895 -0.0221 -0.3659
19855TIP3    H181056   3.467   2.165   2.188 -0.2692  0.4168 -0.5717
19855TIP3    H281057   3.522   2.200   2.325 -1.1823  0.1644 -0.1308
19856TIP3   OH281058   3.250   5.093  16.938  0.8659  0.7705  0.0060
19856TIP3    H181059   3.280   5.091  17.029  0.6046 -0.5392  0.0780
19856TIP3    H281060   3.321   5.052  16.888  1.9018  3.2213 -0.6988
19857TIP3   OH281061   6.717   2.096   5.007 -0.5311 -0.2791 -0.0825
19857TIP3    H181062   6.763   2.102   4.923 -2.6389 -0.4470 -1.3094
19857TIP3    H281063   6.786   2.075   5.070  0.9030 -1.6233 -1.9842
19858TIP3   OH281064   2.172   0.230  15.669 -0.0053  0.4894 -0.0586
19858TIP3    H181065   2.084   0.267  15.667  0.1263  0.7782 -1.8955
19858TIP3    H281066   2.208   0.247  15.582  1.1872 -1.2815  0.0267
19859TIP3   OH281067   0.190   2.731  11.936 -0.1400 -0.1152  0.1627
19859TIP3    H181068   0.164   2.775  12.017 -1.9372  0.0692 -0.4690
19859TIP3    H281069   0.201   2.801  11.872 -0.4411 -0.3747 -0.1820
19860TIP3   OH281070   6.310   5.406  12.262 -0.1532  0.3721  0.2740
19860TIP3    H181071   6.351   5.489  12.285  1.6491 -1.2272  3.5507
19860TIP3    H281072   6.369   5.367  12.197 -0.5008  1.1916 -0.5583
19861TIP3   OH281073   1.346   5.498   5.865  0.0315  0.5422 -0.0005
19861TIP3    H181074   1.321   5.559   5.934 -0.2797 -0.7370  1.0509
19861TIP3    H281075   1.348   5.413   5.907 -1.3554 -0.4720 -1.8080
19862TIP3   OH281076   0.586   3.330  13.952  0.0706 -0.1063 -0.4761
19862TIP3    H181077   0.588   3.385  13.874  0.2035 -1.2965 -1.3399
19862TIP3    H281078   0.651   3.368  14.010 -0.0341  0.8024 -0.9370
19863TIP3   OH281079   0.453   3.044   0.801 -0.0086  0.1438 -0.3377
19863TIP3    H181080   0.503   3.125   0.802 -1.6995  1.2297 -0.3745
19863TIP3    H281081   0.403   3.046   0.883 -0.3813 -0.6753 -0.5335
19864TIP3   OH281082   3.456   3.376  16.321  0.4225 -0.2537  0.1329
19864TIP3    H181083   3.464   3.471  16.309  1.0794 -0.3058  0.0967
19864TIP3    H281084   3.372   3.364  16.364 -0.0225  0.2871 -0.5617
19865TIP3   OH281085   3.060   3.792  14.680 -0.5681 -0.6905  0.4621
19865TIP3    H181086   3.118   3.832  14.615 -0.1992  0.1150  1.2643
19865TIP3    H281087   3.117   3.735  14.731 -0.5554 -0.1928  1.0084
19866TIP3   OH281088   1.584   6.469   2.812 -0.3314  0.2906  1.1526
19866TIP3    H181089   1.656   6.524   2.781 -0.3331  0.5860  1.6609
19866TIP3    H281090   1.516   6.478   2.745  0.0623  0.0910  0.7209
19867TIP3   OH281091   0.840   0.077   5.777  0.2564 -0.0809  0.0466
19867TIP3    H181092   0.864   0.156   5.827  0.0460 -0.1589  0.2732
19867TIP3    H281093   0.909   0.014   5.798 -0.8766 -0.7997  1.8582
19868TIP3   OH281094   6.086   1.423  16.306  0.7867  0.1035  0.2565
19868TIP3    H181095   6.009   1.401  16.358  0.7080 -0.0527  0.0768
19868TIP3    H281096   6.075   1.515  16.284 -0.2793 -0.3630 -1.3242
19869TIP3   OH281097   4.417   2.512   4.505  0.0583 -0.2432 -0.5754
19869TIP3    H181098   4.410   2.608   4.505 -1.1461 -0.3103  0.1809
19869TIP3    H281099   4.449   2.490   4.592 -1.6134 -0.6157 -0.0201
19870TIP3   OH281100   1.057   4.713  16.085 -0.4856  0.6028 -0.4154
19870TIP3    H181101   1.003   4.781  16.045 -3.1976 -1.4205 -0.5189
19870TIP3    H281102   1.101   4.756  16.158 -1.5554  2.5994 -0.8864
19871TIP3   OH281103   1.750   1.810   5.083 -0.6052 -0.2706  0.1183
19871TIP3    H181104   1.766   1.814   4.989 -0.4304 -1.6543  0.0659
19871TIP3    H281105   1.676   1.750   5.093 -1.5768  0.9836  0.7931
19872TIP3   OH281106   0.126   0.623   0.125 -0.0015 -0.2337  0.2022
19872TIP3    H181107   0.120   0.651   0.034  0.4026  0.6695  0.4390
19872TIP3    H281108   0.065   0.550   0.132 -1.6663  1.0487 -0.2673
19873TIP3   OH281109   5.134   5.239   5.788  0.1407 -0.1545  0.0517
19873TIP3    H181110   5.208   5.287   5.750  1.1652  0.4389  2.6291
19873TIP3    H281111   5.077   5.307   5.823 -1.4029 -0.6383 -1.4239
19874TIP3   OH281112   0.717   4.124   5.893  0.0082 -0.1563  0.9337
19874TIP3    H181113   0.669   4.060   5.945 -2.2721 -1.5873 -2.5830
19874TIP3    H281114   0.803   4.082   5.879  0.2564 -0.2400  2.4483
19875TIP3   OH281115   5.494   1.469   2.390 -0.1524 -0.0812  0.6327
19875TIP3    H181116   5.432   1.398   2.374  1.1105 -1.2016  0.4979
19875TIP3    H281117   5.475   1.534   2.322 -0.1657 -1.1066 -0.3688
19876TIP3   OH281118   5.556   3.736  14.256 -0.3597  0.3823  1.2147
19876TIP3    H181119   5.503   3.701  14.328 -0.6376 -0.1576  0.7595
19876TIP3    H281120   5.509   3.710  14.177 -0.1220  1.0756  0.8392
19877TIP3   OH281121   3.135   0.946   5.569 -0.2605  0.0765 -0.1489
19877TIP3    H181122   3.206   1.004   5.597  0.0314 -1.2083  1.9893
19877TIP3    H281123   3.166   0.910   5.486  0.4636  1.3860 -0.4796
19878TIP3   OH281124   2.627   6.095  13.232  0.5846 -0.5440 -0.3360
19878TIP3    H181125   2.685   6.019  13.244  1.0112 -0.2192 -0.2853
19878TIP3    H281126   2.607   6.095  13.139  1.0681 -0.3833 -0.4463
19879TIP3   OH281127   0.606   0.880  13.387 -0.3881 -0.1128  0.2107
19879TIP3    H181128   0.644   0.892  13.300  0.3829 -1.1084  0.4022
19879TIP3    H281129   0.644   0.950  13.440 -0.4637  0.1789 -0.1165
19880TIP3   OH281130   0.612   1.127  12.690 -0.2876  0.5561  0.3987
19880TIP3    H181131   0.544   1.066  12.716  0.6596 -1.1789 -0.9403
19880TIP3    H281132   0.692   1.074  12.686  0.4946  1.7468 -1.2277
19881TIP3   OH281133   5.092   3.073  17.137  0.1893 -0.1178 -0.5952
19881TIP3    H181134   5.034   3.095  17.210 -0.4830 -2.6243 -0.2962
19881TIP3    H281135   5.176   3.112  17.162  0.0541 -1.1361  1.7172
19882TIP3   OH281136   0.282   5.825   5.174 -0.4851 -0.1879  0.0461
19882TIP3    H181137   0.213   5.859   5.232 -1.6038  0.9274 -1.8532
19882TIP3    H281138   0.291   5.891   5.105  1.2406 -1.1732 -0.7488
19883TIP3   OH281139   1.626   2.521  12.185  0.2044  0.7052  0.4585
19883TIP3    H181140   1.662   2.610  12.189 -0.0754  0.8245  0.3264
19883TIP3    H281141   1.703   2.465  12.176  0.3317  0.9985 -0.3262
19884TIP3   OH281142   2.914   5.453  14.629  0.1171 -0.3554  0.2549
19884TIP3    H181143   2.828   5.444  14.670  0.9356 -2.7633  1.6119
19884TIP3    H281144   2.977   5.436  14.699  1.7563  1.1787 -0.7377
19885TIP3   OH281145   0.924   0.226  16.713  0.4762 -0.0603  0.0101
19885TIP3    H181146   0.988   0.176  16.663  0.2969 -1.3804  1.0296
19885TIP3    H281147   0.969   0.249  16.794  0.0924  0.2084  0.1533
19886TIP3   OH281148   3.599   3.833  11.945  0.0609  0.1429 -0.6477
19886TIP3    H181149   3.683   3.829  11.899  1.2128  1.4857  1.1895
19886TIP3    H281150   3.601   3.757  12.004 -0.2594 -0.1334 -0.9936
19887TIP3   OH281151   0.382   1.479   1.799 -0.1441 -0.3320  0.1118
19887TIP3    H181152   0.429   1.437   1.871 -1.0475 -0.0178  0.9056
19887TIP3    H281153   0.446   1.539   1.760  0.7490 -1.4454 -0.1865
19888TIP3   OH281154   5.941   2.381   0.730 -0.2173  0.1183 -0.1350
19888TIP3    H181155   6.006   2.325   0.685 -0.2158  0.9664 -1.2275
19888TIP3    H281156   5.975   2.470   0.719 -0.5808  0.4094  0.9889
19889TIP3   OH281157   3.963   3.740   1.881 -0.5053  0.1449  0.1392
19889TIP3    H181158   4.010   3.661   1.905 -1.4712 -0.3881  0.3220
19889TIP3    H281159   3.974   3.747   1.786 -2.5204 -1.6343 -0.2828
19890TIP3   OH281160   6.272   1.208  11.449  0.5256 -0.3960 -0.0624
19890TIP3    H181161   6.282   1.230  11.541 -1.8663  2.6451 -0.3522
19890TIP3    H281162   6.326   1.271  11.403 -0.4590 -0.0509 -0.7801
19891TIP3   OH281163   5.727   5.701  15.328 -0.3192 -0.1398 -0.4495
19891TIP3    H181164   5.657   5.757  15.294  1.9341  1.8675 -2.1996
19891TIP3    H281165   5.704   5.686  15.420 -3.5266 -0.5165 -1.2186
19892TIP3   OH281166   5.815   5.288   5.009 -0.4963 -0.1173 -0.4099
19892TIP3    H181167   5.818   5.204   4.964  0.7643  0.7307 -2.0007
19892TIP3    H281168   5.895   5.333   4.982 -0.3676  0.9922  1.6367
19893TIP3   OH281169   0.275   5.869   2.190 -0.1391  0.4356 -0.2802
19893TIP3    H181170   0.187   5.907   2.184 -0.1203  1.2514  2.8472
19893TIP3    H281171   0.333   5.945   2.196  0.4035 -0.0643  1.0607
19894TIP3   OH281172   4.286   5.085   3.919  0.0700  0.2285  0.4243
19894TIP3    H181173   4.201   5.107   3.883 -0.0395  0.2505  0.6975
19894TIP3    H281174   4.275   4.995   3.952 -0.5326  1.0298  2.5659
19895TIP3   OH281175   0.232   3.830   4.149  0.9482 -0.1024 -0.0154
19895TIP3    H181176   0.315   3.837   4.101  1.4315 -0.8505  0.6945
19895TIP3    H281177   0.166   3.860   4.086  1.8576  1.6371 -0.2027
19896TIP3   OH281178   0.121   6.455   2.289  0.1308 -0.2225 -0.3837
19896TIP3    H181179   0.166   6.539   2.281  1.7153 -1.1433 -1.7727
19896TIP3    H281180   0.054   6.457   2.221 -0.1532  0.0707 -0.1044
19897TIP3   OH281181   3.825   4.850   6.112 -0.4254  0.0320 -0.0145
19897TIP3    H181182   3.780   4.929   6.142  0.3940  0.1361  1.0203
19897TIP3    H281183   3.765   4.779   6.135 -1.7009  0.3938 -2.0227
19898TIP3   OH281184   4.976   2.180  12.133  0.2860 -0.2019 -0.7536
19898TIP3    H181185   5.023   2.167  12.216 -0.7078  0.7113 -0.0303
19898TIP3    H281186   4.958   2.091  12.102  0.9227 -0.5580 -0.1422
19899TIP3   OH281187   1.606   6.511   5.697 -0.0712 -0.3595 -0.3154
19899TIP3    H181188   1.524   6.519   5.648 -0.2219 -0.1089 -0.0236
19899TIP3    H281189   1.625   6.599   5.728  0.1329 -0.4779 -0.0988
19900TIP3   OH281190   1.773   1.280  17.003 -0.6471  0.0837 -0.7212
19900TIP3    H181191   1.805   1.364  16.970  0.5034  0.6556  1.5928
19900TIP3    H281192   1.814   1.272  17.089 -1.8417 -2.2167 -0.3018
19901TIP3   OH281193   3.940   5.175   4.637  0.3333 -0.5170  0.0549
19901TIP3    H181194   3.877   5.103   4.648  0.4416 -0.6886 -0.4569
19901TIP3    H281195   4.005   5.142   4.576  0.8841 -0.3053  0.5174
19902TIP3   OH281196   3.140   1.479   4.455 -0.1275 -0.1277 -0.0940
19902TIP3    H181197   3.070   1.413   4.453  0.3369 -0.6108 -1.3982
19902TIP3    H281198   3.220   1.429   4.471 -0.1746  0.5766  3.0704
19903TIP3   OH281199   2.340   5.863  12.796 -0.0328  0.4281  0.6696
19903TIP3    H181200   2.414   5.819  12.755  0.4086  0.5885  1.2794
19903TIP3    H281201   2.378   5.910  12.870 -0.9727 -0.8793  2.0569
19904TIP3   OH281202   4.808   4.584  13.687 -0.1656 -0.0494 -0.1360
19904TIP3    H181203   4.828   4.665  13.734  0.8873 -0.5863  0.3620
19904TIP3    H281204   4.741   4.542  13.740 -0.7647  0.5109 -0.4296
19905TIP3   OH281205   1.046   4.672  17.199 -0.5178 -0.1321  0.4938
19905TIP3    H181206   1.123   4.649  17.147 -2.6539 -1.9380 -2.1473
19905TIP3    H281207   1.000   4.737  17.146 -1.7709 -0.4913  1.1164
19906TIP3   OH281208   3.986   4.473  11.870  0.0771 -0.1620 -0.3620
19906TIP3    H181209   3.971   4.533  11.943 -0.1297 -1.3089  0.5579
19906TIP3    H281210   3.992   4.530  11.793 -2.0996  0.9165  0.1868
19907TIP3   OH281211   2.824   1.603  17.151  0.1482  0.1142  0.3770
19907TIP3    H181212   2.852   1.569  17.066 -3.7546  0.8881 -1.4667
19907TIP3    H281213   2.861   1.691  17.155 -0.2949  0.3875 -0.9901
19908TIP3   OH281214   6.020   5.487   2.023 -0.0661  0.3037  0.1853
19908TIP3    H181215   6.044   5.528   1.939 -0.5157  1.2245  0.4929
19908TIP3    H281216   6.102   5.453   2.057 -0.0843 -1.3904 -1.2981
19909TIP3   OH281217   5.813   4.142   1.736  0.4121  0.3509 -0.0156
19909TIP3    H181218   5.883   4.120   1.675 -1.4581  0.2323 -2.2401
19909TIP3    H281219   5.787   4.231   1.713  1.1868  1.2302  2.2213
19910TIP3   OH281220   3.174   1.925   4.003 -0.0647 -0.5580  0.1123
19910TIP3    H181221   3.083   1.934   4.031 -0.7100  0.7472 -2.1055
19910TIP3    H281222   3.174   1.850   3.944 -0.0697  0.2874 -1.0103
19911TIP3   OH281223   2.415   4.180  16.008 -0.3108  0.1566 -0.0389
19911TIP3    H181224   2.349   4.239  15.972 -0.9342 -0.7769 -0.4718
19911TIP3    H281225   2.367   4.128  16.073  0.2793  0.2649  0.4980
19912TIP3   OH281226   3.922   3.317   2.749 -0.2116  0.2726  0.0859
19912TIP3    H181227   3.866   3.273   2.685  0.1279 -0.3160  0.1886
19912TIP3    H281228   3.987   3.364   2.696  0.5846 -0.8959  0.0052
19913TIP3   OH281229   4.697   4.236   1.829 -0.2820  0.1928  0.2193
19913TIP3    H181230   4.791   4.249   1.842 -0.1040  0.3768 -1.1175
19913TIP3    H281231   4.690   4.189   1.746 -1.2729 -1.9840  1.4334
19914TIP3   OH281232   1.564   2.514  11.316  0.1109 -0.1141 -0.1983
19914TIP3    H181233   1.571   2.472  11.402  4.0003 -1.9538 -1.1880
19914TIP3    H281234   1.531   2.445  11.258  0.4681  0.1396 -0.7113
19915TIP3   OH281235   4.950   5.464   1.074  0.2264  0.9436  0.5542
19915TIP3    H181236   5.003   5.384   1.073 -2.6106 -1.1639  2.4875
19915TIP3    H281237   4.901   5.460   0.992  0.2080  0.7927  0.5714
19916TIP3   OH281238   1.914   3.097  14.511  0.3395  0.2627 -0.1118
19916TIP3    H181239   1.863   3.119  14.434  1.0372 -0.2488 -0.7311
19916TIP3    H281240   1.991   3.051  14.477  0.6411  0.0010  0.8853
19917TIP3   OH281241   1.643   3.895  15.108 -0.5774 -0.4682 -0.1138
19917TIP3    H181242   1.635   3.983  15.072 -0.2923 -0.5710 -0.4317
19917TIP3    H281243   1.611   3.903  15.198 -3.0230 -0.5745 -0.9018
19918TIP3   OH281244   3.503   2.599   0.806  0.1533 -0.1276  0.1315
19918TIP3    H181245   3.472   2.513   0.836 -0.7033  0.5915  1.3830
19918TIP3    H281246   3.583   2.615   0.857 -0.1995  0.2143  0.5854
19919TIP3   OH281247   5.036   1.171  16.269  1.0898  0.3177 -0.1732
19919TIP3    H181248   5.082   1.128  16.196  0.3673 -0.1391 -0.3711
19919TIP3    H281249   5.039   1.264  16.247 -0.7012  0.0726 -1.7649
19920TIP3   OH281250   1.958   0.149   1.166  0.1228  0.2929 -0.4825
19920TIP3    H181251   1.915   0.065   1.151 -0.5874  0.0821  2.1847
19920TIP3    H281252   2.035   0.128   1.219  0.7834  1.1880 -1.0571
19921TIP3   OH281253   1.419   6.449   2.590 -0.7145  0.1973 -0.0376
19921TIP3    H181254   1.482   6.388   2.552 -1.3453 -0.4031 -0.1567
19921TIP3    H281255   1.441   6.534   2.552 -1.0396 -0.3062 -1.4113
19922TIP3   OH281256   6.701   1.471  12.229 -0.1689  0.1579 -0.2329
19922TIP3    H181257   6.619   1.437  12.264 -0.7314  0.4746 -1.2214
19922TIP3    H281258   6.678   1.555  12.188  0.9422  1.0843  0.9176
19923TIP3   OH281259   0.532   2.531   2.754 -0.1847  0.6677  0.6278
19923TIP3    H181260   0.619   2.570   2.763 -0.3322  0.7710  1.7668
19923TIP3    H281261   0.548   2.449   2.708  0.4653  0.8820  0.4516
19924TIP3   OH281262   2.802   5.187  15.181 -0.3157  0.7325  0.0854
19924TIP3    H181263   2.884   5.162  15.224 -0.7472 -0.5244  0.2125
19924TIP3    H281264   2.770   5.106  15.140 -1.2053  1.3337 -0.4473
19925TIP3   OH281265   5.392   6.212   4.653 -0.7598 -0.2303 -0.2391
19925TIP3    H181266   5.394   6.241   4.744 -0.9185 -0.8766 -0.0239
19925TIP3    H281267   5.411   6.118   4.657 -1.2799 -0.3688 -0.8260
19926TIP3   OH281268   4.857   0.918  13.689 -0.2392  0.5242 -0.1319
19926TIP3    H181269   4.824   0.870  13.765  1.1302 -2.0466 -1.0355
19926TIP3    H281270   4.806   0.884  13.616  0.9884  0.1464 -0.8375
19927TIP3   OH281271   1.125   6.418   0.573  0.8323  0.1797  0.3859
19927TIP3    H181272   1.201   6.402   0.517  0.6540  0.1949  0.1363
19927TIP3    H281273   1.054   6.369   0.532  0.2920  1.5127 -0.3609
19928TIP3   OH281274   4.570   4.253   0.635 -0.2309  0.5274  0.3305
19928TIP3    H181275   4.655   4.295   0.623 -0.5345  1.4280  1.1823
19928TIP3    H281276   4.563   4.192   0.562  1.2619  0.2273  0.4121
19929TIP3   OH281277   5.161   3.320  15.081 -0.4789 -0.1842  0.2161
19929TIP3    H181278   5.106   3.383  15.035  0.0540 -0.1242 -0.3515
19929TIP3    H281279   5.234   3.303  15.021  0.1822 -0.1796  0.9921
19930TIP3   OH281280   5.599   0.797  16.964  0.2804 -0.4897  0.3335
19930TIP3    H181281   5.540   0.752  16.903 -0.9154 -0.0018  1.0847
19930TIP3    H281282   5.592   0.889  16.939 -0.5607 -0.2264  1.4368
19931TIP3   OH281283   5.155   3.856  13.514 -0.3983 -0.1427 -0.4754
19931TIP3    H181284   5.241   3.897  13.527 -0.4515 -0.0693 -0.3523
19931TIP3    H281285   5.154   3.831  13.422 -0.2247 -0.1873 -0.4649
19932TIP3   OH281286   3.946   1.371  16.515 -0.5621  0.3775  0.3872
19932TIP3    H181287   3.874   1.407  16.567 -0.7456  0.3594  0.1494
19932TIP3    H281288   4.025   1.411  16.551 -0.9902  5.3326 -3.1885
19933TIP3   OH281289   2.179   1.772   0.906 -0.2550  0.2591  0.0095
19933TIP3    H181290   2.121   1.836   0.949  1.9207  0.9738  2.1498
19933TIP3    H281291   2.214   1.720   0.978  0.7559 -1.0281 -1.3541
19934TIP3   OH281292   2.540   2.358  14.379 -0.3068 -0.0343  0.1023
19934TIP3    H181293   2.551   2.293  14.309  0.3823 -0.2753  0.4233
19934TIP3    H281294   2.595   2.432  14.352 -0.1635 -0.0644  0.3076
19935TIP3   OH281295   4.660   6.283  16.814 -0.5213 -0.5782 -0.0280
19935TIP3    H181296   4.729   6.348  16.805 -0.6278 -0.3539  0.7021
19935TIP3    H281297   4.675   6.223  16.741  0.6658 -0.7328  0.3092
19936TIP3   OH281298   6.553   0.624  12.877 -0.0022 -0.4923  0.2801
19936TIP3    H181299   6.609   0.574  12.937  0.4744  0.1212  0.3533
19936TIP3    H281300   6.613   0.664  12.815 -0.1057  1.8806  1.5952
19937TIP3   OH281301   4.721   3.969   3.217  0.3308 -0.0018  0.3717
19937TIP3    H181302   4.634   4.000   3.192  0.0556 -0.4284  0.8029
19937TIP3    H281303   4.779   4.043   3.196  0.2222 -0.5395 -2.1360
19938TIP3   OH281304   2.105   2.882   4.166  0.1941 -0.4307  1.1552
19938TIP3    H181305   2.165   2.810   4.186 -0.6047 -1.1777  0.9450
19938TIP3    H281306   2.159   2.961   4.172  1.9959 -1.2433 -2.0032
19939TIP3   OH281307   4.140   3.858  11.077 -0.4364  0.1783  0.4023
19939TIP3    H181308   4.161   3.946  11.047 -0.6127 -0.0913 -0.5442
19939TIP3    H281309   4.138   3.865  11.173 -0.1489  1.1250  0.3487
19940TIP3   OH281310   5.094   2.058   0.298  0.5478  0.5390  0.2255
19940TIP3    H181311   5.074   1.970   0.265 -1.0230  0.6821  0.7457
19940TIP3    H281312   5.073   2.054   0.391  2.0669  1.0114  0.6240
19941TIP3   OH281313   5.450   4.420   1.473  0.7037 -0.0795  0.7442
19941TIP3    H181314   5.439   4.427   1.378  1.0708 -2.6614  0.4448
19941TIP3    H281315   5.361   4.420   1.508  0.5556  0.4438  0.3854
19942TIP3   OH281316   4.638   6.134   2.050 -0.0826  0.0122  0.4833
19942TIP3    H181317   4.652   6.171   1.963 -1.0655 -0.3681  0.1535
19942TIP3    H281318   4.702   6.062   2.056 -0.9622 -0.8878 -0.5053
19943TIP3   OH281319   5.121   5.203  11.008 -0.0263  0.5002  0.4644
19943TIP3    H181320   5.186   5.136  11.028  0.0257  0.5800  0.5604
19943TIP3    H281321   5.160   5.253  10.936  0.1203  0.6932  0.6768
19944TIP3   OH281322   2.479   4.247   5.287 -0.3572  0.1815  0.3433
19944TIP3    H181323   2.510   4.305   5.356 -0.1411  0.6389 -0.1355
19944TIP3    H281324   2.403   4.291   5.250  1.1750  1.3770 -1.6195
19945TIP3   OH281325   3.489   3.495  15.779 -0.2375  0.4275 -0.0156
19945TIP3    H181326   3.411   3.471  15.729 -2.0673  2.8250  1.4471
19945TIP3    H281327   3.489   3.437  15.855 -1.9147  1.7855  1.0867
19946TIP3   OH281328   3.749   6.399   2.248  0.6778 -0.3050  0.1778
19946TIP3    H181329   3.765   6.435   2.161 -4.2540  0.4110 -0.7247
19946TIP3    H281330   3.726   6.308   2.232  0.4372 -0.3615  0.8324
19947TIP3   OH281331   5.782   4.374  12.632  0.1034  0.2017 -0.4549
19947TIP3    H181332   5.811   4.427  12.558 -2.7512  0.7704 -1.2681
19947TIP3    H281333   5.850   4.386  12.698  2.0758  0.7373 -2.4577
19948TIP3   OH281334   0.911   3.087  11.676  0.0175 -0.4231  0.1929
19948TIP3    H181335   0.924   3.159  11.613 -0.5853  0.1747  0.7372
19948TIP3    H281336   0.816   3.084  11.689  0.2416  0.6164  2.3905
19949TIP3   OH281337   2.490   5.074   6.468  0.1413 -0.1229  0.5859
19949TIP3    H181338   2.525   4.999   6.517 -0.7543 -2.1269 -1.6392
19949TIP3    H281339   2.563   5.104   6.414  0.4904  0.6082  1.4509
19950TIP3   OH281340   6.156   6.113  11.427  0.0291 -0.2315 -0.1236
19950TIP3    H181341   6.194   6.026  11.441 -0.0347 -0.1383  0.6786
19950TIP3    H281342   6.130   6.143  11.514 -0.3277  0.4243 -0.4410
19951TIP3   OH281343   2.290   0.694  13.528  0.3335  0.2632 -0.6188
19951TIP3    H181344   2.272   0.743  13.608 -1.9267  3.1022 -2.6847
19951TIP3    H281345   2.244   0.611  13.540  1.7447 -0.2588  1.7724
19952TIP3   OH281346   6.571   2.326   0.937 -0.6953  0.0422 -0.3752
19952TIP3    H181347   6.558   2.397   0.873  1.6100 -0.6323 -1.7226
19952TIP3    H281348   6.602   2.370   1.016  0.3795  0.6262 -1.0863
19953TIP3   OH281349   2.116   2.091   5.160 -0.1729  0.1232 -0.6042
19953TIP3    H181350   2.035   2.089   5.212 -0.7386  0.9111 -1.4260
19953TIP3    H281351   2.160   2.172   5.186  1.2297 -1.1021  1.0765
19954TIP3   OH281352   0.716   4.294   0.890 -0.3785 -0.0700  0.5033
19954TIP3    H181353   0.661   4.216   0.898  0.4010 -0.4743  2.8087
19954TIP3    H281354   0.725   4.308   0.796 -2.2501 -1.5052  0.0432
19955TIP3   OH281355   4.119   2.454   3.228  0.3875 -0.3244 -0.0278
19955TIP3    H181356   4.084   2.514   3.162  0.2214 -0.3869  0.0050
19955TIP3    H281357   4.214   2.467   3.223  0.2686  2.2035  2.0914
19956TIP3   OH281358   6.062   1.095   1.841 -0.1362  0.5830 -0.3346
19956TIP3    H181359   6.051   1.004   1.813 -1.3209  1.0900 -1.6021
19956TIP3    H281360   6.156   1.109   1.840  0.0564 -0.5732 -0.2834
19957TIP3   OH281361   0.997   3.150  14.717 -0.1446 -0.0015 -0.1085
19957TIP3    H181362   1.090   3.171  14.726 -0.2944  0.7434 -0.2115
19957TIP3    H281363   0.974   3.104  14.799  0.6929 -1.7108 -0.7889
19958TIP3   OH281364   0.717   2.157   4.556 -0.0247  0.0509  0.4590
19958TIP3    H181365   0.639   2.199   4.590 -0.5023  0.0011 -0.5302
19958TIP3    H281366   0.744   2.211   4.482  0.1590 -0.5959  0.0363
19959TIP3   OH281367   3.992   3.769  12.811  0.1015  0.4460  0.0757
19959TIP3    H181368   3.933   3.736  12.879  0.5909  0.2853  0.4319
19959TIP3    H281369   3.934   3.800  12.742 -0.3941 -0.3265  0.1256
19960TIP3   OH281370   0.737   1.643  15.737 -0.3031 -0.1821 -0.0229
19960TIP3    H181371   0.744   1.735  15.711  0.9029 -0.2955 -0.1899
19960TIP3    H281372   0.673   1.642  15.808 -0.2667  0.7977  0.0349
19961TIP3   OH281373   2.215   5.067  13.835  0.2412 -0.3210 -0.0169
19961TIP3    H181374   2.245   5.158  13.828  1.1825 -0.4569  1.6741
19961TIP3    H281375   2.156   5.067  13.911 -0.4756 -0.9670 -0.5554
19962TIP3   OH281376   5.137   3.125  16.497  0.1853 -0.1388  0.3399
19962TIP3    H181377   5.155   3.190  16.564 -0.8773  2.4146 -1.6830
19962TIP3    H281378   5.046   3.142  16.471  0.4322 -1.2764 -1.4538
19963TIP3   OH281379   5.321   3.097   1.177 -0.4549  0.1037 -0.5956
19963TIP3    H181380   5.318   3.019   1.233  1.0535  1.0560  0.9168
19963TIP3    H281381   5.292   3.067   1.091  1.1519 -2.3835 -0.3531
19964TIP3   OH281382   3.767   2.314   5.835  0.1142  0.1445  0.0349
19964TIP3    H181383   3.730   2.345   5.917 -0.1333  0.3213 -0.1433
19964TIP3    H281384   3.692   2.309   5.775  0.3506  0.3473 -0.2800
19965TIP3   OH281385   6.371   4.460   0.860 -0.7328  0.0280  0.0077
19965TIP3    H181386   6.328   4.395   0.916  0.8012 -0.2505  0.9369
19965TIP3    H281387   6.362   4.425   0.772 -0.8957 -0.9107  0.3817
19966TIP3   OH281388   5.691   4.021  13.406 -0.1235  0.2328  0.1713
19966TIP3    H181389   5.784   4.001  13.413  0.3135  2.0185  0.0018
19966TIP3    H281390   5.685   4.083  13.333 -1.4914 -0.1009 -0.0302
19967TIP3   OH281391   6.317   0.733  17.285  0.1240  0.0387 -0.3159
19967TIP3    H181392   6.322   0.822  17.250 -0.2683  0.6481  1.0935
19967TIP3    H281393   6.264   0.685  17.221 -0.2547  1.0063 -0.7536
19968TIP3   OH281394   1.571   6.090  14.663 -0.0792 -0.4418 -0.0935
19968TIP3    H181395   1.607   6.059  14.580 -0.4928  0.4452 -0.6231
19968TIP3    H281396   1.647   6.117  14.714  0.2009 -1.2984 -0.0496
19969TIP3   OH281397   2.894   1.749   0.912  0.6232  0.1787 -0.5564
19969TIP3    H181398   2.959   1.727   0.980  0.1900 -0.1939 -0.2568
19969TIP3    H281399   2.846   1.667   0.897 -0.8918  0.8370  0.4461
19970TIP3   OH281400   5.326   3.250  16.316 -0.2940  0.0108 -0.0561
19970TIP3    H181401   5.261   3.225  16.382 -2.5848  2.3207 -1.3001
19970TIP3    H281402   5.336   3.344  16.326  1.4996 -0.0104 -1.1845
19971TIP3   OH281403   0.230   2.101  16.411 -0.1779  0.3439  0.0696
19971TIP3    H181404   0.316   2.123  16.446 -0.6684  0.2555  1.4050
19971TIP3    H281405   0.182   2.183  16.413 -0.0926  0.4244 -0.8136
19972TIP3   OH281406   5.613   0.210   5.858  0.3906  0.1699  0.1681
19972TIP3    H181407   5.707   0.221   5.845  0.4853 -1.8793 -1.4045
19972TIP3    H281408   5.588   0.141   5.796 -1.6591 -1.2490  2.4151
19973TIP3   OH281409   5.494   2.004  14.595 -0.3999 -0.5289  0.4595
19973TIP3    H181410   5.555   2.078  14.595 -1.8047  0.7077  2.0708
19973TIP3    H281411   5.447   2.013  14.512  1.4117 -1.4210 -0.7431
19974TIP3   OH281412   1.238   3.923  11.102  0.4811  0.0638 -0.5468
19974TIP3    H181413   1.273   3.883  11.022  1.1388 -1.6091  0.5442
19974TIP3    H281414   1.181   3.856  11.140 -0.0814  0.9624  0.2318
19975TIP3   OH281415   3.873   1.845  16.450 -0.2892  0.1579 -0.2276
19975TIP3    H181416   3.868   1.901  16.527 -1.8103  1.2502 -1.0633
19975TIP3    H281417   3.877   1.906  16.376  0.0410 -0.8503 -1.0590
19976TIP3   OH281418   4.656   5.945   5.927  0.5443  0.5036 -0.0270
19976TIP3    H181419   4.576   5.988   5.957  0.8286  0.2833  1.0994
19976TIP3    H281420   4.643   5.853   5.951  1.8868  0.7585  1.8909
19977TIP3   OH281421   3.159   0.804  15.446  0.2500 -0.3108 -0.3349
19977TIP3    H181422   3.133   0.714  15.468 -0.2035 -0.3866 -1.1697
19977TIP3    H281423   3.082   0.857  15.465  0.8385  0.0753  1.1439
19978TIP3   OH281424   2.210   3.761   2.913  0.6727 -0.1040  0.6125
19978TIP3    H181425   2.253   3.764   2.998  2.5174 -0.7203 -0.2454
19978TIP3    H281426   2.215   3.669   2.886 -2.2858 -0.4818  0.9476
19979TIP3   OH281427   6.694   0.110   0.757  0.4187 -0.1503  0.0409
19979TIP3    H181428   6.780   0.123   0.797  1.0165 -3.0320 -0.0783
19979TIP3    H281429   6.642   0.186   0.785  2.6317  1.0478  1.1032
19980TIP3   OH281430   2.931   4.566   1.186 -0.2345  0.3772  0.0645
19980TIP3    H181431   3.014   4.573   1.139  0.4877 -0.9885  1.0492
19980TIP3    H281432   2.872   4.525   1.123 -0.3108  1.7783 -0.7965
19981TIP3   OH281433   5.778   4.535  14.153 -0.4433  0.2532 -0.1173
19981TIP3    H181434   5.796   4.529  14.060  2.6990  1.0878  0.3205
19981TIP3    H281435   5.747   4.624  14.166 -1.4325 -0.0356 -0.3939
19982TIP3   OH281436   0.239   3.670   0.797  0.3181 -0.0125  0.0910
19982TIP3    H181437   0.156   3.694   0.754  0.2942 -0.9218 -0.4084
19982TIP3    H281438   0.243   3.726   0.874  0.0890  1.2798 -0.8092
19983TIP3   OH281439   1.709   3.842   1.744 -0.6358 -0.5532  0.6751
19983TIP3    H181440   1.766   3.901   1.794  0.3118  1.2300 -2.2253
19983TIP3    H281441   1.640   3.899   1.709 -0.9498 -1.5813 -0.4495
19984TIP3   OH281442   5.521   6.463   5.136  0.7698 -0.1581 -0.6126
19984TIP3    H181443   5.449   6.451   5.198 -0.1242  0.0678 -1.5889
19984TIP3    H281444   5.575   6.385   5.148 -0.0392 -0.6985 -0.3825
19985TIP3   OH281445   4.279   4.833  16.093  0.0483  0.1225 -0.4128
19985TIP3    H181446   4.241   4.845  16.180  0.6142  0.9033 -0.2641
19985TIP3    H281447   4.218   4.878  16.034 -1.2572 -1.8750 -0.6595
19986TIP3   OH281448   0.419   5.461   2.057  0.2758  0.0612  0.1213
19986TIP3    H181449   0.416   5.493   2.147  1.9850  0.8492 -0.0651
19986TIP3    H281450   0.329   5.467   2.025 -0.0972  1.0591  1.3360
19987TIP3   OH281451   1.947   0.394   3.028  0.0742 -0.2542  0.0014
19987TIP3    H181452   1.911   0.305   3.022 -0.1734 -0.0331 -2.8169
19987TIP3    H281453   2.020   0.386   3.089 -0.3284 -2.2519  0.2883
19988TIP3   OH281454   2.055   2.552   4.978 -0.5705 -0.3757  0.0008
19988TIP3    H181455   2.004   2.518   4.904 -1.2336 -0.1943  0.3615
19988TIP3    H281456   2.145   2.531   4.957 -0.8977 -1.8340 -0.0718
19989TIP3   OH281457   0.136   5.058  10.555 -0.5660  0.1300  0.0916
19989TIP3    H181458   0.057   5.034  10.507 -0.2471 -0.6403 -0.0707
19989TIP3    H281459   0.159   5.145  10.522 -1.2090  0.2540 -0.0346
19990TIP3   OH281460   3.877   3.814   0.707  0.6572 -0.2342  0.0270
19990TIP3    H181461   3.911   3.800   0.795 -1.6307 -0.9465  0.8894
19990TIP3    H281462   3.930   3.886   0.671  0.5740  1.2434  2.6413
19991TIP3   OH281463   2.587   6.501  16.788 -0.0015  0.7077  0.0877
19991TIP3    H181464   2.682   6.489  16.793 -0.3582 -3.2875  1.3137
19991TIP3    H281465   2.555   6.469  16.872 -2.4955  1.2375 -0.5802
19992TIP3   OH281466   0.299   3.244   5.293  0.4927  0.3210  0.1233
19992TIP3    H181467   0.375   3.259   5.348  1.3856  0.6883 -1.1424
19992TIP3    H281468   0.321   3.288   5.210 -1.2983  0.8654 -0.1109
19993TIP3   OH281469   5.668   2.278   5.756 -0.3021  0.3530  0.1562
19993TIP3    H181470   5.623   2.316   5.681  1.7715 -0.3409 -1.5403
19993TIP3    H281471   5.700   2.194   5.724 -0.1119 -0.3781  2.1296
19994TIP3   OH281472   6.717   6.660  15.330 -0.5490  0.1524 -0.5512
19994TIP3    H181473   6.698   6.579  15.377 -3.4011  1.1414  0.2113
19994TIP3    H281474   6.638   6.676  15.278 -1.5889  4.0562  1.8293
19995TIP3   OH281475   2.836   4.629  15.849 -0.5199 -0.3662  0.4212
19995TIP3    H181476   2.891   4.674  15.913 -1.2265  0.4801  0.4520
19995TIP3    H281477   2.836   4.686  15.772 -0.6018 -0.8119  0.0860
19996TIP3   OH281478   6.383   1.399  11.257  0.0011 -0.2465 -0.1843
19996TIP3    H181479   6.472   1.414  11.227  0.2513 -1.2856  0.0137
19996TIP3    H281480   6.350   1.328  11.201 -1.1288  0.9318 -1.0720
19997TIP3   OH281481   5.037   1.879   0.524  0.5760 -0.5346 -0.1222
19997TIP3    H181482   5.028   1.784   0.531  1.2698 -0.5205  1.2170
19997TIP3    H281483   4.949   1.913   0.539 -0.6926 -1.0524 -4.7433
19998TIP3   OH281484   3.288   4.013  11.002  0.3351 -0.1615 -0.0066
19998TIP3    H181485   3.200   4.006  11.038 -0.0560 -1.4233 -1.1307
19998TIP3    H281486   3.277   3.997  10.908  1.2447  3.4309 -0.8643
19999TIP3   OH281487   4.593   3.466   0.594 -0.4615  0.1143 -0.0121
19999TIP3    H181488   4.526   3.404   0.568  0.7773 -0.5789 -1.7866
19999TIP3    H281489   4.562   3.551   0.562 -0.6102 -0.1635 -0.6116
20000TIP3   OH281490   4.979   4.210   1.291 -0.3594  0.0363  0.0033
20000TIP3    H181491   4.933   4.202   1.375  0.7930  0.0263  0.6603
20000TIP3    H281492   5.071   4.197   1.313  0.0157  0.5043 -1.1975
20001TIP3   OH281493   3.392   6.266  12.571 -0.1062  0.0539  0.2507
20001TIP3    H181494   3.381   6.280  12.665 -0.5646 -1.0244  0.3710
20001TIP3    H281495   3.451   6.191  12.564  0.3805  0.4704 -0.3425
20002TIP3   OH281496   5.970   6.423   6.382  0.5185  0.1929  0.3465
20002TIP3    H181497   5.967   6.505   6.430  0.9678  0.4070  0.0174
20002TIP3    H281498   6.054   6.383   6.406  1.0838  0.6455 -0.7966
20003TIP3   OH281499   2.501   5.184  16.766  0.3183 -0.1443 -0.3684
20003TIP3    H181500   2.551   5.233  16.701 -2.2877  0.6355 -1.9052
20003TIP3    H281501   2.511   5.234  16.847  0.9672  0.6882 -0.9514
20004TIP3   OH281502   3.802   1.677   2.333 -0.2229 -0.0024 -0.0430
20004TIP3    H181503   3.806   1.772   2.329  0.3724 -0.0544 -1.2361
20004TIP3    H281504   3.876   1.651   2.388  1.1345  0.1427 -1.7213
20005TIP3   OH281505   2.450   4.212  11.694  0.1104  0.3329  0.1230
20005TIP3    H181506   2.485   4.161  11.767 -0.0421 -0.3817 -0.2972
20005TIP3    H281507   2.475   4.163  11.616 -0.3810  0.6952 -0.2725
20006TIP3   OH281508   6.188   6.277   3.019 -0.1284  0.0472  0.3498
20006TIP3    H181509   6.283   6.283   3.010 -0.2046  0.0557 -0.5380
20006TIP3    H281510   6.166   6.343   3.085  0.3564  0.9599 -0.3721
20007TIP3   OH281511   0.549   5.572   1.219 -0.0855  0.3904  0.1052
20007TIP3    H181512   0.585   5.554   1.306 -1.7536 -2.9936  0.3011
20007TIP3    H281513   0.617   5.542   1.158 -0.9596 -2.6410  0.4338
20008TIP3   OH281514   0.076   0.418   3.852 -0.1481  0.0532 -0.3605
20008TIP3    H181515   0.076   0.364   3.773 -0.8533 -1.8097  0.8401
20008TIP3    H281516   0.168   0.425   3.877  0.2552  1.9414 -2.1095
20009TIP3   OH281517   6.541   0.500   0.199  0.4261 -0.1361  0.7164
20009TIP3    H181518   6.449   0.479   0.214 -0.2887  2.2035 -0.0029
20009TIP3    H281519   6.540   0.585   0.155  2.8477 -1.3463 -1.9864
20010TIP3   OH281520   2.567   3.538  13.021 -0.2014 -0.3545 -0.1770
20010TIP3    H181521   2.480   3.573  13.040 -0.3958 -0.1845 -1.3273
20010TIP3    H281522   2.627   3.608  13.049 -0.5400  0.4740 -1.4365
20011TIP3   OH281523   1.778   2.376  12.798  0.4175  0.6017 -0.3792
20011TIP3    H181524   1.862   2.375  12.753  1.2148 -2.1331  0.9840
20011TIP3    H281525   1.714   2.386  12.727  1.7789  1.5267 -1.5586
20012TIP3   OH281526   0.516   6.233  15.187  0.4696  0.2741 -0.2817
20012TIP3    H181527   0.575   6.263  15.257  1.7016 -0.7683 -0.8310
20012TIP3    H281528   0.438   6.287  15.197  0.3410 -0.2707  2.3038
20013TIP3   OH281529   3.097   5.950   5.412  0.3158  0.3700  0.6002
20013TIP3    H181530   3.143   5.961   5.494 -0.1680  1.3615  0.7464
20013TIP3    H281531   3.088   5.855   5.402 -0.3161  0.2489  2.0841
20014TIP3   OH281532   0.856   6.380   0.002 -0.5649 -0.6880 -0.1819
20014TIP3    H181533   0.895   6.339  -0.075 -0.9391  0.5057 -1.0401
20014TIP3    H281534   0.833   6.468  -0.027  1.4792  0.6699  1.9430
20015TIP3   OH281535   0.300   3.679   2.319 -0.7285 -0.4205 -0.0064
20015TIP3    H181536   0.290   3.774   2.322  0.7249 -0.2060 -0.8445
20015TIP3    H281537   0.238   3.646   2.383  0.9860  1.2624  2.7486
20016TIP3   OH281538   6.146   5.391   6.108 -0.3649  0.0674 -0.0926
20016TIP3    H181539   6.115   5.422   6.194  0.3929 -2.0573  1.0043
20016TIP3    H281540   6.066   5.373   6.059 -0.8866 -1.3683  1.2046
20017TIP3   OH281541   0.599   2.849  16.069  0.1333  0.0419  0.0447
20017TIP3    H181542   0.600   2.880  16.159  2.1371  1.3676 -0.3735
20017TIP3    H281543   0.614   2.754  16.076 -2.2553 -0.3307  1.1576
20018TIP3   OH281544   0.337   4.771  14.472 -0.4406 -0.3336 -0.3395
20018TIP3    H181545   0.307   4.684  14.500  0.1403 -0.5926 -0.5205
20018TIP3    H281546   0.383   4.755  14.390  1.0002 -0.0710  0.3922
20019TIP3   OH281547   3.326   5.579  13.629  0.5015 -0.3284  0.2946
20019TIP3    H181548   3.299   5.533  13.708 -0.5247 -0.9488 -0.3895
20019TIP3    H281549   3.421   5.580  13.633  0.4886 -1.1047  1.1099
20020TIP3   OH281550   2.996   1.444  12.059  0.0542  0.8489  0.0274
20020TIP3    H181551   2.995   1.399  12.144  1.4357  2.1641  0.7845
20020TIP3    H281552   2.947   1.386  12.001  1.9959 -1.7911  0.8466
20021TIP3   OH281553   3.260   1.070   3.545 -0.1649 -0.4192 -0.3770
20021TIP3    H181554   3.218   0.984   3.550 -0.9415 -0.0415 -0.2402
20021TIP3    H281555   3.296   1.084   3.633  0.2565 -0.7450 -0.4942
20022TIP3   OH281556   2.868   2.403   6.668  0.4113  0.6940  0.2650
20022TIP3    H181557   2.838   2.487   6.701  1.8050  0.2517  2.9527
20022TIP3    H281558   2.959   2.396   6.698  1.2193 -0.6334 -2.2143
20023TIP3   OH281559   3.112   2.563  12.021  0.7759  0.3277  0.4028
20023TIP3    H181560   3.021   2.592  12.033  0.7779  1.0338 -1.1288
20023TIP3    H281561   3.164   2.641  12.038  1.0004  0.3100 -0.1910
20024TIP3   OH281562   5.359   2.090  13.489 -0.6745 -0.5775 -0.2444
20024TIP3    H181563   5.378   2.016  13.431 -0.2355  0.3372 -1.2989
20024TIP3    H281564   5.388   2.167  13.440 -1.2689  0.3133  0.7690
20025TIP3   OH281565   5.005   6.155  13.617  0.2085  0.1080  0.1538
20025TIP3    H181566   5.012   6.154  13.713  0.2395  0.4718  0.1533
20025TIP3    H281567   5.025   6.245  13.592  0.8844 -0.1386 -0.2415
20026TIP3   OH281568   2.078   0.453   2.612  0.1368 -0.1994 -0.0563
20026TIP3    H181569   2.105   0.501   2.690  1.6435  1.0631 -1.2921
20026TIP3    H281570   2.111   0.364   2.627 -0.8111 -0.3600  1.3162
20027TIP3   OH281571   2.403   4.990  13.641  0.3093  0.6424 -0.5222
20027TIP3    H181572   2.480   4.998  13.698  0.3700 -2.4944  0.0251
20027TIP3    H281573   2.328   4.994  13.701  0.1312  1.6441 -0.7983
20028TIP3   OH281574   3.060   2.709   0.808 -0.5990  0.2148 -0.3901
20028TIP3    H181575   2.993   2.776   0.795 -1.7580 -0.4740  1.7213
20028TIP3    H281576   3.030   2.658   0.883  0.3401 -2.5842 -1.7699
20029TIP3   OH281577   2.984   4.931  12.358 -0.0466  0.1355  0.8058
20029TIP3    H181578   3.069   4.890  12.346 -0.0925 -0.0328  1.0601
20029TIP3    H281579   2.938   4.917  12.274 -0.4436 -1.2210  1.2238
20030TIP3   OH281580   0.499   6.691   3.094  0.1014 -0.4680  0.4632
20030TIP3    H181581   0.571   6.709   3.033  0.6621 -2.6897  0.3982
20030TIP3    H281582   0.420   6.699   3.041  0.2813  1.5370  0.4264
20031TIP3   OH281583   5.572   1.904   1.318 -0.3128  0.1286  0.2974
20031TIP3    H181584   5.516   1.875   1.390 -2.4425  0.0891 -1.2975
20031TIP3    H281585   5.603   1.824   1.277 -1.2799  0.1154 -0.4309
20032TIP3   OH281586   1.634   4.741  13.443 -0.4625 -0.7312  0.0655
20032TIP3    H181587   1.629   4.834  13.465 -0.7424 -1.5163  3.9497
20032TIP3    H281588   1.727   4.721  13.443 -0.3864 -0.4724 -1.0225
20033TIP3   OH281589   5.974   5.165  15.579  0.8709 -0.4256  0.1189
20033TIP3    H181590   5.918   5.123  15.645  1.3768 -2.7791 -0.8350
20033TIP3    H281591   5.913   5.213  15.524  0.4385  1.6348  2.2193
20034TIP3   OH281592   1.338   2.494   1.643  0.6475 -0.2758 -0.6943
20034TIP3    H181593   1.338   2.435   1.719  2.5197 -1.7820 -1.7665
20034TIP3    H281594   1.421   2.475   1.599  0.8773  2.5315 -1.6306
20035TIP3   OH281595   1.854   2.086  14.102  0.4277 -0.1532 -0.1791
20035TIP3    H181596   1.841   2.152  14.171 -2.6247  1.5235 -2.1569
20035TIP3    H281597   1.856   2.137  14.021 -0.8521 -2.4003 -1.7044
20036TIP3   OH281598   4.748   6.405  13.046 -0.5146  0.2567 -0.3429
20036TIP3    H181599   4.676   6.345  13.067 -1.5386  1.1877 -1.0662
20036TIP3    H281600   4.827   6.358  13.074 -1.4491 -0.4383  1.2658
20037TIP3   OH281601   1.664   5.441  10.707  0.0971 -0.3124 -0.1983
20037TIP3    H181602   1.692   5.479  10.790  0.0883 -2.9047  1.0939
20037TIP3    H281603   1.578   5.404  10.725 -0.0169 -0.7022 -1.4437
20038TIP3   OH281604   6.598   6.760  11.741 -0.2128 -0.1844 -0.4554
20038TIP3    H181605   6.689   6.766  11.714 -0.7949 -0.9784 -2.7780
20038TIP3    H281606   6.579   6.666  11.745 -0.5510 -0.0874  1.5685
20039TIP3   OH281607   5.603   4.792  15.160  0.3442  0.1596  0.0678
20039TIP3    H181608   5.508   4.802  15.165  0.4849  1.7145  0.2774
20039TIP3    H281609   5.619   4.700  15.178 -1.2198 -0.4510 -1.3927
20040TIP3   OH281610   0.351   5.544  10.814 -0.1858  0.3570 -0.4438
20040TIP3    H181611   0.323   5.531  10.723 -1.0651  0.4146 -0.1920
20040TIP3    H281612   0.416   5.614  10.809  0.8759 -0.6595 -1.2002
20041TIP3   OH281613   6.777   1.727   5.092  0.7166 -0.3853  0.1967
20041TIP3    H181614   6.813   1.800   5.142 -1.5131 -0.6893  2.4922
20041TIP3    H281615   6.706   1.766   5.041  0.4281 -0.6963  0.3530
20042TIP3   OH281616   3.824   6.125  11.125 -0.4221  0.0245  0.3818
20042TIP3    H181617   3.847   6.073  11.048  1.0856  0.7391  0.3188
20042TIP3    H281618   3.818   6.062  11.196 -0.5931 -0.4850 -0.0833
20043TIP3   OH281619   2.804   4.242   6.536  0.0290  0.0336 -0.6627
20043TIP3    H181620   2.716   4.221   6.568 -0.2496 -1.1043 -2.0783
20043TIP3    H281621   2.823   4.174   6.471  1.1376  1.4184 -1.8667
20044TIP3   OH281622   1.556   1.394  14.880  0.0760 -0.0369  0.4834
20044TIP3    H181623   1.500   1.471  14.891  2.4913  2.0875 -1.1957
20044TIP3    H281624   1.552   1.375  14.787 -0.7011 -2.2327  0.9061
20045TIP3   OH281625   3.581   6.191  17.313  0.0242  0.0233 -0.8430
20045TIP3    H181626   3.599   6.122  17.377  0.2098  1.8984  1.2517
20045TIP3    H281627   3.488   6.208  17.322 -0.1458 -0.3374 -1.8012
20046TIP3   OH281628   0.475   3.837   1.088 -0.1267  0.4507  0.0160
20046TIP3    H181629   0.389   3.852   1.047  0.4779  0.5047 -1.2910
20046TIP3    H281630   0.483   3.742   1.094 -0.2416  0.4433  0.0448
20047TIP3   OH281631   0.014   3.011   6.273  0.3338  0.5250  0.4350
20047TIP3    H181632  -0.003   3.099   6.304 -0.8125 -0.1217  1.7141
20047TIP3    H281633   0.054   2.966   6.348  0.8004 -0.0903 -0.1651
20048TIP3   OH281634   6.465   6.271  12.361 -0.5288  0.5053  0.5526
20048TIP3    H181635   6.410   6.270  12.283 -0.6531 -0.3688  0.6516
20048TIP3    H281636   6.530   6.340  12.343  0.7753 -1.0873 -1.2546
20049TIP3   OH281637   6.707   0.356   6.154  0.4734  0.2502 -0.3565
20049TIP3    H181638   6.615   0.341   6.131  0.1509  0.4442  0.7660
20049TIP3    H281639   6.704   0.398   6.239  1.5964  0.7971 -0.5696
20050TIP3   OH281640   2.587   5.221  11.795 -0.2621 -0.0629 -0.3145
20050TIP3    H181641   2.507   5.227  11.848 -1.8314  0.3391 -2.5757
20050TIP3    H281642   2.633   5.303  11.813 -1.2802  0.5369 -0.3498
20051TIP3   OH281643   1.471   3.977   0.200 -0.4297 -0.1710  0.0075
20051TIP3    H181644   1.453   3.885   0.221 -0.4083 -0.0116  0.7412
20051TIP3    H281645   1.500   3.975   0.109  1.5050 -1.1531  0.5897
20052TIP3   OH281646   6.714   0.104  13.792 -0.1019 -0.1018  0.0776
20052TIP3    H181647   6.770   0.152  13.730 -0.1996  0.9909  0.8279
20052TIP3    H281648   6.775   0.045  13.837 -0.0864 -1.2207 -1.3033
20053TIP3   OH281649   1.883   3.823  12.148 -0.0285  0.5042  0.0895
20053TIP3    H181650   1.969   3.783  12.143  0.2190  0.6854  2.1151
20053TIP3    H281651   1.833   3.781  12.078  1.9598  1.1971 -1.8788
20054TIP3   OH281652   4.951   5.666   0.326  0.1023 -0.6698 -0.4261
20054TIP3    H181653   4.916   5.680   0.414  2.8310 -0.4821  0.7076
20054TIP3    H281654   4.902   5.728   0.271 -0.2591  0.6911  1.3345
20055TIP3   OH281655   5.188   4.738  15.973 -0.0170  0.6198  0.0890
20055TIP3    H181656   5.165   4.712  15.883  1.1206  3.0816 -1.0058
20055TIP3    H281657   5.105   4.764  16.012 -0.4807 -0.1322 -0.3744
20056TIP3   OH281658   3.603   5.735  12.066  0.7840 -0.2287 -0.1002
20056TIP3    H181659   3.519   5.781  12.072  0.1407 -1.5161  1.5514
20056TIP3    H281660   3.586   5.660  12.009  1.0222 -0.0873 -0.3603
20057TIP3   OH281661   6.124   6.748   5.402 -0.1829  0.1410  0.4955
20057TIP3    H181662   6.117   6.841   5.424  0.5769 -0.0920  1.8549
20057TIP3    H281663   6.176   6.746   5.322 -0.5611  0.9028  0.2206
20058TIP3   OH281664   1.427   1.615  14.928 -0.2429  0.4705 -0.7991
20058TIP3    H181665   1.343   1.611  14.974 -0.1640 -0.8417 -0.7482
20058TIP3    H281666   1.463   1.700  14.953 -0.5494  0.1284  0.9738
20059TIP3   OH281667   3.658   6.536  16.103  0.1295 -0.1972 -0.5998
20059TIP3    H181668   3.567   6.560  16.086  0.4173  0.9674 -0.5912
20059TIP3    H281669   3.709   6.595  16.048  0.9480  0.7057  1.0560
20060TIP3   OH281670   0.696   5.310  17.332  0.0944 -0.4704 -0.8038
20060TIP3    H181671   0.651   5.339  17.411 -1.7098 -0.6393 -1.7027
20060TIP3    H281672   0.750   5.384  17.305  0.3863 -0.2590  0.3156
20061TIP3   OH281673   2.292   5.242   4.934  0.2737 -0.3245  0.2189
20061TIP3    H181674   2.234   5.317   4.946  1.4567  0.5758  0.4836
20061TIP3    H281675   2.288   5.224   4.840  0.7416  0.7169 -0.0165
20062TIP3   OH281676   6.650   0.342   1.821 -0.2186  0.2492 -0.4086
20062TIP3    H181677   6.604   0.423   1.799  1.6501  1.2367 -0.8026
20062TIP3    H281678   6.741   0.358   1.799  0.2942 -1.8044 -0.0291
20063TIP3   OH281679   4.503   0.725  12.227  0.3744  0.0169  0.2429
20063TIP3    H181680   4.498   0.740  12.133  0.2139 -0.2309  0.2126
20063TIP3    H281681   4.587   0.681  12.240 -0.1191 -1.0029  0.0736
20064TIP3   OH281682   1.841   3.055   1.488 -0.0918 -0.0734  0.0407
20064TIP3    H181683   1.826   3.148   1.504 -0.6764 -0.1460 -0.0787
20064TIP3    H281684   1.883   3.052   1.402 -0.2824  0.0628 -0.0568
20065TIP3   OH281685   2.141   5.797  13.632 -0.4386  0.3714  0.0284
20065TIP3    H181686   2.075   5.851  13.675  0.9085  0.6852  1.8061
20065TIP3    H281687   2.223   5.843  13.645  0.2928 -0.4398 -1.3884
20066TIP3   OH281688   1.933   6.348  15.629  0.4575 -0.2744 -0.0545
20066TIP3    H181689   1.898   6.368  15.542 -1.3464 -0.1869  0.6510
20066TIP3    H281690   1.880   6.274  15.660  2.5397 -1.8114  0.1146
20067TIP3   OH281691   4.489   5.333   6.653 -0.2860 -0.2714 -0.0743
20067TIP3    H181692   4.581   5.350   6.630 -0.2993  0.6462  0.5024
20067TIP3    H281693   4.439   5.396   6.602 -0.7406 -1.6937 -1.4690
20068TIP3   OH281694   5.146   2.705  13.474 -0.0454  0.2374 -0.0886
20068TIP3    H181695   5.059   2.725  13.442  0.3058  2.4031  0.1957
20068TIP3    H281696   5.167   2.620  13.435 -1.5901  0.4742 -1.5162
20069TIP3   OH281697   4.882   6.191   2.600  0.0087 -0.5988  0.1423
20069TIP3    H181698   4.841   6.256   2.543 -1.2340 -0.7432  0.8465
20069TIP3    H281699   4.945   6.147   2.543 -1.2556 -0.8152 -1.1706
20070TIP3   OH281700   1.629   0.691  14.872 -0.3718  0.1837  0.1609
20070TIP3    H181701   1.600   0.648  14.952 -1.0546  0.4982  0.0898
20070TIP3    H281702   1.657   0.778  14.900 -0.0363  0.0824  0.1437
20071TIP3   OH281703   1.085   1.486   1.530 -0.1128  0.5180  0.0185
20071TIP3    H181704   1.008   1.474   1.475 -0.3635 -2.3680  0.8337
20071TIP3    H281705   1.141   1.545   1.480 -0.2771 -1.9203 -3.4492
20072TIP3   OH281706   4.018   5.981  11.515 -0.9258  0.6199 -0.5992
20072TIP3    H181707   3.997   6.070  11.488 -3.2525 -0.0191 -1.0660
20072TIP3    H281708   3.955   5.925  11.469  0.0460 -1.2260  0.1745
20073TIP3   OH281709   5.497   3.761   4.222 -0.5747 -0.5802  0.0042
20073TIP3    H181710   5.588   3.787   4.240 -0.3673 -0.6897 -0.8441
20073TIP3    H281711   5.473   3.708   4.297 -0.5942  1.0188  1.1827
20074TIP3   OH281712   5.990   0.624   4.319 -0.1875  0.4862  0.3105
20074TIP3    H181713   5.994   0.648   4.412  0.3918 -0.5315  0.5670
20074TIP3    H281714   6.069   0.573   4.305 -0.7976 -0.2511 -0.4906
20075TIP3   OH281715   4.819   0.736  16.622  0.0329 -0.1955  0.0115
20075TIP3    H181716   4.773   0.801  16.675 -0.8408 -1.2941  0.6484
20075TIP3    H281717   4.780   0.744  16.535 -1.0855 -0.8283  0.4430
20076TIP3   OH281718   6.288   3.405  16.147 -0.0600 -0.6011 -0.4376
20076TIP3    H181719   6.237   3.436  16.221  0.6415 -0.5354  0.0312
20076TIP3    H281720   6.277   3.472  16.080  0.0164 -0.2161 -0.0696
20077TIP3   OH281721   5.554   2.417  16.179  0.0677 -0.1764  0.1136
20077TIP3    H181722   5.624   2.419  16.244 -0.5021  2.3782  0.7703
20077TIP3    H281723   5.575   2.488  16.119 -1.3525 -0.0846 -0.3181
20078TIP3   OH281724   0.723   2.902   3.046 -1.0224  0.0281  0.0008
20078TIP3    H181725   0.748   2.950   2.967  0.0562  0.3320  0.5057
20078TIP3    H281726   0.783   2.827   3.048  0.8885  1.5094  1.9675
20079TIP3   OH281727   4.600   5.595  14.259 -0.1999 -0.8354 -0.6691
20079TIP3    H181728   4.657   5.615  14.185 -1.1139 -0.7250 -1.3708
20079TIP3    H281729   4.659   5.587  14.334  0.6397  0.1031 -1.2068
20080TIP3   OH281730   1.942   2.766   0.628 -0.1291 -0.2403  0.4328
20080TIP3    H181731   1.957   2.675   0.652  1.3931 -0.5206 -1.3115
20080TIP3    H281732   1.846   2.775   0.625 -0.3063 -1.8409  0.4515
20081TIP3   OH281733   5.595   3.418   1.219 -0.1014 -0.1292 -0.3236
20081TIP3    H181734   5.569   3.331   1.186 -1.6223  0.2727 -0.2632
20081TIP3    H281735   5.529   3.439   1.285 -0.6539  1.7125 -1.3969
20082TIP3   OH281736   2.051   0.803   1.350  0.5562  0.5993  0.4725
20082TIP3    H181737   2.080   0.753   1.274  1.9333  1.4322  0.4060
20082TIP3    H281738   1.963   0.834   1.327  0.5990  0.0965 -0.4004
20083TIP3   OH281739   0.526   1.479  13.458 -0.2256 -0.6788 -0.0554
20083TIP3    H181740   0.462   1.485  13.528 -0.2346  3.3642 -0.1764
20083TIP3    H281741   0.491   1.536  13.389  2.4332  0.0242 -0.9544
20084TIP3   OH281742   1.550   4.934  12.293  0.2455  0.5953 -0.2896
20084TIP3    H181743   1.555   5.017  12.246 -0.2778 -0.4685 -2.3584
20084TIP3    H281744   1.458   4.909  12.287  0.5260 -0.4765 -0.3824
20085TIP3   OH281745   1.514   4.989  15.433 -0.0323  0.0781 -0.0330
20085TIP3    H181746   1.531   4.962  15.523  0.4877  1.5635  0.3523
20085TIP3    H281747   1.582   4.946  15.381  0.2174 -0.0751  0.4168
20086TIP3   OH281748   0.637   2.711   3.420  0.5113  0.2006 -0.3264
20086TIP3    H181749   0.613   2.685   3.331 -0.8095  0.2621 -0.0071
20086TIP3    H281750   0.605   2.801   3.428  1.2907  0.4649 -0.0242
20087TIP3   OH281751   5.215   2.944  12.321  0.1553 -0.2177  0.1190
20087TIP3    H181752   5.177   2.860  12.295 -1.8250  0.9584 -0.9449
20087TIP3    H281753   5.294   2.952  12.267  0.3082 -1.3055  0.1442
20088TIP3   OH281754   1.148   1.253   3.534 -0.3118  0.5006 -0.6007
20088TIP3    H181755   1.244   1.255   3.530 -0.3337  2.3990 -1.4060
20088TIP3    H281756   1.120   1.235   3.444 -0.7464 -1.5594 -0.1011
20089TIP3   OH281757   4.001   1.244  13.932  0.1078 -0.3389 -0.6615
20089TIP3    H181758   3.964   1.273  14.015  1.9013  2.4753 -0.7375
20089TIP3    H281759   4.018   1.324  13.883  4.0233 -1.4909 -1.5735
20090TIP3   OH281760   5.044   1.314   2.594  0.4807  0.5473  0.3105
20090TIP3    H181761   5.123   1.367   2.577  1.8811 -1.2722  0.8142
20090TIP3    H281762   5.029   1.269   2.511 -1.5668  2.6663 -0.5882
20091TIP3   OH281763   2.281   3.234  10.765 -1.0063 -0.1836  0.0657
20091TIP3    H181764   2.227   3.227  10.686  0.6642 -0.7847 -1.0711
20091TIP3    H281765   2.348   3.166  10.755 -1.0816 -0.6828  2.3081
20092TIP3   OH281766   5.294   2.727  12.002 -0.2606  0.1879 -0.1334
20092TIP3    H181767   5.373   2.771  12.033 -1.0767  0.1035  2.2117
20092TIP3    H281768   5.264   2.781  11.928  1.3997  0.7867 -0.4067
20093TIP3   OH281769   5.492   4.182  14.950  0.5030 -0.1361  0.5198
20093TIP3    H181770   5.451   4.248  14.893  0.8541 -0.9213 -0.6788
20093TIP3    H281771   5.585   4.184  14.926  1.2239  1.3828  2.9703
20094TIP3   OH281772   5.210   5.245   4.101  0.0427 -0.1644 -0.0700
20094TIP3    H181773   5.235   5.155   4.119 -2.6888 -1.9077 -3.6030
20094TIP3    H281774   5.224   5.292   4.183  2.0842 -3.6412  1.7543
20095TIP3   OH281775   5.062   4.196  13.928 -0.6776  0.0434  0.2159
20095TIP3    H181776   5.087   4.208  13.836 -0.5854 -2.9520 -0.2485
20095TIP3    H281777   4.966   4.203  13.928 -0.7304 -0.6211 -0.2506
20096TIP3   OH281778   4.827   3.237   3.220  0.4238  0.0173  0.3971
20096TIP3    H181779   4.893   3.267   3.282  1.0736  0.0594 -0.2963
20096TIP3    H281780   4.877   3.208   3.143 -0.3131 -0.7284  0.1724
20097TIP3   OH281781   6.595   2.312  16.129 -0.4806  0.4296 -0.0437
20097TIP3    H181782   6.605   2.245  16.197 -0.2371  0.4970 -0.0101
20097TIP3    H281783   6.605   2.265  16.047  0.3681  0.5376 -0.0052
20098TIP3   OH281784   2.242   0.841  16.646 -0.1360  0.4807  0.2604
20098TIP3    H181785   2.192   0.921  16.661  0.4897  0.6458  1.5766
20098TIP3    H281786   2.332   0.864  16.670 -0.0085 -0.7036  0.9777
20099TIP3   OH281787   6.526   5.198   0.678 -0.0683  0.5513 -0.0848
20099TIP3    H181788   6.524   5.283   0.723  2.7893  1.0888 -0.7634
20099TIP3    H281789   6.465   5.208   0.605 -0.1717  1.8530  0.1567
20100TIP3   OH281790   6.481   4.153  14.455 -0.4948  0.3965 -0.1556
20100TIP3    H181791   6.451   4.151  14.364  2.7869  0.8430 -1.3860
20100TIP3    H281792   6.437   4.079  14.496 -0.5690 -1.0890 -2.6637
20101TIP3   OH281793   5.945   4.075  11.277 -0.2709 -1.0809  0.1865
20101TIP3    H181794   5.967   4.106  11.189 -1.8507 -3.2464 -1.0723
20101TIP3    H281795   5.876   4.134  11.306  0.8133  0.1513  0.3823
20102TIP3   OH281796   6.751   1.960   3.878 -0.4188 -0.0474  0.6975
20102TIP3    H181797   6.783   2.050   3.863  0.8662 -0.8169 -1.7608
20102TIP3    H281798   6.670   1.955   3.827 -0.8147 -0.1454  1.3195
20103TIP3   OH281799   6.651   4.214  11.261 -0.0196  0.0132  0.0105
20103TIP3    H181800   6.687   4.288  11.310 -0.4030  1.0724 -1.2668
20103TIP3    H281801   6.561   4.207  11.291 -0.5172  1.2167 -1.1209
20104TIP3   OH281802   1.248   6.699  12.221  0.0616  0.3005  0.0576
20104TIP3    H181803   1.318   6.744  12.174 -1.2375  1.6780 -0.6736
20104TIP3    H281804   1.289   6.622  12.259  1.7813  0.6434 -1.0153
20105TIP3   OH281805   1.216   5.191  11.827  0.0356 -0.3471  0.2313
20105TIP3    H181806   1.230   5.186  11.733  1.6826 -0.6361  0.4536
20105TIP3    H281807   1.152   5.262  11.839 -0.1965 -0.3158 -1.0837
20106TIP3   OH281808   3.889   0.224   2.802 -0.1345 -0.8372 -0.1229
20106TIP3    H181809   3.896   0.304   2.854 -2.0738 -0.2311 -0.7059
20106TIP3    H281810   3.969   0.176   2.822  0.0531  0.2048  1.9806
20107TIP3   OH281811   0.365   1.555  12.269 -0.1997 -0.2049  0.0158
20107TIP3    H181812   0.293   1.499  12.298 -0.8455 -1.1026 -2.9217
20107TIP3    H281813   0.441   1.497  12.264 -0.0686 -0.0372  0.0578
20108TIP3   OH281814   2.487   0.689   1.917 -0.3350  0.0441 -0.3160
20108TIP3    H181815   2.494   0.670   1.824  0.0834  1.2594 -0.5416
20108TIP3    H281816   2.545   0.763   1.932  0.1051 -0.5332  1.0416
20109TIP3   OH281817   3.199   6.601  14.103 -0.3688 -0.1824  0.4653
20109TIP3    H181818   3.158   6.515  14.109 -0.2770 -0.2524  0.0742
20109TIP3    H281819   3.230   6.608  14.013  0.3175 -0.0514  0.7065
20110TIP3   OH281820   2.309   6.448  13.505  0.5347  0.4411 -0.1233
20110TIP3    H181821   2.245   6.418  13.439  1.2353 -4.4771  1.0343
20110TIP3    H281822   2.394   6.427  13.467  1.1964  1.4887  0.7190
20111TIP3   OH281823   1.139   0.101  16.303 -0.0861 -0.1424  0.7295
20111TIP3    H181824   1.075   0.031  16.319  0.0412  0.1171  2.4667
20111TIP3    H281825   1.101   0.178  16.345 -0.1743  0.8523 -1.0779
20112TIP3   OH281826   3.726   0.670  16.200 -0.0824 -0.1289 -0.2745
20112TIP3    H181827   3.760   0.759  16.191 -1.2654  0.4657  0.7058
20112TIP3    H281828   3.680   0.653  16.118  0.7747 -0.1330 -0.7595
20113TIP3   OH281829   6.615   0.393   3.941 -0.1850 -0.5667 -0.4528
20113TIP3    H181830   6.699   0.346   3.938  0.6119  0.7511  0.2336
20113TIP3    H281831   6.614   0.445   3.861  0.4722  0.7131  0.3389
20114TIP3   OH281832   3.627   2.974   0.865 -0.0633  0.1388 -0.3246
20114TIP3    H181833   3.542   3.000   0.901  0.9583  2.4435  0.6319
20114TIP3    H281834   3.617   2.980   0.771 -1.2230 -0.6375 -0.2758
20115TIP3   OH281835   6.053   4.869  12.302  0.3150 -0.1770  0.2156
20115TIP3    H181836   6.047   4.793  12.359  0.0755 -0.2797  0.0540
20115TIP3    H281837   6.041   4.835  12.214  0.7150 -0.0238  0.0984
20116TIP3   OH281838   5.829   3.272  14.535  0.3395 -0.3732 -0.9200
20116TIP3    H181839   5.835   3.349  14.478 -0.8890 -1.5982 -2.7944
20116TIP3    H281840   5.833   3.309  14.624 -2.1718  2.1020 -1.6799
20117TIP3   OH281841   1.762   2.253  16.593  0.1155  0.1593  0.4319
20117TIP3    H181842   1.731   2.338  16.560  2.4819  0.8739 -0.1492
20117TIP3    H281843   1.823   2.275  16.663 -2.1250 -1.2652  3.0516
20118TIP3   OH281844   5.918   1.111   1.434 -0.3114  0.1193 -0.3635
20118TIP3    H181845   5.937   1.047   1.365 -1.7378 -1.3141  0.5016
20118TIP3    H281846   5.916   1.195   1.389  0.3332 -0.5862 -1.7767
20119TIP3   OH281847   1.978   5.696   2.043  0.4083 -0.1605 -0.1578
20119TIP3    H181848   2.017   5.781   2.023  0.6053  0.3188  2.0563
20119TIP3    H281849   2.041   5.633   2.008  1.3319  0.6146  0.0442
20120TIP3   OH281850   2.314   1.733  16.050 -0.4900  0.0543 -0.4654
20120TIP3    H181851   2.407   1.724  16.072 -0.5270  0.9335  0.1308
20120TIP3    H281852   2.282   1.802  16.109 -1.3238  0.3491 -1.2288
20121TIP3   OH281853   2.562   6.653  14.092  1.3521  0.2947  0.6430
20121TIP3    H181854   2.477   6.685  14.063  0.9424 -0.2652  1.1997
20121TIP3    H281855   2.608   6.630  14.011  0.3071 -1.0486  0.3972
20122TIP3   OH281856   5.311   1.371  14.434  0.2209 -0.0868  0.5312
20122TIP3    H181857   5.298   1.367  14.339 -2.0560  2.3445  0.6331
20122TIP3    H281858   5.323   1.279  14.461  1.2631 -0.8084 -2.0882
20123TIP3   OH281859   1.588   1.230  15.568 -0.4479 -0.1007  0.2852
20123TIP3    H181860   1.609   1.152  15.516  0.7986 -0.3349  1.0948
20123TIP3    H281861   1.528   1.280  15.513 -2.2322 -2.1733  0.2402
20124TIP3   OH281862   2.981   6.220   0.215 -0.2094 -0.1733 -0.1583
20124TIP3    H181863   3.061   6.214   0.267 -0.7554 -2.2003  0.5422
20124TIP3    H281864   3.011   6.249   0.129  1.2124 -0.3955  0.2319
20125TIP3   OH281865   1.968   2.283  14.599  0.2138 -0.0911 -0.2580
20125TIP3    H181866   1.986   2.347  14.667 -0.0223  0.5168 -0.7554
20125TIP3    H281867   1.925   2.211  14.644  2.0408 -0.6966  0.6112
20126TIP3   OH281868   2.157   2.174  16.201 -0.4177  0.0624  0.0636
20126TIP3    H181869   2.236   2.196  16.251 -1.3241 -0.5010  1.8244
20126TIP3    H281870   2.134   2.255  16.155  0.0936  0.8015  1.0784
20127TIP3   OH281871   4.143   6.636   3.226 -0.4939 -0.3224  0.4646
20127TIP3    H181872   4.084   6.567   3.196  0.2197  0.2547 -2.5803
20127TIP3    H281873   4.229   6.612   3.190  0.6622  0.1514  2.7098
20128TIP3   OH281874   1.914   1.844   1.738  0.1597 -0.3226 -0.6125
20128TIP3    H181875   1.829   1.864   1.699  0.5972 -0.3115 -1.5937
20128TIP3    H281876   1.914   1.889   1.822 -0.4655  0.4067 -0.9942
20129TIP3   OH281877   4.111   3.742   1.100  0.5797 -0.3351 -0.3162
20129TIP3    H181878   4.135   3.801   1.029  0.2094 -1.5345 -1.4665
20129TIP3    H281879   4.042   3.789   1.148  0.5153  0.2905 -1.0092
20130TIP3   OH281880   2.418   0.550  15.092  0.4683  0.4021 -0.3078
20130TIP3    H181881   2.464   0.624  15.053  1.3901 -0.1563 -0.3157
20130TIP3    H281882   2.444   0.475  15.039 -0.7129  0.1061 -0.5048
20131TIP3   OH281883   6.472   2.167  10.569 -0.3537  0.0963  0.6691
20131TIP3    H181884   6.533   2.237  10.546 -0.9251  0.5209  0.4247
20131TIP3    H281885   6.526   2.102  10.615  0.5354 -0.0974 -0.5833
20132TIP3   OH281886   1.316   3.441   0.899  0.2402 -0.3937  0.0065
20132TIP3    H181887   1.385   3.454   0.835  1.4049 -2.1579  0.8443
20132TIP3    H281888   1.356   3.464   0.983 -0.5589 -0.3248  0.3846
20133TIP3   OH281889   4.543   3.198  14.563  0.8622  0.2507  0.0905
20133TIP3    H181890   4.536   3.104  14.550  0.5906  0.3235 -0.2874
20133TIP3    H281891   4.538   3.209  14.658 -0.5986  0.0106  0.0563
20134TIP3   OH281892   2.764   4.951   0.326  0.2573 -0.3574  0.4062
20134TIP3    H181893   2.761   4.948   0.231  1.5228 -0.9898  0.3737
20134TIP3    H281894   2.687   4.901   0.354 -0.1989 -0.0504 -0.2628
20135TIP3   OH281895   2.598   3.329  16.345  0.1094  0.0518  0.1557
20135TIP3    H181896   2.621   3.370  16.429 -0.6156  0.9747 -0.0821
20135TIP3    H281897   2.669   3.353  16.286  0.1087  0.2670  0.2413
20136TIP3   OH281898   0.436   6.252  15.754 -0.2194 -0.1824 -0.7604
20136TIP3    H181899   0.448   6.177  15.697  0.9796 -2.8102  2.5970
20136TIP3    H281900   0.523   6.290  15.762  0.1116 -1.1719  0.8445
20137TIP3   OH281901   2.660   4.427  14.780  0.7343 -0.1586 -0.6469
20137TIP3    H181902   2.669   4.423  14.875 -0.5536  0.2460 -0.4976
20137TIP3    H281903   2.664   4.520  14.759  1.8902 -0.2875 -1.1026
20138TIP3   OH281904   5.749   4.123  12.945  0.1298 -0.1875 -0.0334
20138TIP3    H181905   5.682   4.143  12.879  0.7212  1.2868 -0.2347
20138TIP3    H281906   5.820   4.184  12.925  1.5476 -1.6984  0.1802
20139TIP3   OH281907   0.647   3.885   1.513 -0.0364  0.2190  0.1757
20139TIP3    H181908   0.580   3.824   1.483  0.3830  0.3276 -1.0506
20139TIP3    H281909   0.620   3.910   1.601 -1.4016 -0.0167 -0.1650
20140TIP3   OH281910   2.410   2.299   6.961  0.7436  0.3076  0.1765
20140TIP3    H181911   2.344   2.298   6.891  0.6778 -0.1767  0.2413
20140TIP3    H281912   2.432   2.207   6.974  0.2268  0.3206  1.2800
20141TIP3   OH281913   0.675   6.573  14.906  0.3843  0.2528 -0.0933
20141TIP3    H181914   0.653   6.576  14.813 -2.3789 -0.3889  0.4656
20141TIP3    H281915   0.680   6.479  14.926  2.4272  0.3622  0.1664
20142TIP3   OH281916   0.398   5.704  16.486  0.6169  0.0574  0.2678
20142TIP3    H181917   0.459   5.749  16.544  0.8943 -0.5244  0.4306
20142TIP3    H281918   0.431   5.720  16.398  1.1922 -0.5289  0.3740
20143TIP3   OH281919   3.273   2.205  13.678 -0.2486  0.8158 -0.0101
20143TIP3    H181920   3.313   2.289  13.703 -1.5469  1.6408 -0.6192
20143TIP3    H281921   3.326   2.139  13.723  0.7528  1.9612  0.5449
20144TIP3   OH281922   2.471   3.236   0.351 -0.0804  0.4448 -0.2739
20144TIP3    H181923   2.427   3.175   0.292  0.5142 -0.9601  0.6874
20144TIP3    H281924   2.551   3.191   0.377 -0.4448  0.9134  1.8004
20145TIP3   OH281925   5.093   3.525  14.306  0.2752  0.0370  0.8795
20145TIP3    H181926   5.124   3.435  14.317 -0.5367 -0.5080 -1.0335
20145TIP3    H281927   5.148   3.562  14.238 -0.6103  0.3651  0.3195
20146TIP3   OH281928   0.798   2.420   4.117 -0.5676  0.4000 -0.2484
20146TIP3    H181929   0.853   2.467   4.179 -1.1669  0.2778  0.3965
20146TIP3    H281930   0.845   2.424   4.034  0.7772 -0.3569  0.4494
20147TIP3   OH281931   4.036   5.057   5.451 -0.1239 -0.2049 -0.0672
20147TIP3    H181932   4.033   5.152   5.452  0.2620 -0.1818  0.8550
20147TIP3    H281933   3.994   5.031   5.369  0.1478  0.7685 -0.5230
20148TIP3   OH281934   0.090   5.965  11.568  0.5770 -0.0972 -0.1890
20148TIP3    H181935   0.166   5.976  11.511  0.0105  0.7043 -0.8147
20148TIP3    H281936   0.070   6.054  11.599  1.0247 -0.5353  1.4856
20149TIP3   OH281937   6.230   2.143   1.561 -0.2415 -0.1634 -0.1678
20149TIP3    H181938   6.285   2.181   1.492 -0.7868  0.1604 -0.4337
20149TIP3    H281939   6.163   2.093   1.513 -1.4669  1.1959  0.0467
20150TIP3   OH281940   1.114   2.328   6.594 -0.2064  0.2435 -0.3264
20150TIP3    H181941   1.192   2.364   6.637 -0.7200  1.4264 -0.3703
20150TIP3    H281942   1.088   2.255   6.651  0.1950  0.6296  0.3745
20151TIP3   OH281943   4.644   5.347   1.846  0.8091  0.2490 -0.5100
20151TIP3    H181944   4.669   5.421   1.791  0.7862  0.1991 -0.5863
20151TIP3    H281945   4.556   5.369   1.877  0.1618 -0.4561 -1.7630
20152TIP3   OH281946   4.611   6.102  11.321 -0.2822 -0.3444 -0.6778
20152TIP3    H181947   4.581   6.160  11.251  3.7528  3.3627  0.1853
20152TIP3    H281948   4.575   6.141  11.401 -1.1295 -1.8067 -0.3153
20153TIP3   OH281949   4.992   5.866   5.890 -0.0825 -0.5953 -0.8621
20153TIP3    H181950   5.006   5.772   5.903 -1.4176 -0.5169  1.8727
20153TIP3    H281951   5.077   5.905   5.909 -0.2315 -1.1025  1.0994
20154TIP3   OH281952   4.651   0.193  15.165 -0.5858 -0.2785 -0.0444
20154TIP3    H181953   4.607   0.109  15.176 -1.2916  0.1160  0.1986
20154TIP3    H281954   4.663   0.226  15.254 -0.0114 -0.2748 -0.1216
20155TIP3   OH281955   3.320   2.391   2.105 -0.0176 -0.6018  0.0714
20155TIP3    H181956   3.389   2.355   2.162  0.4328  0.1128 -0.0043
20155TIP3    H281957   3.332   2.486   2.112 -1.2357 -0.4576  0.3410
20156TIP3   OH281958   3.905   4.929  14.952 -0.6792 -0.0278  0.4325
20156TIP3    H181959   3.852   4.939  14.873 -0.5137  2.2819  0.5454
20156TIP3    H281960   3.846   4.893  15.017 -1.4118  0.0756 -0.1636
20157TIP3   OH281961   0.982   2.175  16.937 -0.2604  0.2519 -0.8831
20157TIP3    H181962   1.059   2.180  16.994  0.9207 -0.7214 -2.3279
20157TIP3    H281963   0.911   2.146  16.995  0.8648 -0.5735  0.1323
20158TIP3   OH281964   0.602   3.775   0.352 -0.7867 -0.3129 -0.2976
20158TIP3    H181965   0.560   3.750   0.434 -0.7074 -0.4267 -0.2917
20158TIP3    H281966   0.579   3.706   0.290  0.9199 -1.3796  0.1904
20159TIP3   OH281967   3.257   6.783  15.900  0.0716 -0.3979  0.0071
20159TIP3    H181968   3.176   6.768  15.852 -0.3372  0.4194  0.4154
20159TIP3    H281969   3.325   6.781  15.833 -0.3915 -0.1889 -0.4789
20160TIP3   OH281970   3.664   0.605  16.593  0.5200 -0.2023 -0.3464
20160TIP3    H181971   3.575   0.573  16.605  0.6218 -0.0759  0.9861
20160TIP3    H281972   3.720   0.528  16.604  0.8034  0.3251  3.4670
20161TIP3   OH281973   0.652   6.372   6.121  0.0920  0.2923 -0.0889
20161TIP3    H181974   0.639   6.332   6.207 -1.2405 -0.4402 -0.6181
20161TIP3    H281975   0.748   6.372   6.110  0.2645 -0.0051  1.1896
20162TIP3   OH281976   5.511   5.948   4.772 -0.3784  0.6186 -0.4204
20162TIP3    H181977   5.525   5.953   4.866  0.4162 -0.6074 -0.4566
20162TIP3    H281978   5.457   5.869   4.760  0.5234  0.0731 -1.0682
20163TIP3   OH281979   4.430   1.146  12.624  0.0211 -0.4820  0.2082
20163TIP3    H181980   4.503   1.201  12.652 -0.4538 -0.4921  1.5530
20163TIP3    H281981   4.369   1.149  12.698 -0.7443 -1.5086 -0.3644
20164TIP3   OH281982   3.386   1.150  12.237 -0.4972 -0.2799  0.4587
20164TIP3    H181983   3.378   1.236  12.277 -2.5341 -0.6789  1.0300
20164TIP3    H281984   3.465   1.155  12.184  0.6866  1.1950  2.2558
20165TIP3   OH281985   6.340   0.963   4.116 -0.3276 -0.3322 -0.8098
20165TIP3    H181986   6.245   0.953   4.112 -0.2509 -1.2689 -0.6447
20165TIP3    H281987   6.372   0.933   4.031 -0.1196 -1.0225 -0.5013
20166TIP3   OH281988   4.423   4.508  16.718 -0.2418  0.0199  0.8133
20166TIP3    H181989   4.456   4.519  16.807 -0.6490  0.3792  0.9224
20166TIP3    H281990   4.464   4.427  16.687  0.8130  0.4899  0.9138
20167TIP3   OH281991   5.618   5.938  14.435  0.3784  0.1327 -0.2081
20167TIP3    H181992   5.634   5.905  14.346 -0.6231  1.4672 -0.9086
20167TIP3    H281993   5.612   6.033  14.425 -0.8791  0.2223  1.1210
20168TIP3   OH281994   3.056   3.611  10.598 -0.4356  0.5374 -0.8259
20168TIP3    H181995   2.980   3.572  10.555 -1.3232 -1.3906  2.1451
20168TIP3    H281996   3.027   3.697  10.626 -1.0350  0.3998 -1.0138
20169TIP3   OH281997   3.346   4.925  13.287 -0.0505 -0.1928 -0.6439
20169TIP3    H181998   3.428   4.954  13.327  0.3637 -1.5676 -0.4538
20169TIP3    H281999   3.340   4.832  13.309 -0.6171 -0.6102 -2.4353
20170TIP3   OH282000   4.483   6.272  15.386 -0.6825 -0.1213  0.2702
20170TIP3    H182001   4.532   6.198  15.351 -0.5610  0.2290 -0.3026
20170TIP3    H282002   4.545   6.319  15.441 -0.5272  0.0055 -0.0093
20171TIP3   OH282003   3.701   3.481  11.155 -0.2107  0.8201 -0.1071
20171TIP3    H182004   3.661   3.419  11.217  1.7301 -1.2376 -0.7844
20171TIP3    H282005   3.646   3.559  11.160 -2.5568 -0.8019  1.0971
20172TIP3   OH282006   2.801   2.235   4.083  0.3468 -0.8189 -0.0583
20172TIP3    H182007   2.878   2.259   4.134  0.0287 -0.5843  0.3149
20172TIP3    H282008   2.801   2.295   4.009  1.0333 -1.4197 -0.5586
20173TIP3   OH282009   2.951   3.170  16.069 -0.2204 -0.2684  0.3039
20173TIP3    H182010   2.924   3.114  15.996 -0.7063 -1.1393  1.1314
20173TIP3    H282011   2.874   3.223  16.089 -0.2932 -0.4820  0.5926
20174TIP3   OH282012   0.281   1.293   5.440 -0.1208 -0.0803  0.0163
20174TIP3    H182013   0.342   1.352   5.397  1.4617  0.5611  2.8953
20174TIP3    H282014   0.200   1.343   5.448 -0.6364 -0.3909 -2.4758
20175TIP3   OH282015   3.828   2.953  15.457 -0.3354  0.1560 -0.3490
20175TIP3    H182016   3.780   2.920  15.533 -0.4240 -0.8178 -0.8099
20175TIP3    H282017   3.863   3.037  15.485  0.9576 -0.8734  1.3125
20176TIP3   OH282018   4.781   2.387   0.948 -0.2227 -0.8445  0.3513
20176TIP3    H182019   4.848   2.438   0.994 -1.9639  1.6036  0.3607
20176TIP3    H282020   4.831   2.332   0.887  1.8002  2.2220 -1.0143
20177TIP3   OH282021   2.430   2.185  14.930  0.0632 -0.2263 -0.0929
20177TIP3    H182022   2.487   2.107  14.932  2.8874  1.6886  1.9687
20177TIP3    H282023   2.473   2.245  14.870 -0.6818  0.6928  0.2649
20178TIP3   OH282024   6.320   0.648  12.456 -0.1160  0.4236 -0.3387
20178TIP3    H182025   6.228   0.658  12.481  0.1766  1.3620  0.4289
20178TIP3    H282026   6.368   0.672  12.535  0.7903 -0.0426 -0.7465
20179TIP3   OH282027   0.572   5.641   3.895  0.2168  0.3420 -0.4262
20179TIP3    H182028   0.532   5.716   3.852 -1.0670 -0.5181 -0.8017
20179TIP3    H282029   0.629   5.602   3.829 -2.9526 -1.9149 -2.0979
20180TIP3   OH282030   3.410   5.927  15.236 -0.0115 -0.2510  0.4482
20180TIP3    H182031   3.388   5.977  15.157  1.7304  0.0559  0.1131
20180TIP3    H282032   3.360   5.968  15.306 -0.0318  0.7825 -0.1598
20181TIP3   OH282033   3.427   2.617  12.904  0.3764 -0.1033  0.0997
20181TIP3    H182034   3.414   2.529  12.940 -0.7393 -0.3422 -0.8121
20181TIP3    H282035   3.379   2.674  12.964  1.2168 -0.0875  0.7701
20182TIP3   OH282036   5.735   2.324  14.135  0.5885  0.4055 -0.2777
20182TIP3    H182037   5.730   2.243  14.084  0.1815  0.4126 -0.2526
20182TIP3    H282038   5.651   2.368  14.119  0.1718  0.0922  0.9006
20183TIP3   OH282039   5.679   5.557   0.425  0.3189 -0.7431  0.0341
20183TIP3    H182040   5.752   5.553   0.488 -0.4635  0.5934  1.0693
20183TIP3    H282041   5.698   5.634   0.371 -0.3089 -0.3907  0.3048
20184TIP3   OH282042   5.533   6.788   5.652 -0.1879  0.2232 -0.4039
20184TIP3    H182043   5.574   6.714   5.608  3.7877  1.7780  0.1891
20184TIP3    H282044   5.467   6.749   5.710 -0.0342 -2.5403 -1.9306
20185TIP3   OH282045   3.748   1.552   2.041  0.6470  0.2179 -0.1326
20185TIP3    H182046   3.752   1.460   2.066  0.2263  0.4569  0.8541
20185TIP3    H282047   3.712   1.597   2.118 -0.4249  1.0268 -1.0711
20186TIP3   OH282048   1.761   4.494  15.811  0.3894  0.4100  0.1860
20186TIP3    H182049   1.762   4.563  15.745  0.5439 -0.5504 -0.8424
20186TIP3    H282050   1.677   4.450  15.799  1.1679 -0.9291 -0.6398
20187TIP3   OH282051   4.852   3.318  14.112  0.9739  0.2442  0.0031
20187TIP3    H182052   4.945   3.337  14.100  1.2199 -0.7098  0.3163
20187TIP3    H282053   4.850   3.245  14.175 -0.0689  1.6865  1.7294
20188TIP3   OH282054   0.136   4.528  15.432 -0.3990  0.3203  0.3627
20188TIP3    H182055   0.128   4.433  15.438  0.2392  0.2997  1.0449
20188TIP3    H282056   0.169   4.544  15.344  3.2352 -0.4005  1.4017
20189TIP3   OH282057   0.616   6.657  10.736  0.2265  0.3611  0.2628
20189TIP3    H182058   0.557   6.731  10.717 -0.3270 -0.5955 -2.1851
20189TIP3    H282059   0.677   6.657  10.662  1.5321 -0.3957  1.3133
20190TIP3   OH282060   1.562   0.870  12.363  0.0628 -0.3502 -0.0302
20190TIP3    H182061   1.557   0.844  12.455 -0.0211 -0.2039  0.0068
20190TIP3    H282062   1.639   0.824  12.329  0.7380  0.4379  0.3904
20191TIP3   OH282063   3.887   2.052  12.713  0.0764 -0.1734  0.3218
20191TIP3    H182064   3.796   2.025  12.722 -0.6634  1.2742 -1.8679
20191TIP3    H282065   3.919   2.006  12.635  0.9935 -0.1340  0.6612
20192TIP3   OH282066   0.615   0.698  16.451 -0.0777  0.3706 -0.1611
20192TIP3    H182067   0.536   0.648  16.431 -0.0622  0.5716 -0.7144
20192TIP3    H282068   0.605   0.723  16.543 -0.0962 -0.6375  0.1342
20193TIP3   OH282069   5.124   4.984   0.090 -0.1249  0.5944  0.4263
20193TIP3    H182070   5.143   5.020   0.003 -0.9135  3.9174  1.4891
20193TIP3    H282071   5.205   4.998   0.140 -0.2408  0.3049  0.7016
20194TIP3   OH282072   4.607   2.722  16.430  0.1854 -0.3171  0.2262
20194TIP3    H182073   4.591   2.627  16.427 -1.4118 -0.0612  0.1985
20194TIP3    H282074   4.531   2.761  16.388  0.6561  1.0204  0.5554
20195TIP3   OH282075   0.390   0.338  11.561 -0.2740  0.1644 -0.1242
20195TIP3    H182076   0.399   0.387  11.479  0.1023  0.8504  0.3207
20195TIP3    H282077   0.471   0.288  11.569 -1.1851 -1.5500 -1.2186
20196TIP3   OH282078   5.077   3.013  12.701  0.3449  0.0347 -0.3935
20196TIP3    H182079   5.134   2.937  12.688  0.7162  0.3049 -0.3739
20196TIP3    H282080   5.053   3.041  12.613 -0.0806 -0.3173 -0.3907
20197TIP3   OH282081   1.705   0.362  14.200  0.3833  0.2221 -0.1648
20197TIP3    H182082   1.752   0.308  14.264 -0.1654 -1.0995 -0.8384
20197TIP3    H282083   1.617   0.372  14.237  0.8932  1.9578  0.6742
20198TIP3   OH282084   2.593   4.725  16.174  0.1210 -0.4163  0.2646
20198TIP3    H182085   2.661   4.789  16.152  0.4030 -1.3254 -1.6854
20198TIP3    H282086   2.588   4.728  16.270  0.9609  1.6441  0.2984
20199TIP3   OH282087   2.515   2.466   5.191 -0.2312 -0.1683  0.4893
20199TIP3    H182088   2.478   2.415   5.119  0.4760  1.0980 -0.8240
20199TIP3    H282089   2.594   2.419   5.216 -0.1560 -0.2996  0.0157
20200TIP3   OH282090   3.317   5.705   3.894 -0.3737 -0.4270 -0.4386
20200TIP3    H182091   3.390   5.747   3.940 -1.4725 -0.2417  1.2095
20200TIP3    H282092   3.355   5.676   3.811  1.2329  0.8492 -0.2007
20201TIP3   OH282093   1.273   1.193  13.486  0.4584 -0.3739  0.6672
20201TIP3    H182094   1.314   1.279  13.494  0.2436 -0.4440  3.4413
20201TIP3    H282095   1.344   1.130  13.500  0.0804 -0.5408  2.0533
20202TIP3   OH282096   4.511   5.177  13.518  0.3451  0.3735 -0.3903
20202TIP3    H182097   4.592   5.195  13.469  0.1748  2.0674 -0.1001
20202TIP3    H282098   4.518   5.229  13.597 -0.2864 -0.8033  0.4794
20203TIP3   OH282099   0.860   5.164  13.996  0.5534  0.6577  0.1052
20203TIP3    H182100   0.943   5.116  14.007  0.7773  1.5260  3.0283
20203TIP3    H282101   0.797   5.097  13.971  1.2693 -0.8763  2.1033
20204TIP3   OH282102   4.828   1.478  14.471 -0.5638  0.5180  0.3786
20204TIP3    H182103   4.864   1.390  14.470  1.0866  1.1627 -0.7619
20204TIP3    H282104   4.747   1.472  14.421 -0.1316 -0.2139 -0.2446
20205TIP3   OH282105   3.530   4.566  16.205  0.4680 -0.3200  0.1149
20205TIP3    H182106   3.453   4.514  16.227 -0.2703  0.6330 -0.1020
20205TIP3    H282107   3.596   4.539  16.268 -0.0344 -1.1765  0.2946
20206TIP3   OH282108   4.472   3.824   2.885  0.6872  0.4536  0.4824
20206TIP3    H182109   4.512   3.892   2.830  0.1630 -0.8616 -1.6473
20206TIP3    H282110   4.389   3.862   2.914 -0.3414  0.2530 -1.9698
20207TIP3   OH282111   5.332   0.841   1.186  0.0497 -0.0986 -0.0777
20207TIP3    H182112   5.370   0.812   1.269 -0.1286 -0.7944 -0.2341
20207TIP3    H282113   5.395   0.813   1.120  0.9218  1.7191 -0.0987
20208TIP3   OH282114   5.759   3.584   0.310  0.3049 -0.3008  0.1348
20208TIP3    H182115   5.762   3.491   0.333 -1.0310 -0.0343  1.5760
20208TIP3    H282116   5.667   3.601   0.290  0.7378  0.4649 -1.3657
20209TIP3   OH282117   0.280   4.099  15.626  0.7382 -0.3303  0.2235
20209TIP3    H182118   0.363   4.145  15.616  0.0129  1.2054  1.0451
20209TIP3    H282119   0.280   4.068  15.716  0.3283 -0.1359  0.2915
20210TIP3   OH282120   3.864   4.358  11.499  0.5229  0.3317 -0.1502
20210TIP3    H182121   3.883   4.441  11.543  1.0863 -0.8136  1.9100
20210TIP3    H282122   3.904   4.367  11.412  0.1403  2.3643 -0.1639
20211TIP3   OH282123   3.887   4.454  11.120 -0.4429  0.4391  0.1384
20211TIP3    H182124   3.899   4.466  11.026 -2.0496  0.0450 -0.1474
20211TIP3    H282125   3.941   4.378  11.142  0.8630  1.2294 -0.2099
20212TIP3   OH282126   2.717   4.011   2.005 -0.0611  0.3686  0.0609
20212TIP3    H182127   2.622   3.998   1.999 -0.0975  0.5768  0.2042
20212TIP3    H282128   2.748   4.001   1.915 -0.0178 -1.2533  0.2255
20213TIP3   OH282129   2.059   3.380  11.613 -0.2695 -0.2138 -0.5437
20213TIP3    H182130   2.119   3.377  11.538  1.1826  1.7718  0.4700
20213TIP3    H282131   2.103   3.329  11.681 -0.4969 -0.0821 -0.2984
20214TIP3   OH282132   4.497   5.324   3.672 -0.5097 -0.3884 -0.3394
20214TIP3    H182133   4.402   5.313   3.659 -0.4071 -1.3405 -0.3454
20214TIP3    H282134   4.536   5.253   3.622  0.2648  0.5196 -1.0634
20215TIP3   OH282135   1.068   4.055   5.232  0.3904 -0.0685 -0.2862
20215TIP3    H182136   1.064   4.150   5.244 -0.4128 -0.1386  0.0449
20215TIP3    H282137   1.029   4.040   5.146  0.3116 -0.1217 -0.2408
20216TIP3   OH282138   3.742   6.223   1.048 -0.3624 -0.3604 -0.0100
20216TIP3    H182139   3.662   6.276   1.053 -0.9418 -1.1935 -0.0709
20216TIP3    H282140   3.792   6.247   1.125  0.0306  1.2522 -0.7234
20217TIP3   OH282141   4.095   3.648   5.107 -0.0191  0.3399  0.2399
20217TIP3    H182142   4.122   3.740   5.108 -1.1654  0.6962  0.3374
20217TIP3    H282143   4.068   3.631   5.017 -0.3510  0.2742  0.3479
20218TIP3   OH282144   6.200   0.052  15.173  0.4324 -0.0858  0.0877
20218TIP3    H182145   6.281   0.103  15.164  0.6268 -0.5860 -1.0575
20218TIP3    H282146   6.197  -0.003  15.095 -0.0346 -1.4772  1.0529
20219TIP3   OH282147   6.252   3.464   5.652 -0.2978 -0.2690  0.7515
20219TIP3    H182148   6.196   3.541   5.658 -1.3462 -0.8885 -0.4746
20219TIP3    H282149   6.202   3.395   5.697 -0.1440 -0.6286  0.3703
20220TIP3   OH282150   2.325   5.116   5.158 -0.2024 -0.0736  0.0617
20220TIP3    H182151   2.323   5.168   5.078 -1.3007  0.7016  0.5642
20220TIP3    H282152   2.388   5.162   5.215  1.3523 -1.1884 -0.6862
20221TIP3   OH282153   5.632   6.343   5.477  0.5960  0.2499 -0.9610
20221TIP3    H182154   5.721   6.313   5.458 -0.1813 -0.7321 -3.3535
20221TIP3    H282155   5.638   6.380   5.565  2.3928 -3.8296  0.8925
20222TIP3   OH282156   2.696   4.968  11.760 -0.1464  0.3450 -0.2656
20222TIP3    H182157   2.790   4.970  11.781 -0.4749  0.4751  1.3289
20222TIP3    H282158   2.671   5.060  11.755 -0.2355  0.3086 -0.4986
20223TIP3   OH282159   2.385   3.885   4.296  0.0832  0.0533 -0.0195
20223TIP3    H182160   2.320   3.955   4.285 -0.1168  0.1495  1.5215
20223TIP3    H282161   2.383   3.865   4.390  2.5518  0.3075  0.1541
20224TIP3   OH282162   5.732   6.401  15.356 -0.8940 -0.2606  0.0243
20224TIP3    H182163   5.687   6.465  15.411  0.0782 -0.2620  0.8293
20224TIP3    H282164   5.681   6.320  15.368 -1.0315 -0.1128  0.4571
20225TIP3   OH282165   4.944   0.578   0.900 -0.3052  0.0421 -0.0522
20225TIP3    H182166   4.856   0.612   0.916 -0.5116 -0.3429 -0.3460
20225TIP3    H282167   4.947   0.497   0.951  0.5929  1.0605  1.6070
20226TIP3   OH282168   3.195   4.990  14.088  0.0305 -0.0561 -0.0264
20226TIP3    H182169   3.223   4.908  14.047  0.2403  0.9773 -2.0260
20226TIP3    H282170   3.191   4.969  14.182  1.0306 -2.0685 -0.3799
20227TIP3   OH282171   2.776   3.650  14.466  0.1159 -0.0147 -0.0057
20227TIP3    H182172   2.858   3.668  14.419  0.3824  1.1533  0.8539
20227TIP3    H282173   2.779   3.709  14.541 -0.7860 -1.0879  0.9052
20228TIP3   OH282174   1.805   5.454   3.512 -0.1317 -0.1813 -0.4564
20228TIP3    H182175   1.762   5.494   3.436  0.6273 -0.6484 -1.1579
20228TIP3    H282176   1.834   5.368   3.480 -0.2027 -0.5695  0.5055
20229TIP3   OH282177   6.249   6.735   6.404 -0.5329  0.1638 -0.3347
20229TIP3    H182178   6.303   6.796   6.454 -2.1834 -0.7377  2.7736
20229TIP3    H282179   6.308   6.662   6.382  0.4788  1.0623 -0.7011
20230TIP3   OH282180   4.039   3.255   4.565  0.1216 -0.0981 -0.2213
20230TIP3    H182181   4.081   3.197   4.502 -0.2258  0.5460 -1.0610
20230TIP3    H282182   4.103   3.264   4.636  1.5077  1.0173 -1.5624
20231TIP3   OH282183   4.059   3.392  13.987 -0.2853 -0.0197  0.2811
20231TIP3    H182184   4.057   3.452  13.913 -0.7784 -0.7209 -0.2826
20231TIP3    H282185   4.115   3.321  13.958  0.2262  0.1202  0.9141
20232CLA    CLA82186   5.016   3.431  13.677  0.1605  0.1432 -0.2394
20233LIG     O182187   3.588   3.927  10.584 -1.0268  0.0457  0.3273
20233LIG     O282188   4.192   3.665  10.557 -0.5210  0.2274 -0.0346
20233LIG     O382189   3.530   4.138  10.552  0.3767  0.0964 -0.0337
20233LIG     O482190   3.618   4.118  10.288  0.1893 -0.1124  0.0021
20233LIG      N82191   3.839   3.800  10.776  0.0142 -0.3714  0.4272
20233LIG     C182192   3.830   3.945  10.713 -0.0824  0.0679 -0.0641
20233LIG     C282193   3.711   3.732  10.741 -0.1275 -0.1898 -0.0884
20233LIG     C382194   3.705   4.024  10.757 -0.5524  0.8704 -0.2698
20233LIG     C482195   3.578   3.802  10.786 -0.4661 -0.3705  0.4803
20233LIG     C582196   3.579   3.940  10.721 -0.8679  0.0334 -0.1880
20233LIG     C682197   3.960   3.725  10.712  0.3242  0.4342  0.4291
20233LIG     C782198   3.853   3.807  10.926  0.0133  0.5466  0.1523
20233LIG     C882199   4.090   3.800  10.730 -0.0780  0.4520 -0.4549
20233LIG     C982200   4.214   3.719  10.683  0.1369  0.1523 -0.6916
20233LIG    C1082201   3.570   4.032  10.510  0.3455  0.4673  0.8749
20233LIG    C1182202   3.594   4.002  10.359  0.2633 -0.3983 -0.4416
20233LIG    C1282203   3.459   3.931  10.293  0.0421  0.0348 -0.3514
20233LIG    C1382204   3.718   3.905  10.349 -0.9445 -0.2933  0.3977
20233LIG    C1482205   4.300   3.593  10.500  0.0936 -0.2098 -1.0208
20233LIG    C1582206   3.355   3.887  10.367  0.0705  0.3118 -0.1297
20233LIG    C1682207   3.718   3.769  10.337 -0.7747 -0.2976 -0.0172
20233LIG    C1782208   3.453   3.920  10.153  0.9849  0.8558 -0.5984
20233LIG    C1882209   3.851   3.967  10.358  0.2933  0.2303  0.1884
20233LIG    C1982210   4.367   3.498  10.579 -0.5944 -0.5286 -0.1043
20233LIG    C2082211   4.307   3.590  10.363  0.4713 -0.3663 -0.1093
20233LIG    C2182212   3.243   3.825  10.311 -0.3614  0.1110  0.6503
20233LIG    C2282213   3.837   3.693  10.334  0.4433 -0.1735 -0.1028
20233LIG    C2382214   3.345   3.852  10.094 -0.3369  0.1619  0.3960
20233LIG    C2482215   3.969   3.893  10.364  0.1527  0.2860 -0.1282
20233LIG    C2582216   3.243   3.800  10.170  0.5749  0.3788 -0.1055
20233LIG    C2682217   3.963   3.754  10.344 -0.3899 -0.1309 -0.7678
20233LIG    C2782218   4.467   3.415  10.519  0.6122 -0.2434  0.6648
20233LIG    C2882219   4.394   3.498  10.301 -0.3992  0.1648  0.2728
20233LIG    C2982220   4.475   3.413  10.377  0.0681  0.5088 -0.9054
20233LIG     H182221   3.826   3.940  10.606  1.6359  1.2277 -0.2225
20233LIG     H282222   3.926   3.991  10.734  2.2064 -4.3279  0.3332
20233LIG     H382223   3.707   3.637  10.792 -0.3806 -0.1583 -0.0503
20233LIG     H482224   3.698   3.710  10.636  2.3926  0.9527 -0.7310
20233LIG     H582225   3.711   4.125  10.711 -0.6508  0.3496 -1.4545
20233LIG     H682226   3.688   4.042  10.865 -1.3913 -0.7851 -0.0976
20233LIG     H782227   3.575   3.818  10.896  1.5790 -0.4131  0.5660
20233LIG     H882228   3.491   3.741  10.753  0.3391 -0.4522 -1.6363
20233LIG     H982229   3.484   3.994  10.736 -0.7847 -0.1865  1.2310
20233LIG    H1082230   3.938   3.714  10.607 -0.7708 -0.7680  0.7550
20233LIG    H1182231   3.967   3.625  10.754  1.7475  1.6944  3.4763
20233LIG    H1282232   3.871   3.706  10.959 -0.8332  0.1922 -0.4327
20233LIG    H1382233   3.784   3.867  10.984  3.8814  3.1059  2.5403
20233LIG    H1482234   3.946   3.860  10.934 -0.1553  1.5885 -3.1153
20233LIG    H1582235   4.105   3.814  10.839  0.8521 -2.2155 -0.1563
20233LIG    H1682236   4.090   3.901  10.683 -0.0203  1.4885  1.6431
20233LIG    H1782237   4.301   3.789  10.679  0.3271 -0.0100  0.2754
20233LIG    H1882238   4.234   3.647  10.765 -2.5404  1.2227  1.0328
20233LIG    H1982239   3.674   4.175  10.342 -2.4862  2.5982  0.2513
20233LIG    H2082240   3.355   3.903  10.474  1.0601  0.2830 -0.1154
20233LIG    H2182241   3.622   3.719  10.328  0.6190 -3.0976 -0.2198
20233LIG    H2282242   3.533   3.945  10.085  0.2875 -2.7171 -3.0166
20233LIG    H2382243   3.868   4.074  10.364  1.8816 -0.0876  4.3646
20233LIG    H2482244   4.347   3.493  10.685  1.0747 -1.2209  0.2133
20233LIG    H2582245   4.240   3.644  10.299 -1.2055 -2.7376 -0.5036
20233LIG    H2682246   3.179   3.773  10.382  0.1168  1.5376  2.1880
20233LIG    H2782247   3.817   3.588  10.323 -0.1485  0.0436 -1.2350
20233LIG    H2882248   3.353   3.840   9.987  2.5904  1.8170  0.2896
20233LIG    H2982249   4.066   3.936  10.385  0.4100 -0.4253  0.1782
20233LIG    H3082250   3.162   3.757  10.114 -1.5018  3.6876  0.1086
20233LIG    H3182251   4.055   3.699  10.352 -1.0389 -1.1891 -0.2886
20233LIG    H3282252   4.512   3.336  10.578  1.4138 -1.4558 -1.4881
20233LIG    H3382253   4.397   3.486  10.194  0.5197  0.3088  0.2712
20233LIG    H3482254   4.531   3.343  10.317 -0.3107  1.0945 -1.9611
   6.80435   6.80435  17.37078
