;;
;; Generated by CHARMM-GUI (http://www.charmm-gui.org) v1.7
;;
;; psf2itp_mol.py
;;
;; Correspondance:
;; jul316@lehigh.edu or wonpil@lehigh.edu
;;
;; GROMACS topology file for LIG
;;


[ moleculetype ]
; name	nrexcl
LIG	     3

[ atoms ]
; nr	type	resnr	residu	atom	cgnr	charge	mass
     1     OG3C51      1      LIG     O1      1     -0.409    15.9994   ; qtot -0.409
     2      OG301      1      LIG     O2      2     -0.316    15.9994   ; qtot -0.725
     3     OG3C61      1      LIG     O3      3     -0.392    15.9994   ; qtot -1.117
     4      OG311      1      LIG     O4      4     -0.647    15.9994   ; qtot -1.764
     5      OG311      1      LIG     O5      5     -0.647    15.9994   ; qtot -2.411
     6      OG311      1      LIG     O6      6     -0.646    15.9994   ; qtot -3.057
     7      OG311      1      LIG     O7      7     -0.641    15.9994   ; qtot -3.698
     8      OG311      1      LIG     O8      8     -0.643    15.9994   ; qtot -4.341
     9      OG311      1      LIG     O9      9     -0.652    15.9994   ; qtot -4.993
    10      OG311      1      LIG    O10     10     -0.652    15.9994   ; qtot -5.645
    11      OG311      1      LIG    O11     11     -0.649    15.9994   ; qtot -6.294
    12     CG3C50      1      LIG     C1     12      0.285    12.0110   ; qtot -6.009
    13     CG3C51      1      LIG     C2     13      0.157    12.0110   ; qtot -5.852
    14     CG3C51      1      LIG     C3     14      0.152    12.0110   ; qtot -5.700
    15     CG3C51      1      LIG     C4     15      0.110    12.0110   ; qtot -5.590
    16      CG311      1      LIG     C5     16      0.259    12.0110   ; qtot -5.331
    17      CG311      1      LIG     C6     17      0.148    12.0110   ; qtot -5.183
    18      CG311      1      LIG     C7     18      0.147    12.0110   ; qtot -5.036
    19      CG311      1      LIG     C8     19      0.143    12.0110   ; qtot -4.893
    20      CG311      1      LIG     C9     20      0.031    12.0110   ; qtot -4.862
    21      CG321      1      LIG    C10     21      0.085    12.0110   ; qtot -4.777
    22      CG321      1      LIG    C11     22      0.047    12.0110   ; qtot -4.730
    23      CG321      1      LIG    C12     23      0.113    12.0110   ; qtot -4.617
    24       HGA1      1      LIG     H1     24      0.090     1.0080   ; qtot -4.527
    25       HGA1      1      LIG     H2     25      0.090     1.0080   ; qtot -4.437
    26       HGA1      1      LIG     H3     26      0.090     1.0080   ; qtot -4.347
    27       HGA1      1      LIG     H4     27      0.090     1.0080   ; qtot -4.257
    28       HGA1      1      LIG     H5     28      0.090     1.0080   ; qtot -4.167
    29       HGA1      1      LIG     H6     29      0.090     1.0080   ; qtot -4.077
    30       HGA1      1      LIG     H7     30      0.090     1.0080   ; qtot -3.987
    31       HGA1      1      LIG     H8     31      0.090     1.0080   ; qtot -3.897
    32       HGA2      1      LIG     H9     32      0.090     1.0080   ; qtot -3.807
    33       HGA2      1      LIG    H10     33      0.090     1.0080   ; qtot -3.717
    34       HGA2      1      LIG    H11     34      0.090     1.0080   ; qtot -3.627
    35       HGA2      1      LIG    H12     35      0.090     1.0080   ; qtot -3.537
    36       HGA2      1      LIG    H13     36      0.090     1.0080   ; qtot -3.447
    37       HGA2      1      LIG    H14     37      0.090     1.0080   ; qtot -3.357
    38       HGP1      1      LIG    H15     38      0.420     1.0080   ; qtot -2.937
    39       HGP1      1      LIG    H16     39      0.420     1.0080   ; qtot -2.517
    40       HGP1      1      LIG    H17     40      0.420     1.0080   ; qtot -2.097
    41       HGP1      1      LIG    H18     41      0.420     1.0080   ; qtot -1.677
    42       HGP1      1      LIG    H19     42      0.420     1.0080   ; qtot -1.257
    43       HGP1      1      LIG    H20     43      0.419     1.0080   ; qtot -0.838
    44       HGP1      1      LIG    H21     44      0.419     1.0080   ; qtot -0.419
    45       HGP1      1      LIG    H22     45      0.419     1.0080   ; qtot -0.000

[ bonds ]
; ai	aj	funct	b0	Kb
    1    12     1
    1    15     1
    2    12     1
    2    16     1
    3    16     1
    3    20     1
    4    13     1
    4    38     1
    5    14     1
    5    39     1
    6    17     1
    6    40     1
    7    18     1
    7    41     1
    8    19     1
    8    42     1
    9    21     1
    9    43     1
   10    22     1
   10    44     1
   11    23     1
   11    45     1
   12    13     1
   12    21     1
   13    14     1
   13    24     1
   14    15     1
   14    25     1
   15    22     1
   15    26     1
   16    17     1
   16    27     1
   17    18     1
   17    28     1
   18    19     1
   18    29     1
   19    20     1
   19    30     1
   20    23     1
   20    31     1
   21    32     1
   21    33     1
   22    34     1
   22    35     1
   23    36     1
   23    37     1

[ pairs ]
; ai	aj	funct	c6	c12
    1     4     1 
    1     5     1 
    1     9     1 
    1    10     1 
    1    16     1 
    1    24     1 
    1    25     1 
    1    32     1 
    1    33     1 
    1    34     1 
    1    35     1 
    2     4     1 
    2     6     1 
    2     9     1 
    2    14     1 
    2    15     1 
    2    18     1 
    2    20     1 
    2    24     1 
    2    28     1 
    2    32     1 
    2    33     1 
    3     6     1 
    3     8     1 
    3    11     1 
    3    12     1 
    3    18     1 
    3    28     1 
    3    30     1 
    3    36     1 
    3    37     1 
    4     5     1 
    4    15     1 
    4    21     1 
    4    25     1 
    5    12     1 
    5    22     1 
    5    24     1 
    5    26     1 
    6     7     1 
    6    19     1 
    6    27     1 
    6    29     1 
    7     8     1 
    7    16     1 
    7    20     1 
    7    28     1 
    7    30     1 
    8    17     1 
    8    23     1 
    8    29     1 
    8    31     1 
    9    13     1 
   10    14     1 
   10    26     1 
   11    19     1 
   11    31     1 
   12    17     1 
   12    22     1 
   12    25     1 
   12    26     1 
   12    27     1 
   12    38     1 
   12    43     1 
   13    16     1 
   13    22     1 
   13    26     1 
   13    32     1 
   13    33     1 
   13    39     1 
   14    21     1 
   14    34     1 
   14    35     1 
   14    38     1 
   15    21     1 
   15    24     1 
   15    39     1 
   15    44     1 
   16    19     1 
   16    21     1 
   16    23     1 
   16    29     1 
   16    31     1 
   16    40     1 
   17    20     1 
   17    30     1 
   17    41     1 
   18    23     1 
   18    27     1 
   18    31     1 
   18    40     1 
   18    42     1 
   19    28     1 
   19    36     1 
   19    37     1 
   19    41     1 
   20    27     1 
   20    29     1 
   20    42     1 
   20    45     1 
   21    24     1 
   22    25     1 
   23    30     1 
   24    25     1 
   24    38     1 
   25    26     1 
   25    39     1 
   26    34     1 
   26    35     1 
   27    28     1 
   28    29     1 
   28    40     1 
   29    30     1 
   29    41     1 
   30    31     1 
   30    42     1 
   31    36     1 
   31    37     1 
   32    43     1 
   33    43     1 
   34    44     1 
   35    44     1 
   36    45     1 
   37    45     1 

[ angles ] 
; ai	aj	ak	funct	th0	cth	S0	Kub
   12     1    15     5
   12     2    16     5
   16     3    20     5
   13     4    38     5
   14     5    39     5
   17     6    40     5
   18     7    41     5
   19     8    42     5
   21     9    43     5
   22    10    44     5
   23    11    45     5
    1    12     2     5
    1    12    13     5
    1    12    21     5
    2    12    13     5
    2    12    21     5
   13    12    21     5
    4    13    12     5
    4    13    14     5
    4    13    24     5
   12    13    14     5
   12    13    24     5
   14    13    24     5
    5    14    13     5
    5    14    15     5
    5    14    25     5
   13    14    15     5
   13    14    25     5
   15    14    25     5
    1    15    14     5
    1    15    22     5
    1    15    26     5
   14    15    22     5
   14    15    26     5
   22    15    26     5
    2    16     3     5
    2    16    17     5
    2    16    27     5
    3    16    17     5
    3    16    27     5
   17    16    27     5
    6    17    16     5
    6    17    18     5
    6    17    28     5
   16    17    18     5
   16    17    28     5
   18    17    28     5
    7    18    17     5
    7    18    19     5
    7    18    29     5
   17    18    19     5
   17    18    29     5
   19    18    29     5
    8    19    18     5
    8    19    20     5
    8    19    30     5
   18    19    20     5
   18    19    30     5
   20    19    30     5
    3    20    19     5
    3    20    23     5
    3    20    31     5
   19    20    23     5
   19    20    31     5
   23    20    31     5
    9    21    12     5
    9    21    32     5
    9    21    33     5
   12    21    32     5
   12    21    33     5
   32    21    33     5
   10    22    15     5
   10    22    34     5
   10    22    35     5
   15    22    34     5
   15    22    35     5
   34    22    35     5
   11    23    20     5
   11    23    36     5
   11    23    37     5
   20    23    36     5
   20    23    37     5
   36    23    37     5

[ dihedrals ]
; ai	aj	ak	al	funct	phi0	cp	mult
   15     1    12    21     9
   12     1    15    14     9
   12     1    15    22     9
   12     1    15    26     9
   16     2    12    21     9
   12     2    16    17     9
   12     2    16    27     9
   20     3    16    27     9
   16     3    20    19     9
   16     3    20    23     9
   16     3    20    31     9
    2    12     1    15     9
   13    12     1    15     9
    1    12     2    16     9
   13    12     2    16     9
    1    12    13     4     9
    1    12    13    14     9
    1    12    13    24     9
    2    12    13     4     9
    2    12    13    14     9
    2    12    13    24     9
   21    12    13    24     9
    1    12    21     9     9
    1    12    21    32     9
    1    12    21    33     9
    2    12    21     9     9
    2    12    21    32     9
    2    12    21    33     9
   13    12    21    32     9
   13    12    21    33     9
   12    13     4    38     9
   14    13     4    38     9
   24    13     4    38     9
    4    13    12    21     9
   14    13    12    21     9
    4    13    14     5     9
    4    13    14    15     9
    4    13    14    25     9
   12    13    14    15     9
   12    13    14    25     9
   24    13    14    25     9
   13    14     5    39     9
   15    14     5    39     9
   25    14     5    39     9
    5    14    13    12     9
    5    14    13    24     9
   15    14    13    24     9
    5    14    15    22     9
    5    14    15    26     9
   13    14    15    22     9
   13    14    15    26     9
   25    14    15    26     9
    1    15    14     5     9
    1    15    14    13     9
    1    15    14    25     9
   22    15    14    25     9
    1    15    22    10     9
    1    15    22    34     9
    1    15    22    35     9
   14    15    22    34     9
   14    15    22    35     9
   26    15    22    34     9
   26    15    22    35     9
    3    16     2    12     9
    2    16     3    20     9
   17    16     3    20     9
    2    16    17     6     9
    2    16    17    18     9
    2    16    17    28     9
    3    16    17     6     9
    3    16    17    18     9
    3    16    17    28     9
   27    16    17    28     9
   16    17     6    40     9
   18    17     6    40     9
   28    17     6    40     9
    6    17    16    27     9
   18    17    16    27     9
    6    17    18     7     9
    6    17    18    19     9
    6    17    18    29     9
   16    17    18    19     9
   16    17    18    29     9
   28    17    18    29     9
   17    18     7    41     9
   19    18     7    41     9
   29    18     7    41     9
    7    18    17    16     9
    7    18    17    28     9
   19    18    17    28     9
    7    18    19     8     9
    7    18    19    20     9
    7    18    19    30     9
   17    18    19    20     9
   17    18    19    30     9
   29    18    19    30     9
   18    19     8    42     9
   20    19     8    42     9
   30    19     8    42     9
    8    19    18    17     9
    8    19    18    29     9
   20    19    18    29     9
    8    19    20    23     9
    8    19    20    31     9
   18    19    20    23     9
   18    19    20    31     9
   30    19    20    31     9
    3    20    19     8     9
    3    20    19    18     9
    3    20    19    30     9
   23    20    19    30     9
    3    20    23    11     9
    3    20    23    36     9
    3    20    23    37     9
   19    20    23    36     9
   19    20    23    37     9
   31    20    23    36     9
   31    20    23    37     9
   12    21     9    43     9
   32    21     9    43     9
   33    21     9    43     9
    9    21    12    13     9
   15    22    10    44     9
   34    22    10    44     9
   35    22    10    44     9
   10    22    15    14     9
   10    22    15    26     9
   20    23    11    45     9
   36    23    11    45     9
   37    23    11    45     9
   11    23    20    19     9
   11    23    20    31     9
