Title
43181
    1CHL1    C3    1   6.756   4.811   7.235 -0.2717  0.5521 -0.2953
    1CHL1    H3    2   6.660   4.860   7.208 -0.2316  0.3304 -0.8698
    1CHL1    O3    3   6.777   4.798   7.375 -0.4421  0.0941 -0.5898
    1CHL1   H3'    4   6.842   4.729   7.390 -1.8382 -0.8197  2.0244
    1CHL1    C4    5   6.762   4.675   7.159 -0.4398 -0.7576 -0.1642
    1CHL1   H4A    6   6.855   4.620   7.184 -0.4172 -0.3927  0.5751
    1CHL1   H4B    7   6.679   4.610   7.195 -0.7857  0.7469  1.9671
    1CHL1    C5    8   6.763   4.690   7.013 -0.2318 -0.5587  0.0051
    1CHL1    C6    9   6.679   4.623   6.941  0.2100  0.2069 -0.5418
    1CHL1    H6   10   6.610   4.555   6.993  0.4879  0.5350  0.2899
    1CHL1    C7   11   6.681   4.627   6.790 -0.0883 -0.4152  1.5766
    1CHL1   H7A   12   6.648   4.534   6.739 -0.8353  1.1649 -1.0512
    1CHL1   H7B   13   6.589   4.685   6.768 -0.0749 -0.2751  1.8917
    1CHL1    C8   14   6.793   4.698   6.721 -0.2697  0.9576  0.0506
    1CHL1    H8   15   6.883   4.634   6.718 -0.9876 -0.0274 -1.1924
    1CHL1   C14   16   6.759   4.737   6.582  0.1195 -0.1119  0.1415
    1CHL1   H14   17   6.678   4.813   6.597 -1.2890 -1.3747 -0.7178
    1CHL1   C15   18   6.699   4.629   6.489 -0.1122  0.3929 -0.0871
    1CHL1  H15A   19   6.761   4.538   6.504  1.0043  1.1814  0.2359
    1CHL1  H15B   20   6.593   4.609   6.515  0.2980 -1.3669  0.3340
    1CHL1   C16   21   6.727   4.686   6.354  0.5306  0.1435  0.3673
    1CHL1  H16A   22   6.778   4.607   6.295 -0.7736 -0.5470  0.1091
    1CHL1  H16B   23   6.631   4.686   6.297  1.0240  0.8523 -0.4876
    1CHL1   C17   24   6.811   4.816   6.365  0.1438 -0.4756 -0.3852
    1CHL1   H17   25   6.748   4.907   6.371  0.6553  0.0506 -2.2641
    1CHL1   C13   26   6.873   4.806   6.505 -0.0704 -0.0037 -0.5739
    1CHL1   C18   27   7.002   4.717   6.485  0.5670 -0.4804 -0.0311
    1CHL1  H18A   28   7.038   4.687   6.586  0.4278  0.4047  0.2901
    1CHL1  H18B   29   6.969   4.632   6.422  0.6832  2.3927 -4.3996
    1CHL1  H18C   30   7.081   4.773   6.431 -1.2176  0.7042 -1.5562
    1CHL1   C12   31   6.910   4.932   6.579  0.4712 -0.4969 -0.6445
    1CHL1  H12A   32   7.007   4.974   6.544  0.9619 -0.0587  1.1476
    1CHL1  H12B   33   6.828   5.005   6.562  0.8882 -0.2315 -1.6328
    1CHL1   C11   34   6.934   4.921   6.726  1.2550  1.0068 -0.4570
    1CHL1  H11A   35   7.028   4.865   6.741  0.5439 -0.0771  0.0673
    1CHL1  H11B   36   6.939   5.019   6.779  0.1992  0.2294  1.1471
    1CHL1    C9   37   6.830   4.827   6.793  0.9916 -0.5044 -1.1480
    1CHL1    H9   38   6.730   4.875   6.802  0.6389 -1.4239  0.1686
    1CHL1   C10   39   6.862   4.805   6.951  0.0402 -0.7786 -0.7404
    1CHL1   C19   40   7.008   4.753   6.971 -0.5655  0.2658 -0.3515
    1CHL1  H19A   41   7.023   4.739   7.081  1.6380 -1.6769 -0.8297
    1CHL1  H19B   42   7.019   4.658   6.916 -0.9543  0.2464 -0.3997
    1CHL1  H19C   43   7.075   4.827   6.923 -2.2905  2.2405  0.1324
    1CHL1    C1   44   6.859   4.939   7.032 -0.2738 -0.7887 -0.1615
    1CHL1   H1A   45   6.947   5.001   7.005  0.5490 -2.3401 -1.2057
    1CHL1   H1B   46   6.770   4.998   7.002  1.2462  1.4294 -0.5282
    1CHL1    C2   47   6.860   4.916   7.185 -0.0291  0.2035  0.2226
    1CHL1   H2A   48   6.851   5.010   7.243  0.6002  0.0107  0.6388
    1CHL1   H2B   49   6.963   4.884   7.212  0.5861 -0.4618 -2.5635
    1CHL1   C20   50   6.899   4.846   6.238 -0.1263 -0.0384  0.0085
    1CHL1   H20   51   6.995   4.792   6.252  0.2991  1.2607  2.6238
    1CHL1   C21   52   6.920   4.997   6.240  0.6608 -0.0822 -0.1077
    1CHL1  H21A   53   6.984   5.004   6.150 -0.6807 -0.6090 -1.1408
    1CHL1  H21B   54   6.982   5.039   6.322  0.5374  0.3683 -0.2399
    1CHL1  H21C   55   6.826   5.055   6.226  0.6755 -0.2914 -1.1058
    1CHL1   C22   56   6.842   4.795   6.104 -0.0406 -0.2394 -0.6573
    1CHL1  H22A   57   6.858   4.685   6.101 -0.3027 -0.3190  0.4837
    1CHL1  H22B   58   6.732   4.813   6.110 -0.1239 -0.9630  0.2716
    1CHL1   C23   59   6.894   4.859   5.976  0.1833 -0.7546  0.1835
    1CHL1  H23A   60   6.871   4.967   5.978 -1.4886 -1.0773  2.3760
    1CHL1  H23B   61   7.003   4.855   5.997  0.2162  3.1020  1.4863
    1CHL1   C24   62   6.859   4.792   5.842  1.1360  0.8696  0.0764
    1CHL1  H24A   63   6.920   4.839   5.762  0.4469  0.6200 -0.6118
    1CHL1  H24B   64   6.901   4.689   5.842 -0.7406  0.0228 -1.9413
    1CHL1   C25   65   6.703   4.785   5.810 -0.1234  0.5498 -0.1272
    1CHL1   H25   66   6.657   4.885   5.825 -1.3375  0.0212 -0.2190
    1CHL1   C26   67   6.671   4.751   5.660 -0.0468  0.2632  0.3356
    1CHL1  H26A   68   6.704   4.834   5.593 -0.8891  0.1428 -0.2488
    1CHL1  H26B   69   6.704   4.648   5.634 -0.1383 -0.1121  1.6442
    1CHL1  H26C   70   6.562   4.752   5.638 -0.0342 -2.4688 -0.1127
    1CHL1   C27   71   6.628   4.680   5.902 -0.1008 -0.6238 -0.1848
    1CHL1  H27A   72   6.547   4.641   5.837 -0.2681 -2.4412  1.0388
    1CHL1  H27B   73   6.694   4.599   5.941  1.0473 -0.2607 -1.3205
    1CHL1  H27C   74   6.582   4.732   5.989 -2.8472  0.4130 -2.1234
    2CHL1    C3   75   0.122   4.244   6.884 -0.2907 -0.1616  0.5773
    2CHL1    H3   76   0.013   4.262   6.876 -0.2467 -0.4529 -1.1354
    2CHL1    O3   77   0.164   4.239   7.019  0.0740  0.0365  0.3239
    2CHL1   H3'   78   0.114   4.163   7.050  0.1486 -1.3281 -2.5492
    2CHL1    C4   79   0.157   4.107   6.816 -0.8879  0.1736  0.6241
    2CHL1   H4A   80   0.261   4.073   6.834  0.2330  2.2582 -1.3415
    2CHL1   H4B   81   0.094   4.026   6.856 -1.7693  0.6381  0.2084
    2CHL1    C5   82   0.150   4.105   6.665 -0.0998 -1.2928  0.0017
    2CHL1    C6   83   0.078   4.020   6.595 -0.1027 -0.2167 -0.3639
    2CHL1    H6   84   0.025   3.934   6.640 -0.3024  0.9499  1.7550
    2CHL1    C7   85   0.085   4.019   6.440  0.2583  0.3578 -0.4002
    2CHL1   H7A   86   0.096   3.912   6.412 -0.6548 -0.2043  1.2344
    2CHL1   H7B   87  -0.009   4.059   6.396 -0.1309 -0.7206 -0.5840
    2CHL1    C8   88   0.200   4.107   6.376 -0.4019 -0.3944  0.3145
    2CHL1    H8   89   0.294   4.053   6.398 -0.9262 -1.1375  0.7959
    2CHL1   C14   90   0.184   4.114   6.226 -0.2846 -0.2427  0.1612
    2CHL1   H14   91   0.079   4.150   6.223 -0.6514 -1.2665  0.4185
    2CHL1   C15   92   0.191   3.982   6.150 -0.2132 -0.0716  0.6016
    2CHL1  H15A   93   0.286   3.932   6.179  0.0590  0.1113  0.0313
    2CHL1  H15B   94   0.109   3.913   6.178  0.2028 -0.4970  0.7906
    2CHL1   C16   95   0.199   4.027   6.005  0.3982  0.0951  0.1939
    2CHL1  H16A   96   0.288   3.983   5.954  0.2430  1.1311 -1.0246
    2CHL1  H16B   97   0.105   3.993   5.956  1.1666 -0.0677 -1.2494
    2CHL1   C17   98   0.218   4.185   6.003  0.8658  0.0305 -0.0831
    2CHL1   H17   99   0.118   4.232   6.008  0.7417 -0.3385  3.2278
    2CHL1   C13  100   0.273   4.206   6.149 -0.4306  0.0084 -0.7715
    2CHL1   C18  101   0.421   4.150   6.150 -0.2008  0.1335 -0.4496
    2CHL1  H18A  102   0.452   4.103   6.246 -0.6777 -2.5406 -1.5078
    2CHL1  H18B  103   0.437   4.075   6.070 -2.8489 -2.0185  0.8923
    2CHL1  H18C  104   0.487   4.238   6.131 -0.9527  1.0637  1.0635
    2CHL1   C12  105   0.269   4.347   6.211  0.6120 -0.1188  0.2945
    2CHL1  H12A  106   0.340   4.418   6.165 -2.5775  1.7463 -2.1221
    2CHL1  H12B  107   0.167   4.392   6.210 -0.6315 -2.5170 -3.6356
    2CHL1   C11  108   0.308   4.341   6.365  0.4608 -0.2488  0.0308
    2CHL1  H11A  109   0.404   4.286   6.367 -0.5974 -2.1571  0.5285
    2CHL1  H11B  110   0.330   4.440   6.411  1.8914  0.2131 -1.5712
    2CHL1    C9  111   0.212   4.240   6.443  0.1481 -0.1046 -0.1728
    2CHL1    H9  112   0.113   4.287   6.427 -0.8254 -1.7327  0.7457
    2CHL1   C10  113   0.222   4.224   6.599 -0.7702 -0.0056  0.7070
    2CHL1   C19  114   0.376   4.207   6.622  0.3016  0.2316 -0.1431
    2CHL1  H19A  115   0.384   4.191   6.732 -0.4451 -0.9112 -0.2396
    2CHL1  H19B  116   0.406   4.109   6.579 -0.9961 -0.8336  1.2896
    2CHL1  H19C  117   0.442   4.290   6.587 -0.6771  0.9586 -0.3124
    2CHL1    C1  118   0.191   4.363   6.671 -0.0945  0.0367  0.3556
    2CHL1   H1A  119   0.271   4.427   6.628 -0.6811 -0.4844 -1.6093
    2CHL1   H1B  120   0.094   4.407   6.642 -0.2229 -0.4650  0.0045
    2CHL1    C2  121   0.194   4.362   6.820 -0.2866  0.2024 -0.0530
    2CHL1   H2A  122   0.151   4.459   6.855  0.4347  0.8109 -0.8305
    2CHL1   H2B  123   0.301   4.357   6.850 -0.3905  0.0083  0.2897
    2CHL1   C20  124   0.285   4.244   5.877 -0.2303  0.0996 -0.4543
    2CHL1   H20  125   0.391   4.212   5.879  0.2607  1.6821  0.8156
    2CHL1   C21  126   0.287   4.393   5.883  0.0641  0.3676 -0.2997
    2CHL1  H21A  127   0.184   4.435   5.877 -1.1555 -2.4203 -0.4081
    2CHL1  H21B  128   0.336   4.428   5.790 -3.0441 -1.7231 -2.9507
    2CHL1  H21C  129   0.337   4.432   5.974  1.6746 -1.1444 -0.4896
    2CHL1   C22  130   0.229   4.205   5.744 -0.0097  0.0558 -0.5903
    2CHL1  H22A  131   0.202   4.097   5.747 -1.1550  0.2673  3.3067
    2CHL1  H22B  132   0.139   4.264   5.718 -1.2545 -1.1851  0.6731
    2CHL1   C23  133   0.332   4.212   5.627  0.0588 -0.1615 -0.3778
    2CHL1  H23A  134   0.361   4.318   5.614  0.5430  0.0497  2.0191
    2CHL1  H23B  135   0.424   4.152   5.645  0.0781 -0.0900 -0.2395
    2CHL1   C24  136   0.273   4.167   5.489  0.5097  0.0332 -0.3311
    2CHL1  H24A  137   0.230   4.068   5.515  0.8846 -0.2664 -0.8232
    2CHL1  H24B  138   0.195   4.234   5.446  0.7848 -0.9085 -2.4407
    2CHL1   C25  139   0.367   4.146   5.371 -0.4605  0.7064 -0.0428
    2CHL1   H25  140   0.465   4.099   5.391  0.1053  1.1748 -1.5805
    2CHL1   C26  141   0.302   4.061   5.259 -0.0289 -0.0019 -0.0767
    2CHL1  H26A  142   0.213   4.113   5.217  0.3040  0.0129 -0.7768
    2CHL1  H26B  143   0.378   4.045   5.180  2.1170  0.5459  1.7671
    2CHL1  H26C  144   0.269   3.961   5.292 -1.8217  1.0660  1.5679
    2CHL1   C27  145   0.417   4.284   5.314 -0.3919  0.9653 -0.0155
    2CHL1  H27A  146   0.472   4.319   5.404 -1.0078  0.3411  0.6232
    2CHL1  H27B  147   0.485   4.273   5.226 -2.0426  0.1047 -1.2292
    2CHL1  H27C  148   0.336   4.357   5.297  0.5762  2.3990  1.2569
    3CHL1    C3  149   1.060   4.081   7.256  0.1909 -0.0021 -0.1985
    3CHL1    H3  150   1.059   4.192   7.255  0.6473  0.0104  0.3030
    3CHL1    O3  151   1.069   4.052   7.391 -0.1256 -0.0254  0.5885
    3CHL1   H3'  152   1.165   4.061   7.400  0.1596 -1.1058 -0.9426
    3CHL1    C4  153   0.926   4.040   7.203 -0.3375  0.3088 -0.1031
    3CHL1   H4A  154   0.915   3.935   7.238  0.2606  1.2765  3.3155
    3CHL1   H4B  155   0.849   4.101   7.254  0.5803  0.2914  1.3541
    3CHL1    C5  156   0.909   4.061   7.055  0.0897  0.2030  0.0342
    3CHL1    C6  157   0.821   4.152   7.007  0.3174  0.4866 -0.1581
    3CHL1    H6  158   0.752   4.215   7.067 -0.8198  1.1397 -2.0656
    3CHL1    C7  159   0.792   4.168   6.861  0.1016  0.1256  0.5576
    3CHL1   H7A  160   0.682   4.166   6.848  0.0075  0.9767  1.1055
    3CHL1   H7B  161   0.836   4.263   6.823  1.7003 -0.4533  0.8768
    3CHL1    C8  162   0.847   4.055   6.774 -0.4505  0.1253 -0.1148
    3CHL1    H8  163   0.777   3.970   6.787  0.5333 -0.5699  0.8743
    3CHL1   C14  164   0.847   4.102   6.630  0.1549 -0.1471  0.0220
    3CHL1   H14  165   0.915   4.189   6.624 -0.9327  0.6545 -1.3566
    3CHL1   C15  166   0.720   4.163   6.580  0.1696  0.2487 -0.2467
    3CHL1  H15A  167   0.630   4.107   6.614  0.4440  0.4762  0.8982
    3CHL1  H15B  168   0.709   4.265   6.621  4.0283  0.9554 -0.5339
    3CHL1   C16  169   0.744   4.149   6.428  0.2837 -0.4015  0.9685
    3CHL1  H16A  170   0.652   4.109   6.379  0.6618 -0.1109 -0.0111
    3CHL1  H16B  171   0.748   4.250   6.383 -1.1781 -0.8431 -0.2900
    3CHL1   C17  172   0.867   4.061   6.399  0.4343  0.0552  0.2608
    3CHL1   H17  173   0.950   4.132   6.377  0.5369  0.6334  2.3161
    3CHL1   C13  174   0.891   3.991   6.537 -0.6154  0.0539  1.2337
    3CHL1   C18  175   0.808   3.869   6.531 -0.0446 -0.4465 -0.1346
    3CHL1  H18A  176   0.859   3.796   6.464  0.3893  1.3680 -1.8631
    3CHL1  H18B  177   0.810   3.822   6.632  1.0672  0.0365  0.0836
    3CHL1  H18C  178   0.701   3.885   6.505  0.3957  0.6715 -1.3497
    3CHL1   C12  179   1.040   3.953   6.568 -0.2084  0.2518  0.8852
    3CHL1  H12A  180   1.095   3.872   6.515 -0.8627 -0.1606  0.8327
    3CHL1  H12B  181   1.088   4.050   6.543 -0.5622 -0.0015 -0.9071
    3CHL1   C11  182   1.052   3.912   6.720  0.3090  0.1163  0.0895
    3CHL1  H11A  183   1.002   3.813   6.722 -1.4909  0.9978  0.2058
    3CHL1  H11B  184   1.158   3.888   6.742 -0.1604 -0.7153  1.5709
    3CHL1    C9  185   0.992   4.019   6.815 -0.0980  0.4018 -0.8664
    3CHL1    H9  186   1.055   4.110   6.810  0.1187  0.3774  0.7832
    3CHL1   C10  187   1.001   3.982   6.970 -0.0007  1.5099  0.3175
    3CHL1   C19  188   0.975   3.831   6.983  0.3648 -0.4377  0.4142
    3CHL1  H19A  189   1.063   3.780   6.938  0.3693  0.8428 -1.1030
    3CHL1  H19B  190   0.967   3.791   7.087  0.5686  0.1164  0.6491
    3CHL1  H19C  191   0.895   3.798   6.914  1.2203  1.7957 -1.7835
    3CHL1    C1  192   1.146   4.010   7.018  0.7083 -0.4413  0.6211
    3CHL1   H1A  193   1.212   3.942   6.959  0.0862 -0.7858  0.3090
    3CHL1   H1B  194   1.159   4.116   6.987 -2.4682 -0.0726  0.1661
    3CHL1    C2  195   1.169   4.008   7.171  0.2210 -0.4340 -0.7442
    3CHL1   H2A  196   1.257   4.073   7.188 -0.8514  1.8299 -3.1756
    3CHL1   H2B  197   1.182   3.907   7.217  1.3027  0.3375  0.7265
    3CHL1   C20  198   0.859   3.983   6.258  0.3270  0.5111 -0.0498
    3CHL1   H20  199   0.795   3.891   6.258  0.8430  0.1012 -1.9412
    3CHL1   C21  200   1.007   3.938   6.242  0.4334 -0.1884 -0.1597
    3CHL1  H21A  201   1.033   3.865   6.321 -0.0872 -1.6423 -1.2673
    3CHL1  H21B  202   1.074   4.027   6.234 -1.4975  1.5276  1.5915
    3CHL1  H21C  203   1.013   3.877   6.149 -2.1596  1.5206 -1.5769
    3CHL1   C22  204   0.806   4.076   6.142 -0.1128  0.3514  0.0326
    3CHL1  H22A  205   0.703   4.105   6.171 -0.0379 -2.1386  3.3024
    3CHL1  H22B  206   0.879   4.161   6.143  2.8496 -2.0101 -0.4212
    3CHL1   C23  207   0.802   4.013   6.007  0.0937 -0.5020 -0.0691
    3CHL1  H23A  208   0.911   4.001   5.991  0.1103 -2.5157  1.2885
    3CHL1  H23B  209   0.762   3.910   6.000  1.2548 -0.9981  0.3101
    3CHL1   C24  210   0.737   4.100   5.899 -0.1236 -0.0802  0.7198
    3CHL1  H24A  211   0.627   4.097   5.911 -0.3501 -1.9824 -1.1649
    3CHL1  H24B  212   0.775   4.204   5.906 -1.4414  0.5680 -1.1143
    3CHL1   C25  213   0.770   4.061   5.752 -0.0258 -0.3380 -0.6400
    3CHL1   H25  214   0.880   4.058   5.741 -0.1519  0.4904 -2.5563
    3CHL1   C26  215   0.697   3.936   5.713  0.3852 -1.2377 -0.6780
    3CHL1  H26A  216   0.590   3.943   5.739 -0.0570 -1.4748 -2.3370
    3CHL1  H26B  217   0.699   3.925   5.602 -2.1922  4.6038 -1.6717
    3CHL1  H26C  218   0.748   3.850   5.761  0.5108 -1.0477 -0.4662
    3CHL1   C27  219   0.741   4.176   5.652 -0.5495 -0.3398 -0.0839
    3CHL1  H27A  220   0.746   4.131   5.550 -2.2455 -0.3453 -0.1899
    3CHL1  H27B  221   0.654   4.242   5.675  0.3681  0.3954  1.4609
    3CHL1  H27C  222   0.828   4.244   5.669 -0.2220 -0.5395 -0.9168
    4CHL1    C3  223   6.235   4.855   6.976  0.2909 -0.1672  0.8433
    4CHL1    H3  224   6.206   4.963   6.973  2.1689  0.3571 -1.0866
    4CHL1    O3  225   6.248   4.809   7.110  0.4910  0.6093 -0.2215
    4CHL1   H3'  226   6.159   4.802   7.148 -0.1197 -2.9987 -1.9383
    4CHL1    C4  227   6.147   4.765   6.894  0.5805  0.0774  0.4643
    4CHL1   H4A  228   6.176   4.660   6.917 -0.7354 -0.0088  1.8819
    4CHL1   H4B  229   6.041   4.766   6.928 -0.0892 -2.2605 -1.2628
    4CHL1    C5  230   6.141   4.787   6.740 -0.4104  0.1264  0.1995
    4CHL1    C6  231   6.026   4.799   6.665  0.0381 -0.6572  0.7892
    4CHL1    H6  232   5.931   4.795   6.720 -0.8376  1.7753 -0.4281
    4CHL1    C7  233   6.026   4.819   6.519 -0.4783 -0.3575  0.2230
    4CHL1   H7A  234   5.965   4.742   6.469  0.7641 -0.0897 -1.7983
    4CHL1   H7B  235   5.983   4.919   6.498  1.4356  0.3464 -0.5805
    4CHL1    C8  236   6.162   4.811   6.452 -0.0649 -0.4938 -0.5886
    4CHL1    H8  237   6.176   4.703   6.430  0.5987 -0.0765 -2.3600
    4CHL1   C14  238   6.165   4.873   6.318 -0.0751 -0.3819  0.5205
    4CHL1   H14  239   6.144   4.982   6.330  0.4647 -0.2790  0.5721
    4CHL1   C15  240   6.050   4.838   6.221  0.0637  0.2733 -0.0766
    4CHL1  H15A  241   6.034   4.729   6.223 -1.2889  0.4673  1.4893
    4CHL1  H15B  242   5.956   4.891   6.246 -0.4372  0.6578 -2.5181
    4CHL1   C16  243   6.102   4.879   6.080 -0.6789 -0.2448 -0.4585
    4CHL1  H16A  244   6.102   4.791   6.013 -0.5480 -1.0403  0.5670
    4CHL1  H16B  245   6.036   4.958   6.036  1.1618  2.2893  1.0921
    4CHL1   C17  246   6.247   4.933   6.111 -0.3431 -0.1553  0.0661
    4CHL1   H17  247   6.235   5.038   6.145  2.1512  0.4001 -0.5288
    4CHL1   C13  248   6.294   4.856   6.235  0.2763 -0.7718 -0.3156
    4CHL1   C18  249   6.331   4.709   6.202 -1.2184  0.2366  0.1153
    4CHL1  H18A  250   6.422   4.703   6.139  0.2790 -0.3202  2.2037
    4CHL1  H18B  251   6.363   4.665   6.299 -0.9737  1.0267  0.4061
    4CHL1  H18C  252   6.239   4.665   6.158  0.6076 -1.3981 -2.3503
    4CHL1   C12  253   6.406   4.931   6.313 -0.5980  0.1372  0.2898
    4CHL1  H12A  254   6.495   4.901   6.252 -0.5443 -1.0699  0.9194
    4CHL1  H12B  255   6.394   5.041   6.311  2.0522  0.5875  2.7462
    4CHL1   C11  256   6.415   4.860   6.456  0.1103 -0.6137  0.1776
    4CHL1  H11A  257   6.450   4.755   6.444 -0.0990 -1.0208  2.5376
    4CHL1  H11B  258   6.497   4.916   6.506 -0.0551 -2.4818  2.7665
    4CHL1    C9  259   6.281   4.865   6.541 -0.5496 -0.7132 -0.4742
    4CHL1    H9  260   6.249   4.971   6.544 -0.1100 -0.5411 -1.4587
    4CHL1   C10  261   6.282   4.797   6.680  0.0361 -0.7295  0.3289
    4CHL1   C19  262   6.327   4.655   6.679  0.2965  0.7036 -0.2260
    4CHL1  H19A  263   6.263   4.584   6.622  1.8126 -0.7850 -0.1735
    4CHL1  H19B  264   6.428   4.663   6.631  0.6107  1.9506  0.6062
    4CHL1  H19C  265   6.336   4.612   6.781  1.9191 -0.5166 -0.8210
    4CHL1    C1  266   6.382   4.887   6.767 -0.1501 -0.1164  0.1504
    4CHL1   H1A  267   6.482   4.851   6.733  0.8346 -1.5102  4.0152
    4CHL1   H1B  268   6.354   4.992   6.746 -1.1750 -0.3776  0.1706
    4CHL1    C2  269   6.377   4.855   6.915 -0.3327  0.0973 -0.6383
    4CHL1   H2A  270   6.446   4.915   6.978 -1.1826  0.8387 -0.3831
    4CHL1   H2B  271   6.418   4.752   6.922  0.7479  0.5092 -0.8184
    4CHL1   C20  272   6.340   4.940   5.996  0.0702  0.2357  0.1002
    4CHL1   H20  273   6.389   4.842   5.976  1.0470  0.7430 -0.0409
    4CHL1   C21  274   6.463   5.035   6.020 -0.3215  0.1700 -0.6845
    4CHL1  H21A  275   6.545   5.006   6.089 -0.2354  1.9761  0.0184
    4CHL1  H21B  276   6.438   5.137   6.056  2.1324 -0.0066  1.8944
    4CHL1  H21C  277   6.503   5.057   5.919  1.0420  0.8258 -0.0232
    4CHL1   C22  278   6.267   4.985   5.867  0.5956  0.0134  0.2777
    4CHL1  H22A  279   6.173   4.933   5.839  1.4166 -1.8748  0.8923
    4CHL1  H22B  280   6.258   5.094   5.884  2.2878  0.1878  0.2187
    4CHL1   C23  281   6.349   4.971   5.727  0.7622  0.2588  0.2940
    4CHL1  H23A  282   6.395   5.071   5.716  0.4960  0.2388 -1.1796
    4CHL1  H23B  283   6.429   4.894   5.738  0.8329 -0.1088 -2.2028
    4CHL1   C24  284   6.264   4.957   5.605  0.1713  0.1608 -0.3538
    4CHL1  H24A  285   6.203   4.864   5.598 -0.9519  0.8869 -0.4023
    4CHL1  H24B  286   6.194   5.042   5.592 -1.1409 -0.6222  1.2583
    4CHL1   C25  287   6.342   4.962   5.474 -0.3501 -0.2461 -0.1259
    4CHL1   H25  288   6.412   4.876   5.471 -0.2209 -0.2277  1.7245
    4CHL1   C26  289   6.246   4.940   5.356 -0.6447 -0.2031  0.2864
    4CHL1  H26A  290   6.164   5.016   5.350 -1.8230 -1.5312 -1.3622
    4CHL1  H26B  291   6.296   4.944   5.258 -1.1824 -0.0713  0.0116
    4CHL1  H26C  292   6.199   4.841   5.369  0.9362 -0.9934  0.1806
    4CHL1   C27  293   6.410   5.101   5.453 -0.2608  0.2646 -0.3884
    4CHL1  H27A  294   6.487   5.128   5.528 -0.2354  1.1888 -0.7342
    4CHL1  H27B  295   6.460   5.109   5.354 -1.1205  1.5476 -0.7363
    4CHL1  H27C  296   6.334   5.182   5.456  0.1231  0.6282 -0.5502
    5CHL1    C3  297   6.656   5.415   7.241 -0.4749 -0.3501 -1.2490
    5CHL1    H3  298   6.550   5.446   7.228 -0.1143  1.9110  0.5422
    5CHL1    O3  299   6.701   5.400   7.377  0.2457  0.2101 -0.1722
    5CHL1   H3'  300   6.686   5.486   7.417 -0.1878 -0.4644  1.2176
    5CHL1    C4  301   6.682   5.279   7.174  0.3354 -0.3269  0.4540
    5CHL1   H4A  302   6.784   5.247   7.207  0.4676 -1.9416 -1.3830
    5CHL1   H4B  303   6.601   5.215   7.215  0.2946 -0.5683 -0.0041
    5CHL1    C5  304   6.663   5.294   7.027  0.1419  0.6728  0.2624
    5CHL1    C6  305   6.578   5.208   6.963  0.4368 -0.3252  0.6109
    5CHL1    H6  306   6.529   5.126   7.018  1.4726 -1.8379 -0.6414
    5CHL1    C7  307   6.574   5.194   6.811  0.1559 -0.7104 -1.0658
    5CHL1   H7A  308   6.586   5.087   6.782 -0.6871 -0.1119 -3.8959
    5CHL1   H7B  309   6.470   5.226   6.792 -0.1799 -0.2731  1.2737
    5CHL1    C8  310   6.681   5.280   6.734  0.3700  0.0947  0.0637
    5CHL1    H8  311   6.779   5.228   6.735 -0.2009 -1.1835 -2.2597
    5CHL1   C14  312   6.629   5.316   6.591 -0.0807 -0.0253 -0.3666
    5CHL1   H14  313   6.541   5.382   6.602  0.9564  1.4030 -0.2746
    5CHL1   C15  314   6.582   5.206   6.499 -0.3469  0.4601 -0.3655
    5CHL1  H15A  315   6.657   5.126   6.483  2.4021  2.8871 -0.5347
    5CHL1  H15B  316   6.484   5.160   6.523 -0.2907  0.5987  0.1588
    5CHL1   C16  317   6.578   5.273   6.361  1.1392  0.2778 -0.4395
    5CHL1  H16A  318   6.611   5.206   6.279 -1.0914  1.1750 -2.1946
    5CHL1  H16B  319   6.472   5.307   6.354  1.1679  1.0544  1.9847
    5CHL1   C17  320   6.657   5.406   6.377 -0.2769 -0.2616 -0.3772
    5CHL1   H17  321   6.586   5.491   6.385 -0.1954  0.0568 -2.4561
    5CHL1   C13  322   6.733   5.402   6.515 -0.7777  0.7405  0.1363
    5CHL1   C18  323   6.863   5.331   6.492 -0.1089 -0.0352 -0.0260
    5CHL1  H18A  324   6.847   5.235   6.440 -1.0667  0.8199 -1.3556
    5CHL1  H18B  325   6.935   5.382   6.425 -1.5642 -2.0173 -3.3284
    5CHL1  H18C  326   6.917   5.319   6.589  1.0978  2.2026 -0.3427
    5CHL1   C12  327   6.742   5.532   6.588  0.1082 -0.1902  0.1586
    5CHL1  H12A  328   6.815   5.595   6.533 -0.8324  1.6657  0.9464
    5CHL1  H12B  329   6.641   5.578   6.594  0.3060  0.1157  1.5817
    5CHL1   C11  330   6.805   5.514   6.729  0.7906 -0.1199 -0.3094
    5CHL1  H11A  331   6.908   5.473   6.726  0.5791 -0.6538 -0.4616
    5CHL1  H11B  332   6.812   5.609   6.786 -1.8979  0.5391 -0.9165
    5CHL1    C9  333   6.708   5.415   6.805  0.4191 -0.8440  0.2690
    5CHL1    H9  334   6.608   5.462   6.804  1.4370  1.5135  1.4737
    5CHL1   C10  335   6.743   5.394   6.957  0.8423 -0.1540 -0.0680
    5CHL1   C19  336   6.897   5.359   6.965  0.4117 -0.4143  0.4828
    5CHL1  H19A  337   6.954   5.435   6.909  0.6373 -0.4007  0.7280
    5CHL1  H19B  338   6.934   5.353   7.070  0.9052 -0.1503  0.3217
    5CHL1  H19C  339   6.916   5.256   6.927 -2.3715 -0.7660 -0.1963
    5CHL1    C1  340   6.718   5.529   7.030  0.5086 -0.0416  0.2484
    5CHL1   H1A  341   6.773   5.621   7.002  0.8557  0.1547  1.5085
    5CHL1   H1B  342   6.611   5.557   7.017 -0.6625 -3.3725  1.5817
    5CHL1    C2  343   6.746   5.519   7.181 -0.2250  0.4394 -0.0928
    5CHL1   H2A  344   6.712   5.614   7.228 -0.6740 -1.0470  2.7700
    5CHL1   H2B  345   6.855   5.516   7.205 -0.2197  2.5918  0.4055
    5CHL1   C20  346   6.736   5.447   6.248 -0.5341 -0.1402 -0.8708
    5CHL1   H20  347   6.800   5.361   6.219  0.5616 -0.1264  1.3250
    5CHL1   C21  348   6.825   5.574   6.272 -0.0227 -0.0977  0.1609
    5CHL1  H21A  349   6.904   5.560   6.349  0.0825 -0.4635 -0.0080
    5CHL1  H21B  350   6.762   5.658   6.307  0.5242  0.4773 -0.2010
    5CHL1  H21C  351   6.872   5.593   6.173  0.5147 -2.1547 -0.0360
    5CHL1   C22  352   6.632   5.479   6.139  0.0828  0.0762  0.0779
    5CHL1  H22A  353   6.549   5.405   6.144 -2.0076  2.2930  0.0228
    5CHL1  H22B  354   6.586   5.578   6.160  1.0060  0.6736 -0.6265
    5CHL1   C23  355   6.695   5.465   5.990  0.3440 -0.1072  0.6325
    5CHL1  H23A  356   6.616   5.511   5.927  0.0833 -2.1373 -0.6187
    5CHL1  H23B  357   6.784   5.531   5.988  2.2831 -2.5917  0.0393
    5CHL1   C24  358   6.730   5.320   5.946  0.0721  0.6809  0.8838
    5CHL1  H24A  359   6.805   5.272   6.013 -0.0515 -0.2461  0.3702
    5CHL1  H24B  360   6.647   5.246   5.944  0.1327  0.6187 -1.0400
    5CHL1   C25  361   6.759   5.320   5.793  0.7148  0.2140 -0.4905
    5CHL1   H25  362   6.814   5.414   5.771 -3.5390  2.7729 -1.4176
    5CHL1   C26  363   6.844   5.204   5.754 -0.4777  0.1855  0.8582
    5CHL1  H26A  364   6.922   5.232   5.680 -2.3223  0.5163 -1.0423
    5CHL1  H26B  365   6.896   5.163   5.844  0.1042 -0.0686  0.4119
    5CHL1  H26C  366   6.788   5.115   5.719  0.2918  0.0201 -0.0005
    5CHL1   C27  367   6.630   5.312   5.711  0.2748  0.3343 -0.4088
    5CHL1  H27A  368   6.579   5.214   5.721  1.1959 -0.1818 -0.6858
    5CHL1  H27B  369   6.553   5.389   5.736 -0.6249  0.5305 -3.3626
    5CHL1  H27C  370   6.640   5.319   5.600 -2.1468  1.1089 -0.6480
    6CHL1    C3  371   6.524   3.998   6.894 -0.4416 -0.4055  0.1597
    6CHL1    H3  372   6.628   4.029   6.868  0.0118 -2.1998 -0.3171
    6CHL1    O3  373   6.510   3.979   7.036  0.1399 -0.5689  0.3646
    6CHL1   H3'  374   6.416   3.977   7.054  0.3062  2.8339  2.5786
    6CHL1    C4  375   6.435   4.114   6.850 -0.5279 -0.9248 -0.6080
    6CHL1   H4A  376   6.332   4.081   6.874 -1.1425  0.2067 -1.5817
    6CHL1   H4B  377   6.462   4.197   6.919  1.2172 -0.1751 -2.1368
    6CHL1    C5  378   6.445   4.142   6.702  0.0140  0.1460 -0.5108
    6CHL1    C6  379   6.494   4.258   6.668  0.1899  0.3869 -0.1761
    6CHL1    H6  380   6.520   4.327   6.751 -0.7122  1.0846 -0.4636
    6CHL1    C7  381   6.527   4.292   6.525 -0.3809  0.1058 -0.0698
    6CHL1   H7A  382   6.490   4.394   6.501 -1.1764 -0.2557 -0.3851
    6CHL1   H7B  383   6.636   4.286   6.503  0.0302  2.3577  0.9682
    6CHL1    C8  384   6.455   4.206   6.427 -0.0560 -0.1468  0.5137
    6CHL1    H8  385   6.347   4.230   6.426 -0.3224 -1.2984 -0.3890
    6CHL1   C14  386   6.522   4.215   6.286 -0.4350 -0.2400  0.1976
    6CHL1   H14  387   6.625   4.182   6.313 -0.8889 -1.0115  1.0792
    6CHL1   C15  388   6.550   4.350   6.229 -0.3900 -0.3944 -0.1823
    6CHL1  H15A  389   6.453   4.405   6.236 -0.1976  0.0974 -1.2596
    6CHL1  H15B  390   6.623   4.408   6.289  1.1046 -1.5982 -0.7836
    6CHL1   C16  391   6.595   4.323   6.082  0.2777 -0.1931  0.0637
    6CHL1  H16A  392   6.532   4.391   6.020  0.9938 -0.3155 -0.8283
    6CHL1  H16B  393   6.703   4.347   6.064  0.2863  1.4693  1.9854
    6CHL1   C17  394   6.572   4.172   6.046  0.7823 -0.3474  0.1726
    6CHL1   H17  395   6.665   4.114   6.067  1.9234  1.1955 -0.4176
    6CHL1   C13  396   6.471   4.137   6.164  0.4572  0.2646 -0.8475
    6CHL1   C18  397   6.327   4.186   6.127  1.2491 -0.2846 -0.1477
    6CHL1  H18A  398   6.266   4.108   6.077 -2.0156  2.3408 -0.6129
    6CHL1  H18B  399   6.280   4.213   6.224  3.1022  0.1182  0.6935
    6CHL1  H18C  400   6.328   4.280   6.068 -1.6198  1.0151  1.6412
    6CHL1   C12  401   6.472   3.984   6.206  0.4742 -0.4257 -0.2005
    6CHL1  H12A  402   6.425   3.918   6.130 -0.8632  0.2302  0.0146
    6CHL1  H12B  403   6.581   3.965   6.214  0.1352 -2.9182 -0.5887
    6CHL1   C11  404   6.405   3.966   6.352  0.0118 -0.6896  1.0044
    6CHL1  H11A  405   6.296   3.977   6.334  0.1878 -1.6035 -1.0288
    6CHL1  H11B  406   6.430   3.861   6.379  1.2192 -0.5517  0.5261
    6CHL1    C9  407   6.466   4.055   6.460 -0.1323  0.3032  0.0073
    6CHL1    H9  408   6.572   4.021   6.456  0.0453  0.6756  1.2844
    6CHL1   C10  409   6.414   4.019   6.604 -0.3302 -0.0636  1.1098
    6CHL1   C19  410   6.262   3.995   6.591 -0.0638 -0.5266  0.2246
    6CHL1  H19A  411   6.209   3.989   6.689 -3.1656 -0.9284 -1.3529
    6CHL1  H19B  412   6.215   4.075   6.529  1.4072 -1.8220 -2.7548
    6CHL1  H19C  413   6.242   3.895   6.546  2.3140 -1.2800  0.7049
    6CHL1    C1  414   6.491   3.897   6.660 -0.1432  0.4734 -0.5955
    6CHL1   H1A  415   6.440   3.808   6.619 -1.1380 -0.3118  2.0941
    6CHL1   H1B  416   6.601   3.889   6.647  0.3579  3.4122  1.0012
    6CHL1    C2  417   6.470   3.874   6.815  0.3768 -0.0733  0.4357
    6CHL1   H2A  418   6.527   3.783   6.843  1.1980  0.1784 -0.3921
    6CHL1   H2B  419   6.364   3.852   6.841  0.1153 -1.0843 -1.3579
    6CHL1   C20  420   6.518   4.156   5.900 -0.0150  0.0025  0.5529
    6CHL1   H20  421   6.414   4.191   5.887  0.9477  2.9332  0.0282
    6CHL1   C21  422   6.538   4.004   5.867  0.1428 -0.4999  0.7129
    6CHL1  H21A  423   6.473   3.938   5.926  0.4340 -2.1155 -0.6964
    6CHL1  H21B  424   6.641   3.970   5.894  0.0422  0.9597  3.2893
    6CHL1  H21C  425   6.523   3.980   5.759  2.5437  0.6439  0.0422
    6CHL1   C22  426   6.600   4.243   5.806  0.1900 -0.1281  0.1777
    6CHL1  H22A  427   6.589   4.351   5.829 -1.8597 -0.7089  2.4151
    6CHL1  H22B  428   6.708   4.232   5.829  0.3172 -1.0017 -0.7637
    6CHL1   C23  429   6.584   4.216   5.654 -0.6972 -0.0875  0.4980
    6CHL1  H23A  430   6.626   4.118   5.622  0.3808  0.9928 -1.5454
    6CHL1  H23B  431   6.475   4.213   5.630 -0.8593 -3.2184  1.1847
    6CHL1   C24  432   6.654   4.324   5.565  0.2187 -0.4049  0.3972
    6CHL1  H24A  433   6.618   4.423   5.601  0.5552 -0.0774 -0.1425
    6CHL1  H24B  434   6.764   4.323   5.578  0.1814  0.0840  0.8029
    6CHL1   C25  435   6.617   4.319   5.411 -0.1811  1.0978  0.2457
    6CHL1   H25  436   6.512   4.352   5.395 -0.8662 -1.6398 -1.4683
    6CHL1   C26  437   6.714   4.418   5.337  0.4264  0.8358 -0.6957
    6CHL1  H26A  438   6.816   4.381   5.313 -0.5694 -0.1956 -3.9784
    6CHL1  H26B  439   6.679   4.461   5.241 -1.1364  0.2131 -0.4291
    6CHL1  H26C  440   6.736   4.502   5.406  2.2154 -0.1085 -0.0646
    6CHL1   C27  441   6.623   4.178   5.356  0.0465 -0.7128  0.1845
    6CHL1  H27A  442   6.535   4.127   5.400  0.3229  0.4292  2.1719
    6CHL1  H27B  443   6.606   4.163   5.247  0.8757  1.7924 -0.3494
    6CHL1  H27C  444   6.719   4.131   5.387 -0.0414 -0.0957  1.4320
    7CHL1    C3  445   0.218   3.258   7.347  0.0188  0.1656  0.1499
    7CHL1    H3  446   0.128   3.192   7.344 -0.6848  1.0326  1.1637
    7CHL1    O3  447   0.222   3.313   7.477  0.4138  0.2567 -0.7276
    7CHL1   H3'  448   0.283   3.388   7.480 -1.5740  1.9222  0.7358
    7CHL1    C4  449   0.339   3.168   7.330 -0.5615  0.4574 -0.2032
    7CHL1   H4A  450   0.424   3.238   7.349 -0.2427  0.0441 -0.0837
    7CHL1   H4B  451   0.347   3.083   7.401 -0.0175  0.0607 -0.7322
    7CHL1    C5  452   0.340   3.114   7.184  0.2245 -0.6607 -0.2492
    7CHL1    C6  453   0.340   2.982   7.154 -0.2251  0.1389  0.3103
    7CHL1    H6  454   0.343   2.913   7.239 -0.3499 -0.4908 -0.1923
    7CHL1    C7  455   0.363   2.923   7.015  0.0466  0.3087  0.4054
    7CHL1   H7A  456   0.442   2.846   7.020  0.1806  0.5217  2.2348
    7CHL1   H7B  457   0.267   2.881   6.980 -1.2834  2.6046  1.0848
    7CHL1    C8  458   0.414   3.029   6.913 -0.1508 -0.0761  0.0272
    7CHL1    H8  459   0.522   3.042   6.935  0.1176 -2.5722  0.4203
    7CHL1   C14  460   0.389   2.984   6.767  0.3354 -0.1347 -0.1334
    7CHL1   H14  461   0.278   2.976   6.764  0.3428 -0.3004  0.0634
    7CHL1   C15  462   0.435   2.844   6.726  0.4399 -0.2814 -0.2477
    7CHL1  H15A  463   0.539   2.828   6.763  0.3607 -2.2379 -0.7557
    7CHL1  H15B  464   0.373   2.763   6.767  1.9142 -1.6824 -0.6757
    7CHL1   C16  465   0.432   2.845   6.574  0.1114 -0.4296  0.2690
    7CHL1  H16A  466   0.527   2.816   6.525  0.2178  0.6206 -0.1684
    7CHL1  H16B  467   0.343   2.792   6.535 -1.8313  2.0031  1.1419
    7CHL1   C17  468   0.392   2.991   6.538  0.0662  0.1218 -0.2061
    7CHL1   H17  469   0.282   3.000   6.527  0.2326  1.7601 -0.9004
    7CHL1   C13  470   0.429   3.082   6.661 -0.3240  0.4313  0.6620
    7CHL1   C18  471   0.588   3.092   6.656 -0.2609 -0.2734 -0.5185
    7CHL1  H18A  472   0.613   3.190   6.611 -1.7472 -0.0204 -0.8609
    7CHL1  H18B  473   0.630   3.097   6.759 -1.3654  2.6468 -0.0903
    7CHL1  H18C  474   0.641   3.015   6.596 -2.7122  1.1508 -4.9657
    7CHL1   C12  475   0.362   3.216   6.677 -0.1667  0.0518  0.4225
    7CHL1  H12A  476   0.401   3.281   6.596  1.6553  0.2360  1.4025
    7CHL1  H12B  477   0.253   3.197   6.659  0.4272 -4.4614  0.3577
    7CHL1   C11  478   0.392   3.274   6.817  0.0142  0.6074 -0.0738
    7CHL1  H11A  479   0.502   3.290   6.820  0.1015  0.0244 -0.0859
    7CHL1  H11B  480   0.337   3.368   6.836 -0.9733  0.1724 -0.7019
    7CHL1    C9  481   0.345   3.166   6.927  0.7214  0.3969  0.5290
    7CHL1    H9  482   0.241   3.147   6.893  1.0637  0.2730 -0.5037
    7CHL1   C10  483   0.344   3.224   7.072  0.0926  0.3668 -0.2837
    7CHL1   C19  484   0.466   3.324   7.082  0.0429  0.0913 -0.5323
    7CHL1  H19A  485   0.498   3.344   7.187 -2.6637 -0.1659  0.4100
    7CHL1  H19B  486   0.556   3.267   7.048  0.5634  2.3047 -3.2218
    7CHL1  H19C  487   0.469   3.422   7.031  2.1631  0.5430  0.3419
    7CHL1    C1  488   0.213   3.307   7.095 -0.4799  0.0674 -0.0381
    7CHL1   H1A  489   0.224   3.391   7.024 -0.3629  0.2240  0.1615
    7CHL1   H1B  490   0.122   3.247   7.071  0.0055  0.0068 -1.8730
    7CHL1    C2  491   0.216   3.366   7.245 -0.1260  1.0007 -0.8948
    7CHL1   H2A  492   0.126   3.428   7.266  1.4014  2.6537  1.2478
    7CHL1   H2B  493   0.304   3.433   7.258  1.3992 -0.7890 -1.5793
    7CHL1   C20  494   0.440   3.034   6.398  0.2550 -0.4023 -0.4637
    7CHL1   H20  495   0.551   3.046   6.396  0.3723 -1.2606 -2.9763
    7CHL1   C21  496   0.361   3.162   6.352  0.3879  0.4545 -0.1148
    7CHL1  H21A  497   0.404   3.251   6.404 -0.7893  0.3909  1.0422
    7CHL1  H21B  498   0.252   3.144   6.364 -0.0751  0.3261 -3.5793
    7CHL1  H21C  499   0.364   3.169   6.242  0.9110  0.8581 -0.0776
    7CHL1   C22  500   0.428   2.927   6.286  0.1031 -0.3684 -0.4247
    7CHL1  H22A  501   0.482   2.972   6.200  0.0611  0.5063 -0.0027
    7CHL1  H22B  502   0.494   2.840   6.305  0.3837  0.2861  1.7960
    7CHL1   C23  503   0.283   2.889   6.248  0.3014  0.2650  0.1183
    7CHL1  H23A  504   0.231   2.862   6.342  1.0066  0.2184  0.5013
    7CHL1  H23B  505   0.247   2.987   6.209  0.5607  1.3816  2.4851
    7CHL1   C24  506   0.283   2.769   6.155  1.2671 -0.1287 -0.0528
    7CHL1  H24A  507   0.333   2.678   6.195  1.3704 -0.9396 -1.9323
    7CHL1  H24B  508   0.173   2.761   6.144  1.4148 -3.5480 -0.3222
    7CHL1   C25  509   0.328   2.791   6.002 -0.0602 -0.5422  0.4858
    7CHL1   H25  510   0.438   2.797   5.994  0.0211 -0.9143  1.2311
    7CHL1   C26  511   0.290   2.664   5.921 -0.2309  0.0957  0.8018
    7CHL1  H26A  512   0.334   2.575   5.972  0.8834  0.7064  0.9465
    7CHL1  H26B  513   0.179   2.665   5.916 -0.4733  2.4436  3.8067
    7CHL1  H26C  514   0.329   2.672   5.817 -0.8846 -1.0631  0.4430
    7CHL1   C27  515   0.270   2.916   5.931  0.4045  0.7982  0.0177
    7CHL1  H27A  516   0.162   2.893   5.921 -0.0983  2.8451  0.3359
    7CHL1  H27B  517   0.280   3.004   5.998 -1.4341  0.0830  1.3299
    7CHL1  H27C  518   0.319   2.934   5.833  0.8338 -0.5005 -0.0221
    8CHL1    C3  519   5.026   4.585   7.005  0.3551 -0.2361 -0.1664
    8CHL1    H3  520   4.919   4.555   6.999 -0.3085  1.8876 -0.0602
    8CHL1    O3  521   5.065   4.597   7.143 -0.2008 -0.3699  0.2583
    8CHL1   H3'  522   4.998   4.657   7.178 -1.1394 -1.8423  1.0776
    8CHL1    C4  523   5.120   4.482   6.937 -0.3383  0.1163 -0.8106
    8CHL1   H4A  524   5.224   4.512   6.960 -1.1561  1.2914  1.6683
    8CHL1   H4B  525   5.103   4.387   6.992  0.2974  0.6863  0.4323
    8CHL1    C5  526   5.086   4.460   6.792 -0.6245  0.2401  0.0365
    8CHL1    C6  527   5.058   4.340   6.737 -0.4095 -0.1257  0.1307
    8CHL1    H6  528   5.066   4.257   6.808 -1.3517  0.4381  0.9084
    8CHL1    C7  529   5.015   4.320   6.599  0.0153  0.3372 -0.0726
    8CHL1   H7A  530   5.051   4.230   6.544 -3.5456  0.0809 -2.3104
    8CHL1   H7B  531   4.906   4.300   6.602 -0.3601  2.2971  2.6516
    8CHL1    C8  532   5.037   4.436   6.510  0.1796 -0.5688 -0.2975
    8CHL1    H8  533   5.146   4.438   6.491  0.4550  1.8387  1.1952
    8CHL1   C14  534   4.970   4.416   6.373 -0.5144  0.4598  0.4747
    8CHL1   H14  535   4.861   4.412   6.390 -0.6743  0.2817 -0.5011
    8CHL1   C15  536   4.998   4.279   6.300 -0.1867 -0.0929 -0.0201
    8CHL1  H15A  537   5.108   4.264   6.294  0.1375  0.5983  2.7681
    8CHL1  H15B  538   4.946   4.198   6.355 -1.8323  2.3415  2.1863
    8CHL1   C16  539   4.942   4.297   6.156  0.6402 -0.4535  0.3468
    8CHL1  H16A  540   5.027   4.265   6.092  0.1387  0.8265 -1.0035
    8CHL1  H16B  541   4.850   4.240   6.131  0.1000  0.6954 -0.3520
    8CHL1   C17  542   4.920   4.458   6.143  0.2996  0.1615 -0.3640
    8CHL1   H17  543   4.813   4.481   6.162  0.2879 -1.2918  1.7495
    8CHL1   C13  544   5.000   4.520   6.266  0.0619 -0.2147  0.2623
    8CHL1   C18  545   5.149   4.523   6.238 -0.4498 -0.3529  0.0835
    8CHL1  H18A  546   5.173   4.605   6.167  0.4656 -0.1030  0.6717
    8CHL1  H18B  547   5.208   4.548   6.328  2.3535  0.4595 -1.8427
    8CHL1  H18C  548   5.192   4.430   6.195 -0.7555 -0.9642  1.0911
    8CHL1   C12  549   4.945   4.646   6.328  0.3657 -0.3661  0.0004
    8CHL1  H12A  550   4.977   4.729   6.261  1.7814 -0.1066  0.9442
    8CHL1  H12B  551   4.835   4.650   6.332  0.2705  0.2476 -1.9779
    8CHL1   C11  552   5.008   4.674   6.464  0.4072  0.1334 -0.1595
    8CHL1  H11A  553   5.117   4.693   6.450  0.2653  0.6151 -0.6637
    8CHL1  H11B  554   4.955   4.763   6.505  0.0476 -0.6870  1.2272
    8CHL1    C9  555   4.996   4.565   6.571  0.1449 -0.0604  0.1928
    8CHL1    H9  556   4.887   4.553   6.590  0.4557 -2.0646  0.9889
    8CHL1   C10  557   5.070   4.592   6.712  0.1940 -0.4928 -0.4516
    8CHL1   C19  558   5.206   4.657   6.688  0.1674 -0.3792  0.2452
    8CHL1  H19A  559   5.276   4.590   6.634  1.4248 -0.8238  2.3108
    8CHL1  H19B  560   5.191   4.751   6.630  0.4278  1.5055  3.0424
    8CHL1  H19C  561   5.248   4.679   6.788  0.5094 -0.2926  0.0826
    8CHL1    C1  562   4.975   4.696   6.793 -0.0989  0.4196 -0.4711
    8CHL1   H1A  563   4.985   4.791   6.736  0.7193  0.0951 -0.8834
    8CHL1   H1B  564   4.871   4.659   6.798  0.7301 -2.2914 -1.7020
    8CHL1    C2  565   5.023   4.718   6.938  0.3473  1.5422  0.0790
    8CHL1   H2A  566   4.943   4.775   6.990  0.3817  1.0715  0.6511
    8CHL1   H2B  567   5.117   4.776   6.953  1.6699 -0.6354  0.5569
    8CHL1   C20  568   4.954   4.510   6.010  0.2723 -0.4657 -0.7474
    8CHL1   H20  569   5.061   4.484   5.992  0.9852 -0.3849  2.6058
    8CHL1   C21  570   4.926   4.661   6.004 -1.2779 -0.2234 -0.9579
    8CHL1  H21A  571   4.987   4.726   6.070 -1.4858  2.0172 -2.8422
    8CHL1  H21B  572   4.822   4.682   6.038 -0.9747  0.7422 -0.5887
    8CHL1  H21C  573   4.944   4.718   5.911  0.8799 -1.0049 -1.0777
    8CHL1   C22  574   4.872   4.446   5.905  0.6446 -0.2734  0.2506
    8CHL1  H22A  575   4.908   4.341   5.895  0.8711 -0.0667 -1.2675
    8CHL1  H22B  576   4.762   4.458   5.916  0.6974  1.0606 -0.5645
    8CHL1   C23  577   4.901   4.508   5.760 -0.4335 -0.0729 -0.4506
    8CHL1  H23A  578   4.853   4.607   5.745 -2.0471 -1.0001 -1.8135
    8CHL1  H23B  579   5.010   4.526   5.757 -0.3236  0.3451  2.7187
    8CHL1   C24  580   4.846   4.418   5.646  0.1108  0.2556 -0.7150
    8CHL1  H24A  581   4.850   4.315   5.687  0.3873  1.0864  1.5290
    8CHL1  H24B  582   4.737   4.434   5.635  0.2211  1.5048 -0.2435
    8CHL1   C25  583   4.911   4.437   5.503 -0.2248 -0.0941 -0.1924
    8CHL1   H25  584   4.869   4.358   5.438 -1.6302  1.3759 -1.1373
    8CHL1   C26  585   4.869   4.568   5.437  0.7255 -0.2587 -0.0811
    8CHL1  H26A  586   4.917   4.579   5.337 -2.0706  0.4695 -1.4354
    8CHL1  H26B  587   4.759   4.559   5.424  1.0328 -2.7574 -1.7651
    8CHL1  H26C  588   4.901   4.653   5.501 -1.9847 -0.3694  1.5862
    8CHL1   C27  589   5.063   4.420   5.508 -0.5524 -0.8678 -0.2722
    8CHL1  H27A  590   5.125   4.490   5.568  1.8358 -1.3192 -2.0301
    8CHL1  H27B  591   5.087   4.317   5.542  1.6035  0.2968  2.0712
    8CHL1  H27C  592   5.114   4.443   5.411  1.1768  1.4957  1.0711
    9CHL1    C3  593   1.565   4.387   7.029 -0.7991  0.2824  0.6189
    9CHL1    H3  594   1.466   4.419   6.990 -1.0441 -1.5658 -0.3853
    9CHL1    O3  595   1.569   4.361   7.167  0.2863  0.0598  0.7550
    9CHL1   H3'  596   1.641   4.299   7.180  0.0963 -0.4426 -0.4764
    9CHL1    C4  597   1.600   4.247   6.961  0.1450  0.1844 -0.4315
    9CHL1   H4A  598   1.696   4.210   7.004 -0.2035 -0.6512 -0.3684
    9CHL1   H4B  599   1.528   4.170   6.995 -0.4984  1.3415  0.9652
    9CHL1    C5  600   1.607   4.263   6.815  0.3286  0.6236  0.7843
    9CHL1    C6  601   1.520   4.195   6.740 -0.8845  0.0155  0.1490
    9CHL1    H6  602   1.452   4.125   6.789 -0.4970 -1.7868 -1.7484
    9CHL1    C7  603   1.526   4.192   6.584 -0.5273  0.2074 -0.1268
    9CHL1   H7A  604   1.529   4.087   6.548 -0.3040 -0.4094  1.5878
    9CHL1   H7B  605   1.438   4.246   6.542  0.2411  1.8571  0.2692
    9CHL1    C8  606   1.655   4.252   6.531  0.0352 -0.3608  0.3691
    9CHL1    H8  607   1.736   4.181   6.556  0.5393 -0.1981 -0.7539
    9CHL1   C14  608   1.637   4.283   6.378  0.5470  0.3369 -0.7354
    9CHL1   H14  609   1.555   4.358   6.374 -0.4965 -0.7320 -0.0936
    9CHL1   C15  610   1.592   4.174   6.287  0.1558 -0.4149  0.4008
    9CHL1  H15A  611   1.650   4.083   6.311  3.7444  2.2306  2.6371
    9CHL1  H15B  612   1.484   4.150   6.301 -0.4601  0.8974 -1.5916
    9CHL1   C16  613   1.613   4.222   6.141 -0.3636  0.0691 -0.8032
    9CHL1  H16A  614   1.664   4.141   6.084 -0.1081 -0.2140 -0.1876
    9CHL1  H16B  615   1.517   4.249   6.092  0.5637  0.9484 -2.2392
    9CHL1   C17  616   1.702   4.352   6.164 -0.2172  0.1248  0.4907
    9CHL1   H17  617   1.627   4.434   6.157  0.5277  0.7404 -0.5274
    9CHL1   C13  618   1.755   4.346   6.313  0.4100 -0.5611 -1.0030
    9CHL1   C18  619   1.880   4.253   6.327  0.2784  0.3688 -0.1151
    9CHL1  H18A  620   1.967   4.301   6.278  3.3071 -3.6059  0.8291
    9CHL1  H18B  621   1.909   4.242   6.434 -0.8401  0.1862  0.1885
    9CHL1  H18C  622   1.865   4.152   6.283 -0.1918 -0.1662  1.2112
    9CHL1   C12  623   1.767   4.485   6.383  0.2916 -0.7047  0.5013
    9CHL1  H12A  624   1.854   4.543   6.346  0.7676 -1.6888  0.0677
    9CHL1  H12B  625   1.674   4.541   6.357  1.1388 -0.0969 -1.3461
    9CHL1   C11  626   1.785   4.465   6.534  0.6827 -0.2625 -0.1713
    9CHL1  H11A  627   1.887   4.423   6.550  0.4027 -0.7724  0.3073
    9CHL1  H11B  628   1.780   4.563   6.585 -1.6371  0.0258 -0.8706
    9CHL1    C9  629   1.681   4.374   6.606 -0.2677  0.0329 -0.5744
    9CHL1    H9  630   1.588   4.435   6.596  0.5329  1.1166 -1.8492
    9CHL1   C10  631   1.712   4.355   6.764 -0.6469  0.2031 -0.1277
    9CHL1   C19  632   1.851   4.309   6.779 -0.3672 -0.0945  0.0637
    9CHL1  H19A  633   1.867   4.219   6.715 -1.6264  1.1354 -2.0683
    9CHL1  H19B  634   1.926   4.383   6.744 -0.7960 -0.3140 -1.4041
    9CHL1  H19C  635   1.874   4.285   6.885 -3.1564 -2.9129  0.1586
    9CHL1    C1  636   1.685   4.498   6.828  0.1735  0.6919 -0.5555
    9CHL1   H1A  637   1.768   4.566   6.802  0.0138  1.7676  1.5582
    9CHL1   H1B  638   1.587   4.545   6.805 -0.6524 -0.2135  0.9784
    9CHL1    C2  639   1.676   4.482   6.987 -0.6672  0.3253 -0.5644
    9CHL1   H2A  640   1.649   4.585   7.020  0.6073  0.8936 -1.2289
    9CHL1   H2B  641   1.773   4.452   7.030 -1.2560 -0.7680  0.0386
    9CHL1   C20  642   1.807   4.377   6.055 -0.4308 -0.1689  0.3867
    9CHL1   H20  643   1.892   4.306   6.068  2.0413  2.3469 -0.9917
    9CHL1   C21  644   1.862   4.524   6.070  0.3244 -0.1022  0.2007
    9CHL1  H21A  645   1.783   4.594   6.105  0.8809  1.6314 -1.8065
    9CHL1  H21B  646   1.891   4.568   5.973  0.1356  0.2056  0.2816
    9CHL1  H21C  647   1.953   4.527   6.135  1.9789 -1.5187 -1.9214
    9CHL1   C22  648   1.751   4.368   5.910 -0.4918  0.5833  0.5650
    9CHL1  H22A  649   1.825   4.407   5.836 -1.4142 -1.8369 -1.8154
    9CHL1  H22B  650   1.729   4.264   5.879 -0.4577  1.1114 -1.3578
    9CHL1   C23  651   1.621   4.431   5.878 -0.0054  0.6195  0.2498
    9CHL1  H23A  652   1.534   4.410   5.944  0.2920  2.3601  1.2627
    9CHL1  H23B  653   1.623   4.540   5.897  2.6230  0.7950 -0.5572
    9CHL1   C24  654   1.562   4.417   5.738 -0.1378 -0.0810  0.2625
    9CHL1  H24A  655   1.538   4.309   5.727  0.3057 -0.4545  2.5112
    9CHL1  H24B  656   1.465   4.471   5.731  0.5683  1.3116  0.9313
    9CHL1   C25  657   1.664   4.451   5.629  0.3882  0.0022  0.2832
    9CHL1   H25  658   1.754   4.386   5.631 -0.4527 -1.1890  1.6950
    9CHL1   C26  659   1.595   4.429   5.493 -0.0673 -0.1379  0.1656
    9CHL1  H26A  660   1.662   4.464   5.412  1.5185 -1.1572  0.9809
    9CHL1  H26B  661   1.564   4.324   5.472 -2.6766  0.6457 -0.2276
    9CHL1  H26C  662   1.512   4.502   5.488  1.6581  1.8976 -0.0845
    9CHL1   C27  663   1.713   4.588   5.640  0.4864 -0.8338  0.3105
    9CHL1  H27A  664   1.780   4.602   5.727 -2.4314 -2.7613  3.0928
    9CHL1  H27B  665   1.766   4.622   5.548  0.0786 -2.9865 -0.7849
    9CHL1  H27C  666   1.636   4.666   5.661  0.1893 -0.8341 -0.7242
   10CHL1    C3  667   2.184   5.267   6.803 -0.8842 -0.5223  0.4014
   10CHL1    H3  668   2.099   5.208   6.764 -0.8794 -0.5888  0.4923
   10CHL1    O3  669   2.179   5.287   6.940  0.3729  0.1469 -0.4225
   10CHL1   H3'  670   2.186   5.206   6.991 -2.5000  0.6470  1.0246
   10CHL1    C4  671   2.318   5.180   6.783  0.4277  0.1743  0.4719
   10CHL1   H4A  672   2.409   5.230   6.821 -0.0803  0.6011  1.1520
   10CHL1   H4B  673   2.319   5.083   6.838 -3.3496 -0.4139 -0.1632
   10CHL1    C5  674   2.351   5.160   6.637  0.2338 -0.1931 -0.2110
   10CHL1    C6  675   2.375   5.030   6.601  0.0775 -0.3509  0.1760
   10CHL1    H6  676   2.383   4.957   6.684  0.8120  0.3884  0.7766
   10CHL1    C7  677   2.388   4.988   6.464 -0.5797  0.1041 -0.2551
   10CHL1   H7A  678   2.462   4.905   6.466 -0.4416  0.2389  1.0461
   10CHL1   H7B  679   2.287   4.948   6.441 -0.6603  0.1150  0.0782
   10CHL1    C8  680   2.420   5.104   6.369 -0.8531 -0.0725  0.4136
   10CHL1    H8  681   2.528   5.122   6.392 -0.5196 -2.0277  0.5175
   10CHL1   C14  682   2.412   5.056   6.225 -0.5391 -0.2308 -0.0304
   10CHL1   H14  683   2.305   5.032   6.207 -1.0078 -0.2165  2.3886
   10CHL1   C15  684   2.477   4.924   6.182 -0.3452  0.4629 -0.0117
   10CHL1  H15A  685   2.582   4.921   6.218 -0.6365 -1.0885  0.8143
   10CHL1  H15B  686   2.419   4.832   6.206  1.5833 -0.7519  0.1972
   10CHL1   C16  687   2.482   4.929   6.025 -0.0870  0.1779 -0.5709
   10CHL1  H16A  688   2.588   4.917   5.994  0.8016 -0.0557  2.3082
   10CHL1  H16B  689   2.424   4.859   5.962  3.1567 -0.6955 -2.8312
   10CHL1   C17  690   2.421   5.064   5.990  0.5333 -0.0360 -0.5285
   10CHL1   H17  691   2.310   5.057   5.994  0.2529  3.0555  0.2238
   10CHL1   C13  692   2.444   5.160   6.114  0.7794 -0.4313  0.0227
   10CHL1   C18  693   2.599   5.188   6.121  0.2625  0.3203  0.4902
   10CHL1  H18A  694   2.616   5.260   6.038 -2.7623  1.2821  0.5895
   10CHL1  H18B  695   2.622   5.252   6.209 -2.6171  1.0888  0.7617
   10CHL1  H18C  696   2.665   5.098   6.121  1.5552  1.1988  2.4468
   10CHL1   C12  697   2.347   5.277   6.139  0.4213  0.2312 -0.3485
   10CHL1  H12A  698   2.372   5.355   6.062 -0.7642 -0.5080 -1.5126
   10CHL1  H12B  699   2.244   5.242   6.117  0.0857  1.7015 -1.2891
   10CHL1   C11  700   2.362   5.338   6.278  0.8913 -0.0365 -0.2796
   10CHL1  H11A  701   2.446   5.408   6.295 -0.3641  1.5769 -0.4013
   10CHL1  H11B  702   2.274   5.407   6.282 -0.0222 -1.1607 -0.3965
   10CHL1    C9  703   2.334   5.231   6.389 -0.1608  0.5351 -0.2157
   10CHL1    H9  704   2.230   5.195   6.377  0.4649 -1.5750  0.1474
   10CHL1   C10  705   2.333   5.277   6.538  0.1695  0.2315  0.6367
   10CHL1   C19  706   2.449   5.365   6.565 -0.0150  0.5537  0.3924
   10CHL1  H19A  707   2.440   5.458   6.506 -1.1805  0.2748  0.1110
   10CHL1  H19B  708   2.444   5.404   6.668 -0.1529  0.2073  0.5186
   10CHL1  H19C  709   2.545   5.309   6.552 -0.2319 -0.0338  1.2840
   10CHL1    C1  710   2.208   5.364   6.564 -0.1956  0.0258  0.4282
   10CHL1   H1A  711   2.213   5.463   6.515 -0.6383  0.3793  1.0690
   10CHL1   H1B  712   2.112   5.319   6.530 -0.2431  0.4248  0.0268
   10CHL1    C2  713   2.187   5.396   6.717  0.1081  0.3904  0.7333
   10CHL1   H2A  714   2.091   5.449   6.738 -0.6874 -1.4621  2.0159
   10CHL1   H2B  715   2.261   5.473   6.748  0.1090  1.2456 -1.2421
   10CHL1   C20  716   2.462   5.117   5.851  0.3195  0.2109 -0.2776
   10CHL1   H20  717   2.572   5.133   5.855  0.5727 -1.2020 -0.9743
   10CHL1   C21  718   2.403   5.260   5.823  0.0506  0.4231  0.9885
   10CHL1  H21A  719   2.424   5.292   5.719 -2.2063  0.0694  0.3691
   10CHL1  H21B  720   2.450   5.338   5.886 -0.8027 -0.0869  2.2902
   10CHL1  H21C  721   2.293   5.251   5.836 -0.2439 -0.8128 -1.6745
   10CHL1   C22  722   2.432   5.001   5.742 -0.7104  0.3097  0.0508
   10CHL1  H22A  723   2.516   4.930   5.760 -1.5862 -1.0315 -0.9953
   10CHL1  H22B  724   2.333   4.956   5.764 -1.2062  1.2680 -0.1611
   10CHL1   C23  725   2.440   5.047   5.594  0.7063 -0.1040 -0.7523
   10CHL1  H23A  726   2.367   5.128   5.573 -1.9754 -1.9166  0.9405
   10CHL1  H23B  727   2.543   5.086   5.585  0.7123 -0.0553 -0.4738
   10CHL1   C24  728   2.417   4.928   5.494 -0.2461 -0.5253  0.3518
   10CHL1  H24A  729   2.511   4.868   5.491  0.2498 -0.0550  3.5144
   10CHL1  H24B  730   2.323   4.879   5.525 -2.3203  2.0240 -1.4007
   10CHL1   C25  731   2.404   4.975   5.345  0.4126 -0.5167  0.0144
   10CHL1   H25  732   2.491   5.043   5.332 -0.4799  0.7712  0.5761
   10CHL1   C26  733   2.402   4.865   5.234  0.6196 -0.1976 -0.1871
   10CHL1  H26A  734   2.304   4.812   5.243 -0.3968  1.8716  2.0893
   10CHL1  H26B  735   2.412   4.907   5.131 -1.1001 -1.0312 -0.7429
   10CHL1  H26C  736   2.486   4.795   5.255  0.0412 -0.8916 -0.1480
   10CHL1   C27  737   2.283   5.063   5.328  0.2694  0.3019 -0.0678
   10CHL1  H27A  738   2.283   5.162   5.379 -1.7389  1.4839 -2.1670
   10CHL1  H27B  739   2.273   5.092   5.222 -1.5179 -0.8511 -0.2729
   10CHL1  H27C  740   2.185   5.010   5.335  0.5262 -0.1240  0.4324
   11CHL1    C3  741   4.182   4.359   6.664  0.4196  0.0369  0.2370
   11CHL1    H3  742   4.290   4.381   6.655  0.2189  0.5663 -1.1482
   11CHL1    O3  743   4.150   4.260   6.764  0.5744 -0.1240  0.0325
   11CHL1   H3'  744   4.160   4.307   6.848 -0.8233 -0.8882  0.6676
   11CHL1    C4  745   4.114   4.494   6.697 -0.5262  0.2842  0.1830
   11CHL1   H4A  746   4.004   4.476   6.695 -0.4110 -0.8341  1.8064
   11CHL1   H4B  747   4.147   4.522   6.799 -0.1093 -2.3090  0.8236
   11CHL1    C5  748   4.158   4.598   6.595  0.3401  0.3153  0.5880
   11CHL1    C6  749   4.203   4.713   6.633 -0.2493 -1.1264  0.5433
   11CHL1    H6  750   4.231   4.727   6.738 -0.3260 -1.3109  0.5899
   11CHL1    C7  751   4.230   4.832   6.537 -0.0792  0.3522  0.4251
   11CHL1   H7A  752   4.213   4.930   6.586  2.5522  2.1512 -1.9521
   11CHL1   H7B  753   4.337   4.837   6.506 -0.3944  2.1948 -0.4586
   11CHL1    C8  754   4.145   4.820   6.402 -0.5457  0.2733  0.6296
   11CHL1    H8  755   4.036   4.833   6.419 -0.7420  0.3534 -0.5962
   11CHL1   C14  756   4.202   4.909   6.293 -0.1327  0.2819 -0.2571
   11CHL1   H14  757   4.307   4.874   6.284 -0.4720 -1.0248  0.6163
   11CHL1   C15  758   4.198   5.056   6.328  0.4489 -0.0361  0.3812
   11CHL1  H15A  759   4.099   5.087   6.366  0.5477 -0.4630  0.9962
   11CHL1  H15B  760   4.272   5.084   6.405  1.8125  2.2306 -1.5927
   11CHL1   C16  761   4.239   5.125   6.197 -0.2825 -0.8409  0.4352
   11CHL1  H16A  762   4.160   5.203   6.189  1.0122  0.5877  0.9578
   11CHL1  H16B  763   4.337   5.178   6.196  0.2964 -1.8976  0.4977
   11CHL1   C17  764   4.231   5.017   6.084 -0.3423  0.1552 -0.9927
   11CHL1   H17  765   4.333   4.973   6.082 -0.5863 -0.6832  1.8314
   11CHL1   C13  766   4.147   4.896   6.151  0.0502  0.2283  0.0395
   11CHL1   C18  767   4.001   4.935   6.144 -0.1805 -0.8490 -0.2642
   11CHL1  H18A  768   3.963   4.908   6.043 -0.5686 -0.2713 -0.2789
   11CHL1  H18B  769   3.948   4.879   6.224  0.3793 -1.7741 -0.5270
   11CHL1  H18C  770   3.980   5.044   6.151 -1.5708 -1.0846 -0.5216
   11CHL1   C12  771   4.176   4.749   6.100 -0.2197  0.0156 -0.0347
   11CHL1  H12A  772   4.121   4.728   6.006  1.5312 -1.1448 -0.8664
   11CHL1  H12B  773   4.284   4.727   6.082 -0.1955  0.9098 -1.1017
   11CHL1   C11  774   4.112   4.648   6.199 -0.0148  1.1870 -0.2917
   11CHL1  H11A  775   4.001   4.645   6.195  0.0091 -0.6315 -0.3886
   11CHL1  H11B  776   4.135   4.547   6.159 -1.5805  0.6280  0.1399
   11CHL1    C9  777   4.161   4.666   6.347 -1.0503  0.0449  0.1134
   11CHL1    H9  778   4.269   4.642   6.343 -1.1286 -0.5428  1.0664
   11CHL1   C10  779   4.111   4.562   6.455  0.4370 -0.4789 -0.1664
   11CHL1   C19  780   3.955   4.551   6.445 -0.1644  0.0120  0.3963
   11CHL1  H19A  781   3.911   4.477   6.516  0.5026  1.1839  2.0826
   11CHL1  H19B  782   3.912   4.648   6.477  0.1595  0.0622  0.6852
   11CHL1  H19C  783   3.921   4.522   6.343  2.9237 -1.3305 -0.3586
   11CHL1    C1  784   4.175   4.421   6.421 -0.0885  0.7168 -0.2492
   11CHL1   H1A  785   4.135   4.392   6.321  0.0505 -0.2009 -0.0442
   11CHL1   H1B  786   4.286   4.422   6.417  0.1313 -1.2145  2.6225
   11CHL1    C2  787   4.138   4.313   6.521 -0.8174  0.0609  0.0173
   11CHL1   H2A  788   4.199   4.223   6.494  0.0013  0.8339 -0.7803
   11CHL1   H2B  789   4.031   4.283   6.518 -0.4812 -1.2093 -1.9939
   11CHL1   C20  790   4.202   5.072   5.939 -0.5731 -0.5979  0.5068
   11CHL1   H20  791   4.098   5.111   5.932 -0.7692 -1.2503 -0.3174
   11CHL1   C21  792   4.217   4.952   5.839 -0.4338 -1.5019  0.2433
   11CHL1  H21A  793   4.317   4.904   5.850  1.3767  1.8743 -0.1248
   11CHL1  H21B  794   4.216   4.992   5.735  3.6788 -0.5991  0.4059
   11CHL1  H21C  795   4.135   4.879   5.853 -2.0868  0.2300  0.0455
   11CHL1   C22  796   4.292   5.192   5.895  0.0080  0.1276 -0.0617
   11CHL1  H22A  797   4.273   5.272   5.970  0.1398  0.8618 -0.8106
   11CHL1  H22B  798   4.402   5.177   5.905  0.5435  1.5345 -2.9882
   11CHL1   C23  799   4.262   5.250   5.758 -0.1612  0.3614 -0.0304
   11CHL1  H23A  800   4.296   5.175   5.684 -0.5202 -1.0784  1.2166
   11CHL1  H23B  801   4.155   5.268   5.736  0.4998  1.8224 -2.4364
   11CHL1   C24  802   4.343   5.373   5.730  0.3274 -0.3339 -0.0167
   11CHL1  H24A  803   4.445   5.347   5.765  0.2830  0.9254  1.1377
   11CHL1  H24B  804   4.348   5.391   5.621 -0.0470 -2.1919 -0.3660
   11CHL1   C25  805   4.293   5.511   5.802 -0.0950  0.9912  0.2920
   11CHL1   H25  806   4.309   5.494   5.910  0.2634 -1.9445 -0.1131
   11CHL1   C26  807   4.376   5.628   5.759 -0.8091 -0.0060 -0.1019
   11CHL1  H26A  808   4.346   5.653   5.655 -0.8561  3.6251  0.6634
   11CHL1  H26B  809   4.362   5.720   5.818  2.1346  0.0645  0.6546
   11CHL1  H26C  810   4.481   5.594   5.773 -0.4626  0.6208 -1.0751
   11CHL1   C27  811   4.144   5.536   5.781 -1.3237  0.1332  0.5036
   11CHL1  H27A  812   4.076   5.462   5.829  0.0061 -0.9860  0.7165
   11CHL1  H27B  813   4.110   5.629   5.833  1.6129  1.8262 -0.3897
   11CHL1  H27C  814   4.118   5.529   5.673  0.7649 -0.1247 -0.0218
   12CHL1    C3  815   0.059   1.599   7.568 -0.1594 -0.1708 -0.3950
   12CHL1    H3  816   0.099   1.505   7.523  0.2421  0.8050 -2.1431
   12CHL1    O3  817   0.004   1.578   7.699 -0.3699 -0.3294  0.0168
   12CHL1   H3'  818   0.070   1.580   7.768 -0.8457  1.3624  0.4634
   12CHL1    C4  819   0.166   1.704   7.571 -0.5043 -0.1496 -0.2284
   12CHL1   H4A  820   0.131   1.795   7.625 -1.5007 -1.1068  0.7935
   12CHL1   H4B  821   0.246   1.658   7.633 -0.1893  1.9637  1.0404
   12CHL1    C5  822   0.229   1.731   7.437  0.0701 -0.5887 -0.1825
   12CHL1    C6  823   0.363   1.718   7.412  0.3844  0.2907 -0.1333
   12CHL1    H6  824   0.433   1.691   7.493  1.1834  0.0901 -0.8648
   12CHL1    C7  825   0.428   1.753   7.277 -0.6278  0.4142  0.2744
   12CHL1   H7A  826   0.518   1.817   7.295 -0.2423 -0.2945  0.8937
   12CHL1   H7B  827   0.463   1.667   7.216 -2.6064 -0.0423 -0.2631
   12CHL1    C8  828   0.325   1.838   7.184  0.2477 -0.4475  0.2175
   12CHL1    H8  829   0.311   1.941   7.222 -0.2285  1.2319 -4.0162
   12CHL1   C14  830   0.378   1.852   7.046  0.3979 -0.0871 -0.0185
   12CHL1   H14  831   0.392   1.746   7.018  2.5761  0.2302 -0.3615
   12CHL1   C15  832   0.521   1.903   7.023  0.9163 -0.4341 -0.3355
   12CHL1  H15A  833   0.563   1.978   7.093  2.5430 -1.1434 -0.5006
   12CHL1  H15B  834   0.594   1.821   7.039 -0.4586 -1.4562  0.9005
   12CHL1   C16  835   0.512   1.957   6.883  0.3193  0.0940  0.3058
   12CHL1  H16A  836   0.521   2.067   6.877  0.1444  0.0700 -0.5995
   12CHL1  H16B  837   0.598   1.926   6.820  0.7267  1.2222  0.3018
   12CHL1   C17  838   0.376   1.920   6.820 -0.2158  0.5805  0.7623
   12CHL1   H17  839   0.383   1.816   6.782 -1.8269  0.9738 -0.7366
   12CHL1   C13  840   0.289   1.917   6.945 -0.3307  0.6576 -1.9416
   12CHL1   C18  841   0.261   2.065   6.995 -0.0834  0.7272 -0.2871
   12CHL1  H18A  842   0.215   2.119   6.910  0.7051  3.6127  1.0023
   12CHL1  H18B  843   0.183   2.066   7.074 -0.6294  1.7067 -0.8192
   12CHL1  H18C  844   0.349   2.122   7.031 -1.1033  1.6856  0.7597
   12CHL1   C12  845   0.164   1.834   6.938 -0.1981 -0.1360  0.3109
   12CHL1  H12A  846   0.105   1.874   6.853  1.4742  1.2374 -0.2532
   12CHL1  H12B  847   0.193   1.729   6.912  1.7150  0.5583 -0.5371
   12CHL1   C11  848   0.088   1.823   7.070  0.3513  0.6620  0.3911
   12CHL1  H11A  849   0.039   1.920   7.095  0.5729  0.1364  3.2640
   12CHL1  H11B  850   0.004   1.752   7.060  0.1576  1.0438 -0.7706
   12CHL1    C9  851   0.182   1.773   7.185  0.3539  0.3545 -0.0895
   12CHL1    H9  852   0.194   1.665   7.163 -1.4099  0.0794  0.1820
   12CHL1   C10  853   0.122   1.764   7.329  0.3099 -0.4155  0.3668
   12CHL1   C19  854   0.055   1.904   7.363 -0.2303  0.5938  0.1426
   12CHL1  H19A  855  -0.039   1.916   7.305 -0.1605  1.7573  0.2462
   12CHL1  H19B  856   0.022   1.918   7.468  0.0062  0.9973  0.1650
   12CHL1  H19C  857   0.117   1.992   7.338 -1.8011  2.1994  1.6156
   12CHL1    C1  858   0.006   1.660   7.334 -0.4029  0.0915 -0.7323
   12CHL1   H1A  859  -0.070   1.700   7.264 -1.2877 -1.6361 -0.8247
   12CHL1   H1B  860   0.040   1.560   7.299  2.1349 -0.7593  3.3892
   12CHL1    C2  861  -0.055   1.644   7.476 -0.2149 -0.3620 -0.7379
   12CHL1   H2A  862  -0.132   1.565   7.465 -1.3834  0.6218  0.1090
   12CHL1   H2B  863  -0.106   1.730   7.523  2.0089 -0.1602  1.5227
   12CHL1   C20  864   0.341   2.009   6.700  0.7040 -0.3946  0.6760
   12CHL1   H20  865   0.321   2.112   6.738  1.3268  0.1697 -0.4855
   12CHL1   C21  866   0.223   1.945   6.623  0.2993  0.2434 -0.4565
   12CHL1  H21A  867   0.121   1.953   6.667  0.6687  0.8751  0.3019
   12CHL1  H21B  868   0.239   1.838   6.596 -0.2897  0.6886 -2.7657
   12CHL1  H21C  869   0.223   2.007   6.531 -4.5395  1.5488  0.1468
   12CHL1   C22  870   0.458   2.029   6.610 -0.3569 -0.3308  0.0561
   12CHL1  H22A  871   0.411   2.105   6.544  1.9132  1.9568  0.8870
   12CHL1  H22B  872   0.546   2.086   6.649  0.4129 -0.6752 -1.1168
   12CHL1   C23  873   0.513   1.910   6.538  0.6337 -0.1216 -0.3365
   12CHL1  H23A  874   0.556   1.838   6.612  0.4477  0.7139  0.6010
   12CHL1  H23B  875   0.429   1.861   6.484  0.0308  1.3614 -0.7675
   12CHL1   C24  876   0.622   1.944   6.438  0.3390  0.7035  0.2023
   12CHL1  H24A  877   0.574   2.025   6.379  0.3047  1.2896  1.0026
   12CHL1  H24B  878   0.708   1.994   6.487  2.1674 -1.2022 -0.9054
   12CHL1   C25  879   0.663   1.825   6.345 -0.3861  0.0478 -0.1117
   12CHL1   H25  880   0.575   1.782   6.292 -0.9430  0.3679  0.5379
   12CHL1   C26  881   0.768   1.881   6.240  0.1416 -0.0375  0.0845
   12CHL1  H26A  882   0.800   1.803   6.168  0.8351 -1.1715  1.5513
   12CHL1  H26B  883   0.718   1.960   6.180  0.5336  1.8852  2.1720
   12CHL1  H26C  884   0.856   1.928   6.288  0.5956  0.8941 -1.5810
   12CHL1   C27  885   0.736   1.718   6.432 -0.5991  0.1662 -0.2822
   12CHL1  H27A  886   0.825   1.755   6.487 -1.6060  1.0444  0.7985
   12CHL1  H27B  887   0.665   1.676   6.506 -0.2761 -0.6799 -0.4411
   12CHL1  H27C  888   0.776   1.632   6.375  2.5642  0.9394  0.5486
   13CHL1    C3  889   5.368   2.867   6.907 -0.2145 -0.0737 -0.2091
   13CHL1    H3  890   5.465   2.816   6.923  1.2163  2.5248 -0.1973
   13CHL1    O3  891   5.327   2.914   7.026  0.3188  0.2184 -0.3721
   13CHL1   H3'  892   5.246   2.961   7.005 -0.4449  0.0260  1.8246
   13CHL1    C4  893   5.380   2.976   6.809 -0.5275 -0.4552  0.4283
   13CHL1   H4A  894   5.294   3.046   6.808 -0.5519 -0.4235 -2.3924
   13CHL1   H4B  895   5.465   3.042   6.835  0.2364 -1.7423  1.3306
   13CHL1    C5  896   5.404   2.930   6.662 -0.1127 -0.1035 -0.3933
   13CHL1    C6  897   5.514   2.973   6.601  0.8066  0.0490  0.2930
   13CHL1    H6  898   5.591   3.033   6.651  0.1185  1.2359 -0.0247
   13CHL1    C7  899   5.545   2.938   6.456 -0.1280  0.4953  0.4131
   13CHL1   H7A  900   5.579   3.022   6.392  0.4771 -0.6792 -0.8692
   13CHL1   H7B  901   5.621   2.857   6.459 -1.3643 -0.6743  1.7036
   13CHL1    C8  902   5.415   2.875   6.388  0.4531 -0.2214  0.6045
   13CHL1    H8  903   5.341   2.954   6.362 -1.7024 -2.2567  0.2076
   13CHL1   C14  904   5.457   2.824   6.249  0.7296  0.5636  0.3483
   13CHL1   H14  905   5.539   2.754   6.276  0.7733  0.2672 -0.5348
   13CHL1   C15  906   5.522   2.919   6.152  0.4436  0.2111  0.3400
   13CHL1  H15A  907   5.463   3.012   6.141 -0.1515 -0.4321 -2.9624
   13CHL1  H15B  908   5.620   2.955   6.190 -0.1125  2.2226 -0.0476
   13CHL1   C16  909   5.527   2.846   6.019 -0.3485 -0.1376 -0.4347
   13CHL1  H16A  910   5.467   2.899   5.943  0.5680  2.0774  0.3002
   13CHL1  H16B  911   5.635   2.837   5.996 -0.4472 -0.0074 -0.9394
   13CHL1   C17  912   5.442   2.714   6.048  0.4073  0.4751 -0.4374
   13CHL1   H17  913   5.500   2.623   6.076 -3.6855 -2.9777 -1.9783
   13CHL1   C13  914   5.354   2.742   6.174  0.2787  0.2962 -0.4786
   13CHL1   C18  915   5.231   2.836   6.140  0.6305 -0.0415 -0.1615
   13CHL1  H18A  916   5.181   2.870   6.234  1.3693  1.4788 -0.2919
   13CHL1  H18B  917   5.266   2.926   6.085  1.2816 -0.1994 -0.0085
   13CHL1  H18C  918   5.154   2.783   6.080 -0.2885  1.3342 -0.2455
   13CHL1   C12  919   5.308   2.618   6.253  0.4056 -0.4780 -0.0013
   13CHL1  H12A  920   5.222   2.573   6.199  0.5855  0.2755 -0.9208
   13CHL1  H12B  921   5.398   2.553   6.261  1.0536  0.3977 -0.0572
   13CHL1   C11  922   5.262   2.663   6.401  0.2407 -0.2042  0.2910
   13CHL1  H11A  923   5.166   2.712   6.375  0.1778 -0.0754  0.7534
   13CHL1  H11B  924   5.237   2.576   6.465  1.5495  1.0567  2.6614
   13CHL1    C9  925   5.357   2.766   6.476 -0.0954  0.0937 -0.0542
   13CHL1    H9  926   5.445   2.706   6.508 -0.3870  0.7091  2.0644
   13CHL1   C10  927   5.308   2.825   6.602  0.7910  0.8003 -0.0106
   13CHL1   C19  928   5.172   2.894   6.580  0.8144 -0.1968  0.0583
   13CHL1  H19A  929   5.173   2.965   6.495 -0.7580 -1.8088 -1.4040
   13CHL1  H19B  930   5.086   2.824   6.569 -0.2406  0.9350  0.9228
   13CHL1  H19C  931   5.144   2.957   6.667 -1.1971 -0.0272 -0.6541
   13CHL1    C1  932   5.302   2.717   6.714 -0.2310  0.1363  0.2448
   13CHL1   H1A  933   5.224   2.642   6.687  0.6411 -1.2019  1.2738
   13CHL1   H1B  934   5.400   2.664   6.722 -0.6301 -0.5248  0.8788
   13CHL1    C2  935   5.265   2.772   6.854  0.1138  0.0158 -0.1035
   13CHL1   H2A  936   5.241   2.687   6.922  0.5122  0.4974  0.6523
   13CHL1   H2B  937   5.168   2.825   6.841  0.4628  0.8430  0.5909
   13CHL1   C20  938   5.368   2.669   5.912  0.1975  0.0462 -0.0608
   13CHL1   H20  939   5.307   2.758   5.885 -0.2764 -0.4383 -0.6208
   13CHL1   C21  940   5.263   2.559   5.931 -0.2045  0.6311 -0.4361
   13CHL1  H21A  941   5.309   2.467   5.973 -1.2292  0.8102  1.1708
   13CHL1  H21B  942   5.199   2.536   5.843  0.1544 -0.1038 -0.5152
   13CHL1  H21C  943   5.185   2.589   6.005 -1.4695  0.2504 -1.5742
   13CHL1   C22  944   5.477   2.629   5.809 -0.6437  0.6193 -0.2228
   13CHL1  H22A  945   5.547   2.715   5.803 -1.4089  1.2518 -0.2734
   13CHL1  H22B  946   5.541   2.544   5.840 -1.4595 -0.1399 -0.5656
   13CHL1   C23  947   5.416   2.593   5.667  0.1847  0.0752 -0.1481
   13CHL1  H23A  948   5.397   2.484   5.668  0.6554 -0.0487 -1.7284
   13CHL1  H23B  949   5.320   2.644   5.642 -0.3731 -1.6233 -1.6537
   13CHL1   C24  950   5.502   2.631   5.541 -0.1103 -0.1753 -0.7990
   13CHL1  H24A  951   5.529   2.738   5.534 -0.7045 -0.0786 -2.1028
   13CHL1  H24B  952   5.605   2.595   5.561 -0.1814  0.9303  1.8865
   13CHL1   C25  953   5.446   2.585   5.404 -0.3513  0.1871  0.0344
   13CHL1   H25  954   5.519   2.625   5.331  1.6151 -0.0343  1.8012
   13CHL1   C26  955   5.434   2.437   5.392 -0.1601  0.7962 -0.0030
   13CHL1  H26A  956   5.355   2.408   5.465 -2.1775  2.1652 -1.5421
   13CHL1  H26B  957   5.395   2.391   5.299 -1.6097 -0.2669  1.0680
   13CHL1  H26C  958   5.533   2.388   5.406  0.1432  0.7490 -2.0687
   13CHL1   C27  959   5.311   2.644   5.386 -0.7402 -0.1525 -0.3615
   13CHL1  H27A  960   5.320   2.749   5.421  0.4486  0.0768 -1.2638
   13CHL1  H27B  961   5.267   2.637   5.284 -2.6948  2.4240  0.2163
   13CHL1  H27C  962   5.236   2.593   5.450  1.3324 -0.9968  1.5553
   14CHL1    C3  963   3.698   6.726   7.141 -0.3524 -0.0923  0.3949
   14CHL1    H3  964   3.781   6.657   7.113  0.0959  0.8527 -0.6577
   14CHL1    O3  965   3.684   6.708   7.277  0.0563  0.0398 -0.7271
   14CHL1   H3'  966   3.621   6.775   7.304 -1.5157 -1.7880  0.4259
   14CHL1    C4  967   3.744   6.873   7.110  0.1342 -0.5043  0.0960
   14CHL1   H4A  968   3.653   6.922   7.150  0.0820 -0.1672 -0.4259
   14CHL1   H4B  969   3.832   6.902   7.173  1.9887 -0.0579 -2.5268
   14CHL1    C5  970   3.768   6.899   6.965  0.5055 -0.2932 -0.0784
   14CHL1    C6  971   3.884   6.941   6.914  0.1124  0.0151  0.2421
   14CHL1    H6  972   3.969   6.960   6.980  0.8412  0.4836 -0.8153
   14CHL1    C7  973   3.902   6.962   6.769 -0.1595 -0.8379  0.2076
   14CHL1   H7A  974   3.965   7.052   6.753  0.3254 -1.3126 -0.6062
   14CHL1   H7B  975   3.960   6.877   6.727  0.8807  0.9828 -2.2845
   14CHL1    C8  976   3.770   6.971   6.692 -0.2037 -0.3587  0.4221
   14CHL1    H8  977   3.728   7.073   6.710  1.0851 -0.0415  1.8303
   14CHL1   C14  978   3.801   6.959   6.545 -0.0452 -0.2775 -0.0727
   14CHL1   H14  979   3.857   6.864   6.530  1.2309  0.7128 -2.0748
   14CHL1   C15  980   3.909   7.058   6.487  0.3650  0.1762  0.1118
   14CHL1  H15A  981   3.876   7.159   6.517  0.7903  0.2110  0.4807
   14CHL1  H15B  982   4.014   7.038   6.518  1.1855  1.8383 -1.4494
   14CHL1   C16  983   3.904   7.025   6.340 -0.5714  0.2627  0.4411
   14CHL1  H16A  984   3.908   7.121   6.284  1.6458  0.1046  0.2317
   14CHL1  H16B  985   3.992   6.962   6.317  0.6539  1.2841  2.1415
   14CHL1   C17  986   3.766   6.953   6.313 -0.8335  0.3456 -0.1621
   14CHL1   H17  987   3.800   6.849   6.296  1.2791  0.9249  0.2619
   14CHL1   C13  988   3.685   6.957   6.444 -0.2528  0.0234  0.3763
   14CHL1   C18  989   3.608   7.091   6.457  0.0045  0.2127 -0.7214
   14CHL1  H18A  990   3.531   7.096   6.377 -0.1141 -1.8222 -0.7878
   14CHL1  H18B  991   3.557   7.108   6.554  2.6562 -0.3330  0.8661
   14CHL1  H18C  992   3.676   7.177   6.439  0.7321  0.0116  0.9544
   14CHL1   C12  993   3.605   6.832   6.477 -1.1325 -0.1679  0.4134
   14CHL1  H12A  994   3.505   6.826   6.428 -1.5806  0.9606  1.1296
   14CHL1  H12B  995   3.664   6.746   6.440 -1.9709  0.3510 -2.3780
   14CHL1   C11  996   3.572   6.827   6.625  0.0023  0.3915 -0.3132
   14CHL1  H11A  997   3.502   6.912   6.642 -0.6393  0.2741 -2.1562
   14CHL1  H11B  998   3.519   6.731   6.638 -2.6698  1.4695 -2.3292
   14CHL1    C9  999   3.686   6.853   6.734 -0.0923 -0.5218  0.3538
   14CHL1    H9 1000   3.755   6.769   6.712  0.9575 -0.1943  2.1870
   14CHL1   C10 1001   3.639   6.854   6.879  0.6381  0.0889 -0.7381
   14CHL1   C19 1002   3.526   6.963   6.899  0.5331  0.5580  0.6377
   14CHL1  H19A 1003   3.433   6.948   6.840  1.0907  3.0621 -1.0262
   14CHL1  H19B 1004   3.480   6.968   7.000 -0.6165 -0.2880  0.1866
   14CHL1  H19C 1005   3.568   7.064   6.880 -2.3471  1.8414  0.5341
   14CHL1    C1 1006   3.591   6.712   6.914 -0.2811 -0.1678  0.3013
   14CHL1   H1A 1007   3.491   6.689   6.870 -0.1628  2.9483 -1.9035
   14CHL1   H1B 1008   3.664   6.639   6.874 -2.8019 -2.6779 -0.0713
   14CHL1    C2 1009   3.575   6.682   7.064 -0.1714  0.0981 -0.6568
   14CHL1   H2A 1010   3.523   6.588   7.092 -0.0229  0.7828  2.2265
   14CHL1   H2B 1011   3.504   6.753   7.111  0.8381 -0.7846  2.4231
   14CHL1   C20 1012   3.701   6.990   6.184  0.0217 -0.4595  0.4835
   14CHL1   H20 1013   3.674   7.097   6.197 -0.2843 -0.6855  1.9125
   14CHL1   C21 1014   3.567   6.920   6.164 -0.0376  0.2695  0.2903
   14CHL1  H21A 1015   3.501   6.956   6.246  0.2035  2.7011 -0.5128
   14CHL1  H21B 1016   3.578   6.810   6.156  0.5609  0.2885  0.7760
   14CHL1  H21C 1017   3.532   6.959   6.066  2.2785  1.2992 -0.1835
   14CHL1   C22 1018   3.795   6.962   6.058  0.2113  0.2508 -0.2657
   14CHL1  H22A 1019   3.897   6.999   6.080  0.4923 -0.4073 -0.4136
   14CHL1  H22B 1020   3.802   6.851   6.045 -0.8586 -0.4096  3.6192
   14CHL1   C23 1021   3.740   7.024   5.928 -0.1252 -0.6390  0.2261
   14CHL1  H23A 1022   3.818   7.000   5.852 -0.4450 -0.3975 -0.1875
   14CHL1  H23B 1023   3.645   6.980   5.891  0.1891 -1.9949  0.9402
   14CHL1   C24 1024   3.739   7.175   5.929  0.0917  0.6340 -0.0374
   14CHL1  H24A 1025   3.669   7.224   6.000  0.9661  0.8567  0.6908
   14CHL1  H24B 1026   3.839   7.220   5.946 -0.5732  2.1781 -0.0521
   14CHL1   C25 1027   3.686   7.225   5.792 -0.4848 -0.2704 -0.2910
   14CHL1   H25 1028   3.740   7.163   5.717 -4.1170 -2.9624 -0.9646
   14CHL1   C26 1029   3.540   7.199   5.768  0.2440  0.6171 -0.4541
   14CHL1  H26A 1030   3.527   7.090   5.751  0.3538  0.2763  1.4699
   14CHL1  H26B 1031   3.472   7.229   5.850 -0.3487  2.9915 -1.7109
   14CHL1  H26C 1032   3.506   7.248   5.674 -0.3095  0.5677 -0.2859
   14CHL1   C27 1033   3.726   7.378   5.773  0.1234  0.1418 -0.4313
   14CHL1  H27A 1034   3.656   7.438   5.835 -0.3000  0.0745 -0.8397
   14CHL1  H27B 1035   3.832   7.392   5.803 -0.4037  1.5489  0.9032
   14CHL1  H27C 1036   3.721   7.412   5.668 -0.4413 -0.6493 -0.6740
   15CHL1    C3 1037   6.039   6.229   7.111 -0.2900 -0.0154  0.3938
   15CHL1    H3 1038   5.951   6.296   7.100  0.5523  0.6740 -4.2806
   15CHL1    O3 1039   6.040   6.171   7.235 -0.0538  0.0922  0.4947
   15CHL1   H3' 1040   6.118   6.201   7.282 -0.6248  2.5027  0.0174
   15CHL1    C4 1041   6.021   6.126   7.009 -0.1815  0.2332 -0.1001
   15CHL1   H4A 1042   6.095   6.049   7.036 -1.2587 -0.8910 -0.2571
   15CHL1   H4B 1043   5.920   6.079   7.015  1.2378 -3.0809  0.0173
   15CHL1    C5 1044   6.051   6.178   6.869 -0.4748 -0.4817  0.0189
   15CHL1    C6 1045   5.963   6.151   6.767 -0.5967 -0.6745  0.5141
   15CHL1    H6 1046   5.870   6.096   6.785 -0.5941 -0.6928  0.4701
   15CHL1    C7 1047   5.984   6.189   6.623  0.2915 -0.3684 -0.8126
   15CHL1   H7A 1048   5.953   6.100   6.566 -0.1965 -0.2643 -0.7135
   15CHL1   H7B 1049   5.907   6.265   6.598  0.7088  1.1693  2.0416
   15CHL1    C8 1050   6.120   6.237   6.594 -0.2348 -0.1319  0.7342
   15CHL1    H8 1051   6.186   6.148   6.585  3.3315  2.4927 -1.5679
   15CHL1   C14 1052   6.138   6.291   6.449  0.3734  0.2730  0.7813
   15CHL1   H14 1053   6.065   6.373   6.435 -1.0183 -0.8115  1.4265
   15CHL1   C15 1054   6.098   6.203   6.329  0.4978 -0.1596 -0.6732
   15CHL1  H15A 1055   6.146   6.104   6.345 -0.1506 -0.8276 -2.5393
   15CHL1  H15B 1056   5.989   6.196   6.310  0.2949  2.1814 -0.7167
   15CHL1   C16 1057   6.175   6.270   6.208 -0.5434  0.2278  0.4797
   15CHL1  H16A 1058   6.247   6.194   6.171  2.2000  2.8080  0.1777
   15CHL1  H16B 1059   6.106   6.297   6.125 -1.5017 -4.3208 -0.5122
   15CHL1   C17 1060   6.250   6.394   6.272 -0.3941  0.6214 -1.4561
   15CHL1   H17 1061   6.169   6.470   6.271 -2.0198 -0.9374  1.2106
   15CHL1   C13 1062   6.269   6.353   6.419  0.6641  0.3404 -0.7196
   15CHL1   C18 1063   6.379   6.242   6.426  0.4257 -0.3833 -0.1161
   15CHL1  H18A 1064   6.480   6.281   6.401 -0.1523  0.1449 -1.7346
   15CHL1  H18B 1065   6.380   6.192   6.525  0.8196  0.4404  0.3007
   15CHL1  H18C 1066   6.345   6.161   6.357 -1.1459 -0.8877  1.1861
   15CHL1   C12 1067   6.301   6.463   6.527 -0.0973  0.3467  0.6149
   15CHL1  H12A 1068   6.403   6.501   6.506  0.3172 -0.5928  0.8832
   15CHL1  H12B 1069   6.219   6.537   6.516 -2.5305 -2.3133 -0.3689
   15CHL1   C11 1070   6.298   6.407   6.673  0.4895 -0.3996  0.0289
   15CHL1  H11A 1071   6.388   6.342   6.681 -0.1915 -1.7444 -2.2412
   15CHL1  H11B 1072   6.319   6.494   6.739 -0.3670  0.4433 -0.7818
   15CHL1    C9 1073   6.166   6.327   6.707 -0.3803  0.3300  0.0294
   15CHL1    H9 1074   6.088   6.406   6.717  0.9366  1.5175  1.5733
   15CHL1   C10 1075   6.176   6.263   6.843  0.4060 -0.3432  0.4503
   15CHL1   C19 1076   6.297   6.168   6.864 -1.1052 -1.0328  0.7071
   15CHL1  H19A 1077   6.291   6.108   6.957 -0.5434 -0.0426  1.4090
   15CHL1  H19B 1078   6.307   6.100   6.777  1.3713  0.4964 -0.3242
   15CHL1  H19C 1079   6.391   6.226   6.877 -1.3301 -0.7779  1.2143
   15CHL1    C1 1080   6.178   6.373   6.944  0.4896 -0.1281  0.1271
   15CHL1   H1A 1081   6.274   6.428   6.944  0.4117  0.0347  1.0206
   15CHL1   H1B 1082   6.097   6.449   6.938 -0.3498 -0.7737  2.3008
   15CHL1    C2 1083   6.174   6.311   7.088  0.7743 -0.1356  0.0176
   15CHL1   H2A 1084   6.157   6.390   7.164 -0.2950  0.2023 -0.5431
   15CHL1   H2B 1085   6.259   6.247   7.119  0.5231 -0.0617  0.8961
   15CHL1   C20 1086   6.365   6.458   6.194  0.0739  0.1049 -0.4319
   15CHL1   H20 1087   6.462   6.410   6.223  0.9415  2.6492  1.2340
   15CHL1   C21 1088   6.373   6.607   6.232  1.2538  0.3519  0.7069
   15CHL1  H21A 1089   6.288   6.665   6.189  0.3077 -0.0475  1.9783
   15CHL1  H21B 1090   6.449   6.653   6.166 -0.5266  0.9442 -1.0336
   15CHL1  H21C 1091   6.403   6.635   6.335 -1.5384 -0.5007  1.8608
   15CHL1   C22 1092   6.345   6.434   6.043 -0.3182 -0.2305  0.8660
   15CHL1  H22A 1093   6.357   6.324   6.033  0.1972 -0.2241  1.3700
   15CHL1  H22B 1094   6.242   6.468   6.019 -0.4231 -0.5806  0.8135
   15CHL1   C23 1095   6.455   6.485   5.949  0.6102  0.2307  0.1650
   15CHL1  H23A 1096   6.442   6.596   5.949 -0.3984  0.1282  1.2213
   15CHL1  H23B 1097   6.559   6.477   5.987  0.6289  0.9783  0.2910
   15CHL1   C24 1098   6.448   6.427   5.803  0.1909 -0.0952  0.0080
   15CHL1  H24A 1099   6.416   6.321   5.795  0.4704 -0.1491 -0.4526
   15CHL1  H24B 1100   6.364   6.488   5.764  2.1957  1.6112 -1.9178
   15CHL1   C25 1101   6.577   6.441   5.711 -0.0730 -0.1732  0.4294
   15CHL1   H25 1102   6.649   6.384   5.773  0.0147  1.5161  1.9768
   15CHL1   C26 1103   6.566   6.379   5.566 -0.2927  0.6126 -0.2574
   15CHL1  H26A 1104   6.669   6.384   5.524  0.6923  0.3502  2.0057
   15CHL1  H26B 1105   6.543   6.271   5.572 -0.8042  0.4709 -3.2134
   15CHL1  H26C 1106   6.492   6.434   5.502 -1.5931  1.3363  1.7716
   15CHL1   C27 1107   6.628   6.588   5.699  0.1461 -0.1650 -0.0347
   15CHL1  H27A 1108   6.734   6.582   5.666 -0.0839  1.6852 -1.2673
   15CHL1  H27B 1109   6.566   6.637   5.621  0.4328  1.2545  0.5940
   15CHL1  H27C 1110   6.632   6.633   5.801  2.0571 -1.3758  0.4635
   16CHL1    C3 1111   3.457   3.503   6.774 -0.0666 -0.0031 -0.1838
   16CHL1    H3 1112   3.458   3.401   6.731 -1.3376  0.3402 -1.0962
   16CHL1    O3 1113   3.446   3.499   6.916  0.5474  0.3902 -0.5698
   16CHL1   H3' 1114   3.472   3.580   6.960 -1.5341 -0.7021  3.1212
   16CHL1    C4 1115   3.578   3.584   6.729 -0.8322  0.4978  0.1944
   16CHL1   H4A 1116   3.574   3.682   6.782  1.1252  0.6551  0.1084
   16CHL1   H4B 1117   3.659   3.516   6.763 -1.7252 -0.7446 -0.1033
   16CHL1    C5 1118   3.597   3.602   6.581 -0.6800  0.4290  0.2669
   16CHL1    C6 1119   3.711   3.562   6.513  0.6717 -0.1625  0.4997
   16CHL1    H6 1120   3.797   3.534   6.576  0.7439  1.1579  1.0289
   16CHL1    C7 1121   3.737   3.568   6.368 -0.6716 -0.2952 -0.8340
   16CHL1   H7A 1122   3.837   3.612   6.347 -0.6587  0.2519  0.2835
   16CHL1   H7B 1123   3.735   3.463   6.330  0.4952 -0.2662 -1.0157
   16CHL1    C8 1124   3.629   3.651   6.301  0.0011  0.4000  0.3671
   16CHL1    H8 1125   3.653   3.755   6.330  0.8723  0.0434  0.9622
   16CHL1   C14 1126   3.640   3.635   6.148 -1.1418  0.5535  0.2549
   16CHL1   H14 1127   3.618   3.530   6.119 -0.2968  0.8034 -1.4286
   16CHL1   C15 1128   3.781   3.656   6.095  0.1417 -0.2840  0.4642
   16CHL1  H15A 1129   3.827   3.742   6.148 -0.5756  0.6108 -0.3176
   16CHL1  H15B 1130   3.835   3.561   6.112 -0.6400 -1.5241 -3.1056
   16CHL1   C16 1131   3.755   3.693   5.947  0.3449  0.0360 -0.2299
   16CHL1  H16A 1132   3.791   3.797   5.931 -0.7240  0.5501  0.5870
   16CHL1  H16B 1133   3.801   3.622   5.874 -0.0552  0.3534 -0.8038
   16CHL1   C17 1134   3.596   3.695   5.925 -0.6176 -0.6507 -0.0628
   16CHL1   H17 1135   3.571   3.593   5.890 -0.2524 -0.2046 -1.7118
   16CHL1   C13 1136   3.542   3.721   6.071 -0.9307  0.3329 -0.0601
   16CHL1   C18 1137   3.556   3.869   6.115 -0.4255 -0.0547 -0.6468
   16CHL1  H18A 1138   3.530   3.884   6.222 -1.1162  1.9957 -1.0609
   16CHL1  H18B 1139   3.659   3.905   6.092  0.2095 -0.8789  0.7473
   16CHL1  H18C 1140   3.487   3.935   6.058 -0.0290  1.4160  0.5410
   16CHL1   C12 1141   3.396   3.665   6.103  0.3433  0.0065  0.2531
   16CHL1  H12A 1142   3.317   3.734   6.065  0.6473 -0.7575 -1.9176
   16CHL1  H12B 1143   3.389   3.564   6.058 -1.5689  0.9011 -1.6596
   16CHL1   C11 1144   3.372   3.661   6.252  0.6777 -0.6030 -0.6665
   16CHL1  H11A 1145   3.340   3.764   6.280  1.2283 -1.2259  2.6070
   16CHL1  H11B 1146   3.288   3.591   6.270 -0.8209  0.9561 -1.2537
   16CHL1    C9 1147   3.489   3.614   6.348  0.4154  0.4346  0.3918
   16CHL1    H9 1148   3.489   3.503   6.337  0.1967  0.5174 -0.5331
   16CHL1   C10 1149   3.473   3.646   6.500  0.3198 -0.1038 -0.1601
   16CHL1   C19 1150   3.461   3.809   6.514 -0.2627  0.5048 -0.1945
   16CHL1  H19A 1151   3.526   3.851   6.435  1.7318  0.6219  1.4389
   16CHL1  H19B 1152   3.360   3.849   6.492 -0.3587 -0.1788 -1.0759
   16CHL1  H19C 1153   3.498   3.853   6.609  0.7643  1.9281 -1.2172
   16CHL1    C1 1154   3.351   3.576   6.558  0.6398  0.4580  0.1661
   16CHL1   H1A 1155   3.266   3.625   6.507 -1.5087 -2.6666  0.5077
   16CHL1   H1B 1156   3.354   3.470   6.524  1.6208  0.3407  0.5873
   16CHL1    C2 1157   3.331   3.574   6.710  0.4513  0.1712 -0.4863
   16CHL1   H2A 1158   3.242   3.514   6.741  1.2686 -2.4984 -2.9051
   16CHL1   H2B 1159   3.329   3.675   6.755 -0.2313  1.7179 -3.7256
   16CHL1   C20 1160   3.562   3.803   5.822  0.4287  0.0636  0.7042
   16CHL1   H20 1161   3.582   3.906   5.858 -0.3003 -0.2149  1.9692
   16CHL1   C21 1162   3.414   3.788   5.803  0.1512 -0.3607  0.7498
   16CHL1  H21A 1163   3.373   3.836   5.712  0.1047 -1.6291  0.0735
   16CHL1  H21B 1164   3.360   3.834   5.888  0.2876 -0.3314  0.8209
   16CHL1  H21C 1165   3.384   3.681   5.790  1.3262 -0.5450 -0.6525
   16CHL1   C22 1166   3.641   3.787   5.688 -0.2793  0.2378  1.0664
   16CHL1  H22A 1167   3.598   3.853   5.609 -1.4821 -0.9376  0.6987
   16CHL1  H22B 1168   3.751   3.798   5.701  0.2045 -2.1068 -0.4307
   16CHL1   C23 1169   3.629   3.640   5.619  0.2700 -0.2568 -0.0570
   16CHL1  H23A 1170   3.653   3.569   5.702 -1.4935  0.7723  1.4008
   16CHL1  H23B 1171   3.528   3.615   5.581 -0.8036  0.5791  2.0477
   16CHL1   C24 1172   3.739   3.626   5.513  0.0149 -0.5460 -0.3656
   16CHL1  H24A 1173   3.718   3.698   5.431 -0.5215 -2.6124 -2.1426
   16CHL1  H24B 1174   3.834   3.662   5.557  0.6748 -0.2941 -1.9395
   16CHL1   C25 1175   3.769   3.482   5.458  0.2159 -0.5056 -0.6378
   16CHL1   H25 1176   3.781   3.413   5.545  1.8045  1.8867  1.1499
   16CHL1   C26 1177   3.646   3.429   5.388  0.1187 -0.4314 -0.3137
   16CHL1  H26A 1178   3.545   3.444   5.432 -0.7113  1.1780 -2.5797
   16CHL1  H26B 1179   3.629   3.484   5.293 -0.5944 -0.0504  0.0273
   16CHL1  H26C 1180   3.652   3.324   5.352  0.5661 -0.1267 -1.1597
   16CHL1   C27 1181   3.893   3.476   5.372  0.3800  0.0803 -0.3556
   16CHL1  H27A 1182   3.894   3.559   5.298 -1.2247  0.6817  0.2386
   16CHL1  H27B 1183   3.990   3.481   5.426 -0.0303  0.1569  0.3883
   16CHL1  H27C 1184   3.897   3.382   5.313  1.2875  0.3495 -0.7296
   17CHL1    C3 1185   5.826   6.593   7.167  0.2821  0.3691  0.6209
   17CHL1    H3 1186   5.896   6.509   7.149  1.0211  1.3137 -1.1622
   17CHL1    O3 1187   5.804   6.609   7.307  0.3897 -0.0356 -0.8818
   17CHL1   H3' 1188   5.844   6.695   7.326  3.0486 -1.2871 -0.3881
   17CHL1    C4 1189   5.879   6.723   7.093  0.4504  0.5092 -0.4918
   17CHL1   H4A 1190   5.802   6.793   7.131  0.0043 -0.0976 -0.2612
   17CHL1   H4B 1191   5.976   6.748   7.141  0.0360  2.3662 -0.5367
   17CHL1    C5 1192   5.885   6.700   6.941  0.1005  0.2560  0.0804
   17CHL1    C6 1193   5.996   6.720   6.872 -0.0442 -0.9441  0.0009
   17CHL1    H6 1194   6.081   6.758   6.931 -1.0496  0.6600  0.4719
   17CHL1    C7 1195   6.021   6.707   6.726 -0.3956 -0.4793  0.4021
   17CHL1   H7A 1196   6.076   6.799   6.697 -0.2763 -0.3066  1.1662
   17CHL1   H7B 1197   6.085   6.622   6.697 -1.3478 -0.7737 -0.9382
   17CHL1    C8 1198   5.884   6.694   6.651 -0.1163  0.8360  0.9804
   17CHL1    H8 1199   5.841   6.795   6.635 -0.9631  0.2419 -0.8242
   17CHL1   C14 1200   5.910   6.639   6.506  0.3959 -0.4618 -0.3516
   17CHL1   H14 1201   5.958   6.538   6.509  0.2507 -0.5126  1.2441
   17CHL1   C15 1202   6.001   6.718   6.417  0.4123 -0.5446 -0.9696
   17CHL1  H15A 1203   5.974   6.826   6.426  2.2141 -0.2527  3.5376
   17CHL1  H15B 1204   6.108   6.710   6.443  0.4039 -0.0557 -0.7567
   17CHL1   C16 1205   5.975   6.669   6.273 -0.5752  0.6120 -0.5880
   17CHL1  H16A 1206   5.955   6.753   6.203 -0.4233  0.7889 -0.4210
   17CHL1  H16B 1207   6.070   6.624   6.236 -1.7000 -0.6743 -2.0433
   17CHL1   C17 1208   5.855   6.574   6.282 -0.0477 -0.0940  0.2306
   17CHL1   H17 1209   5.897   6.471   6.292  0.0166 -0.2669 -1.4764
   17CHL1   C13 1210   5.792   6.604   6.420  0.5815 -0.3022 -0.7360
   17CHL1   C18 1211   5.716   6.733   6.395 -0.5621  0.9308  0.0274
   17CHL1  H18A 1212   5.687   6.766   6.497  0.0484 -2.6553  1.5292
   17CHL1  H18B 1213   5.775   6.810   6.341  0.5320  1.2832  1.6442
   17CHL1  H18C 1214   5.621   6.708   6.343 -0.5057  0.1947  0.2568
   17CHL1   C12 1215   5.702   6.502   6.495 -0.7716 -0.5968 -0.2407
   17CHL1  H12A 1216   5.607   6.479   6.442 -1.9116 -0.0589  1.4702
   17CHL1  H12B 1217   5.766   6.411   6.489 -1.6526 -1.1604 -1.5654
   17CHL1   C11 1218   5.668   6.552   6.641 -0.9788  0.0765 -0.1820
   17CHL1  H11A 1219   5.597   6.636   6.624  1.1864  1.8769 -0.8341
   17CHL1  H11B 1220   5.617   6.463   6.683  2.1187 -1.7954 -0.0672
   17CHL1    C9 1221   5.791   6.595   6.730  0.9276  0.3088  0.8827
   17CHL1    H9 1222   5.843   6.497   6.737 -3.0908 -1.9748  2.6607
   17CHL1   C10 1223   5.759   6.645   6.880  0.7235  0.0638 -0.4547
   17CHL1   C19 1224   5.652   6.751   6.869 -0.4430 -0.4766  0.8868
   17CHL1  H19A 1225   5.556   6.706   6.836 -0.4863  0.4342 -0.2830
   17CHL1  H19B 1226   5.635   6.803   6.966  0.9100 -1.6744  1.8012
   17CHL1  H19C 1227   5.679   6.831   6.796  1.0367 -1.2173  0.5856
   17CHL1    C1 1228   5.696   6.523   6.961  0.6343 -0.0345 -0.3068
   17CHL1   H1A 1229   5.588   6.510   6.939  0.9877 -0.5197 -1.8878
   17CHL1   H1B 1230   5.747   6.426   6.939 -0.3713 -0.9318  1.1525
   17CHL1    C2 1231   5.700   6.538   7.118 -0.1001  0.5103 -0.3536
   17CHL1   H2A 1232   5.676   6.437   7.158 -0.3676  0.3319 -0.9463
   17CHL1   H2B 1233   5.617   6.611   7.133 -1.1325 -0.5247 -0.8270
   17CHL1   C20 1234   5.766   6.557   6.150  0.2347  0.3475 -0.4008
   17CHL1   H20 1235   5.736   6.659   6.117  0.1989  0.0520 -1.3067
   17CHL1   C21 1236   5.633   6.481   6.173 -0.3807 -0.5167 -0.5630
   17CHL1  H21A 1237   5.555   6.522   6.240 -0.0317  0.7362 -0.9115
   17CHL1  H21B 1238   5.662   6.380   6.211 -1.6332 -0.3694  0.8643
   17CHL1  H21C 1239   5.591   6.453   6.074  0.3703 -2.3870 -0.4160
   17CHL1   C22 1240   5.848   6.494   6.040 -0.5104  0.2437 -0.0815
   17CHL1  H22A 1241   5.956   6.520   6.041 -0.3064 -0.1688  3.4002
   17CHL1  H22B 1242   5.859   6.388   6.072 -0.7372  0.7106  1.6376
   17CHL1   C23 1243   5.808   6.517   5.892 -0.4672 -0.3056 -0.1722
   17CHL1  H23A 1244   5.865   6.438   5.840 -1.2335 -2.2594  1.7813
   17CHL1  H23B 1245   5.700   6.493   5.880 -0.2385 -0.6135 -1.7812
   17CHL1   C24 1246   5.821   6.665   5.838 -0.2724  0.3334 -0.0749
   17CHL1  H24A 1247   5.753   6.731   5.898 -1.3883 -0.3917 -0.5143
   17CHL1  H24B 1248   5.925   6.703   5.847  0.1251 -0.0266 -2.5998
   17CHL1   C25 1249   5.769   6.685   5.692 -0.5745  0.1447  0.5058
   17CHL1   H25 1250   5.663   6.652   5.683 -0.1354 -0.8222 -1.7094
   17CHL1   C26 1251   5.784   6.836   5.650  0.0700  0.5841 -0.0838
   17CHL1  H26A 1252   5.769   6.902   5.738  0.6782 -0.8289  1.1193
   17CHL1  H26B 1253   5.885   6.852   5.607 -0.4903  1.1068 -1.2623
   17CHL1  H26C 1254   5.707   6.846   5.569  0.0397  0.7292 -0.0375
   17CHL1   C27 1255   5.851   6.601   5.588 -0.6541 -0.1571  0.2025
   17CHL1  H27A 1256   5.855   6.491   5.604  2.3658 -0.0831  0.4384
   17CHL1  H27B 1257   5.790   6.612   5.495 -2.9251 -1.1789  1.4682
   17CHL1  H27C 1258   5.957   6.628   5.572 -0.5121 -1.8398 -2.2235
   18CHL1    C3 1259   4.580   2.185   6.985  0.1569  0.8135  0.3187
   18CHL1    H3 1260   4.471   2.194   7.001 -0.1526 -2.8848  1.2149
   18CHL1    O3 1261   4.643   2.212   7.105 -0.4661 -0.0267 -0.2782
   18CHL1   H3' 1262   4.637   2.134   7.161  4.1870 -0.2858  0.2270
   18CHL1    C4 1263   4.626   2.043   6.934  0.1265 -0.2976 -0.3090
   18CHL1   H4A 1264   4.736   2.057   6.943  0.2954 -0.7692 -1.5480
   18CHL1   H4B 1265   4.605   1.958   7.003 -0.8207 -0.4442 -0.7552
   18CHL1    C5 1266   4.585   2.001   6.795 -0.0527 -0.3732 -0.0485
   18CHL1    C6 1267   4.508   1.896   6.767 -0.9598 -0.0619 -0.9558
   18CHL1    H6 1268   4.489   1.824   6.848  1.4400 -1.2958 -1.4225
   18CHL1    C7 1269   4.488   1.837   6.629  0.3120  0.3352 -0.8193
   18CHL1   H7A 1270   4.509   1.729   6.636 -1.4645  0.0447  1.7126
   18CHL1   H7B 1271   4.379   1.851   6.616  0.2439  1.4321  0.5789
   18CHL1    C8 1272   4.567   1.913   6.519  0.1259  0.2422 -0.7412
   18CHL1    H8 1273   4.670   1.871   6.517  0.4386  0.9999 -0.9441
   18CHL1   C14 1274   4.499   1.883   6.390  0.2975 -0.2276 -0.0600
   18CHL1   H14 1275   4.393   1.916   6.389  0.8761  1.7569 -1.4058
   18CHL1   C15 1276   4.490   1.733   6.343  0.6010 -0.1509 -0.3992
   18CHL1  H15A 1277   4.594   1.699   6.360  1.3091  2.3359  0.5678
   18CHL1  H15B 1278   4.413   1.682   6.405 -0.4803  0.9860 -0.7661
   18CHL1   C16 1279   4.452   1.734   6.198  0.3843 -0.9583  0.5800
   18CHL1  H16A 1280   4.514   1.662   6.140 -1.6337 -3.5153  1.4461
   18CHL1  H16B 1281   4.348   1.701   6.177 -0.7943  2.3914  0.3998
   18CHL1   C17 1282   4.465   1.887   6.156 -0.1326 -0.3179 -0.0551
   18CHL1   H17 1283   4.362   1.924   6.175 -0.0061  0.4145 -0.7411
   18CHL1   C13 1284   4.546   1.956   6.271 -0.0236  0.3471 -0.0523
   18CHL1   C18 1285   4.703   1.926   6.258 -0.4680  0.3738 -0.0388
   18CHL1  H18A 1286   4.765   1.957   6.345  1.4875 -0.7786 -0.9560
   18CHL1  H18B 1287   4.733   1.822   6.233  0.9722  0.6630  0.3921
   18CHL1  H18C 1288   4.733   1.998   6.179 -3.0633  2.1092  0.4381
   18CHL1   C12 1289   4.515   2.107   6.291  0.0441  0.0264 -0.1253
   18CHL1  H12A 1290   4.565   2.172   6.215 -2.0210  1.5178 -0.2872
   18CHL1  H12B 1291   4.410   2.141   6.298  0.5240  1.3412  1.3734
   18CHL1   C11 1292   4.580   2.161   6.423 -0.6136 -0.4789 -0.3493
   18CHL1  H11A 1293   4.686   2.185   6.401 -0.4969 -1.1942 -0.5842
   18CHL1  H11B 1294   4.536   2.262   6.440 -0.0103 -0.2347 -0.2235
   18CHL1    C9 1295   4.561   2.070   6.550 -0.0470 -0.4820 -0.3050
   18CHL1    H9 1296   4.453   2.080   6.574 -0.2546 -0.8380 -1.0546
   18CHL1   C10 1297   4.629   2.099   6.685  0.7455  0.4867 -0.5064
   18CHL1   C19 1298   4.780   2.091   6.677 -0.1969  0.5203  0.5760
   18CHL1  H19A 1299   4.820   1.989   6.691 -1.2408 -0.4058 -2.4858
   18CHL1  H19B 1300   4.816   2.123   6.577 -2.4273 -1.2778 -0.9010
   18CHL1  H19C 1301   4.819   2.162   6.753  1.9424 -2.4756  2.4873
   18CHL1    C1 1302   4.594   2.242   6.732  0.1292 -0.1489 -0.0794
   18CHL1   H1A 1303   4.641   2.316   6.664  0.9338  0.6180  1.2745
   18CHL1   H1B 1304   4.483   2.245   6.727  0.1785  0.0902 -2.4183
   18CHL1    C2 1305   4.635   2.283   6.877  0.2789  0.0053 -0.0785
   18CHL1   H2A 1306   4.604   2.386   6.904 -0.6931 -0.0188 -1.0367
   18CHL1   H2B 1307   4.746   2.280   6.879  0.2634 -0.3828  1.5935
   18CHL1   C20 1308   4.502   1.904   6.008  0.0288  0.2679  0.0612
   18CHL1   H20 1309   4.526   2.006   5.971  1.2760 -0.2281 -0.5305
   18CHL1   C21 1310   4.373   1.862   5.928  0.5485 -0.0990  0.3048
   18CHL1  H21A 1311   4.294   1.940   5.940 -0.7400 -0.7845 -2.8859
   18CHL1  H21B 1312   4.343   1.761   5.961  1.6308  0.0368  1.8283
   18CHL1  H21C 1313   4.389   1.856   5.819 -1.6349  0.1260 -0.0673
   18CHL1   C22 1314   4.625   1.828   5.951  0.2043 -0.1383 -0.7375
   18CHL1  H22A 1315   4.706   1.843   6.026 -1.3776  1.6809  0.6858
   18CHL1  H22B 1316   4.624   1.717   5.950  4.6799 -0.4675  1.6377
   18CHL1   C23 1317   4.681   1.892   5.818  0.5276  0.0555 -0.8079
   18CHL1  H23A 1318   4.600   1.890   5.742  0.7735 -2.7593 -1.1252
   18CHL1  H23B 1319   4.726   1.990   5.842 -2.8941  1.1589  1.9145
   18CHL1   C24 1320   4.793   1.811   5.750  0.7655 -0.3948  0.7872
   18CHL1  H24A 1321   4.887   1.837   5.803  1.2254  1.9200 -0.9676
   18CHL1  H24B 1322   4.770   1.703   5.765 -1.1585 -0.1518 -0.0919
   18CHL1   C25 1323   4.804   1.820   5.598 -0.4770  0.1798  0.0916
   18CHL1   H25 1324   4.711   1.781   5.552  1.3282 -3.3061 -0.9852
   18CHL1   C26 1325   4.825   1.968   5.554 -0.3647  0.4119  0.3351
   18CHL1  H26A 1326   4.732   2.028   5.566 -0.2318  0.9819 -1.2156
   18CHL1  H26B 1327   4.909   2.015   5.610  0.3862  1.8287 -1.8682
   18CHL1  H26C 1328   4.859   1.970   5.448  0.9783  1.9604  0.7643
   18CHL1   C27 1329   4.921   1.727   5.538 -0.2523  0.3769 -0.3929
   18CHL1  H27A 1330   4.880   1.624   5.529 -1.0991  0.7678 -1.2348
   18CHL1  H27B 1331   4.944   1.751   5.432  0.0920  0.3082 -0.3358
   18CHL1  H27C 1332   5.011   1.732   5.603 -1.9844  0.0440  2.1853
   19CHL1    C3 1333   5.633   0.787   7.260  0.1907  0.2394 -0.7141
   19CHL1    H3 1334   5.743   0.781   7.246  0.0891  0.6497 -1.7963
   19CHL1    O3 1335   5.604   0.777   7.398  0.1369  0.4855 -0.6971
   19CHL1   H3' 1336   5.656   0.702   7.429 -0.5670  0.3190  0.1465
   19CHL1    C4 1337   5.578   0.915   7.196 -0.6904  0.3126 -0.3928
   19CHL1   H4A 1338   5.472   0.930   7.226 -0.5305  2.5628 -0.7742
   19CHL1   H4B 1339   5.642   0.988   7.251  1.8789 -1.8272 -0.3231
   19CHL1    C5 1340   5.600   0.914   7.041 -0.0612 -0.1194 -0.6429
   19CHL1    C6 1341   5.671   1.014   6.983  0.4954  0.4295  0.2015
   19CHL1    H6 1342   5.706   1.095   7.049  1.4128 -1.6272  2.4129
   19CHL1    C7 1343   5.703   1.021   6.835 -0.4323  0.2780  0.3646
   19CHL1   H7A 1344   5.698   1.130   6.813 -1.5534  1.2683  4.5877
   19CHL1   H7B 1345   5.806   0.983   6.816 -1.0510 -0.8775 -0.8127
   19CHL1    C8 1346   5.607   0.930   6.752 -0.7311 -0.3360  0.1109
   19CHL1    H8 1347   5.509   0.983   6.760 -0.6497 -0.3741  1.5836
   19CHL1   C14 1348   5.651   0.930   6.609  1.0441  0.4078 -1.2390
   19CHL1   H14 1349   5.749   0.881   6.596  0.7688 -0.5918  0.2229
   19CHL1   C15 1350   5.669   1.069   6.542 -0.2551 -0.0417  0.3260
   19CHL1  H15A 1351   5.578   1.128   6.567  0.7454  1.5781  0.2377
   19CHL1  H15B 1352   5.753   1.129   6.582 -0.0246 -1.0453  1.4353
   19CHL1   C16 1353   5.685   1.020   6.394  0.3875  0.6600  0.1690
   19CHL1  H16A 1354   5.631   1.100   6.339  0.0582 -0.7850 -1.6675
   19CHL1  H16B 1355   5.794   1.011   6.378  0.6270 -0.7706  2.1835
   19CHL1   C17 1356   5.621   0.881   6.385  0.3549 -0.3755  0.4170
   19CHL1   H17 1357   5.712   0.817   6.375  0.6313  0.0472  0.1778
   19CHL1   C13 1358   5.558   0.855   6.523  0.4279  0.1679  0.0690
   19CHL1   C18 1359   5.407   0.910   6.520 -1.0973 -0.1091 -0.0872
   19CHL1  H18A 1360   5.350   0.843   6.452 -0.9779  0.4188 -0.7163
   19CHL1  H18B 1361   5.357   0.897   6.618  0.1636  1.1851  0.7781
   19CHL1  H18C 1362   5.419   1.016   6.488  4.3290 -0.1468  0.7498
   19CHL1   C12 1363   5.554   0.705   6.571 -0.4501 -0.5011 -0.4130
   19CHL1  H12A 1364   5.478   0.653   6.509  0.7456 -4.7609  1.3171
   19CHL1  H12B 1365   5.648   0.651   6.547 -0.5417 -1.6416  1.5409
   19CHL1   C11 1366   5.519   0.695   6.715  0.1394  0.0960  0.1296
   19CHL1  H11A 1367   5.410   0.718   6.712  0.2093  0.5417 -3.7296
   19CHL1  H11B 1368   5.535   0.588   6.739  0.3528  0.1008  0.0051
   19CHL1    C9 1369   5.596   0.792   6.816  0.2280  0.6814 -0.0163
   19CHL1    H9 1370   5.701   0.758   6.826  0.2461  1.0678  1.1808
   19CHL1   C10 1371   5.548   0.791   6.963  0.0263  0.3771 -0.1638
   19CHL1   C19 1372   5.397   0.800   6.969  0.5377 -0.1083  0.8313
   19CHL1  H19A 1373   5.354   0.807   7.071  0.0749 -1.1291  0.7119
   19CHL1  H19B 1374   5.367   0.897   6.923 -1.3757 -0.5893  0.9782
   19CHL1  H19C 1375   5.339   0.726   6.910  0.0691 -0.7169  2.0110
   19CHL1    C1 1376   5.590   0.659   7.043 -0.0927 -0.4456  0.5771
   19CHL1   H1A 1377   5.544   0.572   6.992 -0.6423  0.4572 -0.5170
   19CHL1   H1B 1378   5.699   0.652   7.021 -0.3835 -0.8490 -0.8291
   19CHL1    C2 1379   5.568   0.663   7.197 -0.0768  0.1354 -0.2693
   19CHL1   H2A 1380   5.618   0.570   7.231  0.3084 -0.6511 -2.7435
   19CHL1   H2B 1381   5.462   0.639   7.222  0.5290 -1.5901  0.7941
   19CHL1   C20 1382   5.546   0.850   6.257  0.3584 -0.6134 -0.5745
   19CHL1   H20 1383   5.450   0.906   6.256  0.9400  0.3955 -0.6014
   19CHL1   C21 1384   5.520   0.702   6.231 -0.2479 -0.3511 -0.3130
   19CHL1  H21A 1385   5.450   0.654   6.303  0.5567  0.0719  0.7982
   19CHL1  H21B 1386   5.616   0.645   6.236  0.2576  0.3871 -1.3549
   19CHL1  H21C 1387   5.478   0.692   6.129  1.0264 -0.5245 -0.8355
   19CHL1   C22 1388   5.628   0.907   6.134  0.0154  0.2916 -0.3446
   19CHL1  H22A 1389   5.639   1.017   6.147 -1.5389  0.2527  1.9370
   19CHL1  H22B 1390   5.726   0.854   6.144 -0.3617 -0.3807 -0.1277
   19CHL1   C23 1391   5.556   0.905   5.993 -0.0562  0.7362 -0.3577
   19CHL1  H23A 1392   5.548   0.800   5.957  0.2316  0.3761  0.5892
   19CHL1  H23B 1393   5.460   0.960   6.002 -0.6757  0.0345 -2.2081
   19CHL1   C24 1394   5.636   0.979   5.887 -0.2520  0.3511  0.4883
   19CHL1  H24A 1395   5.672   1.076   5.927 -0.6638  1.3819 -1.4926
   19CHL1  H24B 1396   5.729   0.923   5.862 -2.9226 -3.2788 -2.3497
   19CHL1   C25 1397   5.547   1.013   5.760 -0.3698  0.0645  0.5513
   19CHL1   H25 1398   5.449   1.048   5.801 -0.0567  0.7075  0.7710
   19CHL1   C26 1399   5.616   1.123   5.686  0.0661 -0.2165  0.0998
   19CHL1  H26A 1400   5.563   1.145   5.591 -0.2882  0.0913  0.3668
   19CHL1  H26B 1401   5.620   1.217   5.746 -2.9396 -1.4723  2.5256
   19CHL1  H26C 1402   5.719   1.087   5.663  0.0166  0.4274 -1.1768
   19CHL1   C27 1403   5.529   0.889   5.683  0.0527 -0.4738  0.0350
   19CHL1  H27A 1404   5.624   0.852   5.638 -0.8220 -2.0343 -0.5824
   19CHL1  H27B 1405   5.476   0.804   5.731  1.7932 -1.1300  0.8791
   19CHL1  H27C 1406   5.467   0.919   5.596 -2.2314  2.8604  2.5389
   20CHL1    C3 1407   3.836   3.090   6.688  0.7216 -0.5596  0.0177
   20CHL1    H3 1408   3.912   3.016   6.656  1.1707 -0.2959  0.4701
   20CHL1    O3 1409   3.855   3.120   6.824  0.1884 -0.1155  0.0244
   20CHL1   H3' 1410   3.772   3.154   6.858  0.1271  0.7806 -0.9800
   20CHL1    C4 1411   3.846   3.222   6.614  0.1034  0.6279  0.0736
   20CHL1   H4A 1412   3.775   3.299   6.651 -1.2931 -0.1948 -0.8075
   20CHL1   H4B 1413   3.949   3.260   6.631 -0.3654  1.5286  1.0504
   20CHL1    C5 1414   3.826   3.206   6.464  0.1057 -0.6427 -0.3642
   20CHL1    C6 1415   3.920   3.249   6.382 -0.1933  0.4445 -0.1251
   20CHL1    H6 1416   4.007   3.300   6.428 -1.5681 -0.2385  3.5837
   20CHL1    C7 1417   3.917   3.240   6.230  0.2329 -0.8065  0.7374
   20CHL1   H7A 1418   3.944   3.341   6.190 -1.1889 -0.0987  1.4945
   20CHL1   H7B 1419   3.998   3.168   6.206  1.5166  0.9971 -0.7170
   20CHL1    C8 1420   3.778   3.201   6.169 -0.5652 -0.1701 -0.4080
   20CHL1    H8 1421   3.717   3.293   6.156 -1.2722 -0.9576 -3.4677
   20CHL1   C14 1422   3.785   3.154   6.029  0.7141  0.3547  0.0171
   20CHL1   H14 1423   3.834   3.056   6.040 -0.9007 -0.6345 -1.0922
   20CHL1   C15 1424   3.864   3.235   5.924 -0.5704  1.1225 -0.1703
   20CHL1  H15A 1425   3.837   3.341   5.944  0.0174  1.4313 -0.9625
   20CHL1  H15B 1426   3.972   3.213   5.941 -1.6167 -3.7655  2.1206
   20CHL1   C16 1427   3.808   3.188   5.793 -0.2251 -1.4647  0.3460
   20CHL1  H16A 1428   3.780   3.281   5.739  3.6453 -0.2495  0.1465
   20CHL1  H16B 1429   3.881   3.135   5.728  0.0489  0.5520 -1.1012
   20CHL1   C17 1430   3.690   3.090   5.823 -0.1610  0.7495  0.2149
   20CHL1   H17 1431   3.745   2.993   5.821 -1.5193 -0.0517  0.5532
   20CHL1   C13 1432   3.648   3.111   5.966 -0.0160  0.2525 -0.1056
   20CHL1   C18 1433   3.550   3.239   5.963 -0.0237  0.2848  0.1526
   20CHL1  H18A 1434   3.521   3.279   6.063 -1.7669 -0.5176 -0.0074
   20CHL1  H18B 1435   3.601   3.320   5.907 -1.1187  0.4823 -0.5865
   20CHL1  H18C 1436   3.462   3.216   5.900  0.8039 -0.3610 -0.8109
   20CHL1   C12 1437   3.588   2.994   6.052 -0.8751  0.5516 -0.2662
   20CHL1  H12A 1438   3.495   2.944   6.018 -0.6895  0.6709 -0.9879
   20CHL1  H12B 1439   3.670   2.919   6.060  1.7865  3.2872 -0.0568
   20CHL1   C11 1440   3.576   3.046   6.200  0.1615  0.2146 -0.4329
   20CHL1  H11A 1441   3.494   3.120   6.190 -0.0081  0.2098  0.7540
   20CHL1  H11B 1442   3.554   2.957   6.263  3.6292 -0.9335 -0.6150
   20CHL1    C9 1443   3.703   3.100   6.266 -0.0503  0.0811  0.0104
   20CHL1    H9 1444   3.773   3.014   6.264 -0.1377 -0.0002 -1.7905
   20CHL1   C10 1445   3.697   3.135   6.421 -0.5001  0.3974  0.3134
   20CHL1   C19 1446   3.576   3.233   6.452  0.1748  0.0728 -0.1618
   20CHL1  H19A 1447   3.474   3.191   6.437  0.3940 -0.8734  0.8823
   20CHL1  H19B 1448   3.591   3.270   6.555  1.1739 -0.3971 -0.1292
   20CHL1  H19C 1449   3.580   3.309   6.371 -2.2584  0.8496  0.3519
   20CHL1    C1 1450   3.682   3.002   6.510 -0.4608  0.0606  0.7720
   20CHL1   H1A 1451   3.581   2.960   6.497 -1.3995  2.2297  0.5766
   20CHL1   H1B 1452   3.760   2.932   6.473 -0.3710  1.4257 -1.8059
   20CHL1    C2 1453   3.703   3.024   6.658 -0.0251  0.2261  0.0596
   20CHL1   H2A 1454   3.701   2.926   6.710  0.0403  0.5534  0.6898
   20CHL1   H2B 1455   3.627   3.093   6.701  1.0507  1.3907  0.1595
   20CHL1   C20 1456   3.578   3.073   5.715  0.2623 -0.2649 -0.3335
   20CHL1   H20 1457   3.528   3.172   5.702  0.4022 -0.0978  0.3376
   20CHL1   C21 1458   3.465   2.983   5.765  0.1486  0.2542 -0.2633
   20CHL1  H21A 1459   3.498   2.878   5.776  0.4511  0.3503 -0.2551
   20CHL1  H21B 1460   3.397   2.966   5.678  2.8470 -1.0969 -2.2324
   20CHL1  H21C 1461   3.407   3.013   5.855 -1.8949  0.3889 -1.5360
   20CHL1   C22 1462   3.648   3.024   5.582 -0.2552  0.1442  0.1613
   20CHL1  H22A 1463   3.744   3.077   5.565  0.3754 -0.7835  0.7328
   20CHL1  H22B 1464   3.665   2.916   5.600  1.7767  0.4534  0.3083
   20CHL1   C23 1465   3.570   3.044   5.454  0.4649  0.3537  0.3175
   20CHL1  H23A 1466   3.466   3.004   5.460  0.6028  0.0435  0.7035
   20CHL1  H23B 1467   3.559   3.153   5.442 -0.8003  0.0180 -2.2211
   20CHL1   C24 1468   3.643   2.993   5.325 -0.2982  1.0929 -0.5338
   20CHL1  H24A 1469   3.593   3.050   5.244 -1.5185  1.3981  0.4064
   20CHL1  H24B 1470   3.750   3.024   5.326  0.3726 -0.8627  2.3870
   20CHL1   C25 1471   3.632   2.838   5.307  0.3517 -0.4588  0.7728
   20CHL1   H25 1472   3.663   2.788   5.401  1.1786 -3.2530 -0.8731
   20CHL1   C26 1473   3.500   2.795   5.256 -0.3986 -0.4729 -0.1717
   20CHL1  H26A 1474   3.419   2.815   5.329  0.3413 -0.0609  0.5388
   20CHL1  H26B 1475   3.472   2.852   5.165  1.9577 -0.9609 -1.2758
   20CHL1  H26C 1476   3.503   2.684   5.244  3.3135 -0.5715  0.6380
   20CHL1   C27 1477   3.742   2.789   5.206  0.0679  0.5849  0.3251
   20CHL1  H27A 1478   3.726   2.680   5.193  0.9457 -0.0316  3.5536
   20CHL1  H27B 1479   3.716   2.829   5.106  0.6678 -2.2747 -1.0456
   20CHL1  H27C 1480   3.844   2.815   5.243  0.0263 -1.6481  2.2294
   21CHL1    C3 1481   1.378   2.542   7.319  0.5227 -0.9197  0.1013
   21CHL1    H3 1482   1.477   2.593   7.314 -0.3048  0.8775  1.0747
   21CHL1    O3 1483   1.343   2.547   7.457  0.0291 -0.0556  0.4453
   21CHL1   H3' 1484   1.273   2.482   7.472 -2.2067  2.1071  0.0047
   21CHL1    C4 1485   1.271   2.629   7.246  0.0238  0.3093 -0.2936
   21CHL1   H4A 1486   1.177   2.574   7.266  2.0512 -1.9344  5.0947
   21CHL1   H4B 1487   1.257   2.727   7.296 -3.2210 -1.0247  1.7314
   21CHL1    C5 1488   1.312   2.644   7.103  0.2516 -0.6897 -0.3370
   21CHL1    C6 1489   1.327   2.764   7.054 -0.4846 -0.4806  0.1397
   21CHL1    H6 1490   1.317   2.851   7.121 -0.8910 -1.2636  1.1165
   21CHL1    C7 1491   1.364   2.784   6.913 -0.4320  0.0543  0.1955
   21CHL1   H7A 1492   1.291   2.857   6.873 -2.4188 -0.8565  1.9559
   21CHL1   H7B 1493   1.462   2.832   6.894 -0.9675  1.1346  0.0672
   21CHL1    C8 1494   1.335   2.657   6.819  0.2894  0.8413 -0.5195
   21CHL1    H8 1495   1.227   2.659   6.791  0.3394 -0.5131 -0.9034
   21CHL1   C14 1496   1.402   2.672   6.680  0.2655 -0.7880 -0.2819
   21CHL1   H14 1497   1.509   2.650   6.701  0.4871  1.7826  1.7641
   21CHL1   C15 1498   1.411   2.809   6.614 -0.2983 -0.8867  0.3097
   21CHL1  H15A 1499   1.311   2.855   6.622 -0.5265 -1.4280  0.6375
   21CHL1  H15B 1500   1.487   2.873   6.664  1.4580 -3.0319  0.5524
   21CHL1   C16 1501   1.453   2.770   6.468  0.2155  0.7106 -0.3472
   21CHL1  H16A 1502   1.388   2.820   6.393 -0.6470 -1.2722 -0.9842
   21CHL1  H16B 1503   1.550   2.819   6.445  1.1773  0.3907  2.6575
   21CHL1   C17 1504   1.467   2.614   6.465  0.9685 -0.1853  1.0059
   21CHL1   H17 1505   1.570   2.587   6.498  1.0617 -2.6313 -1.0087
   21CHL1   C13 1506   1.367   2.568   6.577 -0.2955 -0.2462 -0.0352
   21CHL1   C18 1507   1.225   2.579   6.529  0.1908 -0.2422  0.8209
   21CHL1  H18A 1508   1.212   2.681   6.487  0.6874  0.0136  1.2656
   21CHL1  H18B 1509   1.195   2.510   6.447 -1.0621  0.6165  0.5324
   21CHL1  H18C 1510   1.152   2.576   6.613 -1.1152  0.7929 -0.2332
   21CHL1   C12 1511   1.401   2.433   6.643 -0.1634  0.2574 -0.3578
   21CHL1  H12A 1512   1.370   2.357   6.568  1.6175  1.3544 -2.3141
   21CHL1  H12B 1513   1.512   2.425   6.651 -0.2646 -0.1413  0.8166
   21CHL1   C11 1514   1.336   2.411   6.782 -0.3641  0.2456 -0.3811
   21CHL1  H11A 1515   1.226   2.409   6.769 -0.5290 -1.1092  0.9135
   21CHL1  H11B 1516   1.352   2.313   6.831 -1.1129  0.7243  0.8654
   21CHL1    C9 1517   1.373   2.524   6.878 -0.0857 -0.0940  0.2204
   21CHL1    H9 1518   1.482   2.520   6.900 -0.1812 -3.1975  0.4723
   21CHL1   C10 1519   1.322   2.506   7.026 -0.0174  0.4393  0.5250
   21CHL1   C19 1520   1.173   2.444   7.023  0.0436  0.6317  0.4178
   21CHL1  H19A 1521   1.114   2.516   6.962  0.2861  0.4500 -0.0358
   21CHL1  H19B 1522   1.182   2.348   6.968 -1.2061  1.9145 -2.1796
   21CHL1  H19C 1523   1.117   2.427   7.117 -0.3278 -1.2467 -0.1058
   21CHL1    C1 1524   1.413   2.404   7.117  0.1083  0.0305  0.4736
   21CHL1   H1A 1525   1.398   2.303   7.075  0.8188 -0.4319  1.2890
   21CHL1   H1B 1526   1.518   2.435   7.094  0.1890  1.5791  2.6151
   21CHL1    C2 1527   1.391   2.404   7.268 -0.8937  0.1813  0.2382
   21CHL1   H2A 1528   1.475   2.351   7.318  2.2144  1.9619 -2.6944
   21CHL1   H2B 1529   1.296   2.352   7.293  0.5534 -1.6309  2.4906
   21CHL1   C20 1530   1.446   2.566   6.324  0.1836 -0.0501  0.2225
   21CHL1   H20 1531   1.344   2.589   6.286  0.6901 -0.0020 -1.1917
   21CHL1   C21 1532   1.455   2.406   6.316 -0.4097 -0.2276  0.2119
   21CHL1  H21A 1533   1.367   2.363   6.368 -1.7171 -0.6734 -2.1778
   21CHL1  H21B 1534   1.552   2.357   6.340  0.1009 -0.2388 -1.6907
   21CHL1  H21C 1535   1.440   2.379   6.209  0.0386  0.5636 -0.0585
   21CHL1   C22 1536   1.539   2.629   6.223 -0.2857  0.9606  0.3223
   21CHL1  H22A 1537   1.525   2.739   6.215 -0.9652  0.8790  0.3662
   21CHL1  H22B 1538   1.640   2.608   6.265 -1.0126 -0.6656  1.3705
   21CHL1   C23 1539   1.538   2.568   6.084 -0.2192  0.2221 -0.2513
   21CHL1  H23A 1540   1.597   2.476   6.063 -0.5701  0.0777 -0.6146
   21CHL1  H23B 1541   1.431   2.547   6.064 -0.9258  3.4350 -0.3834
   21CHL1   C24 1542   1.587   2.677   5.989  0.4651 -0.1571 -1.0334
   21CHL1  H24A 1543   1.550   2.777   6.018  0.6109 -0.4252  0.1124
   21CHL1  H24B 1544   1.698   2.680   5.997  0.4587  2.3337 -1.0616
   21CHL1   C25 1545   1.529   2.658   5.843  0.5961  0.3423 -0.1313
   21CHL1   H25 1546   1.516   2.550   5.822 -0.2997  0.0690  1.7155
   21CHL1   C26 1547   1.387   2.712   5.829  0.0373  0.0284  0.0945
   21CHL1  H26A 1548   1.347   2.688   5.729 -0.2071  0.6720  0.0318
   21CHL1  H26B 1549   1.328   2.666   5.911  1.3111  1.0902  1.6697
   21CHL1  H26C 1550   1.381   2.820   5.851  1.4392  0.0482  0.4568
   21CHL1   C27 1551   1.616   2.716   5.733 -0.3351  0.7164 -0.1652
   21CHL1  H27A 1552   1.642   2.823   5.746 -1.5420  1.0988 -0.7886
   21CHL1  H27B 1553   1.712   2.661   5.725  0.5673  1.9848  1.3950
   21CHL1  H27C 1554   1.565   2.697   5.637 -0.7604 -0.7185  0.3153
   22CHL1    C3 1555   3.863   6.267   7.064  0.4385 -0.4157  0.1077
   22CHL1    H3 1556   3.969   6.238   7.053  0.6214 -0.0372  0.8311
   22CHL1    O3 1557   3.828   6.244   7.199 -0.6359 -0.0337 -0.0778
   22CHL1   H3' 1558   3.802   6.336   7.214 -1.9489 -0.2603 -0.8113
   22CHL1    C4 1559   3.847   6.412   7.016 -0.7146 -0.8787  0.0358
   22CHL1   H4A 1560   3.742   6.442   7.035  0.0446  1.1788  1.3770
   22CHL1   H4B 1561   3.911   6.474   7.083  0.9510 -2.7614  0.2588
   22CHL1    C5 1562   3.871   6.440   6.871 -0.0906 -0.3713 -0.3885
   22CHL1    C6 1563   3.969   6.528   6.833 -0.1971 -0.0136 -0.1107
   22CHL1    H6 1564   4.005   6.594   6.913 -1.0637 -2.6210  2.5939
   22CHL1    C7 1565   4.007   6.550   6.693  0.2642  0.1568  0.0663
   22CHL1   H7A 1566   4.018   6.660   6.679 -2.0032  0.4819  0.4487
   22CHL1   H7B 1567   4.105   6.501   6.675 -0.1842  0.1153 -2.6649
   22CHL1    C8 1568   3.908   6.491   6.595 -0.8804  0.5756  0.7884
   22CHL1    H8 1569   3.818   6.554   6.582 -1.2214 -0.0199  0.2053
   22CHL1   C14 1570   3.984   6.467   6.457 -0.0209 -0.4687 -0.3414
   22CHL1   H14 1571   4.063   6.392   6.480  0.3967  0.4615  1.5360
   22CHL1   C15 1572   4.074   6.580   6.395  0.1409  0.3790 -0.2236
   22CHL1  H15A 1573   4.023   6.677   6.411 -0.3800 -0.1171  1.3229
   22CHL1  H15B 1574   4.166   6.595   6.454  0.2820  1.0493 -0.6020
   22CHL1   C16 1575   4.084   6.545   6.249  0.5688 -0.0281  0.6904
   22CHL1  H16A 1576   4.040   6.637   6.206 -0.0299  0.2623  1.8942
   22CHL1  H16B 1577   4.185   6.545   6.201  0.7157 -1.4116  0.9546
   22CHL1   C17 1578   3.987   6.428   6.215 -0.4282 -0.0443  0.4019
   22CHL1   H17 1579   4.053   6.339   6.220 -1.9470 -1.1647  1.5875
   22CHL1   C13 1580   3.897   6.417   6.343  0.4717 -0.8120  0.1073
   22CHL1   C18 1581   3.777   6.518   6.324 -0.7223 -0.8069  0.3255
   22CHL1  H18A 1582   3.718   6.483   6.237 -0.0268 -1.6043  0.1634
   22CHL1  H18B 1583   3.703   6.533   6.406 -2.2635  1.7643 -1.4075
   22CHL1  H18C 1584   3.810   6.623   6.312  0.6883 -1.1362  1.1209
   22CHL1   C12 1585   3.847   6.281   6.379  0.4040  0.2570 -0.2908
   22CHL1  H12A 1586   3.765   6.242   6.316  0.7449  0.0904 -0.6396
   22CHL1  H12B 1587   3.927   6.205   6.363  1.4734  1.8393 -3.4032
   22CHL1   C11 1588   3.779   6.280   6.521  0.0424 -0.3140 -0.1244
   22CHL1  H11A 1589   3.691   6.346   6.505 -0.2378 -0.8010 -0.6081
   22CHL1  H11B 1590   3.745   6.179   6.550  0.0167 -0.1322  0.4919
   22CHL1    C9 1591   3.863   6.349   6.633  0.0258 -0.0153 -0.3948
   22CHL1    H9 1592   3.959   6.296   6.647  0.7738  1.7901  2.2299
   22CHL1   C10 1593   3.798   6.348   6.772 -1.3974  0.0638  0.9083
   22CHL1   C19 1594   3.649   6.375   6.764  1.1452  0.6440  0.1282
   22CHL1  H19A 1595   3.595   6.302   6.700 -1.8640  1.4541  1.5569
   22CHL1  H19B 1596   3.599   6.354   6.861  0.6633  0.1312 -0.2253
   22CHL1  H19C 1597   3.633   6.479   6.728 -1.9898  0.0232 -0.5960
   22CHL1    C1 1598   3.820   6.201   6.829  0.0338 -0.2042 -0.3427
   22CHL1   H1A 1599   3.764   6.132   6.762  0.5473 -1.0989  0.1270
   22CHL1   H1B 1600   3.928   6.176   6.815 -0.1566  0.1651 -2.9145
   22CHL1    C2 1601   3.781   6.177   6.977 -0.2338  0.1047  0.0370
   22CHL1   H2A 1602   3.805   6.070   6.992  2.4286  0.3180 -1.9434
   22CHL1   H2B 1603   3.675   6.198   7.002 -0.6722 -2.3339  0.5204
   22CHL1   C20 1604   3.928   6.439   6.075  0.1649 -0.3980 -0.0482
   22CHL1   H20 1605   3.847   6.514   6.061  0.6646  0.2661  0.5990
   22CHL1   C21 1606   3.888   6.288   6.041 -1.1076 -0.2127  0.3788
   22CHL1  H21A 1607   3.831   6.274   5.947 -1.1797 -1.6849  0.6224
   22CHL1  H21B 1608   3.826   6.231   6.113 -3.1747 -0.8586 -1.8067
   22CHL1  H21C 1609   3.981   6.231   6.025  0.4988  2.1692  0.6967
   22CHL1   C22 1610   4.035   6.480   5.960  0.5310  0.4285 -0.0067
   22CHL1  H22A 1611   4.071   6.579   5.995 -0.5509  0.5504  0.8307
   22CHL1  H22B 1612   4.103   6.392   5.963 -0.1364 -0.2341 -2.5456
   22CHL1   C23 1613   3.977   6.504   5.819 -1.1616 -0.8341  0.3685
   22CHL1  H23A 1614   4.058   6.495   5.743 -0.4911  4.8315  0.0062
   22CHL1  H23B 1615   3.899   6.430   5.791 -1.0446  0.4025 -3.9363
   22CHL1   C24 1616   3.943   6.652   5.791 -0.7547  0.6001  0.2464
   22CHL1  H24A 1617   3.859   6.689   5.854 -1.5718  1.4545 -1.2868
   22CHL1  H24B 1618   4.033   6.709   5.824 -0.3464 -0.0588  0.2993
   22CHL1   C25 1619   3.923   6.691   5.646  0.0746  0.1578  0.8642
   22CHL1   H25 1620   4.009   6.657   5.584 -0.7153 -0.3975  0.0519
   22CHL1   C26 1621   3.800   6.609   5.592  0.0126  0.0693  0.1753
   22CHL1  H26A 1622   3.810   6.501   5.615 -1.5439  0.3067  2.2566
   22CHL1  H26B 1623   3.714   6.648   5.650 -0.3238 -2.0344  1.1709
   22CHL1  H26C 1624   3.783   6.624   5.483  1.8188  1.2110  0.0087
   22CHL1   C27 1625   3.912   6.842   5.615  0.2913 -0.0382 -0.3610
   22CHL1  H27A 1626   3.822   6.889   5.660 -0.0651 -1.1723  0.1510
   22CHL1  H27B 1627   4.001   6.892   5.658 -0.1381  0.9120 -0.5442
   22CHL1  H27C 1628   3.904   6.847   5.504  0.6646 -1.4979 -0.4788
   23CHL1    C3 1629   2.858   3.300   6.744 -0.1047 -0.4469 -0.3078
   23CHL1    H3 1630   2.769   3.359   6.714 -0.1730  0.0203  0.7459
   23CHL1    O3 1631   2.841   3.302   6.882  0.2575 -0.2547  0.0096
   23CHL1   H3' 1632   2.927   3.280   6.919 -0.5679 -3.8211  0.1481
   23CHL1    C4 1633   2.841   3.162   6.685 -0.5265  0.5438 -0.5341
   23CHL1   H4A 1634   2.918   3.098   6.732 -0.8270  0.4389 -0.1791
   23CHL1   H4B 1635   2.738   3.130   6.713  0.0774 -1.2617 -0.1960
   23CHL1    C5 1636   2.856   3.155   6.540  0.4370 -0.3546  0.9932
   23CHL1    C6 1637   2.764   3.100   6.455 -0.2238 -0.1489  0.0494
   23CHL1    H6 1638   2.669   3.060   6.493  1.5961 -1.6735  3.4652
   23CHL1    C7 1639   2.779   3.085   6.311 -1.0110  0.5123 -0.1150
   23CHL1   H7A 1640   2.753   2.981   6.283  1.4860 -0.2351  0.0637
   23CHL1   H7B 1641   2.704   3.142   6.253 -2.3335 -1.1461 -0.1143
   23CHL1    C8 1642   2.920   3.125   6.253 -0.3649  0.3978 -0.0583
   23CHL1    H8 1643   2.984   3.037   6.276 -0.0429  1.1014  1.9901
   23CHL1   C14 1644   2.920   3.158   6.101  1.3886  0.1064  0.6611
   23CHL1   H14 1645   2.859   3.250   6.089 -0.9267 -1.3163  0.8623
   23CHL1   C15 1646   2.864   3.055   5.998 -0.5060 -0.0993  0.0528
   23CHL1  H15A 1647   2.892   2.953   6.034  1.2105  0.7410  1.2019
   23CHL1  H15B 1648   2.753   3.061   6.000 -0.4380  1.3194  1.8073
   23CHL1   C16 1649   2.935   3.094   5.870  0.0922  0.1498  0.5362
   23CHL1  H16A 1650   3.007   3.015   5.840  0.7395  0.1167  2.0901
   23CHL1  H16B 1651   2.858   3.109   5.791 -0.2505 -0.3315  0.7778
   23CHL1   C17 1652   3.014   3.225   5.895 -0.0239 -0.0473 -0.2275
   23CHL1   H17 1653   2.952   3.316   5.895 -0.2299 -0.1868 -0.3516
   23CHL1   C13 1654   3.056   3.196   6.043  0.2697  0.3651 -0.1023
   23CHL1   C18 1655   3.165   3.085   6.056 -0.1287  0.3169 -0.3026
   23CHL1  H18A 1656   3.167   3.020   5.966 -1.2385 -0.7605  0.4218
   23CHL1  H18B 1657   3.263   3.134   6.072 -0.7145  1.6327 -0.5475
   23CHL1  H18C 1658   3.159   3.020   6.145  1.4130 -3.1821 -2.5476
   23CHL1   C12 1659   3.096   3.324   6.120  0.1080  0.7744  0.1086
   23CHL1  H12A 1660   3.196   3.364   6.090  1.1468  0.4101  2.8417
   23CHL1  H12B 1661   3.022   3.407   6.122  0.9584  1.5463  0.2769
   23CHL1   C11 1662   3.115   3.293   6.269 -0.6830 -0.6645  0.8430
   23CHL1  H11A 1663   3.184   3.207   6.267  1.6270  1.0980  0.8057
   23CHL1  H11B 1664   3.162   3.377   6.326 -1.3911  0.3051  0.0413
   23CHL1    C9 1665   2.980   3.243   6.329  0.1070 -0.2385  0.0518
   23CHL1    H9 1666   2.902   3.321   6.314 -1.6272 -2.1493 -1.5396
   23CHL1   C10 1667   2.986   3.221   6.483  0.4871  0.6026  0.1824
   23CHL1   C19 1668   3.103   3.125   6.519 -0.4265 -0.3826  0.1726
   23CHL1  H19A 1669   3.094   3.018   6.491 -1.0659 -0.1277 -0.6274
   23CHL1  H19B 1670   3.200   3.157   6.475 -0.7958 -1.7410 -1.7116
   23CHL1  H19C 1671   3.109   3.139   6.629 -0.7219  3.6604 -0.1502
   23CHL1    C1 1672   2.996   3.361   6.551 -0.0281  0.3372 -0.2382
   23CHL1   H1A 1673   3.100   3.397   6.533 -0.2700  1.3851  0.3635
   23CHL1   H1B 1674   2.925   3.433   6.504  0.0632  0.5049 -0.1211
   23CHL1    C2 1675   2.988   3.357   6.706 -0.0336 -0.2039  0.5910
   23CHL1   H2A 1676   2.990   3.462   6.741  0.6759 -0.0732  0.1849
   23CHL1   H2B 1677   3.078   3.311   6.751  0.1047  2.1651  2.9396
   23CHL1   C20 1678   3.130   3.252   5.800 -0.0822 -0.0122  0.0268
   23CHL1   H20 1679   3.213   3.182   5.825 -1.1458 -1.9559 -1.5444
   23CHL1   C21 1680   3.180   3.401   5.821 -0.3001 -0.3165  0.3191
   23CHL1  H21A 1681   3.243   3.429   5.734  0.8511 -2.8219  0.2556
   23CHL1  H21B 1682   3.243   3.424   5.910  0.8656  0.8035 -0.7523
   23CHL1  H21C 1683   3.091   3.466   5.815 -0.9735 -1.1344  1.1822
   23CHL1   C22 1684   3.083   3.218   5.660 -0.4294 -0.1386 -0.2803
   23CHL1  H22A 1685   3.030   3.120   5.655 -0.5826 -0.0329 -0.8037
   23CHL1  H22B 1686   3.002   3.285   5.625 -1.0833 -1.7056 -1.9723
   23CHL1   C23 1687   3.188   3.209   5.554 -1.1536  0.2156  0.9564
   23CHL1  H23A 1688   3.238   3.305   5.525 -2.1675 -0.1641 -2.4685
   23CHL1  H23B 1689   3.272   3.145   5.588 -0.7019 -0.1402 -0.7553
   23CHL1   C24 1690   3.131   3.163   5.421 -0.4522  0.6471 -0.1935
   23CHL1  H24A 1691   3.105   3.057   5.438  0.1246  0.9101  2.9390
   23CHL1  H24B 1692   3.040   3.224   5.399  0.5738  1.4602 -2.6068
   23CHL1   C25 1693   3.224   3.174   5.303 -0.7848  0.1746  0.3302
   23CHL1   H25 1694   3.292   3.087   5.303  0.8409  1.3673 -0.8445
   23CHL1   C26 1695   3.147   3.180   5.170  0.4983 -0.3667 -0.2437
   23CHL1  H26A 1696   3.091   3.084   5.159 -1.8051  0.5230  2.4895
   23CHL1  H26B 1697   3.073   3.262   5.165  0.0495 -0.7822 -0.5517
   23CHL1  H26C 1698   3.209   3.189   5.078 -0.7231  0.7535 -0.9854
   23CHL1   C27 1699   3.318   3.297   5.303 -0.4907  1.0167 -0.0651
   23CHL1  H27A 1700   3.258   3.391   5.313 -2.4446 -0.1012 -0.8098
   23CHL1  H27B 1701   3.397   3.287   5.380 -0.1277 -2.2469 -0.7183
   23CHL1  H27C 1702   3.381   3.296   5.212 -0.0880  2.1718  0.1845
   24CHL1    C3 1703   4.021   1.193   7.161 -0.0262  0.5714 -0.9763
   24CHL1    H3 1704   3.976   1.294   7.156 -2.4763 -0.3051  1.1913
   24CHL1    O3 1705   4.003   1.135   7.292  0.1101  0.2429  0.3099
   24CHL1   H3' 1706   4.088   1.147   7.335 -0.1809  1.5877  0.5435
   24CHL1    C4 1707   3.949   1.103   7.063  0.1456 -0.2329 -0.6186
   24CHL1   H4A 1708   3.978   0.996   7.071 -1.8313 -0.7021  1.0047
   24CHL1   H4B 1709   3.842   1.094   7.091  0.8508  0.2994  2.7052
   24CHL1    C5 1710   3.966   1.143   6.916 -0.1624 -0.1071  0.0490
   24CHL1    C6 1711   3.859   1.148   6.834 -0.4088 -0.2704 -0.5738
   24CHL1    H6 1712   3.760   1.134   6.880 -0.9503  0.8136 -1.3468
   24CHL1    C7 1713   3.872   1.174   6.688 -0.5852  0.5726 -0.3310
   24CHL1   H7A 1714   3.819   1.096   6.629 -0.5294  1.0653 -1.0418
   24CHL1   H7B 1715   3.842   1.278   6.667 -0.3657  1.0092  1.3623
   24CHL1    C8 1716   4.020   1.170   6.639  0.3286  0.4641  0.3468
   24CHL1    H8 1717   4.047   1.062   6.633 -0.2628  0.2158  1.7863
   24CHL1   C14 1718   4.021   1.243   6.504 -1.1768  0.4209  0.0185
   24CHL1   H14 1719   3.988   1.345   6.536 -3.1789 -0.2741  0.3519
   24CHL1   C15 1720   3.925   1.210   6.390  0.1266 -0.4437 -0.1958
   24CHL1  H15A 1721   3.915   1.100   6.380  0.4754 -0.3100 -2.9059
   24CHL1  H15B 1722   3.822   1.247   6.412  0.2690 -0.7508  1.0709
   24CHL1   C16 1723   3.987   1.279   6.262  0.5842 -0.2983 -0.2882
   24CHL1  H16A 1724   3.998   1.197   6.188 -1.9615 -0.3659 -0.6808
   24CHL1  H16B 1725   3.918   1.357   6.223 -0.0563 -0.3366  0.7326
   24CHL1   C17 1726   4.123   1.332   6.312 -0.8797 -0.1195  0.0545
   24CHL1   H17 1727   4.107   1.436   6.345  0.1543  0.2023 -0.4295
   24CHL1   C13 1728   4.161   1.256   6.446 -0.2259  0.0479  0.6706
   24CHL1   C18 1729   4.205   1.107   6.408 -0.3582 -0.2083 -0.5354
   24CHL1  H18A 1730   4.140   1.046   6.342 -1.8452 -0.0415  0.7323
   24CHL1  H18B 1731   4.305   1.113   6.359 -0.6080 -2.2491 -1.3904
   24CHL1  H18C 1732   4.214   1.043   6.498 -0.4195  0.4849 -0.0310
   24CHL1   C12 1733   4.257   1.319   6.546  0.2669 -0.5617 -0.0691
   24CHL1  H12A 1734   4.361   1.313   6.508  0.8673 -0.1648  1.4250
   24CHL1  H12B 1735   4.232   1.427   6.552 -0.2745 -0.5472 -2.0448
   24CHL1   C11 1736   4.254   1.249   6.680  0.7787 -0.2756  0.0736
   24CHL1  H11A 1737   4.304   1.151   6.669 -0.2879 -0.6856 -1.3989
   24CHL1  H11B 1738   4.315   1.312   6.748 -1.0422 -0.4745  2.0353
   24CHL1    C9 1739   4.108   1.243   6.734 -0.3688  0.2141 -0.1573
   24CHL1    H9 1740   4.074   1.344   6.763  0.5562  0.7691 -0.9331
   24CHL1   C10 1741   4.114   1.175   6.879 -0.2025 -0.1511  0.9613
   24CHL1   C19 1742   4.188   1.043   6.879  0.3873 -0.3988  0.0424
   24CHL1  H19A 1743   4.175   0.992   6.781 -0.2817 -0.6941  0.2772
   24CHL1  H19B 1744   4.298   1.055   6.892  0.2393  1.4785 -0.2253
   24CHL1  H19C 1745   4.158   0.962   6.949 -0.0805 -1.6864 -1.5573
   24CHL1    C1 1746   4.182   1.266   6.989  0.1664 -0.1947  0.3676
   24CHL1   H1A 1747   4.287   1.292   6.965 -0.5179  0.9515 -1.6838
   24CHL1   H1B 1748   4.141   1.369   6.977 -0.6956 -0.6944 -1.2441
   24CHL1    C2 1749   4.167   1.217   7.132 -0.5672 -0.3156  0.0929
   24CHL1   H2A 1750   4.210   1.291   7.202  1.1633 -0.2258 -1.0048
   24CHL1   H2B 1751   4.229   1.126   7.144  1.4627  0.9336 -0.4607
   24CHL1   C20 1752   4.225   1.332   6.193 -0.6017 -0.5493  0.3559
   24CHL1   H20 1753   4.246   1.225   6.171  1.0997 -0.1184 -0.3013
   24CHL1   C21 1754   4.353   1.395   6.244  0.5240  0.1118  0.1031
   24CHL1  H21A 1755   4.420   1.330   6.304 -0.1920  1.6942  2.8135
   24CHL1  H21B 1756   4.343   1.495   6.292  0.5076  0.2633 -0.2107
   24CHL1  H21C 1757   4.423   1.417   6.160  2.1745 -1.4092  1.0066
   24CHL1   C22 1758   4.170   1.413   6.068  0.1408  1.4897  0.4095
   24CHL1  H22A 1759   4.078   1.366   6.026  0.3107  1.9394 -0.5038
   24CHL1  H22B 1760   4.147   1.513   6.109  0.9135  1.7837  0.1371
   24CHL1   C23 1761   4.274   1.417   5.952 -0.7774 -0.4723  0.5552
   24CHL1  H23A 1762   4.363   1.477   5.980 -0.5455 -0.3817 -0.3424
   24CHL1  H23B 1763   4.295   1.309   5.936 -0.7351 -0.1853 -1.5977
   24CHL1   C24 1764   4.219   1.493   5.829 -0.0074 -0.2120 -0.7264
   24CHL1  H24A 1765   4.117   1.453   5.809  0.6480 -1.6140 -1.4504
   24CHL1  H24B 1766   4.202   1.597   5.863 -0.2804 -0.8433  1.1894
   24CHL1   C25 1767   4.311   1.481   5.701 -0.3814  0.0727  0.3331
   24CHL1   H25 1768   4.316   1.375   5.669  1.5004  0.8279 -2.1534
   24CHL1   C26 1769   4.253   1.564   5.584  0.1411  0.7148  0.3178
   24CHL1  H26A 1770   4.235   1.665   5.625  0.1266  0.8673 -0.0612
   24CHL1  H26B 1771   4.327   1.562   5.502  0.1781 -1.9211  0.3198
   24CHL1  H26C 1772   4.158   1.516   5.552  0.5971  0.2145 -0.3094
   24CHL1   C27 1773   4.456   1.517   5.726  0.2265 -1.2964  0.6468
   24CHL1  H27A 1774   4.516   1.510   5.633  1.5796 -2.1502  1.5587
   24CHL1  H27B 1775   4.456   1.614   5.782 -3.6131 -0.8173  0.1119
   24CHL1  H27C 1776   4.497   1.442   5.797 -1.9832 -1.7870  1.5100
   25CHL1    C3 1777   2.115   3.367   7.133  0.4118  0.5681  0.3925
   25CHL1    H3 1778   2.115   3.475   7.156  2.0325  1.0654 -1.6538
   25CHL1    O3 1779   2.149   3.302   7.258 -0.1682 -0.4104 -0.6265
   25CHL1   H3' 1780   2.236   3.340   7.273  0.1205 -0.7025 -1.4592
   25CHL1    C4 1781   1.979   3.312   7.068  0.2730 -0.0596  0.2304
   25CHL1   H4A 1782   1.992   3.203   7.054  1.4753 -0.0571  1.1682
   25CHL1   H4B 1783   1.904   3.341   7.145  1.9020  0.7544  1.5614
   25CHL1    C5 1784   1.958   3.386   6.939  1.0558 -0.1819  0.4467
   25CHL1    C6 1785   1.842   3.449   6.912 -0.7129  0.0278  0.0984
   25CHL1    H6 1786   1.766   3.466   6.990 -0.6044  3.5902 -0.4089
   25CHL1    C7 1787   1.808   3.502   6.779 -0.2511 -0.6706  0.9427
   25CHL1   H7A 1788   1.703   3.472   6.756  1.0590 -3.9385 -1.5945
   25CHL1   H7B 1789   1.822   3.612   6.778  3.7355 -1.0042 -1.2252
   25CHL1    C8 1790   1.897   3.446   6.665  0.5781 -0.0705 -0.4515
   25CHL1    H8 1791   1.865   3.340   6.655 -1.2913  0.1448  2.1728
   25CHL1   C14 1792   1.881   3.524   6.535  0.5421  0.1010 -0.2140
   25CHL1   H14 1793   1.916   3.625   6.565 -1.8989  0.4506  1.7379
   25CHL1   C15 1794   1.735   3.547   6.478  0.1276 -0.2639 -0.2002
   25CHL1  H15A 1795   1.682   3.449   6.476 -1.9365  0.7602  0.5906
   25CHL1  H15B 1796   1.668   3.615   6.537 -0.2847 -0.3476 -0.5663
   25CHL1   C16 1797   1.761   3.590   6.332 -0.4991 -0.5551  0.1104
   25CHL1  H16A 1798   1.713   3.514   6.268 -0.7254  1.4894 -2.2877
   25CHL1  H16B 1799   1.719   3.692   6.314  0.7225 -0.2444 -1.1480
   25CHL1   C17 1800   1.919   3.591   6.313 -0.8103 -0.2695 -0.0316
   25CHL1   H17 1801   1.956   3.692   6.339 -3.7609  0.9250 -0.1737
   25CHL1   C13 1802   1.966   3.484   6.417 -0.3996  0.0903 -0.1898
   25CHL1   C18 1803   1.931   3.342   6.375  0.3112  0.4848 -0.0825
   25CHL1  H18A 1804   1.821   3.327   6.363  0.5798 -0.2885 -1.8377
   25CHL1  H18B 1805   1.975   3.311   6.278  0.3016 -1.2690  0.4399
   25CHL1  H18C 1806   1.954   3.260   6.446 -0.4598  0.6834  0.4163
   25CHL1   C12 1807   2.116   3.494   6.456  0.7827  0.0916  0.1641
   25CHL1  H12A 1808   2.186   3.435   6.392 -0.6153 -0.9689 -0.4333
   25CHL1  H12B 1809   2.157   3.597   6.450 -1.1895  0.8723 -0.4713
   25CHL1   C11 1810   2.145   3.423   6.592  0.3392 -0.0227  0.0756
   25CHL1  H11A 1811   2.140   3.319   6.553 -0.5044  0.8401 -2.2997
   25CHL1  H11B 1812   2.244   3.457   6.630  0.2576 -1.8656  2.1331
   25CHL1    C9 1813   2.047   3.453   6.711 -0.1238  0.1811  0.0734
   25CHL1    H9 1814   2.064   3.559   6.740  0.4643  1.2445 -3.7149
   25CHL1   C10 1815   2.070   3.364   6.835 -0.6218  0.1569 -0.1275
   25CHL1   C19 1816   2.069   3.210   6.793  0.3883  0.2786  0.6385
   25CHL1  H19A 1817   1.971   3.184   6.747  1.1657  1.2317 -1.7078
   25CHL1  H19B 1818   2.145   3.194   6.714 -1.0286 -0.0607 -0.6976
   25CHL1  H19C 1819   2.100   3.146   6.879  0.5036 -1.6763 -0.7851
   25CHL1    C1 1820   2.202   3.404   6.898 -0.6609  0.0402 -0.0616
   25CHL1   H1A 1821   2.291   3.391   6.833  0.3733  1.9599  0.8741
   25CHL1   H1B 1822   2.197   3.515   6.904 -1.5727  0.1075 -1.4697
   25CHL1    C2 1823   2.232   3.344   7.039  0.1300  0.5513  0.3226
   25CHL1   H2A 1824   2.319   3.390   7.090  0.5056 -0.1879  0.3642
   25CHL1   H2B 1825   2.252   3.236   7.024  2.7958  1.1530 -0.9597
   25CHL1   C20 1826   1.952   3.579   6.159 -0.7314 -0.1643  0.3341
   25CHL1   H20 1827   1.923   3.474   6.139 -1.0633  0.4127 -2.7827
   25CHL1   C21 1828   2.102   3.599   6.138  0.7899  0.1363  0.1862
   25CHL1  H21A 1829   2.174   3.525   6.180  1.5438 -0.0210 -1.2941
   25CHL1  H21B 1830   2.132   3.703   6.165  1.8885 -0.6827  2.2939
   25CHL1  H21C 1831   2.133   3.580   6.032 -2.1327  0.4810 -0.8102
   25CHL1   C22 1832   1.875   3.670   6.057  0.1308  0.5826 -0.7202
   25CHL1  H22A 1833   1.926   3.652   5.960  0.4478  1.7222 -0.7690
   25CHL1  H22B 1834   1.771   3.632   6.040  0.0243  0.6311 -0.1825
   25CHL1   C23 1835   1.871   3.817   6.097 -0.4991  0.4687 -0.0073
   25CHL1  H23A 1836   1.801   3.831   6.182  0.4152  1.2171  0.6479
   25CHL1  H23B 1837   1.971   3.845   6.137  0.9848 -0.3303 -2.8286
   25CHL1   C24 1838   1.820   3.915   5.980 -0.2758  0.7764 -0.3670
   25CHL1  H24A 1839   1.729   3.862   5.944 -0.8137  0.7304  0.9961
   25CHL1  H24B 1840   1.785   4.014   6.016 -0.2225  0.3305  0.9441
   25CHL1   C25 1841   1.935   3.927   5.877 -0.0187 -0.0882  0.4773
   25CHL1   H25 1842   2.001   3.838   5.886  0.2932  0.2516  1.6572
   25CHL1   C26 1843   1.868   3.942   5.741 -0.0466  0.1425  0.5610
   25CHL1  H26A 1844   1.804   4.032   5.748  0.9543  0.8966  0.3998
   25CHL1  H26B 1845   1.939   3.960   5.657 -0.2465  0.2817  0.4232
   25CHL1  H26C 1846   1.806   3.852   5.724 -1.1707  0.9063  0.5169
   25CHL1   C27 1847   2.023   4.045   5.922 -0.3675  0.2532 -0.3246
   25CHL1  H27A 1848   1.978   4.147   5.914  1.4189  1.2388  1.3534
   25CHL1  H27B 1849   2.064   4.023   6.023  0.7975  0.3313 -0.7634
   25CHL1  H27C 1850   2.122   4.046   5.872 -0.0430 -2.9424  0.0702
   26CHL1    C3 1851   5.194   1.257   7.238  0.3313 -0.0140 -0.6739
   26CHL1    H3 1852   5.202   1.363   7.268  0.0939 -0.0923 -0.3360
   26CHL1    O3 1853   5.153   1.167   7.337  0.0661  0.5301 -0.7800
   26CHL1   H3' 1854   5.216   1.173   7.409  1.9192  0.0503 -2.2666
   26CHL1    C4 1855   5.105   1.255   7.110  0.5041  0.4057 -0.5421
   26CHL1   H4A 1856   5.091   1.148   7.082  1.9278 -0.2757  1.1606
   26CHL1   H4B 1857   5.004   1.297   7.130  0.5566 -0.3860  1.6501
   26CHL1    C5 1858   5.155   1.338   6.994 -0.0608 -0.9889 -0.1083
   26CHL1    C6 1859   5.080   1.429   6.938 -0.3484 -1.1829  0.2474
   26CHL1    H6 1860   4.982   1.452   6.984  0.9158  2.4875  1.4432
   26CHL1    C7 1861   5.119   1.494   6.811 -0.6310  0.1959  0.7683
   26CHL1   H7A 1862   5.033   1.488   6.741 -3.1354  2.5126  3.3711
   26CHL1   H7B 1863   5.129   1.603   6.831  0.2575  0.1639  0.5089
   26CHL1    C8 1864   5.242   1.435   6.745  0.3280 -0.2371 -0.5047
   26CHL1    H8 1865   5.203   1.346   6.691  0.1681 -2.5059  3.0646
   26CHL1   C14 1866   5.306   1.543   6.652  0.1664  0.4917 -0.2780
   26CHL1   H14 1867   5.344   1.625   6.716 -0.8449  0.0382  0.9302
   26CHL1   C15 1868   5.212   1.607   6.547 -0.4063  0.2305 -0.0011
   26CHL1  H15A 1869   5.159   1.523   6.498  1.8867 -2.8274  2.3594
   26CHL1  H15B 1870   5.133   1.674   6.589 -0.0176  0.4570  0.3734
   26CHL1   C16 1871   5.305   1.672   6.445  0.3593  0.1792 -0.2337
   26CHL1  H16A 1872   5.276   1.621   6.351  2.0080 -1.1276 -0.0673
   26CHL1  H16B 1873   5.302   1.780   6.419 -0.7658 -0.0046 -0.9665
   26CHL1   C17 1874   5.447   1.634   6.487  0.3134 -0.0491 -1.3050
   26CHL1   H17 1875   5.492   1.721   6.540 -2.1024  1.1022 -1.0320
   26CHL1   C13 1876   5.433   1.504   6.581 -0.1270  0.2224 -0.1782
   26CHL1   C18 1877   5.413   1.376   6.499  0.4487  0.0386  0.0291
   26CHL1  H18A 1878   5.333   1.386   6.423  0.4209 -1.6844 -0.2208
   26CHL1  H18B 1879   5.512   1.366   6.449  0.4879  2.5388 -0.4828
   26CHL1  H18C 1880   5.384   1.287   6.559  1.1438 -0.9924 -1.1128
   26CHL1   C12 1881   5.543   1.477   6.684 -0.1919 -0.6454 -0.2614
   26CHL1  H12A 1882   5.639   1.438   6.646  0.8490  1.2103  0.3307
   26CHL1  H12B 1883   5.563   1.580   6.721 -2.1932  1.0073 -3.3056
   26CHL1   C11 1884   5.495   1.385   6.799 -0.2531  0.2529 -0.3431
   26CHL1  H11A 1885   5.497   1.282   6.757 -0.4350  0.2903 -0.4419
   26CHL1  H11B 1886   5.562   1.399   6.886  1.1899 -0.6539 -1.2603
   26CHL1    C9 1887   5.349   1.409   6.850 -0.4871  0.5638  0.4003
   26CHL1    H9 1888   5.350   1.502   6.910 -0.0050  1.3197 -0.7299
   26CHL1   C10 1889   5.300   1.307   6.956  0.5547 -0.0427  0.5188
   26CHL1   C19 1890   5.304   1.173   6.895 -0.7852  0.9335  0.1046
   26CHL1  H19A 1891   5.402   1.126   6.870 -1.3327 -0.9362  1.2807
   26CHL1  H19B 1892   5.253   1.098   6.959 -0.6018  0.9688  0.2956
   26CHL1  H19C 1893   5.258   1.158   6.796 -0.7896 -1.7118  0.4402
   26CHL1    C1 1894   5.385   1.319   7.080 -0.1379  0.3188 -0.9043
   26CHL1   H1A 1895   5.492   1.302   7.058 -0.3285 -1.1223 -0.7722
   26CHL1   H1B 1896   5.382   1.425   7.112  1.4977  0.5466 -1.4247
   26CHL1    C2 1897   5.335   1.227   7.201 -0.2750 -0.0696  0.3768
   26CHL1   H2A 1898   5.407   1.242   7.284  0.6820  0.0266 -0.4376
   26CHL1   H2B 1899   5.347   1.122   7.166  0.5543 -0.7094  2.4799
   26CHL1   C20 1900   5.550   1.627   6.375  0.0225  0.1317 -0.5795
   26CHL1   H20 1901   5.534   1.539   6.310 -0.6092  0.8367 -1.4032
   26CHL1   C21 1902   5.689   1.608   6.430  0.1931  0.3781 -0.5416
   26CHL1  H21A 1903   5.764   1.608   6.348  1.0766  0.9613  0.2498
   26CHL1  H21B 1904   5.699   1.508   6.479 -1.4716  0.7136  0.5470
   26CHL1  H21C 1905   5.713   1.688   6.502  3.1704 -0.9213  0.0567
   26CHL1   C22 1906   5.530   1.758   6.290 -0.6538  0.0384  0.0601
   26CHL1  H22A 1907   5.433   1.762   6.235 -0.3434 -2.0372 -0.7453
   26CHL1  H22B 1908   5.532   1.853   6.348 -1.4412 -0.0696  0.2781
   26CHL1   C23 1909   5.645   1.785   6.179  0.1398  0.1220  0.2939
   26CHL1  H23A 1910   5.738   1.820   6.227  1.3987  0.2724 -2.0681
   26CHL1  H23B 1911   5.659   1.693   6.118  0.7801  2.3590 -3.2226
   26CHL1   C24 1912   5.610   1.891   6.073  0.2517  0.4892  0.0323
   26CHL1  H24A 1913   5.506   1.881   6.037  1.0112  2.4752 -3.1365
   26CHL1  H24B 1914   5.611   1.996   6.110 -0.8015  0.8951 -1.0671
   26CHL1   C25 1915   5.708   1.894   5.952 -0.4107  0.2989  0.4846
   26CHL1   H25 1916   5.814   1.902   5.985 -0.4014  0.9558  0.3259
   26CHL1   C26 1917   5.709   1.767   5.862  0.1347 -0.2034  0.0257
   26CHL1  H26A 1918   5.738   1.674   5.914 -0.1077 -0.9190 -1.0714
   26CHL1  H26B 1919   5.603   1.761   5.829  0.8496  0.1741 -2.6226
   26CHL1  H26C 1920   5.771   1.768   5.770 -2.7856 -0.1335 -2.0930
   26CHL1   C27 1921   5.671   2.015   5.860  0.5027  0.3670 -0.0116
   26CHL1  H27A 1922   5.564   2.021   5.832  0.7728  1.8722 -0.8702
   26CHL1  H27B 1923   5.694   2.109   5.914  1.2539 -0.6317  1.4811
   26CHL1  H27C 1924   5.723   2.002   5.762 -0.9897  2.8872 -1.2523
   27CHL1    C3 1925   5.487   0.245   7.415 -0.1153  0.3597  1.0188
   27CHL1    H3 1926   5.521   0.350   7.407  0.6242 -0.0427 -2.1780
   27CHL1    O3 1927   5.517   0.182   7.538 -0.8284 -0.5020 -0.1458
   27CHL1   H3' 1928   5.611   0.191   7.549 -0.6514 -1.3135 -0.8958
   27CHL1    C4 1929   5.340   0.237   7.382 -0.0577  0.5097  0.2782
   27CHL1   H4A 1930   5.299   0.134   7.380 -0.2038  0.5509 -2.6939
   27CHL1   H4B 1931   5.292   0.292   7.465  0.7054  1.3506  0.1779
   27CHL1    C5 1932   5.306   0.302   7.252  0.0768 -0.5471 -0.6031
   27CHL1    C6 1933   5.226   0.409   7.240  0.3983 -0.4450 -0.0531
   27CHL1    H6 1934   5.178   0.457   7.326  0.7573  3.0956 -1.6424
   27CHL1    C7 1935   5.188   0.470   7.107 -0.2327 -0.4488  0.2117
   27CHL1   H7A 1936   5.080   0.494   7.114 -0.5552 -1.8419  0.2093
   27CHL1   H7B 1937   5.253   0.561   7.102  0.7738 -1.0998  1.0318
   27CHL1    C8 1938   5.225   0.380   6.985  0.8309 -0.4892  0.1126
   27CHL1    H8 1939   5.161   0.289   6.980 -0.1773  0.2155 -0.0945
   27CHL1   C14 1940   5.225   0.457   6.852  0.0085  0.3434 -0.2971
   27CHL1   H14 1941   5.309   0.529   6.863 -0.5430  0.7564  1.7937
   27CHL1   C15 1942   5.101   0.543   6.823 -0.9719  0.6121  0.3239
   27CHL1  H15A 1943   5.005   0.492   6.845 -0.2071 -0.5496  1.0570
   27CHL1  H15B 1944   5.099   0.636   6.884  0.1441  0.8605  0.0154
   27CHL1   C16 1945   5.109   0.565   6.674  0.0905 -0.4418 -1.3512
   27CHL1  H16A 1946   5.016   0.533   6.620 -0.0348 -1.5400 -0.5245
   27CHL1  H16B 1947   5.138   0.666   6.638  3.8884 -0.0240  2.1751
   27CHL1   C17 1948   5.221   0.474   6.615 -1.4158 -0.1732 -0.4015
   27CHL1   H17 1949   5.310   0.540   6.602  0.4257 -2.6937 -1.3797
   27CHL1   C13 1950   5.245   0.371   6.727 -0.4907  0.0195 -0.6471
   27CHL1   C18 1951   5.144   0.254   6.719 -0.5049  0.5929  0.4303
   27CHL1  H18A 1952   5.137   0.188   6.808  0.3625 -0.1400 -0.0234
   27CHL1  H18B 1953   5.044   0.294   6.692  0.4019  1.5123 -1.7727
   27CHL1  H18C 1954   5.185   0.186   6.641 -2.4582 -0.2820  0.0889
   27CHL1   C12 1955   5.393   0.326   6.744  0.2087 -0.0525  0.4092
   27CHL1  H12A 1956   5.435   0.272   6.656 -0.8603 -0.9537  0.4235
   27CHL1  H12B 1957   5.454   0.418   6.760 -0.1076  0.2816 -0.2844
   27CHL1   C11 1958   5.418   0.238   6.871 -1.0062  0.0005  0.5584
   27CHL1  H11A 1959   5.386   0.131   6.864  0.5003 -0.4250 -0.1269
   27CHL1  H11B 1960   5.528   0.244   6.885 -0.6466 -0.2566 -1.7602
   27CHL1    C9 1961   5.361   0.319   6.996 -0.3771 -0.0526 -0.5672
   27CHL1    H9 1962   5.426   0.405   7.022 -1.0895 -0.3806  2.7469
   27CHL1   C10 1963   5.374   0.238   7.129 -0.2193 -0.2363 -0.3375
   27CHL1   C19 1964   5.321   0.093   7.115 -0.6868 -0.2224 -0.6745
   27CHL1  H19A 1965   5.217   0.102   7.077 -0.1107 -2.0691 -2.8877
   27CHL1  H19B 1966   5.389   0.042   7.043 -0.1996 -2.0955  1.0227
   27CHL1  H19C 1967   5.329   0.029   7.205  0.8446 -1.4720 -1.6317
   27CHL1    C1 1968   5.524   0.236   7.166 -0.4843 -0.3416 -1.0315
   27CHL1   H1A 1969   5.575   0.175   7.088 -0.1368 -1.0706 -0.2445
   27CHL1   H1B 1970   5.580   0.332   7.156 -1.1917  0.0144 -1.7259
   27CHL1    C2 1971   5.568   0.177   7.305  0.4978  0.2502 -0.0598
   27CHL1   H2A 1972   5.676   0.201   7.314  0.3190  1.3384 -0.5853
   27CHL1   H2B 1973   5.552   0.067   7.298  0.8592  0.2468 -0.9517
   27CHL1   C20 1974   5.182   0.425   6.476 -0.2876 -0.3989  0.2524
   27CHL1   H20 1975   5.095   0.356   6.478 -2.4090  1.8996 -2.9230
   27CHL1   C21 1976   5.295   0.342   6.414 -0.6685  0.6302  0.4311
   27CHL1  H21A 1977   5.325   0.257   6.480  2.5231 -0.3594 -2.0473
   27CHL1  H21B 1978   5.395   0.390   6.406  0.2877 -1.3237 -0.1093
   27CHL1  H21C 1979   5.274   0.298   6.315 -0.2633  1.4426 -0.0263
   27CHL1   C22 1980   5.155   0.548   6.380  0.3369 -0.0930  0.0344
   27CHL1  H22A 1981   5.070   0.608   6.418 -0.8062 -1.1230 -0.8164
   27CHL1  H22B 1982   5.249   0.608   6.372 -0.7580  1.5380 -1.3674
   27CHL1   C23 1983   5.111   0.510   6.232  0.4558  0.4020 -0.2806
   27CHL1  H23A 1984   5.182   0.442   6.180 -0.4318  0.0668 -1.0800
   27CHL1  H23B 1985   5.016   0.455   6.245  0.8842 -0.5531 -1.0621
   27CHL1   C24 1986   5.085   0.626   6.145  0.2091 -0.1648 -0.0666
   27CHL1  H24A 1987   5.006   0.687   6.195  1.9502  0.1008  2.5917
   27CHL1  H24B 1988   5.175   0.690   6.132 -0.4421  1.0082  0.9153
   27CHL1   C25 1989   5.028   0.616   6.000 -1.0432  0.1134 -0.0319
   27CHL1   H25 1990   5.079   0.532   5.949 -0.2370  0.5265  0.0741
   27CHL1   C26 1991   4.882   0.577   6.017  0.7107  0.5325  0.6124
   27CHL1  H26A 1992   4.871   0.479   6.067 -1.1881  1.3640  1.9309
   27CHL1  H26B 1993   4.835   0.659   6.075 -3.5467  0.0227 -1.7196
   27CHL1  H26C 1994   4.823   0.561   5.925 -0.5771 -1.3973  1.7135
   27CHL1   C27 1995   5.052   0.743   5.923 -0.1350 -0.0736  0.6399
   27CHL1  H27A 1996   5.000   0.823   5.978  0.6668  0.2508  0.9404
   27CHL1  H27B 1997   5.159   0.770   5.914  0.1008 -1.1975 -0.1696
   27CHL1  H27C 1998   5.012   0.724   5.821  0.9613  2.2779 -0.3082
   28CHL1    C3 1999   1.986   1.999   7.035 -0.2002 -0.5378  0.6237
   28CHL1    H3 2000   1.908   1.920   7.034 -1.8750  1.0358 -0.7749
   28CHL1    O3 2001   1.969   2.089   7.149 -0.2921  0.5556 -0.4986
   28CHL1   H3' 2002   2.060   2.109   7.172 -0.3610 -0.0501  0.3650
   28CHL1    C4 2003   2.125   1.924   7.028  0.0426 -0.3767  0.4988
   28CHL1   H4A 2004   2.203   2.002   7.016 -0.8123  0.2983 -0.9536
   28CHL1   H4B 2005   2.133   1.873   7.126 -0.9121  0.2202  0.8952
   28CHL1    C5 2006   2.149   1.832   6.910  0.3081 -0.5408 -0.8525
   28CHL1    C6 2007   2.166   1.700   6.921  0.2550 -0.6872 -0.3859
   28CHL1    H6 2008   2.153   1.655   7.021  1.7251 -0.0318  0.1163
   28CHL1    C7 2009   2.199   1.600   6.812  0.3900  0.2902 -0.7197
   28CHL1   H7A 2010   2.277   1.532   6.852 -0.5214 -0.4297 -0.1164
   28CHL1   H7B 2011   2.110   1.540   6.783  0.2527 -0.1312  0.4906
   28CHL1    C8 2012   2.241   1.685   6.686 -0.3293  0.0544  1.2885
   28CHL1    H8 2013   2.346   1.719   6.699  0.6608 -2.4144  0.4238
   28CHL1   C14 2014   2.244   1.589   6.558  0.4771 -1.5425 -0.1049
   28CHL1   H14 2015   2.142   1.547   6.552 -0.1259 -0.1166 -0.2782
   28CHL1   C15 2016   2.330   1.461   6.564 -0.4141  0.3154  0.9785
   28CHL1  H15A 2017   2.429   1.477   6.612 -0.2065 -2.2589  1.5433
   28CHL1  H15B 2018   2.280   1.379   6.621 -0.2438 -0.3789  0.1468
   28CHL1   C16 2019   2.351   1.424   6.416 -0.3501 -0.5214 -0.1148
   28CHL1  H16A 2020   2.460   1.422   6.394 -0.8819  0.9787 -3.5344
   28CHL1  H16B 2021   2.312   1.323   6.394 -2.2218  0.1543 -0.0997
   28CHL1   C17 2022   2.273   1.536   6.333 -0.0055  0.0021  0.0704
   28CHL1   H17 2023   2.173   1.488   6.327 -0.7625  1.1850  2.1482
   28CHL1   C13 2024   2.268   1.659   6.422 -0.3311  0.7266  0.0346
   28CHL1   C18 2025   2.401   1.735   6.425 -0.4456  0.5993  0.0725
   28CHL1  H18A 2026   2.484   1.669   6.457  0.1343  1.2809  0.0057
   28CHL1  H18B 2027   2.434   1.787   6.333 -3.6627  1.7844 -0.5531
   28CHL1  H18C 2028   2.396   1.815   6.503 -2.2069 -0.1308  0.7692
   28CHL1   C12 2029   2.147   1.751   6.410 -0.4936 -0.2750  0.3378
   28CHL1  H12A 2030   2.151   1.812   6.318  0.9501  0.9017  1.1395
   28CHL1  H12B 2031   2.057   1.687   6.397  0.1338 -0.9230 -1.0000
   28CHL1   C11 2032   2.140   1.859   6.515  0.4294 -0.0600  0.1577
   28CHL1  H11A 2033   2.225   1.929   6.497 -2.2354  3.3760 -0.0713
   28CHL1  H11B 2034   2.049   1.922   6.505  0.0241 -0.7361 -0.4203
   28CHL1    C9 2035   2.143   1.801   6.662 -0.0505 -0.7086  0.5688
   28CHL1    H9 2036   2.040   1.761   6.670 -1.1964  1.9659  0.2723
   28CHL1   C10 2037   2.141   1.904   6.778 -0.2632  1.1449 -0.2994
   28CHL1   C19 2038   2.270   1.992   6.760  0.2568  0.4336  0.3285
   28CHL1  H19A 2039   2.264   2.047   6.664  1.9531 -1.2049 -0.7817
   28CHL1  H19B 2040   2.283   2.061   6.846  1.4988 -0.0935  0.5867
   28CHL1  H19C 2041   2.358   1.924   6.755 -1.4559 -1.9366  0.3378
   28CHL1    C1 2042   2.006   1.988   6.774 -0.6296 -0.5283  0.6880
   28CHL1   H1A 2043   1.997   2.047   6.680  0.2836  2.8973  2.5948
   28CHL1   H1B 2044   1.917   1.922   6.779 -0.9683 -0.1698 -0.2482
   28CHL1    C2 2045   1.979   2.078   6.896 -0.5684  0.2250 -0.1579
   28CHL1   H2A 2046   1.878   2.116   6.869  0.4842  1.3238 -2.8912
   28CHL1   H2B 2047   2.060   2.153   6.884  0.7920 -0.8284  1.9511
   28CHL1   C20 2048   2.325   1.550   6.186  0.6054 -1.0381  0.5351
   28CHL1   H20 2049   2.425   1.598   6.177  0.7221 -1.4155 -0.3184
   28CHL1   C21 2050   2.233   1.647   6.109  0.0938  0.3400  0.3195
   28CHL1  H21A 2051   2.125   1.626   6.103  0.0270  0.5539  0.7324
   28CHL1  H21B 2052   2.276   1.635   6.007  1.5316 -1.2134  1.0491
   28CHL1  H21C 2053   2.254   1.750   6.146  0.9718  0.4763 -0.5174
   28CHL1   C22 2054   2.335   1.417   6.109  0.0407 -0.5242  0.0488
   28CHL1  H22A 2055   2.409   1.427   6.027 -1.4952 -1.4086 -1.5104
   28CHL1  H22B 2056   2.390   1.351   6.179  0.3929 -0.9449 -0.6181
   28CHL1   C23 2057   2.207   1.344   6.056 -0.6631  0.5351  0.7785
   28CHL1  H23A 2058   2.127   1.339   6.134  0.3072 -2.1934  1.7398
   28CHL1  H23B 2059   2.166   1.398   5.968  3.1683 -0.7728 -2.1114
   28CHL1   C24 2060   2.244   1.206   5.990  0.3281 -0.1694 -0.3532
   28CHL1  H24A 2061   2.300   1.203   5.895  0.5526 -0.0089 -0.2253
   28CHL1  H24B 2062   2.307   1.154   6.065 -0.6740  1.6291  1.8573
   28CHL1   C25 2063   2.118   1.115   5.973  0.2873  0.0282  0.2257
   28CHL1   H25 2064   2.058   1.178   5.904  1.3503  1.7667  0.8289
   28CHL1   C26 2065   2.144   0.996   5.888  0.3826  0.6455  0.9760
   28CHL1  H26A 2066   2.224   0.929   5.925 -0.5165 -1.0986 -0.0769
   28CHL1  H26B 2067   2.052   0.940   5.861  1.7737 -1.8654  1.1520
   28CHL1  H26C 2068   2.173   1.037   5.788  1.2847 -0.3059  0.8388
   28CHL1   C27 2069   2.031   1.087   6.091  0.3213  0.3741 -0.2642
   28CHL1  H27A 2070   2.092   1.067   6.182  2.5481  2.0854 -1.2891
   28CHL1  H27B 2071   1.968   1.169   6.131 -0.0888 -0.5136  0.9871
   28CHL1  H27C 2072   1.958   1.009   6.062 -2.4840  3.1618 -1.2084
   29CHL1    C3 2073   3.708   4.407   3.805  0.3954 -0.3670 -0.8522
   29CHL1    H3 2074   3.603   4.443   3.799 -0.5149 -2.7918 -0.3614
   29CHL1    O3 2075   3.754   4.390   3.678  0.0978 -0.4271  0.5905
   29CHL1   H3' 2076   3.850   4.389   3.678  0.2452  1.7108  3.5666
   29CHL1    C4 2077   3.803   4.493   3.882 -0.2796  0.0858  0.2363
   29CHL1   H4A 2078   3.907   4.457   3.865 -1.3299 -1.5737 -3.8103
   29CHL1   H4B 2079   3.805   4.594   3.834  0.2032 -0.0348 -0.0023
   29CHL1    C5 2080   3.766   4.502   4.033 -1.0981 -0.3571 -0.6145
   29CHL1    C6 2081   3.740   4.621   4.085 -0.2260  0.1815 -0.1155
   29CHL1    H6 2082   3.733   4.716   4.030  0.7340  2.1466  2.9288
   29CHL1    C7 2083   3.726   4.642   4.233  0.2636 -0.0088 -0.0898
   29CHL1   H7A 2084   3.780   4.736   4.255 -0.4471  0.2953  0.4091
   29CHL1   H7B 2085   3.618   4.663   4.252  0.3384  0.6657 -0.3612
   29CHL1    C8 2086   3.774   4.519   4.317  1.0619 -0.7034  0.4520
   29CHL1    H8 2087   3.884   4.508   4.307  1.4945  3.4647 -0.9463
   29CHL1   C14 2088   3.719   4.531   4.461  0.0281 -0.6218  0.3886
   29CHL1   H14 2089   3.608   4.534   4.452  0.0176 -2.7673 -1.2004
   29CHL1   C15 2090   3.752   4.654   4.545 -0.0748 -0.0880  0.1178
   29CHL1  H15A 2091   3.861   4.665   4.527  0.1052  0.2099  1.3265
   29CHL1  H15B 2092   3.695   4.745   4.517  2.2167  0.9703 -1.4701
   29CHL1   C16 2093   3.735   4.614   4.691 -0.6284  0.6655  0.3659
   29CHL1  H16A 2094   3.824   4.641   4.753 -1.2710 -0.9127  2.0767
   29CHL1  H16B 2095   3.659   4.678   4.740 -1.4175 -0.5988  0.8344
   29CHL1   C17 2096   3.687   4.469   4.687 -0.5007 -0.3058 -0.0570
   29CHL1   H17 2097   3.578   4.481   4.668 -0.3890 -0.9620 -1.2352
   29CHL1   C13 2098   3.736   4.414   4.551 -0.5189  0.3095  0.5414
   29CHL1   C18 2099   3.893   4.370   4.561  0.3597 -0.3010  0.0971
   29CHL1  H18A 2100   3.938   4.359   4.459  0.0607 -0.3889 -0.0252
   29CHL1  H18B 2101   3.943   4.456   4.611 -1.2892 -0.6778  2.5671
   29CHL1  H18C 2102   3.894   4.274   4.617 -0.9134 -0.5465 -0.2858
   29CHL1   C12 2103   3.657   4.303   4.494 -0.0711  0.3130  0.3483
   29CHL1  H12A 2104   3.657   4.209   4.553  0.8509 -2.2919 -3.4127
   29CHL1  H12B 2105   3.549   4.329   4.486  0.2288  1.8477  0.9378
   29CHL1   C11 2106   3.709   4.271   4.356  0.2543  0.4943  0.4485
   29CHL1  H11A 2107   3.808   4.222   4.361 -0.1536 -0.3093  0.9453
   29CHL1  H11B 2108   3.640   4.193   4.316  1.0442 -0.8276  1.5398
   29CHL1    C9 2109   3.711   4.397   4.251 -0.3990  0.2700  0.3327
   29CHL1    H9 2110   3.602   4.421   4.246 -0.4610 -0.0309  0.1971
   29CHL1   C10 2111   3.761   4.370   4.110 -0.0795 -0.3906  0.5606
   29CHL1   C19 2112   3.896   4.292   4.116 -0.2578 -0.0887  0.4449
   29CHL1  H19A 2113   3.866   4.188   4.142 -0.0395 -0.8034 -1.9343
   29CHL1  H19B 2114   3.947   4.302   4.018  0.1701  0.0107  0.6724
   29CHL1  H19C 2115   3.964   4.349   4.183 -1.6399  1.0732  0.9106
   29CHL1    C1 2116   3.657   4.288   4.027  0.1179 -0.3892 -0.0644
   29CHL1   H1A 2117   3.651   4.192   4.082  1.0036 -0.4127  0.0140
   29CHL1   H1B 2118   3.557   4.333   4.044  0.2674 -0.3755  0.8455
   29CHL1    C2 2119   3.693   4.268   3.879 -0.5543 -0.3110  0.2485
   29CHL1   H2A 2120   3.612   4.203   3.840 -0.0726 -1.7270  1.4803
   29CHL1   H2B 2121   3.788   4.211   3.865  1.2896  2.5364  0.3675
   29CHL1   C20 2122   3.709   4.391   4.813 -0.4407  0.3125  0.6917
   29CHL1   H20 2123   3.698   4.287   4.776  0.1102  0.1994  0.8373
   29CHL1   C21 2124   3.594   4.438   4.899  0.1870 -0.2253 -0.5194
   29CHL1  H21A 2125   3.585   4.547   4.919 -0.6999 -0.4839  0.6044
   29CHL1  H21B 2126   3.596   4.394   5.001  1.6608  2.7871  0.8587
   29CHL1  H21C 2127   3.495   4.425   4.851 -0.6259 -1.1063  1.2845
   29CHL1   C22 2128   3.839   4.403   4.900 -0.3820 -0.0515 -0.1617
   29CHL1  H22A 2129   3.932   4.431   4.845 -0.6594  1.1295 -0.0551
   29CHL1  H22B 2130   3.833   4.488   4.971  1.4816 -0.1816  0.2155
   29CHL1   C23 2131   3.867   4.284   4.988  0.0318 -0.7351 -0.1689
   29CHL1  H23A 2132   3.933   4.327   5.065  1.2551  0.0957 -1.6190
   29CHL1  H23B 2133   3.782   4.254   5.053  0.2290  2.2514  1.6533
   29CHL1   C24 2134   3.920   4.159   4.919 -0.7368  0.0623  0.4581
   29CHL1  H24A 2135   3.928   4.084   5.001 -0.0909 -0.0258  0.3168
   29CHL1  H24B 2136   3.844   4.118   4.848  0.9838  2.5513 -3.1269
   29CHL1   C25 2137   4.057   4.165   4.846  0.4452 -0.1556 -0.5824
   29CHL1   H25 2138   4.050   4.240   4.765  3.9463  0.6226 -0.3274
   29CHL1   C26 2139   4.176   4.214   4.932  0.1685 -0.2306  0.6172
   29CHL1  H26A 2140   4.258   4.226   4.859  1.0861 -1.5812  1.3805
   29CHL1  H26B 2141   4.161   4.316   4.972  1.9435  0.8895 -1.4018
   29CHL1  H26C 2142   4.215   4.151   5.015 -0.0961  1.9615  2.4926
   29CHL1   C27 2143   4.102   4.031   4.774  0.4894 -0.2137  0.0596
   29CHL1  H27A 2144   4.115   3.946   4.844  2.3147  0.6870  0.8937
   29CHL1  H27B 2145   4.019   4.013   4.702 -0.2736  0.9863  0.6173
   29CHL1  H27C 2146   4.193   4.066   4.720 -0.6217  4.0529  0.5931
   30CHL1    C3 2147   5.485   0.555   3.815 -0.7707 -0.1591 -0.2433
   30CHL1    H3 2148   5.421   0.644   3.836 -0.9194 -0.3524  0.1203
   30CHL1    O3 2149   5.511   0.547   3.676  0.2723 -0.2039 -0.2944
   30CHL1   H3' 2150   5.607   0.541   3.670  0.2397 -0.8583 -0.2191
   30CHL1    C4 2151   5.626   0.564   3.884  0.0372  0.2412  0.2085
   30CHL1   H4A 2152   5.690   0.476   3.863 -2.3782 -1.2681 -1.2388
   30CHL1   H4B 2153   5.683   0.653   3.850 -0.7154  0.6314 -0.0599
   30CHL1    C5 2154   5.605   0.573   4.036  0.1407  0.0972  0.4800
   30CHL1    C6 2155   5.654   0.677   4.114 -0.0090  0.6513  0.2673
   30CHL1    H6 2156   5.719   0.751   4.065 -0.1459 -1.2684 -3.1479
   30CHL1    C7 2157   5.641   0.672   4.262 -0.9897  0.2858  0.4199
   30CHL1   H7A 2158   5.742   0.696   4.303 -1.0439 -2.8494  2.7489
   30CHL1   H7B 2159   5.574   0.749   4.306  0.2978  0.5898  1.9298
   30CHL1    C8 2160   5.594   0.539   4.318 -0.3212 -0.0195 -0.9984
   30CHL1    H8 2161   5.676   0.465   4.310 -0.9797 -0.8349 -0.3556
   30CHL1   C14 2162   5.563   0.565   4.466  0.5200 -0.4884  0.8528
   30CHL1   H14 2163   5.484   0.643   4.466  1.9772  1.0470 -0.1154
   30CHL1   C15 2164   5.681   0.623   4.548  0.3057 -0.3060 -0.4308
   30CHL1  H15A 2165   5.780   0.580   4.525  1.9120  2.9749 -0.1897
   30CHL1  H15B 2166   5.685   0.734   4.548 -0.6043 -0.2386  1.2672
   30CHL1   C16 2167   5.647   0.583   4.694  0.4929  0.3741  0.4609
   30CHL1  H16A 2168   5.724   0.515   4.736 -2.1355 -1.4665  2.6507
   30CHL1  H16B 2169   5.635   0.669   4.764 -1.4558  0.7759 -0.2978
   30CHL1   C17 2170   5.519   0.496   4.684  0.1657  0.0076  0.4033
   30CHL1   H17 2171   5.431   0.564   4.688  0.0579 -0.1389  0.5107
   30CHL1   C13 2172   5.511   0.442   4.538  0.6670 -0.2136  0.1974
   30CHL1   C18 2173   5.606   0.325   4.526  0.3708 -0.3275  0.1962
   30CHL1  H18A 2174   5.707   0.356   4.560  0.3150  0.5206 -0.3670
   30CHL1  H18B 2175   5.568   0.242   4.589  1.3819 -0.8827  0.0803
   30CHL1  H18C 2176   5.621   0.291   4.421 -0.0027  1.2765 -0.4217
   30CHL1   C12 2177   5.372   0.403   4.467 -0.6565 -0.1685  0.3661
   30CHL1  H12A 2178   5.335   0.316   4.525 -0.3115  1.0110  2.4664
   30CHL1  H12B 2179   5.300   0.485   4.489 -1.4937 -1.3686  2.3879
   30CHL1   C11 2180   5.393   0.379   4.315 -0.0034 -0.3470  0.8342
   30CHL1  H11A 2181   5.457   0.288   4.314 -0.1003 -0.4497  2.1729
   30CHL1  H11B 2182   5.300   0.358   4.258 -0.1162  0.2081  0.8025
   30CHL1    C9 2183   5.475   0.484   4.236  0.0265  0.2280 -0.6996
   30CHL1    H9 2184   5.406   0.571   4.230  1.8114  1.7058 -0.5631
   30CHL1   C10 2185   5.517   0.461   4.088  0.1173  0.9291 -0.0216
   30CHL1   C19 2186   5.587   0.327   4.081  0.1229 -0.1282 -0.3293
   30CHL1  H19A 2187   5.636   0.303   3.984 -0.0729 -0.3795 -0.3676
   30CHL1  H19B 2188   5.672   0.323   4.153  0.9134 -1.3266 -1.2676
   30CHL1  H19C 2189   5.517   0.245   4.107 -0.4695  0.3944 -0.2781
   30CHL1    C1 2190   5.388   0.440   4.007 -0.0930 -0.4870 -0.1253
   30CHL1   H1A 2191   5.335   0.354   4.054 -2.2322  0.1991 -1.1599
   30CHL1   H1B 2192   5.323   0.524   4.038 -1.1479 -1.7609  1.2667
   30CHL1    C2 2193   5.399   0.434   3.854 -0.0659  0.8559  0.2355
   30CHL1   H2A 2194   5.301   0.441   3.803  0.1879  1.5294 -0.1814
   30CHL1   H2B 2195   5.455   0.347   3.815 -1.0420  1.1910 -2.0580
   30CHL1   C20 2196   5.508   0.393   4.801 -0.1599  0.0994  0.4266
   30CHL1   H20 2197   5.584   0.314   4.784  1.4318  1.5096  0.6818
   30CHL1   C21 2198   5.365   0.332   4.806  0.0366  0.7553  0.1061
   30CHL1  H21A 2199   5.344   0.261   4.723 -2.6813  1.4094  0.1244
   30CHL1  H21B 2200   5.294   0.417   4.805 -2.1940 -0.9139  2.6399
   30CHL1  H21C 2201   5.341   0.277   4.899 -0.7725 -0.0418 -0.5530
   30CHL1   C22 2202   5.550   0.459   4.941 -0.9985  0.3528  0.1827
   30CHL1  H22A 2203   5.535   0.369   5.004 -0.8812  1.6271  2.1101
   30CHL1  H22B 2204   5.661   0.466   4.942 -0.8915 -0.7146 -1.0283
   30CHL1   C23 2205   5.468   0.566   5.002  0.7343  0.0214 -0.3605
   30CHL1  H23A 2206   5.489   0.668   4.963 -0.7207 -0.1265 -1.6307
   30CHL1  H23B 2207   5.358   0.551   4.987  0.4169  0.6519  1.1472
   30CHL1   C24 2208   5.482   0.578   5.153  0.6920  0.3030  1.0231
   30CHL1  H24A 2209   5.453   0.492   5.216  0.3755 -2.6618 -2.7935
   30CHL1  H24B 2210   5.590   0.585   5.179  1.0252  0.4400 -0.3336
   30CHL1   C25 2211   5.404   0.700   5.221 -0.1132  0.0778  0.0699
   30CHL1   H25 2212   5.389   0.784   5.150 -0.5606 -0.1324 -0.0871
   30CHL1   C26 2213   5.269   0.647   5.266 -0.1967  0.7098 -0.9101
   30CHL1  H26A 2214   5.219   0.600   5.179  0.3341 -0.4319 -0.6176
   30CHL1  H26B 2215   5.278   0.565   5.341 -0.1400  0.6594 -0.9723
   30CHL1  H26C 2216   5.203   0.732   5.297 -0.2014 -0.3979  2.5981
   30CHL1   C27 2217   5.480   0.758   5.340 -0.2394  0.2810  0.1710
   30CHL1  H27A 2218   5.423   0.844   5.383 -0.7521  0.6281 -1.1334
   30CHL1  H27B 2219   5.504   0.692   5.426 -0.1422  1.8233  1.3735
   30CHL1  H27C 2220   5.583   0.788   5.311 -0.9655  0.9838 -1.9189
   31CHL1    C3 2221   5.084   6.731   3.472 -0.7233 -0.1344 -0.6609
   31CHL1    H3 2222   5.186   6.698   3.444 -0.0767  0.0784  1.3259
   31CHL1    O3 2223   4.999   6.761   3.366  0.3345 -0.1432 -0.3718
   31CHL1   H3' 2224   5.053   6.791   3.293 -1.0039  0.8821 -0.9848
   31CHL1    C4 2225   5.031   6.613   3.549 -0.6803  0.7019 -0.5703
   31CHL1   H4A 2226   4.921   6.622   3.562 -0.5325 -0.1667  1.7946
   31CHL1   H4B 2227   5.047   6.523   3.486 -1.5319 -0.8407  1.3179
   31CHL1    C5 2228   5.103   6.593   3.683 -0.7313 -0.2917 -0.5919
   31CHL1    C6 2229   5.167   6.477   3.715 -0.5489  0.2602  0.4550
   31CHL1    H6 2230   5.174   6.395   3.642  1.7320  0.8517 -0.0588
   31CHL1    C7 2231   5.223   6.446   3.849 -0.1623 -0.8466  0.0411
   31CHL1   H7A 2232   5.181   6.349   3.883 -1.4961  0.3786  2.0865
   31CHL1   H7B 2233   5.334   6.451   3.848 -0.1911  2.6094  1.3583
   31CHL1    C8 2234   5.174   6.555   3.957  0.5182 -0.0712  0.5298
   31CHL1    H8 2235   5.068   6.536   3.985  0.7331  0.1000  1.5028
   31CHL1   C14 2236   5.257   6.548   4.087 -0.4593  0.6719 -0.0512
   31CHL1   H14 2237   5.360   6.571   4.055 -0.1604  0.6528  0.8681
   31CHL1   C15 2238   5.269   6.412   4.159 -0.3123 -0.5160 -0.0384
   31CHL1  H15A 2239   5.162   6.385   4.173 -1.4994  3.5648  0.2315
   31CHL1  H15B 2240   5.318   6.322   4.117 -0.3679 -0.4489 -0.2488
   31CHL1   C16 2241   5.322   6.455   4.298  0.2164 -0.1425  0.0034
   31CHL1  H16A 2242   5.260   6.419   4.382 -2.1384  1.0684 -1.1369
   31CHL1  H16B 2243   5.422   6.408   4.312 -0.7827 -1.9872  1.4544
   31CHL1   C17 2244   5.315   6.610   4.302 -0.4673  0.3956 -0.5203
   31CHL1   H17 2245   5.418   6.635   4.269  0.8923 -2.6873  0.9615
   31CHL1   C13 2246   5.224   6.655   4.191 -0.4652  0.7146  0.0034
   31CHL1   C18 2247   5.075   6.639   4.236  0.0048  0.0109  0.0290
   31CHL1  H18A 2248   5.085   6.543   4.292 -1.9194 -0.7075 -0.7535
   31CHL1  H18B 2249   5.046   6.724   4.302 -2.3658  0.2024 -1.1385
   31CHL1  H18C 2250   5.004   6.627   4.151 -0.4506 -0.5804  0.4832
   31CHL1   C12 2251   5.257   6.791   4.132  0.3413  0.0756 -0.3773
   31CHL1  H12A 2252   5.239   6.877   4.200  0.6785 -0.7151  0.7326
   31CHL1  H12B 2253   5.364   6.787   4.103  0.0036  1.4736 -2.0259
   31CHL1   C11 2254   5.170   6.813   4.010  0.1625  0.1258  0.0486
   31CHL1  H11A 2255   5.064   6.811   4.042  0.3705  0.9735  0.8437
   31CHL1  H11B 2256   5.198   6.915   3.979 -0.7474  0.1691 -0.6639
   31CHL1    C9 2257   5.191   6.702   3.901  0.0577 -0.3093 -0.6805
   31CHL1    H9 2258   5.297   6.706   3.866  0.3538 -2.6741 -0.2229
   31CHL1   C10 2259   5.105   6.716   3.776 -0.3999 -0.8778  0.0432
   31CHL1   C19 2260   4.959   6.739   3.815  0.1470 -0.0200  0.0400
   31CHL1  H19A 2261   4.949   6.836   3.869 -2.9966  0.5981 -1.4674
   31CHL1  H19B 2262   4.888   6.766   3.734 -1.1811  0.2050  1.2373
   31CHL1  H19C 2263   4.914   6.651   3.865  2.6631 -1.5542 -0.1883
   31CHL1    C1 2264   5.150   6.836   3.692  0.3432 -0.0256 -0.2058
   31CHL1   H1A 2265   5.146   6.924   3.759  2.1372 -0.7619  0.9386
   31CHL1   H1B 2266   5.259   6.817   3.686  0.2313 -1.0117  0.6219
   31CHL1    C2 2267   5.096   6.860   3.555 -0.0033  0.0437  0.3979
   31CHL1   H2A 2268   5.159   6.935   3.503  0.2670 -0.2140  0.3533
   31CHL1   H2B 2269   4.994   6.903   3.569 -0.6675 -1.7679  1.4927
   31CHL1   C20 2270   5.299   6.681   4.441  0.0057  0.4308  0.0857
   31CHL1   H20 2271   5.196   6.722   4.454  0.0024  0.2625  0.6092
   31CHL1   C21 2272   5.402   6.796   4.443  0.1425 -0.5870 -0.2822
   31CHL1  H21A 2273   5.374   6.869   4.523  1.7995  0.8830 -0.9961
   31CHL1  H21B 2274   5.401   6.854   4.349 -3.1796  1.2125  0.6805
   31CHL1  H21C 2275   5.504   6.772   4.478 -0.2839 -2.3282 -0.1155
   31CHL1   C22 2276   5.313   6.588   4.561 -0.0859  0.5081 -0.1192
   31CHL1  H22A 2277   5.226   6.519   4.566  0.1300  0.0720 -1.8464
   31CHL1  H22B 2278   5.404   6.524   4.560  1.9360  3.1786  0.7457
   31CHL1   C23 2279   5.317   6.660   4.695 -0.3854 -0.3496 -0.7339
   31CHL1  H23A 2280   5.402   6.728   4.715 -1.7921  1.0356  0.9708
   31CHL1  H23B 2281   5.223   6.720   4.700 -0.9634 -1.2206 -0.8189
   31CHL1   C24 2282   5.319   6.564   4.813  0.3208 -0.1737 -0.0597
   31CHL1  H24A 2283   5.223   6.508   4.816  0.0855  0.2780  1.0748
   31CHL1  H24B 2284   5.393   6.481   4.808  1.2991  0.4103  3.0816
   31CHL1   C25 2285   5.337   6.641   4.948 -0.4088 -0.1392  0.3586
   31CHL1   H25 2286   5.442   6.678   4.940 -1.0869  1.5738 -1.3794
   31CHL1   C26 2287   5.247   6.762   4.969 -0.1992 -0.2426 -0.1470
   31CHL1  H26A 2288   5.147   6.727   4.935  0.6592 -2.1859 -0.8664
   31CHL1  H26B 2289   5.245   6.792   5.076  2.6386 -1.0261  0.2216
   31CHL1  H26C 2290   5.282   6.844   4.902  1.2513 -1.1157 -0.5126
   31CHL1   C27 2291   5.316   6.540   5.064 -0.4647  1.1774  0.0361
   31CHL1  H27A 2292   5.353   6.583   5.159  0.0585 -0.9849  0.8606
   31CHL1  H27B 2293   5.207   6.522   5.073 -0.3474  0.9844  1.1921
   31CHL1  H27C 2294   5.366   6.442   5.051  0.3104  1.7294 -1.4161
   32CHL1    C3 2295   4.341   4.777   3.139 -0.4583 -0.0897  0.5359
   32CHL1    H3 2296   4.409   4.865   3.142  1.2804 -1.3592 -0.4426
   32CHL1    O3 2297   4.360   4.708   3.013  0.1662 -0.1496 -0.0397
   32CHL1   H3' 2298   4.411   4.627   3.022 -0.0314 -0.3299 -0.5310
   32CHL1    C4 2299   4.387   4.688   3.251  0.8801 -0.0646 -0.2224
   32CHL1   H4A 2300   4.325   4.596   3.254 -1.9854  1.7558  0.7715
   32CHL1   H4B 2301   4.495   4.666   3.234  0.6766  0.2548 -2.1743
   32CHL1    C5 2302   4.354   4.756   3.382 -0.1655  0.2021 -0.5507
   32CHL1    C6 2303   4.451   4.778   3.470 -0.1531 -0.4764 -0.7254
   32CHL1    H6 2304   4.546   4.729   3.444  0.2506  1.1432 -2.4877
   32CHL1    C7 2305   4.429   4.833   3.606 -1.0505  0.1779 -0.0435
   32CHL1   H7A 2306   4.471   4.766   3.685 -1.7646 -1.4987 -1.0243
   32CHL1   H7B 2307   4.483   4.927   3.628 -0.0359 -0.1352 -1.0786
   32CHL1    C8 2308   4.279   4.826   3.643 -1.2578 -0.0744 -0.5498
   32CHL1    H8 2309   4.260   4.718   3.659  0.6384 -0.2125  1.2418
   32CHL1   C14 2310   4.270   4.909   3.773  0.8201  0.2657 -0.0221
   32CHL1   H14 2311   4.288   5.016   3.749 -0.4129  0.7827  1.1681
   32CHL1   C15 2312   4.353   4.866   3.893  0.4616 -0.4384  0.2515
   32CHL1  H15A 2313   4.356   4.755   3.894 -0.3625 -0.4800 -0.1711
   32CHL1  H15B 2314   4.458   4.902   3.893  0.9374 -1.7477  1.3391
   32CHL1   C16 2315   4.273   4.908   4.021  0.1171  0.1639 -0.0306
   32CHL1  H16A 2316   4.237   4.823   4.083 -0.8882  1.3204  1.0317
   32CHL1  H16B 2317   4.335   4.972   4.087 -0.0690  0.2901  0.0240
   32CHL1   C17 2318   4.144   4.981   3.967 -0.5561 -0.3965 -0.0201
   32CHL1   H17 2319   4.166   5.087   3.944  0.6843 -0.3018  1.4665
   32CHL1   C13 2320   4.123   4.908   3.830  0.5737 -0.9809  0.2852
   32CHL1   C18 2321   4.062   4.772   3.855 -0.7471 -0.3851  0.2473
   32CHL1  H18A 2322   4.071   4.708   3.764 -1.1277 -1.7645  1.1567
   32CHL1  H18B 2323   4.098   4.711   3.940  1.5268 -0.4949 -0.7280
   32CHL1  H18C 2324   3.956   4.787   3.884 -1.0330  0.0750 -0.9705
   32CHL1   C12 2325   4.047   4.982   3.717  0.7289  0.4893 -0.1025
   32CHL1  H12A 2326   3.941   5.006   3.740  0.2381 -1.3897 -0.2411
   32CHL1  H12B 2327   4.090   5.083   3.700  1.2173  0.5471  1.2734
   32CHL1   C11 2328   4.047   4.909   3.579  1.0298  0.0142 -1.1003
   32CHL1  H11A 2329   3.987   4.817   3.597  0.8685  0.4287  0.6607
   32CHL1  H11B 2330   3.986   4.970   3.510 -1.5736  0.1869  1.1815
   32CHL1    C9 2331   4.191   4.881   3.536  0.0464 -0.2032  0.9035
   32CHL1    H9 2332   4.240   4.979   3.514  0.8146 -0.8124 -0.2285
   32CHL1   C10 2333   4.202   4.804   3.398  0.2133  0.6382  0.0486
   32CHL1   C19 2334   4.105   4.683   3.401  0.4106  0.1805  0.2813
   32CHL1  H19A 2335   4.132   4.617   3.487  0.8119  1.6318  1.3020
   32CHL1  H19B 2336   3.999   4.711   3.418  0.4128  0.3303  0.0472
   32CHL1  H19C 2337   4.115   4.625   3.307 -0.8918 -0.7212  0.6754
   32CHL1    C1 2338   4.165   4.895   3.277  0.8142 -0.0425 -0.1871
   32CHL1   H1A 2339   4.063   4.940   3.279  2.0455  2.9319  0.7209
   32CHL1   H1B 2340   4.214   4.994   3.277 -0.0577  0.4102 -0.7762
   32CHL1    C2 2341   4.196   4.828   3.143  0.3455 -0.3429  0.5795
   32CHL1   H2A 2342   4.177   4.890   3.053 -1.7013  0.4465  1.5064
   32CHL1   H2B 2343   4.135   4.735   3.139  0.0714 -0.2608  2.2372
   32CHL1   C20 2344   4.034   4.977   4.081  0.0730  0.3545 -0.2238
   32CHL1   H20 2345   3.997   4.873   4.093 -0.7774  0.4378 -1.8116
   32CHL1   C21 2346   3.918   5.068   4.036 -0.3629  0.4352  0.0812
   32CHL1  H21A 2347   3.870   5.040   3.940  0.0110  1.8363 -0.5339
   32CHL1  H21B 2348   3.957   5.171   4.023  1.4189 -0.4535 -2.1449
   32CHL1  H21C 2349   3.839   5.067   4.115 -0.5815 -0.9175 -0.1353
   32CHL1   C22 2350   4.091   5.021   4.222 -0.3715 -0.5621 -0.2245
   32CHL1  H22A 2351   4.175   4.954   4.249  0.8185 -0.4388 -3.1603
   32CHL1  H22B 2352   4.132   5.125   4.222  1.1237 -1.0904  1.8848
   32CHL1   C23 2353   3.985   5.005   4.334  0.6022 -0.0737 -0.0633
   32CHL1  H23A 2354   3.911   5.088   4.335  0.1744 -0.4108  2.4091
   32CHL1  H23B 2355   3.932   4.908   4.322  1.3153 -0.4084 -0.6078
   32CHL1   C24 2356   4.055   5.004   4.472  0.1923 -0.5402 -0.5861
   32CHL1  H24A 2357   4.152   4.951   4.464 -0.7934 -2.2933 -1.5849
   32CHL1  H24B 2358   4.080   5.111   4.491 -2.5112  0.2459 -1.0082
   32CHL1   C25 2359   3.972   4.945   4.593  0.1507 -0.1974  0.0323
   32CHL1   H25 2360   3.955   4.843   4.553 -1.7072  0.9580 -2.4548
   32CHL1   C26 2361   4.054   4.944   4.729 -0.5332  0.0009 -0.6309
   32CHL1  H26A 2362   3.983   4.920   4.811 -0.9053 -2.9051 -1.6702
   32CHL1  H26B 2363   4.123   4.856   4.727 -0.9889 -0.4114  0.6187
   32CHL1  H26C 2364   4.115   5.037   4.730 -0.5728  0.0682 -2.0755
   32CHL1   C27 2365   3.830   4.998   4.607 -0.2388 -0.5666 -0.7225
   32CHL1  H27A 2366   3.768   4.949   4.528  0.1470 -0.5605 -1.0338
   32CHL1  H27B 2367   3.789   4.965   4.705 -0.5037 -1.3312 -1.0763
   32CHL1  H27C 2368   3.826   5.109   4.611  1.1289 -0.4843 -1.0770
   33CHL1    C3 2369   2.822   5.623   3.542 -0.0266  0.7566  0.1823
   33CHL1    H3 2370   2.814   5.725   3.585  0.9694  0.6696  0.5870
   33CHL1    O3 2371   2.795   5.622   3.404  0.2071 -0.3152  0.2685
   33CHL1   H3' 2372   2.779   5.530   3.382  0.8889 -0.6035  0.9357
   33CHL1    C4 2373   2.961   5.580   3.577  0.4750  0.5067  0.2035
   33CHL1   H4A 2374   2.986   5.479   3.538  3.4298  1.6732 -1.1869
   33CHL1   H4B 2375   3.026   5.651   3.521 -2.2297  2.5376 -0.6255
   33CHL1    C5 2376   2.973   5.582   3.727 -0.1541  0.4698  0.0276
   33CHL1    C6 2377   3.054   5.670   3.790 -0.6543 -0.3397 -0.2852
   33CHL1    H6 2378   3.115   5.744   3.735 -1.3769  1.2376  0.9537
   33CHL1    C7 2379   3.076   5.675   3.941 -0.0770  0.3193  0.2437
   33CHL1   H7A 2380   3.182   5.698   3.966  0.3840 -2.0258  0.7362
   33CHL1   H7B 2381   3.018   5.765   3.971 -2.0388 -0.3992 -1.2535
   33CHL1    C8 2382   3.026   5.552   4.016  0.3573  0.2545  0.4795
   33CHL1    H8 2383   3.092   5.464   3.997 -1.8073 -1.2324 -0.5577
   33CHL1   C14 2384   3.010   5.579   4.164 -0.5995 -0.2118 -0.3017
   33CHL1   H14 2385   2.931   5.656   4.171 -0.7792 -0.4111 -0.1370
   33CHL1   C15 2386   3.126   5.647   4.251 -0.3536  0.3247  0.1719
   33CHL1  H15A 2387   3.224   5.600   4.228  0.1629  1.3417  0.2130
   33CHL1  H15B 2388   3.128   5.758   4.243 -0.1231  0.3236  0.2006
   33CHL1   C16 2389   3.099   5.612   4.396  0.0344 -0.1859 -0.7646
   33CHL1  H16A 2390   3.182   5.548   4.433 -0.8003 -1.7966 -1.5513
   33CHL1  H16B 2391   3.094   5.693   4.471  0.3584  0.1134 -1.0595
   33CHL1   C17 2392   2.964   5.531   4.394 -0.1272 -0.4234  0.3924
   33CHL1   H17 2393   2.886   5.610   4.393 -0.9481 -1.1889  1.5278
   33CHL1   C13 2394   2.954   5.466   4.251 -0.4762  0.0194 -0.4084
   33CHL1   C18 2395   3.051   5.336   4.256 -0.0246 -0.9474  0.2459
   33CHL1  H18A 2396   3.146   5.365   4.306 -0.4085  2.3031 -0.6484
   33CHL1  H18B 2397   3.006   5.259   4.322  0.4538  0.5685  2.4705
   33CHL1  H18C 2398   3.072   5.309   4.150 -3.3311  2.9790 -1.6989
   33CHL1   C12 2399   2.818   5.438   4.200 -0.0171 -0.1767 -0.5337
   33CHL1  H12A 2400   2.768   5.350   4.246  1.1410 -0.2519  0.6347
   33CHL1  H12B 2401   2.762   5.531   4.220 -0.3769 -0.7953  1.5122
   33CHL1   C11 2402   2.834   5.397   4.052 -0.3214 -0.0229 -0.6433
   33CHL1  H11A 2403   2.889   5.302   4.032 -0.5862 -0.2003 -0.5420
   33CHL1  H11B 2404   2.729   5.374   4.024 -0.6748  0.3408  0.3488
   33CHL1    C9 2405   2.882   5.508   3.959  0.2925 -0.5398  0.3066
   33CHL1    H9 2406   2.818   5.595   3.984  0.4805 -0.3918  0.2773
   33CHL1   C10 2407   2.879   5.486   3.807 -0.1537 -0.7537  0.2380
   33CHL1   C19 2408   2.915   5.337   3.776  0.5419  0.6901 -0.7286
   33CHL1  H19A 2409   2.823   5.286   3.811  0.8482  2.2870  2.8173
   33CHL1  H19B 2410   2.919   5.310   3.668 -1.8030 -1.6225 -0.3553
   33CHL1  H19C 2411   3.008   5.309   3.829 -0.0125 -1.1552 -0.6616
   33CHL1    C1 2412   2.736   5.522   3.756  0.4885  0.2178 -0.1610
   33CHL1   H1A 2413   2.670   5.442   3.797  3.1601 -1.7286  0.6846
   33CHL1   H1B 2414   2.715   5.619   3.807  1.3969 -0.1214  0.9133
   33CHL1    C2 2415   2.715   5.528   3.605 -0.2966  0.7115 -0.5584
   33CHL1   H2A 2416   2.611   5.566   3.590 -0.7662 -1.0642 -2.1758
   33CHL1   H2B 2417   2.732   5.426   3.563 -1.2820  0.1872  0.2657
   33CHL1   C20 2418   2.932   5.452   4.520  0.1771  0.1887  0.5432
   33CHL1   H20 2419   3.011   5.374   4.527  0.3279  0.4401  2.0126
   33CHL1   C21 2420   2.801   5.381   4.513  0.4670  0.9843  0.0185
   33CHL1  H21A 2421   2.726   5.453   4.475 -0.6263 -0.0781  0.1232
   33CHL1  H21B 2422   2.763   5.355   4.614  0.5305 -0.0620 -0.2189
   33CHL1  H21C 2423   2.800   5.289   4.451 -2.4710  0.9097  0.0706
   33CHL1   C22 2424   2.946   5.530   4.642  0.1697 -0.2689 -0.0993
   33CHL1  H22A 2425   2.896   5.629   4.635  0.1275 -0.0292  2.6648
   33CHL1  H22B 2426   2.892   5.482   4.726 -0.1459 -0.2353 -0.2803
   33CHL1   C23 2427   3.087   5.553   4.707 -0.0874 -0.1704  0.3997
   33CHL1  H23A 2428   3.168   5.516   4.641  0.4411 -0.6523  1.2990
   33CHL1  H23B 2429   3.096   5.664   4.706  1.8133 -0.2601 -1.8878
   33CHL1   C24 2430   3.099   5.485   4.850 -0.7556  0.1140 -0.2467
   33CHL1  H24A 2431   2.999   5.503   4.895 -0.1627  1.4333  0.6035
   33CHL1  H24B 2432   3.121   5.377   4.841 -0.1239  0.3860 -2.4454
   33CHL1   C25 2433   3.201   5.553   4.945 -0.4005 -0.0695 -0.1379
   33CHL1   H25 2434   3.176   5.661   4.949  2.8046  0.8212 -0.8797
   33CHL1   C26 2435   3.202   5.479   5.076 -0.3732  1.1419 -0.3442
   33CHL1  H26A 2436   3.211   5.548   5.163 -0.2413 -0.3059  0.8290
   33CHL1  H26B 2437   3.107   5.423   5.095 -0.5266  0.8732 -1.7823
   33CHL1  H26C 2438   3.290   5.413   5.084 -1.0421  0.3736  1.2707
   33CHL1   C27 2439   3.347   5.570   4.881  0.4060  0.0286 -0.4050
   33CHL1  H27A 2440   3.412   5.620   4.955 -1.2371 -2.1206  2.7157
   33CHL1  H27B 2441   3.394   5.471   4.860  0.1023 -0.3464  0.6289
   33CHL1  H27C 2442   3.356   5.626   4.785  0.6354  0.5644 -0.0754
   34CHL1    C3 2443   6.779   1.219   3.879 -0.5093  0.3046  0.1875
   34CHL1    H3 2444   6.745   1.114   3.874  1.6834 -0.4303 -0.5974
   34CHL1    O3 2445   6.778   1.273   3.749 -0.5521  0.0416 -0.2206
   34CHL1   H3' 2446   6.806   1.365   3.758 -0.1045  0.1500 -2.2056
   34CHL1    C4 2447   6.690   1.299   3.966 -0.1665  0.0407 -0.0838
   34CHL1   H4A 2448   6.729   1.402   3.975  1.4909 -0.5605 -0.0151
   34CHL1   H4B 2449   6.592   1.303   3.915 -0.5182 -0.8328  0.4783
   34CHL1    C5 2450   6.682   1.243   4.108 -0.3467 -0.4243 -0.5346
   34CHL1    C6 2451   6.564   1.204   4.163  0.0746 -0.4501 -0.1382
   34CHL1    H6 2452   6.470   1.230   4.112 -0.2890 -1.5507 -0.0558
   34CHL1    C7 2453   6.546   1.151   4.298  0.6036 -0.4928 -0.1283
   34CHL1   H7A 2454   6.475   1.219   4.350  0.6133  1.5497 -2.5946
   34CHL1   H7B 2455   6.515   1.044   4.298 -1.7101  0.0739 -2.1013
   34CHL1    C8 2456   6.678   1.162   4.386  0.1404  0.2664 -1.0869
   34CHL1    H8 2457   6.684   1.269   4.414 -0.5927  0.5371 -1.9178
   34CHL1   C14 2458   6.677   1.068   4.506  0.1873  0.4062  0.8219
   34CHL1   H14 2459   6.693   0.971   4.454  2.5925  2.8149 -3.5602
   34CHL1   C15 2460   6.547   1.064   4.599 -0.0300 -0.1364  0.1002
   34CHL1  H15A 2461   6.515   1.168   4.623  1.3342  0.0672  1.1441
   34CHL1  H15B 2462   6.461   1.019   4.545 -0.1290  0.6788 -0.4504
   34CHL1   C16 2463   6.593   0.996   4.733 -0.1838 -0.0212 -0.4595
   34CHL1  H16A 2464   6.570   1.068   4.815 -0.7358  1.3410 -1.7514
   34CHL1  H16B 2465   6.540   0.899   4.743 -0.0578 -0.1445 -0.9695
   34CHL1   C17 2466   6.746   0.974   4.712 -0.2708  0.0909 -0.4338
   34CHL1   H17 2467   6.761   0.876   4.662  0.7896 -0.1692  0.3709
   34CHL1   C13 2468   6.796   1.081   4.604  0.8507 -0.2509  0.5423
   34CHL1   C18 2469   6.801   1.226   4.665  0.0418  0.5286 -0.2106
   34CHL1  H18A 2470   6.887   1.250   4.731  0.2273  1.9546 -0.9375
   34CHL1  H18B 2471   6.805   1.296   4.578 -1.7144 -0.9777 -1.6025
   34CHL1  H18C 2472   6.703   1.242   4.715  0.8433 -0.1739  1.6502
   34CHL1   C12 2473   6.924   1.061   4.519  0.1321  0.4665 -0.2691
   34CHL1  H12A 2474   7.012   1.081   4.584  2.4734 -0.3010 -2.9553
   34CHL1  H12B 2475   6.918   0.952   4.495 -0.1035 -0.0168  1.8288
   34CHL1   C11 2476   6.931   1.138   4.392  0.3372 -0.3198 -0.7273
   34CHL1  H11A 2477   6.970   1.240   4.415 -0.6870  1.0236 -4.3471
   34CHL1  H11B 2478   7.011   1.100   4.325 -0.5162 -3.0723 -0.3250
   34CHL1    C9 2479   6.803   1.137   4.305  0.2608  0.6682  0.2188
   34CHL1    H9 2480   6.795   1.031   4.272 -1.6901  1.0076 -0.5278
   34CHL1   C10 2481   6.817   1.221   4.177  0.1189  0.4211 -0.5656
   34CHL1   C19 2482   6.857   1.365   4.216 -0.5220 -0.6986 -0.0640
   34CHL1  H19A 2483   6.799   1.420   4.294  0.8116  0.4167  0.1657
   34CHL1  H19B 2484   6.961   1.360   4.253  0.0775 -0.0557 -1.5974
   34CHL1  H19C 2485   6.876   1.432   4.130  1.9534 -0.3571  0.6801
   34CHL1    C1 2486   6.922   1.159   4.077  0.1360  0.1593 -0.3956
   34CHL1   H1A 2487   7.026   1.178   4.113 -0.0905  1.8154 -0.5438
   34CHL1   H1B 2488   6.910   1.049   4.073  2.0356 -0.1473  0.9282
   34CHL1    C2 2489   6.921   1.222   3.940  0.5780  0.7703 -0.0462
   34CHL1   H2A 2490   7.000   1.178   3.876  0.0125  0.6250 -0.6567
   34CHL1   H2B 2491   6.962   1.325   3.948 -0.2407  1.0170  1.3619
   34CHL1   C20 2492   6.821   0.970   4.850 -0.3412 -0.0837  0.3108
   34CHL1   H20 2493   6.813   1.072   4.893 -1.4795 -0.1960  0.3886
   34CHL1   C21 2494   6.973   0.941   4.834 -0.2375  1.2603 -0.1338
   34CHL1  H21A 2495   7.040   1.011   4.780  2.8624 -1.2141  0.1532
   34CHL1  H21B 2496   6.974   0.838   4.793 -1.0592  0.9967  0.4849
   34CHL1  H21C 2497   7.010   0.912   4.935 -0.6840 -0.0078 -0.3135
   34CHL1   C22 2498   6.754   0.878   4.953 -0.1591 -0.0071  0.0809
   34CHL1  H22A 2499   6.644   0.868   4.942 -0.1821 -1.3600  1.2224
   34CHL1  H22B 2500   6.800   0.777   4.944  0.0454 -0.0569  1.5443
   34CHL1   C23 2501   6.780   0.926   5.094 -0.3969  0.6737  0.0251
   34CHL1  H23A 2502   6.887   0.956   5.094 -0.6008  1.4681 -1.3499
   34CHL1  H23B 2503   6.722   1.021   5.102 -1.3609 -0.0145  1.9143
   34CHL1   C24 2504   6.747   0.816   5.192 -0.8028 -0.0141 -0.4137
   34CHL1  H24A 2505   6.643   0.778   5.190 -0.4130 -1.1668  0.3188
   34CHL1  H24B 2506   6.802   0.725   5.161  0.9108  0.9932 -0.4988
   34CHL1   C25 2507   6.782   0.852   5.341  0.8601 -0.4132  0.3567
   34CHL1   H25 2508   6.749   0.762   5.398  0.9379 -0.2482  0.6641
   34CHL1   C26 2509   6.923   0.853   5.380 -0.3287  0.7083  0.9674
   34CHL1  H26A 2510   6.982   0.923   5.317  2.9794 -1.9671  0.8308
   34CHL1  H26B 2511   6.933   0.896   5.482 -0.3796  2.2823  0.3432
   34CHL1  H26C 2512   6.956   0.748   5.374  0.9806  0.9019  3.5100
   34CHL1   C27 2513   6.712   0.974   5.391 -0.3094 -0.3294  0.4950
   34CHL1  H27A 2514   6.737   0.999   5.496 -0.6095 -1.4401  0.8417
   34CHL1  H27B 2515   6.747   1.059   5.329 -0.1127 -0.5731  0.2691
   34CHL1  H27C 2516   6.603   0.959   5.376 -0.5531 -1.3236  2.8552
   35CHL1    C3 2517   2.655   0.123   3.854 -0.1889 -0.3338 -0.0178
   35CHL1    H3 2518   2.635   0.015   3.843  0.0200 -0.6154  1.9846
   35CHL1    O3 2519   2.632   0.183   3.726 -0.2366 -0.9687  0.2806
   35CHL1   H3' 2520   2.682   0.129   3.665 -1.2122 -0.4670 -1.0118
   35CHL1    C4 2521   2.543   0.180   3.945  0.1339  0.0309  0.4959
   35CHL1   H4A 2522   2.574   0.286   3.960  0.4488 -0.3030  2.5038
   35CHL1   H4B 2523   2.442   0.185   3.899  0.5892 -0.2902 -0.5618
   35CHL1    C5 2524   2.543   0.122   4.089  0.3910  0.0940 -0.1313
   35CHL1    C6 2525   2.432   0.074   4.147 -0.0686  1.4006  0.1940
   35CHL1    H6 2526   2.338   0.088   4.092 -0.8946  0.8525  1.4296
   35CHL1    C7 2527   2.434   0.019   4.288 -0.0367 -0.0458 -0.3090
   35CHL1   H7A 2528   2.339   0.040   4.341  0.2109  0.9587 -0.2533
   35CHL1   H7B 2529   2.436  -0.092   4.285  0.7072 -0.1802  2.1963
   35CHL1    C8 2530   2.565   0.071   4.362  0.4799  0.2890 -0.2299
   35CHL1    H8 2531   2.540   0.180   4.362 -1.3796 -0.0949 -0.4629
   35CHL1   C14 2532   2.569   0.006   4.499 -0.0192  0.7785 -0.8412
   35CHL1   H14 2533   2.591  -0.103   4.494  2.4854  0.8991  3.2246
   35CHL1   C15 2534   2.443   0.030   4.589  0.1706 -0.2777 -0.5982
   35CHL1  H15A 2535   2.399   0.123   4.548  0.9492 -0.1349 -1.1451
   35CHL1  H15B 2536   2.372  -0.055   4.577  0.3426 -0.5106  0.0216
   35CHL1   C16 2537   2.505   0.021   4.733  0.2123 -0.3230  0.2834
   35CHL1  H16A 2538   2.481   0.111   4.793  2.0413 -0.3505  1.1120
   35CHL1  H16B 2539   2.464  -0.069   4.783 -1.4315  1.2617  1.9363
   35CHL1   C17 2540   2.657   0.005   4.720 -0.0455  0.6944 -0.1163
   35CHL1   H17 2541   2.675  -0.104   4.718  0.0128  0.7093 -0.8670
   35CHL1   C13 2542   2.687   0.059   4.585  0.5415  0.3208  0.1206
   35CHL1   C18 2543   2.673   0.217   4.595  0.0959  0.5796 -0.0701
   35CHL1  H18A 2544   2.576   0.259   4.629  1.9022  3.0462  2.5548
   35CHL1  H18B 2545   2.738   0.263   4.673 -0.5515  3.3210 -1.0316
   35CHL1  H18C 2546   2.708   0.271   4.505  3.9716 -0.5969  0.5491
   35CHL1   C12 2547   2.813   0.017   4.512 -0.2050  0.0859 -0.5889
   35CHL1  H12A 2548   2.892   0.068   4.571 -1.8044  0.7911  1.0383
   35CHL1  H12B 2549   2.842  -0.090   4.512 -2.2611 -0.5450  1.5957
   35CHL1   C11 2550   2.827   0.075   4.371  0.4162 -0.8678  0.2777
   35CHL1  H11A 2551   2.839   0.185   4.381 -3.2903 -0.4653  2.3409
   35CHL1  H11B 2552   2.908   0.022   4.316 -1.6153 -1.3876 -2.3989
   35CHL1    C9 2553   2.695   0.055   4.284 -0.0117  0.0030  0.3646
   35CHL1    H9 2554   2.701  -0.052   4.253  1.6911  0.4566 -1.0293
   35CHL1   C10 2555   2.689   0.130   4.150 -0.2512  0.2373  0.1509
   35CHL1   C19 2556   2.724   0.272   4.178  0.8158 -0.4463 -0.4120
   35CHL1  H19A 2557   2.828   0.293   4.210  0.2959 -0.8777  1.7258
   35CHL1  H19B 2558   2.706   0.345   4.096 -1.7338 -2.1507 -1.4761
   35CHL1  H19C 2559   2.661   0.306   4.263 -0.3661 -2.2318 -0.5236
   35CHL1    C1 2560   2.797   0.075   4.049  0.2353 -0.0898  0.1138
   35CHL1   H1A 2561   2.893   0.089   4.104 -0.8532  1.1475  1.7574
   35CHL1   H1B 2562   2.774  -0.031   4.022 -0.2622 -0.2705  1.2015
   35CHL1    C2 2563   2.792   0.142   3.913  0.5973 -0.0483 -0.0235
   35CHL1   H2A 2564   2.867   0.093   3.848  0.1689  0.0355 -0.5938
   35CHL1   H2B 2565   2.808   0.251   3.900 -1.6660  0.3314 -0.0958
   35CHL1   C20 2566   2.738   0.052   4.842 -0.0413 -0.0073 -0.0374
   35CHL1   H20 2567   2.720   0.161   4.855 -1.8245  0.1943 -3.2257
   35CHL1   C21 2568   2.887   0.033   4.820 -0.4158 -0.2819 -0.2843
   35CHL1  H21A 2569   2.951   0.021   4.910  1.6289 -0.1940 -1.6745
   35CHL1  H21B 2570   2.922   0.117   4.757 -0.1127 -0.1003  0.1229
   35CHL1  H21C 2571   2.922  -0.052   4.758  0.7320  1.3449 -1.9508
   35CHL1   C22 2572   2.698  -0.020   4.972 -0.4802 -0.3562 -0.4680
   35CHL1  H22A 2573   2.592  -0.050   4.965 -0.6040 -0.4658  1.3397
   35CHL1  H22B 2574   2.759  -0.113   4.978 -0.6839 -0.4237  0.7669
   35CHL1   C23 2575   2.713   0.069   5.094  0.1759 -0.0409 -0.1716
   35CHL1  H23A 2576   2.822   0.083   5.111  0.1299  2.1671 -1.2748
   35CHL1  H23B 2577   2.669   0.170   5.076 -0.7588 -0.4670 -0.3045
   35CHL1   C24 2578   2.655   0.003   5.220 -0.1555 -0.1908 -0.2440
   35CHL1  H24A 2579   2.545  -0.008   5.211 -0.3793 -0.2584  2.0001
   35CHL1  H24B 2580   2.709  -0.094   5.226 -0.5595 -0.3530  2.8047
   35CHL1   C25 2581   2.674   0.066   5.359 -0.2109 -0.1567  0.5866
   35CHL1   H25 2582   2.652   0.175   5.360 -0.2030 -0.0855 -1.6047
   35CHL1   C26 2583   2.589  -0.012   5.457  0.3809 -0.4483  0.4615
   35CHL1  H26A 2584   2.625  -0.116   5.472 -2.0329 -1.6368 -1.2796
   35CHL1  H26B 2585   2.583   0.026   5.561 -0.8123  2.4019 -0.5538
   35CHL1  H26C 2586   2.488  -0.036   5.418  1.4368 -1.7867 -1.6651
   35CHL1   C27 2587   2.819   0.051   5.396 -0.1882 -0.2356  0.2839
   35CHL1  H27A 2588   2.880   0.129   5.346 -2.4095  0.7554 -0.9862
   35CHL1  H27B 2589   2.825   0.074   5.505 -1.7624  0.6178  0.2092
   35CHL1  H27C 2590   2.857  -0.051   5.373 -1.4787 -0.3260 -1.5839
   36CHL1    C3 2591   2.637   1.932   4.273 -0.0524  0.7010 -0.2339
   36CHL1    H3 2592   2.578   2.008   4.326 -2.3402 -2.2830  1.8464
   36CHL1    O3 2593   2.668   1.969   4.138  0.1086  0.0996  0.3574
   36CHL1   H3' 2594   2.658   1.890   4.085 -1.1098 -0.0849  0.8291
   36CHL1    C4 2595   2.766   1.922   4.359  0.1519 -0.0005  0.0027
   36CHL1   H4A 2596   2.837   1.845   4.321 -0.0740 -0.2208  0.0212
   36CHL1   H4B 2597   2.817   2.020   4.374  0.2235  0.4238 -2.6001
   36CHL1    C5 2598   2.736   1.870   4.494 -0.4369 -0.5935  0.0062
   36CHL1    C6 2599   2.770   1.947   4.596  0.5383  0.4830 -0.4402
   36CHL1    H6 2600   2.815   2.046   4.582  2.1447 -0.0247  0.8228
   36CHL1    C7 2601   2.765   1.894   4.741 -0.4074 -0.8404  0.0129
   36CHL1   H7A 2602   2.857   1.934   4.789  0.6773 -2.3615 -0.7231
   36CHL1   H7B 2603   2.682   1.952   4.786  0.2784  0.4763 -0.3560
   36CHL1    C8 2604   2.727   1.750   4.757  0.1666  0.2651  0.5904
   36CHL1    H8 2605   2.823   1.697   4.740 -0.1222 -0.8830  2.2719
   36CHL1   C14 2606   2.672   1.711   4.890 -0.4163 -0.1128  0.4488
   36CHL1   H14 2607   2.568   1.750   4.895 -0.5352 -0.1223 -1.3934
   36CHL1   C15 2608   2.742   1.771   5.013 -0.3155 -0.1351  0.2543
   36CHL1  H15A 2609   2.844   1.775   4.969 -1.3098 -0.6548 -2.2217
   36CHL1  H15B 2610   2.724   1.875   5.048  1.2459 -0.4115  2.0918
   36CHL1   C16 2611   2.722   1.667   5.128 -0.2564 -0.8961 -0.3796
   36CHL1  H16A 2612   2.813   1.605   5.142  0.1294 -0.6788 -1.7653
   36CHL1  H16B 2613   2.693   1.717   5.223 -3.4023 -0.3441 -1.5136
   36CHL1   C17 2614   2.623   1.571   5.069  0.3381 -0.4946  0.5989
   36CHL1   H17 2615   2.523   1.619   5.069  1.3474  1.8593 -1.8532
   36CHL1   C13 2616   2.657   1.560   4.919  0.0791  0.0859  0.0581
   36CHL1   C18 2617   2.797   1.495   4.899 -0.5154  0.2273  0.3997
   36CHL1  H18A 2618   2.811   1.394   4.943 -0.6620 -0.0432 -0.1606
   36CHL1  H18B 2619   2.819   1.486   4.791 -0.2068  0.6093  0.4292
   36CHL1  H18C 2620   2.882   1.559   4.930  2.2090 -2.4643 -1.0465
   36CHL1   C12 2621   2.549   1.512   4.820 -0.0708  0.4180  0.2378
   36CHL1  H12A 2622   2.516   1.405   4.824  0.2371  0.2742 -0.8023
   36CHL1  H12B 2623   2.460   1.574   4.846  0.4414  1.2350  0.0790
   36CHL1   C11 2624   2.594   1.548   4.681 -0.0037  0.3764  0.6499
   36CHL1  H11A 2625   2.685   1.490   4.656  1.5599  1.9628  2.3253
   36CHL1  H11B 2626   2.524   1.509   4.604  1.5697 -1.1854 -0.0426
   36CHL1    C9 2627   2.627   1.698   4.653  0.5720  0.4329 -0.2933
   36CHL1    H9 2628   2.532   1.756   4.662  1.0414  1.2715 -0.6206
   36CHL1   C10 2629   2.667   1.732   4.500 -0.7009 -0.1527 -0.1746
   36CHL1   C19 2630   2.767   1.627   4.443 -0.0595 -0.4499  0.1035
   36CHL1  H19A 2631   2.799   1.646   4.338  0.6588 -1.5431  0.1151
   36CHL1  H19B 2632   2.864   1.628   4.497 -0.6804 -1.6878  1.2894
   36CHL1  H19C 2633   2.731   1.523   4.439 -1.4612  0.0546 -2.5700
   36CHL1    C1 2634   2.540   1.726   4.413 -0.2239 -0.0517 -0.3521
   36CHL1   H1A 2635   2.507   1.621   4.403 -1.9912  0.6729 -3.2491
   36CHL1   H1B 2636   2.463   1.789   4.464  0.1028  0.1479 -0.1005
   36CHL1    C2 2637   2.557   1.789   4.273  0.0284  0.0865  0.4997
   36CHL1   H2A 2638   2.462   1.795   4.216  0.2056 -0.9117  0.0792
   36CHL1   H2B 2639   2.620   1.725   4.208 -1.0431 -1.2149  0.6833
   36CHL1   C20 2640   2.619   1.439   5.158  0.2681 -1.2417  0.6426
   36CHL1   H20 2641   2.711   1.381   5.138  0.5239 -0.5022 -0.4069
   36CHL1   C21 2642   2.507   1.353   5.107 -0.4734 -0.2225  0.7313
   36CHL1  H21A 2643   2.549   1.312   5.013  0.7383 -1.8152  1.9153
   36CHL1  H21B 2644   2.417   1.415   5.088  0.7726  1.0396 -1.4067
   36CHL1  H21C 2645   2.489   1.265   5.173 -1.6950 -1.1758 -0.8222
   36CHL1   C22 2646   2.612   1.469   5.311 -0.2015 -0.3009  0.2928
   36CHL1  H22A 2647   2.592   1.373   5.364 -0.0145 -0.1725  0.6016
   36CHL1  H22B 2648   2.703   1.510   5.360 -2.0525  1.6880  2.2701
   36CHL1   C23 2649   2.502   1.558   5.374 -0.1323  0.4106 -0.3834
   36CHL1  H23A 2650   2.533   1.662   5.351  2.6299 -0.0944  0.5923
   36CHL1  H23B 2651   2.410   1.521   5.324 -0.5628  0.0276  0.6534
   36CHL1   C24 2652   2.494   1.533   5.527  0.2612  0.1205 -0.3046
   36CHL1  H24A 2653   2.454   1.430   5.537 -0.9101  0.6850  1.5244
   36CHL1  H24B 2654   2.600   1.530   5.559  0.5247 -1.3749 -1.2256
   36CHL1   C25 2655   2.401   1.631   5.595 -0.1210 -0.6536 -0.6047
   36CHL1   H25 2656   2.418   1.731   5.549 -2.4255 -0.2746 -0.7127
   36CHL1   C26 2657   2.256   1.590   5.598 -0.2462  0.1220  0.1327
   36CHL1  H26A 2658   2.227   1.570   5.493 -0.6149 -0.6334  0.3645
   36CHL1  H26B 2659   2.246   1.493   5.651  0.6418  0.6744  1.3521
   36CHL1  H26C 2660   2.188   1.659   5.653  2.4436  0.6153  3.1533
   36CHL1   C27 2661   2.447   1.656   5.744  0.2590 -0.3764 -0.1453
   36CHL1  H27A 2662   2.414   1.759   5.766 -0.3000 -0.7949  1.0048
   36CHL1  H27B 2663   2.404   1.590   5.822  0.1304  1.5841  1.5013
   36CHL1  H27C 2664   2.557   1.658   5.757  0.0972 -0.1246  1.3087
   37CHL1    C3 2665   0.940   0.010   4.060  0.5760  0.1571 -0.1810
   37CHL1    H3 2666   0.861   0.068   4.112  0.5252 -2.6704  3.2728
   37CHL1    O3 2667   0.952   0.040   3.921  0.9666  0.1682  0.2187
   37CHL1   H3' 2668   1.013  -0.029   3.895 -0.4343 -1.6338  1.4410
   37CHL1    C4 2669   1.082   0.029   4.118 -0.5533  0.4069 -0.0715
   37CHL1   H4A 2670   1.141  -0.053   4.073 -0.8533  1.2347 -2.0605
   37CHL1   H4B 2671   1.141   0.120   4.091  1.3204 -0.4723  0.8035
   37CHL1    C5 2672   1.076   0.008   4.265  0.3640  0.3238  0.7109
   37CHL1    C6 2673   1.096   0.108   4.350 -0.8443 -0.7981  0.4169
   37CHL1    H6 2674   1.115   0.211   4.317 -0.9845  0.0122  2.6595
   37CHL1    C7 2675   1.091   0.096   4.499 -0.3387 -0.5806  0.5455
   37CHL1   H7A 2676   1.186   0.131   4.545 -1.6419  0.4405  2.5975
   37CHL1   H7B 2677   1.000   0.157   4.517 -2.6062 -2.9616 -1.9036
   37CHL1    C8 2678   1.066  -0.045   4.548 -0.7892  0.1899 -0.0385
   37CHL1    H8 2679   1.164  -0.098   4.551 -0.0915  1.4319  0.1505
   37CHL1   C14 2680   1.003  -0.034   4.692  0.0501  0.7232 -0.6056
   37CHL1   H14 2681   0.907   0.019   4.673 -0.2174  0.0567 -1.1677
   37CHL1   C15 2682   1.078   0.055   4.791 -0.0155 -0.8101  0.7522
   37CHL1  H15A 2683   1.188   0.038   4.791  0.1958  0.4349  0.5814
   37CHL1  H15B 2684   1.061   0.160   4.758  0.5330 -1.2753 -1.0828
   37CHL1   C16 2685   1.024   0.003   4.917  0.3721  0.6293 -0.5625
   37CHL1  H16A 2686   1.106  -0.046   4.974 -0.6001 -2.0095 -1.2662
   37CHL1  H16B 2687   0.964   0.085   4.961 -1.6770 -0.6714 -0.7842
   37CHL1   C17 2688   0.921  -0.116   4.891 -0.3675  0.2699 -0.7459
   37CHL1   H17 2689   0.816  -0.078   4.891 -1.3934 -2.2734  1.0546
   37CHL1   C13 2690   0.975  -0.171   4.753  0.0930 -0.2279 -0.2996
   37CHL1   C18 2691   1.101  -0.254   4.760  0.4797 -0.2440  0.3465
   37CHL1  H18A 2692   1.084  -0.355   4.804  1.1851  0.1485  1.5918
   37CHL1  H18B 2693   1.147  -0.258   4.659  0.1759  2.3986  0.0325
   37CHL1  H18C 2694   1.181  -0.208   4.823  1.1508 -1.6234  0.5435
   37CHL1   C12 2695   0.861  -0.234   4.673 -0.6955 -0.0386 -0.5455
   37CHL1  H12A 2696   0.835  -0.335   4.712  2.1546 -0.1392  1.3874
   37CHL1  H12B 2697   0.774  -0.164   4.676 -0.3405  0.3939  1.1594
   37CHL1   C11 2698   0.894  -0.237   4.523  0.0953 -0.3934 -0.3606
   37CHL1  H11A 2699   0.965  -0.321   4.508  0.2680 -0.1041 -1.2173
   37CHL1  H11B 2700   0.797  -0.272   4.481  0.5346 -1.0448 -0.8521
   37CHL1    C9 2701   0.962  -0.112   4.464  0.5272 -0.4828  0.6265
   37CHL1    H9 2702   0.870  -0.049   4.460  1.0431  0.2070 -1.0952
   37CHL1   C10 2703   1.013  -0.124   4.318  0.2808  0.2585  0.0530
   37CHL1   C19 2704   1.110  -0.236   4.301 -0.4104 -0.5110  0.2016
   37CHL1  H19A 2705   1.197  -0.210   4.366 -1.6936  0.5471  1.5460
   37CHL1  H19B 2706   1.064  -0.331   4.336 -1.7654  0.6666  1.7845
   37CHL1  H19C 2707   1.136  -0.254   4.194  0.0700 -1.9676  0.5373
   37CHL1    C1 2708   0.892  -0.168   4.233  0.2404  0.6767 -0.2092
   37CHL1   H1A 2709   0.870  -0.276   4.249 -0.8253  0.8200 -0.5764
   37CHL1   H1B 2710   0.798  -0.115   4.260  0.6831  1.6717 -0.5950
   37CHL1    C2 2711   0.909  -0.142   4.083 -0.6948  0.0146  0.1119
   37CHL1   H2A 2712   0.822  -0.175   4.023  0.3831 -2.0169 -0.4460
   37CHL1   H2B 2713   0.997  -0.198   4.045  1.6213  2.8899  0.8401
   37CHL1   C20 2714   0.927  -0.203   5.018 -0.4686  0.1678  0.5491
   37CHL1   H20 2715   1.026  -0.249   5.039 -0.4135  0.3524  0.6883
   37CHL1   C21 2716   0.823  -0.323   4.998  0.4931 -0.1227  0.8836
   37CHL1  H21A 2717   0.870  -0.396   4.929  1.1748  1.0533  0.0658
   37CHL1  H21B 2718   0.724  -0.306   4.951  1.0853 -1.3988 -0.9016
   37CHL1  H21C 2719   0.815  -0.376   5.095 -0.0485 -0.3710  0.7050
   37CHL1   C22 2720   0.894  -0.123   5.149 -0.3613 -0.4220  0.4680
   37CHL1  H22A 2721   0.956  -0.031   5.162  0.1537 -0.8074  0.7912
   37CHL1  H22B 2722   0.787  -0.095   5.141 -0.6163 -1.2458  0.8885
   37CHL1   C23 2723   0.913  -0.191   5.287  0.1306  0.1757  1.0874
   37CHL1  H23A 2724   0.837  -0.270   5.299  1.1780 -0.5755  3.5418
   37CHL1  H23B 2725   1.005  -0.253   5.281 -0.3433 -0.4298 -0.3995
   37CHL1   C24 2726   0.928  -0.106   5.413  0.1525  0.4221  0.0564
   37CHL1  H24A 2727   0.987  -0.016   5.384 -0.1443  0.8484  0.7483
   37CHL1  H24B 2728   0.829  -0.069   5.448  1.0796  1.2748  1.8816
   37CHL1   C25 2729   0.991  -0.172   5.544  0.4830 -0.6077 -0.1433
   37CHL1   H25 2730   0.928  -0.262   5.561  0.3844 -0.2869  1.3239
   37CHL1   C26 2731   1.127  -0.229   5.534 -0.3603  0.0595 -0.1566
   37CHL1  H26A 2732   1.129  -0.307   5.455 -0.7804 -0.7001  0.5682
   37CHL1  H26B 2733   1.199  -0.153   5.496  1.9882 -0.1807  3.4119
   37CHL1  H26C 2734   1.168  -0.266   5.630  1.1781  0.1104 -0.7689
   37CHL1   C27 2735   0.979  -0.082   5.676 -0.0008  0.4609  0.4061
   37CHL1  H27A 2736   0.870  -0.067   5.684 -0.2796 -0.2748 -1.5758
   37CHL1  H27B 2737   1.011  -0.128   5.772 -1.0851 -1.4812 -0.1187
   37CHL1  H27C 2738   1.029   0.017   5.666 -1.9336  1.4281 -0.0355
   38CHL1    C3 2739   3.689   0.008   3.837 -0.5861 -0.2717  0.3676
   38CHL1    H3 2740   3.776  -0.056   3.814 -0.1923  0.8049 -1.4224
   38CHL1    O3 2741   3.645   0.058   3.710 -0.2214  0.2224 -0.0422
   38CHL1   H3' 2742   3.718   0.113   3.680  1.5175 -2.7760 -1.7725
   38CHL1    C4 2743   3.564  -0.062   3.901  0.0848  0.5787 -0.0074
   38CHL1   H4A 2744   3.481   0.010   3.918  1.3333  1.8223  0.9919
   38CHL1   H4B 2745   3.521  -0.132   3.826  1.1978 -1.2338  0.9876
   38CHL1    C5 2746   3.607  -0.121   4.030  0.0903 -0.7520  0.0977
   38CHL1    C6 2747   3.619  -0.249   4.054  0.0657 -0.1504 -0.0885
   38CHL1    H6 2748   3.598  -0.314   3.968  0.6860 -0.4070 -0.0576
   38CHL1    C7 2749   3.671  -0.316   4.181 -0.2880 -0.5415  1.1430
   38CHL1   H7A 2750   3.609  -0.404   4.211  0.1706 -1.1648  0.3007
   38CHL1   H7B 2751   3.780  -0.336   4.171 -0.1687  0.0601  1.1774
   38CHL1    C8 2752   3.671  -0.220   4.300  0.5058 -0.4556  0.3641
   38CHL1    H8 2753   3.562  -0.198   4.309  0.5740  0.3958 -0.6095
   38CHL1   C14 2754   3.730  -0.272   4.420 -0.3671 -0.0038 -0.7931
   38CHL1   H14 2755   3.835  -0.286   4.387  0.2225 -0.4237  1.1004
   38CHL1   C15 2756   3.694  -0.413   4.468  0.1733 -0.2018  0.4559
   38CHL1  H15A 2757   3.586  -0.436   4.478  0.3162 -0.8715  0.5445
   38CHL1  H15B 2758   3.733  -0.494   4.403  0.0104 -0.3714  0.5698
   38CHL1   C16 2759   3.759  -0.429   4.606 -0.4554 -0.5513  0.0113
   38CHL1  H16A 2760   3.677  -0.448   4.678 -0.1718  2.9304  1.4354
   38CHL1  H16B 2761   3.839  -0.506   4.618  1.5744  1.7680  2.5686
   38CHL1   C17 2762   3.814  -0.290   4.635  0.8199  0.2674  0.0115
   38CHL1   H17 2763   3.922  -0.289   4.608  0.9520  1.5580  0.5061
   38CHL1   C13 2764   3.742  -0.190   4.549 -0.0811 -0.1708 -0.0212
   38CHL1   C18 2765   3.596  -0.152   4.593 -0.0889 -0.4451  0.0689
   38CHL1  H18A 2766   3.544  -0.234   4.646  0.3962  0.1610  1.5362
   38CHL1  H18B 2767   3.600  -0.066   4.664  0.8098 -2.4855  2.6199
   38CHL1  H18C 2768   3.534  -0.113   4.509  3.5058  1.2294 -2.0308
   38CHL1   C12 2769   3.816  -0.063   4.509 -0.5448 -0.3214 -0.3258
   38CHL1  H12A 2770   3.812   0.013   4.590 -1.9747  0.0196 -0.6827
   38CHL1  H12B 2771   3.922  -0.083   4.483 -0.3831  1.3863 -1.1151
   38CHL1   C11 2772   3.756   0.003   4.379  0.3240  0.0968  0.5618
   38CHL1  H11A 2773   3.665   0.061   4.406  0.9819  1.3103  0.2317
   38CHL1  H11B 2774   3.829   0.080   4.346  1.1683 -1.1259 -0.5476
   38CHL1    C9 2775   3.741  -0.088   4.258 -0.0860  0.1506 -0.6134
   38CHL1    H9 2776   3.837  -0.132   4.222 -1.1537 -3.4307  0.4681
   38CHL1   C10 2777   3.666  -0.022   4.137  0.0746 -0.0969 -0.0705
   38CHL1   C19 2778   3.531   0.061   4.174 -0.7117 -0.4866  0.5630
   38CHL1  H19A 2779   3.493   0.112   4.083 -0.5862 -4.9279 -2.2622
   38CHL1  H19B 2780   3.449  -0.010   4.199 -0.0371 -1.1531  0.9262
   38CHL1  H19C 2781   3.542   0.127   4.263  3.4328 -0.2225  0.0320
   38CHL1    C1 2782   3.770   0.076   4.067  0.3987  0.7072  0.0834
   38CHL1   H1A 2783   3.801   0.158   4.136  2.4521 -0.6906  0.9200
   38CHL1   H1B 2784   3.862   0.014   4.058  0.1856 -0.3584  3.4805
   38CHL1    C2 2785   3.725   0.122   3.927  0.1900 -0.9254  0.7286
   38CHL1   H2A 2786   3.815   0.167   3.881 -0.6154  1.9943  1.7423
   38CHL1   H2B 2787   3.641   0.195   3.929  0.1274 -0.8879 -1.2958
   38CHL1   C20 2788   3.815  -0.278   4.792 -0.0695  0.4118 -0.1572
   38CHL1   H20 2789   3.708  -0.280   4.822  0.0374  0.2015  0.2109
   38CHL1   C21 2790   3.872  -0.137   4.829  0.1723  0.7857 -0.4790
   38CHL1  H21A 2791   3.797  -0.071   4.780  0.3444 -1.6380 -4.4133
   38CHL1  H21B 2792   3.973  -0.118   4.787 -0.0959 -2.4038 -2.9013
   38CHL1  H21C 2793   3.863  -0.112   4.937  1.9741  0.9783 -0.3340
   38CHL1   C22 2794   3.889  -0.389   4.867 -0.1066  0.0484 -0.3814
   38CHL1  H22A 2795   3.865  -0.493   4.835 -0.3777 -0.2607  0.7695
   38CHL1  H22B 2796   3.997  -0.375   4.849 -0.4929  1.2996 -1.9586
   38CHL1   C23 2797   3.880  -0.381   5.017  0.1603  0.0837 -0.5466
   38CHL1  H23A 2798   3.933  -0.295   5.062  0.6617 -0.3197 -0.3524
   38CHL1  H23B 2799   3.773  -0.382   5.046  0.2402 -0.3257 -0.2519
   38CHL1   C24 2800   3.944  -0.503   5.085  0.0298 -0.1837  0.2602
   38CHL1  H24A 2801   3.902  -0.602   5.057 -1.8404  0.3664  1.0205
   38CHL1  H24B 2802   4.055  -0.502   5.077  0.1923 -1.9247  1.5150
   38CHL1   C25 2803   3.940  -0.489   5.239  0.1408  0.2369 -0.0801
   38CHL1   H25 2804   3.983  -0.391   5.269  1.9076 -0.0324 -1.5099
   38CHL1   C26 2805   3.802  -0.496   5.301 -0.5252 -0.5177  0.0173
   38CHL1  H26A 2806   3.811  -0.489   5.411  1.4087 -0.6845 -0.0815
   38CHL1  H26B 2807   3.738  -0.410   5.272  2.1623  1.6721  0.1726
   38CHL1  H26C 2808   3.754  -0.591   5.269 -0.4507 -0.4073 -0.4358
   38CHL1   C27 2809   4.040  -0.585   5.300  0.1448 -0.2153 -0.0236
   38CHL1  H27A 2810   4.013  -0.692   5.312  0.2464 -0.3541 -0.9933
   38CHL1  H27B 2811   4.132  -0.577   5.238  0.1142  1.4885  0.0863
   38CHL1  H27C 2812   4.063  -0.556   5.405 -1.2870  2.0110 -0.2591
   39CHL1    C3 2813   4.185   0.413   3.941 -0.1967  0.3688  0.0052
   39CHL1    H3 2814   4.190   0.518   3.979 -1.1788 -0.5802  2.9533
   39CHL1    O3 2815   4.194   0.392   3.797  0.3877 -0.8109 -0.3946
   39CHL1   H3' 2816   4.172   0.300   3.786  4.2839 -1.6245 -3.1404
   39CHL1    C4 2817   4.309   0.339   3.979 -0.6291  0.0909  0.0034
   39CHL1   H4A 2818   4.304   0.233   3.946 -0.9361 -0.9251  2.9740
   39CHL1   H4B 2819   4.390   0.395   3.928 -0.2656  0.2343  0.7161
   39CHL1    C5 2820   4.330   0.336   4.130  0.6120 -0.2542  0.0419
   39CHL1    C6 2821   4.440   0.382   4.192 -0.7479  0.0492 -0.5620
   39CHL1    H6 2822   4.527   0.399   4.126  0.2180 -2.0694  0.0451
   39CHL1    C7 2823   4.453   0.380   4.341 -0.6755 -0.0262  0.5875
   39CHL1   H7A 2824   4.545   0.334   4.382  0.1924 -1.5392 -2.7778
   39CHL1   H7B 2825   4.455   0.487   4.373  1.6743  0.5746 -1.3107
   39CHL1    C8 2826   4.347   0.303   4.423 -0.2396 -0.5761  0.6164
   39CHL1    H8 2827   4.381   0.197   4.416  2.6216  0.3103 -0.1904
   39CHL1   C14 2828   4.349   0.350   4.565 -0.0915 -0.2650 -0.3509
   39CHL1   H14 2829   4.296   0.448   4.560 -0.8157 -0.6983 -1.4971
   39CHL1   C15 2830   4.475   0.377   4.644 -0.3623  0.2949 -0.7743
   39CHL1  H15A 2831   4.528   0.280   4.635 -2.2599 -0.8908  0.0739
   39CHL1  H15B 2832   4.534   0.467   4.618 -1.7304  1.2278 -0.7753
   39CHL1   C16 2833   4.433   0.372   4.799 -0.7019 -0.4232  0.0854
   39CHL1  H16A 2834   4.511   0.309   4.847  1.2553  0.4349 -1.8243
   39CHL1  H16B 2835   4.438   0.473   4.844 -1.0105  0.4995 -1.8170
   39CHL1   C17 2836   4.283   0.322   4.790  0.3329 -0.5811 -0.4304
   39CHL1   H17 2837   4.220   0.413   4.787  0.7747 -0.1100  1.9575
   39CHL1   C13 2838   4.260   0.261   4.650 -0.3117 -0.5970 -1.3044
   39CHL1   C18 2839   4.301   0.116   4.655 -0.3039 -0.0386 -0.5383
   39CHL1  H18A 2840   4.315   0.070   4.555 -0.0265 -1.7377  0.2481
   39CHL1  H18B 2841   4.393   0.100   4.715  1.3960  1.9750 -2.4607
   39CHL1  H18C 2842   4.220   0.058   4.704 -1.0950  1.7700  0.3900
   39CHL1   C12 2843   4.115   0.291   4.596  0.0755  0.7624 -0.5204
   39CHL1  H12A 2844   4.040   0.238   4.657 -1.4526  1.8378 -1.3905
   39CHL1  H12B 2845   4.080   0.397   4.595  0.0291  0.7715 -2.3113
   39CHL1   C11 2846   4.099   0.246   4.447 -0.3629  0.2027 -0.0842
   39CHL1  H11A 2847   4.102   0.135   4.452  0.0883  0.2404  0.7439
   39CHL1  H11B 2848   4.005   0.296   4.416 -0.8679 -0.1289  0.8827
   39CHL1    C9 2849   4.210   0.318   4.360 -0.0902 -0.4601 -0.2220
   39CHL1    H9 2850   4.189   0.426   4.367 -0.5215 -0.6150  1.3428
   39CHL1   C10 2851   4.205   0.289   4.201  0.7368 -0.1311 -0.1890
   39CHL1   C19 2852   4.198   0.134   4.192  0.1611  0.4157 -0.0508
   39CHL1  H19A 2853   4.101   0.096   4.228 -0.3054  0.6656 -0.9905
   39CHL1  H19B 2854   4.202   0.104   4.085 -1.3562 -0.0373  0.0060
   39CHL1  H19C 2855   4.280   0.091   4.254 -0.7783  0.0505  0.9503
   39CHL1    C1 2856   4.068   0.347   4.148  0.5606 -0.7098  0.5496
   39CHL1   H1A 2857   3.974   0.306   4.190 -0.0919  0.1197 -0.0870
   39CHL1   H1B 2858   4.080   0.453   4.179  0.5486 -0.5287 -0.0631
   39CHL1    C2 2859   4.061   0.349   3.997  0.3452 -0.1599  0.2710
   39CHL1   H2A 2860   3.973   0.407   3.961  0.8155  0.4506  0.0921
   39CHL1   H2B 2861   4.044   0.241   3.978 -0.1948  0.2696 -2.0065
   39CHL1   C20 2862   4.244   0.246   4.919 -0.1014  0.3219  0.3974
   39CHL1   H20 2863   4.295   0.148   4.902  0.8247  0.5843  1.5060
   39CHL1   C21 2864   4.088   0.225   4.912  0.6137 -0.1029  0.3000
   39CHL1  H21A 2865   4.031   0.319   4.895  0.8501 -0.2290 -1.2391
   39CHL1  H21B 2866   4.059   0.202   5.017 -1.3984  5.1966  1.2172
   39CHL1  H21C 2867   4.057   0.147   4.839 -0.7354 -1.3127  2.0575
   39CHL1   C22 2868   4.301   0.300   5.050 -0.4544  0.2684  0.1504
   39CHL1  H22A 2869   4.291   0.224   5.130 -2.4108 -1.1547 -1.3633
   39CHL1  H22B 2870   4.409   0.325   5.040 -0.4796 -0.3550 -2.4117
   39CHL1   C23 2871   4.238   0.434   5.100  0.5440 -0.3332  1.0358
   39CHL1  H23A 2872   4.299   0.505   5.039  0.3258  1.6906  3.0564
   39CHL1  H23B 2873   4.129   0.446   5.084  0.9126  2.1281 -0.0820
   39CHL1   C24 2874   4.280   0.466   5.242  0.4110 -0.4033 -0.7681
   39CHL1  H24A 2875   4.254   0.382   5.310 -3.3181  2.2096  1.4361
   39CHL1  H24B 2876   4.391   0.475   5.239  0.4816 -1.2323 -0.7078
   39CHL1   C25 2877   4.231   0.590   5.306 -0.2620 -0.5071 -0.1204
   39CHL1   H25 2878   4.252   0.667   5.229  1.6592 -0.0987  0.7368
   39CHL1   C26 2879   4.084   0.584   5.354 -0.3878  0.7409  0.6207
   39CHL1  H26A 2880   4.068   0.671   5.422  1.4485 -0.2188  2.4039
   39CHL1  H26B 2881   4.008   0.575   5.273 -0.4597 -0.5934  0.8060
   39CHL1  H26C 2882   4.069   0.490   5.412 -0.8490  1.5853  1.9143
   39CHL1   C27 2883   4.319   0.618   5.433 -0.5273  0.2928 -0.4955
   39CHL1  H27A 2884   4.291   0.718   5.472 -2.2078 -0.5848  0.6499
   39CHL1  H27B 2885   4.297   0.545   5.513  1.6477  1.0575  0.8717
   39CHL1  H27C 2886   4.430   0.617   5.428 -0.4931  1.6540 -0.5758
   40CHL1    C3 2887   0.922   2.466   3.977 -0.2539 -0.5771  0.5605
   40CHL1    H3 2888   0.850   2.537   4.022 -0.1360 -0.1545  0.1033
   40CHL1    O3 2889   0.916   2.474   3.832  0.2852 -0.5313 -0.3180
   40CHL1   H3' 2890   0.831   2.432   3.821  0.7532 -2.0336  1.2591
   40CHL1    C4 2891   1.066   2.510   4.005  0.3160  0.2269 -0.8208
   40CHL1   H4A 2892   1.144   2.451   3.952 -0.1373 -0.3192 -0.8871
   40CHL1   H4B 2893   1.066   2.614   3.967 -1.2018 -0.3274 -2.4839
   40CHL1    C5 2894   1.075   2.505   4.159  0.8986  0.2606  0.3778
   40CHL1    C6 2895   1.101   2.615   4.230 -0.4623 -0.0918  0.5687
   40CHL1    H6 2896   1.137   2.707   4.182 -0.0190  0.7757  2.4718
   40CHL1    C7 2897   1.148   2.612   4.370  0.1035 -0.5135 -0.1191
   40CHL1   H7A 2898   1.240   2.672   4.385 -1.0276  1.3158 -0.1472
   40CHL1   H7B 2899   1.076   2.655   4.443  1.8487 -0.7340  1.8275
   40CHL1    C8 2900   1.163   2.474   4.432  0.4173  0.2595 -0.1035
   40CHL1    H8 2901   1.261   2.429   4.404  1.4292  1.8444  0.7156
   40CHL1   C14 2902   1.153   2.482   4.588  0.4152 -0.2994  0.2917
   40CHL1   H14 2903   1.050   2.518   4.612  0.6039 -0.2037  0.9909
   40CHL1   C15 2904   1.257   2.578   4.661  0.2304 -0.3084 -0.2835
   40CHL1  H15A 2905   1.361   2.555   4.628 -0.5472 -0.0305 -3.2169
   40CHL1  H15B 2906   1.235   2.685   4.643  0.8293 -0.3969 -1.7661
   40CHL1   C16 2907   1.233   2.527   4.809 -0.6901  0.1002  0.7727
   40CHL1  H16A 2908   1.334   2.503   4.849  0.4894  0.2852 -1.8955
   40CHL1  H16B 2909   1.183   2.606   4.868 -0.7037  0.6105  0.0837
   40CHL1   C17 2910   1.139   2.403   4.807 -0.4093  0.3972  0.4853
   40CHL1   H17 2911   1.032   2.432   4.799 -0.1935  0.7760 -1.7971
   40CHL1   C13 2912   1.154   2.352   4.663 -0.0774  0.5932  0.1438
   40CHL1   C18 2913   1.303   2.282   4.638  0.9405  0.8912 -0.3758
   40CHL1  H18A 2914   1.300   2.181   4.685  1.0457  1.8642  1.8755
   40CHL1  H18B 2915   1.328   2.270   4.531  2.2844 -1.8096  0.1543
   40CHL1  H18C 2916   1.384   2.338   4.689  1.5626 -0.4041  0.1143
   40CHL1   C12 2917   1.039   2.270   4.604  0.2065  0.3847 -0.6398
   40CHL1  H12A 2918   1.052   2.172   4.655  0.7013  1.5365  1.5669
   40CHL1  H12B 2919   0.945   2.324   4.629  0.6200 -0.2483  2.7391
   40CHL1   C11 2920   1.049   2.250   4.455  0.6344  0.4617  0.2978
   40CHL1  H11A 2921   1.137   2.187   4.431 -0.1253  0.1479 -1.9453
   40CHL1  H11B 2922   0.965   2.188   4.418  1.2814  0.4069 -1.1512
   40CHL1    C9 2923   1.054   2.382   4.378 -0.7731  0.2190  0.6535
   40CHL1    H9 2924   0.958   2.437   4.390 -0.3713  0.8856  0.8817
   40CHL1   C10 2925   1.064   2.363   4.218 -0.3423 -0.9236 -0.6034
   40CHL1   C19 2926   1.174   2.261   4.186  0.4301 -0.3176  0.0272
   40CHL1  H19A 2927   1.151   2.159   4.225  0.6601  0.2266  1.6532
   40CHL1  H19B 2928   1.192   2.257   4.077  0.5642 -1.8033  0.0730
   40CHL1  H19C 2929   1.272   2.292   4.230 -0.3150  0.2120  1.3896
   40CHL1    C1 2930   0.934   2.304   4.166 -0.0097  0.8183  0.1835
   40CHL1   H1A 2931   0.929   2.197   4.193 -1.4792  0.7485 -0.2698
   40CHL1   H1B 2932   0.851   2.342   4.229 -0.1187  0.4156  0.2833
   40CHL1    C2 2933   0.913   2.325   4.018  0.1467 -0.4627  0.1481
   40CHL1   H2A 2934   0.823   2.274   3.978 -0.9846  0.5765  1.2774
   40CHL1   H2B 2935   0.999   2.273   3.969  1.4266 -0.4345  2.2421
   40CHL1   C20 2936   1.161   2.308   4.923 -0.2816  0.7773 -0.0436
   40CHL1   H20 2937   1.258   2.255   4.908 -0.1462  1.2248 -0.8329
   40CHL1   C21 2938   1.052   2.199   4.923  0.0234 -0.0406  0.4416
   40CHL1  H21A 2939   1.074   2.128   4.840  0.8029  0.3598  0.2891
   40CHL1  H21B 2940   0.954   2.247   4.903  1.5114  3.3323  0.5872
   40CHL1  H21C 2941   1.040   2.137   5.014 -2.6375  0.2381  0.3464
   40CHL1   C22 2942   1.168   2.377   5.058  0.0929  0.3905 -0.4587
   40CHL1  H22A 2943   1.175   2.297   5.135 -2.1220  0.6155  0.0341
   40CHL1  H22B 2944   1.254   2.448   5.061  0.0092  0.4608  0.6739
   40CHL1   C23 2945   1.042   2.453   5.106 -0.1999  0.2686  0.2362
   40CHL1  H23A 2946   0.998   2.512   5.023 -0.0726 -1.1707 -0.8805
   40CHL1  H23B 2947   0.961   2.379   5.121 -2.2472  1.3628 -3.9571
   40CHL1   C24 2948   1.074   2.548   5.221 -0.5007  0.7104 -0.7814
   40CHL1  H24A 2949   1.160   2.510   5.280 -1.6732 -0.8366 -0.0017
   40CHL1  H24B 2950   1.114   2.635   5.164  0.0766  1.0955  0.1974
   40CHL1   C25 2951   0.959   2.578   5.320  0.4678  0.5076 -0.0914
   40CHL1   H25 2952   0.864   2.610   5.273  0.4055  2.5830  1.3252
   40CHL1   C26 2953   0.933   2.451   5.401  0.1008  0.3065  0.9060
   40CHL1  H26A 2954   0.888   2.367   5.345  1.4594 -0.1505  0.4648
   40CHL1  H26B 2955   1.019   2.404   5.453 -1.2146 -0.5723  2.3937
   40CHL1  H26C 2956   0.868   2.479   5.487 -1.2863 -1.3757  0.4461
   40CHL1   C27 2957   0.999   2.691   5.420 -0.1418  0.2630  0.4408
   40CHL1  H27A 2958   1.034   2.781   5.365 -2.5507  0.0345 -1.5961
   40CHL1  H27B 2959   0.923   2.703   5.500 -0.9286  0.7979 -0.3776
   40CHL1  H27C 2960   1.093   2.663   5.474  0.3778 -0.6732 -0.8921
   41CHL1    C3 2961   5.987   0.736   3.862 -0.4735  0.3199 -0.2031
   41CHL1    H3 2962   5.890   0.704   3.907  0.1599 -1.8921 -0.3151
   41CHL1    O3 2963   5.975   0.753   3.720 -0.3122  0.3008 -0.3460
   41CHL1   H3' 2964   6.056   0.802   3.704 -0.2606  0.6756  0.9987
   41CHL1    C4 2965   6.030   0.866   3.932  0.2418  0.3250 -0.2786
   41CHL1   H4A 2966   6.132   0.886   3.892  0.7318 -2.2344 -0.5216
   41CHL1   H4B 2967   5.960   0.946   3.900 -1.5873  0.0507  2.6868
   41CHL1    C5 2968   6.030   0.845   4.079 -0.4844  0.3177 -1.1396
   41CHL1    C6 2969   5.948   0.914   4.152 -0.3998  0.1360 -0.5818
   41CHL1    H6 2970   5.889   0.989   4.098 -1.8785 -2.1465 -2.3220
   41CHL1    C7 2971   5.949   0.911   4.300  0.3439  0.2629 -0.4100
   41CHL1   H7A 2972   5.957   1.015   4.337 -0.0919  0.0722  0.2417
   41CHL1   H7B 2973   5.859   0.857   4.337 -0.5840  1.5626 -0.7189
   41CHL1    C8 2974   6.072   0.833   4.358  0.6066 -0.2124 -0.1776
   41CHL1    H8 2975   6.164   0.893   4.354  1.8636 -1.6331  3.1808
   41CHL1   C14 2976   6.042   0.795   4.501 -0.3217 -0.0626 -0.5890
   41CHL1   H14 2977   5.945   0.740   4.506 -1.3523  1.7645  1.7715
   41CHL1   C15 2978   6.015   0.913   4.588  0.1771 -0.0323 -0.0474
   41CHL1  H15A 2979   6.104   0.979   4.577  0.7462 -0.2963  2.4683
   41CHL1  H15B 2980   5.936   0.984   4.554 -0.2772  0.6441  2.2678
   41CHL1   C16 2981   6.016   0.859   4.727  0.1586  0.1343  0.2569
   41CHL1  H16A 2982   6.097   0.911   4.784 -0.6598  1.4305  0.2594
   41CHL1  H16B 2983   5.922   0.872   4.785 -1.0991 -2.1512 -1.1426
   41CHL1   C17 2984   6.063   0.709   4.718 -0.6364  0.4058 -0.3948
   41CHL1   H17 2985   5.975   0.642   4.707 -0.2932 -0.2695  0.8193
   41CHL1   C13 2986   6.140   0.700   4.580  0.8222  0.5822 -0.8399
   41CHL1   C18 2987   6.278   0.771   4.608 -0.0954 -0.4485 -0.8611
   41CHL1  H18A 2988   6.268   0.867   4.663  0.0573 -0.8997 -0.0354
   41CHL1  H18B 2989   6.341   0.708   4.674  2.3527  1.5820 -1.1152
   41CHL1  H18C 2990   6.341   0.779   4.517  0.8354  2.0435 -0.0778
   41CHL1   C12 2991   6.158   0.569   4.499 -0.1877  0.1108  0.2794
   41CHL1  H12A 2992   6.237   0.505   4.545 -0.8991 -0.2678  0.9940
   41CHL1  H12B 2993   6.063   0.512   4.490  0.2923 -0.5452 -0.8624
   41CHL1   C11 2994   6.203   0.606   4.356 -0.1460 -0.2030 -0.6358
   41CHL1  H11A 2995   6.306   0.650   4.352 -0.6975  1.2561  0.2339
   41CHL1  H11B 2996   6.216   0.510   4.303 -1.4559 -0.0648 -1.2280
   41CHL1    C9 2997   6.099   0.697   4.281  0.8684  0.6005  0.1114
   41CHL1    H9 2998   6.005   0.637   4.280 -1.4615  3.9252  1.3152
   41CHL1   C10 2999   6.117   0.730   4.129 -0.1623  0.4979  0.0657
   41CHL1   C19 3000   6.260   0.769   4.103 -0.5620 -0.0731  0.3765
   41CHL1  H19A 3001   6.303   0.850   4.164 -1.2609  0.6184 -0.0254
   41CHL1  H19B 3002   6.319   0.675   4.099 -2.8766 -1.6725  1.2411
   41CHL1  H19C 3003   6.268   0.802   3.997 -0.9958 -0.7732  0.1119
   41CHL1    C1 3004   6.075   0.600   4.039 -0.0504 -0.1530 -0.0700
   41CHL1   H1A 3005   6.138   0.515   4.071 -0.7148 -0.3765  0.6728
   41CHL1   H1B 3006   5.970   0.568   4.058  0.2055 -2.1857 -1.7184
   41CHL1    C2 3007   6.082   0.621   3.892  0.4234  0.3921  0.6429
   41CHL1   H2A 3008   6.060   0.525   3.842 -0.0021  0.2626  1.0648
   41CHL1   H2B 3009   6.182   0.656   3.859 -0.6646  0.7941 -2.5801
   41CHL1   C20 3010   6.121   0.655   4.846  0.0431  0.4620 -0.8863
   41CHL1   H20 3011   6.222   0.701   4.858 -0.5412  1.9669 -1.5799
   41CHL1   C21 3012   6.142   0.503   4.832 -0.2046 -0.7211 -0.2949
   41CHL1  H21A 3013   6.038   0.464   4.824  0.0251 -1.5461  0.5806
   41CHL1  H21B 3014   6.189   0.462   4.924  2.5493  0.6656 -0.9986
   41CHL1  H21C 3015   6.198   0.479   4.739  0.7535  1.4163 -0.3285
   41CHL1   C22 3016   6.035   0.700   4.973 -0.7511 -0.3052  0.3769
   41CHL1  H22A 3017   6.017   0.809   4.964 -1.4748 -0.5522 -1.5493
   41CHL1  H22B 3018   5.935   0.657   4.952 -1.2000  0.6846  0.4566
   41CHL1   C23 3019   6.095   0.652   5.105 -0.2044  0.1495 -0.1036
   41CHL1  H23A 3020   6.123   0.545   5.100 -0.7703  0.0616 -2.6811
   41CHL1  H23B 3021   6.191   0.707   5.117  0.9821 -1.6731 -0.8286
   41CHL1   C24 3022   6.006   0.675   5.224  0.2083 -0.5407  0.0706
   41CHL1  H24A 3023   6.000   0.786   5.229  2.0381 -0.4668  1.4841
   41CHL1  H24B 3024   5.910   0.623   5.202 -0.3305  0.7901 -0.9137
   41CHL1   C25 3025   6.053   0.630   5.364  0.2777  0.5635 -0.1417
   41CHL1   H25 3026   6.150   0.678   5.387  1.7172 -0.7118 -3.0513
   41CHL1   C26 3027   5.945   0.670   5.469  0.4969  0.0508  0.2860
   41CHL1  H26A 3028   5.938   0.781   5.466  1.2530  0.0793 -0.7483
   41CHL1  H26B 3029   5.850   0.620   5.440 -0.5340  0.5031  2.6656
   41CHL1  H26C 3030   5.991   0.638   5.564  0.0576  0.1905  0.5504
   41CHL1   C27 3031   6.073   0.468   5.368 -0.3221  0.2485 -0.3191
   41CHL1  H27A 3032   6.162   0.422   5.321 -0.2284 -0.6061  0.6729
   41CHL1  H27B 3033   6.069   0.439   5.475 -3.4558  2.0040  0.1961
   41CHL1  H27C 3034   5.981   0.426   5.322 -0.6427  1.0648 -0.4371
   42CHL1    C3 3035   1.200   6.221   4.099 -0.0941  0.1427  0.3289
   42CHL1    H3 3036   1.192   6.328   4.128  2.2786  0.5044 -0.1787
   42CHL1    O3 3037   1.272   6.214   3.975 -0.0724 -0.1960  0.0483
   42CHL1   H3' 3038   1.276   6.118   3.968 -1.6077 -0.4750  2.1927
   42CHL1    C4 3039   1.268   6.144   4.212  0.7107  0.4478  1.0567
   42CHL1   H4A 3040   1.282   6.040   4.176  0.8442  0.0331  2.2923
   42CHL1   H4B 3041   1.374   6.174   4.230  0.5920  0.8102  1.1651
   42CHL1    C5 3042   1.186   6.148   4.343  0.2442  0.9779 -0.4034
   42CHL1    C6 3043   1.237   6.190   4.458 -0.5063 -0.1565 -0.0623
   42CHL1    H6 3044   1.339   6.231   4.456  0.1258 -1.6516 -1.3670
   42CHL1    C7 3045   1.162   6.193   4.589 -0.0041  0.0787  0.1125
   42CHL1   H7A 3046   1.225   6.165   4.677  1.7780  0.3698 -1.0126
   42CHL1   H7B 3047   1.112   6.290   4.607 -0.2633 -0.0013 -0.1766
   42CHL1    C8 3048   1.031   6.100   4.581 -0.3705  0.1286  0.1081
   42CHL1    H8 3049   1.068   5.996   4.577  0.3862  0.4184 -1.7788
   42CHL1   C14 3050   0.938   6.115   4.700  0.0208  0.4560 -0.1933
   42CHL1   H14 3051   0.925   6.226   4.695  0.7233  0.5448 -0.1511
   42CHL1   C15 3052   1.009   6.105   4.844 -0.3068 -0.0508  0.7409
   42CHL1  H15A 3053   1.071   6.014   4.846 -0.8284 -0.4507 -0.3352
   42CHL1  H15B 3054   1.065   6.200   4.856  0.5170 -0.6342  1.6390
   42CHL1   C16 3055   0.890   6.087   4.941  0.2663 -0.4207 -0.1636
   42CHL1  H16A 3056   0.903   5.994   5.001  0.8839  0.1430  0.5877
   42CHL1  H16B 3057   0.891   6.168   5.017 -0.9054 -0.9326  0.4247
   42CHL1   C17 3058   0.762   6.096   4.845 -0.9883  0.5328  0.0327
   42CHL1   H17 3059   0.748   6.206   4.841 -0.3515  0.6656  1.1838
   42CHL1   C13 3060   0.806   6.048   4.700 -0.4030  0.6586 -0.6189
   42CHL1   C18 3061   0.838   5.898   4.714 -0.4580 -0.4101  0.1372
   42CHL1  H18A 3062   0.915   5.873   4.790  1.4046 -0.1130 -1.5615
   42CHL1  H18B 3063   0.743   5.840   4.717 -1.3289  0.7780 -2.0664
   42CHL1  H18C 3064   0.884   5.855   4.623 -0.9198 -2.7508  0.9366
   42CHL1   C12 3065   0.729   6.089   4.578  0.6724 -0.5345  1.1386
   42CHL1  H12A 3066   0.635   6.031   4.570  0.5635 -0.4792  1.9697
   42CHL1  H12B 3067   0.696   6.195   4.585 -2.2024 -1.3637  1.1686
   42CHL1   C11 3068   0.804   6.055   4.448  0.4662  0.3250  0.1229
   42CHL1  H11A 3069   0.805   5.944   4.444 -0.6124  0.3198 -0.4556
   42CHL1  H11B 3070   0.745   6.081   4.358 -1.1213  1.0688  1.3350
   42CHL1    C9 3071   0.949   6.117   4.450 -0.7800 -0.4797  0.5019
   42CHL1    H9 3072   0.935   6.228   4.455  1.9950 -0.0526  0.6784
   42CHL1   C10 3073   1.041   6.091   4.327  0.5021  0.9943  0.5597
   42CHL1   C19 3074   1.034   5.938   4.292 -0.4082 -0.0337 -0.3926
   42CHL1  H19A 3075   1.067   5.880   4.381  2.4277 -0.9026 -1.8810
   42CHL1  H19B 3076   0.929   5.908   4.272 -1.0115  1.4702  0.3451
   42CHL1  H19C 3077   1.090   5.906   4.202 -3.2371 -0.1719 -2.1999
   42CHL1    C1 3078   0.968   6.162   4.206 -0.7463  0.1250  0.5257
   42CHL1   H1A 3079   0.870   6.118   4.180 -1.1819  0.3289  1.7551
   42CHL1   H1B 3080   0.967   6.272   4.225  0.7240  0.8321 -2.7927
   42CHL1    C2 3081   1.053   6.159   4.076  0.4765 -0.8697 -0.4250
   42CHL1   H2A 3082   1.002   6.214   3.994  1.7272  1.3328  0.1906
   42CHL1   H2B 3083   1.065   6.056   4.035  1.5786 -0.7542 -0.4278
   42CHL1   C20 3084   0.641   6.026   4.905 -0.1541  1.2074  0.5452
   42CHL1   H20 3085   0.659   5.916   4.902  4.5396  1.7855  0.8008
   42CHL1   C21 3086   0.512   6.078   4.837 -1.2983  0.5890 -0.2112
   42CHL1  H21A 3087   0.517   6.031   4.736  3.2254 -0.1015  0.1314
   42CHL1  H21B 3088   0.518   6.188   4.822 -0.4624  0.7021  0.7818
   42CHL1  H21C 3089   0.416   6.048   4.884 -1.3999  1.9067  0.4822
   42CHL1   C22 3090   0.626   6.051   5.052 -0.4184  0.1853 -0.2868
   42CHL1  H22A 3091   0.723   6.034   5.103  0.1562  1.4184 -0.9264
   42CHL1  H22B 3092   0.608   6.160   5.066  1.0241  0.4074 -0.0575
   42CHL1   C23 3093   0.521   5.949   5.118  0.2561 -0.3470  0.7180
   42CHL1  H23A 3094   0.423   5.945   5.067  0.0606  0.7139  0.9952
   42CHL1  H23B 3095   0.560   5.847   5.098 -0.4460 -0.3968 -0.4541
   42CHL1   C24 3096   0.503   5.965   5.272 -0.0069 -0.2399  1.2925
   42CHL1  H24A 3097   0.603   5.961   5.321  1.5889  1.5761 -1.5203
   42CHL1  H24B 3098   0.456   6.064   5.289  0.1024 -0.1267  0.9540
   42CHL1   C25 3099   0.411   5.860   5.341 -0.1544 -0.0303  0.0212
   42CHL1   H25 3100   0.390   5.888   5.447  0.1809  0.8948 -0.1490
   42CHL1   C26 3101   0.278   5.849   5.269  0.2848  0.3412  0.1777
   42CHL1  H26A 3102   0.271   5.802   5.169  0.0140 -0.6530  0.6492
   42CHL1  H26B 3103   0.225   5.769   5.327  0.5539 -0.9760 -1.3362
   42CHL1  H26C 3104   0.211   5.938   5.265 -0.9856 -0.5360  0.9798
   42CHL1   C27 3105   0.480   5.727   5.333 -0.3802  0.6441 -0.5700
   42CHL1  H27A 3106   0.459   5.677   5.236  0.4210 -1.1540  0.1470
   42CHL1  H27B 3107   0.589   5.741   5.344 -0.3940 -0.2455  1.0601
   42CHL1  H27C 3108   0.447   5.658   5.414  1.7786  1.8182  1.4345
   43CHL1    C3 3109   3.274   0.928   3.994 -0.0329 -0.5613 -0.0922
   43CHL1    H3 3110   3.306   1.034   3.994  2.2201 -1.1881  1.2590
   43CHL1    O3 3111   3.254   0.899   3.862  0.2590 -0.2938  0.7043
   43CHL1   H3' 3112   3.252   0.804   3.852 -0.9249 -0.0531 -3.4616
   43CHL1    C4 3113   3.383   0.838   4.042 -0.8859 -0.1499  0.3355
   43CHL1   H4A 3114   3.373   0.729   4.024  0.6481 -0.1771 -0.5015
   43CHL1   H4B 3115   3.472   0.864   3.980 -2.0881  0.9691 -1.0132
   43CHL1    C5 3116   3.404   0.858   4.192 -0.2635 -0.1013  0.4553
   43CHL1    C6 3117   3.521   0.902   4.245 -0.2347  0.9427  0.0359
   43CHL1    H6 3118   3.609   0.915   4.180 -0.1320 -1.0848 -0.2903
   43CHL1    C7 3119   3.565   0.910   4.391  0.2196  0.2990  1.2102
   43CHL1   H7A 3120   3.662   0.859   4.407 -1.6174 -3.6593  1.0126
   43CHL1   H7B 3121   3.573   1.018   4.415  0.6579  0.6382 -0.3038
   43CHL1    C8 3122   3.452   0.851   4.482  0.1154 -0.2819 -0.3223
   43CHL1    H8 3123   3.466   0.741   4.476  1.6204 -0.0468 -2.1056
   43CHL1   C14 3124   3.462   0.898   4.632 -0.1097 -0.5606 -0.6659
   43CHL1   H14 3125   3.434   1.005   4.636 -2.0369 -1.0331 -0.3104
   43CHL1   C15 3126   3.595   0.889   4.706  0.2595 -0.2461 -0.8470
   43CHL1  H15A 3127   3.631   0.786   4.687 -0.4166 -0.4066 -1.2984
   43CHL1  H15B 3128   3.665   0.968   4.671  0.1567  1.0292  1.5554
   43CHL1   C16 3129   3.547   0.894   4.856  0.1210 -0.3729 -0.6863
   43CHL1  H16A 3130   3.585   0.802   4.904 -0.9392  0.0985  1.1664
   43CHL1  H16B 3131   3.573   0.982   4.919 -2.3046 -0.3053  0.3259
   43CHL1   C17 3132   3.392   0.883   4.861 -0.0341  0.2819 -0.3860
   43CHL1   H17 3133   3.346   0.983   4.874  1.4462  0.8238  1.0523
   43CHL1   C13 3134   3.352   0.834   4.718  0.4987  0.5104  0.1823
   43CHL1   C18 3135   3.365   0.679   4.725  0.5995 -0.0716  0.0137
   43CHL1  H18A 3136   3.469   0.648   4.748  1.9120  1.7852 -2.8601
   43CHL1  H18B 3137   3.301   0.628   4.801 -2.4582  1.4757 -1.3469
   43CHL1  H18C 3138   3.335   0.629   4.631 -0.3284 -1.6612  1.1111
   43CHL1   C12 3139   3.211   0.882   4.671  0.0976  0.4646  0.9026
   43CHL1  H12A 3140   3.125   0.846   4.731  0.7439 -0.1660  1.4673
   43CHL1  H12B 3141   3.219   0.993   4.671  2.0343  0.4066 -1.1677
   43CHL1   C11 3142   3.194   0.834   4.530 -0.4391 -0.6193  0.3132
   43CHL1  H11A 3143   3.188   0.723   4.525 -1.2420 -0.6699  1.8429
   43CHL1  H11B 3144   3.095   0.868   4.493  0.5544  0.4038 -1.5642
   43CHL1    C9 3145   3.309   0.884   4.431 -0.0271  0.2717 -0.0391
   43CHL1    H9 3146   3.310   0.995   4.430  2.1241  0.3309 -2.4358
   43CHL1   C10 3147   3.282   0.833   4.280 -0.4389 -0.0298 -0.1338
   43CHL1   C19 3148   3.258   0.679   4.271 -0.7047  0.2220 -0.5692
   43CHL1  H19A 3149   3.171   0.650   4.333 -0.2793  0.2351  0.0399
   43CHL1  H19B 3150   3.219   0.639   4.175 -3.8700 -0.8992  1.0721
   43CHL1  H19C 3151   3.352   0.630   4.305 -0.3405  1.3773  0.1281
   43CHL1    C1 3152   3.165   0.910   4.223  0.1936 -0.3947 -0.3670
   43CHL1   H1A 3153   3.070   0.889   4.278  0.2021  0.4379 -0.0177
   43CHL1   H1B 3154   3.188   1.018   4.222  0.0797 -0.3726 -0.9386
   43CHL1    C2 3155   3.146   0.894   4.068  0.1828 -1.0028 -0.9208
   43CHL1   H2A 3156   3.080   0.974   4.029  0.9591  1.0786  1.6984
   43CHL1   H2B 3157   3.105   0.796   4.037  1.2329 -1.8871  0.3484
   43CHL1   C20 3158   3.348   0.802   4.988 -0.1913  0.2417  0.4595
   43CHL1   H20 3159   3.386   0.698   4.982 -0.8619  0.0293 -0.5234
   43CHL1   C21 3160   3.197   0.778   5.006  0.1516 -0.3403 -0.5178
   43CHL1  H21A 3161   3.143   0.726   4.925 -1.0529  1.9518 -1.2886
   43CHL1  H21B 3162   3.150   0.876   5.032  2.2513  0.6424 -0.2099
   43CHL1  H21C 3163   3.180   0.713   5.095 -2.0439  0.8014 -0.0177
   43CHL1   C22 3164   3.410   0.874   5.116 -0.1311  0.7486 -0.0241
   43CHL1  H22A 3165   3.521   0.871   5.113 -0.1578  0.6872 -1.6840
   43CHL1  H22B 3166   3.389   0.983   5.117  2.5641  1.3298  1.3337
   43CHL1   C23 3167   3.365   0.808   5.257  0.6695 -0.0621  1.0796
   43CHL1  H23A 3168   3.255   0.822   5.260  0.6312  0.3388 -0.8673
   43CHL1  H23B 3169   3.393   0.700   5.262 -1.8674 -0.7337  3.5823
   43CHL1   C24 3170   3.412   0.886   5.378  0.1937  0.1356  0.5172
   43CHL1  H24A 3171   3.519   0.907   5.357  0.2583 -0.9497 -0.3328
   43CHL1  H24B 3172   3.357   0.983   5.382  0.6778  0.5430 -1.6927
   43CHL1   C25 3173   3.421   0.812   5.512 -0.0069 -0.1918 -0.3802
   43CHL1   H25 3174   3.449   0.877   5.598 -0.7989 -1.2338  0.7116
   43CHL1   C26 3175   3.286   0.755   5.555  0.2632  0.3419 -0.4021
   43CHL1  H26A 3176   3.282   0.693   5.647  2.4301 -0.1278 -0.5673
   43CHL1  H26B 3177   3.221   0.842   5.580  2.0062  1.1601  1.6137
   43CHL1  H26C 3178   3.250   0.688   5.474  1.9860  0.1488 -1.0539
   43CHL1   C27 3179   3.537   0.711   5.498  0.3724 -0.8215  0.1779
   43CHL1  H27A 3180   3.535   0.667   5.600  1.5775  0.1034  0.6211
   43CHL1  H27B 3181   3.527   0.633   5.420  1.4856 -0.5555 -0.2570
   43CHL1  H27C 3182   3.635   0.759   5.478 -0.7095  1.0587 -0.8804
   44CHL1    C3 3183   0.458   6.777   4.405 -0.9521  0.2859 -0.3708
   44CHL1    H3 3184   0.402   6.870   4.429 -1.5227 -0.0187 -0.5010
   44CHL1    O3 3185   0.510   6.793   4.272 -0.1689  0.0162  0.8489
   44CHL1   H3' 3186   0.537   6.885   4.270  0.2906 -0.1228 -0.0650
   44CHL1    C4 3187   0.580   6.764   4.502 -0.2409 -0.5539  0.2618
   44CHL1   H4A 3188   0.651   6.692   4.456  0.4579  1.2156 -1.5215
   44CHL1   H4B 3189   0.630   6.863   4.495  3.3596 -2.1810  0.4848
   44CHL1    C5 3190   0.527   6.731   4.644  0.0098 -0.4976  0.5970
   44CHL1    C6 3191   0.552   6.812   4.750  0.1457  0.5953 -0.0370
   44CHL1    H6 3192   0.627   6.892   4.735 -0.5014  1.1085 -0.6315
   44CHL1    C7 3193   0.520   6.789   4.897 -0.3756  0.7044  0.6237
   44CHL1   H7A 3194   0.614   6.792   4.957 -0.7910  3.1666  1.3022
   44CHL1   H7B 3195   0.444   6.860   4.937 -0.4792 -0.0344  1.7818
   44CHL1    C8 3196   0.469   6.643   4.915  0.4267  0.2281  0.0607
   44CHL1    H8 3197   0.559   6.577   4.909 -0.1366 -0.5615  0.1442
   44CHL1   C14 3198   0.403   6.638   5.053 -0.5158  0.3205  0.1772
   44CHL1   H14 3199   0.328   6.720   5.054  0.5340  1.3121 -0.6910
   44CHL1   C15 3200   0.488   6.670   5.174  0.3170  0.0225 -0.1364
   44CHL1  H15A 3201   0.589   6.623   5.168 -0.7450 -2.4728  0.1185
   44CHL1  H15B 3202   0.509   6.779   5.178 -0.6033  0.3459 -2.4382
   44CHL1   C16 3203   0.405   6.621   5.294 -0.7355 -0.0258  0.3738
   44CHL1  H16A 3204   0.470   6.547   5.344  0.1816 -0.2711 -1.1295
   44CHL1  H16B 3205   0.388   6.705   5.365 -0.7702  0.0515  0.2759
   44CHL1   C17 3206   0.274   6.554   5.228  0.4182  0.0238  0.0539
   44CHL1   H17 3207   0.200   6.634   5.208 -0.8692 -1.0015  0.5560
   44CHL1   C13 3208   0.334   6.511   5.082  0.6655  0.3529 -1.1564
   44CHL1   C18 3209   0.436   6.391   5.086 -0.1472  0.1530  0.5060
   44CHL1  H18A 3210   0.383   6.293   5.091 -0.8701  0.4943 -0.2363
   44CHL1  H18B 3211   0.487   6.391   4.987 -2.0843  2.4751 -0.5957
   44CHL1  H18C 3212   0.507   6.409   5.169  2.0760  4.4437 -2.0180
   44CHL1   C12 3213   0.232   6.482   4.974  0.6041 -0.5477 -0.1539
   44CHL1  H12A 3214   0.175   6.389   4.995 -0.8054  0.4708  0.6314
   44CHL1  H12B 3215   0.163   6.568   4.981  0.2712 -0.8562  0.3906
   44CHL1   C11 3216   0.293   6.479   4.831 -0.1030 -0.5786 -0.0568
   44CHL1  H11A 3217   0.361   6.391   4.827  0.4087 -0.1609 -0.8699
   44CHL1  H11B 3218   0.213   6.464   4.756  1.7182  1.2060 -2.5516
   44CHL1    C9 3219   0.372   6.604   4.802  0.4940  0.6456 -0.0908
   44CHL1    H9 3220   0.297   6.685   4.794 -1.0186 -0.8787 -2.7360
   44CHL1   C10 3221   0.432   6.617   4.661  0.9048  0.5516  0.1417
   44CHL1   C19 3222   0.503   6.484   4.636 -0.0060 -0.1062  0.0370
   44CHL1  H19A 3223   0.574   6.456   4.718  0.6485  0.6839 -0.2482
   44CHL1  H19B 3224   0.440   6.393   4.627  0.3333 -0.2922 -0.5180
   44CHL1  H19C 3225   0.565   6.484   4.544 -0.6796 -0.9407 -0.4317
   44CHL1    C1 3226   0.319   6.628   4.552 -0.0175 -0.0168 -0.3807
   44CHL1   H1A 3227   0.273   6.527   4.555  0.9734 -0.4639  0.6091
   44CHL1   H1B 3228   0.249   6.706   4.588  0.1227 -0.0645  0.0050
   44CHL1    C2 3229   0.367   6.659   4.412 -0.0398 -0.3308 -0.3594
   44CHL1   H2A 3230   0.277   6.664   4.346 -0.2575 -1.5456 -0.1836
   44CHL1   H2B 3231   0.431   6.575   4.376  0.1975  0.1182 -1.0007
   44CHL1   C20 3232   0.207   6.438   5.311  0.0029 -0.0225  0.2504
   44CHL1   H20 3233   0.250   6.342   5.276  2.7084  0.3734  2.1457
   44CHL1   C21 3234   0.058   6.451   5.286 -0.5271 -0.7414 -0.0977
   44CHL1  H21A 3235   0.003   6.367   5.334 -0.9053 -1.1016 -1.1409
   44CHL1  H21B 3236   0.039   6.450   5.177 -1.1930  1.4208 -0.0614
   44CHL1  H21C 3237   0.010   6.543   5.325 -0.1550 -0.5878  0.0044
   44CHL1   C22 3238   0.232   6.443   5.464  0.8932  0.4864  0.2546
   44CHL1  H22A 3239   0.341   6.453   5.483  1.6226 -1.8051 -2.0948
   44CHL1  H22B 3240   0.189   6.540   5.497 -1.8729 -0.7967  0.7437
   44CHL1   C23 3241   0.191   6.314   5.540  0.8911 -0.1879 -0.1762
   44CHL1  H23A 3242   0.080   6.309   5.546  0.8446 -0.2312 -0.9040
   44CHL1  H23B 3243   0.238   6.223   5.496 -2.1725 -1.8873 -0.2624
   44CHL1   C24 3244   0.260   6.333   5.672 -0.4495  0.0977  0.1526
   44CHL1  H24A 3245   0.367   6.320   5.646 -0.4376 -2.4434  1.2236
   44CHL1  H24B 3246   0.225   6.433   5.705  0.1806  0.3226  0.1464
   44CHL1   C25 3247   0.223   6.224   5.785 -0.4001  0.7231 -0.0145
   44CHL1   H25 3248   0.238   6.127   5.734  1.7910  1.6906 -1.3749
   44CHL1   C26 3249   0.312   6.232   5.909  0.0154  0.4987  0.3264
   44CHL1  H26A 3250   0.419   6.222   5.883  0.0397  0.3064  0.4978
   44CHL1  H26B 3251   0.304   6.329   5.963 -1.8054 -0.7522  2.5090
   44CHL1  H26C 3252   0.285   6.158   5.987  2.1675 -1.6268 -0.8288
   44CHL1   C27 3253   0.082   6.213   5.834  0.6355  0.0815 -0.1651
   44CHL1  H27A 3254   0.007   6.193   5.754 -1.0697 -2.4916  1.9342
   44CHL1  H27B 3255   0.076   6.127   5.903  0.9138  0.0320 -0.2002
   44CHL1  H27C 3256   0.055   6.304   5.892 -0.6852 -1.4451  1.7154
   45CHL1    C3 3257   1.436   0.018   3.824 -0.3311  0.2155 -0.2050
   45CHL1    H3 3258   1.330   0.030   3.855  0.1767  0.6339  1.4568
   45CHL1    O3 3259   1.442   0.043   3.687  0.9715  0.1307  0.0485
   45CHL1   H3' 3260   1.528   0.003   3.669  0.9956 -0.5200  1.4480
   45CHL1    C4 3261   1.534   0.093   3.909  0.0264 -0.0388  0.0749
   45CHL1   H4A 3262   1.638   0.082   3.873  0.9740  2.2943  1.8461
   45CHL1   H4B 3263   1.521   0.199   3.879  1.5211  0.6748  1.7748
   45CHL1    C5 3264   1.519   0.067   4.058  0.4237 -0.0866  0.3395
   45CHL1    C6 3265   1.496   0.154   4.153  0.4144  0.4525  0.0808
   45CHL1    H6 3266   1.505   0.260   4.126  0.6524  0.4151  0.0049
   45CHL1    C7 3267   1.488   0.124   4.299 -0.9415 -0.4833 -0.2602
   45CHL1   H7A 3268   1.547   0.190   4.365 -2.0508  1.0407 -0.7356
   45CHL1   H7B 3269   1.381   0.126   4.328 -1.0822 -1.6816 -0.6196
   45CHL1    C8 3270   1.535  -0.014   4.328 -0.5415  0.0313 -0.4952
   45CHL1    H8 3271   1.645  -0.024   4.311 -0.5774  0.1962 -0.8474
   45CHL1   C14 3272   1.495  -0.056   4.469 -0.2522 -0.6098 -0.4382
   45CHL1   H14 3273   1.385  -0.068   4.469 -0.0157 -3.6308 -0.1027
   45CHL1   C15 3274   1.511   0.045   4.584  0.1586 -0.9211  0.1550
   45CHL1  H15A 3275   1.606   0.102   4.592 -1.7387  2.5229  0.0363
   45CHL1  H15B 3276   1.434   0.122   4.563  0.8464 -0.3426 -0.2976
   45CHL1   C16 3277   1.494  -0.038   4.706  0.3062  0.5313  0.6166
   45CHL1  H16A 3278   1.596  -0.036   4.751  0.8077  0.7868 -0.5103
   45CHL1  H16B 3279   1.422  -0.013   4.787 -0.3742 -2.5507  1.0708
   45CHL1   C17 3280   1.469  -0.192   4.662  0.1549 -0.2066  0.5358
   45CHL1   H17 3281   1.362  -0.212   4.641 -0.0647  0.4214  1.0097
   45CHL1   C13 3282   1.528  -0.200   4.516 -0.5919  0.4242  0.1721
   45CHL1   C18 3283   1.680  -0.209   4.524 -0.0569  0.3398  0.1618
   45CHL1  H18A 3284   1.717  -0.168   4.427 -0.9738  2.9959  0.8487
   45CHL1  H18B 3285   1.734  -0.158   4.606  1.4349 -0.4215 -0.3051
   45CHL1  H18C 3286   1.713  -0.313   4.543 -0.1016  0.4665  0.9658
   45CHL1   C12 3287   1.465  -0.300   4.426 -0.2390 -0.1624 -0.2684
   45CHL1  H12A 3288   1.498  -0.399   4.463  0.9816  0.6591  0.9273
   45CHL1  H12B 3289   1.355  -0.302   4.442 -0.2533  2.3481  0.4429
   45CHL1   C11 3290   1.501  -0.275   4.280  0.0851  0.3257 -0.3712
   45CHL1  H11A 3291   1.609  -0.299   4.269  0.6911  2.9254 -0.7135
   45CHL1  H11B 3292   1.458  -0.354   4.214  1.5178 -0.3272 -0.5708
   45CHL1    C9 3293   1.484  -0.125   4.231 -0.5891  0.1908 -0.0305
   45CHL1    H9 3294   1.375  -0.104   4.241 -0.3865  0.1704  2.9902
   45CHL1   C10 3295   1.530  -0.088   4.087 -0.4521 -0.1205  0.5571
   45CHL1   C19 3296   1.682  -0.128   4.064  0.7396  0.0910  0.0443
   45CHL1  H19A 3297   1.701  -0.106   3.956 -2.0000  3.7864  0.1123
   45CHL1  H19B 3298   1.752  -0.056   4.111  0.7996 -0.4050  0.7191
   45CHL1  H19C 3299   1.697  -0.233   4.096  2.0450  0.6609  1.4207
   45CHL1    C1 3300   1.446  -0.172   3.989  0.1488 -0.0412  0.3152
   45CHL1   H1A 3301   1.479  -0.278   3.997  0.2689 -0.1351 -1.0884
   45CHL1   H1B 3302   1.337  -0.170   4.012 -0.0812 -0.9408 -0.6330
   45CHL1    C2 3303   1.458  -0.135   3.841  0.2641  0.5162 -0.1308
   45CHL1   H2A 3304   1.370  -0.173   3.785 -1.5513  4.5834 -0.4257
   45CHL1   H2B 3305   1.555  -0.170   3.799 -0.1982  0.9349 -1.5837
   45CHL1   C20 3306   1.516  -0.286   4.775 -0.6033  0.5640 -0.1080
   45CHL1   H20 3307   1.626  -0.282   4.792 -0.5886 -0.4261  0.1385
   45CHL1   C21 3308   1.491  -0.434   4.731 -0.6097 -0.7029 -0.1447
   45CHL1  H21A 3309   1.392  -0.438   4.680 -1.4003  3.2638  0.7028
   45CHL1  H21B 3310   1.486  -0.499   4.821 -2.3056  0.8072  0.9283
   45CHL1  H21C 3311   1.572  -0.473   4.666  0.3687  0.8391  0.0955
   45CHL1   C22 3312   1.456  -0.260   4.914  0.7300  0.1817 -0.2394
   45CHL1  H22A 3313   1.442  -0.152   4.933  1.8897  0.2818  0.1237
   45CHL1  H22B 3314   1.360  -0.314   4.926  0.1118  1.4809  0.8479
   45CHL1   C23 3315   1.534  -0.308   5.040 -0.1406 -0.2456 -0.0442
   45CHL1  H23A 3316   1.563  -0.415   5.034  3.6364  0.5101  2.0448
   45CHL1  H23B 3317   1.625  -0.245   5.042  0.8959 -1.7100  0.6830
   45CHL1   C24 3318   1.461  -0.301   5.175 -0.6479 -0.4961 -0.1907
   45CHL1  H24A 3319   1.410  -0.203   5.165 -1.9226 -1.2257 -1.1718
   45CHL1  H24B 3320   1.385  -0.379   5.196  0.3458 -0.9461  2.0558
   45CHL1   C25 3321   1.548  -0.277   5.302 -0.3894  0.0861 -0.7380
   45CHL1   H25 3322   1.619  -0.196   5.276  0.5239 -0.2928  0.4416
   45CHL1   C26 3323   1.471  -0.227   5.430 -0.0530 -0.4083 -0.2018
   45CHL1  H26A 3324   1.422  -0.129   5.413  0.6400 -0.1044 -0.5017
   45CHL1  H26B 3325   1.394  -0.299   5.464 -1.4599  1.2291  0.2201
   45CHL1  H26C 3326   1.544  -0.211   5.513  0.7731 -1.1264 -0.7632
   45CHL1   C27 3327   1.629  -0.409   5.331 -0.5591 -0.0279 -0.5213
   45CHL1  H27A 3328   1.691  -0.426   5.241  0.7931  1.3702  0.1068
   45CHL1  H27B 3329   1.698  -0.402   5.418 -2.2168 -0.4594  0.9020
   45CHL1  H27C 3330   1.553  -0.490   5.339 -1.3898  0.7221 -0.6759
   46CHL1    C3 3331   5.216   0.810   3.939 -0.2094  0.4144  0.3240
   46CHL1    H3 3332   5.209   0.703   3.969 -0.0534  0.3717  0.2104
   46CHL1    O3 3333   5.213   0.811   3.795 -0.2342 -0.0196 -0.7740
   46CHL1   H3' 3334   5.286   0.861   3.760 -0.8620 -0.6513 -3.1984
   46CHL1    C4 3335   5.090   0.879   3.989 -0.0749  0.4007 -0.1742
   46CHL1   H4A 3336   5.087   0.979   3.941  0.9989 -0.1896 -1.5353
   46CHL1   H4B 3337   5.007   0.815   3.950  0.4748  0.1068 -0.8693
   46CHL1    C5 3338   5.088   0.898   4.136  0.0829  0.7735  0.3677
   46CHL1    C6 3339   4.986   0.840   4.210  0.1448 -0.1418  0.3274
   46CHL1    H6 3340   4.901   0.785   4.167 -0.8594  1.4700  0.1646
   46CHL1    C7 3341   4.985   0.862   4.362  0.3025  0.2281 -0.7352
   46CHL1   H7A 3342   4.881   0.877   4.400  0.7088 -0.4367  0.7444
   46CHL1   H7B 3343   5.017   0.762   4.400  1.4314  0.8172 -0.0811
   46CHL1    C8 3344   5.092   0.957   4.415  0.0009 -0.3539 -0.4451
   46CHL1    H8 3345   5.065   1.064   4.404  1.0925 -0.2895 -3.3821
   46CHL1   C14 3346   5.099   0.931   4.567  0.3376  0.5927  0.3426
   46CHL1   H14 3347   5.121   0.823   4.584  0.4965  0.6518  0.5153
   46CHL1   C15 3348   4.965   0.959   4.644 -0.7577 -0.4914  0.5766
   46CHL1  H15A 3349   4.928   1.059   4.612  0.3014  0.0174  0.8664
   46CHL1  H15B 3350   4.894   0.874   4.642 -1.3068 -0.0495  0.8826
   46CHL1   C16 3351   5.017   0.992   4.783 -0.4465  0.0228  0.4038
   46CHL1  H16A 3352   4.994   1.098   4.806  0.5641  0.7520 -1.7031
   46CHL1  H16B 3353   4.965   0.927   4.856  0.8624 -1.1688  0.3210
   46CHL1   C17 3354   5.173   0.967   4.780  0.5330  0.1002 -0.0511
   46CHL1   H17 3355   5.177   0.856   4.788  2.0558  0.0291 -1.3179
   46CHL1   C13 3356   5.209   1.002   4.637  0.0210  0.1355 -0.4620
   46CHL1   C18 3357   5.216   1.153   4.621 -0.4971  0.1858  0.4435
   46CHL1  H18A 3358   5.299   1.190   4.684 -0.6470  0.6304  0.3816
   46CHL1  H18B 3359   5.225   1.182   4.514  0.5535  0.3719  0.5747
   46CHL1  H18C 3360   5.129   1.211   4.660 -0.9482 -0.1589 -0.0306
   46CHL1   C12 3361   5.334   0.938   4.581 -0.1743  0.3414 -0.0872
   46CHL1  H12A 3362   5.430   0.961   4.633  0.2919  0.8590 -1.1244
   46CHL1  H12B 3363   5.328   0.827   4.582  0.7613  0.1421 -3.2768
   46CHL1   C11 3364   5.357   0.969   4.430 -0.3701 -0.1095  0.7646
   46CHL1  H11A 3365   5.380   1.077   4.419 -1.2667  0.0729  0.5679
   46CHL1  H11B 3366   5.446   0.915   4.392 -0.1406  2.5756 -3.0742
   46CHL1    C9 3367   5.224   0.925   4.350 -0.3874 -1.0074 -0.1024
   46CHL1    H9 3368   5.230   0.814   4.362  1.2328 -0.9922 -0.5111
   46CHL1   C10 3369   5.216   0.961   4.202 -0.7722  0.5002  0.1519
   46CHL1   C19 3370   5.218   1.113   4.185 -0.6271  0.1094  0.1081
   46CHL1  H19A 3371   5.115   1.153   4.198 -0.7448 -0.2517  0.2875
   46CHL1  H19B 3372   5.270   1.176   4.260  0.6939 -0.0152 -0.6861
   46CHL1  H19C 3373   5.265   1.142   4.089  1.8538 -0.4609  1.0762
   46CHL1    C1 3374   5.341   0.892   4.137 -0.5330 -0.0516 -0.3698
   46CHL1   H1A 3375   5.433   0.952   4.154 -1.2786  1.5912 -1.8571
   46CHL1   H1B 3376   5.360   0.792   4.181 -3.9534  0.6339  3.3135
   46CHL1    C2 3377   5.339   0.885   3.986 -0.1846  0.2653 -0.1153
   46CHL1   H2A 3378   5.423   0.827   3.942 -0.9912 -0.0317 -1.3278
   46CHL1   H2B 3379   5.348   0.984   3.937  0.6337  1.4221  2.2224
   46CHL1   C20 3380   5.250   1.042   4.894 -0.1553  0.4002 -0.1197
   46CHL1   H20 3381   5.257   1.152   4.885  0.2804  0.2591 -1.8354
   46CHL1   C21 3382   5.387   0.976   4.905  0.2272  0.0881  0.0126
   46CHL1  H21A 3383   5.451   1.019   4.825 -0.1885  0.8859  0.0956
   46CHL1  H21B 3384   5.385   0.865   4.897  2.0052 -0.0040  0.4125
   46CHL1  H21C 3385   5.433   0.996   5.005  2.5422 -1.7768 -0.5924
   46CHL1   C22 3386   5.180   1.013   5.034 -0.2403 -0.2910 -0.4575
   46CHL1  H22A 3387   5.074   1.045   5.041  0.1879  1.1414 -0.2356
   46CHL1  H22B 3388   5.188   0.903   5.048  2.1514 -0.2590 -1.1520
   46CHL1   C23 3389   5.239   1.079   5.151 -0.2976  0.1268 -0.0222
   46CHL1  H23A 3390   5.169   1.075   5.238 -0.7623  0.3612 -0.3801
   46CHL1  H23B 3391   5.340   1.042   5.178  1.4357  2.8442 -2.2410
   46CHL1   C24 3392   5.254   1.228   5.132 -0.1318 -0.6846 -0.0186
   46CHL1  H24A 3393   5.336   1.256   5.062 -0.1665 -1.6477 -0.4567
   46CHL1  H24B 3394   5.161   1.272   5.091 -0.3305 -0.6988  0.4110
   46CHL1   C25 3395   5.306   1.313   5.256  0.7480  0.3478 -0.1694
   46CHL1   H25 3396   5.228   1.279   5.327 -0.8881 -0.3518 -2.1845
   46CHL1   C26 3397   5.448   1.268   5.297  0.0296 -0.8951  0.2496
   46CHL1  H26A 3398   5.530   1.309   5.235 -0.3266  1.9810  1.5262
   46CHL1  H26B 3399   5.472   1.297   5.401  0.4200  0.2371 -0.1432
   46CHL1  H26C 3400   5.454   1.157   5.300  0.5466 -0.8892 -0.3058
   46CHL1   C27 3401   5.289   1.463   5.231  0.2939 -0.4645  0.0825
   46CHL1  H27A 3402   5.336   1.520   5.314 -1.0728 -1.2758  1.4702
   46CHL1  H27B 3403   5.333   1.484   5.131  2.0035 -2.4738  0.3536
   46CHL1  H27C 3404   5.182   1.492   5.235 -0.2769 -2.1407 -1.6322
   47CHL1    C3 3405   1.279   4.528   5.246 -0.0586 -0.1565  0.7547
   47CHL1    H3 3406   1.268   4.495   5.351 -0.4900  2.6689  1.6634
   47CHL1    O3 3407   1.366   4.642   5.241  0.1334  0.6126  0.7235
   47CHL1   H3' 3408   1.365   4.667   5.148  1.3682 -1.8162 -0.0297
   47CHL1    C4 3409   1.331   4.408   5.160  0.2001  0.2242  0.2110
   47CHL1   H4A 3410   1.343   4.442   5.055 -1.7518  2.0573  0.4947
   47CHL1   H4B 3411   1.429   4.380   5.202  0.8390  0.0485 -1.3499
   47CHL1    C5 3412   1.235   4.290   5.175  0.2781 -0.1510 -0.3684
   47CHL1    C6 3413   1.274   4.171   5.209  0.2375  0.4131 -0.1150
   47CHL1    H6 3414   1.382   4.163   5.227  0.2506  0.2710 -0.2488
   47CHL1    C7 3415   1.186   4.051   5.241 -0.0272  0.0312 -0.3779
   47CHL1   H7A 3416   1.234   3.960   5.199 -1.3296  0.4009 -2.8751
   47CHL1   H7B 3417   1.182   4.041   5.351  1.1513  1.5975 -0.1483
   47CHL1    C8 3418   1.052   4.066   5.171 -0.1896  0.5010  0.3510
   47CHL1    H8 3419   1.068   4.048   5.062 -0.2987  1.8747  0.0995
   47CHL1   C14 3420   0.962   3.951   5.224 -0.1915  0.6314 -0.4285
   47CHL1   H14 3421   0.942   3.976   5.331  2.0558  1.2284 -0.0903
   47CHL1   C15 3422   0.997   3.804   5.227 -0.4371  0.2621  0.5697
   47CHL1  H15A 3423   1.033   3.771   5.127  0.1711  1.7757  0.2664
   47CHL1  H15B 3424   1.079   3.779   5.298  0.6158 -0.0047 -0.6931
   47CHL1   C16 3425   0.857   3.734   5.256  1.1213 -0.3694 -0.5072
   47CHL1  H16A 3426   0.838   3.659   5.176 -1.5674  1.1209 -1.4171
   47CHL1  H16B 3427   0.845   3.685   5.354  0.5178 -1.6483 -1.1916
   47CHL1   C17 3428   0.743   3.844   5.252  0.6106 -0.5184  0.6717
   47CHL1   H17 3429   0.726   3.884   5.354  1.5281  0.4845  0.4505
   47CHL1   C13 3430   0.813   3.961   5.177 -0.2270  0.2639 -0.4007
   47CHL1   C18 3431   0.807   3.927   5.024  0.1854  0.5028  0.1851
   47CHL1  H18A 3432   0.702   3.940   4.990  0.2499 -0.6290 -0.5066
   47CHL1  H18B 3433   0.861   4.005   4.966  0.0393 -0.3061 -1.0757
   47CHL1  H18C 3434   0.848   3.827   4.996  0.5439  0.7597 -0.2108
   47CHL1   C12 3435   0.755   4.105   5.206  0.4833 -0.4742  0.4208
   47CHL1  H12A 3436   0.652   4.128   5.172  0.1488  1.1060  2.3239
   47CHL1  H12B 3437   0.752   4.120   5.316 -1.0362  3.0588  0.0239
   47CHL1   C11 3438   0.856   4.212   5.156  0.7167 -0.2739 -0.0242
   47CHL1  H11A 3439   0.841   4.207   5.046 -3.3655  1.0856  0.2889
   47CHL1  H11B 3440   0.809   4.309   5.186 -1.0629 -1.0400 -0.2080
   47CHL1    C9 3441   0.998   4.206   5.201 -0.3998 -0.4516  0.3402
   47CHL1    H9 3442   0.996   4.218   5.312  1.1630  0.8965  0.2595
   47CHL1   C10 3443   1.087   4.332   5.157  0.1060  0.4220 -0.0261
   47CHL1   C19 3444   1.068   4.352   5.001 -0.5120 -0.3465 -0.8138
   47CHL1  H19A 3445   0.985   4.422   4.978  1.0370  1.9607  0.2904
   47CHL1  H19B 3446   1.148   4.416   4.959 -1.6814 -0.3292 -3.1553
   47CHL1  H19C 3447   1.065   4.253   4.950  3.0325 -0.3783 -1.1832
   47CHL1    C1 3448   1.038   4.453   5.235 -1.0002 -0.7020  0.4016
   47CHL1   H1A 3449   0.937   4.495   5.217 -0.5233  0.2859 -0.0362
   47CHL1   H1B 3450   1.035   4.439   5.346  0.8669  1.1410  0.7504
   47CHL1    C2 3451   1.134   4.568   5.201 -0.1369  0.1427 -0.1534
   47CHL1   H2A 3452   1.099   4.654   5.263  0.5560  0.4572 -0.1886
   47CHL1   H2B 3453   1.141   4.598   5.094 -1.0341  0.6359 -0.0852
   47CHL1   C20 3454   0.604   3.800   5.207  0.2221 -0.0760 -0.4353
   47CHL1   H20 3455   0.558   3.889   5.159  2.0725  0.2887 -1.6356
   47CHL1   C21 3456   0.530   3.763   5.344 -0.1532 -0.2709 -0.9727
   47CHL1  H21A 3457   0.535   3.852   5.410 -0.1452 -1.4622  0.7032
   47CHL1  H21B 3458   0.568   3.673   5.397 -0.4473  0.4289  0.5096
   47CHL1  H21C 3459   0.422   3.754   5.322 -0.8141  2.8158  0.4091
   47CHL1   C22 3460   0.589   3.680   5.117 -0.2719  0.2213 -0.0456
   47CHL1  H22A 3461   0.640   3.701   5.020  1.0810  1.1054  0.8306
   47CHL1  H22B 3462   0.652   3.600   5.160  1.6573  1.4272 -0.5070
   47CHL1   C23 3463   0.442   3.643   5.078  0.0530 -0.0387  0.3439
   47CHL1  H23A 3464   0.392   3.598   5.166  0.2584 -3.1022 -0.9857
   47CHL1  H23B 3465   0.389   3.734   5.043 -0.0644  0.5359  1.9268
   47CHL1   C24 3466   0.449   3.536   4.962 -0.0154 -0.1046 -0.4060
   47CHL1  H24A 3467   0.515   3.578   4.883 -1.8468 -0.5750 -2.2853
   47CHL1  H24B 3468   0.487   3.439   5.000  2.4243  0.6814 -0.6450
   47CHL1   C25 3469   0.312   3.530   4.891 -0.2895 -0.0241 -0.2242
   47CHL1   H25 3470   0.289   3.634   4.861  0.0832  0.0600 -0.2180
   47CHL1   C26 3471   0.326   3.446   4.763 -0.2455 -0.4842 -0.6307
   47CHL1  H26A 3472   0.429   3.462   4.726 -0.3345  2.1298  0.0733
   47CHL1  H26B 3473   0.325   3.340   4.795  0.1064  0.3421  2.4258
   47CHL1  H26C 3474   0.251   3.464   4.682 -0.7884  2.8780  0.4637
   47CHL1   C27 3475   0.190   3.481   4.974 -0.3200 -0.3960 -0.1070
   47CHL1  H27A 3476   0.200   3.372   4.994  1.4151 -0.6006 -1.7794
   47CHL1  H27B 3477   0.170   3.536   5.069 -3.1741 -4.2370  1.8013
   47CHL1  H27C 3478   0.099   3.497   4.912 -0.4302 -2.1486 -0.4557
   48CHL1    C3 3479   0.359   5.299   3.733 -0.3434 -0.0348  0.7357
   48CHL1    H3 3480   0.280   5.221   3.727 -0.0235 -0.3586  0.6761
   48CHL1    O3 3481   0.369   5.367   3.615  0.1449 -0.5456 -0.0733
   48CHL1   H3' 3482   0.357   5.299   3.549 -1.1840  0.6299 -1.1080
   48CHL1    C4 3483   0.306   5.397   3.839  0.4393  0.4589 -0.1451
   48CHL1   H4A 3484   0.367   5.489   3.847 -0.2936  0.8419  1.4302
   48CHL1   H4B 3485   0.198   5.418   3.822  0.5961  0.4621 -1.1987
   48CHL1    C5 3486   0.313   5.326   3.969 -0.5237  0.8475 -0.6499
   48CHL1    C6 3487   0.202   5.300   4.047 -0.5565 -0.0859  0.1557
   48CHL1    H6 3488   0.102   5.328   4.011 -0.4109 -1.1087 -1.1487
   48CHL1    C7 3489   0.215   5.257   4.185  0.0709  0.1925  0.2873
   48CHL1   H7A 3490   0.157   5.320   4.255  0.6246  0.5514  0.4315
   48CHL1   H7B 3491   0.176   5.154   4.195 -0.7322  0.0299 -3.2013
   48CHL1    C8 3492   0.355   5.267   4.248  0.5319 -0.5514  0.0578
   48CHL1    H8 3493   0.370   5.377   4.254  1.8498 -0.6653 -0.7520
   48CHL1   C14 3494   0.363   5.191   4.378 -0.1965  0.4827 -0.3232
   48CHL1   H14 3495   0.339   5.085   4.356  0.1809  0.5202 -0.9323
   48CHL1   C15 3496   0.257   5.222   4.481 -0.3769 -1.0901 -0.2309
   48CHL1  H15A 3497   0.250   5.333   4.489  0.1551 -1.0308 -0.5335
   48CHL1  H15B 3498   0.159   5.178   4.452 -0.9577  0.3218 -0.5116
   48CHL1   C16 3499   0.324   5.193   4.623 -0.4430 -0.2848  0.1888
   48CHL1  H16A 3500   0.344   5.287   4.679 -0.4389 -0.0225 -0.2491
   48CHL1  H16B 3501   0.254   5.122   4.671 -0.5882 -0.5183 -0.3612
   48CHL1   C17 3502   0.468   5.122   4.590 -0.1845  0.0201  0.5164
   48CHL1   H17 3503   0.451   5.014   4.570  1.3660  0.0828 -1.6294
   48CHL1   C13 3504   0.503   5.188   4.451 -0.0522  0.3701  0.5009
   48CHL1   C18 3505   0.557   5.322   4.485 -0.9059 -0.5815  0.7485
   48CHL1  H18A 3506   0.530   5.391   4.403  0.8847 -1.0395 -0.2992
   48CHL1  H18B 3507   0.508   5.372   4.571 -0.9294  1.0593 -0.1904
   48CHL1  H18C 3508   0.668   5.319   4.495 -0.2490 -0.0011 -3.9226
   48CHL1   C12 3509   0.594   5.108   4.354  0.0918  0.5564  0.6246
   48CHL1  H12A 3510   0.687   5.092   4.413 -0.0792 -1.5406  0.4123
   48CHL1  H12B 3511   0.547   5.007   4.346 -0.0847  0.6212  0.8552
   48CHL1   C11 3512   0.602   5.181   4.220 -0.0593 -0.1966 -0.7014
   48CHL1  H11A 3513   0.654   5.278   4.237  1.4535 -1.1689  0.4830
   48CHL1  H11B 3514   0.669   5.129   4.149 -1.7428 -0.9060 -1.8454
   48CHL1    C9 3515   0.455   5.203   4.154  0.0578 -0.0997 -0.2554
   48CHL1    H9 3516   0.404   5.105   4.144  1.3144 -0.8375  0.2257
   48CHL1   C10 3517   0.457   5.278   4.019  1.1794 -0.3181 -0.0537
   48CHL1   C19 3518   0.546   5.404   4.028 -0.7055 -0.2134 -0.0117
   48CHL1  H19A 3519   0.656   5.390   4.033 -0.7990 -1.5890 -1.1184
   48CHL1  H19B 3520   0.539   5.475   3.943  2.0706  1.8612  1.3204
   48CHL1  H19C 3521   0.512   5.460   4.118 -2.1528  0.2865 -0.8457
   48CHL1    C1 3522   0.512   5.183   3.909 -1.0934  0.5662 -0.0380
   48CHL1   H1A 3523   0.617   5.169   3.942 -1.8791 -2.2209  1.5443
   48CHL1   H1B 3524   0.452   5.091   3.921 -0.7717  0.5855  2.0297
   48CHL1    C2 3525   0.500   5.243   3.770  0.1049  0.0132  0.4904
   48CHL1   H2A 3526   0.510   5.165   3.691  1.2521 -0.8776  1.4930
   48CHL1   H2B 3527   0.570   5.329   3.768 -0.2100  0.3016  1.4901
   48CHL1   C20 3528   0.579   5.122   4.697 -0.6193 -0.0291  0.1339
   48CHL1   H20 3529   0.626   5.222   4.701  0.7780 -0.6706  0.4596
   48CHL1   C21 3530   0.685   5.009   4.669  0.1269 -0.4997 -0.3810
   48CHL1  H21A 3531   0.750   5.047   4.587  1.5112 -1.3483  0.2869
   48CHL1  H21B 3532   0.639   4.912   4.642 -0.5338  0.0633 -1.3357
   48CHL1  H21C 3533   0.750   4.992   4.758  1.7909  2.4155 -0.8897
   48CHL1   C22 3534   0.527   5.097   4.842  0.3699 -0.3886  0.5347
   48CHL1  H22A 3535   0.617   5.093   4.907  1.7699  1.2625 -1.2113
   48CHL1  H22B 3536   0.460   5.181   4.870 -0.0594 -0.5552  0.0309
   48CHL1   C23 3537   0.431   4.973   4.862 -0.0951  0.2620 -0.4040
   48CHL1  H23A 3538   0.365   4.975   4.773 -0.2344  1.9877 -0.2961
   48CHL1  H23B 3539   0.494   4.882   4.863  0.0521  0.3639 -0.1300
   48CHL1   C24 3540   0.344   4.986   4.996  0.1820 -0.4450  0.1511
   48CHL1  H24A 3541   0.407   4.973   5.086  1.9173 -2.2462 -1.2388
   48CHL1  H24B 3542   0.290   5.084   4.997  2.7063  1.1910 -3.3153
   48CHL1   C25 3543   0.224   4.879   5.012  0.2084 -0.2559 -1.0162
   48CHL1   H25 3544   0.156   4.895   4.926 -1.3322  0.5095  0.2845
   48CHL1   C26 3545   0.272   4.734   4.993 -0.2440 -0.1318 -0.1560
   48CHL1  H26A 3546   0.177   4.677   4.992 -0.5874  0.1588  3.4572
   48CHL1  H26B 3547   0.334   4.722   4.901 -0.8516 -1.5278 -0.4042
   48CHL1  H26C 3548   0.315   4.705   5.092 -1.0671  1.2368  0.6331
   48CHL1   C27 3549   0.150   4.897   5.148  0.4745  0.1899  0.0974
   48CHL1  H27A 3550   0.130   5.005   5.168  4.6187  1.0005  0.8199
   48CHL1  H27B 3551   0.061   4.831   5.152  0.8928 -0.4993 -1.6023
   48CHL1  H27C 3552   0.224   4.870   5.226 -0.3233 -3.5784 -0.2687
   49CHL1    C3 3553   1.474   1.144   3.987 -0.2911 -0.6219  0.4045
   49CHL1    H3 3554   1.424   1.243   3.982  0.6972 -0.1271 -0.0112
   49CHL1    O3 3555   1.529   1.140   3.859 -0.4834  0.2253 -0.3758
   49CHL1   H3' 3556   1.568   1.052   3.856  0.5754  0.6189  0.9463
   49CHL1    C4 3557   1.583   1.145   4.091  0.1012 -0.8568  0.5457
   49CHL1   H4A 3558   1.645   1.054   4.074 -1.8959 -2.2147  0.2243
   49CHL1   H4B 3559   1.643   1.235   4.067 -1.6911  0.5980  1.2794
   49CHL1    C5 3560   1.523   1.147   4.232 -0.4719 -0.4496  0.3751
   49CHL1    C6 3561   1.562   1.238   4.316  0.4998 -0.4048 -0.5321
   49CHL1    H6 3562   1.643   1.309   4.295  2.3515 -1.4809  2.3791
   49CHL1    C7 3563   1.524   1.230   4.465  0.5351  0.0915  0.0609
   49CHL1   H7A 3564   1.620   1.263   4.511  1.2018 -0.2679 -1.0171
   49CHL1   H7B 3565   1.443   1.303   4.487 -1.0778 -1.2282 -1.1929
   49CHL1    C8 3566   1.477   1.092   4.510  0.6802  0.4406  0.7583
   49CHL1    H8 3567   1.566   1.025   4.507 -0.6562 -1.3765 -0.0197
   49CHL1   C14 3568   1.409   1.109   4.645  0.1855 -0.2887 -0.4244
   49CHL1   H14 3569   1.340   1.196   4.638 -1.0814 -1.2475 -0.3568
   49CHL1   C15 3570   1.492   1.148   4.767  0.2897  0.3655 -0.0095
   49CHL1  H15A 3571   1.599   1.122   4.759  0.4410  1.1943 -0.8757
   49CHL1  H15B 3572   1.481   1.258   4.759  0.3289  0.3055 -1.0490
   49CHL1   C16 3573   1.428   1.083   4.896 -0.3866 -0.5776  0.4596
   49CHL1  H16A 3574   1.491   1.001   4.937 -0.7473 -0.2344  1.7433
   49CHL1  H16B 3575   1.391   1.157   4.971  0.0558 -0.8415  0.9461
   49CHL1   C17 3576   1.301   1.019   4.833 -0.1061  0.1123 -0.8501
   49CHL1   H17 3577   1.230   1.105   4.830  0.1546  0.3173 -1.4452
   49CHL1   C13 3578   1.342   0.984   4.687  0.6400  0.1087 -0.3025
   49CHL1   C18 3579   1.444   0.869   4.687 -0.1851  0.5209 -0.9921
   49CHL1  H18A 3580   1.535   0.882   4.749  0.3734 -0.3715 -1.5983
   49CHL1  H18B 3581   1.387   0.791   4.742 -1.6545  2.4579  0.3378
   49CHL1  H18C 3582   1.469   0.842   4.582  0.4483 -0.3982 -0.6195
   49CHL1   C12 3583   1.227   0.945   4.594 -0.5364 -0.2010 -0.6384
   49CHL1  H12A 3584   1.167   0.859   4.631 -0.6616  0.7624  1.5394
   49CHL1  H12B 3585   1.149   1.023   4.600 -1.0841 -0.6674 -1.5737
   49CHL1   C11 3586   1.272   0.927   4.454 -0.2627 -0.0225  1.0845
   49CHL1  H11A 3587   1.324   0.829   4.448 -1.7941 -0.7876 -1.0075
   49CHL1  H11B 3588   1.181   0.912   4.392 -0.8510 -0.7363  2.0850
   49CHL1    C9 3589   1.371   1.044   4.410  0.4673 -0.0337 -0.8055
   49CHL1    H9 3590   1.299   1.128   4.404  0.2782 -0.2289 -1.3971
   49CHL1   C10 3591   1.433   1.026   4.267  0.5748  0.4192  0.0992
   49CHL1   C19 3592   1.491   0.889   4.250  0.2570  0.3044  0.2268
   49CHL1  H19A 3593   1.548   0.865   4.343 -3.3810 -1.5841  2.2001
   49CHL1  H19B 3594   1.408   0.815   4.248  1.3266 -0.9752 -3.4076
   49CHL1  H19C 3595   1.547   0.876   4.156 -0.9608 -1.2255 -0.3361
   49CHL1    C1 3596   1.319   1.036   4.160  0.8706  0.0777 -0.4334
   49CHL1   H1A 3597   1.251   0.950   4.181  0.7014 -0.0149 -1.3436
   49CHL1   H1B 3598   1.264   1.124   4.199  1.7705 -0.5096  2.3823
   49CHL1    C2 3599   1.367   1.036   4.016 -0.0132 -0.4107 -0.1210
   49CHL1   H2A 3600   1.281   1.039   3.945  0.7130 -1.0704 -1.0622
   49CHL1   H2B 3601   1.411   0.939   3.983  1.0035  0.3318 -1.0321
   49CHL1   C20 3602   1.237   0.913   4.926  0.2560 -0.0192  0.3101
   49CHL1   H20 3603   1.282   0.817   4.891  1.7531  1.9705 -3.8455
   49CHL1   C21 3604   1.087   0.907   4.898  0.6922  0.1175  0.3859
   49CHL1  H21A 3605   1.067   0.899   4.789 -0.3033  1.9343  0.3919
   49CHL1  H21B 3606   1.041   1.004   4.926 -0.7787  0.3226 -2.3949
   49CHL1  H21C 3607   1.040   0.825   4.956 -0.0526  0.0250 -0.3382
   49CHL1   C22 3608   1.270   0.937   5.078  0.7231  0.2207  0.0485
   49CHL1  H22A 3609   1.379   0.930   5.099  0.5671 -0.7394  0.5981
   49CHL1  H22B 3610   1.226   1.030   5.121 -1.1665  0.0025 -1.2772
   49CHL1   C23 3611   1.206   0.824   5.163  0.0594  0.1197 -0.3281
   49CHL1  H23A 3612   1.097   0.821   5.141  0.0272  1.6731 -0.4501
   49CHL1  H23B 3613   1.252   0.734   5.116  1.8869  1.5487 -1.4029
   49CHL1   C24 3614   1.257   0.830   5.307 -0.3336 -0.0308 -0.5572
   49CHL1  H24A 3615   1.368   0.824   5.304 -0.2860  0.4648 -4.0399
   49CHL1  H24B 3616   1.224   0.932   5.336 -1.8911 -1.4079  3.1241
   49CHL1   C25 3617   1.200   0.726   5.407 -0.4071 -0.6108 -0.5339
   49CHL1   H25 3618   1.097   0.760   5.428 -0.3631 -0.9560  0.2553
   49CHL1   C26 3619   1.192   0.586   5.339  0.0925 -0.0502 -0.6025
   49CHL1  H26A 3620   1.146   0.514   5.410 -1.3117  2.6120  1.3968
   49CHL1  H26B 3621   1.124   0.585   5.250  0.0949 -3.2560 -0.6731
   49CHL1  H26C 3622   1.295   0.558   5.310  0.2176 -0.3145  0.0857
   49CHL1   C27 3623   1.287   0.724   5.544  0.5152 -0.6309  0.1039
   49CHL1  H27A 3624   1.376   0.661   5.524  0.3513 -0.0036 -3.1557
   49CHL1  H27B 3625   1.313   0.829   5.567 -0.3470  0.2345 -2.4894
   49CHL1  H27C 3626   1.221   0.673   5.617  0.0211 -0.0658  0.0532
   50CHL1    C3 3627   0.442   1.589   3.904  0.1523  1.0904 -0.0163
   50CHL1    H3 3628   0.341   1.544   3.892  0.7592 -0.4812  0.5124
   50CHL1    O3 3629   0.495   1.637   3.780  0.4392  0.6356  0.0344
   50CHL1   H3' 3630   0.580   1.678   3.801  0.4244 -0.6423  3.1404
   50CHL1    C4 3631   0.435   1.702   4.009 -0.3772  0.6233  0.3435
   50CHL1   H4A 3632   0.530   1.759   4.004 -0.8088  1.4137  0.9225
   50CHL1   H4B 3633   0.361   1.772   3.966  1.6666  2.7842  0.1365
   50CHL1    C5 3634   0.410   1.658   4.152  0.3278 -0.0476  0.5834
   50CHL1    C6 3635   0.304   1.706   4.217 -0.0358  0.3152 -0.0043
   50CHL1    H6 3636   0.247   1.782   4.161  2.7199  1.1118 -1.9631
   50CHL1    C7 3637   0.271   1.671   4.358 -0.8847  0.2980 -0.0459
   50CHL1   H7A 3638   0.253   1.764   4.417  1.2789 -0.0893  1.3580
   50CHL1   H7B 3639   0.177   1.614   4.372 -0.3938  0.0457  2.8701
   50CHL1    C8 3640   0.392   1.595   4.430  1.0161 -0.2004 -0.5121
   50CHL1    H8 3641   0.458   1.679   4.459  0.1903  0.3815 -0.2778
   50CHL1   C14 3642   0.345   1.519   4.549 -0.2885  0.1683 -0.2585
   50CHL1   H14 3643   0.269   1.445   4.518 -1.0295  0.1874  1.4291
   50CHL1   C15 3644   0.267   1.593   4.657 -0.4637 -0.2113  0.6612
   50CHL1  H15A 3645   0.324   1.685   4.678 -2.6094  1.1045  1.0580
   50CHL1  H15B 3646   0.167   1.624   4.618  0.1228  0.2540 -0.5141
   50CHL1   C16 3647   0.246   1.504   4.776  0.5397 -0.1899  1.0225
   50CHL1  H16A 3648   0.258   1.552   4.875 -1.7568 -0.7686  1.6189
   50CHL1  H16B 3649   0.143   1.463   4.771 -0.1692  1.4260  1.7844
   50CHL1   C17 3650   0.358   1.394   4.757  0.2429  0.4541 -0.1010
   50CHL1   H17 3651   0.311   1.303   4.713 -1.8225  1.7326 -0.7174
   50CHL1   C13 3652   0.448   1.437   4.630 -0.4389  0.5171  0.5399
   50CHL1   C18 3653   0.561   1.539   4.681  1.1764  1.3681  0.0943
   50CHL1  H18A 3654   0.591   1.607   4.598  0.2642  0.0710 -1.3442
   50CHL1  H18B 3655   0.514   1.604   4.758 -2.2803 -0.2379 -0.4675
   50CHL1  H18C 3656   0.650   1.483   4.716  1.2357  1.6443  0.3968
   50CHL1   C12 3657   0.504   1.329   4.539 -0.1952  0.2046 -0.1578
   50CHL1  H12A 3658   0.577   1.258   4.584 -1.1843 -0.3267  0.6362
   50CHL1  H12B 3659   0.420   1.261   4.513  0.3057 -1.0942  1.4248
   50CHL1   C11 3660   0.554   1.395   4.410 -0.3926  0.5805 -0.5475
   50CHL1  H11A 3661   0.649   1.447   4.436 -1.2604  2.0055 -0.1216
   50CHL1  H11B 3662   0.586   1.313   4.342  1.6177  1.0469 -0.2483
   50CHL1    C9 3663   0.458   1.487   4.336  0.6573 -0.7561 -0.2765
   50CHL1    H9 3664   0.376   1.420   4.304  0.5003 -0.3542 -0.7238
   50CHL1   C10 3665   0.504   1.549   4.205  0.3190 -0.1676 -0.0824
   50CHL1   C19 3666   0.643   1.608   4.220  0.6879 -0.3622  0.0676
   50CHL1  H19A 3667   0.679   1.633   4.118  0.7219  0.2593  0.2229
   50CHL1  H19B 3668   0.646   1.696   4.288  1.2274  0.0991 -0.5348
   50CHL1  H19C 3669   0.714   1.531   4.258  0.5831 -0.1396  0.7319
   50CHL1    C1 3670   0.503   1.440   4.100 -0.3450  0.2790 -0.0275
   50CHL1   H1A 3671   0.577   1.360   4.122  0.0352  0.6989  0.2622
   50CHL1   H1B 3672   0.400   1.399   4.093 -1.2584  2.4857 -0.5251
   50CHL1    C2 3673   0.533   1.476   3.953  0.1963 -0.0305  0.5268
   50CHL1   H2A 3674   0.530   1.394   3.877 -0.4987  0.8397 -0.4196
   50CHL1   H2B 3675   0.637   1.515   3.950 -0.0019  0.4713 -0.2399
   50CHL1   C20 3676   0.427   1.368   4.897 -0.8546 -0.5168  0.4467
   50CHL1   H20 3677   0.477   1.462   4.927 -2.0779  0.9904 -1.9578
   50CHL1   C21 3678   0.515   1.239   4.880  0.4788 -0.4508  0.8187
   50CHL1  H21A 3679   0.593   1.259   4.803 -1.6942  2.6773 -0.7597
   50CHL1  H21B 3680   0.456   1.154   4.840 -2.4083  1.0411  1.6635
   50CHL1  H21C 3681   0.562   1.215   4.978  0.8783  3.3135  1.7095
   50CHL1   C22 3682   0.325   1.330   5.007 -0.1610  0.3113  0.1257
   50CHL1  H22A 3683   0.229   1.386   5.014 -0.6927 -0.4922 -0.6028
   50CHL1  H22B 3684   0.276   1.233   4.985 -2.2882  1.5021 -0.6861
   50CHL1   C23 3685   0.387   1.343   5.147 -0.0587 -0.0576 -0.3174
   50CHL1  H23A 3686   0.491   1.305   5.148  0.5316  1.4918  0.7195
   50CHL1  H23B 3687   0.404   1.450   5.171  1.8139  0.0194 -1.7746
   50CHL1   C24 3688   0.305   1.270   5.250 -0.1224  0.7901  0.4722
   50CHL1  H24A 3689   0.198   1.296   5.232 -0.5760 -0.9035  0.6213
   50CHL1  H24B 3690   0.336   1.165   5.235  1.8778  1.3185  0.6159
   50CHL1   C25 3691   0.336   1.304   5.396  0.3502  0.6160 -0.3734
   50CHL1   H25 3692   0.339   1.415   5.396  2.0074  0.5896 -0.8544
   50CHL1   C26 3693   0.238   1.240   5.489  0.2943  1.4148 -0.8062
   50CHL1  H26A 3694   0.242   1.130   5.478  1.6693  1.2972  0.5610
   50CHL1  H26B 3695   0.264   1.259   5.595  1.0112 -1.2770 -0.4229
   50CHL1  H26C 3696   0.138   1.279   5.460 -0.4030  0.2566 -0.0417
   50CHL1   C27 3697   0.482   1.264   5.429  0.9014 -0.9873  0.4433
   50CHL1  H27A 3698   0.548   1.283   5.342 -2.0513 -2.2147 -2.2601
   50CHL1  H27B 3699   0.517   1.314   5.522 -1.4012  2.0759 -0.2056
   50CHL1  H27C 3700   0.497   1.155   5.447 -1.4505 -1.2110  1.3988
   51CHL1    C3 3701   1.720   0.638   4.089  0.1710  0.2008  0.2066
   51CHL1    H3 3702   1.624   0.691   4.108 -1.5346 -1.4258 -2.9815
   51CHL1    O3 3703   1.706   0.588   3.957  0.0421 -0.6794 -0.2308
   51CHL1   H3' 3704   1.796   0.592   3.925  0.7690 -1.2373  1.6361
   51CHL1    C4 3705   1.846   0.727   4.101  0.1654  1.0421  0.0694
   51CHL1   H4A 3706   1.934   0.666   4.071 -1.6765 -2.3992  1.1040
   51CHL1   H4B 3707   1.843   0.804   4.021 -0.4588  1.2526  0.2946
   51CHL1    C5 3708   1.855   0.779   4.243  0.2177  0.3214  0.3054
   51CHL1    C6 3709   1.857   0.909   4.277  0.3022 -0.4941  0.6448
   51CHL1    H6 3710   1.873   0.987   4.201  2.7350 -1.1124  0.4224
   51CHL1    C7 3711   1.871   0.963   4.413  0.2320 -0.3133 -1.0818
   51CHL1   H7A 3712   1.944   1.047   4.413  1.2965 -1.2060 -0.4973
   51CHL1   H7B 3713   1.774   1.004   4.447  2.0061  1.1175  2.7955
   51CHL1    C8 3714   1.902   0.857   4.516 -0.1827  1.0766 -0.5560
   51CHL1    H8 3715   2.007   0.822   4.512 -1.5490 -3.9643  0.3495
   51CHL1   C14 3716   1.870   0.905   4.660 -0.0358  0.0402 -0.1144
   51CHL1   H14 3717   1.759   0.916   4.651 -0.1380 -0.6043  0.3154
   51CHL1   C15 3718   1.936   1.041   4.719  0.2144  0.0398 -0.6308
   51CHL1  H15A 3719   2.040   1.038   4.682  0.9355 -2.7691  1.3698
   51CHL1  H15B 3720   1.871   1.119   4.673 -0.5658 -0.5776 -0.5942
   51CHL1   C16 3721   1.916   1.034   4.867  0.9557 -0.7249 -0.5466
   51CHL1  H16A 3722   2.015   1.039   4.916  1.0134  1.4363 -0.7601
   51CHL1  H16B 3723   1.855   1.115   4.911 -0.3142 -0.7306 -2.2059
   51CHL1   C17 3724   1.848   0.896   4.900  0.3256  1.0650  0.6506
   51CHL1   H17 3725   1.741   0.916   4.879  0.3826 -0.9672 -2.2811
   51CHL1   C13 3726   1.890   0.809   4.773 -0.1227  0.8609 -0.3281
   51CHL1   C18 3727   2.041   0.775   4.780 -0.4933 -0.5344 -0.2129
   51CHL1  H18A 3728   2.064   0.702   4.860  0.1575  0.3105  0.3858
   51CHL1  H18B 3729   2.083   0.743   4.682  0.8579 -0.9782  0.4871
   51CHL1  H18C 3730   2.088   0.873   4.802 -0.2627 -1.0157  1.6072
   51CHL1   C12 3731   1.811   0.678   4.743 -0.5584 -0.7178 -0.1634
   51CHL1  H12A 3732   1.832   0.602   4.821  0.5729  0.1257  0.3944
   51CHL1  H12B 3733   1.704   0.706   4.742 -0.2667  0.5629  0.9601
   51CHL1   C11 3734   1.853   0.621   4.613 -0.0793  0.1489  0.3278
   51CHL1  H11A 3735   1.952   0.571   4.616  0.2205  0.7272  0.2841
   51CHL1  H11B 3736   1.793   0.531   4.586  3.2933 -2.6952  1.4384
   51CHL1    C9 3737   1.829   0.726   4.493  0.5400  0.0265  0.7177
   51CHL1    H9 3738   1.720   0.746   4.498  0.6087  0.3407  0.9555
   51CHL1   C10 3739   1.852   0.669   4.348 -0.0731  0.1861 -0.1595
   51CHL1   C19 3740   1.973   0.579   4.347  0.2033  0.4244  1.3231
   51CHL1  H19A 3741   1.959   0.489   4.410 -0.4746  0.3002  1.0053
   51CHL1  H19B 3742   1.994   0.547   4.243 -1.2473 -2.6574  1.8658
   51CHL1  H19C 3743   2.056   0.637   4.392  1.6097 -1.2672  0.9996
   51CHL1    C1 3744   1.724   0.568   4.322  0.1758  0.1697  0.5667
   51CHL1   H1A 3745   1.725   0.475   4.382 -1.8815 -0.9033 -0.9306
   51CHL1   H1B 3746   1.634   0.629   4.343  0.5966  1.1813 -0.3961
   51CHL1    C2 3747   1.713   0.523   4.176 -0.1762  1.2056 -1.2511
   51CHL1   H2A 3748   1.613   0.474   4.167  0.3646  0.0592 -1.2637
   51CHL1   H2B 3749   1.792   0.447   4.162 -1.5131 -0.7860  1.0589
   51CHL1   C20 3750   1.863   0.845   5.040 -0.2964  0.1723 -0.0240
   51CHL1   H20 3751   1.966   0.803   5.036  0.0310  1.0294 -1.8890
   51CHL1   C21 3752   1.755   0.740   5.069  0.1186  0.9637 -0.6928
   51CHL1  H21A 3753   1.751   0.698   5.171 -0.6156  1.4581 -0.5050
   51CHL1  H21B 3754   1.762   0.652   5.001  0.3977  0.0673  0.4664
   51CHL1  H21C 3755   1.655   0.786   5.052 -0.4148  0.2690  0.4887
   51CHL1   C22 3756   1.847   0.955   5.143 -0.0173 -0.0100  0.2468
   51CHL1  H22A 3757   1.905   1.043   5.106  0.3854  0.1661  1.2615
   51CHL1  H22B 3758   1.742   0.989   5.133 -0.4869 -1.8592 -1.8099
   51CHL1   C23 3759   1.898   0.937   5.288 -0.0858  0.4612 -0.0325
   51CHL1  H23A 3760   1.837   0.857   5.337 -0.6694 -0.7055 -2.4936
   51CHL1  H23B 3761   2.004   0.905   5.278 -0.9108 -1.8614 -3.1933
   51CHL1   C24 3762   1.885   1.073   5.369  0.1134 -0.4412  0.3446
   51CHL1  H24A 3763   1.904   1.152   5.293 -0.8258 -0.1834  0.3595
   51CHL1  H24B 3764   1.778   1.090   5.395 -0.6420  0.9208 -3.0281
   51CHL1   C25 3765   1.968   1.084   5.493 -0.5949  1.1210 -0.3549
   51CHL1   H25 3766   2.072   1.060   5.463 -0.2188  0.7161  1.2282
   51CHL1   C26 3767   1.954   1.222   5.557  0.1890  0.0153 -0.3418
   51CHL1  H26A 3768   2.029   1.231   5.639 -1.0124 -0.2568  0.8246
   51CHL1  H26B 3769   1.961   1.304   5.482 -0.7687 -0.0416 -0.5008
   51CHL1  H26C 3770   1.850   1.223   5.597 -1.0297  1.1108 -3.2824
   51CHL1   C27 3771   1.915   0.984   5.592  0.3703 -0.2710 -0.7066
   51CHL1  H27A 3772   1.805   0.987   5.603  0.4482 -0.0256  0.0339
   51CHL1  H27B 3773   1.943   0.876   5.583 -0.1058 -0.5530  0.9162
   51CHL1  H27C 3774   1.952   1.020   5.690 -1.6079  1.5045 -0.5622
   52CHL1    C3 3775   6.752   2.870   4.001 -0.1128  0.9876  0.6350
   52CHL1    H3 3776   6.706   2.768   4.005  0.6919  0.5569 -0.5476
   52CHL1    O3 3777   6.763   2.917   3.867  0.1257  0.1459  0.1986
   52CHL1   H3' 3778   6.797   3.006   3.874  4.6371 -1.1175 -1.4955
   52CHL1    C4 3779   6.665   2.966   4.082 -0.2014  0.1571  0.4768
   52CHL1   H4A 3780   6.719   3.063   4.073  0.7439 -0.5904 -4.0837
   52CHL1   H4B 3781   6.569   2.979   4.029  1.3139  0.1012 -2.4515
   52CHL1    C5 3782   6.663   2.951   4.233  0.0009  0.0007 -0.1713
   52CHL1    C6 3783   6.550   2.949   4.303  0.0099 -0.5302 -0.2666
   52CHL1    H6 3784   6.458   2.952   4.243  0.7591 -1.1454 -1.4824
   52CHL1    C7 3785   6.538   2.938   4.452  0.9013 -0.7436 -0.2280
   52CHL1   H7A 3786   6.473   3.018   4.494 -0.0880 -2.0752  0.8774
   52CHL1   H7B 3787   6.476   2.850   4.479  0.3815 -0.0418  0.9207
   52CHL1    C8 3788   6.670   2.950   4.520  0.3309  0.1597 -0.5183
   52CHL1    H8 3789   6.690   3.059   4.529 -1.4320  0.5297 -0.8147
   52CHL1   C14 3790   6.666   2.899   4.658 -0.1219  0.2850 -0.2866
   52CHL1   H14 3791   6.628   2.794   4.658 -1.3757  0.6874  1.5609
   52CHL1   C15 3792   6.568   2.968   4.755 -0.8739  0.3426 -0.2457
   52CHL1  H15A 3793   6.564   3.079   4.755 -0.7957  0.3956  2.0460
   52CHL1  H15B 3794   6.463   2.945   4.729 -0.9099  1.3669 -1.0747
   52CHL1   C16 3795   6.599   2.924   4.893 -0.4592  0.3428 -0.4626
   52CHL1  H16A 3796   6.605   3.010   4.963  1.3997  0.5655 -0.8434
   52CHL1  H16B 3797   6.522   2.846   4.913  0.5152 -0.2141  1.3459
   52CHL1   C17 3798   6.745   2.864   4.883 -0.9013 -0.0228  0.7632
   52CHL1   H17 3799   6.739   2.756   4.863  4.3695 -0.2596 -1.0748
   52CHL1   C13 3800   6.797   2.909   4.737  0.1946 -0.4319 -0.3277
   52CHL1   C18 3801   6.851   3.058   4.741 -0.3661 -0.1873 -0.5765
   52CHL1  H18A 3802   6.959   3.061   4.763 -0.4398  0.1047 -0.2263
   52CHL1  H18B 3803   6.852   3.104   4.640 -1.7182 -0.8278 -0.9114
   52CHL1  H18C 3804   6.801   3.132   4.808  0.9299  0.9483 -0.8211
   52CHL1   C12 3805   6.896   2.813   4.668 -0.1218 -0.0151 -0.1934
   52CHL1  H12A 3806   7.000   2.812   4.707 -0.5675  1.8763  1.2157
   52CHL1  H12B 3807   6.845   2.714   4.672 -1.3316  0.6225  0.7938
   52CHL1   C11 3808   6.915   2.859   4.524  0.1985 -0.1454 -0.0580
   52CHL1  H11A 3809   6.966   2.958   4.526 -1.3522  0.6729  0.6879
   52CHL1  H11B 3810   6.984   2.784   4.481  0.2231 -0.9191  1.2815
   52CHL1    C9 3811   6.786   2.874   4.443 -0.5953 -0.1406 -0.0848
   52CHL1    H9 3812   6.757   2.768   4.427 -1.9656  0.6108 -3.5702
   52CHL1   C10 3813   6.800   2.934   4.303  0.0665  0.3591  0.4451
   52CHL1   C19 3814   6.860   3.070   4.313  0.5639  0.5349 -0.6889
   52CHL1  H19A 3815   6.792   3.148   4.352  0.1798  0.3109 -0.9015
   52CHL1  H19B 3816   6.951   3.072   4.377 -1.1636  1.5097  1.8789
   52CHL1  H19C 3817   6.897   3.110   4.216  2.6171 -0.1586 -0.2528
   52CHL1    C1 3818   6.889   2.838   4.220 -0.0759  0.5191  0.1649
   52CHL1   H1A 3819   6.993   2.849   4.259  0.5419  0.5009 -1.4095
   52CHL1   H1B 3820   6.852   2.734   4.234 -2.4286  1.5529  2.5861
   52CHL1    C2 3821   6.892   2.852   4.067 -0.0094 -0.0210  0.3163
   52CHL1   H2A 3822   6.945   2.763   4.024  0.8319  0.4992  0.2579
   52CHL1   H2B 3823   6.971   2.929   4.055  2.5749 -2.2969  1.7139
   52CHL1   C20 3824   6.823   2.872   5.010  0.2218 -0.3082 -0.6532
   52CHL1   H20 3825   6.847   2.976   5.039  1.5385 -0.5065 -0.9418
   52CHL1   C21 3826   6.958   2.805   4.981  0.6407  0.0726 -0.2762
   52CHL1  H21A 3827   7.026   2.869   4.923  2.7088  0.1001  1.9981
   52CHL1  H21B 3828   6.943   2.709   4.927 -0.8049 -0.4935  1.0365
   52CHL1  H21C 3829   7.008   2.782   5.078  0.3094  0.7753  0.0701
   52CHL1   C22 3830   6.746   2.818   5.132  0.1539  0.0423  0.4170
   52CHL1  H22A 3831   6.676   2.901   5.157  0.3225  0.7567 -1.3757
   52CHL1  H22B 3832   6.696   2.728   5.089  2.2105 -1.2321  0.5591
   52CHL1   C23 3833   6.830   2.799   5.263  0.6142 -0.0263  0.2825
   52CHL1  H23A 3834   6.892   2.707   5.258  2.0112  0.9581 -1.6596
   52CHL1  H23B 3835   6.902   2.883   5.264 -1.0538  1.5161 -1.7853
   52CHL1   C24 3836   6.735   2.779   5.387 -0.4918  0.1999  0.2624
   52CHL1  H24A 3837   6.659   2.859   5.400  0.0645  0.8366 -0.3207
   52CHL1  H24B 3838   6.685   2.680   5.376 -0.6262  0.3068 -0.1199
   52CHL1   C25 3839   6.821   2.776   5.518  0.5281  0.6604 -0.0226
   52CHL1   H25 3840   6.879   2.682   5.506  0.5222  0.6154  0.2999
   52CHL1   C26 3841   6.923   2.886   5.540 -0.2654 -0.0462  1.4497
   52CHL1  H26A 3842   6.866   2.981   5.538 -0.3859 -0.1202  0.3117
   52CHL1  H26B 3843   6.985   2.874   5.631  1.6974 -0.7236  0.1021
   52CHL1  H26C 3844   6.996   2.881   5.456  1.4565  0.3910  2.8903
   52CHL1   C27 3845   6.726   2.764   5.642  0.5121  0.1170  0.9776
   52CHL1  H27A 3846   6.651   2.683   5.627  1.4036 -0.4971 -0.4291
   52CHL1  H27B 3847   6.785   2.755   5.735 -1.1137  0.0890  2.0443
   52CHL1  H27C 3848   6.662   2.854   5.649  1.6214  0.9457  0.7347
   53CHL1    C3 3849   3.208   1.492   3.959  0.5178 -0.3332  0.1788
   53CHL1    H3 3850   3.296   1.425   3.945  0.7391 -0.1286  0.6000
   53CHL1    O3 3851   3.129   1.506   3.840 -0.6357  0.4711  0.0116
   53CHL1   H3' 3852   3.193   1.545   3.780  0.4246  1.5093  1.7258
   53CHL1    C4 3853   3.114   1.428   4.068  0.6463  0.2779  0.8097
   53CHL1   H4A 3854   3.028   1.498   4.062  1.2998  1.0218 -0.4009
   53CHL1   H4B 3855   3.096   1.325   4.030 -1.7310  1.3246 -1.1447
   53CHL1    C5 3856   3.175   1.440   4.208 -0.2467 -0.4628 -0.4735
   53CHL1    C6 3857   3.181   1.327   4.277  0.5600  0.1240 -0.5183
   53CHL1    H6 3858   3.138   1.234   4.235 -1.4049 -0.2789  2.1277
   53CHL1    C7 3859   3.231   1.314   4.421  0.2435 -1.2769 -0.4779
   53CHL1   H7A 3860   3.173   1.243   4.484 -0.3606 -1.4200 -1.1771
   53CHL1   H7B 3861   3.336   1.280   4.417  0.6599 -0.1803  0.5372
   53CHL1    C8 3862   3.247   1.455   4.486 -0.2823 -0.4900  0.1618
   53CHL1    H8 3863   3.144   1.490   4.507  0.2238  2.0290 -1.1471
   53CHL1   C14 3864   3.321   1.450   4.619  0.8248  0.2452  0.3284
   53CHL1   H14 3865   3.427   1.424   4.598  0.6381 -0.5421  0.3626
   53CHL1   C15 3866   3.284   1.345   4.718  0.1055  0.7011 -0.1910
   53CHL1  H15A 3867   3.176   1.318   4.721  0.4458 -0.6333  0.9199
   53CHL1  H15B 3868   3.339   1.250   4.696  1.5605  1.1672  1.2251
   53CHL1   C16 3869   3.340   1.403   4.847 -0.0738 -0.5564 -0.0502
   53CHL1  H16A 3870   3.255   1.400   4.918  0.9007 -0.4596  1.1805
   53CHL1  H16B 3871   3.417   1.337   4.893 -0.7069 -1.3901 -0.1803
   53CHL1   C17 3872   3.394   1.546   4.822 -0.1240 -0.2594 -0.2809
   53CHL1   H17 3873   3.501   1.530   4.797  0.3359 -0.3964  1.6089
   53CHL1   C13 3874   3.324   1.587   4.703 -0.2493 -0.0286  0.6763
   53CHL1   C18 3875   3.175   1.620   4.743  0.1785 -0.0081 -0.6970
   53CHL1  H18A 3876   3.128   1.537   4.800 -0.4303  1.2508  0.6951
   53CHL1  H18B 3877   3.162   1.713   4.803  0.0206 -0.9221  0.7504
   53CHL1  H18C 3878   3.108   1.631   4.655 -0.7455 -1.0065 -0.1435
   53CHL1   C12 3879   3.389   1.689   4.606 -0.3501  0.1699  0.1773
   53CHL1  H12A 3880   3.382   1.794   4.639 -2.5443 -0.3209  1.4340
   53CHL1  H12B 3881   3.491   1.649   4.586  0.7108  1.6779  2.2232
   53CHL1   C11 3882   3.310   1.700   4.474 -0.9114  0.0765  0.4379
   53CHL1  H11A 3883   3.216   1.751   4.501 -1.1842 -1.1520  1.9730
   53CHL1  H11B 3884   3.357   1.778   4.410 -1.6356 -1.9074 -2.7572
   53CHL1    C9 3885   3.300   1.570   4.395 -0.2914 -0.6207 -0.4905
   53CHL1    H9 3886   3.407   1.550   4.375 -0.1263  0.6124 -0.9169
   53CHL1   C10 3887   3.227   1.578   4.257  0.1806  0.5477 -0.3198
   53CHL1   C19 3888   3.103   1.667   4.273  0.1635 -0.1114 -0.1086
   53CHL1  H19A 3889   3.032   1.655   4.188  1.2302  0.7660 -1.1660
   53CHL1  H19B 3890   3.046   1.646   4.366  0.4596  2.0956  0.6438
   53CHL1  H19C 3891   3.124   1.776   4.281 -2.6264  0.4495  0.4793
   53CHL1    C1 3892   3.322   1.631   4.149  0.3219  0.5173  0.5114
   53CHL1   H1A 3893   3.337   1.740   4.167 -1.0737  0.5616  1.5937
   53CHL1   H1B 3894   3.419   1.578   4.137 -0.0583  0.3858 -3.1578
   53CHL1    C2 3895   3.259   1.629   4.005  0.4771  0.1213 -0.0578
   53CHL1   H2A 3896   3.337   1.669   3.937  0.6852  1.2760  0.8265
   53CHL1   H2B 3897   3.176   1.703   3.997  1.1755  0.7231 -4.6585
   53CHL1   C20 3898   3.390   1.633   4.948 -0.1241 -0.0168 -0.7329
   53CHL1   H20 3899   3.294   1.649   5.002  1.0689  2.8456  0.7710
   53CHL1   C21 3900   3.452   1.772   4.917  0.1110 -0.4252  0.3381
   53CHL1  H21A 3901   3.475   1.831   5.008 -0.9789 -2.2612  1.8642
   53CHL1  H21B 3902   3.371   1.813   4.853  0.5502 -1.5439 -0.9707
   53CHL1  H21C 3903   3.546   1.778   4.858 -0.9808  3.8555 -1.3922
   53CHL1   C22 3904   3.477   1.571   5.062  0.0440  0.7438 -0.4866
   53CHL1  H22A 3905   3.457   1.462   5.072  1.2691  0.4067 -1.3628
   53CHL1  H22B 3906   3.585   1.576   5.035  0.9123  0.9653  2.6847
   53CHL1   C23 3907   3.444   1.637   5.198 -0.3669 -0.6138 -0.6281
   53CHL1  H23A 3908   3.494   1.736   5.200 -0.4656 -0.4446 -3.4668
   53CHL1  H23B 3909   3.337   1.666   5.205  0.0338  0.4920  2.1903
   53CHL1   C24 3910   3.490   1.558   5.323 -0.1659 -0.2647 -0.9440
   53CHL1  H24A 3911   3.451   1.454   5.327  1.5419 -0.8918  1.2268
   53CHL1  H24B 3912   3.601   1.557   5.332 -0.2009  1.5785  0.4177
   53CHL1   C25 3913   3.449   1.613   5.464 -0.3397 -0.8019  0.8122
   53CHL1   H25 3914   3.342   1.584   5.473 -1.2561  1.9977  0.0832
   53CHL1   C26 3915   3.527   1.543   5.574 -0.1187  0.3128 -0.1661
   53CHL1  H26A 3916   3.540   1.438   5.540 -0.8869  0.5444 -1.2118
   53CHL1  H26B 3917   3.630   1.580   5.596 -0.9066  2.7854 -0.2927
   53CHL1  H26C 3918   3.468   1.536   5.667  0.3303 -1.6730  0.0140
   53CHL1   C27 3919   3.454   1.774   5.466 -0.1213 -0.5794  0.0649
   53CHL1  H27A 3920   3.392   1.823   5.388  1.2184 -1.8718 -1.9171
   53CHL1  H27B 3921   3.416   1.800   5.567 -0.8421  1.2630 -0.6472
   53CHL1  H27C 3922   3.563   1.794   5.461 -0.0981 -0.8766 -0.6601
   54CHL1    C3 3923   2.124   1.573   4.180  0.0307 -0.1269  0.4619
   54CHL1    H3 3924   2.158   1.678   4.192 -2.0830  0.6459  0.2641
   54CHL1    O3 3925   2.172   1.522   4.053 -0.3326  0.1014 -0.7083
   54CHL1   H3' 3926   2.124   1.577   3.990 -1.9716 -0.2378  0.1671
   54CHL1    C4 3927   2.179   1.489   4.289  0.8639  0.4225 -0.1541
   54CHL1   H4A 3928   2.167   1.382   4.262  0.8907  0.5555 -0.7050
   54CHL1   H4B 3929   2.287   1.507   4.267  1.1783 -3.1160 -2.3879
   54CHL1    C5 3930   2.122   1.523   4.424 -0.0231 -0.5329  0.3237
   54CHL1    C6 3931   2.206   1.556   4.523  0.4344  1.1246 -0.2816
   54CHL1    H6 3932   2.315   1.555   4.509  0.2854 -0.5473 -1.5679
   54CHL1    C7 3933   2.154   1.589   4.659  0.3927 -0.4786  0.2712
   54CHL1   H7A 3934   2.211   1.537   4.739  2.0818 -0.0262 -0.5868
   54CHL1   H7B 3935   2.167   1.697   4.680  0.9215 -0.7810  1.6644
   54CHL1    C8 3936   2.006   1.536   4.685 -0.0920 -0.1458 -0.3585
   54CHL1    H8 3937   2.017   1.426   4.697  0.3001 -0.0625  0.0629
   54CHL1   C14 3938   1.951   1.596   4.812  1.0015  0.1730  0.9820
   54CHL1   H14 3939   1.954   1.705   4.789 -0.3264  0.1647  0.6966
   54CHL1   C15 3940   2.034   1.588   4.929 -0.6296  0.3411 -0.5048
   54CHL1  H15A 3941   2.071   1.484   4.937  1.2714  0.8814 -1.6529
   54CHL1  H15B 3942   2.126   1.650   4.933 -0.0969 -0.4986  1.9344
   54CHL1   C16 3943   1.936   1.622   5.045 -0.6846  0.1494  0.2427
   54CHL1  H16A 3944   1.947   1.545   5.124 -0.8268 -0.3654 -0.2314
   54CHL1  H16B 3945   1.957   1.726   5.076 -0.7359  1.4406 -3.4900
   54CHL1   C17 3946   1.798   1.626   4.973  0.0026  0.0630 -0.3293
   54CHL1   H17 3947   1.783   1.731   4.941 -0.2375  0.7868  1.9823
   54CHL1   C13 3948   1.809   1.550   4.844 -0.3275  0.8002 -0.0816
   54CHL1   C18 3949   1.811   1.396   4.873  1.1637 -0.2292 -0.4000
   54CHL1  H18A 3950   1.870   1.372   4.964  0.4903  2.3485  0.8229
   54CHL1  H18B 3951   1.703   1.369   4.882  0.5046  2.0058 -0.9595
   54CHL1  H18C 3952   1.836   1.350   4.775 -0.0231  0.6793 -1.1615
   54CHL1   C12 3953   1.716   1.581   4.723  0.1212 -0.0573 -0.0156
   54CHL1  H12A 3954   1.610   1.554   4.743  0.4371 -0.7974  0.7453
   54CHL1  H12B 3955   1.721   1.689   4.696 -1.8168  0.4395  1.3883
   54CHL1   C11 3956   1.770   1.521   4.591 -1.3885 -0.4694  0.1521
   54CHL1  H11A 3957   1.773   1.411   4.608 -1.4417 -0.4388  0.3620
   54CHL1  H11B 3958   1.708   1.547   4.503  1.1619  0.5633 -1.4654
   54CHL1    C9 3959   1.917   1.568   4.561  0.1711  0.3489  0.5143
   54CHL1    H9 3960   1.911   1.679   4.552 -0.1432  0.3155  0.3096
   54CHL1   C10 3961   1.974   1.518   4.430  0.6212  0.7026 -0.1007
   54CHL1   C19 3962   1.919   1.372   4.407 -0.1964  0.1038 -0.5340
   54CHL1  H19A 3963   1.964   1.319   4.320  0.4862 -0.8791  0.3825
   54CHL1  H19B 3964   1.930   1.306   4.496 -1.5322 -1.9031 -1.7635
   54CHL1  H19C 3965   1.813   1.391   4.382 -0.0515  3.8602  1.0373
   54CHL1    C1 3966   1.919   1.602   4.309 -0.4834  0.6816 -0.3800
   54CHL1   H1A 3967   1.808   1.593   4.309 -0.6379  2.4157  0.1452
   54CHL1   H1B 3968   1.941   1.709   4.324 -1.4988  0.4464  4.3817
   54CHL1    C2 3969   1.973   1.568   4.170  0.3948 -0.2417 -0.0442
   54CHL1   H2A 3970   1.935   1.646   4.101 -4.7354  0.3050  2.8885
   54CHL1   H2B 3971   1.942   1.467   4.137 -0.1192 -0.4902  1.1352
   54CHL1   C20 3972   1.677   1.598   5.065 -0.2322  0.0347  0.6540
   54CHL1   H20 3973   1.595   1.576   4.994  1.8050  2.4202 -2.7071
   54CHL1   C21 3974   1.638   1.745   5.126  0.3739 -0.4867 -0.1714
   54CHL1  H21A 3975   1.718   1.770   5.198 -0.7057 -2.2195  1.7279
   54CHL1  H21B 3976   1.555   1.732   5.198  1.4751 -1.3708  0.9806
   54CHL1  H21C 3977   1.620   1.825   5.050  2.6234 -1.3612 -1.7640
   54CHL1   C22 3978   1.684   1.494   5.181  0.0753 -0.0132  0.0995
   54CHL1  H22A 3979   1.725   1.396   5.146  1.2675  0.7706 -0.7632
   54CHL1  H22B 3980   1.750   1.551   5.250 -0.3623  1.0770 -0.3686
   54CHL1   C23 3981   1.548   1.474   5.245  1.0500  0.3178 -0.4640
   54CHL1  H23A 3982   1.497   1.565   5.284  1.7208  0.5629 -0.1576
   54CHL1  H23B 3983   1.487   1.429   5.164  0.6162 -1.6162  0.8739
   54CHL1   C24 3984   1.561   1.361   5.359  0.2672  0.1608  0.4215
   54CHL1  H24A 3985   1.603   1.268   5.313  3.4960  1.2339  0.9427
   54CHL1  H24B 3986   1.630   1.403   5.435  0.6171 -0.4641  0.4647
   54CHL1   C25 3987   1.433   1.359   5.441 -0.1007 -0.3189 -0.4713
   54CHL1   H25 3988   1.423   1.458   5.491  2.4642  0.4991 -1.4055
   54CHL1   C26 3989   1.310   1.328   5.355  0.0813 -0.2543 -0.5765
   54CHL1  H26A 3990   1.303   1.219   5.332 -0.0219 -1.3274  3.6316
   54CHL1  H26B 3991   1.226   1.355   5.423  2.1864  2.2547  1.2564
   54CHL1  H26C 3992   1.293   1.389   5.264  0.6229  1.0945  0.1961
   54CHL1   C27 3993   1.448   1.251   5.551  0.3888 -1.1592  0.0732
   54CHL1  H27A 3994   1.363   1.245   5.622 -0.2630  1.1509 -0.4150
   54CHL1  H27B 3995   1.469   1.150   5.509  1.1084 -1.2727  0.6802
   54CHL1  H27C 3996   1.533   1.276   5.618 -0.6096 -1.0197  1.3124
   55CHL1    C3 3997   5.580   2.306   3.875 -0.4306 -0.1703  0.3425
   55CHL1    H3 3998   5.470   2.298   3.893 -0.2195 -1.6309  1.1352
   55CHL1    O3 3999   5.600   2.280   3.736  0.1135 -0.3718  0.1677
   55CHL1   H3' 4000   5.693   2.303   3.725 -0.0022  0.5064  0.9121
   55CHL1    C4 4001   5.624   2.460   3.902 -0.7188 -0.1142  0.2657
   55CHL1   H4A 4002   5.729   2.475   3.870  0.2886 -1.7016  2.6016
   55CHL1   H4B 4003   5.555   2.519   3.838  1.5796 -0.3080 -2.5917
   55CHL1    C5 4004   5.623   2.490   4.053  0.1080  0.3962 -0.4829
   55CHL1    C6 4005   5.564   2.599   4.097 -0.3050  0.5047  0.3023
   55CHL1    H6 4006   5.526   2.670   4.022  1.9868 -0.0416 -1.4945
   55CHL1    C7 4007   5.572   2.634   4.241 -0.0366 -0.4413 -0.6198
   55CHL1   H7A 4008   5.597   2.742   4.247 -0.5731 -0.3363 -0.2384
   55CHL1   H7B 4009   5.469   2.620   4.281  0.0165 -0.9514 -0.6507
   55CHL1    C8 4010   5.677   2.561   4.329  0.3470 -0.2182 -0.0242
   55CHL1    H8 4011   5.772   2.608   4.298 -0.5996  3.0702  1.6043
   55CHL1   C14 4012   5.650   2.583   4.477 -0.1914 -0.3418  0.0529
   55CHL1   H14 4013   5.545   2.552   4.493 -0.5283  0.0140 -1.3115
   55CHL1   C15 4014   5.641   2.730   4.535  0.3373 -0.0097  0.3714
   55CHL1  H15A 4015   5.717   2.799   4.494 -3.7667  3.6577 -1.9000
   55CHL1  H15B 4016   5.542   2.774   4.509  1.2501  1.5993 -0.5228
   55CHL1   C16 4017   5.675   2.721   4.686 -0.4261  0.0485  0.1527
   55CHL1  H16A 4018   5.773   2.771   4.697 -0.1344 -0.5762  0.4742
   55CHL1  H16B 4019   5.598   2.774   4.746  0.1343 -0.1457  1.0579
   55CHL1   C17 4020   5.704   2.573   4.713 -0.0521  0.4517  0.2413
   55CHL1   H17 4021   5.604   2.531   4.739 -0.5685  0.8859 -0.9687
   55CHL1   C13 4022   5.750   2.512   4.572 -0.2321 -0.4842 -0.4562
   55CHL1   C18 4023   5.896   2.558   4.534  0.3336  0.8053  0.0657
   55CHL1  H18A 4024   5.915   2.663   4.566  1.1601  0.3235  1.2182
   55CHL1  H18B 4025   5.953   2.484   4.594 -0.5163  0.7067  0.7714
   55CHL1  H18C 4026   5.907   2.544   4.424  1.3316  1.2188  0.0989
   55CHL1   C12 4027   5.737   2.363   4.545 -0.0170 -0.2363  0.2015
   55CHL1  H12A 4028   5.810   2.306   4.606  0.1568 -0.1498  0.0736
   55CHL1  H12B 4029   5.632   2.339   4.575 -0.2364  0.1844 -0.2195
   55CHL1   C11 4030   5.762   2.332   4.394 -0.0078  0.7344 -0.2648
   55CHL1  H11A 4031   5.870   2.348   4.380  0.4533 -1.8760 -0.2482
   55CHL1  H11B 4032   5.731   2.227   4.373  0.4165  0.8365 -1.4114
   55CHL1    C9 4033   5.670   2.411   4.288  0.3609 -0.0999 -0.8544
   55CHL1    H9 4034   5.565   2.383   4.307  0.2052  1.6511  1.3862
   55CHL1   C10 4035   5.698   2.385   4.141 -0.1242  0.6722 -0.8428
   55CHL1   C19 4036   5.852   2.407   4.115  0.0415 -0.1877 -0.3947
   55CHL1  H19A 4037   5.881   2.395   4.009  1.9032 -0.2700  0.0996
   55CHL1  H19B 4038   5.883   2.511   4.136  1.0920 -0.1419 -2.0206
   55CHL1  H19C 4039   5.910   2.332   4.173 -0.4144 -0.2651 -0.0269
   55CHL1    C1 4040   5.647   2.246   4.105  0.5863  0.1569  0.0546
   55CHL1   H1A 4041   5.695   2.160   4.156  0.3455 -1.0876 -1.7288
   55CHL1   H1B 4042   5.539   2.249   4.131  0.1960 -1.6532 -1.1057
   55CHL1    C2 4043   5.666   2.215   3.958  0.5428 -0.0278 -0.4547
   55CHL1   H2A 4044   5.654   2.106   3.938  0.1683 -0.5380  2.1961
   55CHL1   H2B 4045   5.776   2.228   3.951  1.1490 -2.0144  2.9994
   55CHL1   C20 4046   5.793   2.534   4.829  0.3440  0.0013  0.1943
   55CHL1   H20 4047   5.898   2.511   4.802 -0.3420 -2.2107 -0.8204
   55CHL1   C21 4048   5.730   2.407   4.889  0.4287 -0.7788 -0.3386
   55CHL1  H21A 4049   5.737   2.320   4.820 -0.8613 -2.2162  1.2519
   55CHL1  H21B 4050   5.629   2.425   4.932  0.4407 -0.3886 -0.4644
   55CHL1  H21C 4051   5.799   2.385   4.973 -0.8603  0.9402  1.2529
   55CHL1   C22 4052   5.803   2.640   4.940 -0.1959  0.0302 -0.1694
   55CHL1  H22A 4053   5.822   2.742   4.899  2.4719 -0.7849 -1.2050
   55CHL1  H22B 4054   5.709   2.645   4.999 -0.3239  1.1559 -0.4410
   55CHL1   C23 4055   5.916   2.612   5.048  0.8149  0.2437  0.4229
   55CHL1  H23A 4056   5.895   2.519   5.103  1.4146 -0.0730  0.1260
   55CHL1  H23B 4057   6.011   2.603   4.990 -1.0926 -0.2092 -2.9227
   55CHL1   C24 4058   5.934   2.725   5.145 -0.3548 -0.2608  0.3788
   55CHL1  H24A 4059   5.953   2.823   5.096 -0.2547 -1.0220 -1.1471
   55CHL1  H24B 4060   5.842   2.731   5.208 -2.0908  2.3525 -2.1385
   55CHL1   C25 4061   6.062   2.714   5.234 -0.5601  0.0611 -0.5367
   55CHL1   H25 4062   6.060   2.789   5.316 -0.6511 -1.2998  0.7483
   55CHL1   C26 4063   6.060   2.581   5.321  0.1953  0.1239  0.1775
   55CHL1  H26A 4064   5.962   2.572   5.373  1.0285  0.4915  1.8542
   55CHL1  H26B 4065   6.082   2.485   5.269 -2.6505  0.0085 -1.0301
   55CHL1  H26C 4066   6.149   2.573   5.386  0.5040 -0.6609 -0.3244
   55CHL1   C27 4067   6.189   2.731   5.145 -0.0487 -0.5692  0.6957
   55CHL1  H27A 4068   6.202   2.664   5.058  3.2931 -0.0157  0.6275
   55CHL1  H27B 4069   6.206   2.833   5.103  1.6372 -1.3489 -0.6352
   55CHL1  H27C 4070   6.287   2.713   5.195 -1.4679 -0.5150  3.6889
   56CHL1    C3 4071   6.153   2.080   4.350 -0.1128  0.2954 -0.1427
   56CHL1    H3 4072   6.042   2.083   4.351 -0.1537  4.1856  1.4239
   56CHL1    O3 4073   6.188   2.139   4.224 -0.1669 -0.3168 -0.1709
   56CHL1   H3' 4074   6.284   2.144   4.227  0.1963 -2.9156 -2.7086
   56CHL1    C4 4075   6.209   2.165   4.471 -0.1406  0.1798 -0.1847
   56CHL1   H4A 4076   6.318   2.168   4.449 -0.5347  0.0597 -2.4906
   56CHL1   H4B 4077   6.153   2.260   4.465 -2.3741 -1.0655  0.0666
   56CHL1    C5 4078   6.186   2.097   4.608  0.7412 -0.0559  0.1657
   56CHL1    C6 4079   6.117   2.167   4.705  0.8860 -0.1256 -0.4064
   56CHL1    H6 4080   6.095   2.273   4.687 -0.2417 -0.1064  0.8619
   56CHL1    C7 4081   6.093   2.098   4.839  0.6470 -0.3303  0.3444
   56CHL1   H7A 4082   6.104   2.168   4.925  2.0253 -0.6625  0.4587
   56CHL1   H7B 4083   5.985   2.074   4.852  0.7307 -0.5699  0.5960
   56CHL1    C8 4084   6.167   1.965   4.875 -0.6394 -0.3098  0.5761
   56CHL1    H8 4085   6.275   1.988   4.892 -0.7644  1.2748 -0.5686
   56CHL1   C14 4086   6.103   1.883   4.987  0.5569  0.3225  0.3200
   56CHL1   H14 4087   6.001   1.856   4.950  0.0038  2.0904  0.4676
   56CHL1   C15 4088   6.082   1.953   5.121 -0.1409  0.2840 -0.5580
   56CHL1  H15A 4089   6.166   1.999   5.176  0.4118 -0.7225 -0.5379
   56CHL1  H15B 4090   6.003   2.030   5.110  0.2643  1.2110  2.2507
   56CHL1   C16 4091   6.047   1.846   5.221 -0.2567 -0.1594 -0.1450
   56CHL1  H16A 4092   6.111   1.852   5.312  1.3187  1.9197 -1.2827
   56CHL1  H16B 4093   5.938   1.846   5.241 -0.3880 -0.1832 -0.8454
   56CHL1   C17 4094   6.071   1.714   5.140 -0.0158  0.2137 -0.4072
   56CHL1   H17 4095   5.977   1.670   5.099  1.3699 -0.5651 -3.0106
   56CHL1   C13 4096   6.162   1.749   5.024  0.5642  0.1621 -0.1802
   56CHL1   C18 4097   6.311   1.762   5.068 -0.7543  0.0354  0.5241
   56CHL1  H18A 4098   6.302   1.806   5.170  2.5649  1.0507  0.4866
   56CHL1  H18B 4099   6.339   1.657   5.091  0.3085  0.1084 -0.3544
   56CHL1  H18C 4100   6.381   1.818   5.003 -1.0111  2.7434  2.4308
   56CHL1   C12 4101   6.149   1.664   4.897  0.5755 -0.4624 -1.0912
   56CHL1  H12A 4102   6.211   1.572   4.901  0.1618 -0.6980  0.1505
   56CHL1  H12B 4103   6.041   1.642   4.884  0.1645  0.8748 -0.0923
   56CHL1   C11 4104   6.203   1.734   4.771 -0.3825 -0.1824  0.1165
   56CHL1  H11A 4105   6.314   1.722   4.768 -0.4991 -1.0324 -2.5889
   56CHL1  H11B 4106   6.176   1.669   4.685  2.0171 -1.1645  0.0306
   56CHL1    C9 4107   6.160   1.884   4.744 -0.3287 -0.1962 -0.6864
   56CHL1    H9 4108   6.056   1.883   4.704  0.8404 -1.8148 -4.0216
   56CHL1   C10 4109   6.225   1.947   4.616 -0.0536 -0.7081 -0.1010
   56CHL1   C19 4110   6.373   1.929   4.607 -0.0747  0.2891 -0.5828
   56CHL1  H19A 4111   6.413   1.988   4.522 -0.1091  0.6526 -0.3518
   56CHL1  H19B 4112   6.417   1.965   4.703 -1.4094 -1.8553  0.9272
   56CHL1  H19C 4113   6.406   1.824   4.596  0.4897 -0.1450  3.5276
   56CHL1    C1 4114   6.166   1.871   4.489 -0.4237  0.1997  0.6874
   56CHL1   H1A 4115   6.190   1.763   4.484 -0.9311  0.1071 -4.0337
   56CHL1   H1B 4116   6.055   1.877   4.499 -0.2776 -0.3290  3.0944
   56CHL1    C2 4117   6.202   1.940   4.356  0.3700 -0.1094  0.0905
   56CHL1   H2A 4118   6.149   1.885   4.275 -1.9626  3.0292 -0.6641
   56CHL1   H2B 4119   6.312   1.945   4.338  0.3160  0.1783 -0.1598
   56CHL1   C20 4120   6.110   1.597   5.233 -0.4049 -0.0329 -0.8474
   56CHL1   H20 4121   6.206   1.617   5.285 -1.3820 -1.0445  1.4980
   56CHL1   C21 4122   6.144   1.472   5.155  0.6467  0.9970  0.1275
   56CHL1  H21A 4123   6.157   1.389   5.228 -0.0532  1.0046  0.2605
   56CHL1  H21B 4124   6.235   1.485   5.092  0.0670  1.4638 -0.6336
   56CHL1  H21C 4125   6.063   1.441   5.087 -0.8331 -2.2354  3.0524
   56CHL1   C22 4126   6.018   1.573   5.352  0.3024 -0.2485  0.0854
   56CHL1  H22A 4127   6.046   1.474   5.392  1.4332  0.8572  2.2175
   56CHL1  H22B 4128   6.032   1.659   5.421  1.2249 -0.6944  0.4634
   56CHL1   C23 4129   5.870   1.552   5.331  1.1498  0.1580  0.0208
   56CHL1  H23A 4130   5.833   1.620   5.251  0.4969  1.2363  1.1898
   56CHL1  H23B 4131   5.862   1.447   5.298 -1.6458  0.2238  0.3211
   56CHL1   C24 4132   5.786   1.555   5.461  0.0285 -0.0972  0.4171
   56CHL1  H24A 4133   5.816   1.460   5.511 -2.3352 -0.5059  1.1852
   56CHL1  H24B 4134   5.818   1.640   5.525  2.1302  0.3845 -1.1515
   56CHL1   C25 4135   5.636   1.559   5.433  0.5122 -0.4196 -0.2099
   56CHL1   H25 4136   5.618   1.475   5.362 -1.3385 -0.1307 -0.1353
   56CHL1   C26 4137   5.549   1.545   5.556  0.3245 -0.2533 -0.2474
   56CHL1  H26A 4138   5.567   1.615   5.640 -2.1372 -0.4524  0.5269
   56CHL1  H26B 4139   5.440   1.546   5.534  0.5983  1.1680 -1.6831
   56CHL1  H26C 4140   5.562   1.448   5.609  0.5813 -1.7115 -2.7973
   56CHL1   C27 4141   5.602   1.693   5.356  0.4607 -0.1057 -0.1158
   56CHL1  H27A 4142   5.659   1.783   5.387 -0.2098  0.9918 -1.9219
   56CHL1  H27B 4143   5.629   1.692   5.248  1.2725  0.2767  0.0781
   56CHL1  H27C 4144   5.494   1.718   5.361  0.1349 -0.7229 -2.8017
   57SAPC     N 4145   1.731   2.615   7.920 -1.1577  0.4631  0.1919
   57SAPC   C12 4146   1.674   2.552   7.803  0.5263  0.7228  0.7565
   57SAPC  H12A 4147   1.568   2.561   7.820  0.3121  0.0756 -0.1733
   57SAPC  H12B 4148   1.686   2.446   7.812 -3.0323  0.2514  1.2986
   57SAPC   C13 4149   1.659   2.741   7.958 -0.2314  0.4177 -0.6796
   57SAPC  H13A 4150   1.559   2.713   7.990 -0.5127  0.2652 -1.6551
   57SAPC  H13B 4151   1.702   2.781   8.049 -2.4863 -1.3677  1.3356
   57SAPC  H13C 4152   1.653   2.815   7.880  0.7232  1.7933  0.4827
   57SAPC   C14 4153   1.728   2.515   8.033  0.2718  0.4188 -0.3319
   57SAPC  H14A 4154   1.623   2.500   8.056  0.4251 -0.9312 -0.4268
   57SAPC  H14B 4155   1.793   2.432   8.011  2.3668  1.8290  0.2227
   57SAPC  H14C 4156   1.769   2.563   8.120  0.8346 -0.4458 -0.1105
   57SAPC   C15 4157   1.872   2.653   7.900 -0.1558  0.4772 -0.1601
   57SAPC  H15A 4158   1.927   2.560   7.891 -1.3621 -0.4955  1.8830
   57SAPC  H15B 4159   1.887   2.708   7.808  2.4425 -2.0398 -1.4058
   57SAPC  H15C 4160   1.902   2.710   7.986 -0.5050  1.1976 -0.5061
   57SAPC   C11 4161   1.714   2.609   7.666  0.1254  0.3597 -0.5322
   57SAPC  H11A 4162   1.668   2.557   7.579 -1.1696  1.2776 -0.4362
   57SAPC  H11B 4163   1.818   2.572   7.657 -0.4637 -1.0908 -1.8080
   57SAPC     P 4164   1.804   2.831   7.581 -0.4181  0.2084 -0.0352
   57SAPC   O13 4165   1.797   2.968   7.636 -0.4985 -0.5650 -0.7823
   57SAPC   O14 4166   1.933   2.770   7.592 -0.6204 -0.4447  0.5047
   57SAPC   O12 4167   1.699   2.746   7.652 -0.4516 -0.3230 -0.0930
   57SAPC   O11 4168   1.766   2.829   7.430 -0.1350  0.1671  0.0586
   57SAPC    C1 4169   1.629   2.848   7.393  0.1416  0.2441 -0.2029
   57SAPC    HA 4170   1.622   2.807   7.290  1.7030 -2.6229  0.7136
   57SAPC    HB 4171   1.559   2.794   7.461  1.1121 -0.8996 -0.0709
   57SAPC    C2 4172   1.592   2.994   7.378 -0.4807  0.0616  0.2951
   57SAPC    HS 4173   1.609   3.044   7.475  1.3157 -0.7856  0.4523
   57SAPC   O21 4174   1.453   2.997   7.337  1.1192 -0.1222  0.1740
   57SAPC   C21 4175   1.400   3.119   7.336  0.0252  0.1505 -0.3767
   57SAPC   O22 4176   1.456   3.220   7.375 -0.2841 -0.0227  0.3668
   57SAPC   C22 4177   1.250   3.109   7.288  0.0487  0.8112 -0.7970
   57SAPC   H2R 4178   1.242   3.041   7.200  1.6640  2.3622 -2.2156
   57SAPC   H2S 4179   1.182   3.070   7.367  0.3148 -0.3146 -1.1057
   57SAPC    C3 4180   1.682   3.073   7.272 -0.0501 -0.3453 -0.4730
   57SAPC    HX 4181   1.790   3.069   7.297 -0.0699  0.8145 -0.1448
   57SAPC    HY 4182   1.650   3.179   7.273 -1.8604 -0.8282  1.6588
   57SAPC   O31 4183   1.656   3.011   7.148 -0.1010  0.1428  0.3490
   57SAPC   C31 4184   1.756   2.976   7.074  0.4138  0.4709  0.2258
   57SAPC   O32 4185   1.877   2.993   7.097  0.0092  0.5132  0.3909
   57SAPC   C32 4186   1.706   2.914   6.946  0.2252 -0.5813 -0.2841
   57SAPC   H2X 4187   1.620   2.973   6.908  1.2481  0.7472 -0.6112
   57SAPC   H2Y 4188   1.665   2.814   6.972  1.1233 -0.4960  1.6722
   57SAPC   C23 4189   1.186   3.242   7.257  0.0808  0.4177  0.0044
   57SAPC   H3R 4190   1.204   3.326   7.327 -2.0221  0.1964  0.9127
   57SAPC   H3S 4191   1.075   3.238   7.248  0.1488  1.0921 -1.5274
   57SAPC   C24 4192   1.224   3.292   7.117  0.1131 -0.2871 -0.1090
   57SAPC   H4R 4193   1.334   3.299   7.113  0.0229  0.7601 -1.3086
   57SAPC   H4S 4194   1.176   3.391   7.100 -2.2493 -1.3256  0.0362
   57SAPC   C25 4195   1.179   3.206   6.999  0.3297  0.5364 -0.2531
   57SAPC   H5R 4196   1.092   3.140   7.019 -0.1902  0.8391 -1.4633
   57SAPC   C26 4197   1.241   3.206   6.882  0.2725  0.8415  0.4417
   57SAPC   H6R 4198   1.204   3.135   6.806  0.7438 -1.7534  2.4747
   57SAPC   C27 4199   1.356   3.286   6.837  0.0516  0.1676  0.6290
   57SAPC   H7R 4200   1.388   3.353   6.919 -0.5487  2.3567 -0.8276
   57SAPC   H7S 4201   1.299   3.338   6.757  0.4474 -1.1181 -0.5299
   57SAPC   C28 4202   1.474   3.216   6.776 -0.4502 -0.2448  0.4082
   57SAPC   H8R 4203   1.559   3.208   6.845  0.7023  2.3807 -0.5581
   57SAPC   C29 4204   1.478   3.179   6.644 -0.1012  0.2509 -0.2714
   57SAPC   H9R 4205   1.579   3.144   6.619  0.5925  1.1074  1.2128
   57SAPC  C210 4206   1.366   3.205   6.538 -0.5431 -0.0342  0.1470
   57SAPC  H10R 4207   1.266   3.209   6.586 -0.0740  2.1331  1.0795
   57SAPC  H10S 4208   1.364   3.123   6.464  0.3376 -0.6474  0.7708
   57SAPC  C211 4209   1.377   3.345   6.483  0.3645 -0.2818  0.5057
   57SAPC  H11R 4210   1.394   3.426   6.556  0.4748  1.2824 -1.1810
   57SAPC  C212 4211   1.355   3.386   6.355 -0.2067 -0.2516  0.2335
   57SAPC  H12R 4212   1.341   3.495   6.344 -2.1774 -0.4950 -0.0815
   57SAPC  C213 4213   1.313   3.300   6.238  0.0836  0.7138 -0.2235
   57SAPC  H13R 4214   1.204   3.304   6.218 -0.0406 -0.9842 -0.0489
   57SAPC  H13S 4215   1.341   3.197   6.268  3.0082  1.1465 -1.1123
   57SAPC  C214 4216   1.385   3.341   6.106 -0.1117  0.3956 -0.3386
   57SAPC  H14R 4217   1.487   3.378   6.126  0.9785 -2.8092  0.4984
   57SAPC  C215 4218   1.329   3.335   5.979 -0.5842  0.5942 -0.6006
   57SAPC  H15R 4219   1.388   3.372   5.894  1.7423 -0.3404  0.5061
   57SAPC  C216 4220   1.200   3.269   5.935 -0.4980  0.7185  0.5022
   57SAPC  H16R 4221   1.148   3.306   5.845 -1.0697 -2.3711 -0.5589
   57SAPC  H16S 4222   1.116   3.271   6.008 -0.6078  0.1701  0.3979
   57SAPC  C217 4223   1.230   3.123   5.913 -0.2351 -0.9040  0.0560
   57SAPC  H17R 4224   1.258   3.070   6.007  0.2473 -0.5210  0.1317
   57SAPC  H17S 4225   1.309   3.109   5.836  0.5814  2.8835  0.0092
   57SAPC  C218 4226   1.119   3.039   5.851 -0.1105  0.2644 -0.1501
   57SAPC  H18R 4227   1.023   3.053   5.906 -0.3722  1.1984 -0.8187
   57SAPC  H18S 4228   1.152   2.933   5.850  1.1670  0.6173 -2.2250
   57SAPC  C219 4229   1.093   3.068   5.702 -0.1399  0.3297  0.1363
   57SAPC  H19R 4230   1.189   3.067   5.647 -0.6223 -0.1211 -0.7222
   57SAPC  H19S 4231   1.059   3.173   5.703 -1.0997  0.0293  0.5746
   57SAPC  C220 4232   0.987   2.975   5.646  0.6540  0.8541 -0.7660
   57SAPC  H20R 4233   0.991   2.877   5.699 -0.3608  1.4023  0.3740
   57SAPC  H20S 4234   1.017   2.953   5.541  2.0599 -0.1849 -0.1870
   57SAPC  H20T 4235   0.886   3.020   5.659  0.5536  1.1989 -2.4944
   57SAPC   C33 4236   1.820   2.914   6.841 -0.3767  0.5049  0.7198
   57SAPC   H3X 4237   1.909   2.853   6.867 -0.2925 -0.5867 -1.8829
   57SAPC   H3Y 4238   1.863   3.017   6.835  0.4325  0.5099  4.2069
   57SAPC   C34 4239   1.779   2.874   6.695  0.3131 -0.1093 -0.2288
   57SAPC   H4X 4240   1.711   2.956   6.662  0.7300  0.2486 -0.2109
   57SAPC   H4Y 4241   1.717   2.783   6.680  0.5413 -0.4841  1.0418
   57SAPC   C35 4242   1.893   2.868   6.593  0.6030 -0.4148 -0.0512
   57SAPC   H5X 4243   1.969   2.793   6.623  0.9097  0.4198  1.3505
   57SAPC   H5Y 4244   1.964   2.953   6.595  2.6103 -2.0260 -0.5040
   57SAPC   C36 4245   1.846   2.835   6.446  0.2757 -0.1561 -0.0502
   57SAPC   H6X 4246   1.771   2.754   6.442 -0.8382  0.8367  0.2185
   57SAPC   H6Y 4247   1.931   2.806   6.380 -0.1150 -1.0350 -0.1759
   57SAPC   C37 4248   1.781   2.951   6.381 -0.2990 -0.1872  0.1457
   57SAPC   H7X 4249   1.848   3.039   6.393 -3.3021  2.0314  2.1668
   57SAPC   H7Y 4250   1.696   2.982   6.446  0.1095 -3.0722  2.2359
   57SAPC   C38 4251   1.751   2.947   6.231 -0.3964  0.1114  0.4553
   57SAPC   H8X 4252   1.661   2.881   6.221  0.3319 -0.8043 -0.2515
   57SAPC   H8Y 4253   1.832   2.899   6.173 -0.6790 -1.3429  1.2083
   57SAPC   C39 4254   1.709   3.081   6.175  0.1564 -0.1389 -0.1194
   57SAPC   H9X 4255   1.797   3.148   6.162  2.5822 -1.9691  4.4406
   57SAPC   H9Y 4256   1.651   3.118   6.263  0.9943 -2.9373  1.7178
   57SAPC  C310 4257   1.622   3.073   6.051 -0.1811  0.3335 -0.3741
   57SAPC  H10X 4258   1.576   3.173   6.041  1.4016  1.0717 -0.6196
   57SAPC  H10Y 4259   1.541   2.999   6.070  1.3245 -0.9119  1.7124
   57SAPC  C311 4260   1.708   3.040   5.928  0.1130  0.2388  0.4104
   57SAPC  H11X 4261   1.653   3.017   5.834  2.0173  2.0962 -1.2694
   57SAPC  H11Y 4262   1.772   2.952   5.950  0.4787  0.7058  1.2331
   57SAPC  C312 4263   1.797   3.158   5.880  0.4659  0.4812 -0.0843
   57SAPC  H12X 4264   1.880   3.178   5.952  2.2585  2.4414 -2.4940
   57SAPC  H12Y 4265   1.744   3.255   5.878  2.2338  1.4948  0.1056
   57SAPC  C313 4266   1.856   3.145   5.738 -0.2157 -0.2563  0.2804
   57SAPC  H13X 4267   1.783   3.105   5.665  0.7319 -0.2439 -0.6931
   57SAPC  H13Y 4268   1.949   3.084   5.732 -0.0566  0.0597 -0.5916
   57SAPC  C314 4269   1.898   3.280   5.677 -0.3044 -0.5659  0.5844
   57SAPC  H14X 4270   1.803   3.336   5.665 -2.1834 -3.6678 -0.0498
   57SAPC  H14Y 4271   1.929   3.275   5.570 -0.2807  0.2031  0.5453
   57SAPC  C315 4272   1.993   3.368   5.751  0.7269 -0.3201  0.2517
   57SAPC  H15X 4273   2.083   3.314   5.789  1.4897  0.9224  0.2663
   57SAPC  H15Y 4274   1.936   3.398   5.841 -0.7918 -1.3665 -0.3282
   57SAPC  C316 4275   2.046   3.489   5.670  0.4784 -0.4179  0.7742
   57SAPC  H16X 4276   2.087   3.436   5.581  2.0314 -0.5721  1.5405
   57SAPC  H16Y 4277   2.130   3.539   5.722  1.7284 -1.5738 -0.0760
   57SAPC  C317 4278   1.939   3.587   5.624 -0.5257  0.4104 -0.8060
   57SAPC  H17X 4279   1.875   3.626   5.706 -1.7046  1.1677 -2.0286
   57SAPC  H17Y 4280   1.872   3.533   5.553  0.7261  0.1051 -1.7994
   57SAPC  C318 4281   2.010   3.702   5.548  0.1380  0.0134  0.0400
   57SAPC  H18X 4282   1.938   3.780   5.514 -2.2058 -1.0250  2.2149
   57SAPC  H18Y 4283   2.071   3.668   5.463  0.7434 -0.0711  0.5042
   57SAPC  H18Z 4284   2.082   3.750   5.618  3.2155 -1.0188 -2.2626
   58SAPC     N 4285   4.690   3.757   7.487  0.1897  0.2010 -0.8138
   58SAPC   C12 4286   4.742   3.777   7.344  0.0654  0.2129 -0.3006
   58SAPC  H12A 4287   4.823   3.847   7.359 -1.4866  1.8935  0.6302
   58SAPC  H12B 4288   4.664   3.824   7.286 -0.1287 -0.5619 -0.6790
   58SAPC   C13 4289   4.788   3.693   7.581  0.1421  0.5756 -0.1208
   58SAPC  H13A 4290   4.870   3.758   7.605  0.0361  0.2006  1.3803
   58SAPC  H13B 4291   4.750   3.652   7.674  2.2981 -2.9363 -0.5912
   58SAPC  H13C 4292   4.834   3.607   7.535  0.9950  0.5599  0.7218
   58SAPC   C14 4293   4.667   3.884   7.559 -0.6395 -0.0168 -0.2462
   58SAPC  H14A 4294   4.758   3.943   7.561 -0.2961 -0.5078 -0.9390
   58SAPC  H14B 4295   4.590   3.943   7.513 -1.5485 -0.7343  0.3312
   58SAPC  H14C 4296   4.634   3.869   7.661  0.0310 -1.0600 -0.1700
   58SAPC   C15 4297   4.558   3.685   7.493 -0.4274 -0.1531  0.2257
   58SAPC  H15A 4298   4.536   3.634   7.585 -0.8058 -3.2668 -1.4145
   58SAPC  H15B 4299   4.483   3.747   7.446 -0.6348 -1.2340 -0.9348
   58SAPC  H15C 4300   4.563   3.607   7.418  0.8913  1.0692 -1.0263
   58SAPC   C11 4301   4.793   3.653   7.259 -0.6524 -0.4424 -0.2001
   58SAPC  H11A 4302   4.830   3.703   7.166  1.2509 -2.7248 -0.7541
   58SAPC  H11B 4303   4.711   3.583   7.234 -0.2092 -0.9515 -0.2387
   58SAPC     P 4304   5.039   3.658   7.325  0.2150 -0.2553  0.3081
   58SAPC   O13 4305   5.025   3.799   7.291  0.1728 -0.5239  0.2170
   58SAPC   O14 4306   5.108   3.639   7.449  0.4588  0.3856  0.5094
   58SAPC   O12 4307   4.901   3.587   7.327  0.0264  0.5289 -0.5128
   58SAPC   O11 4308   5.115   3.588   7.211 -0.1753 -1.0406  0.0505
   58SAPC    C1 4309   5.069   3.515   7.102  0.7105  0.4834 -0.0655
   58SAPC    HA 4310   4.981   3.453   7.129 -0.6461  3.0232  1.6853
   58SAPC    HB 4311   5.033   3.580   7.019 -1.9785 -1.0646 -0.2208
   58SAPC    C2 4312   5.192   3.428   7.055  0.6014  0.4651  0.1216
   58SAPC    HS 4313   5.289   3.479   7.075  1.0154 -0.8664  1.7301
   58SAPC   O21 4314   5.175   3.398   6.913  0.0040 -0.0394 -0.0719
   58SAPC   C21 4315   5.293   3.374   6.853  0.0963 -0.6246 -0.0989
   58SAPC   O22 4316   5.406   3.386   6.893 -0.1947  0.3257 -0.1827
   58SAPC   C22 4317   5.270   3.312   6.715  0.0989 -0.6436 -0.0335
   58SAPC   H2R 4318   5.359   3.255   6.681 -1.2415 -2.4814 -0.5880
   58SAPC   H2S 4319   5.184   3.241   6.717 -0.5372 -0.0594 -2.6693
   58SAPC    C3 4320   5.175   3.299   7.140  0.1065  0.4648 -0.5536
   58SAPC    HX 4321   5.174   3.328   7.247 -3.0659 -0.8251 -0.1272
   58SAPC    HY 4322   5.255   3.228   7.113 -0.5915 -1.3384  1.7862
   58SAPC   O31 4323   5.041   3.248   7.119 -0.1353 -0.3680  0.0423
   58SAPC   C31 4324   5.026   3.152   7.031 -0.2414 -0.9489 -0.2650
   58SAPC   O32 4325   5.111   3.080   6.977 -0.1217 -0.1837 -0.2068
   58SAPC   C32 4326   4.881   3.159   7.001  1.0730 -0.1623 -0.1444
   58SAPC   H2X 4327   4.852   3.265   6.987  0.1986 -0.4759 -0.8165
   58SAPC   H2Y 4328   4.824   3.115   7.085  2.0187 -2.3818 -0.5889
   58SAPC   C23 4329   5.243   3.420   6.609  0.3417 -0.0385 -0.2151
   58SAPC   H3R 4330   5.336   3.477   6.588 -0.6969  1.5138 -0.7193
   58SAPC   H3S 4331   5.162   3.488   6.642 -0.5392 -0.5148 -1.3405
   58SAPC   C24 4332   5.185   3.352   6.482  0.0282 -0.2616 -0.1359
   58SAPC   H4R 4333   5.150   3.434   6.417 -0.2472  1.0960  1.6614
   58SAPC   H4S 4334   5.094   3.295   6.510  0.7385 -1.6579 -0.5524
   58SAPC   C25 4335   5.278   3.257   6.411 -0.5304 -0.8250 -0.2701
   58SAPC   H5R 4336   5.301   3.164   6.465 -0.2747 -1.0417 -0.7526
   58SAPC   C26 4337   5.337   3.263   6.292 -0.7727 -0.1399 -0.6550
   58SAPC   H6R 4338   5.411   3.186   6.261  0.4620  0.7193  0.0650
   58SAPC   C27 4339   5.342   3.385   6.212 -0.0108  0.6010  0.5650
   58SAPC   H7R 4340   5.439   3.384   6.157 -0.6892 -1.0131 -0.6736
   58SAPC   H7S 4341   5.352   3.479   6.271 -0.7691  2.1155 -1.5632
   58SAPC   C28 4342   5.216   3.396   6.128  0.3560 -0.0790  0.2891
   58SAPC   H8R 4343   5.126   3.421   6.185 -1.6275 -0.7426 -2.3442
   58SAPC   C29 4344   5.203   3.340   6.004  0.0174  0.1115 -0.3242
   58SAPC   H9R 4345   5.105   3.360   5.959 -0.5808 -2.3592 -0.2385
   58SAPC  C210 4346   5.316   3.270   5.930 -0.3957  0.0223 -0.6294
   58SAPC  H10R 4347   5.319   3.162   5.953  0.5705  0.0231 -0.7117
   58SAPC  H10S 4348   5.416   3.314   5.950 -0.3492  1.1444 -2.9289
   58SAPC  C211 4349   5.298   3.293   5.781  0.0775 -0.6758 -0.4956
   58SAPC  H11R 4350   5.331   3.391   5.745  0.6453 -0.4642  0.5584
   58SAPC  C212 4351   5.249   3.212   5.686  0.0045  1.1770 -0.1013
   58SAPC  H12R 4352   5.229   3.247   5.584 -0.3377 -1.3062 -0.9488
   58SAPC  C213 4353   5.212   3.064   5.703  0.3353  0.0150 -0.1002
   58SAPC  H13R 4354   5.283   3.010   5.769  1.1610  1.2792  0.0793
   58SAPC  H13S 4355   5.220   3.011   5.605 -0.2995 -1.1736  0.4818
   58SAPC  C214 4356   5.068   3.036   5.749 -0.4022  0.4981 -0.5583
   58SAPC  H14R 4357   5.063   3.038   5.859 -1.5377  0.6003 -0.6074
   58SAPC  C215 4358   4.956   3.013   5.689  0.0146  0.3203  0.3915
   58SAPC  H15R 4359   4.869   2.990   5.753  1.1270  0.1909  1.9218
   58SAPC  C216 4360   4.946   3.010   5.539 -0.0211  0.0305 -0.0094
   58SAPC  H16R 4361   5.045   3.014   5.488 -0.2400  1.5186 -0.3795
   58SAPC  H16S 4362   4.886   3.095   5.499  1.6268  1.1097 -0.2624
   58SAPC  C217 4363   4.885   2.876   5.497 -0.1258  0.1769 -0.8261
   58SAPC  H17R 4364   4.790   2.868   5.555  0.9039  1.4486  1.1329
   58SAPC  H17S 4365   4.955   2.797   5.532 -0.8200 -0.4908 -0.9213
   58SAPC  C218 4366   4.884   2.878   5.348 -0.4224 -0.6771 -1.4556
   58SAPC  H18R 4367   4.987   2.887   5.307 -0.7077 -2.5836 -2.7474
   58SAPC  H18S 4368   4.821   2.954   5.298  0.2546 -0.5907 -2.1878
   58SAPC  C219 4369   4.834   2.742   5.295 -0.7232 -0.1404 -0.5766
   58SAPC  H19R 4370   4.735   2.721   5.339 -0.3272  1.8399  1.4393
   58SAPC  H19S 4371   4.912   2.671   5.327 -0.9388  1.0783  3.1088
   58SAPC  C220 4372   4.806   2.748   5.148 -0.3800  0.5141 -0.2031
   58SAPC  H20R 4373   4.767   2.653   5.105 -0.8426  0.0908  1.1107
   58SAPC  H20S 4374   4.890   2.787   5.086  0.5759  1.4601  1.6044
   58SAPC  H20T 4375   4.732   2.824   5.116 -0.6246  0.5232  0.3672
   58SAPC   C33 4376   4.849   3.078   6.872 -0.4306 -0.1969  0.6407
   58SAPC   H3X 4377   4.739   3.080   6.854 -0.0275  0.3751 -2.0642
   58SAPC   H3Y 4378   4.880   2.971   6.878  3.5963  0.6707 -1.4989
   58SAPC   C34 4379   4.914   3.137   6.743  0.2760 -0.5294 -0.2443
   58SAPC   H4X 4380   5.023   3.113   6.747  0.5834  0.6908 -0.7163
   58SAPC   H4Y 4381   4.905   3.248   6.740 -0.7928 -0.5962  0.1745
   58SAPC   C35 4382   4.835   3.077   6.628 -0.2439 -0.9297 -0.4043
   58SAPC   H5X 4383   4.728   3.102   6.641 -0.5064 -2.7173  1.2900
   58SAPC   H5Y 4384   4.859   2.969   6.638  2.2247 -0.2627  2.1547
   58SAPC   C36 4385   4.897   3.112   6.492  0.2551  0.4232  0.0877
   58SAPC   H6X 4386   5.007   3.101   6.502  0.2920 -0.4898 -1.1633
   58SAPC   H6Y 4387   4.887   3.223   6.486  0.8517  0.6287  2.0656
   58SAPC   C37 4388   4.847   3.034   6.372 -0.0960 -0.3006  0.2175
   58SAPC   H7X 4389   4.743   3.067   6.356  0.2090 -0.7213 -3.5149
   58SAPC   H7Y 4390   4.860   2.927   6.401 -0.1496 -1.1888 -2.7590
   58SAPC   C38 4391   4.919   3.058   6.243  0.2372  0.8767  0.4669
   58SAPC   H8X 4392   5.024   3.038   6.273  0.2669 -0.5107 -0.4714
   58SAPC   H8Y 4393   4.916   3.167   6.223  1.4832  0.6044 -1.5053
   58SAPC   C39 4394   4.871   2.975   6.120 -0.0443 -0.6532  0.4307
   58SAPC   H9X 4395   4.963   2.971   6.057  0.4501 -0.2491  1.1183
   58SAPC   H9Y 4396   4.798   3.044   6.073 -0.5874 -2.6294 -1.8395
   58SAPC  C310 4397   4.822   2.836   6.140 -0.0001  0.1000 -0.1975
   58SAPC  H10X 4398   4.745   2.828   6.220  0.8132 -1.6023  0.4698
   58SAPC  H10Y 4399   4.908   2.785   6.188 -1.3689 -2.5782 -0.3909
   58SAPC  C311 4400   4.780   2.749   6.011 -0.3385  0.0081 -0.5087
   58SAPC  H11X 4401   4.756   2.642   6.026 -1.9574  0.2140 -1.3911
   58SAPC  H11Y 4402   4.863   2.766   5.939  0.2444  1.4327  0.4417
   58SAPC  C312 4403   4.651   2.811   5.943 -0.0771  0.1437  0.1658
   58SAPC  H12X 4404   4.655   2.919   5.971  0.2872 -0.6500  3.7760
   58SAPC  H12Y 4405   4.574   2.761   6.005 -1.1756 -1.2028 -2.1868
   58SAPC  C313 4406   4.639   2.785   5.790  0.0744 -0.1053  0.3088
   58SAPC  H13X 4407   4.675   2.680   5.777 -0.1655 -0.1885  0.3133
   58SAPC  H13Y 4408   4.717   2.844   5.737 -0.9716  0.7584 -0.2872
   58SAPC  C314 4409   4.493   2.800   5.744 -0.1873  0.7766 -0.9193
   58SAPC  H14X 4410   4.451   2.903   5.742 -1.3660  0.3164 -2.7799
   58SAPC  H14Y 4411   4.424   2.740   5.806  0.4129  2.5827  1.6796
   58SAPC  C315 4412   4.479   2.755   5.601 -0.2569 -0.6287  0.5429
   58SAPC  H15X 4413   4.391   2.690   5.584  0.4844 -1.8466  1.2642
   58SAPC  H15Y 4414   4.564   2.692   5.569  0.6203  1.6878 -2.1221
   58SAPC  C316 4415   4.463   2.872   5.506  0.5243 -0.5356  0.1983
   58SAPC  H16X 4416   4.544   2.948   5.512  0.3975 -0.2649 -1.1579
   58SAPC  H16Y 4417   4.374   2.931   5.535  0.5841  1.6966 -3.4510
   58SAPC  C317 4418   4.427   2.817   5.360  0.0808  0.7860  0.2447
   58SAPC  H17X 4419   4.319   2.792   5.368  0.5782 -1.3369  1.1359
   58SAPC  H17Y 4420   4.487   2.725   5.345  1.3597  1.8396 -1.4834
   58SAPC  C318 4421   4.454   2.916   5.247 -0.6918 -0.2902 -0.2675
   58SAPC  H18X 4422   4.414   3.016   5.275 -1.2157  0.4785 -3.3793
   58SAPC  H18Y 4423   4.408   2.877   5.153 -0.4966 -0.5108 -0.2704
   58SAPC  H18Z 4424   4.564   2.926   5.245 -0.4935  0.5143  4.3018
   59SAPC     N 4425   3.926   5.731   7.638 -0.4023 -0.1111 -0.3069
   59SAPC   C12 4426   3.978   5.857   7.562  0.5066  1.2231  0.8280
   59SAPC  H12A 4427   4.001   5.936   7.632  0.6653  2.3825 -0.5039
   59SAPC  H12B 4428   3.905   5.896   7.493  2.0544 -0.4330 -1.9152
   59SAPC   C13 4429   3.781   5.746   7.684 -0.2104 -0.2424  0.0354
   59SAPC  H13A 4430   3.759   5.844   7.724 -2.0264  0.7806 -3.1107
   59SAPC  H13B 4431   3.719   5.737   7.596 -0.4547  0.4120  0.1359
   59SAPC  H13C 4432   3.759   5.661   7.746  2.1307 -1.2070 -0.3603
   59SAPC   C14 4433   3.939   5.609   7.556  0.2055 -0.4019 -0.5123
   59SAPC  H14A 4434   4.043   5.596   7.533  0.7482  0.0578  1.4862
   59SAPC  H14B 4435   3.899   5.518   7.600  1.0630 -1.7608 -2.3794
   59SAPC  H14C 4436   3.886   5.620   7.462  2.2952  1.1627 -1.5919
   59SAPC   C15 4437   4.006   5.707   7.759  0.2488  0.1153  0.9781
   59SAPC  H15A 4438   4.011   5.798   7.817  1.9358  1.4589 -1.1011
   59SAPC  H15B 4439   3.959   5.635   7.825  1.0030 -0.6805  0.6721
   59SAPC  H15C 4440   4.105   5.672   7.733  0.4903 -0.4513  2.5367
   59SAPC   C11 4441   4.105   5.843   7.486 -0.1329 -0.1960 -0.5851
   59SAPC  H11A 4442   4.116   5.932   7.420  2.5387  1.4280  1.8073
   59SAPC  H11B 4443   4.106   5.758   7.414 -0.1075  0.2212 -1.0810
   59SAPC     P 4444   4.264   5.968   7.648 -0.2090 -0.4735 -0.5949
   59SAPC   O13 4445   4.152   6.029   7.727  0.5367  0.1562 -0.3309
   59SAPC   O14 4446   4.382   5.915   7.728  0.1988 -0.3586  0.2110
   59SAPC   O12 4447   4.223   5.843   7.572  0.5561 -0.2369 -0.2300
   59SAPC   O11 4448   4.313   6.065   7.530  0.1844 -1.1110  0.1869
   59SAPC    C1 4449   4.369   6.031   7.409 -0.0918 -0.2488  0.0027
   59SAPC    HA 4450   4.434   5.942   7.425  0.5428 -0.2962 -2.4107
   59SAPC    HB 4451   4.284   6.009   7.341 -0.0926 -0.1017 -0.0424
   59SAPC    C2 4452   4.454   6.145   7.341  0.0192  0.6472  0.2012
   59SAPC    HS 4453   4.515   6.174   7.430 -0.1049 -0.9153  0.8342
   59SAPC   O21 4454   4.366   6.250   7.301  0.2887  0.6059  0.2797
   59SAPC   C21 4455   4.424   6.363   7.284 -0.7170 -0.2311 -0.3411
   59SAPC   O22 4456   4.538   6.396   7.318  0.7497  0.3215 -0.1535
   59SAPC   C22 4457   4.323   6.460   7.219 -0.4882  0.7670  0.1022
   59SAPC   H2R 4458   4.245   6.483   7.295 -0.8611 -1.5103  0.4956
   59SAPC   H2S 4459   4.368   6.557   7.190 -1.4599  0.9654 -0.8055
   59SAPC    C3 4460   4.535   6.065   7.220 -0.9274  0.3802 -0.8725
   59SAPC    HX 4461   4.453   6.018   7.161 -1.9983 -0.8488  1.4488
   59SAPC    HY 4462   4.604   5.989   7.261 -0.0519  1.3456 -0.5117
   59SAPC   O31 4463   4.601   6.159   7.135  0.1719 -0.2232  0.0129
   59SAPC   C31 4464   4.719   6.198   7.169  0.2226 -0.0810 -0.7825
   59SAPC   O32 4465   4.782   6.151   7.261 -0.0579 -0.0002  0.4572
   59SAPC   C32 4466   4.770   6.306   7.077  0.0998 -0.5193  0.6581
   59SAPC   H2X 4467   4.793   6.400   7.132  1.2879 -1.2515  1.4323
   59SAPC   H2Y 4468   4.697   6.316   6.993  1.8359  0.8963 -0.7697
   59SAPC   C23 4469   4.242   6.396   7.109  0.8432 -0.0838  0.2111
   59SAPC   H3R 4470   4.175   6.471   7.060 -0.5471 -1.9103 -0.8101
   59SAPC   H3S 4471   4.174   6.315   7.142 -0.1494  1.4213  2.1163
   59SAPC   C24 4472   4.335   6.327   7.008  0.3215 -0.4693  1.1033
   59SAPC   H4R 4473   4.387   6.251   7.070  3.0811  1.2416  1.0829
   59SAPC   H4S 4474   4.421   6.389   6.974  1.5526 -1.3499  2.4889
   59SAPC   C25 4475   4.243   6.259   6.907 -0.7225  0.0509  0.1239
   59SAPC   H5R 4476   4.146   6.224   6.944 -2.2096  2.3958 -1.3255
   59SAPC   C26 4477   4.260   6.259   6.772 -0.4356 -1.1630 -0.8738
   59SAPC   H6R 4478   4.190   6.215   6.699 -1.3042 -2.9507  0.9437
   59SAPC   C27 4479   4.374   6.326   6.702 -1.6302  0.1004  0.3254
   59SAPC   H7R 4480   4.407   6.416   6.757  2.0163 -1.2023  0.5309
   59SAPC   H7S 4481   4.326   6.365   6.609  0.0458 -0.5033 -0.8325
   59SAPC   C28 4482   4.490   6.233   6.669  0.0717  0.4064 -0.1092
   59SAPC   H8R 4483   4.511   6.146   6.734  0.7112  0.6165 -0.0274
   59SAPC   C29 4484   4.563   6.238   6.557  0.9255 -0.6817 -0.6680
   59SAPC   H9R 4485   4.640   6.161   6.540  0.7094 -0.8032 -1.1400
   59SAPC  C210 4486   4.549   6.337   6.433  0.5409 -0.1978 -0.7199
   59SAPC  H10R 4487   4.651   6.369   6.401  1.8046 -1.6157  1.6039
   59SAPC  H10S 4488   4.494   6.427   6.465  1.9345 -0.4340  2.8322
   59SAPC  C211 4489   4.472   6.278   6.317  0.0443  0.7939 -0.6937
   59SAPC  H11R 4490   4.405   6.195   6.342 -0.0514  0.5042 -1.8326
   59SAPC  C212 4491   4.484   6.310   6.190  0.2136 -0.0930  0.1591
   59SAPC  H12R 4492   4.416   6.266   6.115  0.0009 -2.2717  1.5229
   59SAPC  C213 4493   4.590   6.402   6.128  0.6945 -0.4905  0.1180
   59SAPC  H13R 4494   4.692   6.384   6.170  0.5869 -0.7886  0.2526
   59SAPC  H13S 4495   4.565   6.504   6.165 -1.8470 -1.0044 -0.0432
   59SAPC  C214 4496   4.588   6.422   5.982  0.1017  0.1592  0.3381
   59SAPC  H14R 4497   4.562   6.332   5.924 -1.0122  0.0764  0.9429
   59SAPC  C215 4498   4.598   6.526   5.899  0.5199 -0.0740  0.1971
   59SAPC  H15R 4499   4.594   6.508   5.791  4.8791 -1.2218  0.0523
   59SAPC  C216 4500   4.627   6.666   5.941 -0.0665 -0.3795 -0.2386
   59SAPC  H16R 4501   4.626   6.674   6.052  0.4628  0.0611 -0.2604
   59SAPC  H16S 4502   4.546   6.736   5.910 -1.2470 -0.7434  1.8006
   59SAPC  C217 4503   4.762   6.718   5.880 -0.0371  0.6150  0.1626
   59SAPC  H17R 4504   4.746   6.737   5.772 -2.7026  0.2646  0.4444
   59SAPC  H17S 4505   4.836   6.635   5.887 -2.4331 -1.7726 -1.1925
   59SAPC  C218 4506   4.818   6.844   5.942 -0.1998 -0.6261  0.6311
   59SAPC  H18R 4507   4.858   6.818   6.042  0.5273  2.0230  1.1078
   59SAPC  H18S 4508   4.731   6.913   5.946  0.8448  0.8410 -0.7179
   59SAPC  C219 4509   4.933   6.906   5.870  0.6208  0.8504  0.1777
   59SAPC  H19R 4510   4.904   6.940   5.768  2.2041  0.8758 -0.2781
   59SAPC  H19S 4511   5.005   6.823   5.854 -1.4847 -0.6136 -2.9763
   59SAPC  C220 4512   5.000   7.019   5.940  0.2868 -0.1821  0.3794
   59SAPC  H20R 4513   4.948   7.115   5.919  2.2785  1.2447  1.6388
   59SAPC  H20S 4514   5.106   7.018   5.908 -0.2502 -4.0747 -1.8725
   59SAPC  H20T 4515   5.006   7.025   6.051  2.1064  1.2985  0.2544
   59SAPC   C33 4516   4.903   6.253   7.010 -0.6164  0.5194 -0.6208
   59SAPC   H3X 4517   4.940   6.152   7.038 -3.1753  0.0856  1.5286
   59SAPC   H3Y 4518   4.984   6.330   7.011 -1.7819  1.8100 -1.8029
   59SAPC   C34 4519   4.877   6.238   6.857 -0.1373 -0.8719 -0.3789
   59SAPC   H4X 4520   4.841   6.337   6.823 -1.7872 -1.1419  0.4951
   59SAPC   H4Y 4521   4.783   6.179   6.848 -0.0361 -0.9992 -0.6075
   59SAPC   C35 4522   4.991   6.188   6.770 -0.4156  0.5648  0.2408
   59SAPC   H5X 4523   5.010   6.087   6.813  0.9522  0.8158  0.2531
   59SAPC   H5Y 4524   5.086   6.243   6.784  0.2787 -0.3513 -0.6926
   59SAPC   C36 4525   4.947   6.171   6.621 -0.0972  0.8273  0.1427
   59SAPC   H6X 4526   4.848   6.219   6.610 -0.4812  1.1615  3.8218
   59SAPC   H6Y 4527   4.942   6.064   6.591  1.2924  0.8048 -0.0822
   59SAPC   C37 4528   5.052   6.235   6.522  0.1788 -0.1423 -0.4890
   59SAPC   H7X 4529   5.156   6.206   6.547 -0.5995 -3.4869 -0.5402
   59SAPC   H7Y 4530   5.036   6.344   6.532 -0.3794 -0.4122  2.9406
   59SAPC   C38 4531   5.025   6.196   6.375 -0.0839 -0.2051  0.5463
   59SAPC   H8X 4532   4.916   6.193   6.356 -0.0858 -0.1480  0.5497
   59SAPC   H8Y 4533   5.060   6.094   6.346 -1.3274 -1.2834  2.6229
   59SAPC   C39 4534   5.094   6.292   6.270  0.2024 -0.0199 -0.2261
   59SAPC   H9X 4535   5.201   6.305   6.297 -0.0793 -1.4944  1.8209
   59SAPC   H9Y 4536   5.053   6.394   6.288 -0.1487 -0.1173 -0.4572
   59SAPC  C310 4537   5.082   6.245   6.130  0.0989 -0.1642  0.7615
   59SAPC  H10X 4538   5.072   6.134   6.135  1.3245 -0.2774  5.6488
   59SAPC  H10Y 4539   5.175   6.275   6.078 -0.1702  1.0625  0.9705
   59SAPC  C311 4540   4.971   6.293   6.038 -0.4364  0.5146 -0.5569
   59SAPC  H11X 4541   4.965   6.403   6.054  0.0108  0.4298  0.2794
   59SAPC  H11Y 4542   4.874   6.248   6.070  1.2455 -1.6533  1.8328
   59SAPC  C312 4543   5.004   6.272   5.894  0.8871 -0.4040  0.6746
   59SAPC  H12X 4544   5.042   6.168   5.883  2.0499  0.1717 -1.2307
   59SAPC  H12Y 4545   5.085   6.341   5.861  0.1128 -0.2631 -1.0883
   59SAPC  C313 4546   4.885   6.291   5.795  0.2077 -0.1184  0.6361
   59SAPC  H13X 4547   4.867   6.396   5.763  2.4806 -0.6298 -2.9236
   59SAPC  H13Y 4548   4.786   6.251   5.827  0.1633 -1.0180 -0.5679
   59SAPC  C314 4549   4.907   6.224   5.657 -0.4633 -0.4748 -0.2609
   59SAPC  H14X 4550   4.940   6.119   5.669  0.8173 -0.2509 -1.5000
   59SAPC  H14Y 4551   4.994   6.282   5.620  0.9618 -1.6663  1.1119
   59SAPC  C315 4552   4.788   6.231   5.568  0.0183 -0.2501  0.4658
   59SAPC  H15X 4553   4.695   6.204   5.622  0.7520 -1.6007  1.0905
   59SAPC  H15Y 4554   4.787   6.145   5.498  1.1764  0.2779 -0.2368
   59SAPC  C316 4555   4.767   6.366   5.503 -0.1086  0.4856  0.0434
   59SAPC  H16X 4556   4.857   6.395   5.445  0.9352 -0.3891  1.1719
   59SAPC  H16Y 4557   4.758   6.442   5.584  1.8820  0.1206  0.6552
   59SAPC  C317 4558   4.647   6.380   5.415 -0.2255  0.2030 -0.3899
   59SAPC  H17X 4559   4.638   6.279   5.369  0.6424 -1.1038  2.1105
   59SAPC  H17Y 4560   4.660   6.460   5.339 -1.3193  0.9664  0.2065
   59SAPC  C318 4561   4.515   6.408   5.484  0.8569  0.0610  0.2531
   59SAPC  H18X 4562   4.486   6.335   5.562  0.2597  0.9750  0.8993
   59SAPC  H18Y 4563   4.441   6.421   5.401 -0.6721 -0.1367  1.5423
   59SAPC  H18Z 4564   4.531   6.507   5.533 -0.3578 -0.7784  2.4832
   60SAPC     N 4565   4.473   1.037   7.870 -0.4104  0.0188 -0.2190
   60SAPC   C12 4566   4.522   0.979   7.739 -0.6306 -0.6244  0.2300
   60SAPC  H12A 4567   4.579   0.888   7.754  1.2418  0.7871  2.4665
   60SAPC  H12B 4568   4.597   1.049   7.708 -0.1256 -0.6048  1.4373
   60SAPC   C13 4569   4.387   0.936   7.940  0.2024  0.2796  0.0966
   60SAPC  H13A 4570   4.440   0.844   7.961 -2.0248 -1.2274 -0.4779
   60SAPC  H13B 4571   4.333   0.979   8.023  2.1827 -1.4056  2.3807
   60SAPC  H13C 4572   4.317   0.905   7.864 -1.1168 -0.8197  1.6790
   60SAPC   C14 4573   4.591   1.063   7.963 -0.1609 -0.5226 -0.1720
   60SAPC  H14A 4574   4.647   0.971   7.960  0.3089 -0.2745  0.7967
   60SAPC  H14B 4575   4.655   1.139   7.922 -0.1912  0.0173  0.7693
   60SAPC  H14C 4576   4.574   1.079   8.068 -1.5068 -2.5660 -0.0159
   60SAPC   C15 4577   4.395   1.163   7.839 -0.2122 -0.5695  0.0930
   60SAPC  H15A 4578   4.311   1.143   7.774  0.2342 -0.5601 -0.4902
   60SAPC  H15B 4579   4.359   1.204   7.932 -0.1221  1.4244 -0.7147
   60SAPC  H15C 4580   4.458   1.236   7.790 -1.8212  0.2042 -0.9282
   60SAPC   C11 4581   4.419   0.957   7.618 -0.1061  0.7548 -0.3013
   60SAPC  H11A 4582   4.473   0.928   7.525  1.3074 -0.8775  0.9796
   60SAPC  H11B 4583   4.387   1.061   7.594  3.2882  1.4574 -2.4517
   60SAPC     P 4584   4.301   0.724   7.597 -0.1734  0.2713  0.1869
   60SAPC   O13 4585   4.420   0.642   7.642 -0.1723 -0.1896  0.0294
   60SAPC   O14 4586   4.162   0.663   7.610  0.8710 -0.1856 -0.4221
   60SAPC   O12 4587   4.304   0.878   7.646 -0.3103  1.1691 -0.0070
   60SAPC   O11 4588   4.332   0.729   7.438 -0.5275 -0.0879 -0.3424
   60SAPC    C1 4589   4.240   0.792   7.349 -0.5860 -0.3262  0.7764
   60SAPC    HA 4590   4.133   0.771   7.373 -1.3218  1.2666 -0.9249
   60SAPC    HB 4591   4.254   0.901   7.360  2.5288 -0.4731 -0.7140
   60SAPC    C2 4592   4.265   0.746   7.205 -0.5270  0.2233  0.3007
   60SAPC    HS 4593   4.174   0.758   7.142  0.2819 -2.3584 -1.5824
   60SAPC   O21 4594   4.304   0.610   7.195  0.3316  0.4568  0.0032
   60SAPC   C21 4595   4.227   0.517   7.249  0.2052  0.3500  0.1337
   60SAPC   O22 4596   4.111   0.535   7.285 -0.4172  0.2587 -0.2502
   60SAPC   C22 4597   4.306   0.388   7.281  0.6449  0.1243  0.0363
   60SAPC   H2R 4598   4.409   0.390   7.239 -0.1495 -2.0985 -2.3196
   60SAPC   H2S 4599   4.292   0.381   7.391  1.1305  0.6703  0.1375
   60SAPC    C3 4600   4.373   0.836   7.140 -0.5047  0.0984  0.3061
   60SAPC    HX 4601   4.466   0.831   7.200  0.5817 -3.4245 -1.3578
   60SAPC    HY 4602   4.343   0.943   7.139  0.2769  0.3199 -0.3513
   60SAPC   O31 4603   4.394   0.793   7.004 -0.4904  0.6757 -0.0346
   60SAPC   C31 4604   4.495   0.864   6.948  0.6758  0.0441 -0.1081
   60SAPC   O32 4605   4.558   0.952   7.010  0.3446 -0.1956  0.7958
   60SAPC   C32 4606   4.504   0.827   6.802 -0.4602 -0.1258  0.2061
   60SAPC   H2X 4607   4.422   0.759   6.770  1.6059 -3.4309  1.4121
   60SAPC   H2Y 4608   4.591   0.758   6.806  0.0934  0.5653  3.3195
   60SAPC   C23 4609   4.244   0.255   7.223  0.4335 -0.1698  0.7300
   60SAPC   H3R 4610   4.143   0.250   7.270 -0.1208  1.2571 -0.2396
   60SAPC   H3S 4611   4.297   0.162   7.254 -1.3088 -0.5913  2.6919
   60SAPC   C24 4612   4.228   0.253   7.063  0.4989 -0.6231  0.3217
   60SAPC   H4R 4613   4.162   0.336   7.032 -0.4276 -1.4352  0.0543
   60SAPC   H4S 4614   4.178   0.159   7.031  1.2841 -0.5611 -1.1778
   60SAPC   C25 4615   4.344   0.255   6.971  0.3484  0.5000  0.2128
   60SAPC   H5R 4616   4.420   0.330   6.997 -1.0002  1.9505  0.1765
   60SAPC   C26 4617   4.354   0.182   6.859  0.1994 -0.9878 -0.5657
   60SAPC   H6R 4618   4.456   0.165   6.820  0.5295  1.4971 -0.9227
   60SAPC   C27 4619   4.250   0.098   6.795  0.0093  0.3407 -0.0276
   60SAPC   H7R 4620   4.237   0.146   6.696  2.5753  1.0086 -0.1243
   60SAPC   H7S 4621   4.148   0.089   6.838  0.0579  0.7705  0.1814
   60SAPC   C28 4622   4.297  -0.053   6.764  0.0297 -0.1299  0.7721
   60SAPC   H8R 4623   4.267  -0.132   6.834  0.6557 -0.9374  0.1550
   60SAPC   C29 4624   4.348  -0.087   6.648 -0.9348 -0.7319  0.1143
   60SAPC   H9R 4625   4.370  -0.191   6.622  1.0128  0.3019 -2.9185
   60SAPC  C210 4626   4.393   0.020   6.545  0.3961 -0.2447  1.0022
   60SAPC  H10R 4627   4.419   0.113   6.600 -0.1486 -0.4953  1.7125
   60SAPC  H10S 4628   4.305   0.035   6.479  1.6784 -0.3065 -0.7968
   60SAPC  C211 4629   4.498  -0.029   6.449  0.0733 -0.2083 -0.0727
   60SAPC  H11R 4630   4.603  -0.041   6.480  1.1818  0.7298 -3.1610
   60SAPC  C212 4631   4.484  -0.044   6.316 -0.1895 -0.5688 -0.4930
   60SAPC  H12R 4632   4.581  -0.068   6.272  0.7383 -2.1390  2.1870
   60SAPC  C213 4633   4.361  -0.021   6.234 -0.2045 -0.1133 -0.3140
   60SAPC  H13R 4634   4.264  -0.056   6.275  0.5875 -2.2709 -0.1198
   60SAPC  H13S 4635   4.379  -0.085   6.145  3.2473  0.2206 -0.0113
   60SAPC  C214 4636   4.343   0.122   6.199  0.2951 -0.0404 -0.1448
   60SAPC  H14R 4637   4.380   0.193   6.275 -1.3222  0.4183  0.2423
   60SAPC  C215 4638   4.256   0.165   6.100  0.0337  0.2062  0.3896
   60SAPC  H15R 4639   4.247   0.273   6.079  0.2234 -0.1047 -1.4625
   60SAPC  C216 4640   4.187   0.076   5.997 -0.3898  0.0863  0.8788
   60SAPC  H16R 4641   4.079   0.095   5.978 -0.2263 -1.1364 -1.5693
   60SAPC  H16S 4642   4.198  -0.032   6.021  2.0818 -0.2243 -1.2692
   60SAPC  C217 4643   4.257   0.082   5.868  0.4204 -0.0116 -0.2090
   60SAPC  H17R 4644   4.217   0.005   5.799 -0.6224 -0.0078  0.3776
   60SAPC  H17S 4645   4.367   0.066   5.873  0.4626  0.0957 -0.7363
   60SAPC  C218 4646   4.229   0.217   5.803  0.0267 -0.4722  0.7873
   60SAPC  H18R 4647   4.274   0.304   5.855  0.8411  0.6040 -1.5850
   60SAPC  H18S 4648   4.120   0.232   5.816 -0.1105 -2.5635  2.6751
   60SAPC  C219 4649   4.268   0.215   5.652 -0.6900 -0.0844  0.1629
   60SAPC  H19R 4650   4.235   0.311   5.606  2.2931  1.2302  0.4579
   60SAPC  H19S 4651   4.216   0.137   5.593  1.9971 -0.0174 -2.5953
   60SAPC  C220 4652   4.417   0.206   5.626  0.0663  0.2520 -0.2332
   60SAPC  H20R 4653   4.444   0.233   5.521  2.5898  0.1225  0.3280
   60SAPC  H20S 4654   4.460   0.105   5.642  0.9609 -0.0408 -3.6925
   60SAPC  H20T 4655   4.473   0.275   5.693 -0.5187 -1.0029  1.6174
   60SAPC   C33 4656   4.529   0.954   6.711 -0.3697  0.1880 -1.2038
   60SAPC   H3X 4657   4.634   0.986   6.732 -0.3003 -0.8970  0.2556
   60SAPC   H3Y 4658   4.478   1.050   6.735  0.2695  0.0875  0.7381
   60SAPC   C34 4659   4.506   0.922   6.565  0.4948  0.1895  0.7927
   60SAPC   H4X 4660   4.406   0.955   6.529  0.3087 -1.5724 -0.4397
   60SAPC   H4Y 4661   4.524   0.813   6.560 -1.1707 -0.1547  1.7070
   60SAPC   C35 4662   4.611   0.999   6.476 -0.3966 -0.7498  0.1257
   60SAPC   H5X 4663   4.712   0.952   6.485 -1.2574 -3.0341 -1.2891
   60SAPC   H5Y 4664   4.619   1.109   6.491  3.6309 -0.7208 -0.9489
   60SAPC   C36 4665   4.577   0.989   6.325  0.0897  0.1014 -0.2057
   60SAPC   H6X 4666   4.473   1.023   6.309  0.5085  1.5547  0.0178
   60SAPC   H6Y 4667   4.587   0.884   6.291 -1.6501  0.1289 -0.8770
   60SAPC   C37 4668   4.657   1.083   6.241  0.0053 -0.2413  0.5318
   60SAPC   H7X 4669   4.767   1.070   6.256 -0.7691 -4.9715  4.8955
   60SAPC   H7Y 4670   4.638   1.187   6.274  0.4853  0.0636 -0.1168
   60SAPC   C38 4671   4.623   1.073   6.093 -0.1817 -0.8553  0.0968
   60SAPC   H8X 4672   4.678   1.160   6.051 -1.1754  0.4044  1.3181
   60SAPC   H8Y 4673   4.517   1.095   6.066 -0.1685  1.0413  1.3795
   60SAPC   C39 4674   4.666   0.943   6.020 -0.0057 -0.2381  0.5620
   60SAPC   H9X 4675   4.578   0.876   6.015 -1.3026  1.4969 -1.6543
   60SAPC   H9Y 4676   4.742   0.886   6.076 -2.0606  0.2083  4.0947
   60SAPC  C310 4677   4.696   0.968   5.871 -0.2226  0.5397 -0.1615
   60SAPC  H10X 4678   4.805   0.986   5.858  0.1814 -1.4485  0.0958
   60SAPC  H10Y 4679   4.632   1.048   5.828 -2.2417 -1.4666 -1.0733
   60SAPC  C311 4680   4.670   0.840   5.789 -0.3810 -0.1819  0.6874
   60SAPC  H11X 4681   4.564   0.812   5.769  0.1354  0.0728 -3.0318
   60SAPC  H11Y 4682   4.717   0.752   5.838  1.0993  0.7756  1.0429
   60SAPC  C312 4683   4.739   0.840   5.648 -0.3907  0.6667 -0.0807
   60SAPC  H12X 4684   4.847   0.862   5.665 -0.7710  2.7577 -0.1691
   60SAPC  H12Y 4685   4.709   0.932   5.594 -0.0369  2.2409  2.2275
   60SAPC  C313 4686   4.722   0.707   5.580  0.1527  0.2255  0.0805
   60SAPC  H13X 4687   4.625   0.703   5.527  0.2058 -1.5229  0.0742
   60SAPC  H13Y 4688   4.742   0.626   5.653  1.6676 -0.3369 -0.9087
   60SAPC  C314 4689   4.832   0.683   5.476 -1.4806  0.7566  0.3384
   60SAPC  H14X 4690   4.938   0.684   5.511 -1.4382  2.6419  0.2465
   60SAPC  H14Y 4691   4.829   0.776   5.416  0.4029 -0.1472 -1.2853
   60SAPC  C315 4692   4.810   0.567   5.372  0.9887  0.7063  0.0379
   60SAPC  H15X 4693   4.890   0.576   5.295  0.1965  3.2890 -0.5700
   60SAPC  H15Y 4694   4.712   0.584   5.324  0.6311 -0.3335  0.3693
   60SAPC  C316 4695   4.803   0.429   5.444 -0.5100 -0.1462 -0.1959
   60SAPC  H16X 4696   4.749   0.442   5.540 -2.3387  1.4991 -1.3900
   60SAPC  H16Y 4697   4.903   0.389   5.471 -0.8276 -0.4172  0.6221
   60SAPC  C317 4698   4.732   0.316   5.368  0.9473 -0.4965  0.2623
   60SAPC  H17X 4699   4.721   0.225   5.432 -1.1366 -0.4928 -0.0183
   60SAPC  H17Y 4700   4.792   0.281   5.281  0.4819  0.0080 -0.2655
   60SAPC  C318 4701   4.592   0.363   5.316  0.0203  0.1729  0.1168
   60SAPC  H18X 4702   4.545   0.273   5.272 -1.7351  0.2936  1.6089
   60SAPC  H18Y 4703   4.602   0.446   5.243  1.2681  1.4609  1.6580
   60SAPC  H18Z 4704   4.526   0.384   5.403  0.5273 -1.5208  0.9680
   61SAPC     N 4705   2.734   6.211   7.952 -0.2325 -0.0193 -0.0962
   61SAPC   C12 4706   2.657   6.194   7.823 -0.1256  0.0110  0.4300
   61SAPC  H12A 4707   2.639   6.296   7.792 -0.9873 -0.1520  0.3896
   61SAPC  H12B 4708   2.566   6.137   7.834  1.1522 -2.0828  0.9533
   61SAPC   C13 4709   2.872   6.277   7.934 -0.6818 -0.2823  0.9916
   61SAPC  H13A 4710   2.933   6.213   7.872 -1.2943  0.4836 -0.4230
   61SAPC  H13B 4711   2.863   6.375   7.889 -0.2337 -1.3442 -1.5646
   61SAPC  H13C 4712   2.931   6.296   8.023  0.2268 -0.5693  0.4610
   61SAPC   C14 4713   2.649   6.295   8.047  0.0517  0.1865 -0.3338
   61SAPC  H14A 4714   2.625   6.392   8.005 -0.8683  0.8768  1.6656
   61SAPC  H14B 4715   2.555   6.247   8.070  0.3553 -0.1347  0.2608
   61SAPC  H14C 4716   2.712   6.319   8.130 -0.2463  1.7037 -0.5237
   61SAPC   C15 4717   2.759   6.078   8.017 -0.1547 -0.1152 -0.4093
   61SAPC  H15A 4718   2.814   6.108   8.105  1.4799  1.2596 -1.8232
   61SAPC  H15B 4719   2.662   6.039   8.046 -0.2246  0.9598  0.9038
   61SAPC  H15C 4720   2.813   6.022   7.943  1.7787  2.6549 -1.2116
   61SAPC   C11 4721   2.739   6.120   7.705 -0.1483 -0.4222  0.6936
   61SAPC  H11A 4722   2.831   6.177   7.679  0.2008 -0.7451  1.2129
   61SAPC  H11B 4723   2.686   6.134   7.609 -1.5911  0.7212  1.6194
   61SAPC     P 4724   2.638   5.883   7.700 -0.1991 -0.4247  0.2678
   61SAPC   O13 4725   2.591   5.813   7.819 -0.2052  0.8147 -0.3448
   61SAPC   O14 4726   2.531   5.965   7.643 -0.1800 -0.3754  0.7175
   61SAPC   O12 4727   2.764   5.978   7.737 -0.3010 -0.5263  0.4779
   61SAPC   O11 4728   2.696   5.780   7.593  0.2555  0.1020  0.3129
   61SAPC    C1 4729   2.835   5.780   7.562  0.4718 -0.5918  0.4936
   61SAPC    HA 4730   2.897   5.783   7.654 -0.2205  0.6096  0.9400
   61SAPC    HB 4731   2.865   5.684   7.515 -0.5593 -0.5588 -0.2879
   61SAPC    C2 4732   2.887   5.891   7.466  0.3369 -0.6948  0.4549
   61SAPC    HS 4733   2.853   5.993   7.495 -1.3468 -0.5669 -1.7545
   61SAPC   O21 4734   2.847   5.866   7.329  0.0761  0.0588 -0.1735
   61SAPC   C21 4735   2.731   5.921   7.284  0.2644 -0.1549 -0.1361
   61SAPC   O22 4736   2.664   5.994   7.355  0.6915 -0.2459  0.7633
   61SAPC   C22 4737   2.697   5.865   7.146  1.1054 -0.3622 -0.2764
   61SAPC   H2R 4738   2.765   5.912   7.072  0.9413 -2.1071 -1.5889
   61SAPC   H2S 4739   2.710   5.755   7.156  0.8519 -0.5763 -2.0292
   61SAPC    C3 4740   3.043   5.902   7.469 -0.9297  0.0229 -0.0678
   61SAPC    HX 4741   3.080   5.800   7.445 -1.9514 -0.6959  1.2576
   61SAPC    HY 4742   3.080   5.919   7.572 -1.8911 -3.6609  1.0300
   61SAPC   O31 4743   3.089   6.016   7.393 -0.3600  0.0790 -0.0665
   61SAPC   C31 4744   3.193   5.991   7.318 -0.5541 -0.0057 -0.0745
   61SAPC   O32 4745   3.258   5.888   7.317  0.4616  0.2298  0.1604
   61SAPC   C32 4746   3.222   6.116   7.238 -0.0370  0.0818  0.5158
   61SAPC   H2X 4747   3.252   6.193   7.312  1.3788 -0.1117  0.1559
   61SAPC   H2Y 4748   3.135   6.156   7.181  0.8094 -0.9634 -1.6184
   61SAPC   C23 4749   2.549   5.904   7.126  0.3260  0.2685  0.2891
   61SAPC   H3R 4750   2.530   6.013   7.135 -1.4712  0.0239 -0.1599
   61SAPC   H3S 4751   2.492   5.854   7.207  1.7315 -0.7447  0.6972
   61SAPC   C24 4752   2.486   5.844   6.998  0.2540 -0.2344 -0.2653
   61SAPC   H4R 4753   2.378   5.869   7.009  0.1512 -0.0313 -1.5602
   61SAPC   H4S 4754   2.502   5.734   7.007 -2.1375 -0.6125  0.1078
   61SAPC   C25 4755   2.538   5.905   6.864  0.3820  0.7640 -0.2237
   61SAPC   H5R 4756   2.547   6.014   6.875  3.1152  0.3262  3.5777
   61SAPC   C26 4757   2.574   5.830   6.756  0.0316 -0.7099  0.1307
   61SAPC   H6R 4758   2.593   5.892   6.668  0.0534  1.8995  1.8521
   61SAPC   C27 4759   2.557   5.682   6.732 -0.6970  0.8508 -0.3471
   61SAPC   H7R 4760   2.538   5.659   6.625  1.2914 -0.3080 -0.5111
   61SAPC   H7S 4761   2.472   5.635   6.788  0.3313 -0.5226  0.1175
   61SAPC   C28 4762   2.685   5.613   6.784 -0.2811 -0.3724  0.0623
   61SAPC   H8R 4763   2.701   5.638   6.889 -2.8794 -0.7218  0.6027
   61SAPC   C29 4764   2.776   5.543   6.714  0.4362  0.7444 -0.5742
   61SAPC   H9R 4765   2.859   5.498   6.771 -0.2974  1.9434  1.5212
   61SAPC  C210 4766   2.774   5.512   6.565  0.2037  0.1005  0.0489
   61SAPC  H10R 4767   2.669   5.488   6.537 -0.4004 -1.1050  2.9672
   61SAPC  H10S 4768   2.829   5.417   6.551  0.1616  0.0088  0.4846
   61SAPC  C211 4769   2.844   5.627   6.500  0.3931  0.7556  0.4037
   61SAPC  H11R 4770   2.949   5.642   6.528  0.3526  0.5810  0.6527
   61SAPC  C212 4771   2.799   5.692   6.396  0.2183 -0.4128 -0.0666
   61SAPC  H12R 4772   2.875   5.764   6.360  2.4908 -1.8404  1.6090
   61SAPC  C213 4773   2.671   5.676   6.317 -0.2352  0.6673  0.0487
   61SAPC  H13R 4774   2.600   5.644   6.397  0.8515 -3.6826 -0.4489
   61SAPC  H13S 4775   2.668   5.587   6.250  0.2440 -0.1170  1.0295
   61SAPC  C214 4776   2.638   5.800   6.238  0.1586  0.1126  0.7320
   61SAPC  H14R 4777   2.629   5.896   6.291  1.0455 -0.4492  1.9467
   61SAPC  C215 4778   2.659   5.796   6.108 -0.0641 -0.5648 -0.2524
   61SAPC  H15R 4779   2.621   5.883   6.053 -0.8905 -0.2316  0.8099
   61SAPC  C216 4780   2.694   5.682   6.013  0.2369 -0.2148  0.4949
   61SAPC  H16R 4781   2.658   5.703   5.910 -0.5996 -0.2884  0.7633
   61SAPC  H16S 4782   2.634   5.591   6.034  2.8335 -1.8534  1.2789
   61SAPC  C217 4783   2.838   5.636   6.002 -0.7011 -0.0604  0.8322
   61SAPC  H17R 4784   2.872   5.613   6.105 -0.4682 -1.8586  0.3904
   61SAPC  H17S 4785   2.905   5.718   5.968 -2.1075  0.4716 -0.8603
   61SAPC  C218 4786   2.850   5.511   5.912  0.5179  0.8946  0.1304
   61SAPC  H18R 4787   2.761   5.446   5.927  2.0801 -1.0758  1.3587
   61SAPC  H18S 4788   2.934   5.451   5.953  0.2542  1.7971  2.1412
   61SAPC  C219 4789   2.867   5.547   5.762 -0.3494  0.6609 -0.0765
   61SAPC  H19R 4790   2.956   5.492   5.724 -1.6839 -0.1781 -2.1643
   61SAPC  H19S 4791   2.901   5.653   5.752  0.2778  0.4372 -0.3547
   61SAPC  C220 4792   2.748   5.529   5.663  0.2101 -0.4771  0.2875
   61SAPC  H20R 4793   2.765   5.586   5.569 -1.0659  1.7252  1.3031
   61SAPC  H20S 4794   2.661   5.586   5.702 -0.3605  0.2724 -1.9115
   61SAPC  H20T 4795   2.716   5.423   5.655 -0.3551 -0.1629 -3.1495
   61SAPC   C33 4796   3.344   6.105   7.142 -0.4749 -0.2905 -0.4428
   61SAPC   H3X 4797   3.325   6.013   7.082  0.6171  0.8994 -2.7546
   61SAPC   H3Y 4798   3.432   6.089   7.207  0.4424  0.3475 -1.4858
   61SAPC   C34 4799   3.372   6.222   7.050  1.1230 -0.6004 -0.6834
   61SAPC   H4X 4800   3.459   6.206   6.982  0.9155 -2.0053 -0.6463
   61SAPC   H4Y 4801   3.389   6.311   7.115 -1.3182  0.0269 -0.8062
   61SAPC   C35 4802   3.247   6.276   6.971 -0.1325  0.2876  0.1124
   61SAPC   H5X 4803   3.180   6.335   7.037  2.8489  0.8595  2.9198
   61SAPC   H5Y 4804   3.188   6.193   6.928  0.2897  1.0448 -2.0738
   61SAPC   C36 4805   3.285   6.366   6.855  0.4824  0.1052 -0.3531
   61SAPC   H6X 4806   3.350   6.313   6.782  0.1323  0.4534 -0.9304
   61SAPC   H6Y 4807   3.337   6.454   6.898 -1.8263  1.0989  0.6030
   61SAPC   C37 4808   3.159   6.426   6.787 -0.4834 -0.0225  0.3906
   61SAPC   H7X 4809   3.133   6.503   6.862 -0.3180  2.3267 -1.8149
   61SAPC   H7Y 4810   3.083   6.345   6.781 -0.0795 -0.3736  0.0010
   61SAPC   C38 4811   3.185   6.502   6.655  0.5623 -0.3323  0.7272
   61SAPC   H8X 4812   3.229   6.599   6.688  0.4883 -0.0933  0.1355
   61SAPC   H8Y 4813   3.085   6.524   6.611 -0.3729 -3.0327  1.3012
   61SAPC   C39 4814   3.260   6.420   6.554  0.2725  0.0018 -0.0484
   61SAPC   H9X 4815   3.199   6.333   6.521  2.7977 -1.3099 -1.5862
   61SAPC   H9Y 4816   3.356   6.378   6.591 -0.7092 -0.5974  1.9762
   61SAPC  C310 4817   3.295   6.499   6.427  0.8158 -0.5198 -0.1134
   61SAPC  H10X 4818   3.374   6.576   6.443 -2.5154  3.1502  0.5039
   61SAPC  H10Y 4819   3.206   6.558   6.397 -0.3643 -1.2820  1.6689
   61SAPC  C311 4820   3.326   6.423   6.299  0.3207 -0.0011  0.4570
   61SAPC  H11X 4821   3.227   6.383   6.268 -0.4063  2.4371 -0.6103
   61SAPC  H11Y 4822   3.397   6.343   6.326  1.3818  0.4124 -0.9789
   61SAPC  C312 4823   3.388   6.509   6.184  0.5443  0.1156 -0.5626
   61SAPC  H12X 4824   3.470   6.579   6.209 -1.4968  2.8186 -1.0664
   61SAPC  H12Y 4825   3.309   6.571   6.136  0.9023  0.5992 -0.5352
   61SAPC  C313 4826   3.439   6.426   6.066 -0.3592 -0.1693 -0.1076
   61SAPC  H13X 4827   3.365   6.350   6.031 -2.1027  2.0380 -1.5619
   61SAPC  H13Y 4828   3.532   6.382   6.107 -1.6314 -0.8627  2.2037
   61SAPC  C314 4829   3.473   6.526   5.954  0.2668 -0.4248 -0.4156
   61SAPC  H14X 4830   3.536   6.609   5.992 -0.9818  0.2180  0.2840
   61SAPC  H14Y 4831   3.373   6.568   5.929 -0.0468 -0.5683  0.5449
   61SAPC  C315 4832   3.533   6.454   5.833  0.5493  0.1189 -0.7930
   61SAPC  H15X 4833   3.614   6.381   5.853  1.1387  0.7267 -0.9152
   61SAPC  H15Y 4834   3.578   6.540   5.778 -1.4695  1.8562  0.1344
   61SAPC  C316 4835   3.430   6.396   5.733  0.1707  0.1360 -0.7272
   61SAPC  H16X 4836   3.350   6.469   5.711  0.2544  0.2362 -0.6968
   61SAPC  H16Y 4837   3.378   6.312   5.785 -0.7846  0.5282 -1.0292
   61SAPC  C317 4838   3.494   6.354   5.601  0.4645  0.0066 -0.4370
   61SAPC  H17X 4839   3.564   6.270   5.619  0.9839  0.4956 -0.1602
   61SAPC  H17Y 4840   3.547   6.431   5.541  2.7658 -0.4821  0.8577
   61SAPC  C318 4841   3.391   6.292   5.502  0.2935  0.2447 -0.5921
   61SAPC  H18X 4842   3.432   6.284   5.399  0.5086  0.6227 -0.5377
   61SAPC  H18Y 4843   3.307   6.364   5.511 -0.5197 -0.7885  0.5132
   61SAPC  H18Z 4844   3.352   6.195   5.540 -1.2204  0.6055 -1.1296
   62SAPC     N 4845   3.048   3.979   7.577 -0.7745 -0.6107 -0.3038
   62SAPC   C12 4846   3.072   4.123   7.575 -0.1982 -0.8749 -0.3615
   62SAPC  H12A 4847   3.026   4.159   7.666  0.0783 -2.6020  0.5034
   62SAPC  H12B 4848   3.020   4.177   7.496  3.1879 -0.1226 -2.2992
   62SAPC   C13 4849   2.903   3.955   7.575 -0.6256 -1.1156 -0.0981
   62SAPC  H13A 4850   2.853   4.018   7.646 -2.4751 -3.6875  0.9934
   62SAPC  H13B 4851   2.863   3.988   7.480  1.2913  0.9028 -0.2922
   62SAPC  H13C 4852   2.875   3.852   7.590 -1.5642 -0.6045  1.9012
   62SAPC   C14 4853   3.112   3.913   7.458 -0.1582  0.2140  0.1780
   62SAPC  H14A 4854   3.220   3.921   7.464 -0.1004 -1.3381  2.5875
   62SAPC  H14B 4855   3.106   3.805   7.463  1.5327  0.0650 -0.3541
   62SAPC  H14C 4856   3.083   3.961   7.366 -1.8450  0.1783  0.6618
   62SAPC   C15 4857   3.095   3.916   7.707  0.9408 -1.1206  0.0476
   62SAPC  H15A 4858   3.018   3.922   7.783  1.9534 -4.3091  1.5131
   62SAPC  H15B 4859   3.121   3.813   7.687 -1.2744 -1.5983 -0.6001
   62SAPC  H15C 4860   3.184   3.960   7.749  0.0763  2.4913 -1.5230
   62SAPC   C11 4861   3.222   4.162   7.571 -0.0314 -0.0080  0.8316
   62SAPC  H11A 4862   3.281   4.109   7.649 -0.3339 -1.9304 -0.1991
   62SAPC  H11B 4863   3.233   4.271   7.591  1.6545 -0.2829  1.5670
   62SAPC     P 4864   3.416   4.105   7.406 -0.0022  0.0377 -0.1982
   62SAPC   O13 4865   3.516   4.197   7.472  0.2894  0.1429  0.1924
   62SAPC   O14 4866   3.436   3.962   7.443  0.0750  0.6881 -0.9097
   62SAPC   O12 4867   3.272   4.146   7.442  0.4139  0.6472  0.1722
   62SAPC   O11 4868   3.423   4.120   7.245 -0.4347  0.6297  0.1586
   62SAPC    C1 4869   3.381   4.005   7.164 -0.2950  0.2418 -0.1007
   62SAPC    HA 4870   3.468   3.963   7.111  1.1016  1.2564  1.2949
   62SAPC    HB 4871   3.329   3.924   7.220  0.2942  0.3177  0.5638
   62SAPC    C2 4872   3.267   4.047   7.064 -0.2273  0.5548 -0.0010
   62SAPC    HS 4873   3.222   3.952   7.028  2.1199 -0.1933 -1.1055
   62SAPC   O21 4874   3.321   4.120   6.955 -0.3170  0.3082 -0.0191
   62SAPC   C21 4875   3.406   4.058   6.880 -1.0035 -0.1593  0.3239
   62SAPC   O22 4876   3.434   3.939   6.882 -0.3687  0.1909 -0.0220
   62SAPC   C22 4877   3.471   4.156   6.783  0.1379 -0.2565  0.3518
   62SAPC   H2R 4878   3.566   4.116   6.742 -1.4957 -1.2383 -2.7226
   62SAPC   H2S 4879   3.398   4.157   6.699 -0.6265 -0.4730  0.9972
   62SAPC    C3 4880   3.156   4.131   7.132 -0.2945 -0.0850  0.3206
   62SAPC    HX 4881   3.193   4.236   7.135  2.4763 -1.0231  1.2982
   62SAPC    HY 4882   3.143   4.097   7.236  0.7742  2.8115  1.5129
   62SAPC   O31 4883   3.035   4.110   7.057 -0.0727  0.0132 -0.2177
   62SAPC   C31 4884   2.927   4.080   7.119 -0.0203  0.3877  0.2435
   62SAPC   O32 4885   2.910   4.080   7.240  0.5481  0.2122  0.4389
   62SAPC   C32 4886   2.820   4.022   7.017 -0.8878  0.0125 -0.3098
   62SAPC   H2X 4887   2.726   4.007   7.074  1.9623 -0.1123  4.8981
   62SAPC   H2Y 4888   2.862   3.926   6.979  2.1412 -0.3676  3.3910
   62SAPC   C23 4889   3.504   4.288   6.860 -0.4125  0.4930  0.1789
   62SAPC   H3R 4890   3.574   4.257   6.940  0.5472 -0.3107 -0.9373
   62SAPC   H3S 4891   3.406   4.333   6.888 -0.5445  0.0881  0.3762
   62SAPC   C24 4892   3.585   4.393   6.779  0.2188 -0.3676  0.2009
   62SAPC   H4R 4893   3.592   4.488   6.836 -2.4801 -2.0678  3.7971
   62SAPC   H4S 4894   3.518   4.424   6.696  0.0250  1.3605  0.9535
   62SAPC   C25 4895   3.713   4.348   6.710 -0.1920  0.5328  0.5564
   62SAPC   H5R 4896   3.806   4.337   6.768  1.8041  1.7165 -2.1880
   62SAPC   C26 4897   3.728   4.305   6.577 -0.4306 -0.2492 -0.3347
   62SAPC   H6R 4898   3.832   4.271   6.560  0.4929  0.7843  2.5726
   62SAPC   C27 4899   3.630   4.309   6.464 -0.4741  0.0827  0.2765
   62SAPC   H7R 4900   3.642   4.404   6.408  0.0075 -1.0239 -1.6114
   62SAPC   H7S 4901   3.526   4.316   6.502 -1.5031  0.7274 -2.3993
   62SAPC   C28 4902   3.655   4.189   6.377  1.5851 -0.2830  0.3105
   62SAPC   H8R 4903   3.596   4.103   6.411 -1.6368  1.1815 -1.1721
   62SAPC   C29 4904   3.706   4.191   6.252 -0.3185  0.4865 -0.2640
   62SAPC   H9R 4905   3.705   4.095   6.198  1.0084  0.2655  0.0734
   62SAPC  C210 4906   3.771   4.313   6.181 -0.1899 -0.3029 -0.4898
   62SAPC  H10R 4907   3.882   4.299   6.186 -0.2598 -0.7533 -0.0946
   62SAPC  H10S 4908   3.761   4.404   6.245 -3.3204  0.1074 -1.4202
   62SAPC  C211 4909   3.706   4.318   6.043  0.4381  0.1982 -0.7622
   62SAPC  H11R 4910   3.613   4.263   6.025 -0.3872  1.1599  0.3939
   62SAPC  C212 4911   3.758   4.403   5.949  0.9505  0.4240 -0.2778
   62SAPC  H12R 4912   3.712   4.414   5.850  1.1432 -0.5196 -0.4804
   62SAPC  C213 4913   3.877   4.486   5.967 -0.2782 -0.7000 -0.2560
   62SAPC  H13R 4914   3.957   4.425   5.918 -0.7456 -2.1765  0.7591
   62SAPC  H13S 4915   3.908   4.498   6.072  0.6615  1.6531 -0.7272
   62SAPC  C214 4916   3.858   4.629   5.911  0.0151  0.6354 -0.5855
   62SAPC  H14R 4917   3.829   4.707   5.983 -2.1636  2.3027 -3.1317
   62SAPC  C215 4918   3.892   4.658   5.784  1.0051 -0.1556  0.1472
   62SAPC  H15R 4919   3.874   4.758   5.743 -0.4813  0.2096  1.5799
   62SAPC  C216 4920   3.902   4.556   5.680 -0.6377  0.1913 -0.1655
   62SAPC  H16R 4921   3.842   4.585   5.591 -0.4112 -0.0255 -0.3919
   62SAPC  H16S 4922   3.865   4.461   5.725 -0.6100  0.3996  0.3042
   62SAPC  C217 4923   4.051   4.557   5.656  0.1434  0.1109  0.1681
   62SAPC  H17R 4924   4.111   4.535   5.747 -0.3304 -0.6965  0.2976
   62SAPC  H17S 4925   4.077   4.658   5.618 -1.5376 -0.3609 -2.5647
   62SAPC  C218 4926   4.103   4.454   5.558 -0.6208 -0.1281 -0.0316
   62SAPC  H18R 4927   4.068   4.351   5.583 -2.9198  0.4503 -0.6473
   62SAPC  H18S 4928   4.213   4.469   5.565 -0.1831 -1.2250 -3.0807
   62SAPC  C219 4929   4.054   4.476   5.417 -0.1730 -0.4156  0.1794
   62SAPC  H19R 4930   3.946   4.499   5.424  0.3018  1.4541  2.3539
   62SAPC  H19S 4931   4.083   4.395   5.345  0.9813 -0.5150  0.7223
   62SAPC  C220 4932   4.117   4.592   5.339  0.3169 -0.6618  0.2696
   62SAPC  H20R 4933   4.224   4.609   5.364 -0.3703  1.1488  2.3282
   62SAPC  H20S 4934   4.057   4.679   5.372  1.5511  0.2176  0.2711
   62SAPC  H20T 4935   4.107   4.583   5.229  0.9506  1.0171  0.0396
   62SAPC   C33 4936   2.802   4.113   6.890  0.3319 -0.0428  0.4790
   62SAPC   H3X 4937   2.864   4.067   6.810  0.6522 -0.2571  0.8441
   62SAPC   H3Y 4938   2.832   4.219   6.893 -1.6154  0.5964 -0.6917
   62SAPC   C34 4939   2.660   4.103   6.830 -0.4827  0.3674  0.1730
   62SAPC   H4X 4940   2.586   4.139   6.905 -0.0921  2.2209 -0.2965
   62SAPC   H4Y 4941   2.635   3.996   6.814  1.0126  0.2887 -1.9633
   62SAPC   C35 4942   2.636   4.182   6.701  0.0646  0.2028  0.2855
   62SAPC   H5X 4943   2.677   4.284   6.707  0.9144 -0.1517  0.6312
   62SAPC   H5Y 4944   2.526   4.196   6.688 -0.0144 -1.3115 -1.0132
   62SAPC   C36 4945   2.695   4.114   6.572 -0.1800 -0.9411  0.2323
   62SAPC   H6X 4946   2.658   4.010   6.555 -3.9986  0.6232 -2.0964
   62SAPC   H6Y 4947   2.803   4.094   6.591 -0.2261 -0.0024  1.6384
   62SAPC   C37 4948   2.646   4.185   6.444  0.7236  0.6803 -0.4298
   62SAPC   H7X 4949   2.677   4.291   6.457  0.2328  0.9910 -1.6259
   62SAPC   H7Y 4950   2.538   4.174   6.420  0.8356  0.4140 -0.8391
   62SAPC   C38 4951   2.732   4.133   6.333  0.2716 -0.4582 -0.2435
   62SAPC   H8X 4952   2.698   4.035   6.293 -0.8450  0.3685 -1.4003
   62SAPC   H8Y 4953   2.841   4.125   6.353  0.8144 -0.8833 -3.0708
   62SAPC   C39 4954   2.718   4.220   6.205  1.1221 -0.8951  0.2242
   62SAPC   H9X 4955   2.693   4.327   6.221 -1.2334 -0.5154 -4.3371
   62SAPC   H9Y 4956   2.644   4.185   6.130  1.9633  0.1068 -1.1127
   62SAPC  C310 4957   2.849   4.229   6.124 -0.7041  0.3349 -0.5718
   62SAPC  H10X 4958   2.905   4.135   6.142 -1.7621 -0.1386  0.3953
   62SAPC  H10Y 4959   2.894   4.319   6.170 -1.2616  0.7451 -0.8109
   62SAPC  C311 4960   2.822   4.256   5.976  0.1007  0.3746  0.1939
   62SAPC  H11X 4961   2.771   4.161   5.949  0.5065  0.5886 -1.4251
   62SAPC  H11Y 4962   2.918   4.270   5.920 -0.3962 -1.3682 -1.2037
   62SAPC  C312 4963   2.736   4.376   5.936  0.0746  0.4163 -0.3499
   62SAPC  H12X 4964   2.773   4.465   5.992 -1.6558  0.5499  0.6287
   62SAPC  H12Y 4965   2.635   4.355   5.977  0.2258  1.5693  0.6939
   62SAPC  C313 4966   2.742   4.416   5.787  0.1234  0.4410  0.0892
   62SAPC  H13X 4967   2.673   4.340   5.744  1.0305  1.3141 -3.2234
   62SAPC  H13Y 4968   2.847   4.415   5.753 -0.8067  1.0908 -3.1194
   62SAPC  C314 4969   2.667   4.551   5.760 -0.0376 -0.0179 -0.2358
   62SAPC  H14X 4970   2.726   4.633   5.807  1.3836 -0.8796 -0.4457
   62SAPC  H14Y 4971   2.571   4.558   5.817  0.0300  0.2585 -0.1557
   62SAPC  C315 4972   2.632   4.585   5.615 -0.4394  0.3072  0.2331
   62SAPC  H15X 4973   2.722   4.620   5.560  1.5617 -0.6668  2.7031
   62SAPC  H15Y 4974   2.569   4.677   5.615 -0.2058  0.4692 -0.0108
   62SAPC  C316 4975   2.571   4.473   5.533  0.1682  0.4875  0.5430
   62SAPC  H16X 4976   2.478   4.443   5.586  0.1307 -1.9088 -0.7060
   62SAPC  H16Y 4977   2.627   4.376   5.530  1.8773  1.4656 -1.0159
   62SAPC  C317 4978   2.543   4.519   5.388  0.1794  0.5386  0.1261
   62SAPC  H17X 4979   2.643   4.539   5.342  1.4681  1.0283  2.9426
   62SAPC  H17Y 4980   2.477   4.608   5.397  0.7773  0.9607  0.3710
   62SAPC  C318 4981   2.475   4.405   5.305 -0.0926  0.0741 -0.0882
   62SAPC  H18X 4982   2.520   4.305   5.322 -0.9029  0.1680  3.2281
   62SAPC  H18Y 4983   2.492   4.436   5.200 -0.8630 -0.6795 -0.4524
   62SAPC  H18Z 4984   2.364   4.401   5.313 -0.0305 -1.2358  0.2478
   63SAPC     N 4985   4.475   6.740   7.871 -0.4085 -0.2520  0.3017
   63SAPC   C12 4986   4.470   6.879   7.811  0.4424  0.5931 -0.5095
   63SAPC  H12A 4987   4.366   6.897   7.788  0.4701 -0.4493 -1.5437
   63SAPC  H12B 4988   4.524   6.873   7.718 -0.3036 -0.8737 -0.8774
   63SAPC   C13 4989   4.621   6.694   7.889  0.7850  0.2952  0.0918
   63SAPC  H13A 4990   4.615   6.587   7.898  1.2112  0.4382  3.9933
   63SAPC  H13B 4991   4.682   6.714   7.802  1.5683 -2.0081  0.0393
   63SAPC  H13C 4992   4.676   6.735   7.973  2.4320 -1.4600 -0.0716
   63SAPC   C14 4993   4.407   6.734   8.006  0.5479 -0.7730  0.0081
   63SAPC  H14A 4994   4.305   6.767   7.998  1.0493  0.6694 -1.0976
   63SAPC  H14B 4995   4.409   6.633   8.043  0.2633 -1.1840 -1.0586
   63SAPC  H14C 4996   4.475   6.790   8.068  0.5187 -1.0502  0.2903
   63SAPC   C15 4997   4.404   6.646   7.771  0.4465 -0.0083  1.1106
   63SAPC  H15A 4998   4.302   6.681   7.765  0.7291  0.7600  0.5782
   63SAPC  H15B 4999   4.449   6.642   7.673 -1.2629 -0.2869  0.2977
   63SAPC  H15C 5000   4.393   6.545   7.806  3.0936 -0.0137  2.1314
   63SAPC   C11 5001   4.536   6.996   7.888  0.8311 -0.2482  0.1744
   63SAPC  H11A 5002   4.497   6.997   7.992  0.8512  1.6613  0.1980
   63SAPC  H11B 5003   4.502   7.097   7.856  0.3062 -0.9268 -1.4989
   63SAPC     P 5004   4.769   7.034   7.779  0.0438 -0.2405  0.0470
   63SAPC   O13 5005   4.720   7.168   7.735  0.2472 -0.8541 -0.4233
   63SAPC   O14 5006   4.906   7.024   7.836  0.0456 -0.3078 -0.8162
   63SAPC   O12 5007   4.679   6.991   7.898  0.4035  0.0407 -0.0831
   63SAPC   O11 5008   4.744   6.933   7.661 -0.4812  0.3667  0.7302
   63SAPC    C1 5009   4.852   6.876   7.580 -0.0522  0.2184 -0.5950
   63SAPC    HA 5010   4.934   6.834   7.642 -0.3680  1.3821  0.6449
   63SAPC    HB 5011   4.808   6.793   7.519 -0.7639 -1.6319  2.2458
   63SAPC    C2 5012   4.897   6.982   7.474 -0.8212  0.0550  0.2424
   63SAPC    HS 5013   4.931   7.069   7.534  3.9005 -2.7037  2.1342
   63SAPC   O21 5014   4.787   7.002   7.380 -0.0550  0.3966 -0.3202
   63SAPC   C21 5015   4.800   7.114   7.318  0.1680  0.8567  0.1783
   63SAPC   O22 5016   4.897   7.185   7.311 -0.3407  0.4142  0.7155
   63SAPC   C22 5017   4.671   7.153   7.247  0.1619  0.3560  0.3700
   63SAPC   H2R 5018   4.633   7.058   7.203  1.4972 -0.5434  1.0781
   63SAPC   H2S 5019   4.609   7.193   7.330 -0.0704 -0.4016  0.5648
   63SAPC    C3 5020   5.018   6.918   7.406 -0.6779  0.1011  0.2276
   63SAPC    HX 5021   5.096   6.906   7.485 -0.4246 -1.0022 -0.1667
   63SAPC    HY 5022   5.050   7.002   7.342  0.2754 -0.1311  0.3682
   63SAPC   O31 5023   4.983   6.797   7.332 -1.0371  0.0947 -0.4412
   63SAPC   C31 5024   5.063   6.693   7.334 -0.3239 -0.5293 -0.8227
   63SAPC   O32 5025   5.165   6.687   7.405 -0.0091 -0.1940  0.6943
   63SAPC   C32 5026   5.006   6.583   7.253  0.3828 -0.4590  0.2449
   63SAPC   H2X 5027   4.897   6.601   7.255  0.4340 -0.1742  0.4561
   63SAPC   H2Y 5028   5.031   6.489   7.306  0.4155 -0.3354  0.4482
   63SAPC   C23 5029   4.686   7.263   7.143  0.2530  0.3799 -0.0851
   63SAPC   H3R 5030   4.716   7.357   7.194 -1.1156  0.7819  0.0121
   63SAPC   H3S 5031   4.588   7.275   7.092  0.1702 -1.0380 -0.2937
   63SAPC   C24 5032   4.779   7.228   7.018 -0.2139  0.0737  0.8034
   63SAPC   H4R 5033   4.884   7.219   7.053  0.4563  1.2199 -0.8115
   63SAPC   H4S 5034   4.777   7.313   6.947  0.2018 -0.4988  0.0831
   63SAPC   C25 5035   4.751   7.099   6.941 -0.3066  0.6748  0.0651
   63SAPC   H5R 5036   4.749   7.010   7.007  2.2737  0.7633  0.3795
   63SAPC   C26 5037   4.735   7.071   6.811 -0.4809  0.3380 -0.1116
   63SAPC   H6R 5038   4.716   6.967   6.779 -2.2597  0.2987  0.9342
   63SAPC   C27 5039   4.725   7.176   6.708 -0.4425 -0.7951 -0.5303
   63SAPC   H7R 5040   4.824   7.219   6.682 -0.9833  1.8952  1.3864
   63SAPC   H7S 5041   4.673   7.267   6.745 -0.2942  1.5025 -5.2444
   63SAPC   C28 5042   4.644   7.119   6.592 -0.5223 -0.7886  0.0478
   63SAPC   H8R 5043   4.540   7.099   6.622  0.3031  0.0128  4.0564
   63SAPC   C29 5044   4.685   7.098   6.470  0.6812  0.4207 -0.4112
   63SAPC   H9R 5045   4.610   7.064   6.397  1.0902 -0.0617 -0.6150
   63SAPC  C210 5046   4.831   7.122   6.426  0.3148  0.5886  0.0687
   63SAPC  H10R 5047   4.905   7.128   6.508  2.3721 -0.1235 -1.6637
   63SAPC  H10S 5048   4.835   7.226   6.385  0.8193 -0.2193 -2.1109
   63SAPC  C211 5049   4.869   7.017   6.326 -0.9754  0.3846  0.1020
   63SAPC  H11R 5050   4.848   7.041   6.221  0.8454 -1.3255 -0.7227
   63SAPC  C212 5051   4.906   6.887   6.365 -0.1094 -0.6989 -0.8003
   63SAPC  H12R 5052   4.941   6.816   6.290 -0.1530 -2.8615  1.1244
   63SAPC  C213 5053   4.908   6.835   6.505 -0.1092 -0.6191 -0.0340
   63SAPC  H13R 5054   4.839   6.894   6.569  1.6697  1.6398 -0.0804
   63SAPC  H13S 5055   5.011   6.848   6.544  0.3790  1.6048 -1.8543
   63SAPC  C214 5056   4.868   6.688   6.503  0.0192 -0.7051 -0.2269
   63SAPC  H14R 5057   4.870   6.639   6.405  0.1244 -0.9012 -0.1267
   63SAPC  C215 5058   4.828   6.619   6.605  0.4026  0.1337 -0.1004
   63SAPC  H15R 5059   4.790   6.518   6.583  0.9008  0.0599 -0.6234
   63SAPC  C216 5060   4.818   6.673   6.744  0.1660 -0.0949  1.3121
   63SAPC  H16R 5061   4.839   6.781   6.762 -0.1912  0.0440  0.9222
   63SAPC  H16S 5062   4.896   6.625   6.806  1.6610  0.4437 -0.0780
   63SAPC  C217 5063   4.682   6.653   6.802  0.7765  0.2129  0.3965
   63SAPC  H17R 5064   4.635   6.555   6.778  2.0304 -0.4603  0.5943
   63SAPC  H17S 5065   4.617   6.737   6.771  0.0346 -0.5464 -0.1663
   63SAPC  C218 5066   4.697   6.664   6.955 -0.1323 -0.1694  0.3228
   63SAPC  H18R 5067   4.782   6.731   6.980 -1.0590  0.9860  0.5065
   63SAPC  H18S 5068   4.735   6.571   7.002  0.3896 -0.0932  0.0528
   63SAPC  C219 5069   4.580   6.725   7.038 -0.3504  0.2150  0.0108
   63SAPC  H19R 5070   4.482   6.675   7.021  0.1074 -0.7243  0.0822
   63SAPC  H19S 5071   4.570   6.829   7.000  1.5778 -0.2112 -1.8154
   63SAPC  C220 5072   4.610   6.730   7.189 -0.1417 -0.0742 -0.3164
   63SAPC  H20R 5073   4.687   6.807   7.212  0.7560  1.0362 -5.7434
   63SAPC  H20S 5074   4.648   6.631   7.222  1.7998  1.3313  1.9722
   63SAPC  H20T 5075   4.518   6.752   7.248 -0.4054  3.6296 -1.8410
   63SAPC   C33 5076   5.059   6.584   7.099 -0.1969  0.0332 -0.0888
   63SAPC   H3X 5077   5.066   6.692   7.076 -0.8474  0.3700  1.2096
   63SAPC   H3Y 5078   4.977   6.545   7.034 -0.5793  1.1032 -0.2664
   63SAPC   C34 5079   5.192   6.507   7.083  0.0498 -0.1081  0.6492
   63SAPC   H4X 5080   5.176   6.410   7.133  1.1778  0.0204  1.2984
   63SAPC   H4Y 5081   5.284   6.554   7.124  0.0212 -0.0832  0.6858
   63SAPC   C35 5082   5.211   6.467   6.935  0.0344 -0.4485  0.3414
   63SAPC   H5X 5083   5.124   6.415   6.889  0.2103 -0.1454 -0.3438
   63SAPC   H5Y 5084   5.299   6.400   6.922  2.1292  2.3792 -1.2108
   63SAPC   C36 5085   5.231   6.588   6.845 -0.7217  0.3374 -0.0710
   63SAPC   H6X 5086   5.305   6.662   6.883 -0.3734 -0.1131  0.1473
   63SAPC   H6Y 5087   5.133   6.639   6.834 -1.1840 -0.1045  1.6560
   63SAPC   C37 5088   5.282   6.540   6.704 -0.6264 -0.6328  0.1946
   63SAPC   H7X 5089   5.212   6.461   6.668 -0.4342 -1.2396  1.0961
   63SAPC   H7Y 5090   5.384   6.497   6.713 -1.0156 -1.7118 -0.2915
   63SAPC   C38 5091   5.265   6.645   6.602  0.0171  0.0160  0.4610
   63SAPC   H8X 5092   5.335   6.724   6.638  0.1278  0.2237 -0.2004
   63SAPC   H8Y 5093   5.166   6.695   6.605 -0.3346 -0.6326 -0.0431
   63SAPC   C39 5094   5.303   6.595   6.455  0.1809 -0.8078 -0.1069
   63SAPC   H9X 5095   5.237   6.510   6.429 -0.9634  0.5476 -1.8834
   63SAPC   H9Y 5096   5.409   6.562   6.449  1.2060  1.6283  2.3514
   63SAPC  C310 5097   5.288   6.714   6.357  0.0378  0.6510  0.0932
   63SAPC  H10X 5098   5.344   6.790   6.417 -1.2076 -0.7721  3.2769
   63SAPC  H10Y 5099   5.181   6.745   6.358  0.4936  2.4420 -1.2246
   63SAPC  C311 5100   5.327   6.696   6.205  0.0373 -0.4931 -0.7456
   63SAPC  H11X 5101   5.438   6.697   6.206  0.0855 -0.6955 -2.4457
   63SAPC  H11Y 5102   5.294   6.787   6.150  0.4623  0.3356  0.3439
   63SAPC  C312 5103   5.266   6.582   6.127 -0.1968  0.1615  0.3108
   63SAPC  H12X 5104   5.161   6.580   6.163 -0.0378 -1.2955  0.7560
   63SAPC  H12Y 5105   5.292   6.477   6.151  0.3679  0.1434 -0.3310
   63SAPC  C313 5106   5.258   6.605   5.977 -0.0863 -0.4648 -0.4471
   63SAPC  H13X 5107   5.247   6.714   5.954  0.3216 -0.1925  0.5820
   63SAPC  H13Y 5108   5.177   6.546   5.930 -0.6984  0.5894 -0.7680
   63SAPC  C314 5109   5.389   6.568   5.902 -0.1257  0.2506  0.7244
   63SAPC  H14X 5110   5.412   6.464   5.935  2.7274  0.3285 -0.7244
   63SAPC  H14Y 5111   5.478   6.630   5.927  1.6137 -1.8603  0.0613
   63SAPC  C315 5112   5.372   6.563   5.751 -0.0274  0.3895 -0.0888
   63SAPC  H15X 5113   5.271   6.528   5.718 -0.2892 -0.0123  1.0837
   63SAPC  H15Y 5114   5.446   6.510   5.687 -0.9400  2.1269 -2.7324
   63SAPC  C316 5115   5.381   6.708   5.696  0.0400  0.2384  0.0806
   63SAPC  H16X 5116   5.454   6.776   5.743  0.3191  0.4349 -0.6188
   63SAPC  H16Y 5117   5.287   6.764   5.717  0.9516  1.9785 -0.3236
   63SAPC  C317 5118   5.404   6.713   5.546  0.2745  0.3469 -0.3668
   63SAPC  H17X 5119   5.347   6.638   5.488 -1.3390  0.1243  1.4223
   63SAPC  H17Y 5120   5.512   6.693   5.525  0.1995 -0.2208 -0.2269
   63SAPC  C318 5121   5.366   6.846   5.483  0.6512  0.5051  0.0293
   63SAPC  H18X 5122   5.373   6.847   5.372 -1.7048  0.9946 -0.1607
   63SAPC  H18Y 5123   5.421   6.936   5.519  1.0691  0.7340 -1.1407
   63SAPC  H18Z 5124   5.261   6.873   5.504 -0.1261 -0.7749 -1.9368
   64SAPC     N 5125   4.030   2.820   7.523 -0.0100  0.1067 -0.2802
   64SAPC   C12 5126   3.935   2.892   7.423 -0.0873  0.2818  0.1322
   64SAPC  H12A 5127   3.928   2.833   7.333 -2.4766  2.1220 -1.0156
   64SAPC  H12B 5128   3.988   2.978   7.386  0.4079 -0.6580 -1.4403
   64SAPC   C13 5129   3.987   2.685   7.552 -0.2565 -0.1187 -0.2048
   64SAPC  H13A 5130   3.990   2.611   7.473  3.5566  0.2757 -0.6256
   64SAPC  H13B 5131   4.052   2.650   7.632  0.9536  1.2480 -0.5403
   64SAPC  H13C 5132   3.885   2.684   7.585  0.1816  0.0336  1.2100
   64SAPC   C14 5133   4.171   2.820   7.478  0.2754  0.4171  0.2472
   64SAPC  H14A 5134   4.238   2.776   7.550  1.7936  0.8482 -0.8509
   64SAPC  H14B 5135   4.181   2.778   7.379  0.6850 -0.8990  0.8309
   64SAPC  H14C 5136   4.206   2.923   7.476 -2.9149  1.6116 -2.3031
   64SAPC   C15 5137   4.014   2.891   7.656 -0.1422  0.2772 -0.0019
   64SAPC  H15A 5138   4.034   2.997   7.657  0.2245  0.3975  4.9404
   64SAPC  H15B 5139   3.913   2.883   7.692 -0.7560  0.0032 -1.7041
   64SAPC  H15C 5140   4.072   2.847   7.736 -2.3504 -0.9526  1.0159
   64SAPC   C11 5141   3.788   2.936   7.460 -0.7042 -0.8065 -0.4028
   64SAPC  H11A 5142   3.746   2.992   7.374 -1.1547 -0.0901  0.2657
   64SAPC  H11B 5143   3.801   3.006   7.546  0.7978 -2.9886  1.2473
   64SAPC     P 5144   3.601   2.819   7.600  0.3285  0.4344 -0.1130
   64SAPC   O13 5145   3.664   2.859   7.724  0.0797 -0.1780  0.2268
   64SAPC   O14 5146   3.479   2.897   7.562 -0.1978  0.0383  0.1475
   64SAPC   O12 5147   3.696   2.826   7.476 -0.3096  0.2462  0.2976
   64SAPC   O11 5148   3.558   2.670   7.611 -0.3773  0.0593 -0.2935
   64SAPC    C1 5149   3.585   2.565   7.518 -0.1705 -0.1289 -1.5612
   64SAPC    HA 5150   3.692   2.571   7.488  0.4501 -1.5296  0.1995
   64SAPC    HB 5151   3.563   2.469   7.569  1.9424  0.5559  0.8249
   64SAPC    C2 5152   3.487   2.565   7.397 -0.3755 -0.0153  0.0729
   64SAPC    HS 5153   3.502   2.473   7.336 -1.1668  1.2886 -2.2514
   64SAPC   O21 5154   3.508   2.664   7.292 -0.6181  0.6421  0.1642
   64SAPC   C21 5155   3.625   2.656   7.227  0.1895  0.4428  0.1718
   64SAPC   O22 5156   3.694   2.555   7.222 -0.8661 -0.4114  0.6452
   64SAPC   C22 5157   3.658   2.784   7.146  0.1335 -0.2174 -0.1665
   64SAPC   H2R 5158   3.577   2.799   7.072  0.4978  0.6292 -0.4012
   64SAPC   H2S 5159   3.641   2.868   7.216 -3.1943  1.0891 -2.3231
   64SAPC    C3 5160   3.336   2.564   7.442  0.2220  0.3486  0.0036
   64SAPC    HX 5161   3.315   2.657   7.499 -0.5356  0.8486 -1.0524
   64SAPC    HY 5162   3.332   2.474   7.506  2.1045  0.6532  0.6017
   64SAPC   O31 5163   3.244   2.547   7.334  0.0420  0.1988  0.7317
   64SAPC   C31 5164   3.213   2.652   7.258 -0.0601  0.2076  0.1477
   64SAPC   O32 5165   3.241   2.768   7.283 -0.1271  0.4273  0.0375
   64SAPC   C32 5166   3.133   2.604   7.133  0.2147  0.8690 -0.4903
   64SAPC   H2X 5167   3.070   2.521   7.171  0.3741  1.5964  1.4909
   64SAPC   H2Y 5168   3.207   2.562   7.062  1.2498  0.0805  1.0044
   64SAPC   C23 5169   3.799   2.789   7.081  0.1285 -0.0426 -0.1689
   64SAPC   H3R 5170   3.875   2.743   7.148 -0.7804  0.6280  1.3840
   64SAPC   H3S 5171   3.828   2.896   7.077 -1.6219  0.4306 -3.5230
   64SAPC   C24 5172   3.802   2.761   6.924  0.6122 -0.8801 -0.3447
   64SAPC   H4R 5173   3.871   2.826   6.867 -3.7877  1.5235 -3.5389
   64SAPC   H4S 5174   3.708   2.792   6.875  1.4665 -0.1229 -1.5589
   64SAPC   C25 5175   3.833   2.617   6.899  0.2577  0.3279 -0.1420
   64SAPC   H5R 5176   3.865   2.565   6.991  0.3567 -0.7437 -0.7601
   64SAPC   C26 5177   3.833   2.554   6.773  1.2478  0.1196 -0.8374
   64SAPC   H6R 5178   3.853   2.446   6.775 -1.8433 -0.6513  2.8438
   64SAPC   C27 5179   3.789   2.614   6.644  0.4370 -0.5449  0.3288
   64SAPC   H7R 5180   3.713   2.694   6.647  1.4653  0.5004 -0.5023
   64SAPC   H7S 5181   3.741   2.530   6.589 -1.5843  0.6592  0.1663
   64SAPC   C28 5182   3.910   2.654   6.559 -0.5418 -0.3603  0.4477
   64SAPC   H8R 5183   4.006   2.675   6.608  0.9628  0.0283 -2.4389
   64SAPC   C29 5184   3.906   2.643   6.426  0.1637 -0.0928  0.0251
   64SAPC   H9R 5185   3.996   2.671   6.369 -0.2030  2.3321  0.5163
   64SAPC  C210 5186   3.802   2.597   6.326  0.5549 -1.4495 -0.1759
   64SAPC  H10R 5187   3.785   2.488   6.337  2.1553 -1.6853  0.1637
   64SAPC  H10S 5188   3.845   2.617   6.226  2.5408  2.6814  1.2629
   64SAPC  C211 5189   3.668   2.673   6.341  0.5167 -0.8947 -0.0377
   64SAPC  H11R 5190   3.673   2.751   6.419  1.2001  0.3748 -1.2942
   64SAPC  C212 5191   3.555   2.656   6.277  0.3536 -0.4651  0.5736
   64SAPC  H12R 5192   3.477   2.732   6.293  0.7021  0.0167  0.0054
   64SAPC  C213 5193   3.526   2.545   6.181 -0.9872 -0.6202 -0.1598
   64SAPC  H13R 5194   3.418   2.520   6.172 -1.9062  2.5721  0.5348
   64SAPC  H13S 5195   3.581   2.455   6.214  0.6295  0.5426  0.4460
   64SAPC  C214 5196   3.587   2.576   6.046  0.3853 -0.1755  0.2507
   64SAPC  H14R 5197   3.653   2.661   6.027  0.3417 -0.6010 -2.1835
   64SAPC  C215 5198   3.567   2.499   5.934 -0.3114  0.1864 -0.4193
   64SAPC  H15R 5199   3.609   2.537   5.840  2.6956 -0.5372  0.5253
   64SAPC  C216 5200   3.496   2.365   5.933 -0.5737 -0.3359  0.0748
   64SAPC  H16R 5201   3.398   2.385   5.885 -0.1578  1.4685 -0.0952
   64SAPC  H16S 5202   3.475   2.331   6.037  0.3764 -4.1328 -0.8172
   64SAPC  C217 5203   3.574   2.261   5.856  0.2133  0.0539  0.1716
   64SAPC  H17R 5204   3.528   2.161   5.870 -1.2521  0.2252 -2.7533
   64SAPC  H17S 5205   3.673   2.248   5.905 -0.2004 -2.7755  0.4670
   64SAPC  C218 5206   3.587   2.299   5.709 -0.0563 -0.1632  0.1134
   64SAPC  H18R 5207   3.643   2.388   5.674  0.3101 -0.1111  0.8128
   64SAPC  H18S 5208   3.481   2.302   5.676 -0.5078  1.0800  1.5867
   64SAPC  C219 5209   3.643   2.184   5.623 -0.2461  0.2204  0.0082
   64SAPC  H19R 5210   3.598   2.090   5.660  0.7627 -0.3441 -0.1542
   64SAPC  H19S 5211   3.752   2.173   5.640 -0.4075  0.1572  1.0328
   64SAPC  C220 5212   3.616   2.215   5.476  0.4992  0.6970  0.2413
   64SAPC  H20R 5213   3.688   2.275   5.415  0.6442 -0.8665 -1.1983
   64SAPC  H20S 5214   3.525   2.278   5.472 -0.7636 -1.1122 -0.3951
   64SAPC  H20T 5215   3.589   2.125   5.416  2.7763  0.5031 -0.6154
   64SAPC   C33 5216   3.054   2.710   7.051  0.7083 -0.9275 -0.2650
   64SAPC   H3X 5217   3.112   2.801   7.025 -0.1322 -0.5800 -0.9994
   64SAPC   H3Y 5218   2.969   2.737   7.117 -0.3184 -1.7730 -1.1991
   64SAPC   C34 5219   2.977   2.657   6.929 -0.0405 -0.3006 -0.3221
   64SAPC   H4X 5220   2.879   2.613   6.959 -0.4303 -1.8989 -3.5941
   64SAPC   H4Y 5221   3.034   2.572   6.886  1.4064  0.9180 -0.9067
   64SAPC   C35 5222   2.953   2.766   6.827  0.6776 -0.4760 -1.1996
   64SAPC   H5X 5223   3.047   2.816   6.796  0.6814 -0.4589 -1.1613
   64SAPC   H5Y 5224   2.901   2.848   6.882  0.3644 -1.8197  0.6128
   64SAPC   C36 5225   2.871   2.724   6.708 -0.2125 -0.3218  0.3189
   64SAPC   H6X 5226   2.924   2.639   6.660  2.2530 -0.3822  2.8872
   64SAPC   H6Y 5227   2.858   2.809   6.637 -1.0616 -2.0555 -1.7013
   64SAPC   C37 5228   2.725   2.686   6.735 -0.0407 -0.3945 -0.0770
   64SAPC   H7X 5229   2.684   2.760   6.807 -0.2831  0.4667 -1.0705
   64SAPC   H7Y 5230   2.712   2.592   6.792  0.1549  0.3475  1.2317
   64SAPC   C38 5231   2.636   2.679   6.609 -0.3738  0.3125 -0.4525
   64SAPC   H8X 5232   2.622   2.779   6.562 -0.4956  0.9794  0.9542
   64SAPC   H8Y 5233   2.532   2.657   6.640 -0.8214  0.0039 -2.0435
   64SAPC   C39 5234   2.678   2.577   6.502  0.0986  0.2999 -0.6629
   64SAPC   H9X 5235   2.693   2.476   6.547 -0.2449 -0.1503 -1.5214
   64SAPC   H9Y 5236   2.776   2.592   6.453  0.3328 -2.1177 -1.0612
   64SAPC  C310 5237   2.591   2.565   6.373  0.2178 -0.1134  0.4773
   64SAPC  H10X 5238   2.482   2.552   6.390 -0.3372  0.4291 -2.2267
   64SAPC  H10Y 5239   2.630   2.470   6.330 -0.5583 -1.1776  2.0301
   64SAPC  C311 5240   2.610   2.689   6.273 -0.0790  0.0873 -0.0201
   64SAPC  H11X 5241   2.720   2.700   6.257 -0.5816  0.9750 -3.6666
   64SAPC  H11Y 5242   2.586   2.791   6.311  0.5439  1.1056 -2.2042
   64SAPC  C312 5243   2.530   2.661   6.150 -0.4711 -0.2357  0.5684
   64SAPC  H12X 5244   2.531   2.749   6.081 -1.9227  1.3196  2.4201
   64SAPC  H12Y 5245   2.421   2.657   6.169 -0.5159 -1.3497  0.1335
   64SAPC  C313 5246   2.584   2.541   6.071  0.5149 -0.2679  0.1972
   64SAPC  H13X 5247   2.590   2.448   6.131 -1.5265 -0.0117  0.8860
   64SAPC  H13Y 5248   2.684   2.561   6.028 -0.2701 -2.3024 -2.9070
   64SAPC  C314 5249   2.498   2.511   5.946 -0.4063 -0.4748  0.6073
   64SAPC  H14X 5250   2.480   2.601   5.882  1.3276 -1.0462 -0.7622
   64SAPC  H14Y 5251   2.397   2.469   5.964 -0.4584 -1.7627 -2.2754
   64SAPC  C315 5252   2.561   2.405   5.853 -0.9603  0.3494  0.0281
   64SAPC  H15X 5253   2.585   2.318   5.918  0.4841 -1.2472 -2.4771
   64SAPC  H15Y 5254   2.662   2.439   5.822 -0.9422  0.4355  0.1812
   64SAPC  C316 5255   2.477   2.373   5.729  0.3454 -0.2770  0.4677
   64SAPC  H16X 5256   2.526   2.307   5.654  0.7453  0.6475 -0.0983
   64SAPC  H16Y 5257   2.439   2.465   5.680 -0.5989 -0.5243  0.7174
   64SAPC  C317 5258   2.343   2.302   5.768 -0.2816 -0.1132 -0.7459
   64SAPC  H17X 5259   2.296   2.353   5.854  2.1251 -0.3355  0.7810
   64SAPC  H17Y 5260   2.371   2.205   5.814  1.7825 -0.1789 -1.9990
   64SAPC  C318 5261   2.240   2.281   5.659 -0.8609 -0.0439 -0.3502
   64SAPC  H18X 5262   2.196   2.377   5.625  1.9816  1.1909 -0.7847
   64SAPC  H18Y 5263   2.154   2.219   5.692 -2.1080  1.7426 -0.1019
   64SAPC  H18Z 5264   2.288   2.219   5.580  0.5171  1.2545 -0.5683
   65SAPC     N 5265   2.850   2.979   2.945 -0.5805  0.3426  0.0151
   65SAPC   C12 5266   2.861   2.979   3.097  0.1910 -0.2182  0.7282
   65SAPC  H12A 5267   2.824   3.074   3.131 -0.9666 -0.9832  1.6976
   65SAPC  H12B 5268   2.965   2.958   3.118 -0.4170 -3.4278  1.0449
   65SAPC   C13 5269   2.870   2.840   2.891 -0.2124  0.6934  0.6498
   65SAPC  H13A 5270   2.788   2.776   2.918  0.7604 -0.8434  0.1025
   65SAPC  H13B 5271   2.867   2.826   2.784 -1.9361 -0.8526  0.8518
   65SAPC  H13C 5272   2.956   2.792   2.935  0.4118  0.5452 -0.6806
   65SAPC   C14 5273   2.720   3.027   2.904 -0.0066  0.0609  0.6204
   65SAPC  H14A 5274   2.716   3.135   2.905  0.4765  0.0985 -0.5610
   65SAPC  H14B 5275   2.711   3.007   2.798  4.2402 -1.2615  0.3144
   65SAPC  H14C 5276   2.637   2.985   2.959  0.4889 -1.5431  0.1962
   65SAPC   C15 5277   2.948   3.071   2.876 -1.2809  0.2357 -0.1474
   65SAPC  H15A 5278   2.945   3.064   2.769  1.7150 -3.9848 -0.1934
   65SAPC  H15B 5279   2.927   3.163   2.930 -0.1033  0.9855 -0.9212
   65SAPC  H15C 5280   3.048   3.048   2.909 -1.5549 -0.7614  0.0045
   65SAPC   C11 5281   2.785   2.870   3.175  0.4921  0.5814 -0.5607
   65SAPC  H11A 5282   2.690   2.846   3.121 -0.0576 -2.9347  1.6534
   65SAPC  H11B 5283   2.751   2.910   3.273  0.2332  0.2791 -0.5258
   65SAPC     P 5284   2.984   2.734   3.278 -0.2302  0.0428  0.0435
   65SAPC   O13 5285   3.070   2.623   3.222  0.0535 -0.3246  0.1273
   65SAPC   O14 5286   3.049   2.861   3.312 -0.1235  0.2344 -0.1822
   65SAPC   O12 5287   2.855   2.750   3.189  0.4194  0.3073  0.4525
   65SAPC   O11 5288   2.911   2.677   3.410 -0.4176  0.4839 -0.0576
   65SAPC    C1 5289   2.776   2.656   3.445 -0.0885 -0.3362 -0.5799
   65SAPC    HA 5290   2.708   2.741   3.421  2.1643  1.2728 -1.6806
   65SAPC    HB 5291   2.747   2.565   3.388 -2.7852 -0.4287  0.7993
   65SAPC    C2 5292   2.755   2.641   3.596  0.5970  0.4062 -0.5880
   65SAPC    HS 5293   2.646   2.623   3.606  0.7179 -0.4759 -0.8027
   65SAPC   O21 5294   2.798   2.752   3.676  0.0609  0.3977  0.2149
   65SAPC   C21 5295   2.718   2.852   3.688 -0.1701 -0.3427  0.1017
   65SAPC   O22 5296   2.626   2.879   3.619 -0.2855  0.0485 -0.0740
   65SAPC   C22 5297   2.791   2.955   3.796  0.9468  0.1123  0.3292
   65SAPC   H2R 5298   2.874   2.895   3.837  0.8970  0.4343  0.9134
   65SAPC   H2S 5299   2.823   3.045   3.739  1.6502 -0.3621 -0.0400
   65SAPC    C3 5300   2.836   2.514   3.644  0.4333 -0.1433  0.2197
   65SAPC    HX 5301   2.940   2.530   3.608  0.3133  2.0734  0.7211
   65SAPC    HY 5302   2.789   2.426   3.594 -3.5880  0.1523  3.0116
   65SAPC   O31 5303   2.835   2.511   3.787  0.0557 -0.3660  0.4377
   65SAPC   C31 5304   2.936   2.544   3.858 -0.2104 -0.2935  0.7628
   65SAPC   O32 5305   3.049   2.582   3.821  0.6245  0.0586  0.3406
   65SAPC   C32 5306   2.892   2.529   3.999  0.3084  0.3521 -0.0195
   65SAPC   H2X 5307   2.841   2.431   4.012 -0.5905  0.8785  0.4734
   65SAPC   H2Y 5308   2.813   2.604   4.018 -1.5123 -1.1805 -1.1507
   65SAPC   C23 5309   2.695   2.989   3.911 -0.7046 -0.3476 -0.3004
   65SAPC   H3R 5310   2.766   3.018   3.992  0.3173 -3.5512  0.1030
   65SAPC   H3S 5311   2.651   2.890   3.932  1.4426 -1.4736 -0.7653
   65SAPC   C24 5312   2.596   3.101   3.874 -0.6309 -0.0757 -0.3188
   65SAPC   H4R 5313   2.518   3.098   3.953 -1.7717 -2.6733 -1.4062
   65SAPC   H4S 5314   2.542   3.081   3.779 -1.2746  0.5186 -0.0836
   65SAPC   C25 5315   2.671   3.231   3.868 -0.4260  0.2349  0.2040
   65SAPC   H5R 5316   2.757   3.236   3.800 -1.5422  1.4786 -1.1591
   65SAPC   C26 5317   2.638   3.345   3.932  0.0311 -0.0884 -0.2668
   65SAPC   H6R 5318   2.683   3.438   3.894 -0.2259 -0.0699 -0.5242
   65SAPC   C27 5319   2.518   3.370   4.030 -0.5325  0.0488  0.4981
   65SAPC   H7R 5320   2.483   3.274   4.074  2.9626 -1.1808  0.9059
   65SAPC   H7S 5321   2.434   3.412   3.971  1.4582  0.7062 -2.0624
   65SAPC   C28 5322   2.559   3.475   4.132  0.0770  0.1159 -0.1452
   65SAPC   H8R 5323   2.534   3.575   4.094  2.5748  0.6160 -0.6452
   65SAPC   C29 5324   2.609   3.469   4.255 -0.5119  0.4952  0.4414
   65SAPC   H9R 5325   2.647   3.558   4.308  1.3249  0.0242  0.0153
   65SAPC  C210 5326   2.637   3.342   4.324 -0.1058  0.9584 -0.5565
   65SAPC  H10R 5327   2.552   3.274   4.302  0.1014  0.8881 -1.1516
   65SAPC  H10S 5328   2.642   3.365   4.433  2.0644  2.9537 -0.9905
   65SAPC  C211 5329   2.761   3.265   4.272  0.2001 -0.6279 -0.5946
   65SAPC  H11R 5330   2.773   3.282   4.164  2.3927  2.8138  0.0457
   65SAPC  C212 5331   2.868   3.228   4.346  0.0844  0.4220 -0.2867
   65SAPC  H12R 5332   2.952   3.186   4.290 -0.9732 -0.7979 -1.0207
   65SAPC  C213 5333   2.873   3.217   4.497 -0.6480  0.2894  0.2466
   65SAPC  H13R 5334   2.790   3.271   4.546  0.5244  4.0197 -1.5167
   65SAPC  H13S 5335   2.965   3.268   4.531  0.4637 -1.1934 -0.3921
   65SAPC  C214 5336   2.881   3.084   4.563 -0.0483  0.4577 -0.1489
   65SAPC  H14R 5337   2.890   3.000   4.494  0.6244 -0.3451  0.8851
   65SAPC  C215 5338   2.893   3.059   4.693  0.0922 -0.0892  0.1363
   65SAPC  H15R 5339   2.886   2.955   4.729 -2.2345  0.2770  0.8687
   65SAPC  C216 5340   2.885   3.150   4.813  0.3387  0.3949  0.3407
   65SAPC  H16R 5341   2.868   3.258   4.789  2.0683  0.7865  0.7661
   65SAPC  H16S 5342   2.986   3.146   4.859  0.0926 -2.3911  0.8116
   65SAPC  C217 5343   2.781   3.111   4.919  0.1576 -0.0667 -0.0933
   65SAPC  H17R 5344   2.682   3.089   4.874 -1.0952  2.1301  1.3608
   65SAPC  H17S 5345   2.785   3.193   4.994 -2.1182  2.4098 -2.4477
   65SAPC  C218 5346   2.822   2.987   4.993 -0.9073  0.5082  0.3469
   65SAPC  H18R 5347   2.920   3.008   5.041 -0.1083 -0.1885 -0.9268
   65SAPC  H18S 5348   2.834   2.905   4.920  2.3474  1.7133 -0.6472
   65SAPC  C219 5349   2.718   2.947   5.102  0.5266 -0.0751  0.4918
   65SAPC  H19R 5350   2.749   2.853   5.152  1.0971 -0.4070 -0.4455
   65SAPC  H19S 5351   2.624   2.920   5.049 -0.1587  0.1938  1.5356
   65SAPC  C220 5352   2.684   3.058   5.203  0.4474 -0.5484  0.0549
   65SAPC  H20R 5353   2.620   3.015   5.283  0.4797  0.2248  0.5042
   65SAPC  H20S 5354   2.633   3.142   5.151  0.9786 -0.3405 -0.1406
   65SAPC  H20T 5355   2.767   3.119   5.243 -0.1391  0.9921 -0.9761
   65SAPC   C33 5356   3.009   2.542   4.096 -0.1504 -0.2538 -0.2057
   65SAPC   H3X 5357   3.055   2.642   4.078  0.4991 -0.5407 -0.1734
   65SAPC   H3Y 5358   3.096   2.474   4.082  0.9550  1.2603 -0.9449
   65SAPC   C34 5359   2.964   2.506   4.240  0.4948 -0.4029 -0.4069
   65SAPC   H4X 5360   2.940   2.398   4.249 -1.4960 -0.0906 -1.3841
   65SAPC   H4Y 5361   2.868   2.553   4.268  1.1402  0.1855  0.9116
   65SAPC   C35 5362   3.067   2.549   4.343  0.6920 -0.1219 -0.4045
   65SAPC   H5X 5363   3.073   2.659   4.328 -0.9569  0.1949  0.9880
   65SAPC   H5Y 5364   3.168   2.511   4.316  0.3176 -0.7535 -0.9420
   65SAPC   C36 5365   3.036   2.500   4.489 -0.4231 -0.1700 -0.1404
   65SAPC   H6X 5366   3.134   2.506   4.541 -0.4345 -0.4283 -0.0895
   65SAPC   H6Y 5367   3.011   2.392   4.491 -2.2720  0.2506  0.9838
   65SAPC   C37 5368   2.933   2.582   4.567 -0.2738 -0.1368  1.0939
   65SAPC   H7X 5369   2.840   2.552   4.514  0.0047  2.7750 -1.3014
   65SAPC   H7Y 5370   2.938   2.691   4.543 -1.8498  0.3409  2.7169
   65SAPC   C38 5371   2.926   2.566   4.715 -0.5979  0.7086 -0.5292
   65SAPC   H8X 5372   2.912   2.459   4.743  0.5005  1.0402  1.4775
   65SAPC   H8Y 5373   2.843   2.617   4.767 -0.1343  0.0182  0.9180
   65SAPC   C39 5374   3.059   2.615   4.786  0.7657  0.7062 -0.8461
   65SAPC   H9X 5375   3.079   2.715   4.740 -0.1136  0.9697 -0.6704
   65SAPC   H9Y 5376   3.138   2.544   4.753  0.4653 -0.4540  0.8451
   65SAPC  C310 5377   3.047   2.613   4.937  0.3966  0.2110 -0.7435
   65SAPC  H10X 5378   3.055   2.517   4.991  2.9761  0.5286 -0.4095
   65SAPC  H10Y 5379   2.945   2.653   4.956 -0.0231 -0.6499 -1.1765
   65SAPC  C311 5380   3.142   2.711   5.008 -0.0076 -0.3747 -0.0551
   65SAPC  H11X 5381   3.134   2.806   4.952  0.6928 -1.5152 -2.2180
   65SAPC  H11Y 5382   3.243   2.672   4.981 -0.7099 -1.7742 -0.7522
   65SAPC  C312 5383   3.137   2.703   5.163  0.1621  0.5647  0.5907
   65SAPC  H12X 5384   3.235   2.738   5.202  2.0924 -1.4534 -2.0499
   65SAPC  H12Y 5385   3.128   2.595   5.188 -1.3110  0.5220 -0.0228
   65SAPC  C313 5386   3.029   2.787   5.229  0.2093  0.4882  0.3146
   65SAPC  H13X 5387   2.940   2.738   5.185  0.9644 -1.7307  1.1348
   65SAPC  H13Y 5388   3.035   2.886   5.178  1.1855 -0.0419 -0.6243
   65SAPC  C314 5389   3.030   2.778   5.387 -0.3131  0.4649 -0.0057
   65SAPC  H14X 5390   3.115   2.832   5.433  1.4911  0.9709 -3.5955
   65SAPC  H14Y 5391   3.043   2.676   5.427  0.4356  1.0220  1.2352
   65SAPC  C315 5392   2.894   2.826   5.449 -0.1329  1.1411  0.5079
   65SAPC  H15X 5393   2.810   2.769   5.405  0.1710 -0.5962  2.0539
   65SAPC  H15Y 5394   2.901   2.934   5.425 -2.2441  0.4735 -4.3276
   65SAPC  C316 5395   2.888   2.805   5.597  0.1659  0.7971 -1.1336
   65SAPC  H16X 5396   2.927   2.898   5.643 -0.8821  0.8250 -0.2568
   65SAPC  H16Y 5397   2.960   2.727   5.629  0.8856  1.8325 -0.1635
   65SAPC  C317 5398   2.745   2.781   5.641  0.7761 -0.5751 -0.6765
   65SAPC  H17X 5399   2.705   2.689   5.595 -0.7856  0.9550 -2.5550
   65SAPC  H17Y 5400   2.689   2.865   5.596 -1.1516 -1.8844 -0.8108
   65SAPC  C318 5401   2.721   2.795   5.788  0.4538  0.1318  0.3436
   65SAPC  H18X 5402   2.613   2.785   5.812 -0.2111  2.3162 -1.4075
   65SAPC  H18Y 5403   2.744   2.899   5.819 -5.1697  1.8629 -0.0228
   65SAPC  H18Z 5404   2.782   2.729   5.853  0.6706 -0.2390 -0.2241
   66SAPC     N 5405   1.105   5.302   2.527 -0.1491 -0.6273 -0.2872
   66SAPC   C12 5406   1.081   5.290   2.680  0.5605 -0.3521 -0.3375
   66SAPC  H12A 5407   1.064   5.387   2.724  0.2607 -0.1642 -0.8518
   66SAPC  H12B 5408   1.172   5.251   2.724  0.6420 -0.2965 -0.4545
   66SAPC   C13 5409   0.991   5.367   2.454 -1.0631  0.2931 -0.9792
   66SAPC  H13A 5410   0.906   5.299   2.451  1.5558 -3.3926  0.8328
   66SAPC  H13B 5411   0.975   5.465   2.496  3.9247 -0.2754  3.3099
   66SAPC  H13C 5412   1.024   5.384   2.353  2.5865 -1.3270 -0.2222
   66SAPC   C14 5413   1.226   5.395   2.508  0.8681  0.1833  0.3722
   66SAPC  H14A 5414   1.265   5.378   2.408  0.1124  0.0612  0.0929
   66SAPC  H14B 5415   1.199   5.500   2.509 -0.4236  0.0095 -3.0823
   66SAPC  H14C 5416   1.310   5.385   2.575  2.4312  1.9076 -1.1970
   66SAPC   C15 5417   1.137   5.162   2.471  0.7223 -0.4408 -0.2863
   66SAPC  H15A 5418   1.071   5.099   2.529  2.9739  0.9986  4.3582
   66SAPC  H15B 5419   1.125   5.161   2.364 -0.3980 -0.7744 -0.1718
   66SAPC  H15C 5420   1.235   5.122   2.489 -0.1418 -2.5905 -0.0328
   66SAPC   C11 5421   0.960   5.213   2.723  0.3708 -0.6184 -0.7443
   66SAPC  H11A 5422   0.872   5.259   2.673 -0.8784 -0.3285  1.5502
   66SAPC  H11B 5423   0.920   5.223   2.827 -0.6137 -0.3059 -1.1412
   66SAPC     P 5424   1.053   4.981   2.796 -0.3523 -0.2047 -0.1527
   66SAPC   O13 5425   1.042   4.846   2.742  0.0007  0.5130 -0.0535
   66SAPC   O14 5426   1.182   5.033   2.834 -0.6582  0.6547 -0.2540
   66SAPC   O12 5427   0.976   5.077   2.694  0.0645  0.1802 -0.4762
   66SAPC   O11 5428   0.952   4.999   2.926 -0.8840 -0.3441 -0.4796
   66SAPC    C1 5429   0.813   4.988   2.911 -0.0174 -0.5552 -0.0044
   66SAPC    HA 5430   0.783   5.092   2.886  2.5622  0.9493  2.5734
   66SAPC    HB 5431   0.782   4.931   2.821  0.2586 -0.1320 -0.3676
   66SAPC    C2 5432   0.737   4.946   3.039 -0.4702  0.2927 -0.0835
   66SAPC    HS 5433   0.756   5.027   3.113  3.4935  1.9272 -2.5546
   66SAPC   O21 5434   0.789   4.821   3.082  0.1784 -0.7227  0.2253
   66SAPC   C21 5435   0.865   4.826   3.190  0.2970  0.0839  0.3584
   66SAPC   O22 5436   0.888   4.921   3.261 -0.4407  0.1997 -0.1069
   66SAPC   C22 5437   0.921   4.681   3.215  0.2268 -0.0852  0.2029
   66SAPC   H2R 5438   0.912   4.647   3.321  1.2980 -2.2401 -0.3504
   66SAPC   H2S 5439   0.851   4.615   3.160 -0.0753  1.3305 -1.1727
   66SAPC    C3 5440   0.584   4.922   3.009 -0.0973 -0.4430  0.0394
   66SAPC    HX 5441   0.550   4.867   2.918 -1.6485 -0.9997  0.9116
   66SAPC    HY 5442   0.545   5.024   2.989  0.6948 -0.2801 -0.7427
   66SAPC   O31 5443   0.531   4.875   3.128  0.4225  0.5859 -0.4513
   66SAPC   C31 5444   0.497   4.963   3.223  0.1763  0.9360 -0.4413
   66SAPC   O32 5445   0.506   5.085   3.214  0.0336 -0.0135  0.0476
   66SAPC   C32 5446   0.448   4.882   3.344 -0.6494  0.2126 -0.4821
   66SAPC   H2X 5447   0.371   4.810   3.310 -1.5584  0.5960  0.6708
   66SAPC   H2Y 5448   0.400   4.953   3.416 -0.2816 -0.9261  0.9425
   66SAPC   C23 5449   1.064   4.667   3.163  0.2623 -0.3869  0.2645
   66SAPC   H3R 5450   1.083   4.729   3.073  0.6104 -1.0369 -0.1112
   66SAPC   H3S 5451   1.079   4.567   3.119  2.4379  0.2633 -0.5992
   66SAPC   C24 5452   1.168   4.688   3.278 -0.1972  0.0312  0.1170
   66SAPC   H4R 5453   1.137   4.623   3.363 -1.6616  0.5156 -0.0123
   66SAPC   H4S 5454   1.146   4.788   3.321  0.1093  0.0475  0.2354
   66SAPC   C25 5455   1.310   4.669   3.223  0.6839 -0.3556 -0.1676
   66SAPC   H5R 5456   1.324   4.713   3.123  1.5304  0.0811  0.1378
   66SAPC   C26 5457   1.403   4.591   3.279 -0.1773 -0.7841 -0.0368
   66SAPC   H6R 5458   1.496   4.573   3.223  1.4812 -0.9627  2.6137
   66SAPC   C27 5459   1.394   4.504   3.405 -0.1632  0.3246 -0.4045
   66SAPC   H7R 5460   1.329   4.547   3.484  0.2477  0.0413  0.0884
   66SAPC   H7S 5461   1.496   4.490   3.446  0.1535  1.9468 -0.5758
   66SAPC   C28 5462   1.345   4.369   3.370 -0.6994  0.0121  0.3850
   66SAPC   H8R 5463   1.356   4.338   3.265  0.0653  0.5002  0.3087
   66SAPC   C29 5464   1.290   4.279   3.450 -0.5728  0.9280  0.6254
   66SAPC   H9R 5465   1.250   4.186   3.408 -0.3166  1.0776  0.0478
   66SAPC  C210 5466   1.264   4.287   3.593  0.4423 -0.3134 -0.1251
   66SAPC  H10R 5467   1.157   4.315   3.601 -0.1993 -2.7365  0.8752
   66SAPC  H10S 5468   1.319   4.376   3.630  0.7848  0.0586 -1.4643
   66SAPC  C211 5469   1.277   4.162   3.676 -0.4762 -0.5738  0.1290
   66SAPC  H11R 5470   1.373   4.110   3.670 -0.7213 -2.0542  4.9049
   66SAPC  C212 5471   1.185   4.094   3.741  0.5582  0.2659  0.0602
   66SAPC  H12R 5472   1.226   4.011   3.801  2.1446  1.3614  0.5720
   66SAPC  C213 5473   1.041   4.108   3.761  0.7140  0.8211  0.3859
   66SAPC  H13R 5474   1.005   4.168   3.675  1.0937 -1.6646 -1.6372
   66SAPC  H13S 5475   1.022   4.160   3.858  1.9074 -0.3074  1.2603
   66SAPC  C214 5476   0.964   3.977   3.756  0.0281  0.0006 -0.6782
   66SAPC  H14R 5477   1.000   3.916   3.672  2.2429  2.0875 -1.3525
   66SAPC  C215 5478   0.872   3.933   3.843  0.3138  0.9961  0.1891
   66SAPC  H15R 5479   0.828   3.836   3.817  1.0099  1.1500 -1.7972
   66SAPC  C216 5480   0.821   4.003   3.966 -0.4017  0.7716  0.4940
   66SAPC  H16R 5481   0.862   4.106   3.967 -1.5360  1.2442  0.4171
   66SAPC  H16S 5482   0.854   3.952   4.060  1.6729  1.3026  0.0849
   66SAPC  C217 5483   0.667   4.000   3.967  0.1519  0.2551 -0.3045
   66SAPC  H17R 5484   0.630   3.896   3.982 -2.1252  1.0118 -0.2729
   66SAPC  H17S 5485   0.626   4.035   3.869  2.4966  2.3580 -0.6195
   66SAPC  C218 5486   0.617   4.083   4.087  0.5046  0.1476 -0.2983
   66SAPC  H18R 5487   0.648   4.189   4.092 -1.6336  0.7696  1.9193
   66SAPC  H18S 5488   0.644   4.036   4.184  2.3320  2.2110  0.2568
   66SAPC  C219 5489   0.464   4.092   4.073  0.1079 -0.2244 -0.5807
   66SAPC  H19R 5490   0.422   3.991   4.091  1.3181 -1.0203 -2.0158
   66SAPC  H19S 5491   0.421   4.128   3.976 -1.3703 -0.8483 -0.1847
   66SAPC  C220 5492   0.404   4.180   4.187 -0.0634  0.4950  0.0679
   66SAPC  H20R 5493   0.294   4.162   4.189 -0.4954  2.4702 -1.9241
   66SAPC  H20S 5494   0.421   4.287   4.166 -0.0602  0.1295 -2.0119
   66SAPC  H20T 5495   0.459   4.148   4.277  0.0399 -1.0590 -0.5088
   66SAPC   C33 5496   0.553   4.795   3.419  0.5674 -0.0901  1.0722
   66SAPC   H3X 5497   0.603   4.736   3.339 -2.1159 -0.2206 -0.6716
   66SAPC   H3Y 5498   0.501   4.724   3.487 -0.9845  0.5588  0.6081
   66SAPC   C34 5499   0.659   4.875   3.493  0.4561  0.0171  0.1866
   66SAPC   H4X 5500   0.600   4.936   3.565 -0.7624 -1.4644  0.4819
   66SAPC   H4Y 5501   0.717   4.942   3.425 -0.8089  0.5824 -0.3889
   66SAPC   C35 5502   0.767   4.786   3.563  0.5682  0.2450  0.1939
   66SAPC   H5X 5503   0.796   4.714   3.483  0.2272  1.3365 -0.9461
   66SAPC   H5Y 5504   0.711   4.734   3.643 -0.1744 -0.0730 -0.5133
   66SAPC   C36 5505   0.894   4.856   3.612 -0.0939 -0.6784  0.6382
   66SAPC   H6X 5506   0.919   4.916   3.522  0.0894 -2.0014 -0.2086
   66SAPC   H6Y 5507   0.967   4.774   3.629  0.6892  0.0888  1.0900
   66SAPC   C37 5508   0.884   4.956   3.735 -0.1736 -0.2391  0.1105
   66SAPC   H7X 5509   0.835   5.039   3.679 -1.0940 -2.1971 -2.1777
   66SAPC   H7Y 5510   0.978   5.001   3.772 -0.8594  0.4452  1.0869
   66SAPC   C38 5511   0.802   4.908   3.854 -0.7029 -0.0021 -0.1146
   66SAPC   H8X 5512   0.720   4.841   3.821  0.7622 -0.9315 -2.0905
   66SAPC   H8Y 5513   0.761   4.997   3.907  0.7857  0.8219 -0.2898
   66SAPC   C39 5514   0.891   4.837   3.960 -0.1481 -0.1892 -0.0824
   66SAPC   H9X 5515   0.966   4.774   3.909  1.6505 -0.5194  2.7800
   66SAPC   H9Y 5516   0.821   4.779   4.025 -0.4439  0.9077  0.6124
   66SAPC  C310 5517   0.967   4.939   4.046 -0.4357 -0.1898  0.6118
   66SAPC  H10X 5518   0.893   4.998   4.103 -2.2310 -1.2088 -0.5681
   66SAPC  H10Y 5519   1.029   5.000   3.978  0.7672 -1.9266  0.0595
   66SAPC  C311 5520   1.054   4.884   4.161 -0.1058  0.0841 -0.4520
   66SAPC  H11X 5521   1.140   4.951   4.179  0.5851 -1.4039  2.4270
   66SAPC  H11Y 5522   1.107   4.791   4.129 -1.0987 -0.5728 -0.2490
   66SAPC  C312 5523   0.985   4.872   4.299  0.3024 -0.0415  0.0801
   66SAPC  H12X 5524   0.906   4.794   4.300 -0.0900  0.3548  0.2737
   66SAPC  H12Y 5525   0.933   4.967   4.322 -0.5921 -0.4560 -0.2116
   66SAPC  C313 5526   1.087   4.840   4.409  0.4702  0.0177  0.2507
   66SAPC  H13X 5527   1.167   4.913   4.438  1.0257 -1.2585  2.1222
   66SAPC  H13Y 5528   1.143   4.749   4.378 -1.2225 -0.3146 -2.1422
   66SAPC  C314 5529   1.033   4.796   4.552  0.1815 -0.1997  0.4485
   66SAPC  H14X 5530   0.975   4.703   4.534  0.5668 -0.1922 -0.9734
   66SAPC  H14Y 5531   0.969   4.881   4.584  1.0172  0.5992  0.0722
   66SAPC  C315 5532   1.140   4.768   4.661 -0.0585 -0.7750 -0.2838
   66SAPC  H15X 5533   1.209   4.706   4.600 -0.8482 -0.7088 -1.2757
   66SAPC  H15Y 5534   1.097   4.701   4.737 -0.5255 -0.3770 -0.1909
   66SAPC  C316 5535   1.216   4.890   4.713  0.3833  0.1113  0.0178
   66SAPC  H16X 5536   1.151   4.961   4.769 -0.3218  0.4692 -1.1973
   66SAPC  H16Y 5537   1.262   4.942   4.626  1.7022  1.1048  1.2625
   66SAPC  C317 5538   1.332   4.860   4.805 -0.2319 -0.0724  0.7004
   66SAPC  H17X 5539   1.372   4.964   4.809  1.9491 -0.9110  2.8849
   66SAPC  H17Y 5540   1.412   4.803   4.754  1.0583  2.1610  0.0972
   66SAPC  C318 5541   1.312   4.801   4.943  0.4641 -0.1618 -0.3236
   66SAPC  H18X 5542   1.243   4.873   4.992  0.8287  0.6079 -0.9174
   66SAPC  H18Y 5543   1.406   4.786   5.001  1.0381 -1.3514 -1.5188
   66SAPC  H18Z 5544   1.258   4.705   4.932  0.6545 -0.4287  0.9116
   67SAPC     N 5545   2.914   4.629   2.602 -0.5072  0.4211  0.0995
   67SAPC   C12 5546   2.815   4.534   2.539  0.3331 -0.4279  0.0373
   67SAPC  H12A 5547   2.839   4.430   2.556  0.4362 -0.5748 -0.9756
   67SAPC  H12B 5548   2.825   4.554   2.434 -0.7631 -0.5550 -0.1045
   67SAPC   C13 5549   2.882   4.768   2.565  0.3061 -0.3404 -0.1678
   67SAPC  H13A 5550   2.786   4.799   2.601  0.8172  1.7771 -0.5139
   67SAPC  H13B 5551   2.952   4.841   2.603  0.2193 -0.0033 -0.6483
   67SAPC  H13C 5552   2.873   4.780   2.458  0.3003  0.3695 -0.0931
   67SAPC   C14 5553   2.910   4.615   2.750  0.4579 -0.1103  0.3408
   67SAPC  H14A 5554   2.891   4.510   2.769 -0.3237 -0.5980 -2.5824
   67SAPC  H14B 5555   2.995   4.658   2.799  0.4653  1.2290 -0.8127
   67SAPC  H14C 5556   2.828   4.671   2.792  0.2811  1.8262 -2.3073
   67SAPC   C15 5557   3.055   4.597   2.551  0.1349  0.3049  0.2937
   67SAPC  H15A 5558   3.059   4.598   2.443  0.6723 -1.4579  0.2783
   67SAPC  H15B 5559   3.126   4.664   2.599  0.1583  1.1474 -0.8623
   67SAPC  H15C 5560   3.092   4.502   2.585  2.9080  1.2354  0.1635
   67SAPC   C11 5561   2.668   4.557   2.569  0.3271 -0.7087 -0.6066
   67SAPC  H11A 5562   2.616   4.476   2.514  1.5326 -1.0414 -1.2854
   67SAPC  H11B 5563   2.638   4.655   2.526  2.0791  0.2184  0.1812
   67SAPC     P 5564   2.473   4.531   2.744  0.1481  0.7614 -0.0969
   67SAPC   O13 5565   2.387   4.607   2.652 -0.5450  0.2703  0.1379
   67SAPC   O14 5566   2.453   4.385   2.752 -0.0074  0.1009  0.2721
   67SAPC   O12 5567   2.626   4.556   2.707 -0.2502  0.1797  0.3741
   67SAPC   O11 5568   2.454   4.599   2.885  0.0036  0.1855  0.3626
   67SAPC    C1 5569   2.559   4.681   2.952  0.0719  0.9397  0.5969
   67SAPC    HA 5570   2.656   4.663   2.901 -0.8342  1.3527 -1.3934
   67SAPC    HB 5571   2.534   4.790   2.947  4.0771  1.9749 -1.6079
   67SAPC    C2 5572   2.575   4.642   3.100 -0.4116 -0.4098  0.0636
   67SAPC    HS 5573   2.618   4.540   3.093 -2.7292 -1.5656  1.7067
   67SAPC   O21 5574   2.446   4.651   3.162  0.3519 -0.0992  0.0590
   67SAPC   C21 5575   2.413   4.561   3.255  0.2381 -0.3191  0.9478
   67SAPC   O22 5576   2.484   4.464   3.281 -0.1817 -0.1934 -0.4064
   67SAPC   C22 5577   2.287   4.597   3.333  0.2291 -0.1414  0.2027
   67SAPC   H2R 5578   2.259   4.696   3.291  1.8287 -1.0885 -3.5708
   67SAPC   H2S 5579   2.209   4.529   3.291  0.5533  0.4143 -1.3713
   67SAPC    C3 5580   2.669   4.732   3.181 -0.3010  0.4548 -0.2636
   67SAPC    HX 5581   2.623   4.827   3.216 -1.2760 -0.9834  2.6641
   67SAPC    HY 5582   2.757   4.750   3.115  1.3150 -0.8118  1.4177
   67SAPC   O31 5583   2.722   4.681   3.301  0.4887  0.9245 -0.0617
   67SAPC   C31 5584   2.815   4.593   3.289 -0.8931 -0.8898 -0.1463
   67SAPC   O32 5585   2.859   4.554   3.181 -0.1152 -0.0142  0.0080
   67SAPC   C32 5586   2.873   4.549   3.426  0.0877 -0.4509 -0.5410
   67SAPC   H2X 5587   2.961   4.611   3.452 -0.5529 -0.2659  1.3165
   67SAPC   H2Y 5588   2.901   4.441   3.425 -1.4807 -0.8977 -1.7244
   67SAPC   C23 5589   2.308   4.558   3.481  0.1561  0.1710  1.1866
   67SAPC   H3R 5590   2.381   4.475   3.494  1.9718  1.7759  1.8222
   67SAPC   H3S 5591   2.211   4.526   3.523 -0.1757 -0.0933  0.2524
   67SAPC   C24 5592   2.363   4.674   3.563 -0.1882 -0.0068 -0.3648
   67SAPC   H4R 5593   2.445   4.723   3.507  0.0059 -0.6293 -0.6435
   67SAPC   H4S 5594   2.384   4.629   3.662  2.4310 -0.4542 -1.0499
   67SAPC   C25 5595   2.253   4.772   3.578  0.0052  0.0585 -0.1370
   67SAPC   H5R 5596   2.236   4.833   3.488 -1.6898 -0.7574 -0.4031
   67SAPC   C26 5597   2.172   4.796   3.688 -0.4444 -0.3013  0.2906
   67SAPC   H6R 5598   2.098   4.878   3.683 -0.2149 -0.0674  0.6314
   67SAPC   C27 5599   2.186   4.735   3.829 -0.2001  0.2919 -0.8710
   67SAPC   H7R 5600   2.282   4.679   3.834  0.4345  1.3573 -1.0243
   67SAPC   H7S 5601   2.100   4.667   3.849  2.2695 -2.7454  0.3384
   67SAPC   C28 5602   2.187   4.851   3.933  0.3245 -0.2641  0.1395
   67SAPC   H8R 5603   2.271   4.922   3.924  1.6615 -1.6185  1.3577
   67SAPC   C29 5604   2.128   4.855   4.051  0.2386 -0.0344 -0.1012
   67SAPC   H9R 5605   2.131   4.943   4.116 -3.3295 -0.2370  0.5226
   67SAPC  C210 5606   2.014   4.764   4.093 -0.3167  0.8204  0.6068
   67SAPC  H10R 5607   1.965   4.735   3.998  3.9159 -1.0589 -1.2601
   67SAPC  H10S 5608   1.950   4.823   4.163  0.0905  0.2164  1.5097
   67SAPC  C211 5609   2.067   4.641   4.165  0.5119  0.0831 -0.1215
   67SAPC  H11R 5610   2.118   4.561   4.108  3.0878 -1.3613  3.8506
   67SAPC  C212 5611   2.044   4.625   4.290  0.2824  0.0895 -0.5489
   67SAPC  H12R 5612   2.100   4.545   4.340 -0.4863  0.2225  0.5431
   67SAPC  C213 5613   1.970   4.721   4.392 -0.5000 -0.2039 -0.0780
   67SAPC  H13R 5614   1.996   4.828   4.377 -4.1354  0.5195 -2.6511
   67SAPC  H13S 5615   2.022   4.701   4.488 -0.7219 -4.9642 -0.7406
   67SAPC  C214 5616   1.816   4.707   4.400 -0.1246 -0.0195  0.2820
   67SAPC  H14R 5617   1.762   4.703   4.304 -1.2694 -0.9863  0.9464
   67SAPC  C215 5618   1.741   4.700   4.514  0.0374  0.4388  0.0169
   67SAPC  H15R 5619   1.632   4.684   4.507  0.0008  0.8995 -0.5784
   67SAPC  C216 5620   1.792   4.720   4.655  0.5028 -0.2733 -0.0597
   67SAPC  H16R 5621   1.746   4.814   4.691  1.4944  0.6556 -1.1673
   67SAPC  H16S 5622   1.902   4.734   4.662  0.3978  0.3103  0.4813
   67SAPC  C217 5623   1.762   4.611   4.758  0.8502  0.2248 -0.4395
   67SAPC  H17R 5624   1.814   4.520   4.722 -1.1516  0.0912 -3.4788
   67SAPC  H17S 5625   1.653   4.587   4.750  0.9364  0.0395 -1.2214
   67SAPC  C218 5626   1.802   4.648   4.898 -0.2823  0.2879 -0.6308
   67SAPC  H18R 5627   1.775   4.754   4.919  0.4186 -0.1274  3.0266
   67SAPC  H18S 5628   1.913   4.642   4.899 -0.3130 -0.3383 -0.5844
   67SAPC  C219 5629   1.754   4.552   5.011 -0.3946 -0.5586 -0.8500
   67SAPC  H19R 5630   1.831   4.487   5.056  1.2606  2.6405  1.3957
   67SAPC  H19S 5631   1.672   4.493   4.965 -0.3193 -0.1761 -1.4905
   67SAPC  C220 5632   1.692   4.629   5.128  0.1945  0.7477  0.1090
   67SAPC  H20R 5633   1.636   4.720   5.096  1.6159  1.7342  0.2887
   67SAPC  H20S 5634   1.767   4.658   5.205  2.2580 -2.0382 -0.7139
   67SAPC  H20T 5635   1.627   4.559   5.184  0.0530  1.0735  0.3533
   67SAPC   C33 5636   2.769   4.579   3.550  0.2031 -0.5571  0.6303
   67SAPC   H3X 5637   2.675   4.531   3.515  0.3354 -0.0579 -0.4334
   67SAPC   H3Y 5638   2.749   4.685   3.574  1.1306 -0.6342  1.8604
   67SAPC   C34 5639   2.811   4.506   3.678  0.1282  0.1282 -0.1781
   67SAPC   H4X 5640   2.901   4.442   3.668  0.0553 -0.5293  2.5312
   67SAPC   H4Y 5641   2.729   4.435   3.704  1.3609 -2.1097 -2.0665
   67SAPC   C35 5642   2.831   4.605   3.794  0.3058  0.7071 -0.6663
   67SAPC   H5X 5643   2.739   4.668   3.795  0.0188  0.2947 -0.3753
   67SAPC   H5Y 5644   2.915   4.673   3.771  1.9930 -0.8375  0.6636
   67SAPC   C36 5645   2.842   4.535   3.931  0.3701 -0.5057 -0.2934
   67SAPC   H6X 5646   2.891   4.604   4.003  0.2012  1.0593 -1.6209
   67SAPC   H6Y 5647   2.900   4.442   3.916  0.9209 -0.3457  0.7647
   67SAPC   C37 5648   2.700   4.490   3.981 -0.2216  0.5139  0.2284
   67SAPC   H7X 5649   2.713   4.429   4.073  0.1047 -1.6099 -1.1372
   67SAPC   H7Y 5650   2.657   4.432   3.897  1.5398 -3.0867  1.5672
   67SAPC   C38 5651   2.617   4.615   4.029 -0.8156  0.1984  0.0782
   67SAPC   H8X 5652   2.628   4.692   3.950  2.2767  0.5685  0.7292
   67SAPC   H8Y 5653   2.672   4.641   4.122 -0.1370  0.4086 -0.3747
   67SAPC   C39 5654   2.472   4.594   4.077  0.0919  0.0452 -0.8587
   67SAPC   H9X 5655   2.405   4.559   3.996 -2.4742  2.0059  0.2567
   67SAPC   H9Y 5656   2.437   4.696   4.103  2.1253  0.2500  1.3901
   67SAPC  C310 5657   2.453   4.494   4.193  0.2812  0.2588  0.8861
   67SAPC  H10X 5658   2.479   4.387   4.176 -2.0358 -0.2154 -0.1320
   67SAPC  H10Y 5659   2.343   4.480   4.208  0.6550 -2.0670  2.0745
   67SAPC  C311 5660   2.499   4.547   4.325 -0.1704 -0.4412 -0.5424
   67SAPC  H11X 5661   2.479   4.656   4.333  5.3803  1.0154 -1.8556
   67SAPC  H11Y 5662   2.610   4.543   4.329 -0.1748  0.4850  1.9184
   67SAPC  C312 5663   2.452   4.464   4.438  0.2151  0.0254  0.7267
   67SAPC  H12X 5664   2.463   4.361   4.399  2.8698  0.2486  0.6855
   67SAPC  H12Y 5665   2.342   4.471   4.451  0.1042 -0.5712  0.1443
   67SAPC  C313 5666   2.517   4.487   4.574 -0.8074 -0.0750 -0.1935
   67SAPC  H13X 5667   2.482   4.414   4.650  0.4575 -0.4450  0.0457
   67SAPC  H13Y 5668   2.497   4.586   4.621 -1.8980 -0.1992 -0.3560
   67SAPC  C314 5669   2.666   4.474   4.573 -0.0482 -0.5052  0.8496
   67SAPC  H14X 5670   2.695   4.576   4.538 -0.3486  0.0782  2.2251
   67SAPC  H14Y 5671   2.700   4.403   4.494  1.2129  1.3216 -0.3298
   67SAPC  C315 5672   2.732   4.436   4.702 -0.5397 -0.6336 -0.0856
   67SAPC  H15X 5673   2.842   4.422   4.698 -0.2419  1.1941  0.7903
   67SAPC  H15Y 5674   2.689   4.339   4.736  1.8336 -1.6783  0.1080
   67SAPC  C316 5675   2.705   4.539   4.809  0.5066  0.6736 -0.6392
   67SAPC  H16X 5676   2.596   4.551   4.825  0.8610  1.1643  1.7413
   67SAPC  H16Y 5677   2.737   4.642   4.783  0.7987  0.5920 -0.6086
   67SAPC  C317 5678   2.767   4.495   4.945  0.5287  0.1134  0.1650
   67SAPC  H17X 5679   2.873   4.466   4.927  0.2609  0.0859 -1.5382
   67SAPC  H17Y 5680   2.733   4.398   4.987  1.0522  0.1693  0.7314
   67SAPC  C318 5681   2.750   4.608   5.044 -0.3236 -0.4293  0.3001
   67SAPC  H18X 5682   2.791   4.583   5.144  2.0009 -0.9381 -0.7011
   67SAPC  H18Y 5683   2.641   4.630   5.048 -0.1363  0.8802 -1.0878
   67SAPC  H18Z 5684   2.793   4.701   5.003 -0.3261 -1.0206 -1.1077
   68SAPC     N 5685   6.370   4.102   2.693 -0.1273  0.8072 -0.3753
   68SAPC   C12 5686   6.433   4.081   2.828  0.3270 -0.5440 -0.1078
   68SAPC  H12A 5687   6.479   4.176   2.853 -0.5201 -0.2824  0.5315
   68SAPC  H12B 5688   6.507   4.003   2.825  1.2876  0.2904  0.8381
   68SAPC   C13 5689   6.473   4.153   2.592 -0.4071  0.0170 -0.1716
   68SAPC  H13A 5690   6.536   4.071   2.559  1.1640  0.9672  0.3459
   68SAPC  H13B 5691   6.428   4.196   2.504 -0.5114 -1.8269 -1.0606
   68SAPC  H13C 5692   6.533   4.231   2.637  0.5649 -0.2772 -0.9362
   68SAPC   C14 5693   6.315   3.969   2.640  0.0371 -0.0386 -0.3223
   68SAPC  H14A 5694   6.301   3.972   2.533  0.2357  1.9726 -0.3399
   68SAPC  H14B 5695   6.380   3.888   2.670 -1.5799 -1.3336 -0.1780
   68SAPC  H14C 5696   6.218   3.943   2.680  1.0033  0.8708  3.0296
   68SAPC   C15 5697   6.249   4.193   2.696 -0.5396 -0.3288  0.1003
   68SAPC  H15A 5698   6.215   4.230   2.600  0.9724 -0.1117 -0.3800
   68SAPC  H15B 5699   6.162   4.145   2.739 -1.7000  2.3801  1.0469
   68SAPC  H15C 5700   6.287   4.283   2.743  1.2159  0.0463 -1.8854
   68SAPC   C11 5701   6.331   4.041   2.948  0.2178 -0.7226 -0.1952
   68SAPC  H11A 5702   6.256   4.121   2.964  0.6176 -0.6821  1.7386
   68SAPC  H11B 5703   6.398   4.054   3.036 -0.6254  1.5260  0.2019
   68SAPC     P 5704   6.138   3.862   2.980 -0.1215 -0.2128  0.2420
   68SAPC   O13 5705   6.042   3.957   2.913 -0.6367  0.5831 -0.6199
   68SAPC   O14 5706   6.133   3.712   2.973  0.2743  0.1657  0.2916
   68SAPC   O12 5707   6.290   3.903   2.941  0.0203  0.8056  0.1454
   68SAPC   O11 5708   6.130   3.900   3.132  0.2327  0.3244 -1.0060
   68SAPC    C1 5709   6.010   3.908   3.205 -0.1309 -0.3123 -0.2894
   68SAPC    HA 5710   5.948   3.984   3.153  0.2305 -0.6591 -1.2457
   68SAPC    HB 5711   5.956   3.811   3.200 -0.6162  0.0187 -2.1533
   68SAPC    C2 5712   6.039   3.936   3.351 -0.6263  0.3064 -0.3672
   68SAPC    HS 5713   5.943   3.922   3.404 -0.2317 -1.5748 -0.0939
   68SAPC   O21 5714   6.092   4.066   3.375  0.0260  0.6242 -0.1502
   68SAPC   C21 5715   5.998   4.159   3.366 -0.3918  0.2634 -0.2673
   68SAPC   O22 5716   5.881   4.133   3.361  0.0266  0.1573 -0.1413
   68SAPC   C22 5717   6.059   4.300   3.373  0.0757  0.3286 -0.5454
   68SAPC   H2R 5718   6.117   4.306   3.279  0.6471 -1.7808 -0.3845
   68SAPC   H2S 5719   5.968   4.363   3.365 -0.3017 -0.0840  0.3523
   68SAPC    C3 5720   6.138   3.829   3.404  0.2338 -0.9945 -0.4482
   68SAPC    HX 5721   6.229   3.835   3.340  0.0588  0.9264 -0.5756
   68SAPC    HY 5722   6.079   3.736   3.390  0.5311 -0.8470 -3.3942
   68SAPC   O31 5723   6.169   3.837   3.542 -0.6479  0.6933 -0.0834
   68SAPC   C31 5724   6.272   3.920   3.565  0.0650  0.6313 -0.0930
   68SAPC   O32 5725   6.354   3.951   3.479  0.1205  0.0239  0.6362
   68SAPC   C32 5726   6.265   3.962   3.706 -0.1637 -0.6426  0.2463
   68SAPC   H2X 5727   6.247   3.872   3.768  1.7277 -0.2782  1.4086
   68SAPC   H2Y 5728   6.182   4.034   3.720  3.0124  3.7163 -1.2034
   68SAPC   C23 5729   6.152   4.321   3.495  0.6757  0.3302 -0.3861
   68SAPC   H3R 5730   6.237   4.249   3.493  1.7554  1.4699  1.2100
   68SAPC   H3S 5731   6.104   4.298   3.592  1.4922 -0.4404 -0.1515
   68SAPC   C24 5732   6.221   4.465   3.489  0.1049 -0.0931  0.9250
   68SAPC   H4R 5733   6.140   4.540   3.478  0.2842 -0.0461 -0.2411
   68SAPC   H4S 5734   6.265   4.462   3.387 -1.1260 -2.5170  0.3811
   68SAPC   C25 5735   6.309   4.486   3.608 -0.1217  1.0217 -0.3281
   68SAPC   H5R 5736   6.389   4.411   3.612 -2.5709 -1.7830 -0.3108
   68SAPC   C26 5737   6.309   4.580   3.707  0.2478 -0.0052  0.0539
   68SAPC   H6R 5738   6.382   4.570   3.788 -1.9153 -0.1339  2.0902
   68SAPC   C27 5739   6.209   4.691   3.725 -0.6137  0.0366  0.2600
   68SAPC   H7R 5740   6.162   4.708   3.626 -0.7433 -0.5179  0.2224
   68SAPC   H7S 5741   6.262   4.786   3.744 -2.9197  1.4711 -0.0477
   68SAPC   C28 5742   6.099   4.657   3.821 -0.0146  0.7017 -0.1444
   68SAPC   H8R 5743   6.001   4.628   3.782 -0.0934  1.2488 -0.3565
   68SAPC   C29 5744   6.110   4.646   3.960 -0.7392 -0.5911  0.5729
   68SAPC   H9R 5745   6.026   4.618   4.025 -0.0099  0.3891  1.9662
   68SAPC  C210 5746   6.242   4.670   4.032  0.4526 -0.2846  0.3802
   68SAPC  H10R 5747   6.330   4.639   3.971  1.0327 -0.6054  1.3647
   68SAPC  H10S 5748   6.255   4.610   4.125  0.1452  2.4688  2.3324
   68SAPC  C211 5749   6.255   4.814   4.071 -0.1873 -0.1852 -0.6559
   68SAPC  H11R 5750   6.296   4.877   3.991 -0.8910  0.7858 -0.2839
   68SAPC  C212 5751   6.206   4.873   4.184  0.7795  0.7428  0.2648
   68SAPC  H12R 5752   6.209   4.982   4.197 -1.2181  1.1863 -2.2207
   68SAPC  C213 5753   6.136   4.801   4.299 -0.1803 -0.5889  0.6477
   68SAPC  H13R 5754   6.081   4.709   4.269 -0.1697 -0.5066  0.3661
   68SAPC  H13S 5755   6.064   4.873   4.343  0.4641  0.4396  0.0728
   68SAPC  C214 5756   6.236   4.761   4.406 -0.0324  0.1960  0.1202
   68SAPC  H14R 5757   6.342   4.745   4.381  0.0341  1.5896 -0.6218
   68SAPC  C215 5758   6.197   4.737   4.530 -0.7500 -0.3799  0.5009
   68SAPC  H15R 5759   6.280   4.743   4.602  0.5733 -0.3579 -0.9713
   68SAPC  C216 5760   6.060   4.734   4.593 -0.3132  0.0771 -0.1456
   68SAPC  H16R 5761   5.978   4.732   4.519 -1.2048  0.1763  0.8059
   68SAPC  H16S 5762   6.042   4.827   4.652  1.1872  0.8013 -0.7842
   68SAPC  C217 5763   6.036   4.613   4.685 -0.4660  0.3458  0.6624
   68SAPC  H17R 5764   6.095   4.536   4.631  0.4717  0.6025  1.2917
   68SAPC  H17S 5765   5.927   4.595   4.697 -0.3644 -0.0189  1.0602
   68SAPC  C218 5766   6.099   4.638   4.820 -0.5445  0.8764  0.3179
   68SAPC  H18R 5767   6.064   4.735   4.860 -0.6540  0.7631  0.4968
   68SAPC  H18S 5768   6.209   4.648   4.811 -0.7071  2.1859 -0.3846
   68SAPC  C219 5769   6.062   4.535   4.923 -0.4570  0.4961 -0.1003
   68SAPC  H19R 5770   6.097   4.433   4.897 -0.6730  0.3090  0.3367
   68SAPC  H19S 5771   5.951   4.535   4.924 -0.4602  0.5013  1.5251
   68SAPC  C220 5772   6.111   4.569   5.070 -0.3705 -0.4885  0.1153
   68SAPC  H20R 5773   6.108   4.491   5.148 -1.3012  1.2342  1.8925
   68SAPC  H20S 5774   6.049   4.657   5.095 -1.2758 -0.8457 -0.8098
   68SAPC  H20T 5775   6.219   4.597   5.069 -0.4210 -0.2953 -1.1484
   68SAPC   C33 5776   6.391   4.049   3.752  0.4833 -0.3314  0.2039
   68SAPC   H3X 5777   6.382   4.148   3.702 -1.5666 -0.1852  0.7763
   68SAPC   H3Y 5778   6.489   4.005   3.724  1.4463  1.8015  0.0548
   68SAPC   C34 5779   6.391   4.060   3.908 -0.5057 -0.2909  0.8310
   68SAPC   H4X 5780   6.467   4.133   3.944  1.0617 -1.1441 -0.5820
   68SAPC   H4Y 5781   6.407   3.958   3.948  2.3788  0.3051  1.4358
   68SAPC   C35 5782   6.258   4.120   3.966 -0.0779 -0.7157 -0.1120
   68SAPC   H5X 5783   6.275   4.128   4.075  1.2133  0.3084 -0.3628
   68SAPC   H5Y 5784   6.172   4.055   3.938 -2.4624  1.6858  1.2079
   68SAPC   C36 5785   6.201   4.254   3.925 -0.2614 -0.6056  0.0692
   68SAPC   H6X 5786   6.214   4.274   3.816  0.5248  0.5554  0.3604
   68SAPC   H6Y 5787   6.265   4.332   3.972 -0.0477 -0.4704 -0.4309
   68SAPC   C37 5788   6.059   4.279   3.976 -0.1518  0.1403  0.4524
   68SAPC   H7X 5789   6.004   4.186   3.952  1.2163 -0.7395  0.5914
   68SAPC   H7Y 5790   6.021   4.362   3.913  1.3263 -0.3819 -1.1947
   68SAPC   C38 5791   6.057   4.326   4.127 -0.4271 -0.5192  0.0814
   68SAPC   H8X 5792   6.009   4.426   4.130  1.7316  0.5583  0.2734
   68SAPC   H8Y 5793   6.158   4.335   4.172 -0.2166  1.0603 -0.6636
   68SAPC   C39 5794   5.984   4.220   4.220  0.2616 -0.3774 -0.7161
   68SAPC   H9X 5795   6.005   4.118   4.180  0.9662 -1.0834  1.3142
   68SAPC   H9Y 5796   5.878   4.244   4.198  0.0784  0.9355  1.3156
   68SAPC  C310 5797   6.028   4.223   4.365 -0.1723 -0.1902  0.9673
   68SAPC  H10X 5798   6.041   4.332   4.382 -0.5102 -0.1680  1.0841
   68SAPC  H10Y 5799   6.123   4.167   4.373  1.0884  1.5445 -0.7833
   68SAPC  C311 5800   5.926   4.171   4.470 -0.0350  0.1849 -1.1545
   68SAPC  H11X 5801   5.924   4.060   4.470  0.8839  0.1462  0.2764
   68SAPC  H11Y 5802   5.826   4.216   4.448 -0.3664  0.4217  0.7105
   68SAPC  C312 5803   5.969   4.207   4.611 -0.5388  0.0490  0.2659
   68SAPC  H12X 5804   6.004   4.312   4.615 -0.7402  0.0850  2.9180
   68SAPC  H12Y 5805   6.062   4.151   4.634  0.9841  0.9477 -3.0816
   68SAPC  C313 5806   5.870   4.188   4.727 -0.7025  0.3969  0.1074
   68SAPC  H13X 5807   5.779   4.152   4.674 -0.0698  0.0842 -0.7950
   68SAPC  H13Y 5808   5.831   4.281   4.772 -2.2184 -1.0580  1.9694
   68SAPC  C314 5809   5.915   4.089   4.835  0.2216  0.6083 -0.2778
   68SAPC  H14X 5810   6.007   4.140   4.871  0.0314  0.9504 -0.2621
   68SAPC  H14Y 5811   5.939   3.996   4.780  2.1402  2.5264 -2.9356
   68SAPC  C315 5812   5.812   4.060   4.945 -0.1700 -0.5477  0.4648
   68SAPC  H15X 5813   5.722   4.013   4.902 -1.4049  2.4324 -0.4563
   68SAPC  H15Y 5814   5.775   4.157   4.986  2.7391  1.4877 -1.3219
   68SAPC  C316 5815   5.870   3.960   5.052  0.3337 -0.1953 -0.3449
   68SAPC  H16X 5816   5.974   3.988   5.080  0.1957  1.1888 -1.1306
   68SAPC  H16Y 5817   5.878   3.866   4.993  0.7913 -1.4790  1.6666
   68SAPC  C317 5818   5.773   3.940   5.162 -0.1823 -0.1738 -0.5993
   68SAPC  H17X 5819   5.685   3.877   5.136 -1.6159  0.4003  2.3952
   68SAPC  H17Y 5820   5.731   4.038   5.195  0.3644  0.0364 -0.5136
   68SAPC  C318 5821   5.836   3.871   5.290 -0.1587 -0.3629  0.0053
   68SAPC  H18X 5822   5.942   3.900   5.304 -0.1581 -1.1605  1.8745
   68SAPC  H18Y 5823   5.838   3.760   5.280 -2.9022 -0.3933 -1.2615
   68SAPC  H18Z 5824   5.782   3.897   5.383  1.9340  1.5516  0.7659
   69SAPC     N 5825   4.493   1.107   2.558 -0.3611 -0.3150 -0.3197
   69SAPC   C12 5826   4.586   1.093   2.679 -0.5009 -0.5912 -0.2563
   69SAPC  H12A 5827   4.685   1.110   2.640  0.3010 -0.2879  1.8083
   69SAPC  H12B 5828   4.598   0.990   2.708 -1.4232 -0.4442  0.7390
   69SAPC   C13 5829   4.374   1.021   2.590 -0.2271 -0.0102  0.0083
   69SAPC  H13A 5830   4.284   1.018   2.530 -0.6308  0.7038  0.5566
   69SAPC  H13B 5831   4.404   0.918   2.599  0.2981  0.1411  0.0455
   69SAPC  H13C 5832   4.343   1.042   2.691  0.7730  0.5628  0.2098
   69SAPC   C14 5833   4.456   1.253   2.530 -0.7773 -0.4725  0.3982
   69SAPC  H14A 5834   4.396   1.294   2.610  0.5257 -0.6920  1.5239
   69SAPC  H14B 5835   4.540   1.320   2.520 -1.7818  0.5953 -1.5571
   69SAPC  H14C 5836   4.398   1.253   2.439  0.8162  3.0396 -0.7792
   69SAPC   C15 5837   4.549   1.048   2.436 -0.1901 -0.1783 -0.7207
   69SAPC  H15A 5838   4.636   1.093   2.392  0.8425 -0.9756  0.4328
   69SAPC  H15B 5839   4.581   0.946   2.450  1.2599  0.3535  0.0211
   69SAPC  H15C 5840   4.471   1.050   2.361  0.6810  0.1896 -1.6352
   69SAPC   C11 5841   4.571   1.159   2.818  0.4406  0.1498  0.5842
   69SAPC  H11A 5842   4.572   1.268   2.794 -1.7026  0.0785 -0.0402
   69SAPC  H11B 5843   4.659   1.149   2.885  0.3486  0.9723  0.8388
   69SAPC     P 5844   4.423   1.028   2.998  0.2190 -0.1807 -0.1149
   69SAPC   O13 5845   4.282   0.991   3.001  0.4598  0.5382  0.4808
   69SAPC   O14 5846   4.519   0.916   2.995 -0.2113  0.0124  0.0896
   69SAPC   O12 5847   4.449   1.124   2.879  0.7950 -0.0438 -0.2293
   69SAPC   O11 5848   4.454   1.114   3.135 -0.0136  0.0057  0.9258
   69SAPC    C1 5849   4.582   1.109   3.189 -0.0763 -0.2736  0.0835
   69SAPC    HA 5850   4.627   1.009   3.204 -1.9423 -1.0840  0.5576
   69SAPC    HB 5851   4.649   1.180   3.136 -0.8526  0.9609  0.7015
   69SAPC    C2 5852   4.582   1.186   3.327 -0.5892 -0.2263  0.3727
   69SAPC    HS 5853   4.685   1.185   3.367  0.9097 -0.5936 -3.1353
   69SAPC   O21 5854   4.480   1.131   3.407 -0.4070 -0.5265  0.5900
   69SAPC   C21 5855   4.523   1.043   3.494  0.1680  0.4810 -0.4468
   69SAPC   O22 5856   4.638   1.001   3.509 -0.2154  0.7689 -0.7674
   69SAPC   C22 5857   4.406   1.010   3.594 -0.8454  0.6320  0.7529
   69SAPC   H2R 5858   4.389   1.095   3.664  0.4573 -0.0590  1.9717
   69SAPC   H2S 5859   4.318   0.985   3.532  0.2490 -0.6398 -0.3372
   69SAPC    C3 5860   4.551   1.339   3.297  0.1824  0.1705  0.8266
   69SAPC    HX 5861   4.447   1.337   3.260  0.7044  1.3321 -0.7965
   69SAPC    HY 5862   4.617   1.379   3.218 -0.7631  0.5568  0.2285
   69SAPC   O31 5863   4.562   1.430   3.408 -0.2873  0.7344  0.3269
   69SAPC   C31 5864   4.456   1.421   3.495 -0.0782  0.3556  0.0663
   69SAPC   O32 5865   4.349   1.376   3.452 -0.2511  0.1657  0.2700
   69SAPC   C32 5866   4.481   1.489   3.632 -0.3541 -0.7401  0.2258
   69SAPC   H2X 5867   4.388   1.507   3.689  0.2843  0.0714  1.0434
   69SAPC   H2Y 5868   4.541   1.582   3.628 -1.0650 -0.2474  0.8533
   69SAPC   C23 5869   4.434   0.874   3.668 -0.5356 -0.0648  0.2596
   69SAPC   H3R 5870   4.460   0.797   3.592  1.0413  1.7777 -1.1833
   69SAPC   H3S 5871   4.331   0.836   3.689 -0.1967 -1.1832 -0.0318
   69SAPC   C24 5872   4.523   0.899   3.795  0.3721 -0.9963  0.2017
   69SAPC   H4R 5873   4.467   0.969   3.860 -2.8646 -1.2458 -2.0743
   69SAPC   H4S 5874   4.609   0.959   3.757 -2.6048  3.1209 -0.6018
   69SAPC   C25 5875   4.572   0.778   3.868 -0.1908  0.3920 -0.5210
   69SAPC   H5R 5876   4.602   0.695   3.801 -3.3369 -0.6352 -0.8146
   69SAPC   C26 5877   4.566   0.750   4.006  0.2202 -0.0463 -0.5646
   69SAPC   H6R 5878   4.587   0.647   4.036  0.5718  0.3767  0.7046
   69SAPC   C27 5879   4.522   0.846   4.116 -0.0605 -0.5082  0.9140
   69SAPC   H7R 5880   4.479   0.940   4.077  0.3215  0.1210  1.9895
   69SAPC   H7S 5881   4.612   0.886   4.168 -0.5238 -0.4987  1.7189
   69SAPC   C28 5882   4.431   0.780   4.220 -1.0740 -0.0322  0.1583
   69SAPC   H8R 5883   4.372   0.698   4.178 -0.1337 -0.5451 -0.1782
   69SAPC   C29 5884   4.430   0.814   4.354  0.0662 -0.2994  0.3526
   69SAPC   H9R 5885   4.360   0.751   4.411  0.2568 -1.7306 -0.9162
   69SAPC  C210 5886   4.501   0.938   4.406  0.3414 -0.1383 -0.9406
   69SAPC  H10R 5887   4.492   1.021   4.333  1.5255  2.2637  1.4765
   69SAPC  H10S 5888   4.610   0.918   4.407  0.8235  2.1832  0.7522
   69SAPC  C211 5889   4.436   0.994   4.528 -0.1028 -0.5731  0.0847
   69SAPC  H11R 5890   4.343   1.049   4.512 -0.2316 -0.7587  0.1904
   69SAPC  C212 5891   4.470   0.964   4.656  0.3536  0.1346  0.1815
   69SAPC  H12R 5892   4.416   1.019   4.734  1.3549 -1.4896  2.1503
   69SAPC  C213 5893   4.586   0.876   4.704  0.0723  0.3653  0.2963
   69SAPC  H13R 5894   4.664   0.934   4.758  0.3705 -0.9433  1.3518
   69SAPC  H13S 5895   4.638   0.830   4.618 -0.6827 -0.9059  0.4754
   69SAPC  C214 5896   4.533   0.765   4.791  0.1972  0.1826 -0.3093
   69SAPC  H14R 5897   4.503   0.675   4.735 -1.4616 -0.3696  1.3528
   69SAPC  C215 5898   4.488   0.776   4.918 -0.4626  0.7897 -0.0025
   69SAPC  H15R 5899   4.454   0.684   4.967 -1.5928  1.4491  0.4911
   69SAPC  C216 5900   4.521   0.887   5.011 -0.3419 -0.5418  0.0292
   69SAPC  H16R 5901   4.562   0.973   4.954  1.4775 -2.5708 -1.8962
   69SAPC  H16S 5902   4.596   0.857   5.087 -1.4203 -1.5683  0.7188
   69SAPC  C217 5903   4.397   0.928   5.093  0.8179 -0.5244  0.7995
   69SAPC  H17R 5904   4.350   0.841   5.143  1.4865  0.2443  2.9158
   69SAPC  H17S 5905   4.335   0.974   5.013  2.6732 -1.0767 -1.0312
   69SAPC  C218 5906   4.442   1.026   5.201  0.5482 -0.0460  0.1835
   69SAPC  H18R 5907   4.477   1.119   5.153 -0.9524 -0.4877 -1.8810
   69SAPC  H18S 5908   4.530   0.985   5.255  2.5414  0.2671 -2.6233
   69SAPC  C219 5909   4.331   1.052   5.307 -0.0190 -0.5902  0.1659
   69SAPC  H19R 5910   4.316   0.957   5.362 -0.7805 -1.1280 -0.9234
   69SAPC  H19S 5911   4.232   1.070   5.258  1.0501  2.3327 -1.1560
   69SAPC  C220 5912   4.383   1.157   5.404  0.6617 -1.0200  0.6282
   69SAPC  H20R 5913   4.308   1.175   5.483 -0.2744  1.0456 -0.6355
   69SAPC  H20S 5914   4.414   1.245   5.343  0.8680  0.3978  2.7016
   69SAPC  H20T 5915   4.474   1.123   5.457  0.6304 -1.4565  0.4168
   69SAPC   C33 5916   4.546   1.387   3.728  0.3724  0.0901  0.3304
   69SAPC   H3X 5917   4.487   1.293   3.726 -1.0607  0.9529  0.6123
   69SAPC   H3Y 5918   4.552   1.423   3.832  2.0461  0.2765  0.1906
   69SAPC   C34 5919   4.693   1.370   3.707 -0.0391 -0.2457  0.1945
   69SAPC   H4X 5920   4.746   1.467   3.714 -0.5846 -0.0185  1.5058
   69SAPC   H4Y 5921   4.711   1.342   3.601 -0.3549  0.9530 -0.1908
   69SAPC   C35 5922   4.757   1.267   3.794 -0.1833  0.3351  0.0893
   69SAPC   H5X 5923   4.867   1.273   3.779 -0.0504 -0.3411  0.7587
   69SAPC   H5Y 5924   4.730   1.165   3.761 -1.0861  0.0083  1.7655
   69SAPC   C36 5925   4.722   1.275   3.947  0.0086 -0.2844  0.0311
   69SAPC   H6X 5926   4.611   1.269   3.954 -0.2925  1.3781 -2.2695
   69SAPC   H6Y 5927   4.744   1.380   3.978 -3.3715  0.5218  0.1234
   69SAPC   C37 5928   4.777   1.171   4.034 -0.2787  0.8289  0.6990
   69SAPC   H7X 5929   4.888   1.167   4.035 -0.2767  0.9082  0.7500
   69SAPC   H7Y 5930   4.741   1.072   3.997 -0.2244  1.6322 -1.7105
   69SAPC   C38 5931   4.713   1.160   4.171 -0.7726 -0.1704  0.0086
   69SAPC   H8X 5932   4.716   1.058   4.215 -0.5155  0.5909  1.8121
   69SAPC   H8Y 5933   4.604   1.181   4.170 -0.7239  0.3394 -2.4251
   69SAPC   C39 5934   4.775   1.253   4.286  0.5199  0.0328 -0.2573
   69SAPC   H9X 5935   4.748   1.359   4.264  1.0382  0.4433  0.9489
   69SAPC   H9Y 5936   4.886   1.246   4.286  0.4401 -2.0515 -1.3213
   69SAPC  C310 5937   4.709   1.226   4.417 -0.5110 -0.3192  0.7986
   69SAPC  H10X 5938   4.716   1.119   4.446 -0.9094 -1.1620 -1.8963
   69SAPC  H10Y 5939   4.605   1.265   4.415  0.7275  3.8658 -3.3725
   69SAPC  C311 5940   4.785   1.306   4.531  0.4301  0.8589  0.1463
   69SAPC  H11X 5941   4.758   1.412   4.510  1.8589  0.8352 -2.2425
   69SAPC  H11Y 5942   4.892   1.285   4.514  0.8218  1.9412  1.1446
   69SAPC  C312 5943   4.725   1.265   4.668  0.6444  0.1087  0.4403
   69SAPC  H12X 5944   4.708   1.155   4.671 -0.4759  0.2940  2.0092
   69SAPC  H12Y 5945   4.619   1.296   4.654  0.3896 -1.3771 -1.2730
   69SAPC  C313 5946   4.791   1.318   4.786 -0.9241 -0.1943  0.0093
   69SAPC  H13X 5947   4.774   1.428   4.785  1.3854  0.2158  0.4912
   69SAPC  H13Y 5948   4.901   1.299   4.787 -0.0729  3.7174  1.3568
   69SAPC  C314 5949   4.728   1.267   4.915 -0.5369 -0.2818 -0.1251
   69SAPC  H14X 5950   4.698   1.161   4.906 -0.0657 -0.3698 -0.7121
   69SAPC  H14Y 5951   4.639   1.330   4.939  1.8501  2.7861  1.3980
   69SAPC  C315 5952   4.829   1.261   5.029 -0.4401 -0.5543 -0.9064
   69SAPC  H15X 5953   4.855   1.369   5.039  1.3052 -1.1188  1.7279
   69SAPC  H15Y 5954   4.919   1.209   4.989  1.4529  1.5887  0.3369
   69SAPC  C316 5955   4.780   1.190   5.160  0.0014 -0.1450 -0.8179
   69SAPC  H16X 5956   4.753   1.083   5.148 -3.8302  0.7370 -1.5178
   69SAPC  H16Y 5957   4.688   1.237   5.202  0.3568 -0.5835  0.4993
   69SAPC  C317 5958   4.884   1.189   5.276  0.3604 -0.1088  0.2928
   69SAPC  H17X 5959   4.893   1.288   5.325  2.4807 -0.8249  1.4775
   69SAPC  H17Y 5960   4.973   1.149   5.223 -1.0474 -2.7567 -0.2754
   69SAPC  C318 5961   4.841   1.093   5.401 -0.3752  0.4172  0.6202
   69SAPC  H18X 5962   4.786   1.001   5.369  3.6385 -2.2495  0.7215
   69SAPC  H18Y 5963   4.780   1.154   5.470 -1.5589  3.2192 -2.6038
   69SAPC  H18Z 5964   4.939   1.055   5.436  0.4392  0.8674 -1.0869
   70SAPC     N 5965   0.449   5.702   3.368  1.1201  1.0393  0.1556
   70SAPC   C12 5966   0.377   5.568   3.368 -0.4991 -0.1928 -0.9876
   70SAPC  H12A 5967   0.395   5.535   3.470 -1.3709  1.5172 -0.2363
   70SAPC  H12B 5968   0.428   5.500   3.301  1.8262  1.5636 -1.1228
   70SAPC   C13 5969   0.586   5.685   3.397 -0.4299  0.0781 -0.3362
   70SAPC  H13A 5970   0.629   5.633   3.313 -0.3456 -1.5736  0.6744
   70SAPC  H13B 5971   0.631   5.783   3.391 -1.6414  0.8164  1.5530
   70SAPC  H13C 5972   0.597   5.644   3.497 -0.3863 -1.0524 -0.7957
   70SAPC   C14 5973   0.430   5.772   3.240  0.2741  0.4099 -0.5891
   70SAPC  H14A 5974   0.325   5.784   3.216  0.8963  3.3702 -2.3859
   70SAPC  H14B 5975   0.469   5.873   3.249 -1.4937  1.2711 -1.9022
   70SAPC  H14C 5976   0.481   5.716   3.164  3.9771 -0.0741  1.9925
   70SAPC   C15 5977   0.394   5.797   3.471  0.1147  0.1468 -0.2496
   70SAPC  H15A 5978   0.301   5.833   3.428  0.0167  0.4612  0.2198
   70SAPC  H15B 5979   0.384   5.759   3.571 -0.5492  1.5854  0.2658
   70SAPC  H15C 5980   0.461   5.881   3.477  0.8280 -0.3067 -1.5206
   70SAPC   C11 5981   0.224   5.567   3.353  0.3208 -0.1390  0.1849
   70SAPC  H11A 5982   0.191   5.647   3.423  2.9187  1.5462 -0.3639
   70SAPC  H11B 5983   0.186   5.471   3.392  0.7729 -0.3907  0.0149
   70SAPC     P 5984   0.153   5.496   3.116 -0.2253  0.2187  0.8161
   70SAPC   O13 5985   0.165   5.568   2.982 -0.3204  0.8680 -0.2489
   70SAPC   O14 5986   0.247   5.376   3.138  0.3347 -0.0981 -0.8465
   70SAPC   O12 5987   0.180   5.604   3.220 -0.2900  0.7723 -0.0408
   70SAPC   O11 5988   0.001   5.442   3.124 -0.1040 -0.0970  0.3004
   70SAPC    C1 5989  -0.077   5.454   3.248 -0.1835 -0.4502  1.4596
   70SAPC    HA 5990  -0.045   5.540   3.311 -0.9159 -0.4264  1.8153
   70SAPC    HB 5991  -0.185   5.464   3.225  0.0919  0.3869  0.4890
   70SAPC    C2 5992  -0.067   5.324   3.331  0.0018 -0.2882 -0.3037
   70SAPC    HS 5993   0.039   5.311   3.362  0.7670  0.6093 -2.3812
   70SAPC   O21 5994  -0.118   5.213   3.255 -0.0922  0.1201 -0.0571
   70SAPC   C21 5995  -0.027   5.117   3.252  0.2060 -0.2855 -0.4831
   70SAPC   O22 5996   0.084   5.125   3.299  0.0752  0.7843  0.5174
   70SAPC   C22 5997  -0.099   4.995   3.191  0.8372  0.5738  0.9007
   70SAPC   H2R 5998  -0.200   5.025   3.155 -0.3798 -2.4105  1.4819
   70SAPC   H2S 5999  -0.045   4.975   3.096  2.9576 -2.3544  2.5387
   70SAPC    C3 6000  -0.152   5.337   3.463 -0.4187  0.1644 -0.7929
   70SAPC    HX 6001  -0.135   5.238   3.509  0.0401  1.2324  1.4718
   70SAPC    HY 6002  -0.257   5.339   3.426 -0.5709 -0.9221 -0.4358
   70SAPC   O31 6003  -0.120   5.458   3.536  0.4145 -0.0370  0.3663
   70SAPC   C31 6004  -0.135   5.455   3.669  0.3679 -0.0654 -0.1481
   70SAPC   O32 6005  -0.163   5.349   3.728  0.6009 -0.4957 -0.1851
   70SAPC   C32 6006  -0.106   5.593   3.732  0.6594 -0.0732 -0.8285
   70SAPC   H2X 6007  -0.187   5.654   3.688 -0.8421 -1.3115  0.1372
   70SAPC   H2Y 6008  -0.016   5.651   3.703  0.6906 -0.2026 -0.9948
   70SAPC   C23 6009  -0.107   4.878   3.288  0.0251  0.0886 -0.4767
   70SAPC   H3R 6010  -0.010   4.823   3.286 -0.6850 -1.3300  1.1109
   70SAPC   H3S 6011  -0.173   4.800   3.244  1.9691  0.5032 -4.5958
   70SAPC   C24 6012  -0.164   4.917   3.429  0.3652  0.0846  0.0326
   70SAPC   H4R 6013  -0.271   4.944   3.419  0.6421  0.5914 -1.7919
   70SAPC   H4S 6014  -0.099   4.995   3.475 -0.1250  0.6959 -0.2843
   70SAPC   C25 6015  -0.146   4.797   3.520  0.0668 -0.3465 -0.0034
   70SAPC   H5R 6016  -0.094   4.714   3.469  1.2941  1.7485 -2.3779
   70SAPC   C26 6017  -0.183   4.784   3.644 -0.8165  0.6134 -0.3725
   70SAPC   H6R 6018  -0.181   4.685   3.692  0.5819  1.6369  1.8479
   70SAPC   C27 6019  -0.243   4.886   3.733  0.1804 -0.1671 -0.3010
   70SAPC   H7R 6020  -0.279   4.827   3.820  0.9659 -1.5863 -0.9009
   70SAPC   H7S 6021  -0.341   4.911   3.688 -0.4035  0.7229  1.3748
   70SAPC   C28 6022  -0.164   5.006   3.772 -0.3595  0.5226  0.5293
   70SAPC   H8R 6023  -0.138   5.070   3.686 -0.6213 -0.3837 -0.2345
   70SAPC   C29 6024  -0.132   5.039   3.897  0.0142  0.1941  0.5552
   70SAPC   H9R 6025  -0.063   5.123   3.915  0.1158 -0.1011  1.5928
   70SAPC  C210 6026  -0.165   4.958   4.020 -0.2356 -0.5237 -0.6215
   70SAPC  H10R 6027  -0.243   4.881   4.002 -1.1982  0.3835 -0.4248
   70SAPC  H10S 6028  -0.218   5.032   4.084 -1.3147 -2.5393  0.9082
   70SAPC  C211 6029  -0.047   4.892   4.092  0.2482 -0.2741 -0.2555
   70SAPC  H11R 6030   0.033   4.853   4.027  1.5829  1.6703  0.1183
   70SAPC  C212 6031  -0.054   4.858   4.224  0.3677 -0.8305 -0.2138
   70SAPC  H12R 6032   0.036   4.806   4.258  1.4308  0.2491 -1.2344
   70SAPC  C213 6033  -0.155   4.887   4.332  0.9008  0.2490  0.2297
   70SAPC  H13R 6034  -0.169   4.793   4.391  0.1624  0.4311  0.3572
   70SAPC  H13S 6035  -0.250   4.908   4.279 -0.0938 -0.4908  1.6448
   70SAPC  C214 6036  -0.127   5.003   4.432  0.2232  0.0138  0.0285
   70SAPC  H14R 6037  -0.124   5.101   4.383  0.1689  0.4076  0.7930
   70SAPC  C215 6038  -0.111   5.005   4.562  0.1655  0.4860  0.7084
   70SAPC  H15R 6039  -0.095   5.100   4.615 -0.8365  2.3851 -2.1491
   70SAPC  C216 6040  -0.127   4.881   4.645  0.0133  0.2497  0.4986
   70SAPC  H16R 6041  -0.202   4.806   4.614 -0.7969 -0.4892  3.8568
   70SAPC  H16S 6042  -0.167   4.913   4.743 -1.1690 -0.9797  0.4462
   70SAPC  C217 6043   0.004   4.808   4.653 -0.7846 -0.2164  0.0347
   70SAPC  H17R 6044   0.075   4.877   4.702 -0.0652 -0.3495 -0.7984
   70SAPC  H17S 6045   0.048   4.771   4.558 -2.4743  1.4615 -1.4829
   70SAPC  C218 6046  -0.003   4.693   4.752 -0.2708 -0.2869 -0.1803
   70SAPC  H18R 6047  -0.048   4.720   4.850  0.6993 -1.8814  0.7333
   70SAPC  H18S 6048   0.105   4.682   4.775 -0.7488  1.2559  3.4390
   70SAPC  C219 6049  -0.071   4.565   4.695 -0.2385  0.3885  0.0985
   70SAPC  H19R 6050  -0.022   4.540   4.599 -0.5359 -0.5220  0.1709
   70SAPC  H19S 6051  -0.177   4.579   4.668  0.4603  2.1913 -2.0426
   70SAPC  C220 6052  -0.057   4.442   4.791  0.0414  0.9019 -0.1849
   70SAPC  H20R 6053  -0.140   4.444   4.864  1.9231 -1.7774  2.2556
   70SAPC  H20S 6054   0.039   4.455   4.846  0.2423  1.1603 -0.5898
   70SAPC  H20T 6055  -0.052   4.345   4.738  0.0207  0.3955  0.7142
   70SAPC   C33 6056  -0.126   5.587   3.885  0.5586 -0.0021  0.3904
   70SAPC   H3X 6057  -0.022   5.580   3.924  0.2324 -2.0410  0.9874
   70SAPC   H3Y 6058  -0.181   5.494   3.910  1.6847 -1.1339 -1.1459
   70SAPC   C34 6059  -0.191   5.712   3.946 -0.0203 -0.1091 -0.2890
   70SAPC   H4X 6060  -0.297   5.725   3.915 -0.9174 -1.9328  1.7267
   70SAPC   H4Y 6061  -0.114   5.788   3.922  1.4726 -0.8304  1.8932
   70SAPC   C35 6062  -0.218   5.700   4.102  0.2063  0.2899 -0.1338
   70SAPC   H5X 6063  -0.243   5.593   4.118 -1.5703  0.6697 -0.0646
   70SAPC   H5Y 6064  -0.305   5.767   4.118  0.0964  0.3804 -1.1077
   70SAPC   C36 6065  -0.095   5.712   4.199  0.1123 -0.4131  0.6033
   70SAPC   H6X 6066  -0.050   5.813   4.183 -1.3296  0.1622 -0.0891
   70SAPC   H6Y 6067  -0.020   5.641   4.160 -0.4376 -0.0051 -1.3189
   70SAPC   C37 6068  -0.123   5.687   4.337  0.2422 -0.0788 -0.7802
   70SAPC   H7X 6069  -0.191   5.762   4.382 -0.0217 -0.6246 -0.2569
   70SAPC   H7Y 6070  -0.169   5.588   4.359 -0.8699  0.6598  0.3668
   70SAPC   C38 6071   0.003   5.689   4.431  0.3271  0.8665 -0.4203
   70SAPC   H8X 6072   0.038   5.793   4.451  1.2454  0.3162  0.9717
   70SAPC   H8Y 6073   0.081   5.626   4.382 -0.4991 -2.3763  2.0834
   70SAPC   C39 6074  -0.033   5.629   4.568 -0.3320  0.4361 -0.3071
   70SAPC   H9X 6075  -0.107   5.693   4.621  0.7504  2.2499 -0.9103
   70SAPC   H9Y 6076   0.055   5.647   4.634 -0.6921 -0.0884  0.3417
   70SAPC  C310 6077  -0.057   5.472   4.568 -0.1780 -0.0540 -0.2366
   70SAPC  H10X 6078   0.020   5.428   4.502  1.3976  2.4513 -0.1957
   70SAPC  H10Y 6079  -0.153   5.444   4.519 -0.2494 -0.4287  0.1174
   70SAPC  C311 6080  -0.052   5.423   4.714 -0.5731 -0.2981  0.1246
   70SAPC  H11X 6081  -0.078   5.315   4.712  1.9192 -0.9704 -2.2542
   70SAPC  H11Y 6082  -0.129   5.464   4.782 -1.2335 -0.5314 -0.4639
   70SAPC  C312 6083   0.085   5.442   4.788 -0.1398 -0.1549 -0.1338
   70SAPC  H12X 6084   0.098   5.549   4.812  2.2077  0.3362 -3.0803
   70SAPC  H12Y 6085   0.163   5.415   4.714 -2.1619  0.7299 -2.7235
   70SAPC  C313 6086   0.100   5.346   4.909  0.0702 -0.1048  0.8757
   70SAPC  H13X 6087   0.207   5.333   4.935  0.5620 -1.3041 -1.5186
   70SAPC  H13Y 6088   0.058   5.249   4.877 -2.7751  0.7251  1.7861
   70SAPC  C314 6089   0.028   5.386   5.043 -0.0530  0.0062  0.0724
   70SAPC  H14X 6090  -0.023   5.294   5.078  3.4532 -3.2801 -2.5059
   70SAPC  H14Y 6091  -0.054   5.459   5.026 -0.1043 -0.0533  0.0640
   70SAPC  C315 6092   0.140   5.428   5.144 -0.2401  0.0710  0.0152
   70SAPC  H15X 6093   0.183   5.528   5.119 -1.0624  0.0605 -1.5706
   70SAPC  H15Y 6094   0.212   5.344   5.142 -0.2215  0.0873 -0.0088
   70SAPC  C316 6095   0.089   5.453   5.286  0.8951 -1.1319  0.3331
   70SAPC  H16X 6096   0.030   5.359   5.290 -0.0945 -0.7377 -2.5124
   70SAPC  H16Y 6097   0.020   5.540   5.277  0.6529 -1.3383  0.1723
   70SAPC  C317 6098   0.193   5.470   5.389 -0.4102 -0.8080 -0.1251
   70SAPC  H17X 6099   0.243   5.565   5.364 -0.0113 -1.5261 -2.2252
   70SAPC  H17Y 6100   0.264   5.385   5.390  0.5668 -0.0248  1.4400
   70SAPC  C318 6101   0.136   5.485   5.530  0.0750 -0.1496  0.4548
   70SAPC  H18X 6102   0.205   5.512   5.613 -0.1989 -2.0152  1.3302
   70SAPC  H18Y 6103   0.101   5.385   5.561  0.4431  0.0117  1.4321
   70SAPC  H18Z 6104   0.053   5.558   5.514  1.7403  1.6830 -0.3497
   71SAPC     N 6105   4.717   2.999   2.676 -0.9057  0.2815 -0.3895
   71SAPC   C12 6106   4.826   3.060   2.768 -0.3994  0.0704  0.0239
   71SAPC  H12A 6107   4.809   3.166   2.755 -2.7286 -0.2999 -0.5388
   71SAPC  H12B 6108   4.923   3.026   2.737 -0.4639  0.0487 -0.1602
   71SAPC   C13 6109   4.596   3.082   2.691  0.2211  0.0236  0.5700
   71SAPC  H13A 6110   4.610   3.184   2.657  1.0933 -0.8405 -1.9344
   71SAPC  H13B 6111   4.508   3.040   2.646  0.8616 -0.9682  0.2239
   71SAPC  H13C 6112   4.583   3.091   2.797 -2.6911 -0.1232  0.3046
   71SAPC   C14 6113   4.770   3.002   2.537  0.4592 -0.0150  0.2610
   71SAPC  H14A 6114   4.877   2.997   2.527  0.4950 -1.5642  1.0238
   71SAPC  H14B 6115   4.731   2.927   2.469  0.4038  0.2753 -0.0344
   71SAPC  H14C 6116   4.733   3.093   2.492 -1.8259 -2.2587 -2.9693
   71SAPC   C15 6117   4.683   2.855   2.713 -0.5399 -0.3364  0.8922
   71SAPC  H15A 6118   4.582   2.835   2.679  0.1315 -2.0087 -0.2894
   71SAPC  H15B 6119   4.753   2.788   2.665  1.4039  2.5284 -0.4924
   71SAPC  H15C 6120   4.677   2.849   2.820  0.6011  0.6130  1.0228
   71SAPC   C11 6121   4.798   3.040   2.928  0.1398 -0.3902  0.4504
   71SAPC  H11A 6122   4.860   3.120   2.973 -0.6176  0.1131  0.6126
   71SAPC  H11B 6123   4.829   2.939   2.963 -0.7037 -0.7664  0.1455
   71SAPC     P 6124   4.605   3.201   3.026 -0.2384 -0.6704 -0.0016
   71SAPC   O13 6125   4.630   3.303   2.926  0.2816  0.0593  0.5113
   71SAPC   O14 6126   4.470   3.171   3.068 -0.1611  0.2833 -0.1622
   71SAPC   O12 6127   4.661   3.059   2.973  0.2128 -0.1201 -0.5658
   71SAPC   O11 6128   4.692   3.224   3.157 -0.2181 -0.1118  0.3812
   71SAPC    C1 6129   4.711   3.114   3.244  0.2247 -0.3661  0.3043
   71SAPC    HA 6130   4.701   3.018   3.189  0.2992  0.6472 -1.5822
   71SAPC    HB 6131   4.818   3.098   3.269  0.4256  1.4894  0.8065
   71SAPC    C2 6132   4.624   3.120   3.371  0.0262 -0.3200  0.1680
   71SAPC    HS 6133   4.527   3.149   3.326  0.9075 -0.4454 -1.8878
   71SAPC   O21 6134   4.662   3.220   3.465  0.1434  0.2351  0.4850
   71SAPC   C21 6135   4.559   3.269   3.539  0.5336 -0.3454  0.7184
   71SAPC   O22 6136   4.443   3.236   3.536  0.2218 -0.2112  0.8626
   71SAPC   C22 6137   4.618   3.367   3.637  0.4778  0.3622  0.0156
   71SAPC   H2R 6138   4.728   3.372   3.629  0.5368 -0.3626  0.2470
   71SAPC   H2S 6139   4.583   3.469   3.610  3.6559  1.6505  0.4114
   71SAPC    C3 6140   4.621   2.980   3.437 -0.1356 -0.2612 -0.2463
   71SAPC    HX 6141   4.728   2.959   3.456 -0.1975  1.7076  2.9637
   71SAPC    HY 6142   4.593   2.899   3.366  0.3183  1.1142 -2.0740
   71SAPC   O31 6143   4.543   2.969   3.564 -0.4060 -0.3123  0.1398
   71SAPC   C31 6144   4.418   2.935   3.547  0.1966 -0.4123  0.1557
   71SAPC   O32 6145   4.370   2.899   3.441 -0.2804  0.5636  0.6222
   71SAPC   C32 6146   4.347   2.931   3.679 -0.1528  0.0015  0.1718
   71SAPC   H2X 6147   4.273   2.848   3.672  0.1942 -0.2548 -0.7218
   71SAPC   H2Y 6148   4.309   3.031   3.707 -0.0066 -0.1295  0.8546
   71SAPC   C23 6149   4.565   3.328   3.778  0.0377  0.0704 -0.3213
   71SAPC   H3R 6150   4.622   3.237   3.809  0.8353  0.1189 -1.6054
   71SAPC   H3S 6151   4.457   3.300   3.786  0.0283  0.4197  1.1668
   71SAPC   C24 6152   4.592   3.437   3.883  0.5142 -0.4307  0.4906
   71SAPC   H4R 6153   4.531   3.424   3.975 -0.7149 -0.3389 -0.3022
   71SAPC   H4S 6154   4.552   3.533   3.845 -0.3750 -1.4263 -1.2161
   71SAPC   C25 6155   4.731   3.470   3.925  0.1636 -0.6481  0.2054
   71SAPC   H5R 6156   4.796   3.501   3.842  0.6222 -0.6424  0.5605
   71SAPC   C26 6157   4.780   3.475   4.048  0.3380  0.5626 -0.6547
   71SAPC   H6R 6158   4.890   3.479   4.044  0.5141 -1.4544  1.0010
   71SAPC   C27 6159   4.712   3.442   4.180  0.3789  0.6553  0.3216
   71SAPC   H7R 6160   4.777   3.390   4.254 -1.6277 -0.4765  1.3769
   71SAPC   H7S 6161   4.627   3.375   4.158  1.1602 -0.1692 -0.2198
   71SAPC   C28 6162   4.651   3.569   4.239 -0.9373 -0.4389 -0.0796
   71SAPC   H8R 6163   4.606   3.631   4.160 -2.4710 -1.1026  0.2484
   71SAPC   C29 6164   4.668   3.622   4.363  0.6170 -0.1537 -0.2353
   71SAPC   H9R 6165   4.599   3.703   4.391 -0.4853 -0.9747 -0.4830
   71SAPC  C210 6166   4.741   3.561   4.478  0.1131 -0.6505 -0.1624
   71SAPC  H10R 6167   4.801   3.640   4.528 -0.1664 -1.5621  1.6998
   71SAPC  H10S 6168   4.811   3.491   4.426 -0.6545 -0.4353 -1.5314
   71SAPC  C211 6169   4.646   3.498   4.586 -0.7740  0.0211  0.9749
   71SAPC  H11R 6170   4.623   3.393   4.562 -0.1645  0.5325 -2.4115
   71SAPC  C212 6171   4.606   3.553   4.696 -0.4195 -0.1080  0.1464
   71SAPC  H12R 6172   4.536   3.513   4.771  0.4556 -0.0419  1.0244
   71SAPC  C213 6173   4.642   3.693   4.739  0.4113 -0.0342 -0.8301
   71SAPC  H13R 6174   4.724   3.748   4.688  0.6234  0.9816  0.5364
   71SAPC  H13S 6175   4.686   3.680   4.840  1.6534  3.5353 -0.7806
   71SAPC  C214 6176   4.517   3.780   4.740 -0.1002 -0.0257 -0.7002
   71SAPC  H14R 6177   4.524   3.850   4.655  0.4150 -0.7928 -1.3055
   71SAPC  C215 6178   4.428   3.795   4.844  0.0015  0.0513  0.3758
   71SAPC  H15R 6179   4.351   3.873   4.833 -0.0447 -0.0519 -0.0767
   71SAPC  C216 6180   4.422   3.718   4.980 -0.0466 -0.1585  0.4819
   71SAPC  H16R 6181   4.438   3.789   5.064 -1.7755 -1.8778  2.3454
   71SAPC  H16S 6182   4.503   3.643   4.980  2.3871  2.1969 -2.7735
   71SAPC  C217 6183   4.280   3.659   4.982 -0.5441 -0.0641 -0.3878
   71SAPC  H17R 6184   4.278   3.560   4.933 -3.5000  1.0288 -2.7675
   71SAPC  H17S 6185   4.205   3.720   4.927 -1.2412 -0.7150 -0.1670
   71SAPC  C218 6186   4.229   3.650   5.127 -0.3095 -0.3381 -0.8989
   71SAPC  H18R 6187   4.310   3.609   5.191  1.8216  0.3980 -3.0146
   71SAPC  H18S 6188   4.142   3.581   5.128 -0.3968 -0.2329 -1.1891
   71SAPC  C219 6189   4.183   3.792   5.178 -0.3983  0.1071 -0.1942
   71SAPC  H19R 6190   4.108   3.817   5.099  0.5120 -0.5732 -1.3107
   71SAPC  H19S 6191   4.268   3.863   5.184 -0.5769  0.2245  1.2100
   71SAPC  C220 6192   4.103   3.794   5.312  0.0514 -0.3633  0.8423
   71SAPC  H20R 6193   4.114   3.895   5.357 -0.3573  0.2464 -0.3805
   71SAPC  H20S 6194   4.143   3.716   5.380 -1.6086 -0.2159  2.0246
   71SAPC  H20T 6195   3.998   3.764   5.294  0.1650 -1.3267  1.6652
   71SAPC   C33 6196   4.449   2.893   3.795 -0.4748 -0.0909 -0.1506
   71SAPC   H3X 6197   4.534   2.964   3.805  0.6010 -1.2238 -0.9304
   71SAPC   H3Y 6198   4.479   2.786   3.795 -1.5291 -0.4067  0.8950
   71SAPC   C34 6199   4.372   2.897   3.929  0.3396 -0.6140 -0.7622
   71SAPC   H4X 6200   4.448   2.866   4.004  0.8238 -0.0156 -0.9967
   71SAPC   H4Y 6201   4.273   2.846   3.933 -1.2518  2.3336  1.0670
   71SAPC   C35 6202   4.332   3.044   3.964  0.0077  0.2239 -0.5707
   71SAPC   H5X 6203   4.267   3.087   3.885 -0.6116  0.2530 -0.0503
   71SAPC   H5Y 6204   4.426   3.100   3.983  1.1666 -1.8191  0.1259
   71SAPC   C36 6205   4.253   3.052   4.096  0.0263 -0.4368  0.5060
   71SAPC   H6X 6206   4.172   2.977   4.085 -0.0406 -0.6979  2.5024
   71SAPC   H6Y 6207   4.211   3.155   4.100 -0.5446 -0.6029 -0.5778
   71SAPC   C37 6208   4.344   3.039   4.220  0.5808  0.3383  0.3882
   71SAPC   H7X 6209   4.434   3.102   4.207  1.9644 -1.8537 -1.5318
   71SAPC   H7Y 6210   4.377   2.933   4.218 -1.1840 -0.2341 -0.1494
   71SAPC   C38 6211   4.280   3.074   4.360 -0.5929 -0.5848  0.4811
   71SAPC   H8X 6212   4.214   2.989   4.385  0.4072 -1.3460  0.5647
   71SAPC   H8Y 6213   4.214   3.155   4.320  0.0037 -2.3613 -4.8859
   71SAPC   C39 6214   4.372   3.120   4.472 -0.5549 -0.1648  0.3569
   71SAPC   H9X 6215   4.430   3.209   4.440 -1.1214 -0.3058 -1.1325
   71SAPC   H9Y 6216   4.440   3.034   4.490  0.8819  0.1418 -2.9388
   71SAPC  C310 6217   4.303   3.175   4.597 -0.2446 -0.2024 -0.7111
   71SAPC  H10X 6218   4.220   3.107   4.625 -1.2232 -0.4301 -3.7646
   71SAPC  H10Y 6219   4.255   3.271   4.569  0.0658  0.5456  1.1707
   71SAPC  C311 6220   4.389   3.203   4.722  0.4539 -0.2055 -0.5714
   71SAPC  H11X 6221   4.471   3.271   4.693  0.9868 -0.2418  0.7845
   71SAPC  H11Y 6222   4.432   3.102   4.740 -1.9210 -1.0851  0.7708
   71SAPC  C312 6223   4.310   3.253   4.844  0.0913 -0.3965  0.4760
   71SAPC  H12X 6224   4.225   3.182   4.850 -0.8173  0.3495 -2.2522
   71SAPC  H12Y 6225   4.280   3.360   4.837 -0.9442 -0.5020  2.4982
   71SAPC  C313 6226   4.393   3.231   4.973  0.5957 -0.2848  0.1528
   71SAPC  H13X 6227   4.434   3.128   4.960 -0.2380 -0.4296 -1.5469
   71SAPC  H13Y 6228   4.337   3.244   5.068  0.8499  0.4473  0.2054
   71SAPC  C314 6229   4.501   3.333   4.978  0.1324 -0.1431  0.3972
   71SAPC  H14X 6230   4.464   3.437   4.969 -1.4243 -0.4778  2.2059
   71SAPC  H14Y 6231   4.569   3.306   4.894  1.7758 -1.0602  1.9503
   71SAPC  C315 6232   4.580   3.318   5.108  0.2116  0.7072 -0.4160
   71SAPC  H15X 6233   4.680   3.367   5.107  0.1844  0.8130  0.6822
   71SAPC  H15Y 6234   4.585   3.209   5.131  0.0015  0.8706  0.4496
   71SAPC  C316 6235   4.511   3.383   5.222 -0.1660 -0.6335 -0.4687
   71SAPC  H16X 6236   4.405   3.356   5.236 -1.0378  2.9252  0.6856
   71SAPC  H16Y 6237   4.500   3.491   5.197 -2.5321 -0.4189  1.2255
   71SAPC  C317 6238   4.587   3.376   5.359 -0.1380  0.0982  0.5537
   71SAPC  H17X 6239   4.542   3.452   5.426 -0.2310  1.1943 -0.7203
   71SAPC  H17Y 6240   4.697   3.385   5.346  0.2761 -1.4798  2.4517
   71SAPC  C318 6241   4.555   3.251   5.440  0.1646  0.5989  0.5656
   71SAPC  H18X 6242   4.611   3.242   5.536  1.7459  1.8191 -0.2120
   71SAPC  H18Y 6243   4.583   3.156   5.390 -0.2659  0.5598  0.3950
   71SAPC  H18Z 6244   4.444   3.248   5.454  0.1965 -0.3369  0.7292
   72SAPC     N 6245   3.721   2.405   2.815 -0.0379 -0.3291  0.1298
   72SAPC   C12 6246   3.823   2.371   2.926  0.5764  1.0270  0.1741
   72SAPC  H12A 6247   3.785   2.287   2.983 -0.8981  0.9853 -0.8111
   72SAPC  H12B 6248   3.806   2.449   2.999 -0.4761  1.1438 -0.1794
   72SAPC   C13 6249   3.744   2.312   2.697  0.6265 -0.8997  0.2391
   72SAPC  H13A 6250   3.849   2.327   2.673  0.6091 -1.7035 -0.3615
   72SAPC  H13B 6251   3.726   2.208   2.717 -2.2977 -0.2372  1.5139
   72SAPC  H13C 6252   3.675   2.341   2.620 -0.2696 -1.0723  0.9644
   72SAPC   C14 6253   3.580   2.409   2.855  0.2828  0.0107 -1.1203
   72SAPC  H14A 6254   3.517   2.440   2.773 -1.1330  1.8668  0.5776
   72SAPC  H14B 6255   3.543   2.310   2.878  1.1254 -0.0723 -0.0778
   72SAPC  H14C 6256   3.558   2.481   2.932 -1.1717 -1.7410  0.1918
   72SAPC   C15 6257   3.745   2.542   2.762 -0.1180  0.2753 -0.0040
   72SAPC  H15A 6258   3.848   2.541   2.729 -0.4762  0.6309 -1.2247
   72SAPC  H15B 6259   3.670   2.564   2.687 -0.4026 -1.8975 -0.4095
   72SAPC  H15C 6260   3.738   2.614   2.842 -0.6673 -0.7018  0.8426
   72SAPC   C11 6261   3.971   2.356   2.900  0.3485  0.4100 -0.2646
   72SAPC  H11A 6262   3.999   2.279   2.825 -1.8255 -0.5673 -0.1281
   72SAPC  H11B 6263   4.028   2.313   2.986  0.4262  2.8613  0.9887
   72SAPC     P 6264   4.046   2.590   2.983 -0.1256 -0.0849  0.2034
   72SAPC   O13 6265   4.126   2.701   2.928  0.0588  0.7203  0.1678
   72SAPC   O14 6266   3.915   2.625   3.044  0.1637 -0.2534 -0.2684
   72SAPC   O12 6267   4.024   2.485   2.865  0.4491  0.6968 -0.3279
   72SAPC   O11 6268   4.135   2.512   3.081 -0.1738  0.1804 -0.2777
   72SAPC    C1 6269   4.266   2.457   3.050 -0.2986 -0.5006  0.0665
   72SAPC    HA 6270   4.245   2.366   2.991 -2.6806  0.3189 -0.4706
   72SAPC    HB 6271   4.325   2.541   3.005  1.1249 -0.7123  1.4357
   72SAPC    C2 6272   4.340   2.404   3.176 -0.3901 -0.7435 -0.2951
   72SAPC    HS 6273   4.310   2.297   3.180 -3.2183  0.0049  2.1148
   72SAPC   O21 6274   4.286   2.478   3.288 -0.2906  0.1336  0.0718
   72SAPC   C21 6275   4.287   2.405   3.399 -0.0523 -0.0335 -0.2522
   72SAPC   O22 6276   4.322   2.286   3.410  0.1186 -0.3040  0.1265
   72SAPC   C22 6277   4.223   2.483   3.518 -0.3532  0.4852  0.4613
   72SAPC   H2R 6278   4.274   2.582   3.522  1.2340 -0.3278  3.2419
   72SAPC   H2S 6279   4.114   2.486   3.494 -0.7924  2.3311  2.4079
   72SAPC    C3 6280   4.493   2.430   3.172 -0.2258  0.7958 -0.3088
   72SAPC    HX 6281   4.513   2.539   3.163 -1.9237  1.0950 -0.8210
   72SAPC    HY 6282   4.544   2.370   3.094  1.5124 -0.5865  1.7716
   72SAPC   O31 6283   4.545   2.368   3.290 -0.2836 -0.1470 -0.2048
   72SAPC   C31 6284   4.678   2.393   3.300 -0.7687  0.0372 -0.5377
   72SAPC   O32 6285   4.738   2.446   3.209  0.2673 -0.4228 -0.6073
   72SAPC   C32 6286   4.733   2.349   3.435  0.4940  0.1565  0.1058
   72SAPC   H2X 6287   4.787   2.253   3.424 -0.0848 -0.5200  2.4318
   72SAPC   H2Y 6288   4.650   2.329   3.506 -0.6514 -3.3061 -1.9905
   72SAPC   C23 6289   4.254   2.427   3.654  0.4109 -0.0325  0.2857
   72SAPC   H3R 6290   4.252   2.316   3.645  2.2781 -0.1189  0.6085
   72SAPC   H3S 6291   4.175   2.441   3.732 -1.0340 -1.9272 -0.7313
   72SAPC   C24 6292   4.399   2.460   3.700  0.5166  0.6882  0.0561
   72SAPC   H4R 6293   4.392   2.562   3.742 -1.5846  1.2387 -1.4751
   72SAPC   H4S 6294   4.458   2.472   3.607  2.0815  0.4334  0.9835
   72SAPC   C25 6295   4.461   2.359   3.800  0.1133 -0.2508  0.6410
   72SAPC   H5R 6296   4.520   2.277   3.756  2.2429  1.8727 -0.7723
   72SAPC   C26 6297   4.474   2.380   3.929  0.0425  0.1515 -0.4316
   72SAPC   H6R 6298   4.524   2.305   3.992  2.0016  0.7177 -1.2226
   72SAPC   C27 6299   4.420   2.498   4.004  0.2010 -0.0178  0.6419
   72SAPC   H7R 6300   4.369   2.465   4.097  0.8669 -1.2110  0.6010
   72SAPC   H7S 6301   4.343   2.556   3.949  2.2003  1.1308 -1.0505
   72SAPC   C28 6302   4.528   2.588   4.055 -0.4497 -0.6373 -0.4612
   72SAPC   H8R 6303   4.592   2.631   3.976 -0.0717  1.6904  1.0158
   72SAPC   C29 6304   4.575   2.598   4.187  0.4578 -0.1948 -0.0290
   72SAPC   H9R 6305   4.654   2.669   4.215  0.7654 -0.5761  0.0805
   72SAPC  C210 6306   4.522   2.529   4.316 -0.3059  0.6660  0.4808
   72SAPC  H10R 6307   4.609   2.523   4.386  0.0368 -1.4412 -0.0466
   72SAPC  H10S 6308   4.504   2.420   4.308  0.9528  0.3738  1.2098
   72SAPC  C211 6309   4.428   2.611   4.397 -0.1204 -0.1749  0.0892
   72SAPC  H11R 6310   4.471   2.705   4.435 -0.3878  1.1805 -2.7420
   72SAPC  C212 6311   4.300   2.598   4.415  0.1062  0.3658  0.1765
   72SAPC  H12R 6312   4.255   2.667   4.488  0.0603  0.3059  0.2058
   72SAPC  C213 6313   4.204   2.485   4.371  0.7301  0.5818 -0.1359
   72SAPC  H13R 6314   4.224   2.401   4.441  0.0669  0.9134  0.4700
   72SAPC  H13S 6315   4.230   2.454   4.268  0.6794 -4.2796  1.0666
   72SAPC  C214 6316   4.054   2.538   4.385  0.5449  0.8355 -1.3621
   72SAPC  H14R 6317   4.015   2.584   4.293 -0.2052  0.9726 -0.9859
   72SAPC  C215 6318   3.972   2.531   4.494 -0.2612 -0.1542 -0.0967
   72SAPC  H15R 6319   3.873   2.574   4.477 -0.0293  0.6812  0.5841
   72SAPC  C216 6320   4.011   2.486   4.637  0.7424  0.1213  0.8030
   72SAPC  H16R 6321   4.117   2.453   4.642  0.8594  0.4143  0.3016
   72SAPC  H16S 6322   3.947   2.400   4.667  0.2112 -0.1748 -1.0850
   72SAPC  C217 6323   4.010   2.597   4.741 -0.0702  0.2307  0.3715
   72SAPC  H17R 6324   3.911   2.646   4.750  0.8255  2.3999 -0.8092
   72SAPC  H17S 6325   4.081   2.674   4.704 -1.1062  0.4218 -1.3036
   72SAPC  C218 6326   4.056   2.551   4.882 -0.6048 -0.1505  0.9824
   72SAPC  H18R 6327   4.153   2.499   4.867 -0.1906  0.7838  0.3066
   72SAPC  H18S 6328   3.980   2.484   4.928 -0.8710  1.5118  3.1362
   72SAPC  C219 6329   4.067   2.668   4.981 -0.2210  0.1713  0.5053
   72SAPC  H19R 6330   3.962   2.704   4.991 -0.6865 -0.0368 -2.6336
   72SAPC  H19S 6331   4.122   2.753   4.935 -3.3706  0.6511 -2.8644
   72SAPC  C220 6332   4.146   2.633   5.106  0.3838  0.1224 -0.0928
   72SAPC  H20R 6333   4.242   2.593   5.066  0.6654  2.1870 -1.6025
   72SAPC  H20S 6334   4.091   2.556   5.164  1.0083 -0.7666 -0.6514
   72SAPC  H20T 6335   4.166   2.716   5.177 -0.7043 -0.6272  1.1433
   72SAPC   C33 6336   4.830   2.445   3.502  0.5324 -0.1924 -1.1373
   72SAPC   H3X 6337   4.884   2.509   3.428 -0.2410  2.7945  0.7223
   72SAPC   H3Y 6338   4.890   2.384   3.572  0.5746  0.4121 -0.6375
   72SAPC   C34 6339   4.758   2.544   3.610  0.9513  0.2624 -0.2767
   72SAPC   H4X 6340   4.723   2.492   3.702 -1.2656 -0.3217 -1.3851
   72SAPC   H4Y 6341   4.670   2.583   3.556  1.7338  0.0274 -1.7689
   72SAPC   C35 6342   4.856   2.650   3.646 -0.3208  0.7136 -0.1063
   72SAPC   H5X 6343   4.881   2.694   3.547 -0.8400 -0.4010 -0.7547
   72SAPC   H5Y 6344   4.949   2.614   3.694 -1.1050 -0.8310  0.3377
   72SAPC   C36 6345   4.790   2.766   3.720 -0.0100  0.8859  0.0786
   72SAPC   H6X 6346   4.789   2.725   3.823 -0.9722 -1.4561 -0.7940
   72SAPC   H6Y 6347   4.691   2.783   3.674 -0.1169 -0.1672 -0.1063
   72SAPC   C37 6348   4.876   2.901   3.715  0.3528 -0.0323  0.3798
   72SAPC   H7X 6349   4.896   2.910   3.606 -1.2493  0.3562  0.0932
   72SAPC   H7Y 6350   4.978   2.881   3.754  0.9503  0.4363 -0.8832
   72SAPC   C38 6351   4.818   3.020   3.785 -0.0723 -0.4414 -0.2897
   72SAPC   H8X 6352   4.721   3.051   3.743 -0.2437  0.6997  0.8712
   72SAPC   H8Y 6353   4.878   3.113   3.778  0.8115 -1.0228 -0.5977
   72SAPC   C39 6354   4.794   2.991   3.937 -0.2397 -0.4492  0.4528
   72SAPC   H9X 6355   4.718   2.910   3.943 -1.2958  0.3710 -1.0214
   72SAPC   H9Y 6356   4.753   3.091   3.965 -0.9817 -0.1834 -1.4373
   72SAPC  C310 6357   4.913   2.958   4.025 -0.6806 -0.2458  0.3740
   72SAPC  H10X 6358   4.984   3.043   4.021 -1.3548  0.2968 -0.9061
   72SAPC  H10Y 6359   4.961   2.868   3.981  0.5029  0.6740 -0.2813
   72SAPC  C311 6360   4.879   2.925   4.172  0.3356 -0.0531 -0.1165
   72SAPC  H11X 6361   4.972   2.908   4.231  0.3476  1.2200  0.2630
   72SAPC  H11Y 6362   4.821   2.831   4.180  2.1295 -1.1925  0.1534
   72SAPC  C312 6363   4.811   3.039   4.244 -0.3731  0.3307 -0.6315
   72SAPC  H12X 6364   4.707   3.050   4.205 -1.3595 -1.2161  1.3635
   72SAPC  H12Y 6365   4.854   3.141   4.232 -0.4926  0.4350 -0.1733
   72SAPC  C313 6366   4.804   2.999   4.395 -0.0428  0.3029 -0.3778
   72SAPC  H13X 6367   4.905   2.975   4.435  0.7858  1.4049 -1.6901
   72SAPC  H13Y 6368   4.746   2.906   4.405  1.1612 -0.7369 -2.4413
   72SAPC  C314 6369   4.748   3.121   4.478  0.4866  0.8834  0.2815
   72SAPC  H14X 6370   4.653   3.160   4.436  0.1421  0.6852  0.8525
   72SAPC  H14Y 6371   4.825   3.201   4.478  0.4537  0.9141  0.1396
   72SAPC  C315 6372   4.708   3.090   4.628 -0.7242 -0.6263 -0.3474
   72SAPC  H15X 6373   4.633   3.010   4.645 -1.4185 -0.0529 -0.6753
   72SAPC  H15Y 6374   4.659   3.180   4.671  0.9380 -1.2361  3.2337
   72SAPC  C316 6375   4.838   3.061   4.712 -0.3585  0.2064  0.2468
   72SAPC  H16X 6376   4.913   3.138   4.685  1.5653 -0.7711  2.4242
   72SAPC  H16Y 6377   4.882   2.970   4.667 -0.2533  1.2576 -1.9080
   72SAPC  C317 6378   4.820   3.059   4.862  1.0142 -0.4252  0.6665
   72SAPC  H17X 6379   4.739   2.990   4.890 -1.9180  2.8950  1.1217
   72SAPC  H17Y 6380   4.780   3.153   4.906  2.7018  0.2963  0.7547
   72SAPC  C318 6381   4.951   3.031   4.933  0.8254  0.0341 -0.1742
   72SAPC  H18X 6382   4.945   3.064   5.039  0.2804 -0.7713  0.0550
   72SAPC  H18Y 6383   5.037   3.082   4.885 -0.8562  1.6328 -1.6671
   72SAPC  H18Z 6384   4.962   2.921   4.926 -2.7116 -0.4146 -0.7824
   73SLPC     N 6385   0.105   6.041   8.129 -0.1574 -0.5214  1.3032
   73SLPC   C13 6386   0.182   6.156   8.187  0.5109  0.0215  0.3044
   73SLPC  H13A 6387   0.172   6.148   8.294 -0.1576 -0.4826  0.2058
   73SLPC  H13B 6388   0.288   6.151   8.164 -0.0314  0.1980 -2.6513
   73SLPC  H13C 6389   0.142   6.253   8.161  1.5158  0.6014  0.8491
   73SLPC   C14 6390  -0.026   6.023   8.189 -0.3606 -0.1290  0.0449
   73SLPC  H14A 6391  -0.008   6.007   8.295  0.4497  1.9439  0.2570
   73SLPC  H14B 6392  -0.090   6.108   8.173  0.6484  0.4877 -0.8261
   73SLPC  H14C 6393  -0.088   5.942   8.155  1.3346 -0.7569 -1.6786
   73SLPC   C15 6394   0.176   5.906   8.144  0.0976 -0.5444 -1.0363
   73SLPC  H15A 6395   0.267   5.917   8.087  1.8239  1.8712  1.8641
   73SLPC  H15B 6396   0.201   5.885   8.247 -1.3722  1.0816 -0.3098
   73SLPC  H15C 6397   0.123   5.816   8.115  1.1489 -2.8063  3.0884
   73SLPC   C12 6398   0.081   6.065   7.982  0.0107 -0.0342  0.5770
   73SLPC  H12A 6399   0.030   6.160   7.974 -0.2324 -0.1324  0.9570
   73SLPC  H12B 6400   0.009   5.995   7.943  1.4528 -0.2061 -1.9773
   73SLPC   C11 6401   0.207   6.059   7.895  0.0001 -0.0288 -0.5173
   73SLPC  H11A 6402   0.283   6.128   7.935 -1.0906  2.3874 -2.3657
   73SLPC  H11B 6403   0.192   6.108   7.796 -2.0216  2.0038  0.6995
   73SLPC     P 6404   0.180   5.813   7.808 -0.2684  0.2118  0.0922
   73SLPC   O13 6405   0.220   5.684   7.862  0.5014  0.0196  0.4159
   73SLPC   O14 6406   0.035   5.848   7.814 -0.8918 -0.0096  0.3467
   73SLPC   O12 6407   0.258   5.928   7.884  0.1090 -0.1311 -0.4441
   73SLPC   O11 6408   0.230   5.839   7.659  0.3503 -0.3301 -0.3487
   73SLPC    C1 6409   0.364   5.810   7.625  0.1455  0.0112 -0.4896
   73SLPC    HA 6410   0.402   5.897   7.568 -0.5299  0.7521  0.1664
   73SLPC    HB 6411   0.437   5.782   7.704 -0.6449 -1.3383 -0.1978
   73SLPC    C2 6412   0.365   5.694   7.515  0.1420  0.3549 -0.6332
   73SLPC    HS 6413   0.470   5.667   7.489  0.1346  0.2933 -0.5998
   73SLPC   O21 6414   0.301   5.748   7.395 -0.1653 -0.0446  0.1967
   73SLPC   C21 6415   0.342   5.711   7.280 -0.1854 -0.0976  0.8205
   73SLPC   O22 6416   0.426   5.626   7.255 -0.1620 -0.4954 -0.4148
   73SLPC   C22 6417   0.259   5.792   7.176 -0.1300  0.0135  0.3134
   73SLPC   H2R 6418   0.177   5.720   7.153  0.6570 -0.9364  0.4329
   73SLPC   H2S 6419   0.219   5.883   7.226  0.4684  0.3630  0.1600
   73SLPC    C3 6420   0.290   5.566   7.563  0.0517  0.8695 -0.7432
   73SLPC    HX 6421   0.188   5.606   7.583  0.8520  1.7513  2.0837
   73SLPC    HY 6422   0.310   5.531   7.666 -1.2642 -1.1261 -1.1262
   73SLPC   O31 6423   0.293   5.463   7.466  0.1757  0.1626  0.1617
   73SLPC   C31 6424   0.380   5.363   7.480  0.2613 -0.6740  0.3728
   73SLPC   O32 6425   0.455   5.353   7.576 -0.1213 -0.2208 -0.0137
   73SLPC   C32 6426   0.376   5.266   7.368  0.3917 -0.3126  0.1238
   73SLPC   H2X 6427   0.349   5.326   7.279 -0.9148  1.3026  1.5500
   73SLPC   H2Y 6428   0.280   5.211   7.380 -0.6564  1.4242  0.0600
   73SLPC   C23 6429   0.341   5.825   7.046  0.1705  0.3633  0.7160
   73SLPC   H3R 6430   0.433   5.864   7.096  1.1465 -0.9095 -0.0317
   73SLPC   H3S 6431   0.293   5.908   6.991 -1.3958 -0.7273  0.3849
   73SLPC   C24 6432   0.344   5.704   6.955  0.0669 -0.0275  0.8591
   73SLPC   H4R 6433   0.239   5.690   6.922  0.1832 -2.1479  1.2942
   73SLPC   H4S 6434   0.373   5.614   7.013  0.3463 -0.6360 -0.2103
   73SLPC   C25 6435   0.426   5.727   6.823 -0.0636 -0.6718 -0.0744
   73SLPC   H5R 6436   0.456   5.632   6.773  0.6335  0.7503 -2.5460
   73SLPC   H5S 6437   0.524   5.774   6.845  0.1938 -1.2064 -0.0672
   73SLPC   C26 6438   0.345   5.812   6.727  0.3833 -1.0682  0.6001
   73SLPC   H6R 6439   0.332   5.914   6.767  3.0799 -1.1316  1.8697
   73SLPC   H6S 6440   0.245   5.767   6.711  0.1604 -0.2224 -0.5261
   73SLPC   C27 6441   0.419   5.828   6.593  0.1093 -0.3715  0.0744
   73SLPC   H7R 6442   0.527   5.838   6.616 -0.0495 -0.9841  1.1512
   73SLPC   H7S 6443   0.396   5.931   6.557  0.7353 -0.1072  0.4086
   73SLPC   C28 6444   0.376   5.742   6.481 -0.2401 -0.0107 -0.1320
   73SLPC   H8R 6445   0.427   5.778   6.388  0.2042 -1.7165 -0.5896
   73SLPC   H8S 6446   0.268   5.758   6.462 -1.1226 -2.8714  1.8655
   73SLPC   C29 6447   0.389   5.598   6.521 -0.3003 -0.0781  0.0368
   73SLPC   H9R 6448   0.330   5.588   6.613  0.1900 -0.0620  0.3560
   73SLPC  C210 6449   0.458   5.494   6.464 -0.0938 -0.5988  0.1007
   73SLPC  H10R 6450   0.461   5.396   6.514  0.8528 -0.8168 -0.3684
   73SLPC  C211 6451   0.530   5.501   6.333 -0.0803 -0.0496 -0.3378
   73SLPC  H11R 6452   0.613   5.427   6.337 -1.3850 -1.7964 -2.5039
   73SLPC  H11S 6453   0.574   5.601   6.316  0.7304 -0.0347  1.6104
   73SLPC  C212 6454   0.448   5.459   6.215 -0.4917 -0.2093 -0.3550
   73SLPC  H12R 6455   0.423   5.352   6.226  0.1134 -0.2696  0.4571
   73SLPC  C213 6456   0.411   5.538   6.112  0.4954 -0.3856 -0.7548
   73SLPC  H13R 6457   0.349   5.503   6.028 -0.0712  1.2457 -1.0508
   73SLPC  C214 6458   0.439   5.689   6.100 -0.3472  0.3133  0.3171
   73SLPC  H14R 6459   0.487   5.728   6.193 -2.0023 -1.3592  1.9793
   73SLPC  H14S 6460   0.341   5.734   6.074  0.1717  1.2221 -0.1087
   73SLPC  C215 6461   0.543   5.715   5.984 -0.0145 -0.5320  0.3035
   73SLPC  H15R 6462   0.500   5.681   5.888 -0.2332  2.7149 -0.8692
   73SLPC  H15S 6463   0.638   5.657   5.992  0.9467  1.2280  3.3202
   73SLPC  C216 6464   0.568   5.867   5.978 -0.4208 -0.4073 -0.7256
   73SLPC  H16R 6465   0.626   5.903   6.065 -2.3335 -0.8642  0.8103
   73SLPC  H16S 6466   0.470   5.919   5.985  0.9302  1.9996  2.0798
   73SLPC  C217 6467   0.648   5.909   5.851  0.2797  0.3260  0.4277
   73SLPC  H17R 6468   0.741   5.851   5.867 -1.6521 -2.6978  1.5351
   73SLPC  H17S 6469   0.672   6.018   5.852  1.0247  0.1728 -0.2791
   73SLPC  C218 6470   0.577   5.881   5.716  0.2123 -0.4678 -0.1300
   73SLPC  H18R 6471   0.475   5.925   5.705  0.6910  0.7902  0.2840
   73SLPC  H18S 6472   0.562   5.772   5.700 -1.9391  0.1869 -3.9614
   73SLPC  H18T 6473   0.640   5.917   5.633 -1.4866 -0.6174 -1.5528
   73SLPC   C33 6474   0.490   5.169   7.347  0.6514 -0.9151  0.5868
   73SLPC   H3X 6475   0.504   5.109   7.439 -0.6305 -0.0060  1.4056
   73SLPC   H3Y 6476   0.578   5.236   7.343 -1.4290  2.1122  1.9250
   73SLPC   C34 6477   0.475   5.079   7.227 -0.3170 -0.3601  0.0391
   73SLPC   H4X 6478   0.387   5.012   7.236  1.3343 -2.6653  0.0638
   73SLPC   H4Y 6479   0.566   5.015   7.215  0.8773  1.3209 -0.1483
   73SLPC   C35 6480   0.464   5.159   7.088 -0.3139  0.1851 -0.6633
   73SLPC   H5X 6481   0.529   5.249   7.091 -0.2255  0.1081  0.6307
   73SLPC   H5Y 6482   0.362   5.202   7.092 -0.6026 -0.5477  0.5199
   73SLPC   C36 6483   0.488   5.064   6.975  0.2845  0.1782 -0.0033
   73SLPC   H6X 6484   0.414   4.981   6.977  2.0804 -1.4941  0.1625
   73SLPC   H6Y 6485   0.594   5.032   6.982  1.5880  4.0516  0.6418
   73SLPC   C37 6486   0.469   5.136   6.829  0.0686  0.3349 -0.0133
   73SLPC   H7X 6487   0.513   5.237   6.840  2.4068 -0.7347  0.8746
   73SLPC   H7Y 6488   0.358   5.143   6.817 -0.1626  1.4660  2.2387
   73SLPC   C38 6489   0.519   5.043   6.712 -0.7790  0.0161  0.4207
   73SLPC   H8X 6490   0.466   4.946   6.702  2.6812 -1.9647 -0.1210
   73SLPC   H8Y 6491   0.626   5.017   6.725 -0.0052  1.0977 -2.8107
   73SLPC   C39 6492   0.503   5.116   6.573  0.7802 -0.1241 -0.5970
   73SLPC   H9X 6493   0.580   5.195   6.568 -0.2482  1.1687  2.1475
   73SLPC   H9Y 6494   0.400   5.158   6.567  1.0688  0.8240  0.6732
   73SLPC  C310 6495   0.520   5.024   6.444  0.2924 -0.2194 -1.0887
   73SLPC  H10X 6496   0.444   4.943   6.446 -3.4337  2.9169  1.0590
   73SLPC  H10Y 6497   0.621   4.980   6.431 -1.3888 -5.1000  0.1012
   73SLPC  C311 6498   0.493   5.109   6.320  0.0449  0.2535 -0.3914
   73SLPC  H11X 6499   0.562   5.196   6.318  0.0934  0.2329  0.3778
   73SLPC  H11Y 6500   0.390   5.153   6.322  0.0531  0.2459  1.5372
   73SLPC  C312 6501   0.506   5.023   6.192  0.7319  0.2750  0.1245
   73SLPC  H12X 6502   0.433   4.940   6.197 -0.3370  1.1003 -1.1968
   73SLPC  H12Y 6503   0.603   4.968   6.190 -0.9667 -2.9767 -2.4897
   73SLPC  C313 6504   0.480   5.095   6.062 -0.2000 -0.2369  0.0182
   73SLPC  H13X 6505   0.536   5.190   6.071 -1.2350  0.2342  2.1930
   73SLPC  H13Y 6506   0.375   5.127   6.043  0.0476  1.5240  1.3260
   73SLPC  C314 6507   0.533   5.012   5.936  0.2056  0.4158 -0.4764
   73SLPC  H14X 6508   0.513   4.905   5.957  2.8630  0.3295  2.3308
   73SLPC  H14Y 6509   0.642   5.023   5.917  0.1066  1.8700 -0.3006
   73SLPC  C315 6510   0.470   5.063   5.813 -0.1045 -0.7934  0.3427
   73SLPC  H15X 6511   0.481   5.173   5.811 -0.8386 -0.6308  2.6293
   73SLPC  H15Y 6512   0.360   5.053   5.821 -0.2401  0.9213  1.0366
   73SLPC  C316 6513   0.522   4.993   5.686  0.2789 -0.4504 -0.2652
   73SLPC  H16X 6514   0.545   4.890   5.721 -0.5992  0.3263  2.9146
   73SLPC  H16Y 6515   0.614   5.036   5.640  1.0102 -2.6888 -1.0558
   73SLPC  C317 6516   0.418   4.992   5.575 -0.1516  0.3811 -0.0287
   73SLPC  H17X 6517   0.390   5.099   5.586  1.5009  0.9003 -0.5508
   73SLPC  H17Y 6518   0.336   4.926   5.611 -0.0388  0.4099  0.2892
   73SLPC  C318 6519   0.465   4.969   5.430  0.1848  0.3010 -0.5835
   73SLPC  H18X 6520   0.495   4.864   5.406  1.9382  0.7685 -0.5339
   73SLPC  H18Y 6521   0.557   5.030   5.420 -0.3402  1.3666  0.9029
   73SLPC  H18Z 6522   0.381   4.998   5.362 -3.9744 -3.7302  2.1852
   74SLPC     N 6523   4.856   4.935   7.814 -0.0311 -0.1220 -0.3244
   74SLPC   C13 6524   4.767   4.999   7.917  0.0740 -0.3204 -1.1172
   74SLPC  H13A 6525   4.669   5.026   7.880 -0.2013 -0.8170 -0.7749
   74SLPC  H13B 6526   4.752   4.918   7.988  1.3849 -0.4034 -0.9060
   74SLPC  H13C 6527   4.812   5.080   7.972  1.1747 -0.6097 -1.5736
   74SLPC   C14 6528   4.792   4.810   7.762 -0.9276 -0.2477  0.1866
   74SLPC  H14A 6529   4.706   4.836   7.702  0.2742  1.8145 -0.7238
   74SLPC  H14B 6530   4.851   4.747   7.698  0.1687 -2.0689  2.8116
   74SLPC  H14C 6531   4.763   4.743   7.842  0.8595 -0.6843  0.5055
   74SLPC   C15 6532   4.973   4.897   7.907  0.2145  0.1240  0.3474
   74SLPC  H15A 6533   4.948   4.837   7.993  1.4567 -2.1117 -0.7629
   74SLPC  H15B 6534   5.055   4.844   7.860  0.5311 -1.4228  2.4952
   74SLPC  H15C 6535   5.019   4.985   7.950  0.6324 -0.1782  0.5232
   74SLPC   C12 6536   4.904   5.036   7.709  0.3607 -0.0639  0.7485
   74SLPC  H12A 6537   4.942   4.978   7.627 -2.1668  1.0385 -1.3395
   74SLPC  H12B 6538   4.980   5.096   7.756 -0.3965  0.0739  1.8514
   74SLPC   C11 6539   4.792   5.137   7.662 -0.6571  0.0750 -0.0438
   74SLPC  H11A 6540   4.853   5.213   7.609  1.7365 -1.6599  0.0902
   74SLPC  H11B 6541   4.759   5.190   7.754 -0.0857  0.1859  0.0976
   74SLPC     P 6542   4.691   5.050   7.439  0.0890  0.2034  0.1003
   74SLPC   O13 6543   4.651   4.908   7.427 -0.0598  0.2018  0.0341
   74SLPC   O14 6544   4.612   5.153   7.378  0.3743  0.7822  0.1072
   74SLPC   O12 6545   4.676   5.086   7.594 -0.2170 -0.1608 -0.3037
   74SLPC   O11 6546   4.842   5.057   7.402 -0.2233  0.2712  0.5207
   74SLPC    C1 6547   4.905   5.162   7.333  0.2815 -0.2616  0.0047
   74SLPC    HA 6548   4.840   5.252   7.326  0.8995  0.4266  2.1613
   74SLPC    HB 6549   4.985   5.211   7.392 -0.0301 -0.6558  0.7777
   74SLPC    C2 6550   4.953   5.145   7.190 -0.1671  0.3436 -0.2149
   74SLPC    HS 6551   4.973   5.241   7.136  1.5915  0.4050  0.4798
   74SLPC   O21 6552   4.863   5.063   7.112  0.2056 -0.4624 -0.1427
   74SLPC   C21 6553   4.750   5.133   7.080 -0.9495  0.2891 -0.4409
   74SLPC   O22 6554   4.735   5.253   7.086  0.8842  0.4269 -0.0950
   74SLPC   C22 6555   4.653   5.033   7.016  0.1308 -0.8439  0.0289
   74SLPC   H2R 6556   4.639   4.955   7.094  0.4144 -2.2174 -1.2329
   74SLPC   H2S 6557   4.556   5.086   7.015  0.2148 -0.6481  1.0526
   74SLPC    C3 6558   5.087   5.078   7.176  1.0110  0.1472  0.4131
   74SLPC    HX 6559   5.077   4.970   7.200  3.6614  0.1985  2.1547
   74SLPC    HY 6560   5.158   5.120   7.250  3.3847 -1.3051 -0.9283
   74SLPC   O31 6561   5.147   5.100   7.046 -0.0921 -0.0517  0.2657
   74SLPC   C31 6562   5.248   5.028   7.015 -0.2481 -0.2171 -0.6529
   74SLPC   O32 6563   5.290   4.936   7.086 -0.5138  0.2770  0.4598
   74SLPC   C32 6564   5.321   5.078   6.888  0.0516  1.2119 -0.5575
   74SLPC   H2X 6565   5.424   5.035   6.892 -0.0090  1.0644 -0.5749
   74SLPC   H2Y 6566   5.328   5.188   6.875  0.1694  1.1058 -1.4379
   74SLPC   C23 6567   4.709   4.990   6.880 -0.2500  0.7790 -0.0176
   74SLPC   H3R 6568   4.814   4.956   6.892  0.0925  1.7168 -0.1933
   74SLPC   H3S 6569   4.719   5.087   6.826  0.3390 -0.4123 -2.1887
   74SLPC   C24 6570   4.610   4.904   6.810  0.3387  0.6508  0.3892
   74SLPC   H4R 6571   4.513   4.956   6.801 -1.0858 -2.0375 -1.0585
   74SLPC   H4S 6572   4.576   4.825   6.880 -1.6895 -0.9540 -2.1957
   74SLPC   C25 6573   4.652   4.855   6.671 -0.2495 -0.3652 -0.0484
   74SLPC   H5R 6574   4.593   4.763   6.653  1.1975 -1.4573  0.6075
   74SLPC   H5S 6575   4.759   4.825   6.665 -1.1522 -4.4137  1.2332
   74SLPC   C26 6576   4.618   4.951   6.552  0.3857  0.3840 -0.6641
   74SLPC   H6R 6577   4.695   5.030   6.541  3.1213 -1.9461  0.3437
   74SLPC   H6S 6578   4.516   4.992   6.561  0.0085 -0.4760 -0.8961
   74SLPC   C27 6579   4.622   4.877   6.419 -0.1967  0.8887  0.0832
   74SLPC   H7R 6580   4.555   4.788   6.416 -0.2154  0.7726  2.5154
   74SLPC   H7S 6581   4.718   4.825   6.398 -1.2484 -1.1025 -0.0452
   74SLPC   C28 6582   4.592   4.967   6.305 -0.1698  0.2379 -0.5086
   74SLPC   H8R 6583   4.674   5.042   6.305  2.0008 -1.9993 -0.2026
   74SLPC   H8S 6584   4.495   5.013   6.331  0.0646  0.5035 -0.1049
   74SLPC   C29 6585   4.583   4.904   6.168  0.1630  0.0248 -0.0379
   74SLPC   H9R 6586   4.506   4.827   6.154 -0.0769  0.5484 -1.8239
   74SLPC  C210 6587   4.660   4.924   6.059  0.6852  0.1362 -0.5448
   74SLPC  H10R 6588   4.630   4.860   5.975 -2.3134 -1.2412  1.3921
   74SLPC  C211 6589   4.780   5.016   6.031  0.4413  0.1659  0.2306
   74SLPC  H11R 6590   4.875   4.962   6.018  0.5057  0.0022  1.3250
   74SLPC  H11S 6591   4.805   5.082   6.116  0.5324 -0.2280  0.5112
   74SLPC  C212 6592   4.739   5.095   5.909  0.0243  0.4395  0.5524
   74SLPC  H12R 6593   4.638   5.140   5.908  0.1974  0.8293 -0.1666
   74SLPC  C213 6594   4.801   5.120   5.795 -0.1943  0.0865  1.2703
   74SLPC  H13R 6595   4.741   5.167   5.716  2.2260 -0.3447 -0.9858
   74SLPC  C214 6596   4.942   5.085   5.750  0.2506 -0.2332 -0.9282
   74SLPC  H14R 6597   4.992   5.013   5.818  0.3653  1.3869  0.7907
   74SLPC  H14S 6598   4.988   5.185   5.765 -0.4946  0.0792 -0.7064
   74SLPC  C215 6599   4.948   5.033   5.603  0.1551 -0.6680  0.7800
   74SLPC  H15R 6600   4.866   4.959   5.593 -0.4769  0.1637 -0.4907
   74SLPC  H15S 6601   5.037   4.969   5.582 -0.2910 -0.6657 -1.3761
   74SLPC  C216 6602   4.942   5.154   5.500  0.2819  0.0600  0.0994
   74SLPC  H16R 6603   5.041   5.204   5.509  0.4043 -0.0028 -0.7443
   74SLPC  H16S 6604   4.854   5.210   5.538  0.8745 -0.1747  1.9094
   74SLPC  C217 6605   4.920   5.115   5.355  0.5930 -0.0911 -0.3369
   74SLPC  H17R 6606   4.811   5.094   5.349  0.7941 -1.1806 -0.4336
   74SLPC  H17S 6607   4.985   5.033   5.317  0.9397 -0.3980  0.8683
   74SLPC  C218 6608   4.953   5.230   5.252  0.4329 -0.4507 -0.0071
   74SLPC  H18R 6609   4.958   5.178   5.155  1.7261  0.2275 -0.3354
   74SLPC  H18S 6610   5.046   5.288   5.274 -0.7902  1.5509  0.0717
   74SLPC  H18T 6611   4.868   5.300   5.247 -0.7567 -1.8705 -0.2117
   74SLPC   C33 6612   5.261   5.009   6.762  1.1947 -0.8353 -0.3094
   74SLPC   H3X 6613   5.150   5.016   6.767  1.2259 -1.0569  1.0992
   74SLPC   H3Y 6614   5.281   4.900   6.773 -0.8558 -1.0561  2.1888
   74SLPC   C34 6615   5.293   5.067   6.626 -0.0409  0.1867  0.2532
   74SLPC   H4X 6616   5.404   5.075   6.622 -0.1766  2.8502 -2.4239
   74SLPC   H4Y 6617   5.260   5.173   6.632 -2.7320 -0.5583  0.0664
   74SLPC   C35 6618   5.225   5.012   6.500  0.5634  0.6538  0.0862
   74SLPC   H5X 6619   5.127   5.063   6.505  0.1208 -0.1859  0.1770
   74SLPC   H5Y 6620   5.213   4.901   6.500 -1.4664  0.8170  1.7253
   74SLPC   C36 6621   5.302   5.049   6.367  0.0525  0.2215 -0.5957
   74SLPC   H6X 6622   5.413   5.047   6.374  0.0113 -0.7013 -0.1295
   74SLPC   H6Y 6623   5.277   5.153   6.338  1.1457  0.6204 -0.1481
   74SLPC   C37 6624   5.258   4.962   6.253  0.4690  0.0879 -0.1706
   74SLPC   H7X 6625   5.148   4.975   6.243  0.6734  0.8292 -1.8445
   74SLPC   H7Y 6626   5.287   4.859   6.280  0.9164  0.7112  1.8929
   74SLPC   C38 6627   5.323   5.004   6.123 -0.0581  0.1554 -0.2026
   74SLPC   H8X 6628   5.431   4.981   6.133 -0.1166 -0.3440 -0.6536
   74SLPC   H8Y 6629   5.291   5.101   6.079 -1.1396 -0.3939 -0.6584
   74SLPC   C39 6630   5.281   4.907   6.008 -0.7804 -0.2920 -0.0503
   74SLPC   H9X 6631   5.275   4.956   5.908 -4.1239 -0.3956 -0.0051
   74SLPC   H9Y 6632   5.186   4.859   6.040 -0.0376 -0.3160  2.3059
   74SLPC  C310 6633   5.379   4.788   5.998 -0.7716 -0.1785 -0.1079
   74SLPC  H10X 6634   5.390   4.738   6.097 -1.5899 -0.3223 -0.0807
   74SLPC  H10Y 6635   5.481   4.818   5.966 -1.0934 -1.2124 -2.2508
   74SLPC  C311 6636   5.332   4.690   5.893  0.3719 -0.2705 -0.2415
   74SLPC  H11X 6637   5.229   4.660   5.923  0.0412  2.3931  1.7253
   74SLPC  H11Y 6638   5.399   4.603   5.911  0.6031 -0.5491 -2.1923
   74SLPC  C312 6639   5.341   4.731   5.745 -0.5950  0.2037  0.3651
   74SLPC  H12X 6640   5.256   4.799   5.725  0.7399  1.5385 -1.0900
   74SLPC  H12Y 6641   5.311   4.642   5.685  0.0497  0.0250  0.2922
   74SLPC  C313 6642   5.469   4.803   5.702  0.8065 -0.0967 -0.3093
   74SLPC  H13X 6643   5.550   4.768   5.770  0.0170  1.4012  1.4813
   74SLPC  H13Y 6644   5.459   4.913   5.716  0.9288  0.0040 -0.9914
   74SLPC  C314 6645   5.498   4.768   5.554  0.1396  0.5039  0.8463
   74SLPC  H14X 6646   5.416   4.808   5.491  0.4446 -0.3724 -0.1354
   74SLPC  H14Y 6647   5.505   4.658   5.539  1.7908  0.7671 -0.5923
   74SLPC  C315 6648   5.637   4.825   5.503  0.3076 -0.4868  0.0439
   74SLPC  H15X 6649   5.710   4.768   5.564 -0.6594 -2.2576 -0.3872
   74SLPC  H15Y 6650   5.646   4.935   5.517 -2.1004 -0.1167 -0.7636
   74SLPC  C316 6651   5.654   4.804   5.356  0.4919  0.4982 -0.1241
   74SLPC  H16X 6652   5.563   4.836   5.301 -0.7879  0.0996  1.6851
   74SLPC  H16Y 6653   5.655   4.695   5.339  0.3994  0.5344 -0.3664
   74SLPC  C317 6654   5.775   4.865   5.289 -0.3553  0.5660 -0.4407
   74SLPC  H17X 6655   5.777   4.976   5.297  4.6756  0.8781 -2.1247
   74SLPC  H17Y 6656   5.780   4.840   5.180  0.8068  0.1636 -0.3093
   74SLPC  C318 6657   5.908   4.803   5.339  0.6812 -0.2474 -0.4327
   74SLPC  H18X 6658   5.918   4.838   5.443 -2.0876  0.2140 -0.2529
   74SLPC  H18Y 6659   5.986   4.845   5.271 -2.9640  1.8518 -3.7198
   74SLPC  H18Z 6660   5.896   4.692   5.343  0.4132 -0.1857  0.5893
   75SLPC     N 6661   1.202   5.586   8.326 -0.4060  0.0830 -0.8729
   75SLPC   C13 6662   1.196   5.529   8.463 -0.0894  1.0591 -0.4735
   75SLPC  H13A 6663   1.221   5.424   8.465 -3.5502  0.0479  3.1555
   75SLPC  H13B 6664   1.279   5.568   8.520 -0.0916  3.6262 -2.0500
   75SLPC  H13C 6665   1.108   5.555   8.521  0.6907  1.3205  0.6370
   75SLPC   C14 6666   1.340   5.566   8.278 -0.4686 -0.4514  0.2668
   75SLPC  H14A 6667   1.407   5.591   8.358 -0.5898 -0.9495  0.5300
   75SLPC  H14B 6668   1.370   5.462   8.269  0.8277 -0.1547  0.9153
   75SLPC  H14C 6669   1.359   5.621   8.188 -1.5164  0.2477  0.4565
   75SLPC   C15 6670   1.196   5.729   8.347  0.1774 -0.3135 -0.3754
   75SLPC  H15A 6671   1.216   5.788   8.259  0.7356 -0.1838 -0.1674
   75SLPC  H15B 6672   1.103   5.765   8.389  0.6387 -1.8595  2.2243
   75SLPC  H15C 6673   1.274   5.764   8.414 -0.3974 -0.8556  0.5942
   75SLPC   C12 6674   1.085   5.531   8.250  0.8674  0.7202  0.8568
   75SLPC  H12A 6675   0.999   5.539   8.315  0.5674  0.6912  0.4703
   75SLPC  H12B 6676   1.091   5.424   8.253 -1.0962  0.6062  2.7486
   75SLPC   C11 6677   1.066   5.557   8.095  0.2140  0.2511  0.0434
   75SLPC  H11A 6678   1.071   5.666   8.073 -1.8316  0.3904  0.1202
   75SLPC  H11B 6679   0.972   5.511   8.059  0.8830 -1.7758  0.7647
   75SLPC     P 6680   1.196   5.355   8.009 -0.1638 -0.1100 -0.3228
   75SLPC   O13 6681   1.334   5.333   8.041  0.0802 -0.1996 -0.6225
   75SLPC   O14 6682   1.092   5.283   8.088 -0.1657  0.1214  0.6651
   75SLPC   O12 6683   1.176   5.507   8.025 -0.3218  0.5510 -0.5112
   75SLPC   O11 6684   1.189   5.328   7.848 -0.0875  0.6036 -0.2843
   75SLPC    C1 6685   1.074   5.339   7.771  0.2253 -0.1018 -0.0784
   75SLPC    HA 6686   1.071   5.267   7.686 -1.6600  2.7335 -2.5838
   75SLPC    HB 6687   0.981   5.296   7.815 -0.3820  0.5246 -0.7207
   75SLPC    C2 6688   1.047   5.483   7.723 -0.1202  0.1919 -0.0301
   75SLPC    HS 6689   1.028   5.547   7.811  0.3431 -2.2271  1.9213
   75SLPC   O21 6690   0.947   5.465   7.623  0.1758  0.0381  1.0232
   75SLPC   C21 6691   0.838   5.539   7.638  0.0752 -0.4103  0.6778
   75SLPC   O22 6692   0.807   5.602   7.733 -0.0361 -0.4643  0.0683
   75SLPC   C22 6693   0.753   5.545   7.507 -0.6415 -0.0936  0.1311
   75SLPC   H2R 6694   0.661   5.485   7.524 -0.6060  0.3257  2.0431
   75SLPC   H2S 6695   0.727   5.649   7.480 -1.5747  0.3126  2.3400
   75SLPC    C3 6696   1.175   5.538   7.647 -0.0011 -0.3031 -0.4777
   75SLPC    HX 6697   1.201   5.469   7.564  3.4309 -0.1654  0.3344
   75SLPC    HY 6698   1.263   5.542   7.714  0.4790  0.1074 -1.1307
   75SLPC   O31 6699   1.140   5.667   7.596 -0.3790 -0.0189 -0.4900
   75SLPC   C31 6700   1.140   5.766   7.684 -0.3745  0.3484  0.2788
   75SLPC   O32 6701   1.176   5.759   7.798  0.0291  0.0159 -0.6619
   75SLPC   C32 6702   1.090   5.898   7.623  0.0792  0.4622  0.3575
   75SLPC   H2X 6703   1.068   5.976   7.698 -0.7696  2.7585 -2.1272
   75SLPC   H2Y 6704   0.994   5.885   7.568  0.3671  0.2019 -0.0976
   75SLPC   C23 6705   0.838   5.491   7.387 -0.1718  0.2382  0.7389
   75SLPC   H3R 6706   0.849   5.381   7.399  1.9019  0.1112 -1.5837
   75SLPC   H3S 6707   0.937   5.540   7.378  0.7736 -1.8283 -0.6827
   75SLPC   C24 6708   0.772   5.512   7.247  0.0781 -0.3095  0.1403
   75SLPC   H4R 6709   0.768   5.623   7.240  0.4507 -0.2312  0.9752
   75SLPC   H4S 6710   0.665   5.480   7.245 -0.3534  1.0930 -0.3802
   75SLPC   C25 6711   0.837   5.449   7.121  0.6117 -0.3724 -0.1972
   75SLPC   H5R 6712   0.848   5.340   7.138  1.2168 -0.5603 -1.6526
   75SLPC   H5S 6713   0.939   5.488   7.104  0.6098  0.6592  1.8241
   75SLPC   C26 6714   0.752   5.481   7.003 -0.4619  0.5622 -0.0463
   75SLPC   H6R 6715   0.756   5.591   6.991  1.8589  0.3780 -1.4771
   75SLPC   H6S 6716   0.649   5.443   7.023  0.1997 -1.6519 -0.5304
   75SLPC   C27 6717   0.805   5.419   6.875 -0.2910  0.9866 -0.8800
   75SLPC   H7R 6718   0.820   5.309   6.877  1.7785  1.2056 -1.9410
   75SLPC   H7S 6719   0.907   5.459   6.857 -0.1294  0.7750 -0.4685
   75SLPC   C28 6720   0.718   5.460   6.754  0.2452 -0.2894  0.0463
   75SLPC   H8R 6721   0.613   5.468   6.792  0.5042  1.0029  0.5492
   75SLPC   H8S 6722   0.712   5.378   6.681  1.5895 -1.4571  1.1803
   75SLPC   C29 6723   0.751   5.597   6.693 -0.3379 -0.5505 -0.2109
   75SLPC   H9R 6724   0.722   5.682   6.756 -1.3225 -2.4890  2.1383
   75SLPC  C210 6725   0.824   5.619   6.581  0.1523 -0.6001 -0.3516
   75SLPC  H10R 6726   0.841   5.723   6.551 -4.1992 -0.0216 -1.5329
   75SLPC  C211 6727   0.891   5.526   6.481 -0.1642  0.3453 -0.2853
   75SLPC  H11R 6728   0.850   5.423   6.493 -3.6977  1.5314 -1.0973
   75SLPC  H11S 6729   0.997   5.518   6.512 -0.3148 -0.3367  0.0772
   75SLPC  C212 6730   0.877   5.566   6.337 -0.2270  0.5702 -0.4912
   75SLPC  H12R 6731   0.843   5.668   6.313 -3.2348 -0.6329 -1.8772
   75SLPC  C213 6732   0.892   5.485   6.230  0.4289 -0.3617 -0.1799
   75SLPC  H13R 6733   0.880   5.527   6.129 -2.1322 -1.2708 -0.3383
   75SLPC  C214 6734   0.923   5.337   6.232  0.3789 -0.3885  0.5396
   75SLPC  H14R 6735   0.854   5.288   6.305 -1.1457 -0.4676 -0.8932
   75SLPC  H14S 6736   1.029   5.310   6.251  0.6300 -0.6042 -1.0884
   75SLPC  C215 6737   0.885   5.273   6.101 -0.4323 -0.5004 -0.4530
   75SLPC  H15R 6738   0.792   5.315   6.057 -0.0925  0.0086 -0.7052
   75SLPC  H15S 6739   0.853   5.170   6.128 -1.5831  0.4096  1.9536
   75SLPC  C216 6740   1.003   5.271   5.999  0.5226 -0.3348 -0.5681
   75SLPC  H16R 6741   1.064   5.198   6.056 -0.4231 -0.3453  0.4537
   75SLPC  H16S 6742   1.061   5.365   5.985  4.0796 -2.1812  0.4278
   75SLPC  C217 6743   0.971   5.234   5.854  0.4739  0.0146 -0.7485
   75SLPC  H17R 6744   0.884   5.300   5.831 -1.8880 -1.2903  3.3334
   75SLPC  H17S 6745   0.922   5.134   5.848  1.0679 -0.2120 -2.3776
   75SLPC  C218 6746   1.071   5.260   5.737  0.3168  0.0396  0.5495
   75SLPC  H18R 6747   1.031   5.272   5.634  0.5157  2.1675  0.6860
   75SLPC  H18S 6748   1.147   5.180   5.723 -0.6726 -0.7328 -0.6506
   75SLPC  H18T 6749   1.124   5.351   5.771  0.6618  1.2712 -2.9066
   75SLPC   C33 6750   1.199   5.969   7.529  0.2636 -0.1384 -0.1379
   75SLPC   H3X 6751   1.288   5.985   7.595  0.0809  1.2397 -0.1820
   75SLPC   H3Y 6752   1.158   6.069   7.501  1.1959  0.6665  1.2242
   75SLPC   C34 6753   1.235   5.894   7.400  0.1555  0.3089  0.0008
   75SLPC   H4X 6754   1.270   5.790   7.419 -0.3163  0.2683  0.7114
   75SLPC   H4Y 6755   1.317   5.948   7.349 -0.1339  0.3026 -0.4726
   75SLPC   C35 6756   1.120   5.887   7.296  0.5293  0.0120 -0.1124
   75SLPC   H5X 6757   1.092   5.993   7.280 -0.2376 -0.2072 -0.2870
   75SLPC   H5Y 6758   1.031   5.836   7.339  0.2195 -0.4801 -1.2961
   75SLPC   C36 6759   1.147   5.807   7.169  0.0850  0.3042  0.3641
   75SLPC   H6X 6760   1.054   5.771   7.122  1.2650  0.0459 -1.8753
   75SLPC   H6Y 6761   1.209   5.716   7.183  0.4132  0.3757 -0.5806
   75SLPC   C37 6762   1.220   5.894   7.063  0.6233  0.0640 -0.2690
   75SLPC   H7X 6763   1.321   5.927   7.095  0.6643 -0.9825  0.7622
   75SLPC   H7Y 6764   1.158   5.984   7.049  0.8457  0.1446 -0.7380
   75SLPC   C38 6765   1.217   5.826   6.928  0.2159  0.2957 -0.1834
   75SLPC   H8X 6766   1.119   5.776   6.913 -1.9865  4.9497 -3.9220
   75SLPC   H8Y 6767   1.293   5.745   6.926 -0.8420 -0.8085  1.4352
   75SLPC   C39 6768   1.240   5.904   6.801  0.2409 -0.5605 -1.2726
   75SLPC   H9X 6769   1.343   5.946   6.792 -0.5155  2.1219  1.1402
   75SLPC   H9Y 6770   1.172   5.992   6.802 -0.2221 -0.9022  0.3164
   75SLPC  C310 6771   1.210   5.813   6.679 -0.6368 -0.1832 -0.1016
   75SLPC  H10X 6772   1.104   5.778   6.688 -0.0960 -2.5685 -1.7744
   75SLPC  H10Y 6773   1.268   5.718   6.682 -0.0307  0.2122  1.2011
   75SLPC  C311 6774   1.217   5.891   6.544  0.1583  0.0772  0.0146
   75SLPC  H11X 6775   1.323   5.921   6.531  0.0007  0.0877 -1.3072
   75SLPC  H11Y 6776   1.158   5.985   6.540  0.4215  0.2282 -0.3521
   75SLPC  C312 6777   1.179   5.802   6.432  1.1513 -0.7955 -0.1974
   75SLPC  H12X 6778   1.079   5.757   6.452  0.8919 -0.8545 -1.5581
   75SLPC  H12Y 6779   1.250   5.717   6.433  0.6220 -1.2419  0.3358
   75SLPC  C313 6780   1.166   5.866   6.296 -0.5914  0.4216  0.2526
   75SLPC  H13X 6781   1.264   5.902   6.258  0.4907 -0.3397  2.1932
   75SLPC  H13Y 6782   1.098   5.954   6.308 -0.3114  0.5795  0.7268
   75SLPC  C314 6783   1.099   5.774   6.184 -0.2826  0.1383 -0.3713
   75SLPC  H14X 6784   0.989   5.772   6.200 -0.4039  0.3258 -1.1702
   75SLPC  H14Y 6785   1.136   5.669   6.190 -0.1322  0.2554  2.6524
   75SLPC  C315 6786   1.107   5.827   6.039 -0.1870 -0.6142 -0.4999
   75SLPC  H15X 6787   1.210   5.856   6.010 -0.6751  1.0760 -0.6524
   75SLPC  H15Y 6788   1.040   5.915   6.032 -0.6185 -0.9965 -1.5717
   75SLPC  C316 6789   1.044   5.733   5.936  0.7167  0.3551 -0.0317
   75SLPC  H16X 6790   0.945   5.701   5.973  0.6175  0.2397 -0.3924
   75SLPC  H16Y 6791   1.107   5.641   5.934 -0.2801 -0.3372  0.0380
   75SLPC  C317 6792   1.035   5.802   5.802  0.2898 -0.4534 -0.0181
   75SLPC  H17X 6793   1.132   5.838   5.761 -0.0347  0.6025  0.1047
   75SLPC  H17Y 6794   0.972   5.889   5.831  0.5136 -0.4777  0.5611
   75SLPC  C318 6795   0.962   5.720   5.696 -0.2216 -0.2042 -0.1002
   75SLPC  H18X 6796   1.037   5.643   5.664 -0.3985 -2.9716  5.0050
   75SLPC  H18Y 6797   0.923   5.768   5.605  1.9358  2.8915  0.4500
   75SLPC  H18Z 6798   0.878   5.668   5.746 -1.3139  2.8094  1.4353
   76SLPC     N 6799   1.751   5.007   8.006  0.2397  0.4265  0.0896
   76SLPC   C13 6800   1.867   5.029   7.916  0.3860  0.2059  0.1268
   76SLPC  H13A 6801   1.885   4.942   7.854  0.3695  0.8682 -0.8256
   76SLPC  H13B 6802   1.830   5.106   7.850 -1.8832 -0.7112  0.2666
   76SLPC  H13C 6803   1.963   5.055   7.958  1.2205 -2.3386 -0.0256
   76SLPC   C14 6804   1.719   5.140   8.075 -0.3987  0.1319  1.1032
   76SLPC  H14A 6805   1.806   5.166   8.134  1.3896 -2.0435 -0.4189
   76SLPC  H14B 6806   1.686   5.214   8.004 -2.4586 -1.5304  0.1965
   76SLPC  H14C 6807   1.638   5.124   8.146  1.1054 -1.1990  2.6262
   76SLPC   C15 6808   1.773   4.909   8.120  0.2830 -0.0317  0.3256
   76SLPC  H15A 6809   1.796   4.808   8.088  0.1547 -0.6722  2.1556
   76SLPC  H15B 6810   1.858   4.937   8.180 -0.0994  1.2250  0.3065
   76SLPC  H15C 6811   1.682   4.893   8.177  0.3390  3.6269  1.6526
   76SLPC   C12 6812   1.638   4.970   7.917 -0.2845 -0.2593  0.4073
   76SLPC  H12A 6813   1.639   5.043   7.838  0.3439 -0.7424 -0.0408
   76SLPC  H12B 6814   1.539   4.984   7.958 -0.3925  0.8128 -0.1943
   76SLPC   C11 6815   1.647   4.825   7.858  0.0230 -0.6212  0.7891
   76SLPC  H11A 6816   1.558   4.820   7.791  1.6954  0.1543 -1.6440
   76SLPC  H11B 6817   1.635   4.752   7.941 -1.9555 -0.0044  1.1045
   76SLPC     P 6818   1.771   4.834   7.633 -0.3344  0.1879 -0.5431
   76SLPC   O13 6819   1.918   4.858   7.600  0.8293  0.5104  0.0846
   76SLPC   O14 6820   1.701   4.726   7.558 -0.4802  0.6561 -0.2337
   76SLPC   O12 6821   1.772   4.798   7.785  0.3410  0.2657 -0.2459
   76SLPC   O11 6822   1.692   4.974   7.627 -0.1195 -0.0150 -0.1099
   76SLPC    C1 6823   1.570   4.987   7.554  0.0060 -0.7810  0.3546
   76SLPC    HA 6824   1.505   4.897   7.563 -1.4720 -0.2253 -2.9309
   76SLPC    HB 6825   1.519   5.077   7.593 -1.0401 -1.0110 -0.4290
   76SLPC    C2 6826   1.596   4.990   7.400  0.2188  0.0799 -0.2107
   76SLPC    HS 6827   1.632   4.888   7.377  1.4189  0.1579  1.1300
   76SLPC   O21 6828   1.689   5.095   7.369 -0.0828 -0.0657  0.2358
   76SLPC   C21 6829   1.763   5.071   7.261 -0.3000 -0.1636 -0.7204
   76SLPC   O22 6830   1.754   4.973   7.192  0.2531  0.5140 -0.1125
   76SLPC   C22 6831   1.856   5.184   7.233 -0.5022 -0.2296  0.8880
   76SLPC   H2R 6832   1.899   5.216   7.331 -2.5727 -0.0015  1.7909
   76SLPC   H2S 6833   1.930   5.160   7.154 -2.3710 -0.3091 -0.9269
   76SLPC    C3 6834   1.456   5.008   7.330 -0.5464 -0.5312  0.5607
   76SLPC    HX 6835   1.424   5.106   7.372 -0.6924  0.0558 -0.8791
   76SLPC    HY 6836   1.386   4.927   7.360 -0.6776 -0.0003  1.7371
   76SLPC   O31 6837   1.467   5.022   7.184 -0.0901  0.6312  0.3163
   76SLPC   C31 6838   1.491   4.918   7.115 -0.0655 -0.3567  0.6895
   76SLPC   O32 6839   1.487   4.802   7.150 -0.8227 -0.1076  0.0836
   76SLPC   C32 6840   1.528   4.963   6.966 -0.5198  0.5575 -0.9990
   76SLPC   H2X 6841   1.640   4.966   6.965 -0.1137 -0.8093  4.9044
   76SLPC   H2Y 6842   1.489   5.066   6.955 -0.5501  0.8421  1.2850
   76SLPC   C23 6843   1.789   5.313   7.197  0.5569 -0.6310  1.1279
   76SLPC   H3R 6844   1.857   5.400   7.203 -0.2228 -0.1263  3.7085
   76SLPC   H3S 6845   1.713   5.358   7.264  0.4321  1.0784 -0.0830
   76SLPC   C24 6846   1.723   5.302   7.062  0.3228 -0.2228  0.2860
   76SLPC   H4R 6847   1.673   5.399   7.042 -0.9127 -1.0998 -1.1507
   76SLPC   H4S 6848   1.638   5.231   7.071 -0.2582  0.5924  1.4940
   76SLPC   C25 6849   1.803   5.247   6.940 -0.4428 -0.6163  0.1421
   76SLPC   H5R 6850   1.828   5.142   6.968 -4.0681 -1.5517  0.3867
   76SLPC   H5S 6851   1.893   5.312   6.934  0.7008 -2.2102 -0.9027
   76SLPC   C26 6852   1.725   5.256   6.805 -0.5881  0.9060 -1.0808
   76SLPC   H6R 6853   1.673   5.354   6.798  0.1379  1.5964  1.8078
   76SLPC   H6S 6854   1.652   5.172   6.793  1.3155 -0.6685 -2.0945
   76SLPC   C27 6855   1.812   5.219   6.683 -0.9966  0.1795 -0.3858
   76SLPC   H7R 6856   1.863   5.121   6.697 -0.5912  0.4848  0.2950
   76SLPC   H7S 6857   1.890   5.298   6.688 -0.5230 -0.3324  0.5762
   76SLPC   C28 6858   1.739   5.216   6.551 -0.7398  0.1352  0.0182
   76SLPC   H8R 6859   1.670   5.130   6.534  0.6431 -1.0972  0.4409
   76SLPC   H8S 6860   1.823   5.187   6.484 -1.8918 -0.9406 -1.0381
   76SLPC   C29 6861   1.682   5.348   6.507 -0.4277 -0.7519  0.4261
   76SLPC   H9R 6862   1.598   5.388   6.565  2.1314  0.7443  3.4066
   76SLPC  C210 6863   1.728   5.418   6.402  0.8716  0.2101 -0.4153
   76SLPC  H10R 6864   1.686   5.519   6.389  2.3053  0.7327 -1.1360
   76SLPC  C211 6865   1.843   5.379   6.313  0.1619  0.8328  0.7153
   76SLPC  H11R 6866   1.915   5.333   6.385  1.4848  1.1800 -0.3440
   76SLPC  H11S 6867   1.887   5.470   6.268 -1.0924  0.7880 -0.6726
   76SLPC  C212 6868   1.814   5.264   6.221  0.6939 -0.5279 -0.6743
   76SLPC  H12R 6869   1.785   5.171   6.273 -0.6316  0.0079 -0.4125
   76SLPC  C213 6870   1.837   5.253   6.094  0.4410  0.4323 -0.1411
   76SLPC  H13R 6871   1.796   5.162   6.046  0.3394  0.6776 -0.5188
   76SLPC  C214 6872   1.898   5.349   5.994  0.4452  0.9400 -0.1426
   76SLPC  H14R 6873   2.007   5.325   5.993 -0.2344 -3.2512 -3.6257
   76SLPC  H14S 6874   1.870   5.453   6.023 -1.6984  0.0555  1.1543
   76SLPC  C215 6875   1.850   5.322   5.854 -0.2471  0.3824  0.3674
   76SLPC  H15R 6876   1.741   5.327   5.837 -0.0617 -2.1423 -2.1430
   76SLPC  H15S 6877   1.879   5.218   5.829  0.5976 -0.2144  3.3613
   76SLPC  C216 6878   1.918   5.417   5.752 -0.4801  0.5355 -0.1822
   76SLPC  H16R 6879   2.024   5.405   5.781 -0.6554 -0.6852  0.0041
   76SLPC  H16S 6880   1.892   5.524   5.769  1.5410  1.4126 -2.1050
   76SLPC  C217 6881   1.890   5.375   5.614 -0.0969  0.1839 -0.5280
   76SLPC  H17R 6882   1.785   5.402   5.592 -0.6917 -1.2785  0.3514
   76SLPC  H17S 6883   1.905   5.265   5.611 -2.0620 -0.1458  0.5425
   76SLPC  C218 6884   1.976   5.444   5.517 -0.1620 -0.8025  0.4150
   76SLPC  H18R 6885   2.073   5.479   5.559  0.2912  1.6328 -2.2844
   76SLPC  H18S 6886   1.942   5.540   5.473 -1.5754 -0.4493  2.1808
   76SLPC  H18T 6887   2.013   5.379   5.434  2.2968  1.4111 -0.3871
   76SLPC   C33 6888   1.474   4.878   6.853 -0.2432  0.2324  0.1923
   76SLPC   H3X 6889   1.365   4.857   6.863 -0.6940  2.7377  1.0762
   76SLPC   H3Y 6890   1.528   4.781   6.856 -0.1541  0.3026  1.1044
   76SLPC   C34 6891   1.500   4.945   6.722 -0.5656 -0.4925 -0.1548
   76SLPC   H4X 6892   1.610   4.937   6.704 -0.5024  0.6948 -0.4231
   76SLPC   H4Y 6893   1.472   5.053   6.723 -1.5060 -0.6780 -2.0650
   76SLPC   C35 6894   1.430   4.872   6.603  0.5987  0.3005  0.0953
   76SLPC   H5X 6895   1.321   4.867   6.621  0.7126 -0.1806  0.7093
   76SLPC   H5Y 6896   1.474   4.772   6.583  0.2139  0.5464 -2.1571
   76SLPC   C36 6897   1.460   4.943   6.470  0.3936 -0.7019  0.0746
   76SLPC   H6X 6898   1.571   4.942   6.473  0.3973 -0.0115  3.4200
   76SLPC   H6Y 6899   1.420   5.046   6.462  1.1993 -0.5222 -2.7156
   76SLPC   C37 6900   1.401   4.867   6.345  0.7308  0.0170 -0.0099
   76SLPC   H7X 6901   1.293   4.888   6.333  0.2704 -1.5333  1.1296
   76SLPC   H7Y 6902   1.422   4.759   6.357  1.3864 -0.3646 -3.6512
   76SLPC   C38 6903   1.474   4.919   6.216  1.0104 -0.2849  0.4282
   76SLPC   H8X 6904   1.581   4.894   6.236  0.8757 -1.9606 -0.7062
   76SLPC   H8Y 6905   1.472   5.028   6.198  1.8634 -0.3987 -0.4646
   76SLPC   C39 6906   1.430   4.836   6.094 -0.4856  0.8379  0.1834
   76SLPC   H9X 6907   1.321   4.841   6.072 -0.5519 -0.3032  0.1959
   76SLPC   H9Y 6908   1.448   4.729   6.116  1.7534  1.1207 -0.0687
   76SLPC  C310 6909   1.524   4.868   5.972 -0.7306  0.3922 -0.0287
   76SLPC  H10X 6910   1.505   4.801   5.886  0.6450 -0.4207  0.2822
   76SLPC  H10Y 6911   1.626   4.838   6.003 -0.8726 -0.0769 -0.0030
   76SLPC  C311 6912   1.516   5.012   5.936  0.4070 -0.5482 -0.2333
   76SLPC  H11X 6913   1.564   5.075   6.014  1.0321 -0.1338 -0.9403
   76SLPC  H11Y 6914   1.411   5.048   5.937  0.7370  0.4495  0.8199
   76SLPC  C312 6915   1.577   5.048   5.800  0.0155 -0.2380 -0.3852
   76SLPC  H12X 6916   1.681   5.011   5.790  0.4521  1.3370 -2.1215
   76SLPC  H12Y 6917   1.583   5.159   5.796  1.4267 -0.2309  0.9033
   76SLPC  C313 6918   1.491   4.999   5.689  0.3970  0.4108 -0.2265
   76SLPC  H13X 6919   1.382   5.018   5.698  0.4865  2.0398 -1.8783
   76SLPC  H13Y 6920   1.491   4.888   5.690  0.3346  0.3246 -2.8347
   76SLPC  C314 6921   1.553   5.057   5.555  0.5191 -0.1994 -0.5017
   76SLPC  H14X 6922   1.650   5.005   5.540  0.9526  0.6910 -0.8346
   76SLPC  H14Y 6923   1.576   5.162   5.582  0.8355 -0.5847  0.8235
   76SLPC  C315 6924   1.451   5.041   5.441 -1.3139  0.1939  0.1738
   76SLPC  H15X 6925   1.350   5.082   5.463 -0.7240  1.6095  0.3521
   76SLPC  H15Y 6926   1.440   4.932   5.424  2.5079  0.1040 -2.9799
   76SLPC  C316 6927   1.512   5.090   5.313 -0.3019 -0.0184  0.1659
   76SLPC  H16X 6928   1.459   5.039   5.230  0.4453 -0.2407 -0.1804
   76SLPC  H16Y 6929   1.614   5.048   5.304  0.3059  1.4225  0.1594
   76SLPC  C317 6930   1.512   5.245   5.299 -0.5721 -0.7891  0.5579
   76SLPC  H17X 6931   1.560   5.268   5.201  1.4401 -1.5319  1.3106
   76SLPC  H17Y 6932   1.568   5.285   5.386 -0.8985  0.0063  0.4137
   76SLPC  C318 6933   1.378   5.312   5.304  0.3471  0.1527  0.1049
   76SLPC  H18X 6934   1.394   5.422   5.309  0.5879  0.1167  0.1504
   76SLPC  H18Y 6935   1.323   5.300   5.400  2.1575  2.4940  1.5553
   76SLPC  H18Z 6936   1.314   5.295   5.215  1.2871  1.4245 -0.8577
   77SLPC     N 6937   2.438   4.358   7.935 -0.0616 -0.4164 -0.2570
   77SLPC   C13 6938   2.426   4.488   7.858  0.2828 -0.0566  1.3437
   77SLPC  H13A 6939   2.482   4.487   7.766 -3.0512  1.1012 -0.8917
   77SLPC  H13B 6940   2.328   4.500   7.814  1.1207  0.8306 -0.3984
   77SLPC  H13C 6941   2.453   4.572   7.919  0.2363 -0.3445  1.7668
   77SLPC   C14 6942   2.349   4.381   8.046  0.2970 -0.1087  0.0130
   77SLPC  H14A 6943   2.245   4.395   8.022 -0.1422  0.4461  2.0023
   77SLPC  H14B 6944   2.352   4.304   8.122  0.1211  0.9953  1.1683
   77SLPC  H14C 6945   2.374   4.476   8.091  0.0103  0.2724 -0.6168
   77SLPC   C15 6946   2.577   4.342   7.973  0.2674 -0.1595 -0.2162
   77SLPC  H15A 6947   2.608   4.416   8.046 -1.2897 -1.5697  1.9825
   77SLPC  H15B 6948   2.601   4.251   8.025  2.2333  0.8289  0.6934
   77SLPC  H15C 6949   2.641   4.355   7.887  2.0161  0.4014  1.1093
   77SLPC   C12 6950   2.385   4.237   7.864  0.3717  0.1646 -0.1138
   77SLPC  H12A 6951   2.279   4.259   7.858  0.7277  1.8240 -0.7719
   77SLPC  H12B 6952   2.389   4.141   7.914  1.5834 -0.1681 -0.8101
   77SLPC   C11 6953   2.419   4.198   7.715  0.3415  0.2323 -0.1256
   77SLPC  H11A 6954   2.349   4.115   7.695  0.7655 -0.4902  1.2630
   77SLPC  H11B 6955   2.525   4.165   7.714  0.7445  1.4054  0.8458
   77SLPC     P 6956   2.260   4.352   7.584  0.5159 -0.5070  0.3183
   77SLPC   O13 6957   2.155   4.253   7.617 -0.1347 -0.1805  0.5013
   77SLPC   O14 6958   2.227   4.490   7.627 -0.0644 -0.0749 -0.1452
   77SLPC   O12 6959   2.403   4.306   7.622 -0.3050 -0.4498 -0.5819
   77SLPC   O11 6960   2.277   4.361   7.429 -0.2848  0.0049  0.8049
   77SLPC    C1 6961   2.379   4.425   7.356 -0.5075 -0.7433  0.4967
   77SLPC    HA 6962   2.474   4.422   7.415 -1.4638  0.0125  2.1384
   77SLPC    HB 6963   2.395   4.368   7.262 -0.0692  1.9873 -1.2115
   77SLPC    C2 6964   2.363   4.570   7.318  0.8287 -0.4670 -0.5242
   77SLPC    HS 6965   2.320   4.619   7.408 -1.1271 -0.8710 -1.1775
   77SLPC   O21 6966   2.271   4.587   7.210  0.4741  0.7444 -0.4516
   77SLPC   C21 6967   2.230   4.712   7.184 -1.0572  0.2559 -0.5816
   77SLPC   O22 6968   2.254   4.803   7.262 -0.3702  0.6251 -0.1246
   77SLPC   C22 6969   2.145   4.719   7.063 -0.0124  0.4202  0.0920
   77SLPC   H2R 6970   2.211   4.770   6.988 -1.3204  0.1067 -1.3280
   77SLPC   H2S 6971   2.132   4.615   7.027  1.1923 -0.6526  2.5486
   77SLPC    C3 6972   2.499   4.635   7.282  0.0845 -0.1806  0.5366
   77SLPC    HX 6973   2.573   4.616   7.363 -0.2800 -0.4884  0.7975
   77SLPC    HY 6974   2.493   4.746   7.285  1.0370 -0.1118  0.4488
   77SLPC   O31 6975   2.562   4.584   7.161  0.6673 -0.3805  0.0346
   77SLPC   C31 6976   2.545   4.640   7.044 -0.0572 -0.0264 -0.7312
   77SLPC   O32 6977   2.456   4.720   7.014  0.0655  0.5791  0.0190
   77SLPC   C32 6978   2.659   4.594   6.948 -0.1475 -0.0133 -0.0629
   77SLPC   H2X 6979   2.659   4.484   6.931  2.5741 -0.2951  1.0737
   77SLPC   H2Y 6980   2.761   4.621   6.985 -0.1476 -0.2568  0.1185
   77SLPC   C23 6981   2.006   4.794   7.081 -0.6599  0.0594 -0.1970
   77SLPC   H3R 6982   2.018   4.903   7.095 -0.7148  0.2383 -1.4383
   77SLPC   H3S 6983   1.954   4.760   7.174 -0.5640  0.7529  0.1164
   77SLPC   C24 6984   1.901   4.774   6.966 -0.2256 -0.4871  0.3956
   77SLPC   H4R 6985   1.811   4.810   7.020  0.3962 -1.2038  1.9587
   77SLPC   H4S 6986   1.893   4.665   6.945  1.1825 -1.0393  2.4629
   77SLPC   C25 6987   1.917   4.844   6.829 -0.6705  0.1970 -0.6138
   77SLPC   H5R 6988   1.953   4.946   6.857  1.1861 -0.3596 -0.8315
   77SLPC   H5S 6989   1.819   4.841   6.777 -0.0000 -1.2906 -1.8700
   77SLPC   C26 6990   2.031   4.785   6.747 -0.7098 -0.0161  1.1772
   77SLPC   H6R 6991   2.000   4.692   6.694  0.1399  1.1971 -1.6352
   77SLPC   H6S 6992   2.113   4.744   6.810 -0.2268  0.2145  0.7132
   77SLPC   C27 6993   2.077   4.870   6.632 -0.3866 -0.2950 -0.4024
   77SLPC   H7R 6994   2.171   4.827   6.591  0.5855  1.4500 -0.0705
   77SLPC   H7S 6995   2.088   4.975   6.666 -1.2056  0.0289 -1.1119
   77SLPC   C28 6996   1.970   4.856   6.513 -0.1355 -1.2762 -0.5133
   77SLPC   H8R 6997   1.868   4.850   6.556  0.6278 -0.4996  1.5532
   77SLPC   H8S 6998   1.986   4.752   6.479 -2.1743 -3.4903  4.3587
   77SLPC   C29 6999   1.996   4.967   6.416 -0.2551 -0.0663 -0.6387
   77SLPC   H9R 7000   2.021   5.061   6.467 -0.0872 -1.4191  1.9031
   77SLPC  C210 7001   1.998   4.967   6.283  0.0494  0.4744 -0.5864
   77SLPC  H10R 7002   2.009   5.065   6.235  0.6286 -0.1473 -1.7963
   77SLPC  C211 7003   1.974   4.846   6.192  0.4748 -0.4999 -0.0004
   77SLPC  H11R 7004   1.876   4.863   6.143 -0.0669  2.3901  1.8853
   77SLPC  H11S 7005   1.967   4.753   6.252  0.5034 -0.7727 -0.4115
   77SLPC  C212 7006   2.084   4.824   6.095 -0.2806  0.5296 -0.8960
   77SLPC  H12R 7007   2.172   4.795   6.155  0.0490  1.3631 -0.9665
   77SLPC  C213 7008   2.083   4.844   5.965  0.2360 -0.6350  0.1226
   77SLPC  H13R 7009   2.175   4.835   5.904 -0.2925 -0.5667 -0.6974
   77SLPC  C214 7010   1.965   4.894   5.876  0.3558 -0.1909  0.1103
   77SLPC  H14R 7011   1.901   4.959   5.940 -0.6150  0.6607 -1.6665
   77SLPC  H14S 7012   1.904   4.813   5.832  0.0049  1.1432 -2.0066
   77SLPC  C215 7013   2.029   4.979   5.762  0.2407 -0.2718 -0.3423
   77SLPC  H15R 7014   2.124   5.019   5.803  0.5973 -1.8400  0.4572
   77SLPC  H15S 7015   1.951   5.051   5.730  0.2107 -0.5204 -0.8355
   77SLPC  C216 7016   2.065   4.895   5.634 -0.8847 -0.1772 -0.7096
   77SLPC  H16R 7017   2.135   4.817   5.673  0.4519  1.9152  1.3277
   77SLPC  H16S 7018   2.121   4.975   5.582 -1.6577  2.1212  1.7483
   77SLPC  C217 7019   1.952   4.850   5.548  0.2830  0.3704 -0.1756
   77SLPC  H17R 7020   1.893   4.941   5.522  0.5640  0.2071 -1.4534
   77SLPC  H17S 7021   1.886   4.781   5.604  0.2382  0.0374 -0.6302
   77SLPC  C218 7022   1.998   4.775   5.426  0.1201 -0.9391 -0.2619
   77SLPC  H18R 7023   2.065   4.831   5.357 -3.1902  1.5553 -1.7628
   77SLPC  H18S 7024   1.911   4.734   5.372  0.4711 -1.4246 -0.4626
   77SLPC  H18T 7025   2.063   4.688   5.446 -1.6153 -2.1584  0.3070
   77SLPC   C33 7026   2.628   4.655   6.808 -0.2236  0.1046 -0.6698
   77SLPC   H3X 7027   2.629   4.766   6.814 -2.4784  0.0857  0.9859
   77SLPC   H3Y 7028   2.525   4.637   6.771 -2.3166  2.6194  3.2194
   77SLPC   C34 7029   2.718   4.599   6.700  0.2614 -0.4121 -0.6158
   77SLPC   H4X 7030   2.707   4.489   6.691  0.8130 -0.7563  1.9857
   77SLPC   H4Y 7031   2.822   4.608   6.740  0.5056  1.1074 -1.4912
   77SLPC   C35 7032   2.708   4.677   6.579 -0.2087 -0.4150  0.5201
   77SLPC   H5X 7033   2.743   4.781   6.594  2.5417 -1.1945  0.0311
   77SLPC   H5Y 7034   2.603   4.679   6.543  0.9356  0.8983 -3.1844
   77SLPC   C36 7035   2.796   4.620   6.469  0.5103  0.3076  0.6272
   77SLPC   H6X 7036   2.752   4.527   6.428 -0.0472  1.0769 -0.5772
   77SLPC   H6Y 7037   2.902   4.606   6.499  0.4561 -0.8169  0.3249
   77SLPC   C37 7038   2.791   4.716   6.351 -0.8435  0.4644 -1.0299
   77SLPC   H7X 7039   2.834   4.812   6.387 -2.3672  1.1948 -1.1031
   77SLPC   H7Y 7040   2.685   4.732   6.321 -0.5202 -0.6332 -2.9295
   77SLPC   C38 7041   2.856   4.666   6.224  0.2743  0.3798  0.5932
   77SLPC   H8X 7042   2.850   4.746   6.148 -0.6094 -2.2477 -2.2883
   77SLPC   H8Y 7043   2.793   4.581   6.190 -3.5758  1.9588  3.1584
   77SLPC   C39 7044   3.007   4.642   6.230  0.0141  0.2471 -0.5165
   77SLPC   H9X 7045   3.046   4.587   6.318  0.3023 -0.0181 -0.8039
   77SLPC   H9Y 7046   3.046   4.746   6.238 -0.2892  0.4091 -1.0560
   77SLPC  C310 7047   3.068   4.586   6.104 -0.1778  0.5341 -0.3462
   77SLPC  H10X 7048   3.028   4.483   6.092  0.7562  0.0265  0.7012
   77SLPC  H10Y 7049   3.177   4.569   6.122 -0.6575 -1.9804  0.6044
   77SLPC  C311 7050   3.059   4.668   5.978 -0.2943  0.1071  0.3382
   77SLPC  H11X 7051   3.102   4.770   5.978  0.3542 -0.1215 -2.0872
   77SLPC  H11Y 7052   2.952   4.684   5.951 -0.4707 -1.0977  0.2373
   77SLPC  C312 7053   3.127   4.592   5.866 -0.3495  0.3816  0.1626
   77SLPC  H12X 7054   3.105   4.483   5.874  0.4061  0.0781 -1.4857
   77SLPC  H12Y 7055   3.238   4.597   5.877  0.1004 -4.7021  0.4676
   77SLPC  C313 7056   3.077   4.631   5.724  0.6502  0.0555  0.8893
   77SLPC  H13X 7057   2.968   4.639   5.743  0.2777  0.1642 -1.1028
   77SLPC  H13Y 7058   3.098   4.542   5.661 -1.8189  0.8692 -1.2593
   77SLPC  C314 7059   3.131   4.763   5.669 -0.2250  0.3560 -0.5826
   77SLPC  H14X 7060   3.242   4.764   5.674 -0.1809  1.2279 -1.2893
   77SLPC  H14Y 7061   3.088   4.837   5.740 -0.8563 -0.1324 -0.4469
   77SLPC  C315 7062   3.093   4.799   5.533  0.4806 -0.0650 -0.3696
   77SLPC  H15X 7063   3.134   4.718   5.467 -2.4863 -0.1873 -2.2380
   77SLPC  H15Y 7064   3.145   4.892   5.503  1.9651 -0.2183  1.5095
   77SLPC  C316 7065   2.940   4.821   5.501  0.3414  0.5516  0.5148
   77SLPC  H16X 7066   2.903   4.887   5.583 -2.1040 -0.1729  0.0766
   77SLPC  H16Y 7067   2.885   4.726   5.489  0.8939  0.5902 -4.2185
   77SLPC  C317 7068   2.918   4.887   5.359 -0.4727  0.4689 -0.2221
   77SLPC  H17X 7069   2.952   4.809   5.287 -0.7832 -1.7155  1.8640
   77SLPC  H17Y 7070   2.981   4.978   5.348  2.3318 -1.2843  0.3252
   77SLPC  C318 7071   2.771   4.918   5.343  0.3073 -0.6289  0.0580
   77SLPC  H18X 7072   2.742   4.926   5.236 -1.3227 -2.4681  0.3000
   77SLPC  H18Y 7073   2.728   5.007   5.394  1.7776  0.8873 -1.2327
   77SLPC  H18Z 7074   2.699   4.840   5.374 -2.1429  0.5413 -2.2081
   78SLPC     N 7075   4.725   2.700   8.323  0.2704 -0.3493 -0.1299
   78SLPC   C13 7076   4.842   2.603   8.340 -0.4906 -1.0177  0.5246
   78SLPC  H13A 7077   4.837   2.563   8.440 -2.8701 -0.7247  0.5827
   78SLPC  H13B 7078   4.838   2.523   8.267  1.6381 -0.6498 -0.0780
   78SLPC  H13C 7079   4.940   2.642   8.317 -0.9318 -0.3383 -0.2702
   78SLPC   C14 7080   4.746   2.800   8.438 -0.1740  0.9373 -1.0472
   78SLPC  H14A 7081   4.674   2.881   8.432 -0.3488  0.9977  1.2327
   78SLPC  H14B 7082   4.730   2.746   8.530  0.2713  0.1320 -1.4344
   78SLPC  H14C 7083   4.848   2.828   8.416 -0.4546  0.5492 -3.0765
   78SLPC   C15 7084   4.601   2.627   8.356  0.2677  0.4648  0.9772
   78SLPC  H15A 7085   4.516   2.695   8.353 -0.3420 -0.2105  2.1853
   78SLPC  H15B 7086   4.576   2.544   8.292  2.3689 -1.1092  2.0919
   78SLPC  H15C 7087   4.614   2.579   8.452  1.1285 -2.3702 -0.4642
   78SLPC   C12 7088   4.716   2.762   8.187 -0.4416  0.5703 -0.2598
   78SLPC  H12A 7089   4.804   2.821   8.164 -0.0210  0.0012 -0.1331
   78SLPC  H12B 7090   4.633   2.832   8.193  0.0351  1.0582  1.0063
   78SLPC   C11 7091   4.683   2.671   8.064  0.1940 -0.2155 -0.8649
   78SLPC  H11A 7092   4.679   2.736   7.974  1.4927 -0.1956 -0.9302
   78SLPC  H11B 7093   4.580   2.634   8.082  0.6052 -1.3668 -0.8218
   78SLPC     P 7094   4.773   2.417   8.030  0.3657  0.0168  0.3598
   78SLPC   O13 7095   4.912   2.368   8.052 -0.3191 -0.1380 -0.2362
   78SLPC   O14 7096   4.658   2.371   8.112 -0.0798  0.2679 -0.4477
   78SLPC   O12 7097   4.786   2.575   8.049 -0.1075  0.0592  0.1374
   78SLPC   O11 7098   4.744   2.402   7.880 -0.3496  0.1915  0.8858
   78SLPC    C1 7099   4.652   2.485   7.808 -0.2455 -0.1324 -0.3686
   78SLPC    HA 7100   4.556   2.502   7.861  1.4905  2.1520  2.2879
   78SLPC    HB 7101   4.701   2.583   7.794 -0.7234  0.3381  1.0356
   78SLPC    C2 7102   4.619   2.427   7.666  0.9590 -0.0722 -0.1420
   78SLPC    HS 7103   4.569   2.328   7.669  0.6572  0.0469 -1.0273
   78SLPC   O21 7104   4.735   2.431   7.580 -0.1647  0.3903 -0.6459
   78SLPC   C21 7105   4.798   2.319   7.580 -0.2451 -0.9202  0.8005
   78SLPC   O22 7106   4.765   2.218   7.642  0.1387  0.0091  0.1365
   78SLPC   C22 7107   4.915   2.335   7.484  0.5518 -0.1484 -0.2165
   78SLPC   H2R 7108   4.936   2.443   7.468 -2.1664  0.3757 -0.7543
   78SLPC   H2S 7109   5.011   2.305   7.532  0.7242  0.9096  0.1263
   78SLPC    C3 7110   4.520   2.522   7.595 -0.1892 -0.9653  0.7363
   78SLPC    HX 7111   4.560   2.626   7.601 -4.0067  1.0257 -2.9287
   78SLPC    HY 7112   4.422   2.533   7.647 -1.5203  4.7213 -2.1764
   78SLPC   O31 7113   4.496   2.480   7.460  0.2348  0.2588 -0.0871
   78SLPC   C31 7114   4.450   2.577   7.378  0.0320  0.2259 -0.1316
   78SLPC   O32 7115   4.422   2.689   7.408  0.0557 -0.0513  0.2077
   78SLPC   C32 7116   4.447   2.519   7.233  0.0648 -0.4804 -0.2547
   78SLPC   H2X 7117   4.434   2.409   7.228 -0.4351 -0.4462  0.1479
   78SLPC   H2Y 7118   4.541   2.554   7.185 -0.7037  2.6954  0.2889
   78SLPC   C23 7119   4.876   2.260   7.358 -0.3995  0.4610  0.2926
   78SLPC   H3R 7120   4.773   2.280   7.321  0.5703  1.3134 -2.2211
   78SLPC   H3S 7121   4.875   2.150   7.375 -2.8315  0.6797  1.9109
   78SLPC   C24 7122   4.974   2.274   7.237  0.2676  0.7199  0.0130
   78SLPC   H4R 7123   4.947   2.207   7.153 -1.2754  1.2427  0.0603
   78SLPC   H4S 7124   5.077   2.237   7.260 -0.5581 -2.0391 -0.3612
   78SLPC   C25 7125   4.982   2.422   7.184 -0.2061 -0.0928 -0.2629
   78SLPC   H5R 7126   5.005   2.490   7.268 -1.4168  0.2547 -0.1867
   78SLPC   H5S 7127   4.880   2.447   7.148  0.8262  0.9250 -2.7331
   78SLPC   C26 7128   5.079   2.450   7.063  0.2594  0.5634 -0.0407
   78SLPC   H6R 7129   5.181   2.433   7.104  0.7027 -0.6080 -1.5285
   78SLPC   H6S 7130   5.065   2.553   7.024 -0.7322  0.0122 -1.2154
   78SLPC   C27 7131   5.074   2.349   6.948 -0.7493 -0.2690  0.1172
   78SLPC   H7R 7132   4.975   2.363   6.902 -0.5217 -1.6066 -0.8305
   78SLPC   H7S 7133   5.092   2.246   6.985 -0.7314 -0.3739 -0.1835
   78SLPC   C28 7134   5.174   2.379   6.832 -0.3914 -0.2948 -0.1472
   78SLPC   H8R 7135   5.142   2.473   6.782 -1.3753 -1.0647 -1.0150
   78SLPC   H8S 7136   5.160   2.297   6.758  1.1333  1.5493 -2.6336
   78SLPC   C29 7137   5.321   2.400   6.877  0.6923  0.6045  0.5533
   78SLPC   H9R 7138   5.334   2.451   6.974 -0.3298 -2.6496  2.5933
   78SLPC  C210 7139   5.434   2.359   6.814  0.4189  0.3186 -1.1665
   78SLPC  H10R 7140   5.531   2.383   6.859  0.3771 -1.6451  0.0911
   78SLPC  C211 7141   5.451   2.280   6.685 -0.6750  0.4925 -0.3401
   78SLPC  H11R 7142   5.512   2.351   6.625 -0.9195 -0.4628 -1.7358
   78SLPC  H11S 7143   5.357   2.269   6.627  0.2555  1.2762 -2.0847
   78SLPC  C212 7144   5.527   2.145   6.684  0.3198 -0.9871 -1.0528
   78SLPC  H12R 7145   5.540   2.103   6.785  2.2122 -0.5846 -1.0975
   78SLPC  C213 7146   5.591   2.092   6.580  0.1418 -0.1901  0.2791
   78SLPC  H13R 7147   5.648   1.999   6.594  0.6201 -0.4803 -2.9542
   78SLPC  C214 7148   5.595   2.140   6.437 -0.9028 -1.4337  0.1149
   78SLPC  H14R 7149   5.494   2.171   6.404 -0.6980 -2.1006 -1.2164
   78SLPC  H14S 7150   5.616   2.054   6.370  0.3545 -0.6890 -0.4892
   78SLPC  C215 7151   5.687   2.261   6.393  0.1033 -0.2633 -0.1264
   78SLPC  H15R 7152   5.789   2.236   6.429  0.7714 -1.0439 -2.3948
   78SLPC  H15S 7153   5.661   2.349   6.457  0.2287 -0.9381  0.8850
   78SLPC  C216 7154   5.695   2.298   6.241 -0.0498 -0.6207 -0.4236
   78SLPC  H16R 7155   5.593   2.322   6.204 -0.0415  0.8792  0.4600
   78SLPC  H16S 7156   5.720   2.212   6.175 -0.8898 -1.6335  0.5292
   78SLPC  C217 7157   5.790   2.413   6.195 -0.0551 -0.3581  0.2132
   78SLPC  H17R 7158   5.894   2.381   6.220  0.5260  1.0686 -0.3097
   78SLPC  H17S 7159   5.777   2.511   6.246  1.6145  0.0827 -0.1411
   78SLPC  C218 7160   5.771   2.437   6.048 -0.2803 -0.1748  0.1372
   78SLPC  H18R 7161   5.824   2.532   6.026  0.5891 -0.2011  1.9402
   78SLPC  H18S 7162   5.665   2.462   6.026 -0.5031 -0.6586  0.6433
   78SLPC  H18T 7163   5.807   2.349   5.990  1.6400 -0.8758  2.2212
   78SLPC   C33 7164   4.342   2.592   7.148  0.2751 -0.2491 -0.9872
   78SLPC   H3X 7165   4.349   2.702   7.160 -1.0680 -0.3263  1.3603
   78SLPC   H3Y 7166   4.248   2.558   7.199  1.3441 -1.7594  0.0765
   78SLPC   C34 7167   4.333   2.540   7.005 -0.3420 -0.8248  0.3203
   78SLPC   H4X 7168   4.287   2.439   7.001 -2.0833 -0.0239 -2.1503
   78SLPC   H4Y 7169   4.435   2.543   6.960 -1.5258  0.5708 -2.4968
   78SLPC   C35 7170   4.235   2.624   6.925 -0.1483 -0.3081  0.2966
   78SLPC   H5X 7171   4.272   2.728   6.921  0.3737 -0.5010  0.0275
   78SLPC   H5Y 7172   4.142   2.632   6.986 -0.6521 -0.5500 -0.4282
   78SLPC   C36 7173   4.212   2.576   6.784  0.1220 -0.0491 -0.4910
   78SLPC   H6X 7174   4.154   2.660   6.742 -1.4589 -0.1325  1.3958
   78SLPC   H6Y 7175   4.149   2.484   6.788 -2.2766  1.5599  0.6457
   78SLPC   C37 7176   4.332   2.557   6.702  0.0267 -0.2110 -0.1125
   78SLPC   H7X 7177   4.391   2.472   6.741  2.1916  0.8341 -0.9084
   78SLPC   H7Y 7178   4.401   2.644   6.707 -0.2972  0.0030  1.2785
   78SLPC   C38 7179   4.285   2.560   6.551 -0.5704  0.5864 -0.7036
   78SLPC   H8X 7180   4.238   2.660   6.539 -3.2133 -0.6927 -1.6090
   78SLPC   H8Y 7181   4.205   2.486   6.532 -0.2016  0.4964 -1.9599
   78SLPC   C39 7182   4.405   2.541   6.449  0.3830 -0.0076 -0.4426
   78SLPC   H9X 7183   4.463   2.456   6.489 -2.9056 -1.1365  2.3858
   78SLPC   H9Y 7184   4.466   2.634   6.439  0.9283 -0.4186 -1.0247
   78SLPC  C310 7185   4.347   2.496   6.318 -0.4501  0.2688 -0.4401
   78SLPC  H10X 7186   4.276   2.576   6.290 -0.6507  1.6908  3.5127
   78SLPC  H10Y 7187   4.292   2.400   6.327  0.4888 -0.3952 -1.4142
   78SLPC  C311 7188   4.454   2.465   6.209 -0.4786 -0.0068  0.1322
   78SLPC  H11X 7189   4.522   2.381   6.234  0.5005  1.1857  1.7134
   78SLPC  H11Y 7190   4.521   2.553   6.199 -0.3562 -0.1022  0.1172
   78SLPC  C312 7191   4.395   2.431   6.073  0.3975 -0.3308 -0.4719
   78SLPC  H12X 7192   4.315   2.504   6.046  0.3041 -0.6132 -0.9792
   78SLPC  H12Y 7193   4.341   2.335   6.088 -1.7184  1.0201  1.2734
   78SLPC  C313 7194   4.493   2.424   5.956  0.1537  0.1737  0.0369
   78SLPC  H13X 7195   4.564   2.340   5.977  2.1096  1.2106 -1.9331
   78SLPC  H13Y 7196   4.556   2.515   5.966  1.9005 -0.9244 -0.4055
   78SLPC  C314 7197   4.423   2.405   5.818  0.2196 -0.0923  0.6433
   78SLPC  H14X 7198   4.358   2.493   5.797  2.6471  1.9903  1.2822
   78SLPC  H14Y 7199   4.355   2.320   5.840  0.3913 -0.0346  1.4110
   78SLPC  C315 7200   4.521   2.360   5.710 -0.1171  0.1942  0.4454
   78SLPC  H15X 7201   4.599   2.292   5.752  1.6230  1.9491  0.1824
   78SLPC  H15Y 7202   4.575   2.444   5.662  0.8829 -0.8176 -0.2523
   78SLPC  C316 7203   4.456   2.270   5.599  0.3942 -0.1107  0.0703
   78SLPC  H16X 7204   4.432   2.175   5.651  1.7128 -0.7940 -0.4957
   78SLPC  H16Y 7205   4.533   2.243   5.523  2.6287  1.4862  1.6234
   78SLPC  C317 7206   4.338   2.324   5.525 -0.6288 -0.4319 -0.2563
   78SLPC  H17X 7207   4.271   2.365   5.604 -0.2471  3.3690 -1.7378
   78SLPC  H17Y 7208   4.273   2.240   5.492 -0.5731 -0.9718  0.9302
   78SLPC  C318 7209   4.369   2.434   5.418 -0.8055  0.3292 -0.7154
   78SLPC  H18X 7210   4.444   2.388   5.350 -0.2433 -4.1544  2.4427
   78SLPC  H18Y 7211   4.416   2.519   5.473  1.1252 -0.7077 -0.6580
   78SLPC  H18Z 7212   4.276   2.467   5.367 -1.2646 -0.4694 -0.4131
   79SLPC     N 7213   3.007   4.983   7.901 -0.1529 -0.6531 -0.4527
   79SLPC   C13 7214   3.045   4.888   8.003  0.4183  0.1146  0.2221
   79SLPC  H13A 7215   3.012   4.915   8.103 -1.5139  0.6763 -0.5180
   79SLPC  H13B 7216   3.016   4.785   7.987  1.7417 -0.3541  0.6369
   79SLPC  H13C 7217   3.152   4.882   7.991  0.1772 -0.1889 -2.2962
   79SLPC   C14 7218   3.073   5.116   7.918  0.2060 -0.6416  0.2263
   79SLPC  H14A 7219   3.065   5.152   8.019  1.0588  1.2633 -0.3288
   79SLPC  H14B 7220   3.180   5.112   7.907  0.7400 -0.1011  4.0536
   79SLPC  H14C 7221   3.034   5.196   7.856  1.6181 -0.1746 -0.0854
   79SLPC   C15 7222   2.856   5.010   7.905 -0.3900  1.0677  0.0131
   79SLPC  H15A 7223   2.824   5.062   7.816 -2.0920 -0.9220 -0.6343
   79SLPC  H15B 7224   2.798   4.920   7.887 -0.0454  1.0291 -0.9960
   79SLPC  H15C 7225   2.821   5.063   7.992  0.1338  0.5782  0.5361
   79SLPC   C12 7226   3.053   4.930   7.762 -0.6874  0.2499  1.1160
   79SLPC  H12A 7227   3.034   5.002   7.683 -1.2210 -1.0864 -0.0256
   79SLPC  H12B 7228   2.984   4.853   7.731  1.2171 -1.2664  0.4182
   79SLPC   C11 7229   3.197   4.884   7.738 -0.3726 -0.5978 -0.3158
   79SLPC  H11A 7230   3.265   4.965   7.773 -0.8009 -0.0629 -0.6910
   79SLPC  H11B 7231   3.222   4.886   7.630 -0.9395 -1.0100 -0.4575
   79SLPC     P 7232   3.170   4.636   7.762  0.0064  0.0210  0.3600
   79SLPC   O13 7233   3.268   4.539   7.734  0.4716 -0.0612  0.0218
   79SLPC   O14 7234   3.059   4.586   7.850 -0.0186  0.1362  0.1354
   79SLPC   O12 7235   3.236   4.774   7.812 -0.0057  0.5339  0.6898
   79SLPC   O11 7236   3.105   4.679   7.618 -0.5181 -0.1644  0.2329
   79SLPC    C1 7237   3.034   4.585   7.539 -0.4990 -0.4324  0.2819
   79SLPC    HA 7238   3.050   4.478   7.562  1.1666 -0.3612 -0.4209
   79SLPC    HB 7239   2.923   4.596   7.543 -0.7695 -1.8958 -1.7493
   79SLPC    C2 7240   3.069   4.597   7.387 -0.8454 -0.4321 -0.5846
   79SLPC    HS 7241   3.179   4.592   7.376 -0.3161  3.4544  1.2312
   79SLPC   O21 7242   3.032   4.727   7.344 -0.3896 -0.1312  0.3017
   79SLPC   C21 7243   3.115   4.803   7.274  0.1499  0.6915  0.0576
   79SLPC   O22 7244   3.237   4.786   7.271 -0.4267  0.3560  0.1441
   79SLPC   C22 7245   3.034   4.901   7.200 -0.6265 -0.3851  0.4667
   79SLPC   H2R 7246   2.938   4.857   7.166 -1.8959  0.1969  3.0247
   79SLPC   H2S 7247   3.019   4.986   7.270  1.1751 -1.1054  1.8217
   79SLPC    C3 7248   3.000   4.488   7.296  0.0175 -0.5165  0.5761
   79SLPC    HX 7249   2.892   4.509   7.278 -0.0884 -0.7695  0.9020
   79SLPC    HY 7250   3.008   4.383   7.333 -0.5708 -0.7483  0.0681
   79SLPC   O31 7251   3.073   4.501   7.169  0.4860  0.6129  0.3591
   79SLPC   C31 7252   3.011   4.447   7.058  0.1891 -0.1823 -1.1158
   79SLPC   O32 7253   2.900   4.406   7.060  0.6388 -0.0058 -0.0811
   79SLPC   C32 7254   3.097   4.460   6.934  0.0757  0.6829 -0.6860
   79SLPC   H2X 7255   3.194   4.414   6.961  0.0769  1.2326  0.2928
   79SLPC   H2Y 7256   3.099   4.570   6.917 -0.7176  0.6883 -0.7585
   79SLPC   C23 7257   3.110   4.946   7.081 -0.0564  0.3199 -0.1418
   79SLPC   H3R 7258   3.219   4.961   7.096  0.1366  1.0995 -2.0738
   79SLPC   H3S 7259   3.073   5.041   7.039 -1.8884 -0.2692  0.0296
   79SLPC   C24 7260   3.096   4.844   6.966 -0.2801  0.0848  0.2555
   79SLPC   H4R 7261   3.002   4.864   6.910 -0.0384 -0.2453 -0.2735
   79SLPC   H4S 7262   3.082   4.741   7.006 -0.7160 -1.1590 -2.8089
   79SLPC   C25 7263   3.206   4.863   6.855  0.0186  0.4822  0.3424
   79SLPC   H5R 7264   3.305   4.824   6.887  0.4751  0.6670 -0.7981
   79SLPC   H5S 7265   3.209   4.972   6.835 -0.8494  0.4499 -0.0238
   79SLPC   C26 7266   3.163   4.807   6.719 -0.0195 -0.2650 -0.9001
   79SLPC   H6R 7267   3.055   4.830   6.707 -0.0493 -0.9483 -2.1174
   79SLPC   H6S 7268   3.178   4.697   6.714  0.1890 -0.2395 -0.8656
   79SLPC   C27 7269   3.241   4.874   6.603  0.0705 -0.3666  0.5740
   79SLPC   H7R 7270   3.344   4.901   6.634  0.1677  2.4148 -1.7450
   79SLPC   H7S 7271   3.193   4.973   6.587 -2.5329 -1.5982  0.2001
   79SLPC   C28 7272   3.242   4.795   6.463 -0.0206  0.0421 -0.4940
   79SLPC   H8R 7273   3.301   4.854   6.390 -1.4409  0.4717 -1.3232
   79SLPC   H8S 7274   3.139   4.794   6.423 -0.2347 -1.6090  0.0252
   79SLPC   C29 7275   3.305   4.658   6.481  0.0860 -0.0859  0.4979
   79SLPC   H9R 7276   3.247   4.593   6.549  1.9989 -1.2837  1.0764
   79SLPC  C210 7277   3.420   4.601   6.436 -0.8421  0.2961 -0.1891
   79SLPC  H10R 7278   3.450   4.498   6.460  1.0521  0.7531 -0.4403
   79SLPC  C211 7279   3.529   4.682   6.359  0.9272  0.8010 -0.3209
   79SLPC  H11R 7280   3.627   4.688   6.412  1.7110 -2.6269 -1.1922
   79SLPC  H11S 7281   3.490   4.786   6.359 -1.0837  0.1047  0.6195
   79SLPC  C212 7282   3.553   4.639   6.214  0.1710 -0.0466  0.0890
   79SLPC  H12R 7283   3.581   4.533   6.204 -0.3957 -0.0432 -1.9276
   79SLPC  C213 7284   3.533   4.704   6.100 -0.9791  0.0638 -0.5342
   79SLPC  H13R 7285   3.543   4.656   6.002 -0.6887  1.2241 -1.0936
   79SLPC  C214 7286   3.479   4.845   6.091  0.5915 -0.0247  0.3321
   79SLPC  H14R 7287   3.559   4.905   6.139  0.9056  0.6259 -0.9659
   79SLPC  H14S 7288   3.383   4.860   6.145 -0.7695  1.9551 -2.4316
   79SLPC  C215 7289   3.459   4.898   5.948 -0.3122 -0.2635 -0.0466
   79SLPC  H15R 7290   3.445   5.007   5.965  0.1385  0.2820 -2.7737
   79SLPC  H15S 7291   3.363   4.863   5.904 -0.3557 -0.4807  0.2186
   79SLPC  C216 7292   3.573   4.879   5.844  0.4441  0.5067  0.3918
   79SLPC  H16R 7293   3.592   4.769   5.846  1.3495  0.6682  1.5567
   79SLPC  H16S 7294   3.663   4.935   5.877  0.4213  0.9268 -0.2485
   79SLPC  C217 7295   3.530   4.928   5.704  0.6024  0.2932 -0.1487
   79SLPC  H17R 7296   3.522   5.038   5.709 -0.0440  0.1985  1.6429
   79SLPC  H17S 7297   3.426   4.892   5.687  0.7680 -0.8679  1.0425
   79SLPC  C218 7298   3.632   4.879   5.603 -0.0980 -0.5903  0.3517
   79SLPC  H18R 7299   3.729   4.927   5.627  0.1144 -1.9648  2.5298
   79SLPC  H18S 7300   3.607   4.923   5.503 -0.6538  3.6035  2.1161
   79SLPC  H18T 7301   3.646   4.769   5.605  2.7896 -0.2920  1.1498
   79SLPC   C33 7302   3.048   4.378   6.822  0.5544  0.5875  0.1787
   79SLPC   H3X 7303   2.939   4.399   6.813  0.9291  2.0733 -1.8131
   79SLPC   H3Y 7304   3.065   4.271   6.846  0.7794  0.4712 -0.4897
   79SLPC   C34 7305   3.125   4.398   6.692 -0.0670 -0.1062 -0.6475
   79SLPC   H4X 7306   3.234   4.395   6.714 -0.1432  1.1766 -0.0118
   79SLPC   H4Y 7307   3.082   4.483   6.636 -3.5440  0.6019  2.6524
   79SLPC   C35 7308   3.101   4.277   6.595  0.3401  0.0664 -0.1155
   79SLPC   H5X 7309   2.993   4.267   6.575 -0.0632  1.9162  0.9260
   79SLPC   H5Y 7310   3.137   4.187   6.650  1.3857 -0.2096 -1.1881
   79SLPC   C36 7311   3.185   4.273   6.466  0.2199 -0.2449  0.0408
   79SLPC   H6X 7312   3.292   4.288   6.489  0.3391  0.0470 -0.6835
   79SLPC   H6Y 7313   3.145   4.362   6.412  1.9935  1.1216  0.8731
   79SLPC   C37 7314   3.167   4.142   6.382 -0.5062  0.2180 -0.7736
   79SLPC   H7X 7315   3.064   4.127   6.344 -0.7950  0.7264 -0.2013
   79SLPC   H7Y 7316   3.185   4.065   6.460 -3.4215 -1.7726 -1.8844
   79SLPC   C38 7317   3.272   4.120   6.268  0.8092 -0.1648 -0.1085
   79SLPC   H8X 7318   3.282   4.013   6.238  0.4954 -0.7787  1.8080
   79SLPC   H8Y 7319   3.368   4.167   6.299 -0.2315  1.9004  0.1558
   79SLPC   C39 7320   3.223   4.196   6.140  0.3615 -0.1756 -0.5411
   79SLPC   H9X 7321   3.210   4.304   6.161  0.6147 -0.1448 -0.5423
   79SLPC   H9Y 7322   3.136   4.144   6.096 -0.8022  1.0205  0.2640
   79SLPC  C310 7323   3.319   4.202   6.017 -0.3183  0.3155  0.5985
   79SLPC  H10X 7324   3.370   4.104   6.016 -4.2191 -1.9453 -0.5390
   79SLPC  H10Y 7325   3.384   4.288   6.045  0.6678 -0.6583  1.3666
   79SLPC  C311 7326   3.242   4.214   5.892 -0.1674 -0.1973 -0.3153
   79SLPC  H11X 7327   3.180   4.306   5.900  1.2014  0.5571  2.9255
   79SLPC  H11Y 7328   3.174   4.128   5.874 -0.3814 -0.1516  0.2669
   79SLPC  C312 7329   3.334   4.234   5.774  0.4743 -0.4387  0.3466
   79SLPC  H12X 7330   3.283   4.238   5.675  1.3331 -0.7755 -0.1296
   79SLPC  H12Y 7331   3.413   4.156   5.763 -0.3997 -1.1222 -1.6692
   79SLPC  C313 7332   3.413   4.369   5.788  0.4722 -0.3263  0.4543
   79SLPC  H13X 7333   3.478   4.374   5.878  0.5848  1.4235  0.3057
   79SLPC  H13Y 7334   3.344   4.455   5.802  1.6743  0.8054 -0.4182
   79SLPC  C314 7335   3.484   4.405   5.649  0.7727  0.1870 -0.9232
   79SLPC  H14X 7336   3.522   4.313   5.600  2.5632  0.4702 -0.1224
   79SLPC  H14Y 7337   3.574   4.470   5.659 -0.8321  2.2267  1.4736
   79SLPC  C315 7338   3.391   4.477   5.552  0.4132 -0.3328 -1.1388
   79SLPC  H15X 7339   3.337   4.547   5.619 -0.0238 -0.5869 -1.2230
   79SLPC  H15Y 7340   3.314   4.404   5.518 -0.5815  0.4570 -0.6435
   79SLPC  C316 7341   3.459   4.536   5.438  0.3232  0.5115  0.0620
   79SLPC  H16X 7342   3.550   4.585   5.479  0.5931  0.6711 -0.7132
   79SLPC  H16Y 7343   3.401   4.618   5.390  1.7381  1.9038  0.6700
   79SLPC  C317 7344   3.491   4.440   5.321  0.2904 -0.0059  0.1016
   79SLPC  H17X 7345   3.558   4.362   5.363  1.3316  0.5133 -0.5617
   79SLPC  H17Y 7346   3.551   4.499   5.248  1.0197  1.0776  1.5422
   79SLPC  C318 7347   3.385   4.367   5.247 -0.2974  0.0566  0.3249
   79SLPC  H18X 7348   3.345   4.277   5.297  2.7661 -1.5831  0.0441
   79SLPC  H18Y 7349   3.410   4.334   5.144 -2.8099 -0.9895 -0.0020
   79SLPC  H18Z 7350   3.307   4.444   5.230  1.7958  1.8769 -1.7900
   80SLPC     N 7351   1.565   1.444   8.287  0.7704  0.4463  0.4814
   80SLPC   C13 7352   1.464   1.507   8.197 -0.0038 -0.5613  0.3964
   80SLPC  H13A 7353   1.478   1.466   8.098  1.2744 -1.3858  0.8904
   80SLPC  H13B 7354   1.360   1.484   8.215  0.0902 -3.6167 -2.1342
   80SLPC  H13C 7355   1.485   1.612   8.185 -0.8010 -0.5465 -0.9584
   80SLPC   C14 7356   1.541   1.498   8.426 -0.2396  0.5059  0.1717
   80SLPC  H14A 7357   1.569   1.602   8.434 -1.1273  0.9109 -1.4639
   80SLPC  H14B 7358   1.438   1.489   8.457  0.0522  0.9503  1.3001
   80SLPC  H14C 7359   1.589   1.436   8.500  0.0641  1.6293  0.9488
   80SLPC   C15 7360   1.696   1.494   8.248  0.9381  0.5593 -0.2958
   80SLPC  H15A 7361   1.690   1.602   8.240 -1.8340  0.6016  1.1348
   80SLPC  H15B 7362   1.770   1.463   8.320 -0.8116  1.9048  2.2413
   80SLPC  H15C 7363   1.719   1.455   8.150 -2.0593  1.4659 -1.4740
   80SLPC   C12 7364   1.555   1.290   8.289 -0.2056 -0.1105  0.4821
   80SLPC  H12A 7365   1.457   1.257   8.319 -0.4385 -0.2478 -0.3913
   80SLPC  H12B 7366   1.626   1.241   8.354 -0.1090 -2.9262 -1.5636
   80SLPC   C11 7367   1.565   1.229   8.138 -0.5790  0.6687 -0.3275
   80SLPC  H11A 7368   1.484   1.279   8.080 -1.3333  0.5775  0.6111
   80SLPC  H11B 7369   1.545   1.120   8.142  1.6311  0.2486  0.9568
   80SLPC     P 7370   1.717   1.209   7.932  0.1618 -0.4892 -0.0555
   80SLPC   O13 7371   1.835   1.289   7.890  0.1685  0.2741  0.2293
   80SLPC   O14 7372   1.723   1.058   7.935  0.2230  0.0641 -0.0277
   80SLPC   O12 7373   1.695   1.258   8.080  0.2133  1.0810  0.0457
   80SLPC   O11 7374   1.592   1.258   7.853  0.1065 -0.1276  0.5105
   80SLPC    C1 7375   1.584   1.392   7.813 -0.4116  0.0600 -0.0458
   80SLPC    HA 7376   1.476   1.418   7.810 -0.4061  0.1275 -2.7342
   80SLPC    HB 7377   1.638   1.460   7.882  2.3428 -2.8294  0.8928
   80SLPC    C2 7378   1.636   1.429   7.670  0.1339  0.3983 -0.6497
   80SLPC    HS 7379   1.558   1.489   7.618 -1.5804  0.0071  1.3551
   80SLPC   O21 7380   1.667   1.311   7.592 -0.0027  0.7983 -0.3553
   80SLPC   C21 7381   1.552   1.236   7.565 -0.4047 -0.1126  0.3764
   80SLPC   O22 7382   1.434   1.276   7.579 -0.7160  0.3908  0.5489
   80SLPC   C22 7383   1.593   1.101   7.525 -0.3602  0.5083 -0.1035
   80SLPC   H2R 7384   1.704   1.090   7.524 -0.4464 -0.6886 -1.9885
   80SLPC   H2S 7385   1.557   1.034   7.607 -1.8515  0.3378 -0.8786
   80SLPC    C3 7386   1.752   1.539   7.667  0.5249 -0.1958  0.8428
   80SLPC    HX 7387   1.844   1.498   7.713  1.5785 -0.2716 -1.2063
   80SLPC    HY 7388   1.712   1.621   7.731 -0.1533 -0.3277  0.6022
   80SLPC   O31 7389   1.781   1.588   7.530 -0.2150  0.5658 -0.5236
   80SLPC   C31 7390   1.895   1.543   7.470 -0.1948 -0.1735 -0.5971
   80SLPC   O32 7391   1.981   1.477   7.526  0.6617  0.0764  0.6006
   80SLPC   C32 7392   1.901   1.599   7.329  0.7092 -0.1522  0.6353
   80SLPC   H2X 7393   2.001   1.568   7.291  0.2346  1.4435 -2.2473
   80SLPC   H2Y 7394   1.889   1.709   7.333 -2.4234 -0.3848  0.0002
   80SLPC   C23 7395   1.530   1.062   7.388  0.1199 -0.1094 -0.4427
   80SLPC   H3R 7396   1.567   1.122   7.302 -0.3682  1.7105  0.5623
   80SLPC   H3S 7397   1.421   1.084   7.385  0.6376  3.0251  0.0866
   80SLPC   C24 7398   1.551   0.910   7.362  0.3109 -0.2247 -0.3448
   80SLPC   H4R 7399   1.513   0.886   7.261 -1.7629  3.1997 -0.5416
   80SLPC   H4S 7400   1.490   0.846   7.429 -2.0106 -0.5835 -2.6314
   80SLPC   C25 7401   1.705   0.881   7.372  1.2089  0.4529 -0.5213
   80SLPC   H5R 7402   1.712   0.849   7.478  2.0156 -0.2864 -0.7894
   80SLPC   H5S 7403   1.765   0.969   7.339  0.1821  0.4041 -2.7654
   80SLPC   C26 7404   1.743   0.766   7.284  0.8316  0.1126  0.3634
   80SLPC   H6R 7405   1.719   0.786   7.177  0.2652 -1.2299  0.2177
   80SLPC   H6S 7406   1.677   0.685   7.322 -0.1135  0.6662 -0.0621
   80SLPC   C27 7407   1.887   0.722   7.285 -0.9320 -0.3988  0.2016
   80SLPC   H7R 7408   1.893   0.611   7.286  0.4033 -0.3974  2.8559
   80SLPC   H7S 7409   1.941   0.743   7.380 -0.3920 -0.2973 -0.1244
   80SLPC   C28 7410   1.960   0.798   7.168 -0.3984  0.1303 -0.0008
   80SLPC   H8R 7411   1.938   0.905   7.188 -1.5482 -0.0440 -0.3049
   80SLPC   H8S 7412   1.911   0.762   7.076  0.1791  0.5444 -0.4827
   80SLPC   C29 7413   2.111   0.777   7.161  0.5087  0.2850  0.5251
   80SLPC   H9R 7414   2.158   0.809   7.255  0.7365  1.4776  0.0218
   80SLPC  C210 7415   2.188   0.738   7.058  0.0769  0.1960  0.0629
   80SLPC  H10R 7416   2.298   0.746   7.066  0.6304 -1.7493 -3.3588
   80SLPC  C211 7417   2.130   0.712   6.925  0.0278  0.3568 -0.4371
   80SLPC  H11R 7418   2.082   0.810   6.904 -0.1435  0.2987 -0.3130
   80SLPC  H11S 7419   2.045   0.641   6.924 -0.6269  1.0803  0.9734
   80SLPC  C212 7420   2.217   0.690   6.802  0.0598 -0.7924  0.3118
   80SLPC  H12R 7421   2.242   0.585   6.784  2.0378 -0.6825  1.9780
   80SLPC  C213 7422   2.255   0.792   6.717  0.2043  0.1409  0.5145
   80SLPC  H13R 7423   2.319   0.767   6.631 -2.0976 -0.3288 -1.1826
   80SLPC  C214 7424   2.213   0.940   6.723  0.3754  0.1060  1.2444
   80SLPC  H14R 7425   2.302   1.007   6.720  0.8703 -0.5620  0.4859
   80SLPC  H14S 7426   2.156   0.969   6.814 -0.9652  1.3356  0.0719
   80SLPC  C215 7427   2.115   0.990   6.609 -0.9133  0.6643  0.5797
   80SLPC  H15R 7428   2.026   0.923   6.605 -0.9840  0.8216 -0.8309
   80SLPC  H15S 7429   2.157   0.980   6.507 -1.3014  3.4923  0.0559
   80SLPC  C216 7430   2.068   1.138   6.620 -0.1325  0.4173 -0.1198
   80SLPC  H16R 7431   2.133   1.202   6.556  0.1651 -1.5083 -1.8202
   80SLPC  H16S 7432   2.082   1.174   6.724  1.5530 -0.2110 -0.1057
   80SLPC  C217 7433   1.928   1.156   6.566 -0.1221 -0.5905  0.5823
   80SLPC  H17R 7434   1.891   1.257   6.594  0.3220 -0.1888 -0.2283
   80SLPC  H17S 7435   1.858   1.090   6.621  0.0161  0.2202  1.7489
   80SLPC  C218 7436   1.922   1.148   6.410  0.4346 -0.3573  1.1238
   80SLPC  H18R 7437   2.018   1.196   6.384 -0.5375  2.0364  1.7388
   80SLPC  H18S 7438   1.839   1.204   6.363  1.5332  1.0390  0.8146
   80SLPC  H18T 7439   1.913   1.043   6.374 -0.9297  0.2605 -0.4447
   80SLPC   C33 7440   1.792   1.551   7.226 -0.5937  0.2285 -0.1712
   80SLPC   H3X 7441   1.691   1.561   7.272 -0.8265 -0.0445 -0.6170
   80SLPC   H3Y 7442   1.804   1.443   7.204 -1.1639  0.2790 -0.7553
   80SLPC   C34 7443   1.784   1.617   7.098 -0.6409  0.0943  0.2208
   80SLPC   H4X 7444   1.888   1.644   7.069  0.1639 -2.7169  0.2077
   80SLPC   H4Y 7445   1.732   1.713   7.119  2.1886  1.6372  0.7404
   80SLPC   C35 7446   1.723   1.526   6.990 -0.0393  0.1634 -0.5294
   80SLPC   H5X 7447   1.616   1.509   7.015 -0.2092  0.5391 -0.9951
   80SLPC   H5Y 7448   1.785   1.434   6.990 -1.6521 -1.0214  1.3885
   80SLPC   C36 7449   1.736   1.586   6.843 -0.3365  0.4377  0.0363
   80SLPC   H6X 7450   1.846   1.591   6.828 -0.2072  1.0104  1.1418
   80SLPC   H6Y 7451   1.697   1.690   6.843  1.4202  1.1583 -1.1537
   80SLPC   C37 7452   1.672   1.509   6.730  0.0762  0.1843 -0.2087
   80SLPC   H7X 7453   1.566   1.479   6.749  0.7901 -3.1230 -0.8600
   80SLPC   H7Y 7454   1.729   1.416   6.710  0.1051  0.8425 -3.7157
   80SLPC   C38 7455   1.679   1.583   6.599 -0.7543  0.9884  0.0039
   80SLPC   H8X 7456   1.773   1.642   6.606 -0.1363  0.0863 -0.4885
   80SLPC   H8Y 7457   1.597   1.656   6.579  0.4974  2.4719  0.0673
   80SLPC   C39 7458   1.711   1.487   6.483 -0.6386 -0.0931  0.1122
   80SLPC   H9X 7459   1.627   1.415   6.488 -1.2992  0.6658  0.0946
   80SLPC   H9Y 7460   1.811   1.438   6.487  0.3157  1.5005 -2.2646
   80SLPC  C310 7461   1.698   1.557   6.339 -0.0872  0.3004  0.4215
   80SLPC  H10X 7462   1.755   1.651   6.353  1.8482 -1.0039  1.6927
   80SLPC  H10Y 7463   1.593   1.587   6.317 -0.3295 -1.0759 -0.4361
   80SLPC  C311 7464   1.764   1.479   6.223  0.6256 -0.0446  0.0326
   80SLPC  H11X 7465   1.710   1.383   6.204  0.1283  0.6093 -2.1183
   80SLPC  H11Y 7466   1.870   1.463   6.253  0.6147 -1.3727 -0.5385
   80SLPC  C312 7467   1.766   1.554   6.089 -0.6079 -0.3182  0.1288
   80SLPC  H12X 7468   1.813   1.654   6.104 -2.0403  0.3254  0.5054
   80SLPC  H12Y 7469   1.657   1.568   6.071 -1.0986 -3.1767  0.3860
   80SLPC  C313 7470   1.825   1.474   5.969 -0.0978  0.4042  1.2389
   80SLPC  H13X 7471   1.763   1.383   5.958  1.5307 -0.8271  1.8398
   80SLPC  H13Y 7472   1.925   1.437   5.999  0.5520  0.3638 -0.8620
   80SLPC  C314 7473   1.837   1.544   5.830  0.9026  0.0892  0.1222
   80SLPC  H14X 7474   1.862   1.463   5.758 -2.6168 -0.2820 -0.8569
   80SLPC  H14Y 7475   1.915   1.621   5.810  0.8175 -0.5516 -3.5233
   80SLPC  C315 7476   1.695   1.608   5.786  0.3595 -0.2983  0.3168
   80SLPC  H15X 7477   1.692   1.703   5.844  0.8044 -0.7217  1.0569
   80SLPC  H15Y 7478   1.614   1.548   5.833  0.5766  1.0839  2.6669
   80SLPC  C316 7479   1.689   1.640   5.636 -0.2093  0.0330 -0.6699
   80SLPC  H16X 7480   1.669   1.560   5.561 -0.7566 -2.0117  1.5334
   80SLPC  H16Y 7481   1.790   1.671   5.602 -0.1232 -0.2200 -0.6526
   80SLPC  C317 7482   1.592   1.754   5.610  0.3377 -0.7742  0.2579
   80SLPC  H17X 7483   1.508   1.738   5.681  0.3110  0.3091  0.4948
   80SLPC  H17Y 7484   1.553   1.742   5.507 -0.1377 -1.9461  0.5584
   80SLPC  C318 7485   1.656   1.891   5.620 -0.8977 -0.3097 -0.6927
   80SLPC  H18X 7486   1.587   1.975   5.597 -2.2061 -1.1163  0.1309
   80SLPC  H18Y 7487   1.746   1.893   5.555  1.7401 -0.7318  2.6770
   80SLPC  H18Z 7488   1.694   1.913   5.722 -0.3840  0.1942 -0.9910
   81SLPC     N 7489   4.545   6.021   3.095  0.5111  0.1262 -0.3283
   81SLPC   C13 7490   4.677   6.048   3.040 -0.2473 -0.0757  0.0453
   81SLPC  H13A 7491   4.757   6.017   3.105  1.7399 -0.5954 -2.4645
   81SLPC  H13B 7492   4.689   5.994   2.947  0.2667 -1.4270  0.8752
   81SLPC  H13C 7493   4.693   6.153   3.018 -1.2942  0.0320 -0.2473
   81SLPC   C14 7494   4.443   6.054   2.990  0.3395  0.4330 -0.1575
   81SLPC  H14A 7495   4.461   6.146   2.935 -1.3505  0.5483 -0.5577
   81SLPC  H14B 7496   4.440   5.993   2.901  0.7461  1.9037 -1.2367
   81SLPC  H14C 7497   4.343   6.057   3.030  0.1056 -1.0207 -0.5993
   81SLPC   C15 7498   4.517   6.105   3.213  0.7500  0.2140  0.2866
   81SLPC  H15A 7499   4.419   6.083   3.253  0.6916 -0.8827 -0.4105
   81SLPC  H15B 7500   4.593   6.100   3.290  2.3810 -0.3216 -1.2771
   81SLPC  H15C 7501   4.515   6.211   3.193  0.0988 -0.1841 -2.0411
   81SLPC   C12 7502   4.530   5.865   3.122 -0.3507 -0.0736  0.0558
   81SLPC  H12A 7503   4.429   5.837   3.149 -0.0253 -1.6229 -0.2437
   81SLPC  H12B 7504   4.594   5.837   3.205  0.4733  0.8305 -0.2603
   81SLPC   C11 7505   4.559   5.761   3.009  0.6938  0.8478 -0.3663
   81SLPC  H11A 7506   4.474   5.767   2.937  0.1793  3.7073  0.3615
   81SLPC  H11B 7507   4.558   5.665   3.064  0.8754  1.2944  0.4257
   81SLPC     P 7508   4.803   5.702   2.971 -0.1453 -0.2071 -0.0351
   81SLPC   O13 7509   4.795   5.568   2.915 -0.3145  0.5483 -0.5604
   81SLPC   O14 7510   4.921   5.790   2.934  0.0493 -0.1040  0.0979
   81SLPC   O12 7511   4.677   5.788   2.937  0.2980 -0.0665  0.4793
   81SLPC   O11 7512   4.790   5.683   3.130  0.1220  0.4032 -0.2107
   81SLPC    C1 7513   4.861   5.777   3.213  0.2082 -0.4819 -0.3981
   81SLPC    HA 7514   4.971   5.770   3.207  0.3097  0.5698 -0.0094
   81SLPC    HB 7515   4.829   5.879   3.183 -0.3763 -0.9403 -1.3871
   81SLPC    C2 7516   4.823   5.764   3.357 -0.3772 -0.0663  0.4551
   81SLPC    HS 7517   4.719   5.796   3.380 -0.6136 -2.1926  2.7752
   81SLPC   O21 7518   4.918   5.844   3.426 -0.2869 -0.3590 -0.1354
   81SLPC   C21 7519   4.883   5.974   3.433  0.6233 -0.2191 -0.4490
   81SLPC   O22 7520   4.770   6.016   3.409 -0.0239 -0.4203 -0.2374
   81SLPC   C22 7521   4.994   6.059   3.496 -0.4148 -0.2695 -0.0244
   81SLPC   H2R 7522   5.077   5.994   3.529 -0.0445  0.9065  1.4309
   81SLPC   H2S 7523   5.031   6.130   3.419 -3.8844 -0.2118 -1.8604
   81SLPC    C3 7524   4.837   5.618   3.407  0.2961 -0.0379 -0.7250
   81SLPC    HX 7525   4.939   5.577   3.393  0.2880 -0.2189 -0.2720
   81SLPC    HY 7526   4.770   5.550   3.351 -1.0607 -1.3384  2.2705
   81SLPC   O31 7527   4.798   5.605   3.544  0.2109  0.6472  0.1085
   81SLPC   C31 7528   4.671   5.630   3.582 -0.0580 -0.9092 -0.5391
   81SLPC   O32 7529   4.576   5.661   3.514 -0.2380 -0.1569  0.5710
   81SLPC   C32 7530   4.679   5.626   3.732 -0.0242  0.3106 -0.1670
   81SLPC   H2X 7531   4.775   5.653   3.781 -0.0801  2.3180 -1.0251
   81SLPC   H2Y 7532   4.661   5.521   3.762 -0.7810  0.2069 -0.9375
   81SLPC   C23 7533   4.954   6.146   3.624 -0.2939 -1.0893  0.5832
   81SLPC   H3R 7534   5.039   6.212   3.654 -1.2508  0.0848  0.7987
   81SLPC   H3S 7535   4.935   6.080   3.711 -0.7053 -0.0805  1.2857
   81SLPC   C24 7536   4.838   6.246   3.586 -0.2093 -0.0579  0.2104
   81SLPC   H4R 7537   4.752   6.177   3.571  0.2152 -0.1391 -2.2808
   81SLPC   H4S 7538   4.849   6.296   3.487 -0.1410 -0.7047 -0.1190
   81SLPC   C25 7539   4.802   6.353   3.692 -1.0550  0.2503  0.4372
   81SLPC   H5R 7540   4.721   6.410   3.640  0.2756  0.2899 -1.7053
   81SLPC   H5S 7541   4.888   6.422   3.700 -0.0698 -0.9365  0.3501
   81SLPC   C26 7542   4.757   6.314   3.829  0.2885 -0.2613  0.3974
   81SLPC   H6R 7543   4.662   6.257   3.830  0.2977 -0.3003  1.8957
   81SLPC   H6S 7544   4.738   6.417   3.867 -2.7441 -0.0727 -1.3731
   81SLPC   C27 7545   4.855   6.253   3.928 -0.2333  0.1057 -0.2718
   81SLPC   H7R 7546   4.946   6.317   3.935  0.5410 -1.0489  0.5101
   81SLPC   H7S 7547   4.892   6.156   3.889 -0.2599  1.0223 -2.7169
   81SLPC   C28 7548   4.797   6.239   4.065  0.6416  0.0459  0.0654
   81SLPC   H8R 7549   4.696   6.192   4.061  2.1099 -3.3637 -1.1695
   81SLPC   H8S 7550   4.781   6.332   4.123 -0.4503 -0.7266  1.0391
   81SLPC   C29 7551   4.903   6.165   4.148  0.4635 -0.2386  0.2631
   81SLPC   H9R 7552   4.983   6.118   4.088  1.0523 -1.0067  1.5807
   81SLPC  C210 7553   4.915   6.153   4.279 -0.8874  0.1671 -0.8174
   81SLPC  H10R 7554   4.992   6.083   4.314  0.3420  0.8142 -2.1320
   81SLPC  C211 7555   4.820   6.200   4.384  0.3295 -0.4162 -0.0463
   81SLPC  H11R 7556   4.813   6.128   4.469 -1.1747  0.9013  1.0228
   81SLPC  H11S 7557   4.713   6.203   4.356  0.7146  2.2289 -1.5412
   81SLPC  C212 7558   4.852   6.341   4.431  0.1323  0.1320 -0.2578
   81SLPC  H12R 7559   4.901   6.400   4.352  0.7995 -1.2155 -0.8794
   81SLPC  C213 7560   4.812   6.396   4.545  0.3217  0.1746 -0.1252
   81SLPC  H13R 7561   4.849   6.497   4.565  1.7931 -0.5125  0.8017
   81SLPC  C214 7562   4.744   6.339   4.667 -0.6851  0.1302 -0.3326
   81SLPC  H14R 7563   4.720   6.232   4.650 -1.8347 -0.1360  2.4219
   81SLPC  H14S 7564   4.655   6.400   4.694 -0.6128  1.1970 -2.3128
   81SLPC  C215 7565   4.852   6.357   4.775  0.7420  0.2547 -0.3802
   81SLPC  H15R 7566   4.885   6.463   4.784  2.3779 -0.3523  1.6355
   81SLPC  H15S 7567   4.947   6.302   4.759  0.4205 -1.4752  2.7354
   81SLPC  C216 7568   4.798   6.306   4.916 -0.2277  0.3930  0.5777
   81SLPC  H16R 7569   4.753   6.204   4.917 -2.0611  1.1507  1.9448
   81SLPC  H16S 7570   4.726   6.387   4.944 -0.3897  0.8420 -1.0308
   81SLPC  C217 7571   4.911   6.306   5.016 -0.8819  1.0709  0.3565
   81SLPC  H17R 7572   4.968   6.401   5.006  0.4964  0.4122  1.5165
   81SLPC  H17S 7573   4.986   6.230   4.984 -2.3403 -0.5491  0.6298
   81SLPC  C218 7574   4.876   6.276   5.162 -0.4232  0.6194  0.8359
   81SLPC  H18R 7575   4.960   6.293   5.233  0.2097  0.3734  0.1604
   81SLPC  H18S 7576   4.869   6.166   5.172  0.4243  0.6545  2.0537
   81SLPC  H18T 7577   4.781   6.326   5.189  0.1141  1.6013  0.9580
   81SLPC   C33 7578   4.574   5.723   3.791 -0.1553  0.1026 -0.2758
   81SLPC   H3X 7579   4.475   5.674   3.795 -0.0814 -0.0962 -0.8588
   81SLPC   H3Y 7580   4.573   5.818   3.734  1.8422 -0.9934 -2.3183
   81SLPC   C34 7581   4.601   5.753   3.935 -0.1465 -0.5097 -0.8328
   81SLPC   H4X 7582   4.534   5.832   3.977  0.0425  0.0996 -1.6580
   81SLPC   H4Y 7583   4.704   5.793   3.944  0.3876 -2.0841  0.6499
   81SLPC   C35 7584   4.615   5.629   4.033 -0.9747 -0.3169  0.0923
   81SLPC   H5X 7585   4.710   5.577   4.007 -0.4977  1.0637 -1.0573
   81SLPC   H5Y 7586   4.535   5.557   4.005 -0.9031  0.4558 -2.3400
   81SLPC   C36 7587   4.598   5.673   4.179 -0.2625  0.6602 -0.0047
   81SLPC   H6X 7588   4.587   5.576   4.232  1.8057  1.6573  2.5205
   81SLPC   H6Y 7589   4.502   5.729   4.186  0.3886  1.6547  3.9131
   81SLPC   C37 7590   4.717   5.752   4.252 -0.5501 -0.2915  0.2068
   81SLPC   H7X 7591   4.723   5.845   4.192  0.5159 -1.4594 -1.6285
   81SLPC   H7Y 7592   4.813   5.703   4.225 -0.8207 -0.7899  0.1407
   81SLPC   C38 7593   4.713   5.774   4.398  0.0965 -0.0131 -0.1418
   81SLPC   H8X 7594   4.655   5.695   4.451 -0.4301 -0.3537 -1.1951
   81SLPC   H8Y 7595   4.660   5.867   4.429  0.5101 -0.3604  1.7521
   81SLPC   C39 7596   4.854   5.783   4.460  0.1596 -0.2830  0.1146
   81SLPC   H9X 7597   4.905   5.873   4.420 -3.1282  0.2818 -3.4215
   81SLPC   H9Y 7598   4.914   5.702   4.412  1.7933  1.1058 -0.2975
   81SLPC  C310 7599   4.861   5.784   4.611 -0.3185 -0.2383 -0.3792
   81SLPC  H10X 7600   4.861   5.683   4.657 -2.7737  0.6534  1.8272
   81SLPC  H10Y 7601   4.776   5.849   4.642  0.5883  0.5610  0.5049
   81SLPC  C311 7602   4.987   5.854   4.667  0.1467  0.5324 -0.4030
   81SLPC  H11X 7603   4.974   5.959   4.632 -3.9553  0.3700  0.0497
   81SLPC  H11Y 7604   5.074   5.794   4.633 -1.0616 -1.7829  0.3531
   81SLPC  C312 7605   4.988   5.862   4.823 -0.4513  0.1985  1.0671
   81SLPC  H12X 7606   4.961   5.764   4.869  1.0163 -1.0539 -0.5906
   81SLPC  H12Y 7607   4.913   5.941   4.844  0.0511  1.0203 -0.1759
   81SLPC  C313 7608   5.123   5.913   4.885  0.0302  0.7102  0.3080
   81SLPC  H13X 7609   5.157   6.006   4.835 -0.6567  0.5289 -0.5316
   81SLPC  H13Y 7610   5.211   5.846   4.873  1.8647  3.1337 -0.4780
   81SLPC  C314 7611   5.111   5.936   5.043  0.4831 -0.5365 -0.4539
   81SLPC  H14X 7612   5.102   5.833   5.083 -2.4485  0.6883  2.4110
   81SLPC  H14Y 7613   5.016   5.993   5.048  0.3008 -0.7526 -1.2927
   81SLPC  C315 7614   5.230   6.009   5.105  0.2239  0.0706 -0.1824
   81SLPC  H15X 7615   5.256   6.099   5.046 -0.2448  2.3864  2.9238
   81SLPC  H15Y 7616   5.325   5.953   5.119 -0.2568 -0.4087  1.4610
   81SLPC  C316 7617   5.192   6.055   5.247 -0.3767  0.6731  0.1196
   81SLPC  H16X 7618   5.226   5.973   5.313 -0.0587 -0.2235 -1.1115
   81SLPC  H16Y 7619   5.081   6.057   5.262 -0.3801  1.6346  0.0427
   81SLPC  C317 7620   5.241   6.193   5.288 -0.0762 -0.2202  0.0918
   81SLPC  H17X 7621   5.188   6.261   5.218  0.2154 -0.4144 -0.3227
   81SLPC  H17Y 7622   5.350   6.204   5.271  0.1155 -1.5188  0.3856
   81SLPC  C318 7623   5.209   6.247   5.426 -0.3083 -0.2800  0.2291
   81SLPC  H18X 7624   5.098   6.249   5.436 -0.6483 -0.9279 -2.5928
   81SLPC  H18Y 7625   5.259   6.342   5.451 -0.5757 -0.4520  1.4585
   81SLPC  H18Z 7626   5.242   6.185   5.513 -1.2750  1.6652  2.0602
   82SLPC     N 7627   3.237   5.873   2.869 -0.3508 -0.0549  0.4393
   82SLPC   C13 7628   3.271   5.986   2.767  0.3386  0.2733 -0.5186
   82SLPC  H13A 7629   3.200   5.981   2.685 -1.7732  0.1507  1.2282
   82SLPC  H13B 7630   3.262   6.077   2.825  0.5401 -1.3533  2.2555
   82SLPC  H13C 7631   3.375   5.985   2.740  0.3717  1.4257 -0.4654
   82SLPC   C14 7632   3.253   5.735   2.801  0.5511 -0.0884  0.4058
   82SLPC  H14A 7633   3.359   5.719   2.791  0.3669 -3.3495  2.2317
   82SLPC  H14B 7634   3.217   5.655   2.864  0.3280 -0.5335 -0.2819
   82SLPC  H14C 7635   3.197   5.735   2.709  1.1541 -0.5509  0.0397
   82SLPC   C15 7636   3.091   5.887   2.914  0.0403 -0.3027  0.9129
   82SLPC  H15A 7637   3.057   5.822   2.994 -0.1798  0.4269  1.4215
   82SLPC  H15B 7638   3.069   5.991   2.934 -0.5088 -0.4470  1.1055
   82SLPC  H15C 7639   3.027   5.856   2.832  4.0649 -3.0625 -1.5139
   82SLPC   C12 7640   3.331   5.889   2.989 -0.0776 -0.4411  0.1730
   82SLPC  H12A 7641   3.295   5.820   3.064 -0.2418 -3.5571 -2.5629
   82SLPC  H12B 7642   3.330   5.989   3.031  0.5748 -0.7479  0.9682
   82SLPC   C11 7643   3.484   5.874   2.973 -0.3381 -0.1485  0.3006
   82SLPC  H11A 7644   3.518   5.909   3.072 -3.1759 -1.8793  2.0089
   82SLPC  H11B 7645   3.521   5.940   2.891 -0.8622 -1.4166 -1.0054
   82SLPC     P 7646   3.501   5.622   3.036 -0.3646 -0.2340 -0.1875
   82SLPC   O13 7647   3.390   5.540   2.985  0.0167 -0.0942  0.6871
   82SLPC   O14 7648   3.626   5.544   3.062  0.1193 -0.4757  0.0818
   82SLPC   O12 7649   3.525   5.743   2.944 -0.0520 -0.4403  0.0977
   82SLPC   O11 7650   3.453   5.687   3.174  0.3296  0.7338 -0.1032
   82SLPC    C1 7651   3.550   5.696   3.277 -0.4522 -1.4047 -0.5530
   82SLPC    HA 7652   3.649   5.724   3.237 -1.5466  3.3324 -0.5088
   82SLPC    HB 7653   3.524   5.789   3.331  0.3577 -0.6158 -1.4826
   82SLPC    C2 7654   3.561   5.585   3.377 -0.2251 -0.0432 -0.1447
   82SLPC    HS 7655   3.588   5.491   3.325  2.6909  0.1992  0.7263
   82SLPC   O21 7656   3.430   5.556   3.430  0.1938 -0.3603 -0.0413
   82SLPC   C21 7657   3.425   5.451   3.519  0.8027 -0.3744  0.3303
   82SLPC   O22 7658   3.503   5.362   3.533 -0.4023  0.0065  0.2584
   82SLPC   C22 7659   3.298   5.458   3.606 -0.5851  0.3630  0.2920
   82SLPC   H2R 7660   3.257   5.560   3.622  0.3031  0.8123 -0.2135
   82SLPC   H2S 7661   3.224   5.409   3.539  1.0205  1.5085 -2.4954
   82SLPC    C3 7662   3.667   5.614   3.492 -0.5785  0.1135 -0.1593
   82SLPC    HX 7663   3.760   5.623   3.431 -0.8417 -1.0150 -0.7447
   82SLPC    HY 7664   3.681   5.528   3.559  1.3175  0.2957 -0.2550
   82SLPC   O31 7665   3.636   5.735   3.562 -0.0037  0.3550  0.2459
   82SLPC   C31 7666   3.720   5.832   3.547 -0.1280  0.9805  0.3894
   82SLPC   O32 7667   3.831   5.826   3.495  0.0459 -0.1366  0.5489
   82SLPC   C32 7668   3.661   5.956   3.614  0.2304  0.5148 -0.5539
   82SLPC   H2X 7669   3.566   5.971   3.558 -0.1226 -0.2150 -0.1632
   82SLPC   H2Y 7670   3.729   6.043   3.602  0.9290 -0.2335 -2.4205
   82SLPC   C23 7671   3.317   5.386   3.735 -0.5812 -0.4447 -0.5950
   82SLPC   H3R 7672   3.346   5.280   3.716  0.6206 -0.0562 -1.0573
   82SLPC   H3S 7673   3.222   5.394   3.792 -0.6256 -1.4240 -0.5142
   82SLPC   C24 7674   3.425   5.439   3.826 -0.1306 -0.0186 -0.3987
   82SLPC   H4R 7675   3.419   5.549   3.843  1.3798 -0.1225  1.0924
   82SLPC   H4S 7676   3.528   5.429   3.785  0.2058  0.4486  0.3034
   82SLPC   C25 7677   3.400   5.374   3.964 -0.2662 -0.2469 -0.6244
   82SLPC   H5R 7678   3.409   5.264   3.957  1.5820 -0.2420  0.8629
   82SLPC   H5S 7679   3.294   5.398   3.986 -1.4469 -1.1382 -4.4727
   82SLPC   C26 7680   3.487   5.406   4.085  0.1754  0.6312  0.0531
   82SLPC   H6R 7681   3.592   5.376   4.067 -0.2708  0.5791 -2.9383
   82SLPC   H6S 7682   3.449   5.357   4.177 -0.5201  0.6019 -0.2442
   82SLPC   C27 7683   3.501   5.556   4.117 -0.3253  0.3082  0.0290
   82SLPC   H7R 7684   3.399   5.598   4.129 -0.7526 -1.2098  2.2108
   82SLPC   H7S 7685   3.555   5.603   4.032  0.8394 -0.7490  0.1658
   82SLPC   C28 7686   3.585   5.581   4.245 -0.6363 -0.1868  1.0021
   82SLPC   H8R 7687   3.611   5.688   4.229  0.5829 -0.6392 -0.2073
   82SLPC   H8S 7688   3.674   5.515   4.232 -1.9424 -1.7280 -0.4301
   82SLPC   C29 7689   3.512   5.561   4.373  0.1462 -0.6637  0.2649
   82SLPC   H9R 7690   3.407   5.528   4.365  1.0612 -4.2873  1.5275
   82SLPC  C210 7691   3.566   5.542   4.490 -0.1314 -0.1020 -0.3955
   82SLPC  H10R 7692   3.499   5.541   4.577  0.7041  0.9909  0.2896
   82SLPC  C211 7693   3.713   5.551   4.517  0.4189 -0.0517 -0.0222
   82SLPC  H11R 7694   3.726   5.597   4.617 -2.1542  0.3965  0.1813
   82SLPC  H11S 7695   3.759   5.626   4.449  0.4086  0.8015  0.9012
   82SLPC  C212 7696   3.787   5.427   4.493 -0.4790  0.3858 -0.7529
   82SLPC  H12R 7697   3.768   5.369   4.401 -3.5370 -0.2754  0.2025
   82SLPC  C213 7698   3.878   5.382   4.583 -0.2725 -0.4363  0.1904
   82SLPC  H13R 7699   3.937   5.294   4.554 -1.2469 -0.5580 -1.5620
   82SLPC  C214 7700   3.921   5.439   4.718  0.3968  0.0826 -0.2080
   82SLPC  H14R 7701   3.826   5.459   4.772 -0.0247 -0.9372 -0.5369
   82SLPC  H14S 7702   3.962   5.541   4.702  1.0205 -0.3576 -1.5851
   82SLPC  C215 7703   4.015   5.348   4.804  0.4204 -0.3138 -0.2649
   82SLPC  H15R 7704   4.109   5.343   4.744  0.7307 -0.0669  0.1982
   82SLPC  H15S 7705   3.981   5.243   4.816 -0.9656  0.3246  1.8379
   82SLPC  C216 7706   4.031   5.401   4.944 -1.0508 -0.0784 -0.2068
   82SLPC  H16R 7707   3.930   5.409   4.989 -0.5287  2.0338  0.7118
   82SLPC  H16S 7708   4.071   5.503   4.924  0.0302 -0.8711 -2.4525
   82SLPC  C217 7709   4.120   5.308   5.028 -0.3631  0.8648  0.1296
   82SLPC  H17R 7710   4.096   5.202   5.005  0.0128  0.5039  1.3577
   82SLPC  H17S 7711   4.107   5.320   5.137  1.4633  0.9900  0.3671
   82SLPC  C218 7712   4.264   5.325   5.000 -0.1566  0.0818  0.2340
   82SLPC  H18R 7713   4.272   5.348   4.892 -2.8013 -1.0335 -0.2774
   82SLPC  H18S 7714   4.319   5.232   5.029  0.3777  0.7511  1.4340
   82SLPC  H18T 7715   4.307   5.401   5.069 -1.4885  0.5537  0.5733
   82SLPC   C33 7716   3.640   5.937   3.763 -0.2819  0.0099  0.0492
   82SLPC   H3X 7717   3.591   5.840   3.785 -0.4324 -0.5260 -2.3803
   82SLPC   H3Y 7718   3.564   6.011   3.796 -0.9992 -0.9585  0.5922
   82SLPC   C34 7719   3.781   5.943   3.830 -0.6195  0.2729  0.4250
   82SLPC   H4X 7720   3.833   6.041   3.821 -1.2670  0.5238 -0.7331
   82SLPC   H4Y 7721   3.836   5.860   3.782 -0.4104  1.9251 -2.3731
   82SLPC   C35 7722   3.763   5.924   3.983  0.4005  0.1793 -0.2361
   82SLPC   H5X 7723   3.862   5.887   4.018  0.3661  3.1879  3.7150
   82SLPC   H5Y 7724   3.682   5.850   3.997 -0.3007  1.0422  0.3878
   82SLPC   C36 7725   3.733   6.051   4.055  0.0209  0.3602 -0.3714
   82SLPC   H6X 7726   3.648   6.097   3.999 -3.3038 -3.4311  1.0781
   82SLPC   H6Y 7727   3.820   6.120   4.050  1.2176 -1.0015  0.6415
   82SLPC   C37 7728   3.696   6.015   4.200 -0.0922 -0.6116  0.1400
   82SLPC   H7X 7729   3.633   5.925   4.214 -1.2604  0.2005  0.2199
   82SLPC   H7Y 7730   3.646   6.104   4.246  1.3976  0.1519  0.3591
   82SLPC   C38 7731   3.816   6.003   4.297  0.0588 -0.8084  1.3284
   82SLPC   H8X 7732   3.880   6.094   4.291  0.3856 -1.1189 -3.1835
   82SLPC   H8Y 7733   3.880   5.914   4.283  0.2220 -0.7699  1.8117
   82SLPC   C39 7734   3.764   5.998   4.439  0.0186  0.4259  0.3882
   82SLPC   H9X 7735   3.697   5.910   4.448  0.4331  0.2414  2.1299
   82SLPC   H9Y 7736   3.703   6.090   4.455 -0.6925  0.3645 -1.7242
   82SLPC  C310 7737   3.869   5.988   4.547 -0.0721  1.0296 -0.1107
   82SLPC  H10X 7738   3.952   6.061   4.544  0.1184  0.8020 -0.4333
   82SLPC  H10Y 7739   3.921   5.893   4.523 -2.1783 -0.2266  0.0147
   82SLPC  C311 7740   3.809   5.967   4.693 -0.7438 -0.6954  0.0535
   82SLPC  H11X 7741   3.744   5.876   4.691  0.4105 -1.5812  1.1348
   82SLPC  H11Y 7742   3.741   6.053   4.712 -1.3405 -1.4122  1.3156
   82SLPC  C312 7743   3.926   5.958   4.792  0.1050 -0.5417 -0.0040
   82SLPC  H12X 7744   3.970   6.060   4.790  1.2026 -0.9650  1.0293
   82SLPC  H12Y 7745   4.000   5.882   4.759  1.2266  0.5268  0.0072
   82SLPC  C313 7746   3.882   5.916   4.936  0.0033 -0.8256  0.3728
   82SLPC  H13X 7747   3.852   5.809   4.928 -0.6191 -0.6105 -0.2436
   82SLPC  H13Y 7748   3.787   5.972   4.954  0.2037 -0.3808  0.0535
   82SLPC  C314 7749   3.992   5.920   5.039 -0.0331 -0.1712  0.0637
   82SLPC  H14X 7750   3.959   5.900   5.143 -0.5653 -1.9024 -0.4157
   82SLPC  H14Y 7751   4.051   6.014   5.032 -3.9866  2.6187  0.5644
   82SLPC  C315 7752   4.088   5.793   5.034  0.0859  0.4182  0.9883
   82SLPC  H15X 7753   4.132   5.794   4.932  1.1933  1.5809  1.4554
   82SLPC  H15Y 7754   4.027   5.701   5.045  0.0942  0.0746 -1.3715
   82SLPC  C316 7755   4.193   5.801   5.152  0.0722 -0.1242  0.0781
   82SLPC  H16X 7756   4.147   5.850   5.240 -1.4878  0.5122 -1.0380
   82SLPC  H16Y 7757   4.284   5.858   5.123  2.0230 -3.0985 -0.2005
   82SLPC  C317 7758   4.250   5.658   5.174  0.2667  0.0296  0.0996
   82SLPC  H17X 7759   4.317   5.643   5.086 -0.1965  3.0998 -0.9289
   82SLPC  H17Y 7760   4.162   5.592   5.164 -2.1238  3.2300 -2.0041
   82SLPC  C318 7761   4.329   5.613   5.300  0.4469  0.1530  0.3288
   82SLPC  H18X 7762   4.261   5.604   5.388 -0.5493 -1.0691 -0.5296
   82SLPC  H18Y 7763   4.402   5.694   5.321 -0.4434  1.1911 -0.5084
   82SLPC  H18Z 7764   4.379   5.515   5.280 -1.3671 -0.6440 -0.4888
   83SLPC     N 7765   4.943   0.383   3.042  0.5316  0.8695 -0.1450
   83SLPC   C13 7766   5.002   0.499   3.112 -0.1185  1.0031 -0.3201
   83SLPC  H13A 7767   4.968   0.505   3.214 -0.2126  1.9317 -0.4050
   83SLPC  H13B 7768   5.109   0.492   3.110 -0.1793 -2.7783  0.7291
   83SLPC  H13C 7769   4.971   0.585   3.054 -1.4066  1.6733  1.3019
   83SLPC   C14 7770   5.015   0.359   2.910  0.2565 -0.1425  0.6500
   83SLPC  H14A 7771   5.029   0.260   2.869 -1.2439  0.2453 -0.8770
   83SLPC  H14B 7772   4.976   0.420   2.831  0.5502 -1.7690 -0.8170
   83SLPC  H14C 7773   5.112   0.399   2.936  0.2548 -2.2255  4.7403
   83SLPC   C15 7774   4.799   0.412   3.018  0.5023 -0.0947  0.4824
   83SLPC  H15A 7775   4.789   0.501   2.957  0.0799 -1.2413 -1.2068
   83SLPC  H15B 7776   4.751   0.334   2.961 -2.7333  2.1135 -0.0978
   83SLPC  H15C 7777   4.746   0.414   3.112 -1.9797 -0.8836 -0.8115
   83SLPC   C12 7778   4.969   0.252   3.116 -0.3966 -0.1765  0.1023
   83SLPC  H12A 7779   4.930   0.259   3.217 -1.5482  0.2361 -0.3534
   83SLPC  H12B 7780   5.073   0.234   3.139 -0.5387 -0.4829  0.5156
   83SLPC   C11 7781   4.907   0.133   3.046 -0.5263 -0.3029  0.7641
   83SLPC  H11A 7782   4.806   0.156   3.006 -0.7489  0.0604  1.5035
   83SLPC  H11B 7783   4.879   0.057   3.122 -1.2791 -0.4401  0.3573
   83SLPC     P 7784   5.102  -0.029   3.007 -0.5683  0.1965  0.0781
   83SLPC   O13 7785   5.033  -0.157   3.040  0.6384  0.1257  0.0238
   83SLPC   O14 7786   5.213  -0.042   2.913 -0.0211 -0.5367 -0.2710
   83SLPC   O12 7787   4.996   0.075   2.949 -0.0007  0.3981  0.8838
   83SLPC   O11 7788   5.153   0.029   3.144 -0.4653  0.6421  0.3246
   83SLPC    C1 7789   5.283   0.082   3.153 -0.1376  0.4657  0.0894
   83SLPC    HA 7790   5.318   0.142   3.067  0.1459  0.4178  0.1695
   83SLPC    HB 7791   5.289   0.149   3.242 -0.5936 -1.6043  1.7758
   83SLPC    C2 7792   5.394  -0.026   3.175  0.1690  0.2563  0.3471
   83SLPC    HS 7793   5.417  -0.077   3.080  1.4660 -2.7420  2.1266
   83SLPC   O21 7794   5.345  -0.121   3.284 -0.1094 -0.1006  0.3595
   83SLPC   C21 7795   5.400  -0.243   3.278 -0.6366 -0.8218 -0.0241
   83SLPC   O22 7796   5.491  -0.270   3.204 -0.1137  0.0860  0.1527
   83SLPC   C22 7797   5.338  -0.336   3.384 -0.0427  0.4418  0.5274
   83SLPC   H2R 7798   5.374  -0.295   3.480  0.9716 -0.9096  0.7477
   83SLPC   H2S 7799   5.227  -0.328   3.374 -0.2308 -1.3329  0.8464
   83SLPC    C3 7800   5.524   0.046   3.211 -0.2743 -0.1371  0.3427
   83SLPC    HX 7801   5.558   0.101   3.121 -2.5241 -2.8437 -2.3803
   83SLPC    HY 7802   5.597  -0.036   3.232 -0.2097 -0.5617 -1.3823
   83SLPC   O31 7803   5.514   0.129   3.324  0.2382  0.4930  0.5450
   83SLPC   C31 7804   5.617   0.176   3.380 -0.6305 -0.2309 -0.0484
   83SLPC   O32 7805   5.736   0.157   3.346  0.4255  0.0953 -0.2331
   83SLPC   C32 7806   5.585   0.248   3.508 -0.2480 -0.1976  0.6438
   83SLPC   H2X 7807   5.498   0.317   3.508  0.8779  1.3974  3.5638
   83SLPC   H2Y 7808   5.669   0.310   3.546 -0.3080 -0.5974  1.4480
   83SLPC   C23 7809   5.402  -0.475   3.365  0.7708 -0.7783 -0.2001
   83SLPC   H3R 7810   5.511  -0.462   3.350  0.7303  1.1186  0.7706
   83SLPC   H3S 7811   5.367  -0.524   3.272  0.0609  0.2941 -0.5219
   83SLPC   C24 7812   5.371  -0.563   3.485 -0.0905 -0.2592  0.3943
   83SLPC   H4R 7813   5.401  -0.669   3.467 -2.8697 -1.2911  1.4051
   83SLPC   H4S 7814   5.266  -0.572   3.519 -0.5486  1.1128 -0.5793
   83SLPC   C25 7815   5.451  -0.525   3.608 -0.5235 -1.2024  0.0611
   83SLPC   H5R 7816   5.407  -0.432   3.650  3.4544  0.0466  2.0070
   83SLPC   H5S 7817   5.552  -0.486   3.582 -0.9364  1.1558  1.6203
   83SLPC   C26 7818   5.462  -0.637   3.707 -0.5007  0.5496 -0.3642
   83SLPC   H6R 7819   5.517  -0.714   3.650 -1.4021 -0.0669 -0.4223
   83SLPC   H6S 7820   5.360  -0.670   3.737  0.2896 -0.7470  0.9991
   83SLPC   C27 7821   5.546  -0.601   3.832 -0.5956 -0.1155  0.1061
   83SLPC   H7R 7822   5.472  -0.576   3.911 -1.6859  0.3479 -1.0247
   83SLPC   H7S 7823   5.603  -0.506   3.823 -0.9073  0.1388  0.7153
   83SLPC   C28 7824   5.635  -0.711   3.888  0.9465 -0.2150 -0.1596
   83SLPC   H8R 7825   5.702  -0.658   3.960  2.2320  1.7518 -2.6567
   83SLPC   H8S 7826   5.711  -0.744   3.813  2.3880  1.7532  0.3484
   83SLPC   C29 7827   5.549  -0.825   3.944 -0.1255 -0.5529 -0.0580
   83SLPC   H9R 7828   5.560  -0.919   3.889  0.1135 -0.3798 -0.3056
   83SLPC  C210 7829   5.501  -0.825   4.078 -1.0283  0.0498  0.4916
   83SLPC  H10R 7830   5.447  -0.912   4.119  0.9323 -1.0347  0.8911
   83SLPC  C211 7831   5.506  -0.702   4.168 -0.0285 -1.0326  0.2162
   83SLPC  H11R 7832   5.410  -0.692   4.223 -0.3244  1.2142 -0.6105
   83SLPC  H11S 7833   5.519  -0.609   4.109 -0.0923 -1.0601  0.1587
   83SLPC  C212 7834   5.629  -0.700   4.268 -0.3844 -0.3550 -0.3338
   83SLPC  H12R 7835   5.720  -0.748   4.229  1.1892  2.3683 -0.2753
   83SLPC  C213 7836   5.631  -0.671   4.394 -0.2540  0.5984 -0.3232
   83SLPC  H13R 7837   5.722  -0.695   4.451  0.0613 -0.6167 -1.2983
   83SLPC  C214 7838   5.522  -0.613   4.476 -0.7077  0.1073 -0.5603
   83SLPC  H14R 7839   5.447  -0.557   4.415 -0.9147  0.1759 -0.2472
   83SLPC  H14S 7840   5.567  -0.557   4.560  1.5476 -2.1230 -0.1610
   83SLPC  C215 7841   5.448  -0.731   4.553  1.0508 -0.2084  0.2738
   83SLPC  H15R 7842   5.416  -0.806   4.476  1.3619  1.4651 -1.5732
   83SLPC  H15S 7843   5.357  -0.686   4.597  1.2407 -1.3801  1.9450
   83SLPC  C216 7844   5.520  -0.795   4.670 -0.5596  0.3797 -0.4249
   83SLPC  H16R 7845   5.629  -0.778   4.658 -0.5080 -0.0917 -0.6273
   83SLPC  H16S 7846   5.497  -0.904   4.677 -1.2048  0.5447  0.1134
   83SLPC  C217 7847   5.482  -0.732   4.808  0.1310  0.1860 -0.8928
   83SLPC  H17R 7848   5.538  -0.794   4.881 -1.2609 -0.3247 -0.2345
   83SLPC  H17S 7849   5.372  -0.734   4.822  0.2496 -0.0077  0.0612
   83SLPC  C218 7850   5.520  -0.584   4.829 -0.0210 -0.0678  0.5952
   83SLPC  H18R 7851   5.495  -0.563   4.935 -2.6509  0.2926 -0.0349
   83SLPC  H18S 7852   5.446  -0.522   4.775 -0.0741 -0.1570  0.5651
   83SLPC  H18T 7853   5.622  -0.550   4.799  0.3165 -0.5212  1.2066
   83SLPC   C33 7854   5.543   0.133   3.606  0.4290 -0.2180  0.3413
   83SLPC   H3X 7855   5.464   0.069   3.563 -1.3154  1.8064  0.3729
   83SLPC   H3Y 7856   5.495   0.171   3.699  0.7169  0.4901  0.2112
   83SLPC   C34 7857   5.662   0.032   3.639 -0.0245  0.1476  0.2275
   83SLPC   H4X 7858   5.742   0.090   3.689 -0.1147 -1.0445  1.8344
   83SLPC   H4Y 7859   5.700  -0.008   3.542  0.6031  1.8069 -0.2528
   83SLPC   C35 7860   5.629  -0.085   3.717 -0.0639 -0.2838 -0.2781
   83SLPC   H5X 7861   5.722  -0.145   3.706  0.9551  1.0428  0.8056
   83SLPC   H5Y 7862   5.533  -0.134   3.688  0.5170 -0.7112 -1.5386
   83SLPC   C36 7863   5.614  -0.062   3.868 -0.2940 -0.4394 -0.1189
   83SLPC   H6X 7864   5.522  -0.007   3.895 -0.2275  1.3975 -3.1943
   83SLPC   H6Y 7865   5.690   0.013   3.899 -0.4890 -0.1134 -0.4342
   83SLPC   C37 7866   5.653  -0.181   3.963  0.6165 -0.3775  0.3386
   83SLPC   H7X 7867   5.740  -0.232   3.918 -1.3972 -2.5920 -1.3416
   83SLPC   H7Y 7868   5.563  -0.246   3.977  0.2780 -0.1910 -0.8400
   83SLPC   C38 7869   5.692  -0.116   4.100 -0.0830  0.2690 -0.2718
   83SLPC   H8X 7870   5.639  -0.020   4.120 -0.5733 -0.3872  1.7563
   83SLPC   H8Y 7871   5.798  -0.082   4.098  0.0893 -0.2839 -1.0284
   83SLPC   C39 7872   5.695  -0.203   4.228  0.8601 -0.3244 -0.4308
   83SLPC   H9X 7873   5.779  -0.275   4.217  2.0218  0.9015  0.0161
   83SLPC   H9Y 7874   5.596  -0.252   4.239 -0.3755  2.2081  0.6941
   83SLPC  C310 7875   5.734  -0.133   4.356 -0.0745 -0.5100  0.3200
   83SLPC  H10X 7876   5.672  -0.041   4.371 -0.2303 -0.6930  0.8052
   83SLPC  H10Y 7877   5.841  -0.110   4.336 -0.5862 -0.7145 -3.3743
   83SLPC  C311 7878   5.721  -0.226   4.478  0.0745 -0.0318 -0.2434
   83SLPC  H11X 7879   5.767  -0.324   4.455 -1.4214 -0.3440 -2.1026
   83SLPC  H11Y 7880   5.613  -0.250   4.485  0.2704 -1.8933 -2.3824
   83SLPC  C312 7881   5.781  -0.163   4.606 -0.1060  0.4564  0.0959
   83SLPC  H12X 7882   5.741  -0.059   4.608  1.7902  1.2773 -1.5059
   83SLPC  H12Y 7883   5.892  -0.154   4.605 -0.1827  1.9528  0.9918
   83SLPC  C313 7884   5.741  -0.255   4.723 -0.8892  0.0468  0.1637
   83SLPC  H13X 7885   5.815  -0.337   4.720  0.7370  1.4709 -1.8901
   83SLPC  H13Y 7886   5.638  -0.288   4.702  0.4501 -2.0546 -4.1549
   83SLPC  C314 7887   5.744  -0.189   4.865  0.3014 -0.5098 -0.1786
   83SLPC  H14X 7888   5.669  -0.108   4.853 -0.0082 -0.8103 -0.2966
   83SLPC  H14Y 7889   5.841  -0.142   4.892 -0.0125 -0.8128  1.5708
   83SLPC  C315 7890   5.715  -0.285   4.978  1.0834  0.0423 -0.0312
   83SLPC  H15X 7891   5.780  -0.374   4.963  1.3439  0.5323 -2.1972
   83SLPC  H15Y 7892   5.612  -0.325   4.971  1.8155 -1.6581 -1.9097
   83SLPC  C316 7893   5.722  -0.227   5.120  0.5473  0.0035  0.5321
   83SLPC  H16X 7894   5.666  -0.131   5.113  0.8713  0.2536  1.1913
   83SLPC  H16Y 7895   5.821  -0.185   5.148  0.4215  0.7499 -0.0807
   83SLPC  C317 7896   5.657  -0.326   5.226 -0.0091 -0.5629  0.6362
   83SLPC  H17X 7897   5.730  -0.402   5.260 -0.6585 -1.4203  0.1635
   83SLPC  H17Y 7898   5.579  -0.380   5.169  0.0169  1.4703 -1.4623
   83SLPC  C318 7899   5.586  -0.250   5.336 -0.1569  0.7238 -0.3218
   83SLPC  H18X 7900   5.562  -0.314   5.424 -0.6086 -0.3837 -1.2134
   83SLPC  H18Y 7901   5.497  -0.189   5.309 -1.1945  0.3306  1.9614
   83SLPC  H18Z 7902   5.658  -0.173   5.370  2.5367 -2.3173  1.4481
   84SLPC     N 7903   2.980   4.174   3.102 -0.4142  0.0823 -0.1703
   84SLPC   C13 7904   2.873   4.195   3.203  0.5104  0.8430 -0.0741
   84SLPC  H13A 7905   2.875   4.291   3.253  0.2533  0.3837  0.8469
   84SLPC  H13B 7906   2.776   4.192   3.155  0.2449  0.0546  0.4821
   84SLPC  H13C 7907   2.876   4.112   3.272 -1.8158  0.9703  0.2750
   84SLPC   C14 7908   2.965   4.278   2.996  0.4078  0.2072 -0.2558
   84SLPC  H14A 7909   3.035   4.260   2.916  3.2203 -0.2401  2.1578
   84SLPC  H14B 7910   2.868   4.261   2.951 -0.2564 -2.0130  1.8016
   84SLPC  H14C 7911   2.965   4.379   3.033 -3.9144  0.0535  0.7816
   84SLPC   C15 7912   2.964   4.040   3.036 -0.0327 -0.1042 -0.7274
   84SLPC  H15A 7913   3.048   4.021   2.971  0.3629 -0.0677 -0.2328
   84SLPC  H15B 7914   2.969   3.962   3.110 -0.0586  1.6986  1.2427
   84SLPC  H15C 7915   2.873   4.037   2.978 -0.9351  1.3670  0.5482
   84SLPC   C12 7916   3.118   4.187   3.168 -0.5235 -0.0667 -0.0844
   84SLPC  H12A 7917   3.118   4.121   3.253  1.6974  0.6193  0.5119
   84SLPC  H12B 7918   3.124   4.291   3.199 -2.2339  0.1734 -0.4459
   84SLPC   C11 7919   3.245   4.140   3.089  0.5169  0.2066 -0.0535
   84SLPC  H11A 7920   3.228   4.031   3.076  1.1067  0.1142 -0.1047
   84SLPC  H11B 7921   3.337   4.159   3.150 -0.2854  3.6793  0.2851
   84SLPC     P 7922   3.340   4.340   2.972  0.5905  0.0082 -0.5404
   84SLPC   O13 7923   3.479   4.305   2.997  0.2190 -0.0305 -0.0591
   84SLPC   O14 7924   3.318   4.423   2.854  0.2013 -0.2314 -0.0352
   84SLPC   O12 7925   3.264   4.201   2.963 -0.0249  1.0989  0.6360
   84SLPC   O11 7926   3.276   4.414   3.097 -0.5235 -0.0318 -0.0380
   84SLPC    C1 7927   3.215   4.544   3.087 -0.2741 -0.0111 -1.2252
   84SLPC    HA 7928   3.240   4.591   2.990 -1.8954  0.2428 -1.5487
   84SLPC    HB 7929   3.104   4.537   3.092 -0.1479 -1.2334  1.0843
   84SLPC    C2 7930   3.252   4.640   3.202 -0.7659  0.2057 -0.5572
   84SLPC    HS 7931   3.360   4.667   3.196 -0.3716 -1.0317  0.4049
   84SLPC   O21 7932   3.235   4.575   3.330  0.4306 -0.5509 -0.2827
   84SLPC   C21 7933   3.331   4.502   3.376 -0.4517 -0.5283 -0.4112
   84SLPC   O22 7934   3.446   4.496   3.334  0.3210  0.2680  0.0968
   84SLPC   C22 7935   3.282   4.428   3.493  0.4604  0.3870 -0.1642
   84SLPC   H2R 7936   3.175   4.405   3.473  0.1779  2.0673 -0.7032
   84SLPC   H2S 7937   3.337   4.338   3.528 -2.7063 -1.4247  0.6233
   84SLPC    C3 7938   3.167   4.777   3.193  0.0373 -0.9185  0.8812
   84SLPC    HX 7939   3.061   4.741   3.189 -0.4592  0.5310 -2.1691
   84SLPC    HY 7940   3.195   4.828   3.098  2.0155  0.1561  1.9914
   84SLPC   O31 7941   3.198   4.858   3.300  0.2493  0.2369  0.3262
   84SLPC   C31 7942   3.102   4.935   3.370 -0.4216  0.7173  0.0941
   84SLPC   O32 7943   2.990   4.947   3.330 -0.2386  0.1461 -0.3906
   84SLPC   C32 7944   3.157   4.980   3.498 -0.3137 -0.3094  0.3129
   84SLPC   H2X 7945   3.199   5.081   3.484  3.5053 -1.3189  2.8516
   84SLPC   H2Y 7946   3.239   4.913   3.533  0.2793  1.9456  3.7752
   84SLPC   C23 7947   3.290   4.526   3.607  0.8889 -0.5836 -0.1079
   84SLPC   H3R 7948   3.214   4.606   3.598 -0.2803 -1.6169  0.3060
   84SLPC   H3S 7949   3.394   4.564   3.618  0.9676 -0.6506 -0.5954
   84SLPC   C24 7950   3.253   4.458   3.744  0.6914  0.5949  0.2181
   84SLPC   H4R 7951   3.334   4.389   3.775 -1.5587 -1.1839  2.5523
   84SLPC   H4S 7952   3.164   4.391   3.740 -0.3035  1.8204  0.8081
   84SLPC   C25 7953   3.239   4.561   3.859 -0.3487 -0.5597  0.6722
   84SLPC   H5R 7954   3.150   4.622   3.833 -1.3334 -1.8109  1.0563
   84SLPC   H5S 7955   3.332   4.622   3.855 -1.0257  0.5419  1.0492
   84SLPC   C26 7956   3.245   4.495   3.999 -0.0312  0.0588 -0.3250
   84SLPC   H6R 7957   3.303   4.401   3.991  2.3869  1.5299 -0.9163
   84SLPC   H6S 7958   3.139   4.469   4.022  0.0075 -0.0647 -0.2872
   84SLPC   C27 7959   3.299   4.585   4.116 -0.3693 -0.0161 -0.5731
   84SLPC   H7R 7960   3.231   4.673   4.105 -0.6750 -0.4872 -2.8945
   84SLPC   H7S 7961   3.402   4.620   4.098  0.7435 -1.6294  2.0342
   84SLPC   C28 7962   3.283   4.529   4.253 -0.2515 -0.0484 -0.2915
   84SLPC   H8R 7963   3.299   4.605   4.332  0.0069 -2.0991  1.7265
   84SLPC   H8S 7964   3.358   4.449   4.270  0.3216 -0.2062 -3.1160
   84SLPC   C29 7965   3.136   4.494   4.288  0.9702 -0.5780 -1.2883
   84SLPC   H9R 7966   3.060   4.492   4.208 -0.3346 -1.0547 -0.0861
   84SLPC  C210 7967   3.087   4.483   4.416 -0.0824 -0.3092  0.8265
   84SLPC  H10R 7968   2.982   4.462   4.439 -0.8282  3.1821  1.1442
   84SLPC  C211 7969   3.171   4.497   4.542 -0.0849  0.1273 -0.1845
   84SLPC  H11R 7970   3.268   4.445   4.527 -0.1239  0.4842 -1.8521
   84SLPC  H11S 7971   3.129   4.428   4.618  2.1125 -0.4443  0.5950
   84SLPC  C212 7972   3.210   4.634   4.584 -0.0457 -0.0512 -1.0191
   84SLPC  H12R 7973   3.288   4.670   4.516  0.3375 -1.4143 -1.3317
   84SLPC  C213 7974   3.200   4.700   4.706 -0.1682 -0.7710  0.2468
   84SLPC  H13R 7975   3.235   4.803   4.719  1.3239 -1.1849 -0.2525
   84SLPC  C214 7976   3.104   4.649   4.818  0.1895 -0.9047 -0.4928
   84SLPC  H14R 7977   3.048   4.560   4.782 -0.8602  0.0862 -1.3841
   84SLPC  H14S 7978   3.026   4.727   4.829  0.5905 -0.5596 -0.0783
   84SLPC  C215 7979   3.178   4.622   4.945 -0.3860  0.3962 -0.1123
   84SLPC  H15R 7980   3.252   4.543   4.920  0.5062  1.1186  0.2248
   84SLPC  H15S 7981   3.110   4.578   5.022  1.2057 -0.3550  0.9053
   84SLPC  C216 7982   3.241   4.750   5.004  0.3577  0.4635  0.1699
   84SLPC  H16R 7983   3.162   4.823   5.032  2.7160  2.7751  1.3482
   84SLPC  H16S 7984   3.314   4.793   4.932  1.5657  1.1078  1.6900
   84SLPC  C217 7985   3.323   4.724   5.130  0.5565 -0.0253 -0.0566
   84SLPC  H17R 7986   3.406   4.655   5.105 -0.5839 -0.3268 -3.5541
   84SLPC  H17S 7987   3.253   4.676   5.202  1.2769 -1.9056 -0.5636
   84SLPC  C218 7988   3.370   4.864   5.184 -0.0244 -0.1381  0.1465
   84SLPC  H18R 7989   3.427   4.860   5.279 -1.1000  4.0303  1.1604
   84SLPC  H18S 7990   3.281   4.928   5.200  0.4908  0.7686 -0.5305
   84SLPC  H18T 7991   3.442   4.910   5.113  0.8861  0.1684  1.2376
   84SLPC   C33 7992   3.057   4.972   3.610 -0.8688 -0.0553 -0.3153
   84SLPC   H3X 7993   2.992   4.883   3.599 -1.4311  0.2412  0.4949
   84SLPC   H3Y 7994   2.995   5.063   3.616  1.2097  1.4121 -0.0843
   84SLPC   C34 7995   3.122   4.953   3.751 -0.0979  0.5177  0.5735
   84SLPC   H4X 7996   3.205   5.022   3.779 -1.5113  1.8719  1.5934
   84SLPC   H4Y 7997   3.150   4.846   3.748 -4.5017 -0.8132 -1.0338
   84SLPC   C35 7998   3.010   4.976   3.849  0.1153 -0.3883 -0.4885
   84SLPC   H5X 7999   2.917   4.944   3.797 -0.0701 -0.3164 -0.2069
   84SLPC   H5Y 8000   3.010   5.084   3.876 -1.5968 -0.5232  0.1964
   84SLPC   C36 8001   3.017   4.887   3.970 -0.5454  0.4141 -0.4789
   84SLPC   H6X 8002   3.116   4.900   4.019 -2.4934  1.6585  3.5387
   84SLPC   H6Y 8003   3.025   4.780   3.941  1.6672 -0.5851  3.0653
   84SLPC   C37 8004   2.919   4.914   4.084 -0.5775 -0.1996  0.9167
   84SLPC   H7X 8005   2.830   4.857   4.052  1.1365 -1.4769 -1.9041
   84SLPC   H7Y 8006   2.902   5.020   4.113 -0.5044  0.0716 -0.0065
   84SLPC   C38 8007   2.972   4.848   4.219  0.1803  1.0437  0.4262
   84SLPC   H8X 8008   3.061   4.901   4.259 -0.0648  1.3923  0.5048
   84SLPC   H8Y 8009   2.999   4.741   4.202  1.2525  1.1272  1.4783
   84SLPC   C39 8010   2.874   4.859   4.331 -0.7018 -0.0820  0.2578
   84SLPC   H9X 8011   2.785   4.796   4.305 -0.7052  0.1151 -0.2200
   84SLPC   H9Y 8012   2.846   4.965   4.347 -1.4318 -0.0099 -1.3032
   84SLPC  C310 8013   2.927   4.807   4.466  0.1280  0.0561  0.0039
   84SLPC  H10X 8014   3.031   4.841   4.481  0.2122  0.3995 -1.3042
   84SLPC  H10Y 8015   2.928   4.696   4.472 -1.7089  0.0511  1.0662
   84SLPC  C311 8016   2.838   4.843   4.585  0.4201 -0.1980 -0.7176
   84SLPC  H11X 8017   2.878   4.785   4.671  0.6372  0.6332 -0.2516
   84SLPC  H11Y 8018   2.729   4.821   4.574 -0.1034  0.6246  2.0531
   84SLPC  C312 8019   2.850   4.983   4.635 -0.2396 -1.3027 -0.7134
   84SLPC  H12X 8020   2.780   5.046   4.576  1.2641 -0.2971 -1.5045
   84SLPC  H12Y 8021   2.954   5.016   4.614 -0.4576 -0.5603 -0.6531
   84SLPC  C313 8022   2.825   4.998   4.785  0.3616 -0.2106 -1.4605
   84SLPC  H13X 8023   2.896   4.932   4.839  0.4162  0.2824 -0.9220
   84SLPC  H13Y 8024   2.724   4.963   4.813  0.8898 -1.2754 -0.8131
   84SLPC  C314 8025   2.858   5.135   4.844  0.2177  0.3266  1.1053
   84SLPC  H14X 8026   2.801   5.207   4.782  1.0709  0.8604  0.9261
   84SLPC  H14Y 8027   2.967   5.155   4.841  0.1597  0.8892  2.1880
   84SLPC  C315 8028   2.820   5.146   4.994  0.1729  0.0242  0.5353
   84SLPC  H15X 8029   2.882   5.081   5.060 -0.2522 -0.5506  0.3743
   84SLPC  H15Y 8030   2.714   5.113   4.997 -0.1863  0.9582 -0.8863
   84SLPC  C316 8031   2.820   5.292   5.042 -0.2530  0.3270  0.6061
   84SLPC  H16X 8032   2.755   5.342   4.967  1.2830  0.5368 -0.6247
   84SLPC  H16Y 8033   2.927   5.322   5.043 -0.0088 -0.5173  1.7977
   84SLPC  C317 8034   2.767   5.319   5.182 -0.2029  0.0353  0.0557
   84SLPC  H17X 8035   2.770   5.428   5.201 -0.0869 -0.3296  2.5103
   84SLPC  H17Y 8036   2.833   5.272   5.259  0.8189  2.3478  0.6754
   84SLPC  C318 8037   2.628   5.275   5.203 -0.0719  0.2440  0.4030
   84SLPC  H18X 8038   2.606   5.176   5.157 -3.8234  1.5892 -1.0547
   84SLPC  H18Y 8039   2.569   5.354   5.152  2.1192  0.4909 -1.8994
   84SLPC  H18Z 8040   2.617   5.276   5.314  3.7432 -3.3969  1.0940
   85SLPC     N 8041   2.122   6.431   2.662  0.4860 -0.1901  0.8964
   85SLPC   C13 8042   2.002   6.510   2.638 -0.3081 -0.1880 -0.0407
   85SLPC  H13A 8043   2.029   6.612   2.616  1.8145 -0.3167  1.6216
   85SLPC  H13B 8044   1.924   6.477   2.570 -0.8288 -0.1715  0.5444
   85SLPC  H13C 8045   1.945   6.520   2.729  1.3619 -0.2371  1.0514
   85SLPC   C14 8046   2.200   6.429   2.529 -0.6786  0.3083 -0.9595
   85SLPC  H14A 8047   2.149   6.379   2.449  1.2056  0.5015 -2.3631
   85SLPC  H14B 8048   2.229   6.529   2.498  4.2267 -1.1796 -2.0926
   85SLPC  H14C 8049   2.285   6.364   2.542 -2.1069 -1.5416 -0.4924
   85SLPC   C15 8050   2.095   6.280   2.684  0.8958 -0.1749  0.1132
   85SLPC  H15A 8051   2.181   6.214   2.691 -0.9113 -2.5211  2.0721
   85SLPC  H15B 8052   2.044   6.273   2.779 -1.4497 -2.0739 -1.1655
   85SLPC  H15C 8053   2.035   6.232   2.607  0.0062 -0.0272  0.7093
   85SLPC   C12 8054   2.206   6.494   2.773  0.2383 -0.5749 -0.1124
   85SLPC  H12A 8055   2.229   6.597   2.752 -1.1059 -0.9626 -4.4667
   85SLPC  H12B 8056   2.301   6.444   2.783  0.5489  0.3604  2.4746
   85SLPC   C11 8057   2.156   6.498   2.919 -0.5256  0.6096  0.9118
   85SLPC  H11A 8058   2.250   6.513   2.976  1.0289 -0.5426 -1.1879
   85SLPC  H11B 8059   2.108   6.402   2.952  0.3876 -0.3943 -0.5775
   85SLPC     P 8060   2.115   6.742   2.992 -0.0201 -0.0397  0.1581
   85SLPC   O13 8061   2.245   6.780   2.929  0.6892  0.4072 -0.2958
   85SLPC   O14 8062   2.003   6.835   2.978  0.0992  0.1258  0.1387
   85SLPC   O12 8063   2.056   6.608   2.926  0.2288  0.3382  0.8304
   85SLPC   O11 8064   2.145   6.697   3.143  0.2431  0.1444 -0.3546
   85SLPC    C1 8065   2.059   6.604   3.208 -0.3282 -0.4873 -0.0202
   85SLPC    HA 8066   1.962   6.655   3.230 -0.9666 -0.4132 -2.6410
   85SLPC    HB 8067   2.045   6.507   3.156  0.7202 -0.2540 -0.7597
   85SLPC    C2 8068   2.133   6.550   3.331 -0.6471 -0.4297  0.3477
   85SLPC    HS 8069   2.083   6.451   3.344  0.6066 -0.9824  1.1772
   85SLPC   O21 8070   2.115   6.636   3.444 -0.7322  0.3227 -0.4891
   85SLPC   C21 8071   2.074   6.574   3.551 -0.1737  0.6162 -0.0660
   85SLPC   O22 8072   2.070   6.451   3.564 -0.3533 -0.4916 -0.0947
   85SLPC   C22 8073   2.045   6.680   3.653  0.1767  0.5165  0.5358
   85SLPC   H2R 8074   2.120   6.762   3.661  0.9498 -0.0452 -0.6899
   85SLPC   H2S 8075   1.954   6.733   3.620  1.2722  1.7100 -0.7058
   85SLPC    C3 8076   2.287   6.532   3.314  0.2030  0.1193  0.6378
   85SLPC    HX 8077   2.338   6.630   3.302  0.7605 -0.2743 -0.3077
   85SLPC    HY 8078   2.306   6.480   3.218  0.2818  2.7267 -0.8750
   85SLPC   O31 8079   2.346   6.447   3.412  0.2718 -0.7435 -0.4308
   85SLPC   C31 8080   2.388   6.517   3.517  0.0947  0.2928 -1.0934
   85SLPC   O32 8081   2.379   6.639   3.534  0.4053  1.0983 -0.3202
   85SLPC   C32 8082   2.462   6.424   3.610  0.2293  0.2901  0.0711
   85SLPC   H2X 8083   2.528   6.360   3.548  0.9768  0.8795  0.2403
   85SLPC   H2Y 8084   2.379   6.361   3.649 -1.5424  1.5809 -1.4266
   85SLPC   C23 8085   2.026   6.632   3.794  0.0066 -0.3931  0.2098
   85SLPC   H3R 8086   1.949   6.552   3.803 -0.1366 -0.2562  0.2036
   85SLPC   H3S 8087   1.987   6.713   3.859  0.1015 -1.3863  1.5671
   85SLPC   C24 8088   2.154   6.592   3.873  0.1215  0.3433  0.7426
   85SLPC   H4R 8089   2.210   6.688   3.881  0.2154  0.2579  1.1286
   85SLPC   H4S 8090   2.212   6.515   3.817  0.1503 -0.4672  1.8649
   85SLPC   C25 8091   2.115   6.533   4.009  0.2074 -0.0223  0.8772
   85SLPC   H5R 8092   2.054   6.603   4.071  1.4593 -0.2948  2.4844
   85SLPC   H5S 8093   2.054   6.445   3.981  2.9729 -1.7277 -0.2331
   85SLPC   C26 8094   2.227   6.479   4.099 -0.3059 -0.0333  0.1199
   85SLPC   H6R 8095   2.299   6.552   4.143  2.1039 -0.5950 -2.6139
   85SLPC   H6S 8096   2.286   6.406   4.040 -0.2981 -0.3695  0.5458
   85SLPC   C27 8097   2.151   6.405   4.214 -0.0493 -0.6177 -0.7347
   85SLPC   H7R 8098   2.229   6.349   4.270 -0.2490 -0.5241 -0.3601
   85SLPC   H7S 8099   2.083   6.327   4.175 -0.6689 -1.2339  1.4812
   85SLPC   C28 8100   2.077   6.494   4.306 -0.4063 -0.3462  0.2967
   85SLPC   H8R 8101   1.988   6.540   4.258 -2.1187  0.0605  3.5853
   85SLPC   H8S 8102   2.144   6.576   4.341 -0.5613 -0.8944  1.9678
   85SLPC   C29 8103   2.014   6.452   4.430 -0.7586  0.2855 -0.6840
   85SLPC   H9R 8104   1.910   6.420   4.413 -1.4192 -0.1257  3.0941
   85SLPC  C210 8105   2.058   6.456   4.560 -0.4061  0.3989 -0.0568
   85SLPC  H10R 8106   1.998   6.408   4.639  1.5998 -1.5439  0.3858
   85SLPC  C211 8107   2.192   6.505   4.599 -0.2005 -0.1388 -0.4041
   85SLPC  H11R 8108   2.210   6.475   4.705 -0.0011 -0.5246 -0.5444
   85SLPC  H11S 8109   2.199   6.615   4.617 -0.8272 -0.5493  3.1988
   85SLPC  C212 8110   2.311   6.440   4.536 -0.6152 -0.3355  0.2134
   85SLPC  H12R 8111   2.317   6.456   4.427  1.5836  1.0249  0.4821
   85SLPC  C213 8112   2.411   6.369   4.591  0.0577  0.6604  0.4060
   85SLPC  H13R 8113   2.496   6.331   4.532  1.3106  0.0396  2.4777
   85SLPC  C214 8114   2.424   6.347   4.737 -0.3142  0.4293 -0.1227
   85SLPC  H14R 8115   2.369   6.430   4.787 -2.2393 -0.4596 -0.6886
   85SLPC  H14S 8116   2.529   6.359   4.771 -1.0862  0.8090  2.3801
   85SLPC  C215 8117   2.359   6.225   4.799 -0.1061  0.2792 -0.7739
   85SLPC  H15R 8118   2.391   6.127   4.758  0.8147  0.1919  0.1323
   85SLPC  H15S 8119   2.254   6.243   4.766 -1.4432  0.4162  3.1361
   85SLPC  C216 8120   2.367   6.222   4.953  0.2671 -0.0565 -0.0633
   85SLPC  H16R 8121   2.277   6.178   5.001  0.2210 -0.4424 -0.4950
   85SLPC  H16S 8122   2.371   6.326   4.992 -1.8820 -0.4977  1.5385
   85SLPC  C217 8123   2.496   6.157   4.993 -0.3438  0.2920 -0.0101
   85SLPC  H17R 8124   2.571   6.174   4.914 -1.5002 -0.9651 -1.4433
   85SLPC  H17S 8125   2.468   6.049   4.991 -1.4265  0.5546 -2.3421
   85SLPC  C218 8126   2.551   6.200   5.131 -0.1119  0.1107  0.7531
   85SLPC  H18R 8127   2.657   6.169   5.143  0.9148  2.8600 -0.3922
   85SLPC  H18S 8128   2.497   6.132   5.201 -0.9753 -0.5856 -0.5467
   85SLPC  H18T 8129   2.537   6.308   5.154  0.2565  0.1281  0.8886
   85SLPC   C33 8130   2.550   6.481   3.717  0.2304  0.0381 -0.3382
   85SLPC   H3X 8131   2.496   6.568   3.760 -1.2612 -0.9739 -0.0874
   85SLPC   H3Y 8132   2.640   6.509   3.658 -2.0291 -0.0382 -4.2352
   85SLPC   C34 8133   2.587   6.391   3.833  0.0056  0.7129 -0.1790
   85SLPC   H4X 8134   2.643   6.300   3.803 -1.4179  0.6287 -2.8049
   85SLPC   H4Y 8135   2.495   6.358   3.886  0.3643  0.7654  0.4958
   85SLPC   C35 8136   2.664   6.452   3.948 -0.0785 -0.1010  0.0480
   85SLPC   H5X 8137   2.611   6.548   3.966 -0.9734  0.1071 -3.0859
   85SLPC   H5Y 8138   2.771   6.471   3.925  0.4443 -1.8116  0.8749
   85SLPC   C36 8139   2.683   6.366   4.078  0.4071  0.3642 -0.2266
   85SLPC   H6X 8140   2.727   6.267   4.054 -2.3802 -1.6698  2.3536
   85SLPC   H6Y 8141   2.581   6.346   4.116  0.4202 -0.2392 -0.4909
   85SLPC   C37 8142   2.765   6.427   4.185  1.0918 -0.5381 -0.3724
   85SLPC   H7X 8143   2.767   6.538   4.184 -1.6881 -0.3806  0.8878
   85SLPC   H7Y 8144   2.864   6.383   4.160  0.0758 -1.7434 -2.5151
   85SLPC   C38 8145   2.728   6.380   4.326 -0.1045 -0.6609 -0.6394
   85SLPC   H8X 8146   2.693   6.274   4.331  1.0850 -1.0469  0.0460
   85SLPC   H8Y 8147   2.640   6.437   4.363  0.1990 -0.4916 -0.1612
   85SLPC   C39 8148   2.829   6.408   4.431  0.1863  0.7422 -1.0087
   85SLPC   H9X 8149   2.855   6.516   4.429 -0.2326  0.8399 -1.6482
   85SLPC   H9Y 8150   2.915   6.345   4.400 -1.6435 -3.8450  2.0907
   85SLPC  C310 8151   2.786   6.372   4.573  0.2151  0.2576  0.0952
   85SLPC  H10X 8152   2.763   6.264   4.589 -0.1264  0.8204  5.0961
   85SLPC  H10Y 8153   2.702   6.441   4.599  0.9214  0.3296  2.3620
   85SLPC  C311 8154   2.898   6.405   4.674  0.0562 -0.6137  0.0446
   85SLPC  H11X 8155   2.916   6.514   4.670 -2.1124 -0.1623  1.2251
   85SLPC  H11Y 8156   2.987   6.344   4.645 -0.4713 -1.2515 -0.2570
   85SLPC  C312 8157   2.860   6.389   4.822 -0.0586  0.3728 -0.3641
   85SLPC  H12X 8158   2.831   6.284   4.845 -2.7176  0.5891 -2.2152
   85SLPC  H12Y 8159   2.774   6.458   4.838 -0.3250  0.1061 -0.6339
   85SLPC  C313 8160   2.963   6.440   4.919  0.3846 -0.1172  0.3635
   85SLPC  H13X 8161   2.966   6.551   4.916  0.5033 -0.1402 -0.8350
   85SLPC  H13Y 8162   3.061   6.393   4.896  0.9582  1.1937  0.0724
   85SLPC  C314 8163   2.933   6.408   5.070  0.6519 -0.5976  0.7082
   85SLPC  H14X 8164   2.921   6.297   5.079 -0.9272 -0.8943 -3.0652
   85SLPC  H14Y 8165   2.834   6.453   5.093 -1.2342 -2.0136 -3.4328
   85SLPC  C315 8166   3.040   6.451   5.166 -0.1632  0.2674  0.3767
   85SLPC  H15X 8167   3.059   6.560   5.159  3.7745 -0.1565  1.5674
   85SLPC  H15Y 8168   3.128   6.391   5.133 -1.0640 -0.3202 -1.0710
   85SLPC  C316 8169   3.004   6.419   5.311 -0.2526  0.2627 -0.1093
   85SLPC  H16X 8170   2.904   6.463   5.328 -0.6853 -0.2521 -1.1970
   85SLPC  H16Y 8171   3.072   6.464   5.387 -2.2089  0.4060  1.6434
   85SLPC  C317 8172   3.004   6.270   5.332 -0.2069  0.9987 -0.4763
   85SLPC  H17X 8173   3.098   6.227   5.293 -0.6352 -0.3909 -0.0241
   85SLPC  H17Y 8174   2.915   6.220   5.290 -0.7135  0.6165  0.9688
   85SLPC  C318 8175   3.015   6.229   5.485 -0.6376  0.1965  0.6832
   85SLPC  H18X 8176   3.011   6.119   5.498  0.4545  0.2544  1.6840
   85SLPC  H18Y 8177   2.930   6.274   5.542 -0.2012  0.7828  0.8780
   85SLPC  H18Z 8178   3.112   6.273   5.517 -0.1808 -0.7548  0.6218
   86SLPC     N 8179   2.421   3.868   2.413 -0.3928 -0.3949  0.4677
   86SLPC   C13 8180   2.468   3.944   2.296  0.0056  0.1249  0.5650
   86SLPC  H13A 8181   2.562   3.910   2.253 -0.1760 -0.3123  0.5075
   86SLPC  H13B 8182   2.399   3.935   2.214 -0.1145 -0.9644  0.7708
   86SLPC  H13C 8183   2.478   4.046   2.330 -1.0537 -0.2333  2.0020
   86SLPC   C14 8184   2.518   3.865   2.521 -0.5593 -0.6381  0.2859
   86SLPC  H14A 8185   2.539   3.961   2.566  2.3163 -1.7259  1.4241
   86SLPC  H14B 8186   2.463   3.818   2.601  2.1614  0.7326  3.1634
   86SLPC  H14C 8187   2.614   3.826   2.492 -0.7078  0.5852 -2.1073
   86SLPC   C15 8188   2.404   3.729   2.375  0.4825 -0.2661 -0.1328
   86SLPC  H15A 8189   2.393   3.661   2.458  1.0019 -0.6248 -0.3502
   86SLPC  H15B 8190   2.321   3.708   2.310  0.3951  1.8967 -0.8120
   86SLPC  H15C 8191   2.497   3.699   2.329  0.2181  2.6301 -2.9118
   86SLPC   C12 8192   2.285   3.919   2.464  0.5531  0.0032  0.1452
   86SLPC  H12A 8193   2.211   3.944   2.389 -1.3594  0.5569  2.1282
   86SLPC  H12B 8194   2.303   4.006   2.525 -2.3288  0.5383  0.3862
   86SLPC   C11 8195   2.216   3.830   2.572  0.8180  0.0779 -0.9680
   86SLPC  H11A 8196   2.184   3.732   2.532 -0.6412  0.5323 -0.9932
   86SLPC  H11B 8197   2.121   3.881   2.601  1.2548  0.6731 -0.5703
   86SLPC     P 8198   2.270   3.923   2.816 -0.3760 -0.2000 -0.1597
   86SLPC   O13 8199   2.385   3.908   2.907 -0.2990  0.2086 -0.3048
   86SLPC   O14 8200   2.241   4.055   2.767 -0.0280 -0.1812  0.1458
   86SLPC   O12 8201   2.290   3.820   2.695  0.1257  0.3766  0.3277
   86SLPC   O11 8202   2.139   3.867   2.877 -0.1019  0.3744 -0.5840
   86SLPC    C1 8203   2.098   3.727   2.875 -0.0652 -0.4746 -0.3516
   86SLPC    HA 8204   1.994   3.720   2.838 -0.1580 -1.5000  0.0726
   86SLPC    HB 8205   2.172   3.670   2.815 -1.3660 -1.9139 -0.6222
   86SLPC    C2 8206   2.099   3.659   3.017  0.1608 -0.3690 -0.3663
   86SLPC    HS 8207   1.997   3.636   3.055 -0.7390 -1.4193 -3.1457
   86SLPC   O21 8208   2.181   3.739   3.100  0.5191  0.1216 -0.4057
   86SLPC   C21 8209   2.117   3.806   3.187  0.3345 -0.1791  0.1123
   86SLPC   O22 8210   2.009   3.775   3.237 -0.0556 -0.0901  0.0498
   86SLPC   C22 8211   2.196   3.935   3.223  0.2935 -0.0523 -0.9036
   86SLPC   H2R 8212   2.299   3.910   3.258 -0.0659 -0.5262 -0.1575
   86SLPC   H2S 8213   2.213   3.991   3.129 -0.8623 -1.1439 -1.7784
   86SLPC    C3 8214   2.165   3.523   3.009 -0.1675 -0.4584  0.0629
   86SLPC    HX 8215   2.271   3.542   2.983  0.0458 -2.4779 -0.7257
   86SLPC    HY 8216   2.109   3.464   2.933 -0.9027  0.7263 -0.3410
   86SLPC   O31 8217   2.139   3.461   3.137 -0.4509  0.3369  0.2934
   86SLPC   C31 8218   2.237   3.440   3.224 -0.2351 -0.5028  0.3548
   86SLPC   O32 8219   2.356   3.467   3.198 -0.3277  0.1268 -0.5311
   86SLPC   C32 8220   2.179   3.350   3.334 -0.2092 -0.1589  0.5214
   86SLPC   H2X 8221   2.141   3.262   3.277 -1.0367  1.2720 -1.2409
   86SLPC   H2Y 8222   2.096   3.404   3.384 -0.4180 -0.3384  0.3726
   86SLPC   C23 8223   2.142   4.021   3.343  0.2242  0.2688 -0.3840
   86SLPC   H3R 8224   2.116   3.940   3.415 -0.0176 -0.4811 -1.2944
   86SLPC   H3S 8225   2.046   4.074   3.326 -0.5330 -1.6127 -2.4104
   86SLPC   C24 8226   2.253   4.107   3.414  0.4369  0.2752 -0.1626
   86SLPC   H4R 8227   2.283   4.191   3.347 -1.0867  0.2954 -0.8713
   86SLPC   H4S 8228   2.338   4.041   3.440  1.6637  1.9856  0.3365
   86SLPC   C25 8229   2.198   4.170   3.549 -0.0751 -0.2929  0.2610
   86SLPC   H5R 8230   2.122   4.100   3.591  0.1837 -1.0513 -0.5153
   86SLPC   H5S 8231   2.146   4.264   3.520 -1.8580 -1.7633 -1.6696
   86SLPC   C26 8232   2.304   4.195   3.662  0.3295  0.0924 -0.1260
   86SLPC   H6R 8233   2.240   4.247   3.737  0.6900  0.4938 -0.0937
   86SLPC   H6S 8234   2.376   4.268   3.618 -0.9339  0.9508 -0.8429
   86SLPC   C27 8235   2.353   4.065   3.728 -0.7455 -0.3304 -0.6490
   86SLPC   H7R 8236   2.416   4.004   3.660 -0.7221  0.7175 -1.6090
   86SLPC   H7S 8237   2.273   3.993   3.756  1.8944 -2.9322  0.7445
   86SLPC   C28 8238   2.449   4.076   3.855  0.6200 -0.2077 -0.8921
   86SLPC   H8R 8239   2.541   4.131   3.825  1.4271 -1.0404  0.0198
   86SLPC   H8S 8240   2.482   3.974   3.884 -0.1365 -0.0543  0.6264
   86SLPC   C29 8241   2.379   4.147   3.970  0.3557 -0.2790  0.7292
   86SLPC   H9R 8242   2.380   4.257   3.965  0.4972 -0.2865  0.5735
   86SLPC  C210 8243   2.306   4.085   4.067  0.4940  0.2290 -0.2160
   86SLPC  H10R 8244   2.279   4.141   4.157 -1.2017 -2.1224  0.8563
   86SLPC  C211 8245   2.283   3.936   4.073  0.6939 -0.0667  0.2072
   86SLPC  H11R 8246   2.282   3.882   3.977  0.0015 -2.3357  1.4217
   86SLPC  H11S 8247   2.178   3.920   4.108  0.5054  0.6924  0.0276
   86SLPC  C212 8248   2.370   3.863   4.175 -0.2853  0.2444 -0.5786
   86SLPC  H12R 8249   2.470   3.840   4.135 -0.8553  0.3208 -2.1166
   86SLPC  C213 8250   2.348   3.864   4.312 -0.2108  0.1378 -0.1626
   86SLPC  H13R 8251   2.403   3.788   4.371  1.9343  0.9150 -1.0351
   86SLPC  C214 8252   2.224   3.921   4.387 -0.9338 -0.0436 -0.0323
   86SLPC  H14R 8253   2.179   3.845   4.453  1.4289 -0.7744  0.8469
   86SLPC  H14S 8254   2.156   3.957   4.307  1.5237  2.3883 -1.2313
   86SLPC  C215 8255   2.261   4.046   4.473  0.0237  0.4174 -0.7072
   86SLPC  H15R 8256   2.318   4.107   4.399  1.5457  1.5982  1.3329
   86SLPC  H15S 8257   2.338   4.024   4.550 -1.7703  2.5687  1.8503
   86SLPC  C216 8258   2.138   4.119   4.519 -0.2327  0.1632 -0.6997
   86SLPC  H16R 8259   2.070   4.050   4.573  0.8839  0.6422  1.4392
   86SLPC  H16S 8260   2.093   4.171   4.432  1.6219  1.3358 -1.0160
   86SLPC  C217 8261   2.169   4.238   4.621  0.2543 -0.5765  0.6353
   86SLPC  H17R 8262   2.234   4.309   4.566  0.1577  0.2355  1.5515
   86SLPC  H17S 8263   2.228   4.189   4.701  0.5721 -3.2585 -1.0903
   86SLPC  C218 8264   2.042   4.288   4.674  0.5102  0.1313  0.5231
   86SLPC  H18R 8265   2.045   4.389   4.721 -2.9921 -0.2644  1.9043
   86SLPC  H18S 8266   1.992   4.215   4.741  0.8678 -0.6627 -0.0640
   86SLPC  H18T 8267   1.976   4.309   4.587  1.3883 -0.7842 -0.3916
   86SLPC   C33 8268   2.262   3.300   3.453  0.0546 -0.6740  0.4365
   86SLPC   H3X 8269   2.307   3.390   3.501 -0.8279  0.1375 -0.2171
   86SLPC   H3Y 8270   2.354   3.248   3.419  2.2541  2.5790  0.8399
   86SLPC   C34 8271   2.198   3.210   3.548  0.5610  0.2189  0.7023
   86SLPC   H4X 8272   2.155   3.122   3.495  0.4260  0.0486  1.0954
   86SLPC   H4Y 8273   2.109   3.256   3.596 -0.7931 -0.1475 -1.3296
   86SLPC   C35 8274   2.299   3.160   3.648  0.7852 -0.0555  0.7563
   86SLPC   H5X 8275   2.344   3.248   3.698  0.4341  0.9840 -0.7079
   86SLPC   H5Y 8276   2.379   3.115   3.586 -0.4382  1.1351 -1.8144
   86SLPC   C36 8277   2.232   3.051   3.740 -0.0349  0.1738  0.0595
   86SLPC   H6X 8278   2.310   3.012   3.810  0.8516  2.0070  0.1462
   86SLPC   H6Y 8279   2.212   2.965   3.672 -1.0576  0.3211  0.1679
   86SLPC   C37 8280   2.099   3.085   3.802 -0.0760  0.4993 -0.2567
   86SLPC   H7X 8281   2.072   3.004   3.873 -1.5628  0.2552 -1.0646
   86SLPC   H7Y 8282   2.027   3.095   3.718 -0.1816  1.7595 -0.0354
   86SLPC   C38 8283   2.091   3.218   3.878 -0.5244  0.1705 -0.7444
   86SLPC   H8X 8284   1.995   3.273   3.872  0.1520  1.6601  1.0923
   86SLPC   H8Y 8285   2.158   3.285   3.819 -0.1228  0.2598 -0.1937
   86SLPC   C39 8286   2.166   3.217   4.016 -0.2632 -0.2888  0.0682
   86SLPC   H9X 8287   2.273   3.201   3.991 -0.3551 -0.1205 -0.4587
   86SLPC   H9Y 8288   2.126   3.133   4.077  0.1365 -0.2526  0.3838
   86SLPC  C310 8289   2.154   3.342   4.099 -0.1809 -0.3009 -0.2480
   86SLPC  H10X 8290   2.046   3.367   4.099 -0.5365 -1.6830 -1.5951
   86SLPC  H10Y 8291   2.189   3.438   4.055  0.4967  0.1014  1.1019
   86SLPC  C311 8292   2.199   3.329   4.241 -0.3073 -0.2531 -0.1416
   86SLPC  H11X 8293   2.310   3.331   4.235 -0.3356  2.2286 -0.6274
   86SLPC  H11Y 8294   2.170   3.229   4.280 -1.1891 -0.1232 -0.4289
   86SLPC  C312 8295   2.128   3.437   4.329  0.4339 -0.2074 -0.5999
   86SLPC  H12X 8296   2.019   3.422   4.344  0.4731 -1.5456 -1.5140
   86SLPC  H12Y 8297   2.128   3.537   4.279 -2.5392 -0.1443 -0.6634
   86SLPC  C313 8298   2.185   3.432   4.475 -0.2799 -0.5575 -0.5613
   86SLPC  H13X 8299   2.295   3.441   4.463 -0.5501  0.1128 -3.1340
   86SLPC  H13Y 8300   2.168   3.341   4.537  0.8140 -2.2978 -2.6457
   86SLPC  C314 8301   2.141   3.560   4.549 -0.2034  0.1080 -0.2436
   86SLPC  H14X 8302   2.031   3.578   4.542 -0.1955  0.0701 -0.4825
   86SLPC  H14Y 8303   2.191   3.647   4.501  1.2423 -0.6330 -0.1227
   86SLPC  C315 8304   2.184   3.554   4.699  0.1053  0.0038  0.1376
   86SLPC  H15X 8305   2.295   3.553   4.703  0.1032 -0.9925  0.1451
   86SLPC  H15Y 8306   2.145   3.464   4.750 -1.9244  1.3467  1.1022
   86SLPC  C316 8307   2.134   3.673   4.775 -0.1448 -0.3645 -0.4589
   86SLPC  H16X 8308   2.023   3.678   4.773 -0.1444  0.8115  1.1169
   86SLPC  H16Y 8309   2.175   3.774   4.751  1.2757 -0.6223  0.7286
   86SLPC  C317 8310   2.174   3.663   4.919 -0.2808  0.0139  0.0332
   86SLPC  H17X 8311   2.285   3.663   4.927 -0.2960  1.6582  0.6162
   86SLPC  H17Y 8312   2.134   3.566   4.955  0.8310  0.1215  1.6573
   86SLPC  C318 8313   2.112   3.765   5.010  0.3627  0.3429  0.5009
   86SLPC  H18X 8314   2.001   3.760   5.018  0.4816 -1.4240  1.6527
   86SLPC  H18Y 8315   2.138   3.867   4.977  0.1695  0.0193 -0.6912
   86SLPC  H18Z 8316   2.143   3.727   5.110 -3.6867 -5.9609 -0.0444
   87SLPC     N 8317   6.141   2.130   3.285  0.1422 -0.1713  0.7977
   87SLPC   C13 8318   6.120   2.125   3.433 -0.1379 -0.2451  0.3885
   87SLPC  H13A 8319   6.015   2.127   3.457 -0.6677  2.3863 -1.6344
   87SLPC  H13B 8320   6.170   2.040   3.477  0.3161  0.0414  0.4416
   87SLPC  H13C 8321   6.153   2.214   3.484  1.2518 -0.8943  0.6790
   87SLPC   C14 8322   6.111   1.990   3.236  0.3190  0.3718  0.1239
   87SLPC  H14A 8323   6.180   1.919   3.279 -0.9810 -0.0161  1.6958
   87SLPC  H14B 8324   6.009   1.960   3.256  0.7669 -1.9087 -0.7142
   87SLPC  H14C 8325   6.126   1.992   3.129  0.4672 -0.4221  0.1234
   87SLPC   C15 8326   6.289   2.156   3.265  0.6640  0.4315  0.0544
   87SLPC  H15A 8327   6.339   2.071   3.309  0.0913  0.2907  0.4412
   87SLPC  H15B 8328   6.312   2.156   3.160 -1.5402  0.5481 -0.4775
   87SLPC  H15C 8329   6.327   2.247   3.309  2.2966  0.6274 -1.6599
   87SLPC   C12 8330   6.067   2.246   3.220  0.3093 -1.0903 -0.2759
   87SLPC  H12A 8331   6.082   2.257   3.113 -0.7069  0.5155 -0.2877
   87SLPC  H12B 8332   6.106   2.333   3.269 -2.2163 -1.1855  2.1459
   87SLPC   C11 8333   5.911   2.259   3.232  0.2306  0.2994 -0.5842
   87SLPC  H11A 8334   5.877   2.170   3.176 -3.3021  0.4602  1.0589
   87SLPC  H11B 8335   5.865   2.335   3.165 -2.3407 -2.3789 -2.0818
   87SLPC     P 8336   5.849   2.376   3.453  0.1782 -0.2616 -0.2051
   87SLPC   O13 8337   5.840   2.338   3.593  0.1582  0.1760  0.1164
   87SLPC   O14 8338   5.955   2.469   3.421 -0.6189 -0.2611  1.3864
   87SLPC   O12 8339   5.864   2.250   3.366 -0.1311  0.0727 -0.0474
   87SLPC   O11 8340   5.716   2.427   3.407 -1.1987 -0.3016 -0.2740
   87SLPC    C1 8341   5.693   2.564   3.376 -0.7865  0.1358  0.3639
   87SLPC    HA 8342   5.787   2.620   3.353  1.0452 -3.1718 -0.8417
   87SLPC    HB 8343   5.628   2.568   3.286  2.3103 -0.1838 -2.0495
   87SLPC    C2 8344   5.625   2.643   3.490  0.1649 -0.5348 -0.4041
   87SLPC    HS 8345   5.596   2.744   3.456  0.9964 -0.1557 -0.0216
   87SLPC   O21 8346   5.709   2.644   3.618  0.3861  0.1844  0.1125
   87SLPC   C21 8347   5.811   2.723   3.626 -0.0990 -0.1539 -0.1861
   87SLPC   O22 8348   5.829   2.822   3.566 -0.3918 -0.1428  0.2883
   87SLPC   C22 8349   5.910   2.680   3.734  0.3824 -0.4069 -0.1842
   87SLPC   H2R 8350   5.918   2.570   3.721  1.4739 -0.3763  0.1417
   87SLPC   H2S 8351   6.015   2.711   3.712  0.7114 -1.3466  0.0227
   87SLPC    C3 8352   5.497   2.560   3.521 -0.0906 -0.2617 -0.7191
   87SLPC    HX 8353   5.514   2.457   3.559  0.3897  1.1117  3.3333
   87SLPC    HY 8354   5.446   2.538   3.425 -1.3517  0.1805 -0.1728
   87SLPC   O31 8355   5.410   2.632   3.607  0.9431  0.0695  0.1132
   87SLPC   C31 8356   5.339   2.740   3.552  0.2184 -0.1769  0.4169
   87SLPC   O32 8357   5.350   2.773   3.436 -0.1680  0.1203 -0.2072
   87SLPC   C32 8358   5.267   2.815   3.659 -0.9935  0.3000  0.0630
   87SLPC   H2X 8359   5.157   2.802   3.673 -0.9696  0.8244  0.7947
   87SLPC   H2Y 8360   5.283   2.921   3.628  1.5569 -0.6064 -1.9848
   87SLPC   C23 8361   5.871   2.721   3.875  0.6917  0.4489 -0.4305
   87SLPC   H3R 8362   5.922   2.652   3.946 -0.5102 -1.9742 -1.7949
   87SLPC   H3S 8363   5.765   2.724   3.910  0.4573  1.0688 -1.1714
   87SLPC   C24 8364   5.919   2.870   3.900  0.4077  0.4625  0.0178
   87SLPC   H4R 8365   5.895   2.930   3.810  0.3206  0.8495  0.3016
   87SLPC   H4S 8366   6.030   2.872   3.895  0.5213 -1.5835  0.5819
   87SLPC   C25 8367   5.870   2.930   4.029 -0.1803  0.0106 -0.9193
   87SLPC   H5R 8368   5.761   2.916   4.046 -0.6861  4.2571  0.5066
   87SLPC   H5S 8369   5.890   3.039   4.035 -2.1727  0.3591  3.2397
   87SLPC   C26 8370   5.943   2.868   4.153  0.6226  0.0199  0.3247
   87SLPC   H6R 8371   6.047   2.898   4.130  1.0071 -0.8468  0.9010
   87SLPC   H6S 8372   5.919   2.760   4.155 -3.6020  0.7132 -1.5516
   87SLPC   C27 8373   5.896   2.939   4.284 -0.1282 -0.7311 -0.5039
   87SLPC   H7R 8374   5.805   2.896   4.331 -1.1169  2.1762  0.4406
   87SLPC   H7S 8375   5.873   3.039   4.240  1.8870  0.0579  0.0922
   87SLPC   C28 8376   6.007   2.944   4.389 -0.2988 -0.2994 -0.0725
   87SLPC   H8R 8377   6.049   2.843   4.408 -1.1923 -0.8166 -0.7550
   87SLPC   H8S 8378   5.970   2.966   4.492  0.4995  0.6097  0.0330
   87SLPC   C29 8379   6.126   3.027   4.353 -0.9179 -0.2413  0.5497
   87SLPC   H9R 8380   6.189   2.985   4.273 -0.3345 -0.1233  0.9372
   87SLPC  C210 8381   6.172   3.143   4.412  0.6419 -0.3020  0.0179
   87SLPC  H10R 8382   6.259   3.194   4.369  1.2993 -1.7200 -0.4029
   87SLPC  C211 8383   6.093   3.218   4.518 -0.5214  0.5453 -0.5676
   87SLPC  H11R 8384   6.020   3.148   4.565 -1.1205  0.7888 -1.1223
   87SLPC  H11S 8385   6.028   3.295   4.472 -0.2921  0.7956 -0.4756
   87SLPC  C212 8386   6.183   3.287   4.621 -0.4913  0.0564  0.1261
   87SLPC  H12R 8387   6.281   3.322   4.586  0.1836 -0.2636  1.6078
   87SLPC  C213 8388   6.154   3.298   4.752  0.3359  0.7541  0.0488
   87SLPC  H13R 8389   6.226   3.335   4.827  1.5458 -1.3866  0.0342
   87SLPC  C214 8390   6.028   3.234   4.809 -0.0996 -0.6604  0.2492
   87SLPC  H14R 8391   5.955   3.188   4.739  0.2065 -0.5352 -0.1501
   87SLPC  H14S 8392   5.961   3.310   4.854 -0.4493 -0.2925 -0.8719
   87SLPC  C215 8393   6.054   3.122   4.913  0.2817 -0.7182 -0.4729
   87SLPC  H15R 8394   5.967   3.118   4.983  0.8701  0.8160  0.4079
   87SLPC  H15S 8395   6.147   3.140   4.970 -0.5035  0.7314  0.4306
   87SLPC  C216 8396   6.058   2.978   4.859  0.8345  0.0770  0.1907
   87SLPC  H16R 8397   5.972   2.961   4.790  1.8136  2.7568 -1.8576
   87SLPC  H16S 8398   6.057   2.907   4.945  0.9643 -0.0227  0.1104
   87SLPC  C217 8399   6.188   2.949   4.781 -0.2156 -0.0306 -0.1216
   87SLPC  H17R 8400   6.271   2.979   4.849 -2.3980  2.0222  1.8503
   87SLPC  H17S 8401   6.196   3.006   4.686 -0.5789 -0.2786 -0.3009
   87SLPC  C218 8402   6.215   2.801   4.750 -0.4333  0.0123 -0.4222
   87SLPC  H18R 8403   6.280   2.763   4.832  0.0705  1.9671  0.1558
   87SLPC  H18S 8404   6.279   2.791   4.660 -0.7174 -0.8718 -0.5370
   87SLPC  H18T 8405   6.126   2.741   4.724  0.1011 -0.6870 -0.6780
   87SLPC   C33 8406   5.325   2.806   3.803 -0.5143  0.1695 -0.3037
   87SLPC   H3X 8407   5.428   2.846   3.809  0.2148 -1.7238  0.6513
   87SLPC   H3Y 8408   5.330   2.704   3.847 -0.7970 -0.0244 -0.7111
   87SLPC   C34 8409   5.250   2.888   3.909  0.1726  0.4910  0.0901
   87SLPC   H4X 8410   5.151   2.845   3.933 -0.0596  0.9531 -0.0229
   87SLPC   H4Y 8411   5.237   2.989   3.864  1.2700 -0.0465 -1.5119
   87SLPC   C35 8412   5.317   2.913   4.045  0.4488 -0.6858 -0.2306
   87SLPC   H5X 8413   5.403   2.981   4.030 -1.0008  0.8357 -2.0981
   87SLPC   H5Y 8414   5.360   2.812   4.064  1.2045 -0.2750  0.2792
   87SLPC   C36 8415   5.224   2.947   4.164  0.3018 -0.0853  0.3456
   87SLPC   H6X 8416   5.147   2.869   4.152  1.2449 -0.7209 -2.1282
   87SLPC   H6Y 8417   5.177   3.047   4.149  0.8081  0.0996 -0.0391
   87SLPC   C37 8418   5.304   2.950   4.296 -0.7742  0.0904 -0.7309
   87SLPC   H7X 8419   5.395   3.012   4.284  0.1580 -1.0779  0.1668
   87SLPC   H7Y 8420   5.328   2.842   4.309 -0.9335  0.2671  1.2636
   87SLPC   C38 8421   5.223   2.982   4.418  0.0117  0.1269  0.1335
   87SLPC   H8X 8422   5.132   2.919   4.410  0.1894 -0.0595 -0.4668
   87SLPC   H8Y 8423   5.183   3.083   4.441  0.4423  0.8052 -1.9365
   87SLPC   C39 8424   5.292   2.929   4.538  0.1028 -0.3992 -0.5373
   87SLPC   H9X 8425   5.382   2.995   4.534 -1.2486  1.6310  0.3681
   87SLPC   H9Y 8426   5.325   2.823   4.538  0.1470 -0.4150  1.0209
   87SLPC  C310 8427   5.224   2.952   4.670 -0.1183  0.1035  0.9069
   87SLPC  H10X 8428   5.119   2.916   4.669  0.0411 -0.3797 -0.0870
   87SLPC  H10Y 8429   5.221   3.058   4.703  1.9880  0.0316  1.5011
   87SLPC  C311 8430   5.295   2.892   4.794 -0.2098  0.4611 -0.0680
   87SLPC  H11X 8431   5.241   2.929   4.884  0.1914 -0.2387  0.4669
   87SLPC  H11Y 8432   5.402   2.918   4.804  0.2244 -1.2761  0.0890
   87SLPC  C312 8433   5.301   2.737   4.792  0.2170 -0.2491  0.3690
   87SLPC  H12X 8434   5.371   2.704   4.712  1.6613 -3.2003  2.6383
   87SLPC  H12Y 8435   5.197   2.702   4.772 -0.2253  0.0116  2.0158
   87SLPC  C313 8436   5.343   2.674   4.928 -0.6936  0.4888  0.1280
   87SLPC  H13X 8437   5.265   2.703   5.001 -2.6637 -1.3514 -1.1195
   87SLPC  H13Y 8438   5.447   2.709   4.943 -0.6855  0.2418  0.6805
   87SLPC  C314 8439   5.349   2.521   4.925 -0.1364  0.0356 -0.3862
   87SLPC  H14X 8440   5.423   2.497   5.004 -0.3766 -1.0350 -0.4648
   87SLPC  H14Y 8441   5.393   2.492   4.827  0.0087  1.6144 -0.8125
   87SLPC  C315 8442   5.220   2.441   4.947  0.0738  0.1239 -0.4673
   87SLPC  H15X 8443   5.240   2.332   4.941 -1.2883 -0.1245 -0.8595
   87SLPC  H15Y 8444   5.142   2.466   4.872  1.7484 -0.3759 -2.4645
   87SLPC  C316 8445   5.171   2.442   5.097 -1.0796 -0.2328 -0.2157
   87SLPC  H16X 8446   5.121   2.542   5.103  0.8727  0.8122 -0.4298
   87SLPC  H16Y 8447   5.258   2.447   5.165 -1.2132  2.4471 -0.1151
   87SLPC  C317 8448   5.082   2.315   5.122  0.7191 -0.2739  0.0941
   87SLPC  H17X 8449   5.070   2.316   5.232 -2.2027  2.3133 -0.0909
   87SLPC  H17Y 8450   5.143   2.229   5.088  1.3242  0.5517 -1.0128
   87SLPC  C318 8451   4.947   2.310   5.057  0.1549 -0.8010 -0.3275
   87SLPC  H18X 8452   4.898   2.211   5.056 -0.4803 -0.4976 -1.8577
   87SLPC  H18Y 8453   4.952   2.338   4.949 -1.0251  0.6937 -0.0268
   87SLPC  H18Z 8454   4.886   2.394   5.096  0.9038  0.0111 -0.8658
   88SLPC     N 8455   1.262   2.918   3.144  0.2426 -0.2450 -0.6492
   88SLPC   C13 8456   1.393   2.860   3.104  0.0226 -1.2120 -0.1765
   88SLPC  H13A 8457   1.464   2.894   3.178 -0.7327 -1.4042  0.6562
   88SLPC  H13B 8458   1.380   2.752   3.109 -0.8897 -1.0621  1.4181
   88SLPC  H13C 8459   1.429   2.904   3.012 -0.5493  0.6440  0.4485
   88SLPC   C14 8460   1.174   2.910   3.017 -0.2945 -0.2958  0.4299
   88SLPC  H14A 8461   1.071   2.914   3.049 -0.5882  1.5866 -0.5896
   88SLPC  H14B 8462   1.194   2.993   2.950 -2.0164 -0.0054  0.2325
   88SLPC  H14C 8463   1.170   2.815   2.966 -1.2454  0.0074 -0.0922
   88SLPC   C15 8464   1.272   3.067   3.173 -0.4261  0.0196 -0.1467
   88SLPC  H15A 8465   1.312   3.124   3.090 -2.0265  0.6974 -0.5029
   88SLPC  H15B 8466   1.175   3.106   3.201 -0.7247 -2.7248  3.2584
   88SLPC  H15C 8467   1.328   3.081   3.264  1.3573  0.2591 -1.2316
   88SLPC   C12 8468   1.196   2.853   3.266 -1.1979  0.5131 -0.4020
   88SLPC  H12A 8469   1.250   2.885   3.353  0.8643  0.7396 -1.6961
   88SLPC  H12B 8470   1.227   2.750   3.264  1.8609  1.3246  0.0973
   88SLPC   C11 8471   1.052   2.873   3.293 -0.2727  1.3307 -0.9206
   88SLPC  H11A 8472   1.032   2.981   3.281 -0.6430  1.4114  0.2593
   88SLPC  H11B 8473   1.024   2.832   3.392 -2.0934  0.8211 -1.6067
   88SLPC     P 8474   0.943   2.644   3.214  0.3090 -0.1135 -0.5010
   88SLPC   O13 8475   0.889   2.598   3.085 -0.5940 -0.2506 -0.0325
   88SLPC   O14 8476   1.068   2.572   3.249  0.0268  0.1141  0.0950
   88SLPC   O12 8477   0.970   2.804   3.200  0.5810 -0.1794 -0.1086
   88SLPC   O11 8478   0.844   2.629   3.332 -0.3593 -0.0020 -0.1546
   88SLPC    C1 8479   0.721   2.710   3.348 -0.0703  0.0059 -0.4789
   88SLPC    HA 8480   0.746   2.817   3.364 -1.2153  0.1944  0.1892
   88SLPC    HB 8481   0.654   2.696   3.261  0.8138 -1.1827 -0.9903
   88SLPC    C2 8482   0.644   2.668   3.483 -0.0060  0.0489  0.6534
   88SLPC    HS 8483   0.559   2.739   3.493  0.0516  0.1907  0.2001
   88SLPC   O21 8484   0.720   2.678   3.603  0.1209 -0.3169 -0.7595
   88SLPC   C21 8485   0.765   2.799   3.632  0.7296 -0.3300 -1.1014
   88SLPC   O22 8486   0.725   2.908   3.586 -0.2284  0.2399  0.2929
   88SLPC   C22 8487   0.839   2.783   3.765  0.4983 -0.2012 -0.3350
   88SLPC   H2R 8488   0.765   2.732   3.831  0.2934  0.7792  0.1976
   88SLPC   H2S 8489   0.932   2.726   3.742  2.6513  2.8155  0.2945
   88SLPC    C3 8490   0.583   2.526   3.475  0.2451  0.3235  0.5232
   88SLPC    HX 8491   0.665   2.454   3.454  0.5064  0.9366 -0.6424
   88SLPC    HY 8492   0.526   2.518   3.380  0.8325 -0.4962  0.2192
   88SLPC   O31 8493   0.498   2.485   3.593 -0.1096  0.0483  0.1460
   88SLPC   C31 8494   0.372   2.521   3.578 -0.3114 -0.5000  0.2362
   88SLPC   O32 8495   0.319   2.550   3.473 -0.6066 -0.9583 -0.2133
   88SLPC   C32 8496   0.288   2.504   3.703 -0.2386  0.3002  0.4941
   88SLPC   H2X 8497   0.325   2.416   3.759  3.5245 -0.2003 -2.3520
   88SLPC   H2Y 8498   0.185   2.480   3.670 -0.5651  1.0939  0.9150
   88SLPC   C23 8499   0.865   2.909   3.830  0.4045  0.6572 -0.0841
   88SLPC   H3R 8500   0.780   2.977   3.853 -1.2465 -1.6031  0.8493
   88SLPC   H3S 8501   0.941   2.969   3.775  0.8542  0.5631  0.4248
   88SLPC   C24 8502   0.919   2.879   3.969 -0.1568  0.1725  0.4527
   88SLPC   H4R 8503   1.022   2.838   3.961 -1.1224 -2.3748 -0.1966
   88SLPC   H4S 8504   0.864   2.794   4.015 -1.2429  0.5853 -0.0499
   88SLPC   C25 8505   0.908   3.008   4.052 -0.1402  0.6601 -0.6387
   88SLPC   H5R 8506   0.800   3.033   4.054 -0.4701 -0.6561 -1.1415
   88SLPC   H5S 8507   0.965   3.090   4.002 -1.5184  1.5496 -0.7910
   88SLPC   C26 8508   0.965   2.988   4.191 -0.6792  0.0216 -0.0550
   88SLPC   H6R 8509   1.072   3.016   4.183 -1.4545  4.1052  1.4011
   88SLPC   H6S 8510   0.963   2.884   4.230  0.7427  0.3477  0.9560
   88SLPC   C27 8511   0.911   3.080   4.294 -0.4207 -0.0202  0.2806
   88SLPC   H7R 8512   0.805   3.055   4.317 -0.9120  1.8328  0.2126
   88SLPC   H7S 8513   0.906   3.184   4.256 -2.2813  0.2677  1.1834
   88SLPC   C28 8514   1.000   3.076   4.431 -0.9341 -0.2901 -0.6620
   88SLPC   H8R 8515   0.974   3.166   4.491  0.5050 -0.8337  0.8679
   88SLPC   H8S 8516   1.104   3.086   4.392 -0.4350  2.4582  1.0760
   88SLPC   C29 8517   0.977   2.944   4.502  0.6399  0.4837 -0.3221
   88SLPC   H9R 8518   1.017   2.858   4.446 -0.8240 -1.4108  1.4008
   88SLPC  C210 8519   0.935   2.919   4.628  0.4196 -0.0175  0.3314
   88SLPC  H10R 8520   0.936   2.814   4.661  0.7978 -0.3460 -0.6839
   88SLPC  C211 8521   0.901   3.025   4.731 -0.5343  0.1029 -0.4430
   88SLPC  H11R 8522   0.880   2.976   4.829  0.9126  0.7314  0.2134
   88SLPC  H11S 8523   0.812   3.082   4.697 -2.3068 -2.3593 -0.1960
   88SLPC  C212 8524   1.023   3.109   4.754  0.3765  0.2037 -0.5230
   88SLPC  H12R 8525   1.119   3.079   4.709 -0.1106  0.5496 -1.8348
   88SLPC  C213 8526   1.023   3.225   4.831  0.1594  0.4518  0.1914
   88SLPC  H13R 8527   1.109   3.293   4.830  0.9432 -0.5015 -1.1302
   88SLPC  C214 8528   0.893   3.263   4.899 -0.3051  0.8040 -0.1685
   88SLPC  H14R 8529   0.922   3.270   5.006  0.2627  3.7902 -0.4092
   88SLPC  H14S 8530   0.806   3.195   4.895 -0.6010  0.9971  1.8267
   88SLPC  C215 8531   0.830   3.397   4.864  0.1476  0.4731 -0.3062
   88SLPC  H15R 8532   0.896   3.483   4.891  0.5408  0.8787 -2.4429
   88SLPC  H15S 8533   0.733   3.415   4.916  0.8067  1.6330  0.5832
   88SLPC  C216 8534   0.801   3.429   4.714  0.1689  0.1114  0.4038
   88SLPC  H16R 8535   0.739   3.342   4.684  1.2687 -0.5351 -0.0541
   88SLPC  H16S 8536   0.896   3.441   4.659  0.9788 -2.3876  1.1113
   88SLPC  C217 8537   0.725   3.559   4.682 -0.2682  0.1047  0.5731
   88SLPC  H17R 8538   0.654   3.585   4.764 -2.4728 -0.6377 -0.9900
   88SLPC  H17S 8539   0.664   3.551   4.589  0.9774  0.7971 -0.3270
   88SLPC  C218 8540   0.815   3.683   4.659  0.5796  0.0724  0.8071
   88SLPC  H18R 8541   0.851   3.696   4.764 -1.2227 -0.7041  1.5610
   88SLPC  H18S 8542   0.755   3.775   4.639 -2.6656 -1.6542  1.9702
   88SLPC  H18T 8543   0.895   3.675   4.582 -1.3804 -0.6309 -1.2390
   88SLPC   C33 8544   0.287   2.630   3.787  0.2391 -0.1564 -0.2414
   88SLPC   H3X 8545   0.199   2.635   3.854  2.0640 -0.5077  2.3035
   88SLPC   H3Y 8546   0.273   2.721   3.725  1.9480  0.8741  0.7948
   88SLPC   C34 8547   0.410   2.663   3.878  0.0172  0.5295  0.2146
   88SLPC   H4X 8548   0.390   2.762   3.922  0.4727  0.4955  0.5074
   88SLPC   H4Y 8549   0.508   2.658   3.825 -0.2736  1.1833 -0.4077
   88SLPC   C35 8550   0.413   2.563   3.995 -0.3431  0.3070  0.4754
   88SLPC   H5X 8551   0.427   2.463   3.949  0.0262  1.1115 -1.2023
   88SLPC   H5Y 8552   0.324   2.569   4.061 -1.0623 -0.0635 -0.4486
   88SLPC   C36 8553   0.537   2.572   4.076  0.4862  0.2267  0.1776
   88SLPC   H6X 8554   0.625   2.567   4.008 -1.1309 -0.0834 -1.9845
   88SLPC   H6Y 8555   0.549   2.490   4.150 -0.2492 -0.2411 -0.2172
   88SLPC   C37 8556   0.546   2.704   4.158  0.5653 -0.1599  0.0572
   88SLPC   H7X 8557   0.452   2.762   4.142  0.5121 -0.7675 -2.0857
   88SLPC   H7Y 8558   0.627   2.766   4.113  0.3014  0.5110  0.4795
   88SLPC   C38 8559   0.574   2.685   4.306 -0.5623  0.3708  0.0146
   88SLPC   H8X 8560   0.505   2.605   4.339 -0.7159  0.0924 -0.9719
   88SLPC   H8Y 8561   0.552   2.780   4.358  0.3128  0.7559 -0.2916
   88SLPC   C39 8562   0.722   2.654   4.331 -0.1629  0.4045  0.2554
   88SLPC   H9X 8563   0.788   2.730   4.286 -0.4431  0.1711 -0.5828
   88SLPC   H9Y 8564   0.750   2.567   4.268 -0.2417  0.6617 -0.1400
   88SLPC  C310 8565   0.761   2.636   4.477  0.7480  0.0410 -0.4970
   88SLPC  H10X 8566   0.734   2.739   4.509 -1.5682 -0.2481 -1.3164
   88SLPC  H10Y 8567   0.869   2.615   4.489  0.8684  0.1699 -1.2986
   88SLPC  C311 8568   0.671   2.538   4.542 -0.2705  0.1047 -0.2732
   88SLPC  H11X 8569   0.674   2.443   4.485  3.3447 -1.1183  1.6831
   88SLPC  H11Y 8570   0.563   2.561   4.557 -1.1422 -1.4287 -3.2485
   88SLPC  C312 8571   0.713   2.505   4.684 -0.3659 -0.3817  0.1501
   88SLPC  H12X 8572   0.823   2.490   4.683 -0.2951 -0.5798  2.9861
   88SLPC  H12Y 8573   0.665   2.409   4.711 -2.4851  0.7020  0.4037
   88SLPC  C313 8574   0.683   2.619   4.778 -0.0048 -0.2951  0.1640
   88SLPC  H13X 8575   0.572   2.624   4.775  0.0840  1.6099 -1.4968
   88SLPC  H13Y 8576   0.728   2.711   4.735  2.7503 -1.3359  0.6267
   88SLPC  C314 8577   0.736   2.585   4.923 -0.5253 -0.6235 -0.6098
   88SLPC  H14X 8578   0.844   2.564   4.906  0.0550 -0.6909  2.5801
   88SLPC  H14Y 8579   0.680   2.494   4.953 -0.8586 -0.4413 -0.6734
   88SLPC  C315 8580   0.709   2.691   5.024 -0.3696 -0.1761 -0.1033
   88SLPC  H15X 8581   0.711   2.796   4.988  0.3656  0.4634  1.6934
   88SLPC  H15Y 8582   0.785   2.680   5.105 -2.6550 -1.1532  2.0412
   88SLPC  C316 8583   0.574   2.679   5.103 -0.4554 -0.1599 -0.4179
   88SLPC  H16X 8584   0.559   2.575   5.139  1.3291 -0.2184  0.2346
   88SLPC  H16Y 8585   0.482   2.711   5.049 -0.8142  1.8180  1.2248
   88SLPC  C317 8586   0.580   2.757   5.235 -0.1950  0.4632  0.2828
   88SLPC  H17X 8587   0.627   2.850   5.198 -2.7214  1.0250 -1.8549
   88SLPC  H17Y 8588   0.641   2.703   5.310 -1.3294 -2.6778 -0.8504
   88SLPC  C318 8589   0.450   2.785   5.311  1.1759  1.3493  0.4771
   88SLPC  H18X 8590   0.396   2.688   5.306  0.1294  1.6463  3.6192
   88SLPC  H18Y 8591   0.389   2.862   5.260 -0.3396  0.5394  0.9884
   88SLPC  H18Z 8592   0.474   2.816   5.415  2.1203  3.3986 -0.3069
   89SAPE     N 8593   6.142   4.060   7.824 -0.3055  0.1412 -0.0015
   89SAPE   HN1 8594   6.220   4.011   7.777  1.0033  2.1475 -0.0215
   89SAPE   HN2 8595   6.089   4.013   7.900 -0.4186 -0.9471 -0.7349
   89SAPE   HN3 8596   6.071   4.040   7.751  1.2650 -0.0494 -1.5342
   89SAPE   C12 8597   6.167   4.207   7.840  0.0003  0.4831 -0.5876
   89SAPE  H12A 8598   6.248   4.203   7.917  0.2112 -1.9379 -0.8553
   89SAPE  H12B 8599   6.073   4.261   7.865 -0.5754  0.5894 -2.8171
   89SAPE   C11 8600   6.217   4.266   7.711 -0.1689  0.3064  0.7411
   89SAPE  H11A 8601   6.308   4.210   7.682 -0.0564  0.7780  0.1738
   89SAPE  H11B 8602   6.242   4.370   7.741  0.7005  0.1904  0.4381
   89SAPE     P 8603   6.050   4.361   7.543  0.2427  0.0530  0.0219
   89SAPE   O13 8604   5.911   4.362   7.603 -0.0888 -0.1623  0.6267
   89SAPE   O14 8605   6.136   4.485   7.545  0.2217 -0.0391 -0.0580
   89SAPE   O12 8606   6.127   4.239   7.598 -0.1061  0.2008 -0.1146
   89SAPE   O11 8607   6.028   4.323   7.387  0.3052  0.5435  0.1969
   89SAPE    C1 8608   6.025   4.187   7.335  0.6117  0.2483 -0.4116
   89SAPE    HA 8609   6.118   4.166   7.278  0.9124  2.7739 -0.9739
   89SAPE    HB 8610   6.011   4.109   7.413 -0.6191  1.8494  1.0684
   89SAPE    C2 8611   5.909   4.170   7.236 -0.1020 -0.1648 -0.5788
   89SAPE    HS 8612   5.921   4.071   7.187  3.0026  0.3833 -1.0812
   89SAPE   O21 8613   5.913   4.276   7.136  0.8068 -0.3842 -0.4939
   89SAPE   C21 8614   6.008   4.267   7.037  0.2270 -0.6129  0.5653
   89SAPE   O22 8615   6.098   4.190   7.024 -0.4788  0.3867  0.3535
   89SAPE   C22 8616   5.969   4.381   6.943  0.9413 -0.4357 -0.0647
   89SAPE   H2R 8617   5.861   4.385   6.920  0.8861  3.0703  0.2614
   89SAPE   H2S 8618   5.992   4.476   6.997  2.8793 -1.5100  1.1328
   89SAPE    C3 8619   5.770   4.179   7.306  0.0780  0.4370 -0.3807
   89SAPE    HX 8620   5.758   4.270   7.368 -0.8710  0.2580 -0.2833
   89SAPE    HY 8621   5.776   4.094   7.378  0.1144 -0.5732 -1.5432
   89SAPE   O31 8622   5.662   4.144   7.209 -0.2975  0.0026 -0.0455
   89SAPE   C31 8623   5.594   4.254   7.169 -0.1089  0.7470 -0.0655
   89SAPE   O32 8624   5.606   4.368   7.211  0.1097 -0.2717 -0.1713
   89SAPE   C32 8625   5.507   4.219   7.042  0.1725  0.0917 -0.1299
   89SAPE   H2X 8626   5.398   4.225   7.063 -0.0699  0.7574 -1.4782
   89SAPE   H2Y 8627   5.534   4.116   7.012  1.0923  0.3215 -0.1280
   89SAPE   C23 8628   6.054   4.390   6.813 -0.0735 -0.5060 -0.0680
   89SAPE   H3R 8629   6.164   4.399   6.826 -0.1169  1.5570 -0.7144
   89SAPE   H3S 8630   6.030   4.477   6.748 -0.5805 -0.5468  0.0624
   89SAPE   C24 8631   6.029   4.261   6.720 -0.7525 -0.7514 -0.0806
   89SAPE   H4R 8632   6.049   4.171   6.781  0.3492  0.6996  1.8196
   89SAPE   H4S 8633   6.104   4.269   6.638 -2.1611 -0.7744 -1.4146
   89SAPE   C25 8634   5.890   4.255   6.660 -0.5576 -0.4571  1.4390
   89SAPE   H5R 8635   5.814   4.231   6.736 -0.3879 -0.7806  1.5062
   89SAPE   C26 8636   5.849   4.302   6.539 -0.4084  0.3540 -0.4275
   89SAPE   H6R 8637   5.743   4.307   6.508 -0.8657  0.5786  1.1090
   89SAPE   C27 8638   5.937   4.356   6.430 -0.6927  0.2302 -0.3803
   89SAPE   H7R 8639   5.997   4.443   6.464 -0.3948  0.3263 -1.1427
   89SAPE   H7S 8640   5.873   4.406   6.354 -0.1380  0.2374 -0.8463
   89SAPE   C28 8641   6.026   4.262   6.350 -0.0886 -0.1777 -0.0249
   89SAPE   H8R 8642   6.131   4.251   6.381  0.0986 -1.9686 -1.1936
   89SAPE   C29 8643   5.994   4.196   6.244  0.3667 -0.0436  0.6049
   89SAPE   H9R 8644   6.063   4.119   6.207  0.0280  0.4140 -1.0871
   89SAPE  C210 8645   5.866   4.206   6.167 -0.4672 -0.7123 -0.1035
   89SAPE  H10R 8646   5.869   4.289   6.092 -0.6075 -0.1009  0.5565
   89SAPE  H10S 8647   5.783   4.239   6.233  0.9694  2.6135  0.2726
   89SAPE  C211 8648   5.829   4.079   6.103  0.7570  0.5759 -0.2309
   89SAPE  H11R 8649   5.787   4.008   6.176  2.3013  0.4371  0.5465
   89SAPE  C212 8650   5.846   4.040   5.974  0.2299  0.4992 -0.3822
   89SAPE  H12R 8651   5.805   3.945   5.937  0.6196 -1.7271  4.1875
   89SAPE  C213 8652   5.911   4.121   5.866  0.4595  0.2670 -0.2581
   89SAPE  H13R 8653   5.908   4.229   5.893 -0.9067  0.3567 -0.6905
   89SAPE  H13S 8654   5.834   4.115   5.786 -0.3636 -1.6179  0.6065
   89SAPE  C214 8655   6.052   4.075   5.831  1.0255  0.0660 -0.1461
   89SAPE  H14R 8656   6.121   4.067   5.916 -0.3147  0.1459  1.0054
   89SAPE  C215 8657   6.087   4.058   5.703  0.6840 -0.2073  0.2084
   89SAPE  H15R 8658   6.194   4.037   5.684  0.3877 -1.4082 -0.2535
   89SAPE  C216 8659   5.999   4.054   5.580  0.2952  1.3479 -0.2200
   89SAPE  H16R 8660   5.894   4.032   5.611 -0.0307  2.3740 -0.5566
   89SAPE  H16S 8661   6.032   3.985   5.499 -0.3463  1.9600 -1.0219
   89SAPE  C217 8662   5.995   4.196   5.521 -0.4265 -0.1858 -0.3640
   89SAPE  H17R 8663   6.093   4.232   5.483 -0.8385  0.9349 -0.3896
   89SAPE  H17S 8664   5.954   4.259   5.602 -0.1095  1.1935 -1.2313
   89SAPE  C218 8665   5.917   4.196   5.386  0.1834  0.0428  0.3827
   89SAPE  H18R 8666   5.828   4.130   5.397  0.1191 -0.1288 -1.0646
   89SAPE  H18S 8667   5.972   4.147   5.304 -0.9063 -1.6984  0.6263
   89SAPE  C219 8668   5.875   4.333   5.337 -0.8130  0.4036  0.4306
   89SAPE  H19R 8669   5.967   4.395   5.343  0.4173 -1.4589  2.8492
   89SAPE  H19S 8670   5.793   4.372   5.401 -2.0071  0.1331 -0.9065
   89SAPE  C220 8671   5.823   4.338   5.189 -0.0271 -0.6079  0.1177
   89SAPE  H20R 8672   5.821   4.443   5.151 -3.9145 -0.1716  1.0678
   89SAPE  H20S 8673   5.720   4.298   5.175 -0.9098  1.5322  0.0068
   89SAPE  H20T 8674   5.896   4.289   5.122 -0.8139 -0.3506 -0.9634
   89SAPE   C33 8675   5.536   4.302   6.917  0.1412  0.3441 -0.0616
   89SAPE   H3X 8676   5.644   4.313   6.895  0.6653  1.9108  2.7158
   89SAPE   H3Y 8677   5.510   4.407   6.946 -1.0623 -0.5591  2.3919
   89SAPE   C34 8678   5.453   4.250   6.797 -0.5206 -0.8655  0.3312
   89SAPE   H4X 8679   5.346   4.260   6.822  0.0254  1.7980  1.9658
   89SAPE   H4Y 8680   5.472   4.143   6.775  0.6107 -0.3736 -1.3133
   89SAPE   C35 8681   5.505   4.318   6.676  0.6015  0.6656  0.0748
   89SAPE   H5X 8682   5.613   4.292   6.671  0.7230  0.4808  2.4218
   89SAPE   H5Y 8683   5.500   4.429   6.683  0.9628  0.8220 -1.7132
   89SAPE   C36 8684   5.433   4.275   6.539  0.5847  0.6580 -0.6227
   89SAPE   H6X 8685   5.472   4.343   6.460  1.7295 -1.1097 -1.6606
   89SAPE   H6Y 8686   5.327   4.306   6.554  1.0856  1.2133  2.2385
   89SAPE   C37 8687   5.456   4.127   6.492  0.4410 -0.5277  0.2106
   89SAPE   H7X 8688   5.398   4.062   6.560 -0.9839  1.3430  0.8654
   89SAPE   H7Y 8689   5.559   4.088   6.510 -0.4025 -1.8252  2.6844
   89SAPE   C38 8690   5.389   4.109   6.345 -0.3233 -0.1136 -0.6732
   89SAPE   H8X 8691   5.284   4.144   6.356  0.0936  1.7353 -2.0790
   89SAPE   H8Y 8692   5.406   4.001   6.327 -0.5658 -0.0316 -1.4277
   89SAPE   C39 8693   5.449   4.200   6.235 -0.2297  0.2464 -0.2330
   89SAPE   H9X 8694   5.559   4.206   6.242 -0.2778  0.7675  0.1804
   89SAPE   H9Y 8695   5.406   4.301   6.254 -1.2359 -0.3160  0.5981
   89SAPE  C310 8696   5.420   4.156   6.087 -0.3717 -0.5005 -0.0254
   89SAPE  H10X 8697   5.311   4.161   6.066 -0.1563  1.5811 -0.8346
   89SAPE  H10Y 8698   5.455   4.051   6.073 -0.7139 -0.6856  0.4733
   89SAPE  C311 8699   5.485   4.248   5.994 -0.3758  0.5071 -0.0613
   89SAPE  H11X 8700   5.594   4.251   6.015 -0.7804 -0.5212  2.6685
   89SAPE  H11Y 8701   5.453   4.350   6.026 -0.6742  2.0988 -4.7384
   89SAPE  C312 8702   5.456   4.231   5.846  0.5231 -1.0534 -0.3269
   89SAPE  H12X 8703   5.349   4.261   5.837  0.7326 -0.2874 -0.3800
   89SAPE  H12Y 8704   5.477   4.126   5.816  0.5872 -0.8184 -1.1237
   89SAPE  C313 8705   5.528   4.340   5.770 -0.2053  0.6634 -0.2484
   89SAPE  H13X 8706   5.635   4.309   5.760 -1.3853 -3.7390 -1.5078
   89SAPE  H13Y 8707   5.525   4.439   5.819 -0.0977  0.7790 -0.4760
   89SAPE  C314 8708   5.475   4.354   5.629 -0.9563 -0.4355 -0.2628
   89SAPE  H14X 8709   5.537   4.425   5.570  0.3484 -3.4850 -2.8760
   89SAPE  H14Y 8710   5.371   4.393   5.627  0.1311  2.7842  0.4534
   89SAPE  C315 8711   5.479   4.231   5.545  0.7519  0.0025 -0.5009
   89SAPE  H15X 8712   5.416   4.158   5.600 -0.2119  0.9339 -0.3369
   89SAPE  H15Y 8713   5.584   4.198   5.553  1.0240  1.0732  0.6499
   89SAPE  C316 8714   5.441   4.245   5.394 -0.0446 -0.6044 -0.2918
   89SAPE  H16X 8715   5.504   4.321   5.343 -1.2681  0.3796 -0.3705
   89SAPE  H16Y 8716   5.341   4.289   5.378  0.5279  1.0883  0.5859
   89SAPE  C317 8717   5.468   4.119   5.317 -0.0832 -0.3844  0.1698
   89SAPE  H17X 8718   5.412   4.039   5.371 -1.5285 -0.8750 -1.9242
   89SAPE  H17Y 8719   5.576   4.094   5.327 -0.2079 -0.4744  1.4418
   89SAPE  C318 8720   5.419   4.116   5.169 -0.6418  0.0695 -0.4218
   89SAPE  H18X 8721   5.438   4.013   5.131  1.3724  0.5444 -0.8168
   89SAPE  H18Y 8722   5.469   4.195   5.109 -0.8087  1.3376  1.0378
   89SAPE  H18Z 8723   5.311   4.143   5.169 -0.3042  1.7820  2.3734
   90SAPE     N 8724   1.044   3.828   7.965 -0.4292 -0.2707 -0.1042
   90SAPE   HN1 8725   0.977   3.769   7.911 -0.3962  1.6651 -2.4493
   90SAPE   HN2 8726   1.131   3.771   7.978 -1.9156 -2.1620  2.5771
   90SAPE   HN3 8727   1.015   3.841   8.064  1.6140 -1.8654  0.8035
   90SAPE   C12 8728   1.073   3.965   7.905  0.1862  0.3472 -0.2848
   90SAPE  H12A 8729   1.113   4.025   7.989 -0.5870  3.0875 -1.7685
   90SAPE  H12B 8730   0.978   4.012   7.874 -0.6594 -0.6209  0.7617
   90SAPE   C11 8731   1.179   3.972   7.794 -0.1027  1.1303 -0.1566
   90SAPE  H11A 8732   1.206   4.075   7.761  2.8148  0.1688 -1.0802
   90SAPE  H11B 8733   1.135   3.922   7.704  1.4399 -1.8269  0.6078
   90SAPE     P 8734   1.397   3.855   7.731  0.0667  0.2066 -0.0574
   90SAPE   O13 8735   1.454   3.967   7.647  0.3785 -0.8225 -0.2531
   90SAPE   O14 8736   1.497   3.770   7.798 -0.8600  0.7738  0.0101
   90SAPE   O12 8737   1.290   3.905   7.837  0.6036 -0.3035  0.0430
   90SAPE   O11 8738   1.306   3.777   7.635 -0.6233  0.0027  0.1615
   90SAPE    C1 8739   1.228   3.666   7.682  0.3885 -0.0457  0.1509
   90SAPE    HA 8740   1.241   3.643   7.789 -0.0884 -0.0381  0.2150
   90SAPE    HB 8741   1.120   3.685   7.662 -0.2718 -1.5876  1.9626
   90SAPE    C2 8742   1.269   3.538   7.608 -0.2971 -0.4095  0.1041
   90SAPE    HS 8743   1.369   3.510   7.648  0.6711  1.1162 -1.1144
   90SAPE   O21 8744   1.278   3.556   7.465  0.2761  0.2875  0.7425
   90SAPE   C21 8745   1.382   3.597   7.404 -0.0431 -0.1857 -0.5747
   90SAPE   O22 8746   1.496   3.607   7.454  0.0765 -0.4713  0.1110
   90SAPE   C22 8747   1.349   3.633   7.257 -0.1078  0.2252 -0.5288
   90SAPE   H2R 8748   1.248   3.589   7.240  0.2764  0.3435 -3.5704
   90SAPE   H2S 8749   1.346   3.744   7.252 -2.3700  0.1565 -2.2870
   90SAPE    C3 8750   1.177   3.424   7.643  0.2760 -0.0941 -0.6051
   90SAPE    HX 8751   1.186   3.408   7.753  0.7323  0.7604 -0.5110
   90SAPE    HY 8752   1.209   3.337   7.582  1.7981 -0.6151  0.8340
   90SAPE   O31 8753   1.038   3.459   7.618 -0.7151  0.0360  0.7377
   90SAPE   C31 8754   0.966   3.374   7.563 -0.0878  0.4743  0.1697
   90SAPE   O32 8755   0.994   3.256   7.541 -0.3226 -0.0171 -0.3853
   90SAPE   C32 8756   0.837   3.447   7.521 -0.6105  0.1568 -0.1133
   90SAPE   H2X 8757   0.860   3.553   7.497 -1.4606  0.5113  0.5908
   90SAPE   H2Y 8758   0.767   3.441   7.608 -0.2366 -0.5514  0.1430
   90SAPE   C23 8759   1.456   3.578   7.159  0.0816 -0.0851 -0.3518
   90SAPE   H3R 8760   1.448   3.468   7.172 -2.0121  0.0900  0.2743
   90SAPE   H3S 8761   1.560   3.612   7.176 -1.3864  4.4651  0.7053
   90SAPE   C24 8762   1.420   3.627   7.018 -0.2386 -0.2948 -0.1254
   90SAPE   H4R 8763   1.310   3.622   7.008 -0.3806  0.3055  0.9619
   90SAPE   H4S 8764   1.472   3.556   6.950 -3.0595 -0.1393 -2.6270
   90SAPE   C25 8765   1.464   3.769   6.996  0.4498 -0.1110 -0.0351
   90SAPE   H5R 8766   1.457   3.834   7.085 -0.3503  1.7846 -1.4104
   90SAPE   C26 8767   1.518   3.829   6.885  0.0207 -0.5649  0.0404
   90SAPE   H6R 8768   1.545   3.936   6.888  0.7951 -0.7763  1.2217
   90SAPE   C27 8769   1.536   3.760   6.751  0.0329 -0.8086  0.3188
   90SAPE   H7R 8770   1.607   3.678   6.770  0.5005 -0.4752  0.0168
   90SAPE   H7S 8771   1.591   3.832   6.687 -1.4119  0.8043  0.7993
   90SAPE   C28 8772   1.401   3.705   6.686 -0.7505 -0.2518  0.0099
   90SAPE   H8R 8773   1.327   3.687   6.765  1.2040 -1.5221  1.6531
   90SAPE   C29 8774   1.364   3.715   6.556 -0.2867  0.5703 -0.4154
   90SAPE   H9R 8775   1.260   3.690   6.531  0.0339 -1.6324  0.2597
   90SAPE  C210 8776   1.447   3.782   6.449 -0.2458  0.2196  0.1040
   90SAPE  H10R 8777   1.474   3.699   6.380  0.8100  1.5186 -1.0933
   90SAPE  H10S 8778   1.535   3.829   6.499 -1.7846  1.7527  1.5115
   90SAPE  C211 8779   1.362   3.878   6.372  0.0878  0.3300 -0.1420
   90SAPE  H11R 8780   1.274   3.921   6.422  0.0259 -0.5611  0.5367
   90SAPE  C212 8781   1.376   3.904   6.240 -0.5016 -0.0879 -0.0146
   90SAPE  H12R 8782   1.318   3.990   6.203  0.6879  1.2748  1.2043
   90SAPE  C213 8783   1.482   3.844   6.149  0.0571 -0.0179  0.1372
   90SAPE  H13R 8784   1.571   3.812   6.207 -0.1933  0.0403  0.5581
   90SAPE  H13S 8785   1.530   3.919   6.081 -0.7126 -1.7774 -2.5126
   90SAPE  C214 8786   1.431   3.724   6.080  0.0737  0.2230 -0.6256
   90SAPE  H14R 8787   1.438   3.634   6.142  2.5741  0.0064 -1.1256
   90SAPE  C215 8788   1.381   3.711   5.956  0.1393 -0.6916 -0.2191
   90SAPE  H15R 8789   1.372   3.614   5.905 -0.1984 -0.6184 -0.3020
   90SAPE  C216 8790   1.366   3.828   5.859 -0.0246 -0.7339 -1.0220
   90SAPE  H16R 8791   1.446   3.905   5.864 -0.3994 -0.4098  0.6463
   90SAPE  H16S 8792   1.266   3.872   5.880 -1.1772 -2.9766 -1.6033
   90SAPE  C217 8793   1.358   3.785   5.714  0.0820  0.1426 -0.6891
   90SAPE  H17R 8794   1.314   3.867   5.653 -0.7288  1.6816  1.8114
   90SAPE  H17S 8795   1.282   3.704   5.706  0.7872 -0.6225  0.2115
   90SAPE  C218 8796   1.491   3.745   5.647  0.4160  0.4634 -0.0767
   90SAPE  H18R 8797   1.507   3.645   5.693 -2.1970 -0.3760 -0.8070
   90SAPE  H18S 8798   1.562   3.818   5.691  1.1938 -0.3649  0.0900
   90SAPE  C219 8799   1.473   3.741   5.499 -0.1952  0.0784 -0.0835
   90SAPE  H19R 8800   1.436   3.837   5.459  0.1182 -0.5486 -1.9946
   90SAPE  H19S 8801   1.410   3.658   5.461  2.9843 -0.3299 -5.4721
   90SAPE  C220 8802   1.609   3.711   5.438  0.9364 -0.0463 -0.3042
   90SAPE  H20R 8803   1.631   3.609   5.474 -0.2073  0.5285  2.3557
   90SAPE  H20S 8804   1.678   3.793   5.469  1.4982 -0.5507 -0.2166
   90SAPE  H20T 8805   1.622   3.719   5.328  0.3267 -2.8094 -0.6288
   90SAPE   C33 8806   0.775   3.402   7.393  0.1094 -0.2892 -0.1441
   90SAPE   H3X 8807   0.677   3.452   7.382  0.5766  0.5795 -0.5274
   90SAPE   H3Y 8808   0.770   3.291   7.389 -2.0086 -0.1847 -2.0586
   90SAPE   C34 8809   0.851   3.460   7.269 -0.0382  0.2198 -0.3582
   90SAPE   H4X 8810   0.949   3.407   7.275 -0.6125 -0.7014  1.8920
   90SAPE   H4Y 8811   0.872   3.569   7.277 -2.4086  0.6954  0.1016
   90SAPE   C35 8812   0.780   3.429   7.140 -0.4241  0.0102  0.3560
   90SAPE   H5X 8813   0.689   3.490   7.121  0.6238  1.1917 -1.0771
   90SAPE   H5Y 8814   0.761   3.320   7.134 -2.8081  0.4268 -0.4734
   90SAPE   C36 8815   0.870   3.453   7.019  0.2291  0.1589 -0.6878
   90SAPE   H6X 8816   0.976   3.435   7.046 -0.2879  0.0513  1.4714
   90SAPE   H6Y 8817   0.865   3.562   7.001  0.6773  0.5176  1.1578
   90SAPE   C37 8818   0.812   3.373   6.900  0.5698 -0.1941  0.8772
   90SAPE   H7X 8819   0.701   3.378   6.896  0.6296  0.4651 -2.1242
   90SAPE   H7Y 8820   0.837   3.265   6.914  0.0848 -0.2785  1.1273
   90SAPE   C38 8821   0.853   3.431   6.765 -0.3807  0.0438 -0.6218
   90SAPE   H8X 8822   0.836   3.541   6.769  1.5539  0.3834 -0.6429
   90SAPE   H8Y 8823   0.784   3.391   6.688 -2.9503  2.9738 -0.0035
   90SAPE   C39 8824   1.000   3.408   6.723  0.0729  0.1359 -0.6851
   90SAPE   H9X 8825   1.017   3.298   6.722 -0.0477  0.1087  0.0453
   90SAPE   H9Y 8826   1.061   3.449   6.806  2.3944  0.8207 -2.6192
   90SAPE  C310 8827   1.049   3.465   6.593  0.4908  0.2449  0.3378
   90SAPE  H10X 8828   1.135   3.403   6.558 -0.6199  0.2842 -2.7555
   90SAPE  H10Y 8829   1.080   3.568   6.624 -1.0920  0.4860  1.2242
   90SAPE  C311 8830   0.948   3.473   6.480 -0.1438 -0.5707  0.4788
   90SAPE  H11X 8831   0.859   3.531   6.515  0.5380  3.1826 -3.2425
   90SAPE  H11Y 8832   0.905   3.374   6.455 -3.2791 -0.0268  3.0019
   90SAPE  C312 8833   1.006   3.531   6.352 -1.0188  0.7551  0.0378
   90SAPE  H12X 8834   1.087   3.459   6.324  0.6849  1.9061  1.7470
   90SAPE  H12Y 8835   1.054   3.630   6.364 -2.1256  1.3445 -0.2837
   90SAPE  C313 8836   0.905   3.534   6.238  0.1524 -0.0526  0.6261
   90SAPE  H13X 8837   0.824   3.606   6.263 -1.6583 -1.9779  0.6003
   90SAPE  H13Y 8838   0.847   3.441   6.220  2.9028 -1.4609 -1.8744
   90SAPE  C314 8839   0.960   3.569   6.099  0.1473 -0.3959  0.4504
   90SAPE  H14X 8840   1.044   3.499   6.081  0.9832 -0.6964  4.6091
   90SAPE  H14Y 8841   1.006   3.669   6.117  0.4216  0.2312 -2.9569
   90SAPE  C315 8842   0.852   3.559   5.983  0.6583  0.1021  0.0749
   90SAPE  H15X 8843   0.764   3.611   6.027  0.0986 -0.6389 -0.1431
   90SAPE  H15Y 8844   0.822   3.452   5.979 -1.7247  0.7091 -0.1453
   90SAPE  C316 8845   0.893   3.615   5.843  0.1404 -0.9227  0.2657
   90SAPE  H16X 8846   0.991   3.575   5.809 -1.1714 -2.1637 -2.4299
   90SAPE  H16Y 8847   0.906   3.724   5.856  1.8500 -1.0365 -0.2721
   90SAPE  C317 8848   0.788   3.581   5.740 -0.4793 -0.2127  0.4472
   90SAPE  H17X 8849   0.690   3.621   5.773 -1.4647 -2.0932 -0.0360
   90SAPE  H17Y 8850   0.770   3.472   5.742 -1.2863 -0.1005 -0.1779
   90SAPE  C318 8851   0.823   3.603   5.592 -0.1649 -0.0650  0.3311
   90SAPE  H18X 8852   0.849   3.711   5.587  0.8642 -0.2678  0.9008
   90SAPE  H18Y 8853   0.742   3.580   5.521  0.0709 -2.7992  0.8368
   90SAPE  H18Z 8854   0.906   3.532   5.572 -1.2753 -1.9754  2.1597
   91SAPE     N 8855   4.899   5.679   7.645  0.2173 -0.1747  0.5856
   91SAPE   HN1 8856   4.821   5.705   7.707 -0.3802 -1.2918  0.3362
   91SAPE   HN2 8857   4.973   5.665   7.717  1.6914 -3.3669 -1.2863
   91SAPE   HN3 8858   4.930   5.754   7.580 -2.0212 -0.2849 -0.7153
   91SAPE   C12 8859   4.867   5.539   7.585 -0.2932  0.2039  0.2183
   91SAPE  H12A 8860   4.781   5.558   7.517  0.5925 -0.2648 -1.0644
   91SAPE  H12B 8861   4.830   5.484   7.675 -2.1057  3.4045  1.6285
   91SAPE   C11 8862   4.982   5.473   7.507  1.1778  0.2311  1.1525
   91SAPE  H11A 8863   5.016   5.560   7.447 -1.3060  1.5429  1.5070
   91SAPE  H11B 8864   4.943   5.397   7.436  0.3608  2.3168 -0.7639
   91SAPE     P 8865   5.218   5.364   7.522 -0.1371 -0.1164 -0.2427
   91SAPE   O13 8866   5.319   5.471   7.548  0.2465 -0.8929  0.1350
   91SAPE   O14 8867   5.249   5.231   7.579 -0.3906 -0.6772  0.2804
   91SAPE   O12 8868   5.084   5.426   7.580 -0.2734  0.4112 -0.3818
   91SAPE   O11 8869   5.183   5.350   7.369 -0.0013 -0.4532  0.1470
   91SAPE    C1 8870   5.260   5.435   7.282 -0.2392  0.3233  0.2384
   91SAPE    HA 8871   5.360   5.464   7.320 -0.8733  1.6942  0.9106
   91SAPE    HB 8872   5.280   5.371   7.193 -1.8635 -0.5006  0.4145
   91SAPE    C2 8873   5.184   5.559   7.230  0.8617 -0.3516  0.4793
   91SAPE    HS 8874   5.165   5.627   7.316 -1.9577  0.5094 -0.7082
   91SAPE   O21 8875   5.055   5.524   7.169  0.2464 -0.2616 -0.3605
   91SAPE   C21 8876   4.969   5.625   7.150 -0.3541 -0.9192 -0.1397
   91SAPE   O22 8877   4.984   5.747   7.176  0.1471  0.8054 -0.5163
   91SAPE   C22 8878   4.852   5.562   7.081  0.2157  0.6483  0.0360
   91SAPE   H2R 8879   4.860   5.452   7.092  2.2533  0.7908  0.2870
   91SAPE   H2S 8880   4.760   5.597   7.134  0.3594  0.2953  0.5202
   91SAPE    C3 8881   5.271   5.651   7.145  0.0992  0.0222 -0.4644
   91SAPE    HX 8882   5.355   5.689   7.207 -0.8510  1.4857 -0.0134
   91SAPE    HY 8883   5.208   5.740   7.124  0.0597 -0.2104 -1.3476
   91SAPE   O31 8884   5.309   5.567   7.028 -0.4288 -0.2385 -0.5227
   91SAPE   C31 8885   5.355   5.644   6.934  0.2905 -0.0756 -0.1904
   91SAPE   O32 8886   5.341   5.765   6.932  0.1799  0.2384  0.1625
   91SAPE   C32 8887   5.419   5.559   6.826  0.0303 -0.2130 -0.2425
   91SAPE   H2X 8888   5.423   5.452   6.856 -2.1192 -0.7107 -1.5408
   91SAPE   H2Y 8889   5.516   5.606   6.799  0.8941 -0.7060  1.8435
   91SAPE   C23 8890   4.846   5.608   6.937 -0.1350  0.1215  0.3414
   91SAPE   H3R 8891   4.827   5.717   6.928  1.4838  0.3530 -0.5784
   91SAPE   H3S 8892   4.754   5.561   6.895 -0.0307 -0.5391  0.8331
   91SAPE   C24 8893   4.970   5.592   6.854  0.2102 -0.9975 -0.5022
   91SAPE   H4R 8894   5.051   5.646   6.908 -1.9428  0.9345  0.9906
   91SAPE   H4S 8895   4.969   5.639   6.753 -0.4159 -1.9843 -0.9665
   91SAPE   C25 8896   5.007   5.446   6.846 -0.4706  0.3717  0.6160
   91SAPE   H5R 8897   5.050   5.397   6.934 -1.0926 -3.5440 -1.0688
   91SAPE   C26 8898   4.982   5.372   6.734  0.2820  0.0046 -0.2946
   91SAPE   H6R 8899   5.025   5.271   6.741  0.6344  0.2624  1.6770
   91SAPE   C27 8900   4.948   5.413   6.594 -0.0193  0.3383 -0.5318
   91SAPE   H7R 8901   5.048   5.423   6.548  0.8654 -0.1028  1.2003
   91SAPE   H7S 8902   4.901   5.513   6.586  0.7606  0.6049 -2.2251
   91SAPE   C28 8903   4.865   5.300   6.532 -0.4962 -0.2075  0.1098
   91SAPE   H8R 8904   4.786   5.259   6.596 -0.0533 -0.4745  0.4941
   91SAPE   C29 8905   4.882   5.253   6.402  0.1542 -0.1780  0.0012
   91SAPE   H9R 8906   4.819   5.176   6.356  0.3845  1.3571 -3.1265
   91SAPE  C210 8907   4.995   5.282   6.308  0.1674 -0.0442 -0.5920
   91SAPE  H10R 8908   4.996   5.215   6.219  0.2408 -0.4160 -0.3095
   91SAPE  H10S 8909   5.082   5.261   6.373 -0.3616  3.4014  1.4888
   91SAPE  C211 8910   4.998   5.432   6.271 -0.1838 -0.4195  0.2704
   91SAPE  H11R 8911   4.952   5.508   6.336 -1.7474  0.2184 -1.5135
   91SAPE  C212 8912   5.075   5.474   6.169 -0.8816 -0.1957  0.8782
   91SAPE  H12R 8913   5.092   5.581   6.154  1.4133 -0.7199 -0.8536
   91SAPE  C213 8914   5.144   5.384   6.067 -0.4017  0.1427 -0.2553
   91SAPE  H13R 8915   5.143   5.428   5.965  0.2639 -0.9198 -0.7359
   91SAPE  H13S 8916   5.088   5.290   6.053  1.4167 -1.0548  0.0956
   91SAPE  C214 8917   5.286   5.358   6.124  0.3770 -0.7468  0.2826
   91SAPE  H14R 8918   5.295   5.356   6.233 -0.0901  1.3651  0.3996
   91SAPE  C215 8919   5.397   5.345   6.054  0.1582 -0.4360 -0.1122
   91SAPE  H15R 8920   5.493   5.322   6.101  0.6420  0.1218 -0.8007
   91SAPE  C216 8921   5.405   5.380   5.910 -0.2706  0.2326  0.5617
   91SAPE  H16R 8922   5.504   5.417   5.876 -0.3143  0.4139  0.6335
   91SAPE  H16S 8923   5.326   5.450   5.874 -1.3052 -1.4476 -0.5760
   91SAPE  C217 8924   5.367   5.250   5.829  0.1227  0.2553  0.6095
   91SAPE  H17R 8925   5.270   5.220   5.873 -0.4212  3.7989  2.2082
   91SAPE  H17S 8926   5.445   5.175   5.853  1.3128  1.1023 -0.4667
   91SAPE  C218 8927   5.356   5.291   5.680  0.3504 -0.4784  0.6362
   91SAPE  H18R 8928   5.435   5.365   5.659 -0.3845  0.7519  2.0291
   91SAPE  H18S 8929   5.271   5.362   5.681  0.4211 -0.3946  0.9080
   91SAPE  C219 8930   5.332   5.176   5.581 -0.1328  0.2645  0.0408
   91SAPE  H19R 8931   5.233   5.126   5.596  1.3444 -3.4669 -1.4557
   91SAPE  H19S 8932   5.418   5.106   5.591 -0.3621  0.1493  1.5259
   91SAPE  C220 8933   5.317   5.226   5.437  1.0550  0.1423  0.9543
   91SAPE  H20R 8934   5.280   5.148   5.368 -1.1579  1.8633  0.0882
   91SAPE  H20S 8935   5.407   5.281   5.401 -0.4224  0.7036 -2.1854
   91SAPE  H20T 8936   5.231   5.295   5.430 -1.0033 -2.4205 -0.8448
   91SAPE   C33 8937   5.335   5.556   6.701  0.8366 -0.4999  0.1814
   91SAPE   H3X 8938   5.228   5.530   6.718  0.3514  0.9847 -0.4319
   91SAPE   H3Y 8939   5.367   5.474   6.633  1.3800  0.9820 -1.4030
   91SAPE   C34 8940   5.341   5.688   6.617 -0.4561 -0.7921 -0.5282
   91SAPE   H4X 8941   5.442   5.721   6.584 -0.9433  0.7368 -0.5268
   91SAPE   H4Y 8942   5.302   5.771   6.680 -0.8077 -1.3841  0.0501
   91SAPE   C35 8943   5.242   5.695   6.502  0.0323 -0.5021  0.4545
   91SAPE   H5X 8944   5.140   5.670   6.538  0.3576 -3.3265 -0.2870
   91SAPE   H5Y 8945   5.254   5.612   6.429  0.2353 -1.8535  1.9511
   91SAPE   C36 8946   5.249   5.826   6.420 -0.1045 -0.3521  0.5003
   91SAPE   H6X 8947   5.354   5.823   6.382  0.1695 -1.1899  1.2812
   91SAPE   H6Y 8948   5.220   5.916   6.479  1.0102  0.3560 -0.0008
   91SAPE   C37 8949   5.172   5.829   6.291  0.1094  0.3491 -0.1913
   91SAPE   H7X 8950   5.118   5.924   6.272  0.8501  0.8818  0.3050
   91SAPE   H7Y 8951   5.101   5.745   6.279  1.9544 -1.4222  0.6642
   91SAPE   C38 8952   5.272   5.813   6.174  0.0918 -0.3343 -0.2551
   91SAPE   H8X 8953   5.332   5.720   6.182 -0.9222 -1.0383 -0.7159
   91SAPE   H8Y 8954   5.346   5.896   6.183  1.2313 -1.2211 -1.1083
   91SAPE   C39 8955   5.204   5.818   6.035 -0.5960  0.2013 -0.8425
   91SAPE   H9X 8956   5.150   5.912   6.011 -0.0887  0.4167 -1.1659
   91SAPE   H9Y 8957   5.131   5.736   6.022  0.0840 -0.2442 -1.9785
   91SAPE  C310 8958   5.314   5.809   5.930 -0.4229 -0.4359 -0.8608
   91SAPE  H10X 8959   5.380   5.723   5.955 -0.2815 -0.8956 -2.6538
   91SAPE  H10Y 8960   5.385   5.892   5.946 -1.4706  0.6304 -1.5819
   91SAPE  C311 8961   5.269   5.791   5.781  0.0191 -0.3641 -0.6041
   91SAPE  H11X 8962   5.228   5.890   5.755  0.8683  0.5582  1.3378
   91SAPE  H11Y 8963   5.190   5.713   5.783  2.0773 -2.5922 -0.5065
   91SAPE  C312 8964   5.385   5.752   5.692 -0.2326  0.6224 -0.5553
   91SAPE  H12X 8965   5.423   5.653   5.725 -2.2068 -0.0818 -0.2832
   91SAPE  H12Y 8966   5.457   5.835   5.712  1.9172 -1.3004  0.0768
   91SAPE  C313 8967   5.359   5.755   5.538 -0.5119 -0.4298  0.6755
   91SAPE  H13X 8968   5.349   5.862   5.509 -1.7146 -1.2376 -2.3169
   91SAPE  H13Y 8969   5.261   5.709   5.513  0.0363 -1.2118 -0.1198
   91SAPE  C314 8970   5.475   5.692   5.466 -0.0649 -0.2196 -0.0622
   91SAPE  H14X 8971   5.475   5.586   5.498 -1.2003 -0.0872  0.4280
   91SAPE  H14Y 8972   5.572   5.739   5.491 -0.9486  1.2824  0.7027
   91SAPE  C315 8973   5.469   5.684   5.313  0.0463 -0.4238  0.1027
   91SAPE  H15X 8974   5.571   5.659   5.278 -1.2982 -1.8672 -3.1948
   91SAPE  H15Y 8975   5.470   5.788   5.275  2.9174 -0.9235 -1.4079
   91SAPE  C316 8976   5.351   5.597   5.264 -0.3709 -0.2050  0.3000
   91SAPE  H16X 8977   5.257   5.644   5.299  0.3176 -0.1665  2.1747
   91SAPE  H16Y 8978   5.349   5.494   5.307 -0.6091  0.4415  1.8973
   91SAPE  C317 8979   5.326   5.594   5.109 -0.2807 -0.8397  0.0511
   91SAPE  H17X 8980   5.416   5.567   5.049 -0.1039  0.1548 -0.1371
   91SAPE  H17Y 8981   5.310   5.700   5.082  0.8095 -0.8461 -0.6729
   91SAPE  C318 8982   5.207   5.516   5.063  0.2450 -0.3654  0.1276
   91SAPE  H18X 8983   5.165   5.552   4.967 -0.3596  0.8652  0.8307
   91SAPE  H18Y 8984   5.118   5.525   5.129 -0.3904 -0.5675 -0.6819
   91SAPE  H18Z 8985   5.231   5.407   5.057 -1.5464 -0.7485 -1.0069
   92SAPE     N 8986   5.775   6.363   7.584  0.1970 -0.0939  0.2931
   92SAPE   HN1 8987   5.827   6.423   7.651 -2.4510 -0.9579  3.3796
   92SAPE   HN2 8988   5.703   6.416   7.531 -1.3526 -2.7135 -0.4037
   92SAPE   HN3 8989   5.711   6.304   7.640  0.7963  1.1752  2.4346
   92SAPE   C12 8990   5.854   6.279   7.493 -0.3579  0.0683  0.6906
   92SAPE  H12A 8991   5.899   6.193   7.545  0.7898  0.2789  0.0709
   92SAPE  H12B 8992   5.929   6.349   7.451  0.2063 -0.3296  1.0279
   92SAPE   C11 8993   5.760   6.243   7.374 -0.2320 -0.8829  0.5741
   92SAPE  H11A 8994   5.805   6.161   7.314  0.8480 -0.2959  0.5615
   92SAPE  H11B 8995   5.774   6.321   7.297  1.0784  0.4562  2.0800
   92SAPE     P 8996   5.559   6.087   7.420 -0.0153  0.1539  0.1732
   92SAPE   O13 8997   5.599   6.024   7.546 -0.5781  0.3114 -0.5102
   92SAPE   O14 8998   5.411   6.114   7.396 -0.1129 -0.0059 -0.6069
   92SAPE   O12 8999   5.620   6.230   7.409 -0.9179  0.5293 -0.3926
   92SAPE   O11 9000   5.623   6.000   7.299  0.0021  0.1968  0.3564
   92SAPE    C1 9001   5.536   5.945   7.198  0.6167  0.5293 -0.6329
   92SAPE    HA 9002   5.544   5.835   7.211 -1.4819  0.3962 -0.2256
   92SAPE    HB 9003   5.428   5.968   7.206  0.3196 -0.6068 -1.2125
   92SAPE    C2 9004   5.594   5.983   7.060  0.0161  0.5291 -0.1488
   92SAPE    HS 9005   5.533   5.949   6.973 -0.0501  2.8993 -1.1179
   92SAPE   O21 9006   5.721   5.922   7.039 -0.1220  0.2445 -0.7214
   92SAPE   C21 9007   5.737   5.796   7.013 -0.6120  0.6458 -0.4819
   92SAPE   O22 9008   5.652   5.709   7.005  0.5161 -0.2364 -0.4825
   92SAPE   C22 9009   5.882   5.766   6.978  0.4767 -0.3788 -0.6849
   92SAPE   H2R 9010   5.941   5.860   6.987  0.1963 -0.4087  2.0984
   92SAPE   H2S 9011   5.923   5.708   7.063 -1.5465  0.4899  0.9491
   92SAPE    C3 9012   5.609   6.136   7.041  0.2722 -0.4564  0.3900
   92SAPE    HX 9013   5.686   6.180   7.108 -1.1953 -0.0614  1.8795
   92SAPE    HY 9014   5.520   6.199   7.062  1.2777  0.7695  1.1624
   92SAPE   O31 9015   5.645   6.157   6.903  0.0731 -0.4490  0.0332
   92SAPE   C31 9016   5.543   6.151   6.813  0.7754 -0.4390 -0.5303
   92SAPE   O32 9017   5.423   6.140   6.842  0.0786 -0.2365  0.2471
   92SAPE   C32 9018   5.602   6.150   6.668 -0.5404 -0.2880  0.1023
   92SAPE   H2X 9019   5.655   6.052   6.664  0.5629  0.2529  0.7213
   92SAPE   H2Y 9020   5.676   6.233   6.678 -0.0658 -0.9270  2.4326
   92SAPE   C23 9021   5.902   5.695   6.834 -0.3341  0.1350 -0.5450
   92SAPE   H3R 9022   5.812   5.630   6.823 -1.0143  0.8727  0.3787
   92SAPE   H3S 9023   6.005   5.655   6.824  0.5124  2.2957 -1.0465
   92SAPE   C24 9024   5.900   5.795   6.714  0.9438 -0.4966  0.4872
   92SAPE   H4R 9025   5.963   5.886   6.724 -0.0709  0.2650  0.1746
   92SAPE   H4S 9026   5.793   5.827   6.713  0.9291 -0.5523  0.2182
   92SAPE   C25 9027   5.935   5.727   6.583 -0.1071  0.1786 -0.1498
   92SAPE   H5R 9028   6.034   5.681   6.570  1.0754  2.3352  0.6712
   92SAPE   C26 9029   5.858   5.699   6.475 -0.3173  0.1317 -0.1446
   92SAPE   H6R 9030   5.904   5.647   6.389  0.4330 -0.0465  0.3489
   92SAPE   C27 9031   5.709   5.745   6.459  0.7074  0.7849 -0.6594
   92SAPE   H7R 9032   5.701   5.839   6.400  0.8014  0.2420 -1.5475
   92SAPE   H7S 9033   5.662   5.780   6.554  0.7598 -0.5567 -0.1193
   92SAPE   C28 9034   5.636   5.631   6.399 -0.4837  0.0040  0.0537
   92SAPE   H8R 9035   5.588   5.563   6.471 -0.6159  0.2567  0.2052
   92SAPE   C29 9036   5.638   5.601   6.270  0.2094  0.6491  0.5662
   92SAPE   H9R 9037   5.577   5.513   6.244 -0.3437  1.8567 -2.6413
   92SAPE  C210 9038   5.697   5.678   6.150 -0.0073 -0.5552 -0.8117
   92SAPE  H10R 9039   5.750   5.766   6.191  0.6838  0.0320 -2.8413
   92SAPE  H10S 9040   5.605   5.714   6.099 -0.2839  1.9364  1.2860
   92SAPE  C211 9041   5.782   5.596   6.058 -0.7926  0.2006  0.0519
   92SAPE  H11R 9042   5.837   5.514   6.106  1.0242  1.8813  0.9290
   92SAPE  C212 9043   5.778   5.596   5.917  0.2350  0.3327  0.9613
   92SAPE  H12R 9044   5.843   5.530   5.857 -1.7973 -0.4034 -0.5568
   92SAPE  C213 9045   5.680   5.681   5.831  0.0658  0.2983 -0.0059
   92SAPE  H13R 9046   5.586   5.703   5.884 -0.8902  0.5432 -1.7318
   92SAPE  H13S 9047   5.644   5.624   5.743  1.5212 -0.1423 -0.3446
   92SAPE  C214 9048   5.759   5.802   5.784  0.0574 -0.4752  0.4036
   92SAPE  H14R 9049   5.753   5.885   5.856  3.4046  0.2822 -0.0600
   92SAPE  C215 9050   5.830   5.816   5.669  0.4056 -0.3777  1.0328
   92SAPE  H15R 9051   5.891   5.907   5.661  0.1733  0.1782  4.1800
   92SAPE  C216 9052   5.848   5.715   5.562  0.2418 -0.1352  0.3877
   92SAPE  H16R 9053   5.808   5.733   5.460  0.2639 -1.5559  0.1041
   92SAPE  H16S 9054   5.804   5.616   5.587 -2.0852 -0.3867 -3.7401
   92SAPE  C217 9055   6.002   5.683   5.560  0.0944 -0.9668  0.7358
   92SAPE  H17R 9056   6.016   5.587   5.506 -1.1345 -1.0837  0.5977
   92SAPE  H17S 9057   6.035   5.664   5.664  1.3749 -1.0090  0.3423
   92SAPE  C218 9058   6.088   5.795   5.497  0.2887 -0.5178 -0.2926
   92SAPE  H18R 9059   6.084   5.885   5.562 -0.5497 -0.2937 -0.6454
   92SAPE  H18S 9060   6.050   5.815   5.395 -0.2164 -1.0842 -0.2204
   92SAPE  C219 9061   6.243   5.771   5.493 -0.3720 -0.1791  0.4769
   92SAPE  H19R 9062   6.264   5.680   5.432 -1.2754 -0.4648  0.5834
   92SAPE  H19S 9063   6.284   5.752   5.594  0.8044  2.1601  0.5091
   92SAPE  C220 9064   6.317   5.887   5.419  0.0909 -0.0470  0.0398
   92SAPE  H20R 9065   6.282   5.883   5.313  1.7826  1.6047 -0.6502
   92SAPE  H20S 9066   6.427   5.873   5.417  0.0103 -0.6822 -0.3803
   92SAPE  H20T 9067   6.305   5.985   5.469  2.8740  0.6694 -0.5323
   92SAPE   C33 9068   5.499   6.177   6.551  0.5432  0.8752  0.3533
   92SAPE   H3X 9069   5.461   6.280   6.566  1.3378  1.3726 -0.9048
   92SAPE   H3Y 9070   5.420   6.100   6.563  0.3962  0.2991 -3.3175
   92SAPE   C34 9071   5.574   6.138   6.418  0.2396  0.4067 -0.7386
   92SAPE   H4X 9072   5.603   6.031   6.429  0.0614  0.4903  0.6918
   92SAPE   H4Y 9073   5.659   6.206   6.395  1.6069 -0.6851  0.8505
   92SAPE   C35 9074   5.473   6.140   6.300  0.6972 -0.1893 -0.0081
   92SAPE   H5X 9075   5.421   6.237   6.285  0.5849 -0.7462 -5.0227
   92SAPE   H5Y 9076   5.404   6.054   6.313  2.6263 -1.8016  0.1468
   92SAPE   C36 9077   5.552   6.117   6.171  0.0583  0.3178  0.4317
   92SAPE   H6X 9078   5.577   6.009   6.158 -1.4231  0.0438 -0.3921
   92SAPE   H6Y 9079   5.654   6.159   6.181  1.4611 -2.9920  1.3793
   92SAPE   C37 9080   5.475   6.162   6.047 -0.2881 -0.6561 -0.0483
   92SAPE   H7X 9081   5.474   6.273   6.052  0.6075 -0.7103  1.9722
   92SAPE   H7Y 9082   5.371   6.123   6.042 -0.5844 -0.0415  1.1755
   92SAPE   C38 9083   5.560   6.118   5.921  0.0613  0.3716  0.4505
   92SAPE   H8X 9084   5.584   6.010   5.922  0.5992  0.4657  2.6369
   92SAPE   H8Y 9085   5.658   6.167   5.937  0.1938  0.4179 -0.4834
   92SAPE   C39 9086   5.510   6.176   5.790 -0.0415 -0.3744 -0.0818
   92SAPE   H9X 9087   5.493   6.285   5.807  1.6248 -0.2793  1.3057
   92SAPE   H9Y 9088   5.419   6.120   5.760  0.1923 -0.4541 -0.6448
   92SAPE  C310 9089   5.618   6.154   5.683  0.2065  0.5327  0.4109
   92SAPE  H10X 9090   5.629   6.045   5.668  1.4285  0.7549 -0.5301
   92SAPE  H10Y 9091   5.717   6.202   5.700  0.1426  0.7720  0.1157
   92SAPE  C311 9092   5.561   6.198   5.548 -0.1767 -0.2000  0.2279
   92SAPE  H11X 9093   5.537   6.306   5.555 -0.6603 -0.2517 -0.4239
   92SAPE  H11Y 9094   5.461   6.148   5.541 -1.3770  1.7521  2.2212
   92SAPE  C312 9095   5.651   6.172   5.419 -0.0367  0.5390  0.2303
   92SAPE  H12X 9096   5.748   6.225   5.421 -0.3774  1.2097 -0.5181
   92SAPE  H12Y 9097   5.598   6.214   5.332  0.5268 -0.6958 -0.7447
   92SAPE  C313 9098   5.684   6.027   5.384 -0.1568  0.3304  0.0617
   92SAPE  H13X 9099   5.585   5.976   5.378  0.1313 -0.1745 -0.5362
   92SAPE  H13Y 9100   5.728   5.972   5.470 -0.9336  1.0888  0.9638
   92SAPE  C314 9101   5.762   6.002   5.249 -0.0526 -0.4199  0.4620
   92SAPE  H14X 9102   5.697   6.045   5.169  0.0223 -0.0299  0.6069
   92SAPE  H14Y 9103   5.779   5.894   5.228  0.1709 -0.3370  0.2129
   92SAPE  C315 9104   5.902   6.075   5.245  0.5517 -0.1959 -0.1188
   92SAPE  H15X 9105   5.970   6.020   5.314  0.6432 -1.9019 -1.5103
   92SAPE  H15Y 9106   5.895   6.172   5.300 -0.8127 -0.4982  0.2880
   92SAPE  C316 9107   5.963   6.092   5.108  0.1392 -0.5446  0.0892
   92SAPE  H16X 9108   6.052   6.159   5.105 -0.2288 -0.0690 -0.3002
   92SAPE  H16Y 9109   5.903   6.152   5.037  1.4433 -0.8061 -1.2812
   92SAPE  C317 9110   5.999   5.958   5.047  0.0374  0.4885 -0.1223
   92SAPE  H17X 9111   5.908   5.894   5.048  0.1731  0.2827 -0.6238
   92SAPE  H17Y 9112   6.073   5.903   5.110  0.7557  1.0432 -0.4589
   92SAPE  C318 9113   6.037   5.958   4.901 -0.3106 -0.5274 -0.7081
   92SAPE  H18X 9114   5.964   6.030   4.857 -1.0013  0.6577  2.1296
   92SAPE  H18Y 9115   6.039   5.861   4.848  0.6152 -0.3222 -1.0779
   92SAPE  H18Z 9116   6.135   6.009   4.887 -1.8632  3.2721  0.7354
   93SAPE     N 9117   1.720   4.032   7.519 -0.6093 -0.1033 -0.1584
   93SAPE   HN1 9118   1.725   4.000   7.420 -0.6888  1.1520 -0.5816
   93SAPE   HN2 9119   1.620   4.030   7.547 -0.5652 -1.1108 -0.0373
   93SAPE   HN3 9120   1.758   4.128   7.507  0.6157 -0.5065  0.2406
   93SAPE   C12 9121   1.812   3.961   7.608  0.6725 -0.4526  0.1320
   93SAPE  H12A 9122   1.791   3.979   7.715 -2.0614  0.7148 -0.5070
   93SAPE  H12B 9123   1.919   3.984   7.590  1.6997 -3.3895  1.8404
   93SAPE   C11 9124   1.807   3.813   7.582  0.3536  0.3222 -0.6509
   93SAPE  H11A 9125   1.713   3.758   7.604  2.2119 -2.5618  0.7239
   93SAPE  H11B 9126   1.873   3.763   7.656  0.8376 -1.8274 -2.4308
   93SAPE     P 9127   1.969   3.669   7.441 -0.0221 -0.0872  0.0111
   93SAPE   O13 9128   2.093   3.719   7.507  0.1057  0.2035 -0.3321
   93SAPE   O14 9129   1.915   3.548   7.507 -0.3756 -0.1740 -0.1349
   93SAPE   O12 9130   1.859   3.790   7.447 -0.0246 -0.2390  0.0362
   93SAPE   O11 9131   1.993   3.641   7.288 -0.1213  0.0684  0.4275
   93SAPE    C1 9132   1.927   3.701   7.177  0.2739  0.5636  0.5557
   93SAPE    HA 9133   1.925   3.626   7.095  1.1294 -0.7252  1.6791
   93SAPE    HB 9134   1.826   3.734   7.210  0.0477  1.5559 -0.9964
   93SAPE    C2 9135   2.006   3.818   7.127 -0.2483  0.9283  0.1781
   93SAPE    HS 9136   1.981   3.908   7.186  2.2450  0.3872  2.2137
   93SAPE   O21 9137   1.991   3.846   6.984 -0.4448 -0.1020 -0.6924
   93SAPE   C21 9138   1.883   3.909   6.948 -0.5234 -0.0437  0.6219
   93SAPE   O22 9139   1.782   3.930   7.014 -0.4755 -0.2797 -0.5339
   93SAPE   C22 9140   1.880   3.914   6.788 -0.5719 -0.1047  0.3180
   93SAPE   H2R 9141   1.888   3.809   6.751  1.8973  1.2976 -3.7224
   93SAPE   H2S 9142   1.786   3.971   6.777  0.7680  2.1472  0.0587
   93SAPE    C3 9143   2.163   3.808   7.153 -0.4637 -0.0353  0.6589
   93SAPE    HX 9144   2.186   3.703   7.123  0.4712  0.2890  0.1800
   93SAPE    HY 9145   2.187   3.807   7.261  2.1946 -1.5235  0.1604
   93SAPE   O31 9146   2.248   3.895   7.075  0.1416 -0.2824  0.1818
   93SAPE   C31 9147   2.241   4.021   7.109  0.3167 -0.6186 -0.0182
   93SAPE   O32 9148   2.192   4.061   7.215  0.3313 -0.2254 -0.0713
   93SAPE   C32 9149   2.303   4.098   6.997  0.0840 -0.5284  0.0456
   93SAPE   H2X 9150   2.262   4.080   6.895  2.4228  0.5789 -1.1613
   93SAPE   H2Y 9151   2.408   4.062   6.997 -0.5967 -2.6294 -0.8719
   93SAPE   C23 9152   2.006   3.994   6.756  0.0262 -0.0116  0.9514
   93SAPE   H3R 9153   2.099   3.951   6.800 -0.1648 -0.1953  1.1762
   93SAPE   H3S 9154   2.003   4.094   6.804 -0.0859  0.5866 -0.2753
   93SAPE   C24 9155   2.024   4.008   6.603  0.3042 -0.7183 -0.7745
   93SAPE   H4R 9156   2.079   4.102   6.584 -0.7873  0.4436  1.4700
   93SAPE   H4S 9157   1.926   4.041   6.563 -0.4425 -0.3109  1.2878
   93SAPE   C25 9158   2.076   3.887   6.534  0.0574 -0.3899 -0.1440
   93SAPE   H5R 9159   2.000   3.809   6.517 -1.6074  1.2111 -0.2955
   93SAPE   C26 9160   2.184   3.888   6.455 -0.6070  0.5005 -0.5412
   93SAPE   H6R 9161   2.216   3.802   6.395 -0.5224  1.3788 -1.7923
   93SAPE   C27 9162   2.295   3.992   6.439  0.1793  0.3031 -0.1723
   93SAPE   H7R 9163   2.400   3.957   6.451  0.2312  0.6787  0.5276
   93SAPE   H7S 9164   2.280   4.054   6.530 -0.8226 -0.0158 -0.1048
   93SAPE   C28 9165   2.260   4.075   6.310 -0.3058 -0.4897  0.4933
   93SAPE   H8R 9166   2.169   4.136   6.316  1.2782  2.0343  0.3405
   93SAPE   C29 9167   2.325   4.075   6.194  0.3238 -0.5460  0.4632
   93SAPE   H9R 9168   2.266   4.130   6.120  0.3775  0.4688  1.1502
   93SAPE  C210 9169   2.436   3.988   6.145 -0.5144  0.2486 -0.1696
   93SAPE  H10R 9170   2.502   3.996   6.234 -2.0925 -0.8618  1.1737
   93SAPE  H10S 9171   2.485   4.035   6.058 -2.2051  0.1481 -1.2309
   93SAPE  C211 9172   2.406   3.844   6.123 -0.6950 -0.0726  0.6566
   93SAPE  H11R 9173   2.415   3.776   6.209 -1.0916 -0.5005  0.3630
   93SAPE  C212 9174   2.368   3.790   6.008  0.0206 -0.0502 -0.4856
   93SAPE  H12R 9175   2.362   3.681   6.002  0.2523 -0.1460  0.7930
   93SAPE  C213 9176   2.343   3.860   5.875 -0.5282 -0.0534 -0.3033
   93SAPE  H13R 9177   2.366   3.969   5.879  0.1308 -0.0754 -2.4441
   93SAPE  H13S 9178   2.236   3.854   5.845 -0.8876 -0.9013  1.0383
   93SAPE  C214 9179   2.419   3.817   5.748 -0.2627 -0.0894 -0.4813
   93SAPE  H14R 9180   2.465   3.718   5.745  0.9932  0.4753 -0.3899
   93SAPE  C215 9181   2.435   3.897   5.642 -0.5028  0.7617  0.6699
   93SAPE  H15R 9182   2.498   3.863   5.558 -1.8774  1.1605 -0.5805
   93SAPE  C216 9183   2.394   4.039   5.620  0.3533  1.3158  0.1348
   93SAPE  H16R 9184   2.469   4.108   5.666 -0.1429  1.2468  1.0761
   93SAPE  H16S 9185   2.303   4.047   5.683  0.7192  1.5119  0.6518
   93SAPE  C217 9186   2.358   4.073   5.480 -0.0543 -0.3281  0.0379
   93SAPE  H17R 9187   2.443   4.051   5.412  1.1805 -2.0651  2.0209
   93SAPE  H17S 9188   2.352   4.183   5.469  2.0713 -0.3219 -1.8525
   93SAPE  C218 9189   2.230   4.011   5.428  0.7580  0.1606  0.2242
   93SAPE  H18R 9190   2.144   4.019   5.499 -1.8351  2.3442 -2.8566
   93SAPE  H18S 9191   2.244   3.901   5.426 -1.9784 -0.3149  1.3760
   93SAPE  C219 9192   2.189   4.064   5.289  0.8000  0.5006 -0.0191
   93SAPE  H19R 9193   2.263   4.018   5.220  0.2877 -0.0376 -0.2254
   93SAPE  H19S 9194   2.195   4.174   5.278 -1.1079  1.0730  3.2696
   93SAPE  C220 9195   2.055   4.006   5.247 -0.0329  0.1773  0.0499
   93SAPE  H20R 9196   1.966   4.047   5.299  0.0415  1.3207 -0.6797
   93SAPE  H20S 9197   2.050   3.897   5.266 -1.6204  0.1880 -0.1565
   93SAPE  H20T 9198   2.049   4.033   5.139  0.0968  1.7393  0.4037
   93SAPE   C33 9199   2.312   4.251   7.021  0.5653  0.0407  0.4927
   93SAPE   H3X 9200   2.395   4.266   7.093  0.7202  0.6058  0.2017
   93SAPE   H3Y 9201   2.225   4.290   7.078 -0.4722 -0.3408 -0.7866
   93SAPE   C34 9202   2.335   4.332   6.898  0.5421 -0.2775 -0.3565
   93SAPE   H4X 9203   2.419   4.287   6.841  2.0488  1.3766  0.4874
   93SAPE   H4Y 9204   2.383   4.425   6.934 -0.1859 -0.3560  0.8731
   93SAPE   C35 9205   2.210   4.362   6.808 -0.2644 -0.5570  0.2928
   93SAPE   H5X 9206   2.137   4.389   6.888  0.7286 -0.8822  1.3348
   93SAPE   H5Y 9207   2.174   4.284   6.738  0.4926 -0.8984  0.2806
   93SAPE   C36 9208   2.224   4.496   6.725 -0.4780  1.1550  0.7380
   93SAPE   H6X 9209   2.264   4.576   6.790 -0.9462  0.7239  1.5622
   93SAPE   H6Y 9210   2.119   4.525   6.701 -1.0034 -1.3598 -0.3470
   93SAPE   C37 9211   2.314   4.471   6.604  0.2970 -0.3559 -0.3354
   93SAPE   H7X 9212   2.302   4.366   6.569 -0.8521 -0.7244  1.0923
   93SAPE   H7Y 9213   2.418   4.486   6.639  0.0868 -0.0649  0.1710
   93SAPE   C38 9214   2.292   4.567   6.488  0.6628  1.1273 -0.0860
   93SAPE   H8X 9215   2.329   4.669   6.513  2.3808  1.2126 -2.5722
   93SAPE   H8Y 9216   2.183   4.564   6.467  0.6685 -3.5298 -0.4140
   93SAPE   C39 9217   2.375   4.547   6.363 -0.1232  0.2591 -0.2014
   93SAPE   H9X 9218   2.465   4.503   6.411 -1.3582  0.5931  2.6523
   93SAPE   H9Y 9219   2.401   4.646   6.320 -0.5740  1.3504  1.9092
   93SAPE  C310 9220   2.310   4.452   6.259  0.3586  0.0270  0.2821
   93SAPE  H10X 9221   2.201   4.469   6.263  0.4340  0.9404 -0.8896
   93SAPE  H10Y 9222   2.331   4.344   6.277  1.5099  0.3236  0.7990
   93SAPE  C311 9223   2.353   4.489   6.109  0.3790  0.1449 -0.2956
   93SAPE  H11X 9224   2.433   4.425   6.067 -1.8192 -3.8653  1.0350
   93SAPE  H11Y 9225   2.390   4.593   6.111 -3.3120  1.6203 -0.9678
   93SAPE  C312 9226   2.229   4.491   6.010  0.3499 -0.3968  0.9261
   93SAPE  H12X 9227   2.157   4.569   6.041  1.0789  2.3216 -3.4038
   93SAPE  H12Y 9228   2.178   4.393   6.012  0.6053 -0.5296  2.6918
   93SAPE  C313 9229   2.282   4.528   5.868 -0.0035 -0.0934 -0.9243
   93SAPE  H13X 9230   2.351   4.442   5.850  0.9089 -0.4595  3.2406
   93SAPE  H13Y 9231   2.343   4.621   5.868 -0.2248  0.1324  2.0517
   93SAPE  C314 9232   2.162   4.535   5.766  0.0938 -0.4566  0.3106
   93SAPE  H14X 9233   2.186   4.612   5.690  0.0115 -2.3648 -1.7414
   93SAPE  H14Y 9234   2.074   4.567   5.827 -0.2324 -1.0785  0.1664
   93SAPE  C315 9235   2.139   4.410   5.686  0.1399 -0.2121  0.6097
   93SAPE  H15X 9236   2.095   4.322   5.739 -1.8106 -0.0829 -0.6980
   93SAPE  H15Y 9237   2.234   4.365   5.649 -0.3464 -1.1632  0.4652
   93SAPE  C316 9238   2.073   4.443   5.553  0.9128  0.1644 -0.4418
   93SAPE  H16X 9239   2.136   4.506   5.487  0.8525 -1.4152 -2.1185
   93SAPE  H16Y 9240   1.989   4.511   5.575  2.3224  1.0079  2.9234
   93SAPE  C317 9241   2.018   4.332   5.466 -0.2886  0.1307 -0.4449
   93SAPE  H17X 9242   1.939   4.269   5.511 -0.2553 -0.3455 -1.0416
   93SAPE  H17Y 9243   2.103   4.262   5.448  1.4295  1.7913  0.7867
   93SAPE  C318 9244   1.976   4.383   5.330  0.3920  0.0576 -0.0536
   93SAPE  H18X 9245   1.895   4.455   5.356 -1.3214 -1.7960  0.0843
   93SAPE  H18Y 9246   1.926   4.303   5.270  1.0727  0.6388 -1.4277
   93SAPE  H18Z 9247   2.053   4.435   5.271 -1.0454  2.1592 -0.1851
   94SAPE     N 9248   0.782   6.188   8.339  0.0585  0.1656 -0.4537
   94SAPE   HN1 9249   0.865   6.130   8.361 -1.6916 -1.5422  2.1475
   94SAPE   HN2 9250   0.782   6.237   8.430  2.1028 -1.0267  0.2332
   94SAPE   HN3 9251   0.693   6.135   8.330  0.2303 -0.0961 -0.6274
   94SAPE   C12 9252   0.788   6.271   8.217 -0.2662 -0.3458 -0.5391
   94SAPE  H12A 9253   0.761   6.208   8.130 -0.0146 -0.6188 -0.4163
   94SAPE  H12B 9254   0.898   6.283   8.215  0.0275 -0.8979  3.6412
   94SAPE   C11 9255   0.697   6.390   8.226 -0.1627  0.0753  0.3381
   94SAPE  H11A 9256   0.718   6.440   8.129  0.5094  0.6329  0.7551
   94SAPE  H11B 9257   0.730   6.458   8.308 -1.0333 -0.9011  1.5263
   94SAPE     P 9258   0.455   6.473   8.189  0.0408 -0.1367 -0.0593
   94SAPE   O13 9259   0.319   6.435   8.219 -0.7462  0.5834  0.0132
   94SAPE   O14 9260   0.489   6.607   8.227 -0.0367 -0.6295 -0.1131
   94SAPE   O12 9261   0.555   6.364   8.243 -0.2665  0.0510  0.3857
   94SAPE   O11 9262   0.474   6.468   8.031  0.0915 -0.0293 -0.1047
   94SAPE    C1 9263   0.490   6.331   7.968 -0.4381  0.5012  0.1290
   94SAPE    HA 9264   0.553   6.260   8.025  1.2765  0.4098 -1.7425
   94SAPE    HB 9265   0.388   6.289   7.965 -0.0913 -0.9323  3.8564
   94SAPE    C2 9266   0.547   6.335   7.820  0.0419  0.1203  0.2857
   94SAPE    HS 9267   0.649   6.375   7.835 -0.1888  1.4512 -1.3020
   94SAPE   O21 9268   0.471   6.416   7.722 -0.1368  0.6786  0.2772
   94SAPE   C21 9269   0.532   6.531   7.699 -0.0158 -0.2125  0.1656
   94SAPE   O22 9270   0.628   6.579   7.757  0.2376 -0.0379 -0.1800
   94SAPE   C22 9271   0.459   6.605   7.595  1.0278  0.3491  0.4558
   94SAPE   H2R 9272   0.356   6.614   7.636  1.6106  0.5654  1.9137
   94SAPE   H2S 9273   0.497   6.709   7.583 -1.1261  1.3194  1.4607
   94SAPE    C3 9274   0.564   6.193   7.761  0.8826 -0.7081 -0.0981
   94SAPE    HX 9275   0.474   6.132   7.786  0.8635 -1.4408 -1.8126
   94SAPE    HY 9276   0.645   6.148   7.822 -0.1193 -1.7449  0.4979
   94SAPE   O31 9277   0.583   6.192   7.620 -0.2940  0.4720 -0.6391
   94SAPE   C31 9278   0.639   6.078   7.583  0.2965 -0.2778 -0.3717
   94SAPE   O32 9279   0.669   5.988   7.658  0.1925  0.2152 -0.5798
   94SAPE   C32 9280   0.654   6.076   7.431  0.4483 -0.3565 -0.0999
   94SAPE   H2X 9281   0.692   6.172   7.391 -2.9113  0.6432 -1.2658
   94SAPE   H2Y 9282   0.550   6.070   7.390  1.0708 -0.2919 -1.7752
   94SAPE   C23 9283   0.454   6.539   7.453  0.4903 -0.7835  0.2073
   94SAPE   H3R 9284   0.408   6.601   7.373  2.7973  2.3592  1.0965
   94SAPE   H3S 9285   0.377   6.462   7.475 -1.7488  1.9703  2.9963
   94SAPE   C24 9286   0.582   6.467   7.406 -0.1205  1.0236 -0.1756
   94SAPE   H4R 9287   0.562   6.426   7.305 -0.1328 -0.0933  0.2599
   94SAPE   H4S 9288   0.612   6.396   7.486  1.1874  2.5420  0.7457
   94SAPE   C25 9289   0.692   6.565   7.391 -0.4867  0.2748  0.2480
   94SAPE   H5R 9290   0.716   6.614   7.487 -1.0388 -2.1243  1.7216
   94SAPE   C26 9291   0.755   6.588   7.275 -0.0216  0.0366  0.3683
   94SAPE   H6R 9292   0.832   6.667   7.278 -0.2074  0.1914  1.4526
   94SAPE   C27 9293   0.734   6.537   7.130  0.0684 -0.1406 -0.3434
   94SAPE   H7R 9294   0.624   6.520   7.120 -0.4045  1.0186  2.0224
   94SAPE   H7S 9295   0.778   6.435   7.134  1.3801  0.4259  0.6910
   94SAPE   C28 9296   0.792   6.634   7.023 -0.4774 -0.3717 -0.5250
   94SAPE   H8R 9297   0.867   6.701   7.066 -1.6402 -1.4382  3.6642
   94SAPE   C29 9298   0.775   6.622   6.887 -0.1043 -0.1704 -0.3271
   94SAPE   H9R 9299   0.822   6.694   6.818  0.1249 -0.8809 -0.9194
   94SAPE  C210 9300   0.693   6.518   6.824  0.2086  0.0470  0.2380
   94SAPE  H10R 9301   0.607   6.480   6.882  0.2572 -3.7444 -1.8129
   94SAPE  H10S 9302   0.765   6.434   6.810 -0.2133 -0.1162 -1.0303
   94SAPE  C211 9303   0.638   6.558   6.687  0.1449  0.3212 -0.3113
   94SAPE  H11R 9304   0.530   6.577   6.685  0.0101 -0.4174 -2.4404
   94SAPE  C212 9305   0.709   6.584   6.572  0.6483  0.2036  0.0242
   94SAPE  H12R 9306   0.649   6.620   6.487  1.4080  1.9769  0.2094
   94SAPE  C213 9307   0.857   6.561   6.541 -0.0807 -0.3939 -1.0780
   94SAPE  H13R 9308   0.848   6.488   6.457 -1.7105 -3.4460  1.4771
   94SAPE  H13S 9309   0.920   6.510   6.617 -0.9582 -1.0110 -0.7381
   94SAPE  C214 9310   0.933   6.685   6.511  0.9030  0.3685 -0.4641
   94SAPE  H14R 9311   0.937   6.754   6.596  2.0904 -2.6821  2.1796
   94SAPE  C215 9312   0.984   6.711   6.390  0.4788  0.3783 -0.1057
   94SAPE  H15R 9313   1.042   6.804   6.387  2.0076 -0.4441  2.0799
   94SAPE  C216 9314   0.984   6.629   6.260  0.2098  0.4019  0.2332
   94SAPE  H16R 9315   0.901   6.673   6.202  2.1049 -1.0095 -3.9656
   94SAPE  H16S 9316   0.951   6.525   6.284  2.0960 -0.6195 -1.3349
   94SAPE  C217 9317   1.112   6.637   6.176 -0.2306 -0.4777  0.4996
   94SAPE  H17R 9318   1.190   6.580   6.232  0.6199  1.1023  1.0094
   94SAPE  H17S 9319   1.145   6.743   6.172  0.4716 -0.7281 -2.6339
   94SAPE  C218 9320   1.111   6.582   6.030 -0.3470 -0.6647 -0.1765
   94SAPE  H18R 9321   1.022   6.629   5.984  0.3896  0.0552 -0.9119
   94SAPE  H18S 9322   1.107   6.471   6.032  1.0863 -0.7454  2.2352
   94SAPE  C219 9323   1.222   6.643   5.940  0.6668 -0.7413  0.7116
   94SAPE  H19R 9324   1.210   6.581   5.849  0.5527 -3.9223  2.7202
   94SAPE  H19S 9325   1.324   6.631   5.983  1.5257  0.9640 -0.6886
   94SAPE  C220 9326   1.198   6.793   5.929  0.5110 -0.7920 -0.4949
   94SAPE  H20R 9327   1.248   6.845   6.014  0.4087 -2.7116  0.8272
   94SAPE  H20S 9328   1.089   6.810   5.914  0.6069  1.2683  0.7796
   94SAPE  H20T 9329   1.248   6.832   5.838 -0.1095 -1.0351 -0.9487
   94SAPE   C33 9330   0.747   5.956   7.377 -0.3688 -0.4290 -0.0886
   94SAPE   H3X 9331   0.720   5.868   7.438  0.5624 -0.8117 -0.2105
   94SAPE   H3Y 9332   0.850   5.990   7.400 -0.1218 -0.7658 -0.6898
   94SAPE   C34 9333   0.731   5.919   7.229 -0.2944  0.3191 -0.1739
   94SAPE   H4X 9334   0.626   5.890   7.205 -0.4198  0.6752 -0.0759
   94SAPE   H4Y 9335   0.798   5.833   7.213  0.9269  1.1605  0.3076
   94SAPE   C35 9336   0.754   6.030   7.129 -0.1055  0.0334  0.1609
   94SAPE   H5X 9337   0.859   6.065   7.137  0.1792 -0.6890 -0.3625
   94SAPE   H5Y 9338   0.711   6.128   7.158 -0.3523 -0.4028  1.3109
   94SAPE   C36 9339   0.721   5.986   6.984 -0.5653 -0.4596  0.3300
   94SAPE   H6X 9340   0.610   5.991   6.975 -0.4370  0.7055 -0.8481
   94SAPE   H6Y 9341   0.758   5.882   6.971  0.2524 -0.0505 -0.7213
   94SAPE   C37 9342   0.798   6.065   6.877 -0.1418 -0.0196 -0.0908
   94SAPE   H7X 9343   0.907   6.052   6.890  0.2722  1.3713 -1.7497
   94SAPE   H7Y 9344   0.786   6.174   6.897 -1.3201 -0.0276 -0.6508
   94SAPE   C38 9345   0.755   6.049   6.730  0.2235  0.3080 -0.7903
   94SAPE   H8X 9346   0.646   6.054   6.714  0.3756 -0.6636 -2.3917
   94SAPE   H8Y 9347   0.778   5.940   6.718 -1.5659 -0.1846  0.0291
   94SAPE   C39 9348   0.823   6.135   6.632  0.5154 -0.7082  0.9650
   94SAPE   H9X 9349   0.932   6.117   6.640  0.4252 -2.0398 -0.4269
   94SAPE   H9Y 9350   0.792   6.238   6.662 -0.6015 -0.2591 -1.5209
   94SAPE  C310 9351   0.780   6.114   6.482  0.3216 -0.1326 -0.2334
   94SAPE  H10X 9352   0.675   6.146   6.466 -0.2185 -1.6997 -0.0197
   94SAPE  H10Y 9353   0.787   6.004   6.471 -2.4121 -0.2174 -2.0138
   94SAPE  C311 9354   0.877   6.178   6.389 -0.4783 -0.1253 -0.5037
   94SAPE  H11X 9355   0.980   6.141   6.411 -0.6814 -0.5150 -0.1783
   94SAPE  H11Y 9356   0.864   6.288   6.399  0.0233 -0.0095 -1.1017
   94SAPE  C312 9357   0.855   6.136   6.248 -0.9408  0.4308 -0.6667
   94SAPE  H12X 9358   0.748   6.154   6.228 -0.5784  1.2313 -1.9842
   94SAPE  H12Y 9359   0.878   6.030   6.225  3.0068  0.8838  0.4207
   94SAPE  C313 9360   0.934   6.234   6.146 -1.0054  1.1583  0.2804
   94SAPE  H13X 9361   1.037   6.223   6.187 -1.3690 -2.1061  0.5862
   94SAPE  H13Y 9362   0.904   6.338   6.170  2.7166  2.1702  1.1739
   94SAPE  C314 9363   0.928   6.203   5.997 -0.5008  0.1097 -0.1052
   94SAPE  H14X 9364   0.938   6.098   5.962 -0.3693  0.4095 -1.0131
   94SAPE  H14Y 9365   1.014   6.254   5.947 -0.8871 -0.3317 -1.2660
   94SAPE  C315 9366   0.805   6.265   5.930 -0.5755 -0.1889  0.0034
   94SAPE  H15X 9367   0.804   6.369   5.968  2.2612 -0.5838  1.4326
   94SAPE  H15Y 9368   0.715   6.203   5.947 -0.8277 -0.1039 -0.9631
   94SAPE  C316 9369   0.823   6.283   5.771 -0.4457  0.3935 -0.4493
   94SAPE  H16X 9370   0.827   6.184   5.722  2.7936 -0.3138  1.0041
   94SAPE  H16Y 9371   0.915   6.338   5.739 -0.6694  1.2516  0.3414
   94SAPE  C317 9372   0.704   6.366   5.716  0.5694 -0.0205 -0.2007
   94SAPE  H17X 9373   0.723   6.469   5.753  0.0833  0.8007 -2.1058
   94SAPE  H17Y 9374   0.616   6.315   5.760  1.1954  0.1484  1.2998
   94SAPE  C318 9375   0.692   6.360   5.565 -0.2133 -0.4255 -0.4034
   94SAPE  H18X 9376   0.760   6.425   5.505 -1.9756 -0.7699 -2.9409
   94SAPE  H18Y 9377   0.596   6.389   5.518 -0.2707 -1.4345 -0.9543
   94SAPE  H18Z 9378   0.721   6.256   5.537 -0.1981 -1.0904  1.8995
   95SAPE     N 9379   3.722   4.330   7.366  0.3560  0.3673 -0.1575
   95SAPE   HN1 9380   3.813   4.288   7.392 -0.0145 -0.4528 -0.1644
   95SAPE   HN2 9381   3.712   4.425   7.408 -2.8836 -0.1776  0.5872
   95SAPE   HN3 9382   3.648   4.273   7.412 -0.0440  0.8449 -0.1989
   95SAPE   C12 9383   3.705   4.326   7.222 -0.2619 -0.1153 -0.4968
   95SAPE  H12A 9384   3.605   4.372   7.211 -0.7599 -1.1110 -0.2869
   95SAPE  H12B 9385   3.692   4.223   7.183 -0.2125 -1.0384  1.7729
   95SAPE   C11 9386   3.810   4.412   7.153 -0.3174  0.1038  0.1813
   95SAPE  H11A 9387   3.772   4.426   7.049 -0.5713  0.9779  0.3764
   95SAPE  H11B 9388   3.911   4.367   7.144 -0.7777 -0.5674 -3.0620
   95SAPE     P 9389   3.733   4.657   7.183 -0.0279  0.4251  0.1229
   95SAPE   O13 9390   3.595   4.626   7.215  0.0510 -1.0029 -0.1544
   95SAPE   O14 9391   3.795   4.778   7.245 -0.1194  0.2950  0.3468
   95SAPE   O12 9392   3.824   4.538   7.218 -0.4800 -0.8645  0.2890
   95SAPE   O11 9393   3.748   4.661   7.021 -0.3990  0.0170  0.0504
   95SAPE    C1 9394   3.876   4.658   6.959  0.4021 -0.5747  0.2936
   95SAPE    HA 9395   3.954   4.693   7.030 -1.2779  2.4339  0.8097
   95SAPE    HB 9396   3.901   4.554   6.927  2.3637  0.5290 -2.0562
   95SAPE    C2 9397   3.873   4.754   6.836 -0.0328 -0.4409 -0.5532
   95SAPE    HS 9398   3.968   4.751   6.779 -0.3066 -0.3829 -1.0133
   95SAPE   O21 9399   3.846   4.888   6.878  0.2279 -0.3434  0.1133
   95SAPE   C21 9400   3.948   4.952   6.928  0.0743  0.4096  0.1434
   95SAPE   O22 9401   4.061   4.915   6.938  0.0463 -0.1167  0.4934
   95SAPE   C22 9402   3.903   5.092   6.960 -0.4016  0.0353 -0.5253
   95SAPE   H2R 9403   3.794   5.086   6.981 -0.4775 -0.6257 -1.0898
   95SAPE   H2S 9404   3.948   5.113   7.059  0.4794 -0.2572 -0.8569
   95SAPE    C3 9405   3.758   4.707   6.739 -0.2883 -0.1623  0.1335
   95SAPE    HX 9406   3.653   4.712   6.777 -1.9179 -2.8416 -3.4937
   95SAPE    HY 9407   3.795   4.603   6.734  2.8220  0.8405  0.2069
   95SAPE   O31 9408   3.773   4.771   6.610 -0.1191 -0.4815  0.3594
   95SAPE   C31 9409   3.707   4.888   6.596  0.2743 -0.4722 -0.0693
   95SAPE   O32 9410   3.626   4.933   6.674  0.0832 -1.0218  0.6050
   95SAPE   C32 9411   3.745   4.953   6.463  0.2776 -0.3601 -0.5216
   95SAPE   H2X 9412   3.791   4.877   6.394  0.6186  0.6016 -1.3842
   95SAPE   H2Y 9413   3.836   5.014   6.485  0.2756  0.4111 -2.3876
   95SAPE   C23 9414   3.953   5.193   6.862 -0.1812  0.1102 -0.3595
   95SAPE   H3R 9415   4.064   5.192   6.863 -0.1670 -0.9896  0.9814
   95SAPE   H3S 9416   3.951   5.296   6.903  3.7290  0.6880 -1.2574
   95SAPE   C24 9417   3.869   5.181   6.732  0.0629  0.0920  0.3976
   95SAPE   H4R 9418   3.771   5.233   6.739  0.7530  1.7476 -1.4962
   95SAPE   H4S 9419   3.830   5.080   6.707  0.2322  0.9487 -4.0994
   95SAPE   C25 9420   3.972   5.221   6.626  0.8181  0.0737  0.1650
   95SAPE   H5R 9421   4.040   5.139   6.595  0.7149 -0.6573  1.7523
   95SAPE   C26 9422   3.994   5.349   6.577  0.4089 -0.1643 -0.1540
   95SAPE   H6R 9423   4.072   5.355   6.499  1.2721  1.4952  0.7899
   95SAPE   C27 9424   3.916   5.469   6.611 -0.1465  0.1785 -0.5486
   95SAPE   H7R 9425   3.957   5.495   6.711  0.2126 -2.9666  0.2277
   95SAPE   H7S 9426   3.813   5.434   6.634  0.0187 -0.9999 -1.5000
   95SAPE   C28 9427   3.914   5.578   6.510  0.1619  0.0660  0.9017
   95SAPE   H8R 9428   3.852   5.553   6.422  1.2666 -0.1511  0.1684
   95SAPE   C29 9429   3.967   5.699   6.518  0.1132  0.4007  0.1232
   95SAPE   H9R 9430   3.950   5.760   6.428 -0.2065 -1.4008 -1.1020
   95SAPE  C210 9431   4.036   5.757   6.637  0.1116  0.7937 -0.1953
   95SAPE  H10R 9432   4.144   5.741   6.615 -0.1850 -0.2137 -1.0159
   95SAPE  H10S 9433   4.022   5.701   6.731  1.2768 -0.9837 -1.0207
   95SAPE  C211 9434   4.007   5.902   6.661  0.0024 -0.6396  0.1718
   95SAPE  H11R 9435   3.931   5.926   6.736  1.4613  0.8763  1.2369
   95SAPE  C212 9436   4.078   6.004   6.612 -0.7199  0.6610  0.1551
   95SAPE  H12R 9437   4.053   6.107   6.642 -0.8137  0.5106  0.6013
   95SAPE  C213 9438   4.199   6.002   6.519 -0.0291 -0.3924  0.7750
   95SAPE  H13R 9439   4.215   5.903   6.470 -2.5191  0.0581 -1.1573
   95SAPE  H13S 9440   4.295   6.031   6.568  0.2056  0.3268 -0.0746
   95SAPE  C214 9441   4.166   6.099   6.403  0.1407  0.0803  0.0729
   95SAPE  H14R 9442   4.130   6.197   6.436 -2.5747 -0.9309  0.3926
   95SAPE  C215 9443   4.180   6.070   6.268  0.0577 -0.2558 -0.1363
   95SAPE  H15R 9444   4.145   6.148   6.199 -2.4631 -1.8726 -0.8546
   95SAPE  C216 9445   4.232   5.944   6.202 -0.8833  0.6526 -0.1541
   95SAPE  H16R 9446   4.305   5.904   6.275 -0.7656  1.1362 -0.0052
   95SAPE  H16S 9447   4.293   5.960   6.110  0.7521 -0.8353  0.6243
   95SAPE  C217 9448   4.126   5.834   6.181 -0.3322 -0.2571 -0.5656
   95SAPE  H17R 9449   4.092   5.847   6.076  3.0327 -2.8471 -2.1994
   95SAPE  H17S 9450   4.032   5.852   6.236  0.2511 -0.3662  0.4860
   95SAPE  C218 9451   4.177   5.688   6.191  0.0941 -0.6845 -0.6160
   95SAPE  H18R 9452   4.225   5.664   6.289  1.6527  2.2321 -0.5679
   95SAPE  H18S 9453   4.259   5.680   6.117  1.4378  1.8828  0.4459
   95SAPE  C219 9454   4.063   5.595   6.151 -0.7533  0.0977  0.4367
   95SAPE  H19R 9455   4.046   5.634   6.049  0.5868  1.0142  0.5374
   95SAPE  H19S 9456   3.970   5.609   6.211 -0.3572  1.1400  0.8362
   95SAPE  C220 9457   4.105   5.446   6.152  0.2014 -0.2852  0.3229
   95SAPE  H20R 9458   4.210   5.431   6.118  0.2918  1.7240 -0.4031
   95SAPE  H20S 9459   4.046   5.380   6.085  0.2376 -0.0558  0.0619
   95SAPE  H20T 9460   4.089   5.409   6.255  0.4593  0.9833  0.8309
   95SAPE   C33 9461   3.628   5.042   6.408 -0.2236 -0.8464  0.1105
   95SAPE   H3X 9462   3.566   5.087   6.489 -2.5992 -0.8017 -1.6406
   95SAPE   H3Y 9463   3.560   4.980   6.346  0.3785 -0.3433 -1.0756
   95SAPE   C34 9464   3.687   5.152   6.313 -0.0916  0.0518 -0.9181
   95SAPE   H4X 9465   3.758   5.102   6.242 -0.3625 -1.9654  0.1532
   95SAPE   H4Y 9466   3.735   5.229   6.377  1.4325  1.2232 -3.2972
   95SAPE   C35 9467   3.582   5.225   6.236  0.6364  0.2507 -0.4273
   95SAPE   H5X 9468   3.535   5.294   6.310 -0.4218  0.4379 -1.2583
   95SAPE   H5Y 9469   3.505   5.151   6.205  0.9500  0.1493 -0.9771
   95SAPE   C36 9470   3.643   5.308   6.124 -0.3133 -0.0446  0.4664
   95SAPE   H6X 9471   3.732   5.368   6.155 -2.1826  1.5019  3.2943
   95SAPE   H6Y 9472   3.568   5.375   6.077 -0.4054 -0.0274  0.6347
   95SAPE   C37 9473   3.699   5.222   6.007 -0.4841 -0.1688  0.0192
   95SAPE   H7X 9474   3.622   5.145   5.987 -0.3680 -0.5498  1.0186
   95SAPE   H7Y 9475   3.792   5.170   6.038 -1.0841 -2.4449 -1.6906
   95SAPE   C38 9476   3.736   5.302   5.883 -0.3424 -0.2926  0.0716
   95SAPE   H8X 9477   3.807   5.384   5.907  1.9510 -1.4555 -2.1786
   95SAPE   H8Y 9478   3.640   5.353   5.859 -0.5928 -0.2112  1.2177
   95SAPE   C39 9479   3.802   5.219   5.766 -0.2941  0.2858  0.5172
   95SAPE   H9X 9480   3.751   5.121   5.759 -0.8755  0.1563  4.4286
   95SAPE   H9Y 9481   3.904   5.204   5.808 -1.1792 -2.5096  1.9442
   95SAPE  C310 9482   3.801   5.298   5.635 -0.1653  0.3117  0.9930
   95SAPE  H10X 9483   3.850   5.397   5.643 -1.4980  1.1074 -0.2734
   95SAPE  H10Y 9484   3.695   5.318   5.607  0.4265  2.4483  0.1500
   95SAPE  C311 9485   3.852   5.211   5.519  0.3882  0.4286  0.1639
   95SAPE  H11X 9486   3.874   5.268   5.426 -0.9121  1.2624  0.3343
   95SAPE  H11Y 9487   3.772   5.140   5.488 -0.8396  2.3832 -1.3856
   95SAPE  C312 9488   3.977   5.137   5.550  0.3005 -0.1213  0.3306
   95SAPE  H12X 9489   3.958   5.062   5.630  1.2674  0.3039  0.9937
   95SAPE  H12Y 9490   4.052   5.207   5.594  0.5408 -0.2025  0.0555
   95SAPE  C313 9491   4.044   5.064   5.431 -0.1756 -0.0991  0.0455
   95SAPE  H13X 9492   4.130   5.006   5.471 -0.5892 -0.3489  0.5909
   95SAPE  H13Y 9493   4.092   5.134   5.359  2.4665 -1.5101  0.2993
   95SAPE  C314 9494   3.955   4.967   5.354  0.2484  1.0305 -0.6844
   95SAPE  H14X 9495   3.854   5.012   5.348 -0.1022  0.3424 -0.1109
   95SAPE  H14Y 9496   3.944   4.871   5.410 -2.0430  1.5856 -0.0803
   95SAPE  C315 9497   4.011   4.944   5.210 -0.1743  0.1681 -0.5678
   95SAPE  H15X 9498   4.117   4.910   5.215 -0.3653 -0.5705 -1.3258
   95SAPE  H15Y 9499   4.012   5.043   5.159 -0.8850 -1.1908 -3.3761
   95SAPE  C316 9500   3.919   4.854   5.128 -0.1753  0.4607 -0.1399
   95SAPE  H16X 9501   3.909   4.751   5.168 -1.1925  0.8084  0.5386
   95SAPE  H16Y 9502   3.975   4.845   5.032 -0.2576  0.4116 -0.1831
   95SAPE  C317 9503   3.768   4.899   5.111 -0.3467  0.1066  0.2355
   95SAPE  H17X 9504   3.780   5.004   5.077 -1.4536 -0.3696 -1.8057
   95SAPE  H17Y 9505   3.703   4.903   5.201 -3.2251  1.1932 -1.7548
   95SAPE  C318 9506   3.701   4.810   5.004  0.0098 -0.2819  0.6260
   95SAPE  H18X 9507   3.714   4.705   5.037  0.5267  0.0133  1.3977
   95SAPE  H18Y 9508   3.747   4.808   4.902 -1.3400 -0.1673  0.0012
   95SAPE  H18Z 9509   3.592   4.824   4.991 -0.5852 -3.3464  1.4357
   96SAPE     N 9510   0.106   0.617   8.022 -0.2484  0.1174  0.2381
   96SAPE   HN1 9511   0.160   0.691   8.070  0.5400  1.3788 -2.3800
   96SAPE   HN2 9512   0.110   0.532   8.082 -0.3351  0.5439  0.8431
   96SAPE   HN3 9513   0.148   0.606   7.927  0.1644  0.3314  0.3932
   96SAPE   C12 9514  -0.033   0.676   8.011 -0.0602 -0.2428  0.4369
   96SAPE  H12A 9515  -0.072   0.664   8.114 -0.6161  0.2811  0.2939
   96SAPE  H12B 9516  -0.086   0.598   7.952 -0.5080  0.8903 -0.7152
   96SAPE   C11 9517  -0.035   0.818   7.948  0.2365  0.3879  0.4529
   96SAPE  H11A 9518  -0.144   0.829   7.928 -0.1653 -1.0111  1.6469
   96SAPE  H11B 9519   0.023   0.825   7.854 -1.1206  0.8167 -0.3803
   96SAPE     P 9520   0.139   0.949   8.087  0.1567  0.0569 -0.0194
   96SAPE   O13 9521   0.150   1.054   8.188  0.4680 -0.2260 -0.4692
   96SAPE   O14 9522   0.213   0.827   8.128 -0.1013  0.0974  0.0205
   96SAPE   O12 9523  -0.006   0.920   8.039  0.1087 -0.2167 -0.2385
   96SAPE   O11 9524   0.210   0.995   7.956 -0.0475  0.7958  0.3499
   96SAPE    C1 9525   0.181   1.123   7.902 -0.1849 -0.1825 -0.2094
   96SAPE    HA 9526   0.120   1.190   7.967  1.6290 -0.2374  1.6425
   96SAPE    HB 9527   0.271   1.185   7.883 -0.8109  0.5207 -0.9514
   96SAPE    C2 9528   0.109   1.114   7.763 -0.3990 -0.4024 -0.1263
   96SAPE    HS 9529   0.023   1.047   7.782  0.1575 -1.8030 -2.2137
   96SAPE   O21 9530   0.204   1.057   7.674 -0.2314  0.3528  0.0334
   96SAPE   C21 9531   0.153   0.956   7.597  0.4383 -0.4500  0.1257
   96SAPE   O22 9532   0.034   0.922   7.602 -0.3058 -0.7515  0.3076
   96SAPE   C22 9533   0.256   0.900   7.508 -0.5882  0.2190 -1.0353
   96SAPE   H2R 9534   0.291   0.991   7.454  0.3219  0.7491  0.3825
   96SAPE   H2S 9535   0.332   0.860   7.579 -0.3167  1.5318 -0.5425
   96SAPE    C3 9536   0.052   1.254   7.717  0.3120  1.0779  0.4319
   96SAPE    HX 9537   0.135   1.325   7.735  0.7520  0.4435  0.9615
   96SAPE    HY 9538  -0.026   1.281   7.792  1.6576  1.1274  1.8486
   96SAPE   O31 9539   0.014   1.268   7.576  0.1602  0.7065 -0.3139
   96SAPE   C31 9540  -0.116   1.273   7.545 -0.0714 -0.4541 -0.5440
   96SAPE   O32 9541  -0.207   1.273   7.626 -0.4974 -0.3030  0.0043
   96SAPE   C32 9542  -0.122   1.287   7.396 -0.4569  0.0036  0.2268
   96SAPE   H2X 9543  -0.054   1.212   7.351  1.7238  0.5849  2.3248
   96SAPE   H2Y 9544  -0.079   1.387   7.374 -0.7744  0.1543  0.2863
   96SAPE   C23 9545   0.187   0.802   7.408  0.4699 -1.3180 -0.0205
   96SAPE   H3R 9546   0.122   0.728   7.459 -1.0129 -0.2810 -0.3524
   96SAPE   H3S 9547   0.276   0.744   7.373  1.0763 -1.4435  1.6425
   96SAPE   C24 9548   0.128   0.882   7.295  0.5786 -0.2809  0.2459
   96SAPE   H4R 9549   0.205   0.938   7.239 -0.1639 -0.7780 -1.3444
   96SAPE   H4S 9550   0.052   0.954   7.331  0.4762  0.0681 -0.6598
   96SAPE   C25 9551   0.060   0.793   7.192  0.4285  0.1694  0.3070
   96SAPE   H5R 9552  -0.049   0.780   7.202 -0.2056  2.9724 -1.6515
   96SAPE   C26 9553   0.117   0.705   7.109 -0.7215 -0.1283  0.4501
   96SAPE   H6R 9554   0.057   0.636   7.047 -1.4515  0.7587  0.1530
   96SAPE   C27 9555   0.262   0.688   7.080  0.2262  0.3720  0.2186
   96SAPE   H7R 9556   0.328   0.729   7.160  2.5120 -2.0819 -0.2984
   96SAPE   H7S 9557   0.282   0.740   6.984  2.2699  0.3051  0.5640
   96SAPE   C28 9558   0.299   0.539   7.052  0.7930 -0.3367  0.5086
   96SAPE   H8R 9559   0.257   0.466   7.122  1.0898 -2.1391 -1.1055
   96SAPE   C29 9560   0.359   0.479   6.953  0.5092  0.5288 -0.2271
   96SAPE   H9R 9561   0.368   0.370   6.962 -1.7263  0.3918  1.0831
   96SAPE  C210 9562   0.401   0.552   6.826 -0.3768  0.8460  0.0012
   96SAPE  H10R 9563   0.483   0.625   6.845 -0.0314  0.0352  1.8083
   96SAPE  H10S 9564   0.322   0.626   6.799  0.0848  0.8041 -1.5483
   96SAPE  C211 9565   0.440   0.458   6.712  0.0023  0.2663 -0.5719
   96SAPE  H11R 9566   0.423   0.351   6.730 -1.4597  0.3508 -1.2666
   96SAPE  C212 9567   0.487   0.501   6.594  0.4609  0.6899 -0.2808
   96SAPE  H12R 9568   0.506   0.426   6.515  0.8275  0.4698  0.0089
   96SAPE  C213 9569   0.521   0.642   6.544  0.0147 -0.6452  0.0908
   96SAPE  H13R 9570   0.441   0.714   6.573  1.0567  0.8847 -0.6831
   96SAPE  H13S 9571   0.525   0.652   6.434  1.4239  0.8542  0.2330
   96SAPE  C214 9572   0.653   0.693   6.600 -0.0174 -0.5186  0.1325
   96SAPE  H14R 9573   0.741   0.627   6.598  1.1394  0.9729 -2.4297
   96SAPE  C215 9574   0.666   0.823   6.644  0.6652 -0.1201  0.5473
   96SAPE  H15R 9575   0.765   0.850   6.685  1.9330 -2.5032 -0.7240
   96SAPE  C216 9576   0.568   0.938   6.652  0.4045  0.1596 -0.9322
   96SAPE  H16R 9577   0.461   0.914   6.633  0.5424 -1.5969  0.2858
   96SAPE  H16S 9578   0.584   1.014   6.572 -3.3883  0.5693 -1.4933
   96SAPE  C217 9579   0.592   1.004   6.782 -0.4001  0.3709 -0.4317
   96SAPE  H17R 9580   0.527   1.094   6.778  2.0363  2.2300 -3.4918
   96SAPE  H17S 9581   0.698   1.039   6.794 -0.2618 -0.4799  1.1420
   96SAPE  C218 9582   0.549   0.923   6.908  0.1152 -0.2764  0.2607
   96SAPE  H18R 9583   0.623   0.842   6.928 -0.5306 -0.6135  1.4287
   96SAPE  H18S 9584   0.458   0.863   6.886  0.1186 -0.1939  0.0244
   96SAPE  C219 9585   0.536   0.992   7.044 -1.0267  0.1843  0.1068
   96SAPE  H19R 9586   0.485   0.928   7.119 -1.3771  2.7471  2.1852
   96SAPE  H19S 9587   0.476   1.085   7.029 -0.9031  0.2821  0.2162
   96SAPE  C220 9588   0.659   1.053   7.116 -0.4677  1.1262 -0.0645
   96SAPE  H20R 9589   0.736   0.984   7.157 -0.1751  1.2413 -0.4152
   96SAPE  H20S 9590   0.617   1.117   7.196 -1.8153  0.6018 -0.3215
   96SAPE  H20T 9591   0.720   1.114   7.046  1.3446  1.0391  1.3499
   96SAPE   C33 9592  -0.263   1.265   7.336  0.4962 -0.1196 -0.8053
   96SAPE   H3X 9593  -0.326   1.354   7.357  0.7570  0.0377 -0.6773
   96SAPE   H3Y 9594  -0.313   1.178   7.385 -0.2679 -0.2452 -1.7819
   96SAPE   C34 9595  -0.265   1.223   7.184 -0.5915  0.2927  0.2932
   96SAPE   H4X 9596  -0.225   1.119   7.179 -0.2111  0.4992 -1.5003
   96SAPE   H4Y 9597  -0.190   1.284   7.131 -2.3873  0.9676 -1.5701
   96SAPE   C35 9598  -0.394   1.214   7.105 -0.5663 -0.4600  0.5968
   96SAPE   H5X 9599  -0.441   1.313   7.085 -0.0980 -0.4560 -0.5935
   96SAPE   H5Y 9600  -0.476   1.159   7.156 -2.5508  0.1990 -1.6730
   96SAPE   C36 9601  -0.374   1.147   6.967  0.2752 -0.7305  0.1437
   96SAPE   H6X 9602  -0.465   1.093   6.933  0.1007  0.4981 -1.4747
   96SAPE   H6Y 9603  -0.285   1.081   6.971  0.0352 -1.1736 -1.0767
   96SAPE   C37 9604  -0.326   1.240   6.845 -0.2430  0.9061  0.1270
   96SAPE   H7X 9605  -0.234   1.294   6.875  0.3934  0.2150 -0.5355
   96SAPE   H7Y 9606  -0.412   1.309   6.829 -0.7229  0.2960  0.0148
   96SAPE   C38 9607  -0.306   1.162   6.710 -0.0235 -0.2039 -0.5776
   96SAPE   H8X 9608  -0.407   1.122   6.688 -1.0530  1.9199  0.0220
   96SAPE   H8Y 9609  -0.226   1.086   6.727  1.1400  1.1916  0.5316
   96SAPE   C39 9610  -0.287   1.247   6.585  0.1518  0.0495  0.6305
   96SAPE   H9X 9611  -0.186   1.293   6.581 -0.0101  0.7961  3.3194
   96SAPE   H9Y 9612  -0.358   1.332   6.585  0.7152  0.5776 -1.5944
   96SAPE  C310 9613  -0.309   1.154   6.469 -0.4234  0.1597 -0.2460
   96SAPE  H10X 9614  -0.411   1.112   6.474  0.1116 -1.5051 -2.0852
   96SAPE  H10Y 9615  -0.248   1.062   6.480 -1.0809 -0.3105 -0.5144
   96SAPE  C311 9616  -0.299   1.215   6.326  0.2332 -0.2102  0.1048
   96SAPE  H11X 9617  -0.198   1.261   6.321  0.2140 -0.2649 -1.0646
   96SAPE  H11Y 9618  -0.376   1.292   6.306 -0.0955 -0.5073  0.2217
   96SAPE  C312 9619  -0.321   1.102   6.216 -0.1543  0.0415 -0.5064
   96SAPE  H12X 9620  -0.417   1.049   6.234  1.2800 -2.8483 -0.6629
   96SAPE  H12Y 9621  -0.248   1.019   6.232 -2.1587 -1.4259  1.8828
   96SAPE  C313 9622  -0.330   1.157   6.077 -0.8054  0.1702  0.1504
   96SAPE  H13X 9623  -0.399   1.244   6.068  1.2426  1.8329 -0.1974
   96SAPE  H13Y 9624  -0.360   1.083   6.000  2.1246 -1.0801  0.0968
   96SAPE  C314 9625  -0.194   1.204   6.024  0.0731 -0.1912  0.8930
   96SAPE  H14X 9626  -0.124   1.119   6.007  0.4809  0.5060 -1.2901
   96SAPE  H14Y 9627  -0.154   1.294   6.075  1.4162  0.4112 -1.1077
   96SAPE  C315 9628  -0.205   1.279   5.888  0.4908  0.1154 -0.3120
   96SAPE  H15X 9629  -0.114   1.339   5.866  0.0455 -0.3950 -4.1921
   96SAPE  H15Y 9630  -0.288   1.352   5.894  0.5340  0.3078 -1.7244
   96SAPE  C316 9631  -0.242   1.189   5.769  0.3122 -1.0422 -0.2730
   96SAPE  H16X 9632  -0.343   1.146   5.783 -1.2571  1.4440 -2.9647
   96SAPE  H16Y 9633  -0.167   1.107   5.775  0.9696 -0.3549  2.3120
   96SAPE  C317 9634  -0.229   1.267   5.635 -0.7615 -0.0260 -0.9961
   96SAPE  H17X 9635  -0.205   1.182   5.567 -0.4633 -1.3010  0.6253
   96SAPE  H17Y 9636  -0.140   1.330   5.658 -1.8189  0.8112  1.0302
   96SAPE  C318 9637  -0.342   1.346   5.586  0.2218  0.7380 -1.0893
   96SAPE  H18X 9638  -0.332   1.352   5.475  4.1517 -1.8121 -1.0885
   96SAPE  H18Y 9639  -0.358   1.446   5.629 -0.5464  0.5847 -0.9962
   96SAPE  H18Z 9640  -0.440   1.300   5.611 -0.3941  1.1837 -2.5674
   97SAPE     N 9641   0.873   2.068   8.125 -0.0585 -0.2753 -0.1781
   97SAPE   HN1 9642   0.873   2.125   8.039  2.4635  0.9070  0.5093
   97SAPE   HN2 9643   0.866   1.967   8.099  0.3632 -0.0487 -1.2385
   97SAPE   HN3 9644   0.793   2.104   8.180  1.8115  2.4051  1.0266
   97SAPE   C12 9645   0.996   2.088   8.209  0.1522 -0.1059 -0.1371
   97SAPE  H12A 9646   1.082   2.033   8.164 -0.4701  0.0715 -1.5790
   97SAPE  H12B 9647   0.966   2.043   8.307 -0.4994 -0.5840 -0.5435
   97SAPE   C11 9648   1.030   2.240   8.223  0.7887 -0.0620 -0.7369
   97SAPE  H11A 9649   1.116   2.263   8.290 -0.9130  1.8036  0.9431
   97SAPE  H11B 9650   0.953   2.291   8.284  0.3692 -2.2216  0.6399
   97SAPE     P 9651   1.152   2.281   7.996  0.1953 -0.1082  0.3067
   97SAPE   O13 9652   1.156   2.403   7.910 -0.0505  0.2843 -0.6505
   97SAPE   O14 9653   1.280   2.231   8.060  0.5286  0.0788 -0.6758
   97SAPE   O12 9654   1.036   2.302   8.097  0.2581 -0.5360 -0.0654
   97SAPE   O11 9655   1.088   2.161   7.920  0.4643  0.0588  0.1226
   97SAPE    C1 9656   1.166   2.082   7.827  0.7203 -0.0830 -0.4650
   97SAPE    HA 9657   1.257   2.039   7.875 -0.1962  0.0560  1.4919
   97SAPE    HB 9658   1.098   1.999   7.796 -1.7366  0.5279  2.7308
   97SAPE    C2 9659   1.191   2.169   7.703  0.3836  0.3417  0.4724
   97SAPE    HS 9660   1.236   2.260   7.748 -0.7590  0.8701  0.5683
   97SAPE   O21 9661   1.056   2.196   7.651 -0.1095 -0.1653  0.0119
   97SAPE   C21 9662   1.061   2.295   7.564  0.1151  0.4878  0.6989
   97SAPE   O22 9663   1.164   2.356   7.536  0.1898 -0.1309 -0.1938
   97SAPE   C22 9664   0.926   2.317   7.498 -0.3255 -0.1763  0.3724
   97SAPE   H2R 9665   0.912   2.224   7.439 -0.3577 -0.6875  1.1612
   97SAPE   H2S 9666   0.841   2.310   7.570  0.5912 -0.0637  1.5028
   97SAPE    C3 9667   1.288   2.100   7.611  0.0433  0.1858  0.5525
   97SAPE    HX 9668   1.392   2.112   7.648  0.2171  1.0974 -0.1866
   97SAPE    HY 9669   1.287   2.164   7.519  0.7251 -1.6835 -0.8186
   97SAPE   O31 9670   1.253   1.963   7.581 -0.8772  0.6653  0.2857
   97SAPE   C31 9671   1.324   1.865   7.646  0.4511 -0.2240  0.1474
   97SAPE   O32 9672   1.414   1.879   7.725 -0.2405 -0.6746  0.0749
   97SAPE   C32 9673   1.291   1.726   7.591  0.1936 -0.2924 -0.2594
   97SAPE   H2X 9674   1.181   1.708   7.596  0.6182 -3.2994  0.3196
   97SAPE   H2Y 9675   1.344   1.662   7.665 -1.6617 -0.6525  0.8154
   97SAPE   C23 9676   0.921   2.445   7.410  0.5942  0.5221 -0.4238
   97SAPE   H3R 9677   1.004   2.440   7.336 -0.6299 -2.0164 -1.7600
   97SAPE   H3S 9678   0.932   2.533   7.476 -0.3699 -0.7022  1.4840
   97SAPE   C24 9679   0.781   2.454   7.342 -0.4758 -0.8424  0.6840
   97SAPE   H4R 9680   0.784   2.546   7.279  3.2211 -0.7906  0.7030
   97SAPE   H4S 9681   0.704   2.470   7.420 -0.2946 -0.2773  0.7511
   97SAPE   C25 9682   0.750   2.322   7.272  0.2544 -0.4739 -0.0305
   97SAPE   H5R 9683   0.731   2.231   7.330 -1.1331 -0.6840 -0.7752
   97SAPE   C26 9684   0.760   2.306   7.131  0.5664 -0.4799 -0.8066
   97SAPE   H6R 9685   0.730   2.207   7.093  2.0168 -2.0837  1.8649
   97SAPE   C27 9686   0.787   2.413   7.029 -0.5936 -0.1610 -0.2154
   97SAPE   H7R 9687   0.852   2.374   6.948 -0.8858  0.0350 -0.5446
   97SAPE   H7S 9688   0.843   2.498   7.072 -0.2486 -1.8642  3.0432
   97SAPE   C28 9689   0.660   2.482   6.982  0.2225 -0.1899  0.2752
   97SAPE   H8R 9690   0.613   2.545   7.058  0.2238 -1.5050  1.4205
   97SAPE   C29 9691   0.615   2.478   6.854  0.6482  0.0759  0.9659
   97SAPE   H9R 9692   0.520   2.525   6.824  0.4439 -0.8755  0.0748
   97SAPE  C210 9693   0.687   2.406   6.738 -0.1113 -0.2931 -0.1417
   97SAPE  H10R 9694   0.738   2.313   6.772  0.1902  0.0210  0.2747
   97SAPE  H10S 9695   0.767   2.477   6.709  0.4239 -1.4011 -1.5253
   97SAPE  C211 9696   0.596   2.361   6.629 -0.2094 -0.3181  0.6212
   97SAPE  H11R 9697   0.521   2.290   6.666  0.0379 -0.4039  0.9656
   97SAPE  C212 9698   0.607   2.390   6.498  0.1009 -0.1775 -0.0771
   97SAPE  H12R 9699   0.538   2.341   6.428  0.9064 -0.8183 -0.4346
   97SAPE  C213 9700   0.719   2.461   6.435  0.3860 -0.8995 -0.7652
   97SAPE  H13R 9701   0.796   2.396   6.389  1.2784 -1.3523  1.2351
   97SAPE  H13S 9702   0.774   2.526   6.507  0.3950 -1.9849  0.2386
   97SAPE  C214 9703   0.666   2.568   6.343 -0.0169  0.1185 -0.4723
   97SAPE  H14R 9704   0.643   2.663   6.393 -1.6933 -0.4121 -0.1688
   97SAPE  C215 9705   0.641   2.553   6.215  0.2507 -0.0645 -0.2233
   97SAPE  H15R 9706   0.599   2.632   6.151 -0.4270  0.8918  1.3524
   97SAPE  C216 9707   0.653   2.420   6.137  0.5628  0.4676  0.1375
   97SAPE  H16R 9708   0.578   2.400   6.058  1.7407 -0.7170 -0.7052
   97SAPE  H16S 9709   0.655   2.330   6.201  1.0123  1.1920  1.1792
   97SAPE  C217 9710   0.791   2.410   6.061  0.6447  0.5521  0.3914
   97SAPE  H17R 9711   0.799   2.308   6.018 -1.1614  0.5922 -0.1464
   97SAPE  H17S 9712   0.864   2.432   6.142  0.0021 -0.9156  1.4182
   97SAPE  C218 9713   0.817   2.516   5.956  0.2103 -0.9006 -0.0087
   97SAPE  H18R 9714   0.773   2.614   5.983  0.6471 -0.7126  0.0282
   97SAPE  H18S 9715   0.762   2.488   5.864 -0.4140 -1.0846  0.4177
   97SAPE  C219 9716   0.964   2.543   5.939 -0.2627  0.3123 -0.4529
   97SAPE  H19R 9717   0.977   2.561   5.830 -2.9540 -1.1442 -1.1118
   97SAPE  H19S 9718   1.029   2.454   5.952 -1.9823 -0.8626  0.5708
   97SAPE  C220 9719   1.025   2.646   6.027  0.3455  0.6299 -0.0317
   97SAPE  H20R 9720   0.982   2.749   6.024  0.8902  0.8785  0.3819
   97SAPE  H20S 9721   1.134   2.653   6.007  0.2410  2.6613 -0.0984
   97SAPE  H20T 9722   1.015   2.617   6.134 -0.1802  0.2011 -0.1895
   97SAPE   C33 9723   1.342   1.705   7.445 -0.1387 -0.5983  0.0571
   97SAPE   H3X 9724   1.448   1.670   7.450  1.4002  3.2669 -1.5558
   97SAPE   H3Y 9725   1.345   1.795   7.380  2.2422 -0.5088  0.2055
   97SAPE   C34 9726   1.266   1.598   7.375 -0.9650 -0.1715 -0.0390
   97SAPE   H4X 9727   1.162   1.636   7.367 -0.6529  0.6279 -0.4710
   97SAPE   H4Y 9728   1.278   1.503   7.431  1.2750 -0.7771 -1.4211
   97SAPE   C35 9729   1.330   1.561   7.238  0.1361  0.2630  0.0309
   97SAPE   H5X 9730   1.323   1.451   7.226  2.4520 -0.0804  1.3508
   97SAPE   H5Y 9731   1.438   1.589   7.237  0.3965 -0.6503  0.8981
   97SAPE   C36 9732   1.254   1.636   7.124 -0.4470 -0.2099  0.4698
   97SAPE   H6X 9733   1.264   1.746   7.139 -2.1301  0.2129 -1.0595
   97SAPE   H6Y 9734   1.144   1.625   7.119 -0.4689  0.3010 -0.6166
   97SAPE   C37 9735   1.305   1.603   6.983 -0.4631 -0.5379  0.2312
   97SAPE   H7X 9736   1.309   1.492   6.978  1.6549 -0.5840  1.8968
   97SAPE   H7Y 9737   1.411   1.635   6.982 -0.9923  1.2948 -0.8905
   97SAPE   C38 9738   1.226   1.666   6.869 -0.4047 -0.4855 -0.1392
   97SAPE   H8X 9739   1.245   1.776   6.867  2.0161 -0.8592 -0.8048
   97SAPE   H8Y 9740   1.118   1.640   6.881  0.2987 -3.5165  0.2451
   97SAPE   C39 9741   1.270   1.606   6.734  0.0777 -0.2328  0.2243
   97SAPE   H9X 9742   1.245   1.498   6.731  0.3818 -0.3119  0.5466
   97SAPE   H9Y 9743   1.379   1.622   6.723  0.1743 -1.0222 -0.0393
   97SAPE  C310 9744   1.191   1.679   6.629  0.1042  0.5062  0.0916
   97SAPE  H10X 9745   1.208   1.789   6.636 -4.0500  1.2934  0.0153
   97SAPE  H10Y 9746   1.082   1.671   6.646  0.1510  1.9013  1.2809
   97SAPE  C311 9747   1.240   1.633   6.496  0.3683 -0.5939  0.1306
   97SAPE  H11X 9748   1.273   1.527   6.503  0.3447 -0.5731  0.6228
   97SAPE  H11Y 9749   1.337   1.687   6.485  1.5223 -2.5391  0.1674
   97SAPE  C312 9750   1.144   1.655   6.386 -0.6054  0.0920 -0.0046
   97SAPE  H12X 9751   1.110   1.760   6.397 -1.6254  0.0240 -1.9400
   97SAPE  H12Y 9752   1.052   1.594   6.397 -1.7252  1.7240  0.0963
   97SAPE  C313 9753   1.210   1.642   6.250 -0.6738  0.2865 -0.0875
   97SAPE  H13X 9754   1.246   1.539   6.231 -2.6521 -0.1512 -1.7882
   97SAPE  H13Y 9755   1.295   1.713   6.251  0.2762 -0.8345  0.4248
   97SAPE  C314 9756   1.119   1.691   6.140 -0.5195 -0.8060  0.0530
   97SAPE  H14X 9757   1.087   1.792   6.171  1.4786 -0.7772  2.2665
   97SAPE  H14Y 9758   1.023   1.637   6.126 -0.8147  0.3080 -2.9825
   97SAPE  C315 9759   1.201   1.699   6.014 -1.1400  0.1973  0.2892
   97SAPE  H15X 9760   1.224   1.598   5.974  0.3274  1.9623 -3.9781
   97SAPE  H15Y 9761   1.304   1.739   6.027 -0.0188 -2.6628  1.1193
   97SAPE  C316 9762   1.133   1.773   5.896 -0.2504 -0.4705  0.4590
   97SAPE  H16X 9763   1.115   1.876   5.935 -0.2351 -0.9241  1.6976
   97SAPE  H16Y 9764   1.033   1.728   5.879 -0.9104  1.3677 -0.8183
   97SAPE  C317 9765   1.208   1.769   5.763 -0.7980  0.4735 -0.4820
   97SAPE  H17X 9766   1.305   1.824   5.762 -0.2820 -0.4006  0.0126
   97SAPE  H17Y 9767   1.152   1.826   5.685 -1.6653 -0.0046 -0.2173
   97SAPE  C318 9768   1.231   1.626   5.705  0.2724  0.2697  0.0087
   97SAPE  H18X 9769   1.270   1.622   5.601  1.8818 -1.2920  0.6294
   97SAPE  H18Y 9770   1.129   1.584   5.702  0.1338  0.6331 -0.8618
   97SAPE  H18Z 9771   1.303   1.559   5.756 -0.9416 -0.4059  0.8766
   98SAPE     N 9772   5.713   3.020   7.572  0.1883  0.4757  0.0363
   98SAPE   HN1 9773   5.766   3.028   7.661 -0.1921 -0.9376  0.4103
   98SAPE   HN2 9774   5.750   2.943   7.514  2.2590  2.2857 -1.1910
   98SAPE   HN3 9775   5.735   3.109   7.522 -0.4470  0.1296 -0.8863
   98SAPE   C12 9776   5.565   2.999   7.602 -0.4100  0.1762  0.4509
   98SAPE  H12A 9777   5.509   3.037   7.514  2.6989  2.4491 -0.7632
   98SAPE  H12B 9778   5.554   3.072   7.685 -0.8868  1.2533 -0.5246
   98SAPE   C11 9779   5.529   2.848   7.621  0.0128  0.2280 -0.2478
   98SAPE  H11A 9780   5.527   2.781   7.532  1.1087 -0.0342 -0.0926
   98SAPE  H11B 9781   5.427   2.843   7.663  0.5379 -0.3281  1.0009
   98SAPE     P 9782   5.622   2.652   7.766  0.3722  0.0978  0.2045
   98SAPE   O13 9783   5.752   2.610   7.821  0.2398 -0.3585  0.9115
   98SAPE   O14 9784   5.513   2.656   7.863  0.2491  0.4524  0.0665
   98SAPE   O12 9785   5.626   2.797   7.714 -0.0008  0.3040 -0.2553
   98SAPE   O11 9786   5.589   2.568   7.629  0.4672 -0.0539 -0.1952
   98SAPE    C1 9787   5.701   2.548   7.543  0.7509  0.0214  0.4066
   98SAPE    HA 9788   5.764   2.639   7.536 -2.9408  2.7208 -0.9966
   98SAPE    HB 9789   5.771   2.469   7.577 -1.4915 -2.1561  0.2565
   98SAPE    C2 9790   5.653   2.517   7.395  0.1016 -0.6695 -0.2270
   98SAPE    HS 9791   5.603   2.612   7.366  1.4478  0.0687 -0.2365
   98SAPE   O21 9792   5.562   2.400   7.398 -0.1396 -0.3956 -0.2884
   98SAPE   C21 9793   5.481   2.398   7.293 -0.6617 -0.2070 -0.0544
   98SAPE   O22 9794   5.479   2.483   7.208  0.7659 -0.0579 -0.1065
   98SAPE   C22 9795   5.404   2.261   7.301  0.1938  0.0715 -0.1337
   98SAPE   H2R 9796   5.449   2.203   7.385 -2.2393 -1.2307  0.3753
   98SAPE   H2S 9797   5.302   2.287   7.334 -0.0952 -2.0226  0.7713
   98SAPE    C3 9798   5.774   2.484   7.313 -0.4823  1.2968 -0.7180
   98SAPE    HX 9799   5.815   2.388   7.351  0.2795  1.1717 -1.8164
   98SAPE    HY 9800   5.851   2.562   7.333  1.2262 -0.5405  0.3203
   98SAPE   O31 9801   5.755   2.476   7.174  0.4318 -0.1080 -0.0336
   98SAPE   C31 9802   5.757   2.596   7.113  0.7020  0.0196 -0.3702
   98SAPE   O32 9803   5.778   2.703   7.162 -0.0615  0.0337  0.3382
   98SAPE   C32 9804   5.755   2.568   6.961 -0.0270 -0.0393  0.4168
   98SAPE   H2X 9805   5.668   2.502   6.945 -1.9931  2.8812 -2.0351
   98SAPE   H2Y 9806   5.847   2.514   6.930 -1.2307 -2.5717  1.0259
   98SAPE   C23 9807   5.386   2.186   7.167  0.4361 -0.9501 -0.3492
   98SAPE   H3R 9808   5.341   2.264   7.101  0.6914 -0.3569  0.1656
   98SAPE   H3S 9809   5.313   2.106   7.191 -2.2877  1.0663 -1.3521
   98SAPE   C24 9810   5.505   2.140   7.094  0.6567  1.0276  0.5874
   98SAPE   H4R 9811   5.586   2.214   7.073  2.4141 -1.7573 -3.7918
   98SAPE   H4S 9812   5.479   2.103   6.993  1.5205  0.8704  0.4112
   98SAPE   C25 9813   5.564   2.032   7.171 -0.1563  0.5765 -0.1584
   98SAPE   H5R 9814   5.544   2.052   7.277 -0.8066  1.1383 -0.3800
   98SAPE   C26 9815   5.601   1.905   7.134 -0.4889  0.0313 -0.5857
   98SAPE   H6R 9816   5.653   1.837   7.203 -0.5276  0.4810 -0.1045
   98SAPE   C27 9817   5.619   1.860   6.993  0.3338  0.5727  0.3415
   98SAPE   H7R 9818   5.658   1.943   6.930  0.1360  0.8242  0.5514
   98SAPE   H7S 9819   5.518   1.841   6.952  0.3341 -1.7608  1.2760
   98SAPE   C28 9820   5.700   1.728   6.980 -1.1659 -0.1126 -0.3500
   98SAPE   H8R 9821   5.658   1.643   7.035 -0.5687 -0.5444 -0.5573
   98SAPE   C29 9822   5.809   1.699   6.898  0.5461 -0.4057 -0.2015
   98SAPE   H9R 9823   5.842   1.594   6.897  2.1470  0.0618 -0.1450
   98SAPE  C210 9824   5.870   1.791   6.791  0.5703  0.7387  0.4269
   98SAPE  H10R 9825   5.832   1.896   6.795  0.2125  0.7418 -1.9407
   98SAPE  H10S 9826   5.843   1.753   6.690  0.0921 -0.5206  1.0073
   98SAPE  C211 9827   6.019   1.803   6.807 -0.1731 -0.1632 -0.5802
   98SAPE  H11R 9828   6.054   1.821   6.910 -0.0455  1.4906 -0.8860
   98SAPE  C212 9829   6.105   1.821   6.697  0.2331  0.3763  0.0305
   98SAPE  H12R 9830   6.208   1.841   6.728 -0.2079  0.2283  1.7449
   98SAPE  C213 9831   6.081   1.805   6.551 -0.3756 -0.3244  0.1019
   98SAPE  H13R 9832   6.064   1.696   6.532  0.9215 -0.3674 -0.9065
   98SAPE  H13S 9833   6.181   1.824   6.508  1.2768 -2.2043  2.8039
   98SAPE  C214 9834   5.972   1.899   6.492 -0.3902  0.0049 -0.2631
   98SAPE  H14R 9835   5.884   1.911   6.556  0.0971  1.6077  0.1495
   98SAPE  C215 9836   5.990   1.952   6.370 -0.1228  0.9840 -0.3574
   98SAPE  H15R 9837   5.909   2.006   6.320  0.0867 -0.0189 -1.8523
   98SAPE  C216 9838   6.105   1.932   6.282  0.2459  0.1099  0.0274
   98SAPE  H16R 9839   6.205   1.929   6.332 -0.5290 -0.5990  1.5977
   98SAPE  H16S 9840   6.116   2.015   6.209  1.9624 -0.8798 -0.8990
   98SAPE  C217 9841   6.082   1.801   6.202  0.4623 -0.3076 -0.4078
   98SAPE  H17R 9842   5.994   1.815   6.137  2.2065  2.1359 -2.4413
   98SAPE  H17S 9843   6.066   1.723   6.280  1.2481 -0.9587 -0.8834
   98SAPE  C218 9844   6.214   1.772   6.126 -0.4539  0.0376 -0.5265
   98SAPE  H18R 9845   6.297   1.814   6.186 -1.5281  0.0196  1.0438
   98SAPE  H18S 9846   6.211   1.824   6.028 -1.8762 -1.8642 -1.5664
   98SAPE  C219 9847   6.229   1.617   6.104 -0.4666 -0.1022  0.2147
   98SAPE  H19R 9848   6.293   1.594   6.017 -1.3170 -2.8462  0.2210
   98SAPE  H19S 9849   6.136   1.565   6.072  0.2158 -1.7045  0.6998
   98SAPE  C220 9850   6.282   1.540   6.224  0.4899  0.4911 -0.8400
   98SAPE  H20R 9851   6.369   1.594   6.268  1.6576  0.4490 -2.9424
   98SAPE  H20S 9852   6.297   1.433   6.200 -2.8720 -0.5350  1.0411
   98SAPE  H20T 9853   6.203   1.541   6.302 -0.5502  0.2318 -1.8511
   98SAPE   C33 9854   5.750   2.693   6.877  0.0362 -0.7243 -0.3149
   98SAPE   H3X 9855   5.836   2.762   6.893 -0.9678  1.1398 -2.4137
   98SAPE   H3Y 9856   5.661   2.749   6.913 -0.7293 -0.3369 -2.6511
   98SAPE   C34 9857   5.740   2.686   6.719 -0.5154 -0.4994 -0.7244
   98SAPE   H4X 9858   5.735   2.791   6.685  3.3629  0.9939  2.6121
   98SAPE   H4Y 9859   5.653   2.620   6.699 -1.2871  0.3408 -0.1971
   98SAPE   C35 9860   5.865   2.622   6.650  0.2425 -0.2842 -0.3429
   98SAPE   H5X 9861   5.856   2.512   6.663 -2.6440  0.0833  1.8229
   98SAPE   H5Y 9862   5.961   2.641   6.704  0.6531 -1.7798 -0.4955
   98SAPE   C36 9863   5.875   2.647   6.496  0.4274 -0.2663 -0.7292
   98SAPE   H6X 9864   5.784   2.614   6.441 -0.4041  0.4074  0.1926
   98SAPE   H6Y 9865   5.955   2.577   6.465  1.4084  0.0760  0.9163
   98SAPE   C37 9866   5.911   2.796   6.465  0.2532  0.1666  0.0370
   98SAPE   H7X 9867   5.942   2.842   6.561 -0.7964  0.5270  0.2221
   98SAPE   H7Y 9868   5.818   2.852   6.442 -0.6199 -0.6546  1.4060
   98SAPE   C38 9869   6.007   2.809   6.351 -0.2643  0.0047 -0.0315
   98SAPE   H8X 9870   6.086   2.731   6.344 -1.6190 -1.4401 -0.0802
   98SAPE   H8Y 9871   6.045   2.911   6.372 -0.0003  0.2683 -1.6700
   98SAPE   C39 9872   5.947   2.823   6.214  0.3882 -0.6604  0.4409
   98SAPE   H9X 9873   5.887   2.915   6.193  0.1641 -0.6611  1.0650
   98SAPE   H9Y 9874   5.872   2.744   6.193 -0.7053 -0.6334  3.6629
   98SAPE  C310 9875   6.061   2.839   6.104  0.4450 -0.1574  0.5180
   98SAPE  H10X 9876   6.147   2.771   6.121  1.0566  0.5584  0.3229
   98SAPE  H10Y 9877   6.102   2.941   6.106  2.1339 -0.8121  2.2180
   98SAPE  C311 9878   6.007   2.805   5.966 -0.1634  0.0498 -0.0722
   98SAPE  H11X 9879   5.924   2.876   5.944  1.5166  1.2044 -3.2169
   98SAPE  H11Y 9880   5.973   2.700   5.971  0.1809 -0.0222  1.0300
   98SAPE  C312 9881   6.114   2.833   5.859  0.2641  0.2352 -0.4873
   98SAPE  H12X 9882   6.175   2.923   5.881  0.0643  0.4309 -0.7360
   98SAPE  H12Y 9883   6.073   2.848   5.757 -1.2062 -0.0612  0.0463
   98SAPE  C313 9884   6.211   2.705   5.856 -0.0409  0.7061  0.4002
   98SAPE  H13X 9885   6.158   2.612   5.885  0.5201  0.0730 -0.5571
   98SAPE  H13Y 9886   6.299   2.717   5.923  0.5682 -0.6970 -0.1126
   98SAPE  C314 9887   6.249   2.668   5.707 -1.1028  0.5528 -0.0058
   98SAPE  H14X 9888   6.263   2.762   5.650  1.8132  0.8678  1.0608
   98SAPE  H14Y 9889   6.178   2.601   5.654  0.1775 -0.3993 -0.5683
   98SAPE  C315 9890   6.382   2.597   5.713  0.4204  0.2234  0.3659
   98SAPE  H15X 9891   6.388   2.529   5.800  1.6643 -1.2109 -0.7686
   98SAPE  H15Y 9892   6.462   2.674   5.718 -0.2494  1.1814 -2.0896
   98SAPE  C316 9893   6.400   2.506   5.583 -0.2754 -0.6075 -0.2476
   98SAPE  H16X 9894   6.508   2.502   5.558  0.2823  1.8357  1.4024
   98SAPE  H16Y 9895   6.368   2.577   5.504 -0.9449  0.4274  0.9099
   98SAPE  C317 9896   6.313   2.377   5.581  0.3406 -0.3506  0.5943
   98SAPE  H17X 9897   6.206   2.406   5.579  0.3906 -0.1770 -0.9613
   98SAPE  H17Y 9898   6.328   2.311   5.669  1.2239 -0.4791  0.3621
   98SAPE  C318 9899   6.311   2.303   5.450  0.3354  0.4886 -0.3710
   98SAPE  H18X 9900   6.313   2.384   5.373 -1.2125  1.2979  0.4033
   98SAPE  H18Y 9901   6.214   2.251   5.446  0.5566  0.0925 -0.6207
   98SAPE  H18Z 9902   6.392   2.228   5.440 -0.4246 -0.7799  2.2719
   99SAPE     N 9903   6.686   2.175   8.343 -1.0890  0.2698 -0.7223
   99SAPE   HN1 9904   6.671   2.277   8.330  1.6418  0.5514 -2.3733
   99SAPE   HN2 9905   6.628   2.147   8.425 -0.0802  1.1639  0.3258
   99SAPE   HN3 9906   6.787   2.163   8.363 -1.5412 -0.1521  1.5522
   99SAPE   C12 9907   6.646   2.101   8.220 -0.7592  0.0469 -0.2396
   99SAPE  H12A 9908   6.542   2.131   8.194 -1.3923 -1.1721  0.7647
   99SAPE  H12B 9909   6.645   1.991   8.238 -0.4492 -0.2844 -2.0441
   99SAPE   C11 9910   6.728   2.131   8.093 -0.4688  0.3351 -0.0935
   99SAPE  H11A 9911   6.699   2.073   8.003 -0.7390  0.6711 -0.2273
   99SAPE  H11B 9912   6.834   2.116   8.120 -0.6469 -0.1877  0.3251
   99SAPE     P 9913   6.812   2.354   7.990  0.5664 -0.0723  0.3926
   99SAPE   O13 9914   6.747   2.479   7.942  0.2962 -0.2657  0.5535
   99SAPE   O14 9915   6.939   2.368   8.062  0.6697 -0.3189  0.0478
   99SAPE   O12 9916   6.703   2.266   8.066 -0.2958 -0.2483 -0.3400
   99SAPE   O11 9917   6.851   2.263   7.863 -0.1160 -0.3033  0.0851
   99SAPE    C1 9918   6.788   2.282   7.733 -0.4946 -0.2776  1.2667
   99SAPE    HA 9919   6.695   2.222   7.721 -0.4657  0.2381 -4.3929
   99SAPE    HB 9920   6.738   2.381   7.722 -2.3275 -1.1953  0.9347
   99SAPE    C2 9921   6.868   2.223   7.604 -0.3860 -0.0933 -0.4580
   99SAPE    HS 9922   6.848   2.114   7.598 -0.1185 -0.2732  1.3836
   99SAPE   O21 9923   7.004   2.260   7.625  0.3712  0.1670 -0.1376
   99SAPE   C21 9924   7.083   2.182   7.692  0.0987 -0.7906 -0.1015
   99SAPE   O22 9925   7.057   2.081   7.752  0.6034  0.5818  0.8149
   99SAPE   C22 9926   7.225   2.229   7.694  0.1528  0.2387  0.9382
   99SAPE   H2R 9927   7.223   2.339   7.703 -0.0923  0.4399 -1.1127
   99SAPE   H2S 9928   7.277   2.193   7.786  1.7027 -0.2106 -0.0616
   99SAPE    C3 9929   6.817   2.281   7.470 -0.7531 -0.1156  0.3199
   99SAPE    HX 9930   6.890   2.253   7.391 -0.6792 -1.0655  0.7212
   99SAPE    HY 9931   6.819   2.392   7.476  0.0200 -0.1613  1.3111
   99SAPE   O31 9932   6.683   2.244   7.442  0.0892 -0.8268  0.2058
   99SAPE   C31 9933   6.665   2.222   7.308  0.2693  0.0431  0.1044
   99SAPE   O32 9934   6.754   2.223   7.229 -0.3488 -0.0998  0.0393
   99SAPE   C32 9935   6.514   2.193   7.294  0.3322 -0.3630  0.3585
   99SAPE   H2X 9936   6.462   2.286   7.324  0.4556 -0.1903  0.0378
   99SAPE   H2Y 9937   6.491   2.101   7.352  2.0576 -2.5604 -2.1800
   99SAPE   C23 9938   7.298   2.204   7.565  0.1770  0.5005  0.2987
   99SAPE   H3R 9939   7.399   2.250   7.571  1.6708 -2.1344 -2.1272
   99SAPE   H3S 9940   7.248   2.250   7.477 -0.0987  1.3765  0.9073
   99SAPE   C24 9941   7.316   2.047   7.544 -0.5387 -0.6874  0.8192
   99SAPE   H4R 9942   7.352   2.033   7.440 -1.3294 -0.5977  0.5260
   99SAPE   H4S 9943   7.224   1.985   7.551 -0.9316 -0.2863 -0.5531
   99SAPE   C25 9944   7.432   1.998   7.628  0.3786  0.3109 -0.3143
   99SAPE   H5R 9945   7.414   2.017   7.735 -1.7976  1.7376 -0.8605
   99SAPE   C26 9946   7.560   1.959   7.584 -0.2912 -0.4077  0.5124
   99SAPE   H6R 9947   7.638   1.950   7.660 -0.2920  0.9382  0.6996
   99SAPE   C27 9948   7.603   1.958   7.443  0.2547 -0.5583  0.7236
   99SAPE   H7R 9949   7.592   2.063   7.411  0.5327 -0.4821  0.8744
   99SAPE   H7S 9950   7.531   1.895   7.386  0.9766  2.2168 -3.7367
   99SAPE   C28 9951   7.748   1.915   7.422 -0.1937 -0.0511 -0.2552
   99SAPE   H8R 9952   7.791   1.857   7.505  0.7545  1.3514  0.2635
   99SAPE   C29 9953   7.827   1.935   7.312 -0.5614 -0.4159 -0.0538
   99SAPE   H9R 9954   7.933   1.905   7.320 -0.5003 -0.1246  0.2451
   99SAPE  C210 9955   7.777   2.001   7.186  0.1236  0.6026 -0.5414
   99SAPE  H10R 9956   7.735   2.102   7.208  3.9051  2.4470 -0.9815
   99SAPE  H10S 9957   7.698   1.938   7.139  0.6251  0.1074 -0.7254
   99SAPE  C211 9958   7.889   2.039   7.089  0.1506 -0.2700 -0.5209
   99SAPE  H11R 9959   7.987   2.054   7.138  0.4553 -2.6634 -0.2984
   99SAPE  C212 9960   7.866   2.060   6.959 -0.6729 -0.0858 -0.1408
   99SAPE  H12R 9961   7.950   2.085   6.893  0.0543  0.1775  0.8814
   99SAPE  C213 9962   7.725   2.061   6.889 -0.6130 -0.0204  0.0837
   99SAPE  H13R 9963   7.676   2.160   6.877  0.1690  0.4827  0.9541
   99SAPE  H13S 9964   7.648   2.007   6.948 -1.9264  0.9853 -0.6473
   99SAPE  C214 9965   7.756   1.992   6.754  0.1926  0.1427  0.0716
   99SAPE  H14R 9966   7.743   1.882   6.756  0.7203  0.0846  0.8402
   99SAPE  C215 9967   7.804   2.047   6.645  0.1221 -0.1016  0.1827
   99SAPE  H15R 9968   7.816   1.988   6.553 -1.7391  0.4208 -0.4342
   99SAPE  C216 9969   7.815   2.198   6.620  0.3100  0.1302  0.7192
   99SAPE  H16R 9970   7.916   2.242   6.638  0.6082  0.3410 -1.2315
   99SAPE  H16S 9971   7.755   2.259   6.691 -0.8081 -1.5253  1.2569
   99SAPE  C217 9972   7.783   2.246   6.471  0.0364 -0.0572  0.3315
   99SAPE  H17R 9973   7.782   2.357   6.466  0.3369 -0.0697 -0.0910
   99SAPE  H17S 9974   7.682   2.207   6.444  0.1134 -0.0530  0.0386
   99SAPE  C218 9975   7.879   2.190   6.358  0.1917 -0.2251 -0.3358
   99SAPE  H18R 9976   7.864   2.080   6.369 -2.0298  0.2186  1.6923
   99SAPE  H18S 9977   7.987   2.207   6.380  0.3250 -1.6554  0.2531
   99SAPE  C219 9978   7.817   2.238   6.230  0.3681 -0.3275  0.4181
   99SAPE  H19R 9979   7.816   2.349   6.236  2.5360 -0.1608 -1.0669
   99SAPE  H19S 9980   7.715   2.194   6.225 -0.0975  0.8347 -2.8553
   99SAPE  C220 9981   7.902   2.189   6.112  0.3498 -0.2225 -0.7994
   99SAPE  H20R 9982   7.917   2.079   6.120  2.7507  0.1289  0.3731
   99SAPE  H20S 9983   7.998   2.246   6.112 -1.1374  2.7250  2.9221
   99SAPE  H20T 9984   7.851   2.203   6.014 -1.0001  1.2527  0.0645
   99SAPE   C33 9985   6.468   2.157   7.155 -0.4272 -0.7316  0.3528
   99SAPE   H3X 9986   6.370   2.105   7.168 -0.9150  0.0697 -0.0109
   99SAPE   H3Y 9987   6.529   2.077   7.109  0.9357  0.6064 -0.2530
   99SAPE   C34 9988   6.467   2.272   7.058  0.0220 -0.4297 -0.5811
   99SAPE   H4X 9989   6.568   2.317   7.041 -0.0962 -0.7306 -2.3491
   99SAPE   H4Y 9990   6.406   2.347   7.114  0.2197 -0.6567 -0.0622
   99SAPE   C35 9991   6.419   2.236   6.914  0.0030  0.4731 -0.0517
   99SAPE   H5X 9992   6.382   2.332   6.874 -2.2009 -0.1190  0.4250
   99SAPE   H5Y 9993   6.338   2.160   6.912  2.9879 -2.9774 -1.4219
   99SAPE   C36 9994   6.529   2.179   6.818  0.1225 -0.5868  0.3983
   99SAPE   H6X 9995   6.561   2.081   6.861  1.4376 -1.4254 -2.2604
   99SAPE   H6Y 9996   6.619   2.243   6.810  0.6391 -1.4121 -0.5806
   99SAPE   C37 9997   6.476   2.160   6.675 -0.5105  0.2671 -0.0497
   99SAPE   H7X 9998   6.439   2.254   6.628  1.2801  0.4912 -1.1166
   99SAPE   H7Y 9999   6.393   2.087   6.684 -0.5464  0.2816 -0.2491
   99SAPE   C3810000   6.580   2.116   6.568  0.0493 -0.0136 -0.0240
   99SAPE   H8X10001   6.659   2.050   6.611  0.9457 -0.0201 -1.5782
   99SAPE   H8Y10002   6.632   2.209   6.537  0.9771 -0.3055  0.6060
   99SAPE   C3910003   6.508   2.066   6.445 -0.0773 -0.5034 -0.5164
   99SAPE   H9X10004   6.416   2.121   6.417  0.1821 -0.4482 -1.2805
   99SAPE   H9Y10005   6.478   1.959   6.455  0.1925 -0.5862 -0.5783
   99SAPE  C31010006   6.597   2.070   6.324  0.2381  0.4939  0.5479
   99SAPE  H10X10007   6.677   1.992   6.331  0.9368  1.2381  1.0774
   99SAPE  H10Y10008   6.643   2.171   6.316  1.4559 -0.0298  0.6916
   99SAPE  C31110009   6.521   2.039   6.191 -0.6106 -0.3233 -0.4275
   99SAPE  H11X10010   6.448   2.120   6.171  0.1737  1.2183  2.3491
   99SAPE  H11Y10011   6.473   1.938   6.192  0.5620 -0.9005  0.3633
   99SAPE  C31210012   6.616   2.030   6.071  0.2862 -0.1259 -0.2721
   99SAPE  H12X10013   6.690   1.953   6.101 -1.1503 -0.9521  1.2430
   99SAPE  H12Y10014   6.665   2.130   6.077  0.4319 -0.0614 -2.0410
   99SAPE  C31310015   6.552   2.020   5.934 -0.4440 -0.9899 -0.7093
   99SAPE  H13X10016   6.498   2.115   5.913  0.2164 -0.9844 -2.6079
   99SAPE  H13Y10017   6.482   1.934   5.930 -1.1478 -0.6525  2.1665
   99SAPE  C31410018   6.656   2.001   5.816  0.1859  0.2782 -0.8515
   99SAPE  H14X10019   6.691   1.897   5.830 -1.1995 -0.2272 -0.9088
   99SAPE  H14Y10020   6.739   2.075   5.816  0.0482  0.4517  0.2326
   99SAPE  C31510021   6.594   2.012   5.684  0.0336  0.1901  0.5350
   99SAPE  H15X10022   6.681   1.976   5.625 -0.7669 -1.6443  0.3949
   99SAPE  H15Y10023   6.566   2.116   5.657  1.4555  0.3616 -0.3612
   99SAPE  C31610024   6.479   1.907   5.656 -0.3441  0.4005  0.0976
   99SAPE  H16X10025   6.387   1.941   5.708  0.2855  1.9054  0.2853
   99SAPE  H16Y10026   6.500   1.809   5.704  1.2630  2.0651  3.1903
   99SAPE  C31710027   6.456   1.876   5.512 -0.3013 -0.9237 -0.0380
   99SAPE  H17X10028   6.553   1.839   5.472 -0.1678 -1.6976  0.9678
   99SAPE  H17Y10029   6.424   1.972   5.467  3.1099 -0.6986 -2.3012
   99SAPE  C31810030   6.354   1.771   5.474 -0.2296  0.0298 -0.6748
   99SAPE  H18X10031   6.353   1.689   5.549  1.5209 -0.9571 -1.6563
   99SAPE  H18Y10032   6.383   1.717   5.381  1.5344 -1.0419  0.4394
   99SAPE  H18Z10033   6.249   1.804   5.462  0.5637  3.1275  0.0399
  100SAPE     N10034   3.051   0.773   7.655  0.4228 -0.0439 -0.3684
  100SAPE   HN110035   3.105   0.800   7.740 -0.3889  2.9454 -0.6883
  100SAPE   HN210036   3.001   0.852   7.610 -0.6892 -1.4812 -1.7672
  100SAPE   HN310037   2.978   0.704   7.683  2.7287 -2.1044  0.9713
  100SAPE   C1210038   3.139   0.703   7.561  0.7892  0.8315  0.5203
  100SAPE  H12A10039   3.082   0.676   7.470  0.4562 -1.1177  1.2625
  100SAPE  H12B10040   3.177   0.612   7.612 -1.3802  0.8160  2.2732
  100SAPE   C1110041   3.260   0.794   7.532  0.3323  0.6331  0.6166
  100SAPE  H11A10042   3.216   0.889   7.494 -1.3752  0.2376  1.5095
  100SAPE  H11B10043   3.330   0.754   7.456 -0.5371  0.9750 -0.3783
  100SAPE     P10044   3.454   0.740   7.694 -0.2785  0.3347 -0.1785
  100SAPE   O1310045   3.525   0.788   7.813  0.2084  0.1429 -0.0481
  100SAPE   O1410046   3.413   0.601   7.704  0.1324 -0.3954 -0.6478
  100SAPE   O1210047   3.325   0.830   7.652 -0.6202 -0.0766  0.4865
  100SAPE   O1110048   3.559   0.760   7.574  0.1603  0.0727  0.3383
  100SAPE    C110049   3.603   0.890   7.539 -0.5958  0.1850  0.1016
  100SAPE    HA10050   3.597   0.962   7.624  1.5509  0.4936  0.0543
  100SAPE    HB10051   3.710   0.885   7.509 -0.5003  2.4250 -0.1338
  100SAPE    C210052   3.528   0.947   7.418 -0.1552 -0.7153 -0.5274
  100SAPE    HS10053   3.421   0.961   7.444  0.0483  0.0505 -0.0967
  100SAPE   O2110054   3.534   0.856   7.310  0.5081 -0.2826  0.4875
  100SAPE   C2110055   3.428   0.863   7.222 -0.2913 -0.3102  0.7623
  100SAPE   O2210056   3.332   0.941   7.238  0.2613  0.2523 -0.1833
  100SAPE   C2210057   3.446   0.776   7.102  0.0339  0.0160 -0.5851
  100SAPE   H2R10058   3.440   0.835   7.009 -1.5266 -0.4587 -0.8315
  100SAPE   H2S10059   3.543   0.723   7.113 -0.5380 -0.6692  1.6783
  100SAPE    C310060   3.592   1.087   7.391  0.1074  0.1231 -0.1269
  100SAPE    HX10061   3.701   1.070   7.385 -0.0015 -1.2920  1.3759
  100SAPE    HY10062   3.567   1.158   7.473  0.8472 -0.9658  1.0699
  100SAPE   O3110063   3.553   1.144   7.267 -0.3416  0.3482 -0.2147
  100SAPE   C3110064   3.459   1.234   7.269  0.9982  0.5277  0.5117
  100SAPE   O3210065   3.381   1.252   7.363  0.2487  0.0366 -0.2193
  100SAPE   C3210066   3.450   1.313   7.140 -0.3832  0.0607  0.4411
  100SAPE   H2X10067   3.535   1.285   7.074 -0.8686  0.2398 -0.2686
  100SAPE   H2Y10068   3.459   1.421   7.167  0.3731  0.1039  0.0599
  100SAPE   C2310069   3.337   0.672   7.091 -0.6944  0.4123  0.4910
  100SAPE   H3R10070   3.236   0.716   7.072 -0.8747 -0.7141 -1.4214
  100SAPE   H3S10071   3.318   0.624   7.189 -1.2413  1.7888  1.0918
  100SAPE   C2410072   3.377   0.556   6.989  0.2463  0.3331 -0.0536
  100SAPE   H4R10073   3.292   0.485   6.982  0.7950 -0.4305  0.7806
  100SAPE   H4S10074   3.462   0.504   7.037  0.3023  0.6845  0.2326
  100SAPE   C2510075   3.417   0.607   6.847 -0.6957 -0.4966  0.0844
  100SAPE   H5R10076   3.330   0.651   6.796  0.0801  2.2857  0.9811
  100SAPE   C2610077   3.538   0.618   6.790  0.1757  0.0792  0.1627
  100SAPE   H6R10078   3.548   0.658   6.688  0.7561  3.2872  1.3726
  100SAPE   C2710079   3.666   0.579   6.852 -0.6388  0.0993 -0.3572
  100SAPE   H7R10080   3.715   0.518   6.773 -2.3553  0.8483 -2.0744
  100SAPE   H7S10081   3.646   0.510   6.936  1.1583  0.7409  0.6583
  100SAPE   C2810082   3.755   0.696   6.886 -0.6913 -0.2640 -0.3864
  100SAPE   H8R10083   3.701   0.768   6.948 -0.5732 -1.3400  1.0062
  100SAPE   C2910084   3.877   0.714   6.847 -0.0359 -0.4008  0.3645
  100SAPE   H9R10085   3.932   0.802   6.884 -0.4573  0.7455 -1.6351
  100SAPE  C21010086   3.961   0.618   6.765  0.9922  0.3916  0.2125
  100SAPE  H10R10087   3.966   0.653   6.659  0.5484  0.5807  0.2490
  100SAPE  H10S10088   3.915   0.517   6.770 -0.2087  0.9203  0.3773
  100SAPE  C21110089   4.102   0.601   6.821  0.4931 -0.1098 -0.2585
  100SAPE  H11R10090   4.110   0.596   6.931 -1.7766 -0.7347 -0.0632
  100SAPE  C21210091   4.204   0.556   6.745 -0.4369  0.4733  0.2482
  100SAPE  H12R10092   4.294   0.521   6.797 -0.2866  0.5107  0.0165
  100SAPE  C21310093   4.206   0.536   6.592  0.1787 -0.5305  0.3356
  100SAPE  H13R10094   4.104   0.509   6.557  0.4196  0.1258 -0.9257
  100SAPE  H13S10095   4.268   0.450   6.560 -1.3960 -0.8071 -2.3193
  100SAPE  C21410096   4.248   0.660   6.515 -0.0462 -0.5742 -0.4584
  100SAPE  H14R10097   4.183   0.748   6.530 -0.0468 -0.9285  1.9677
  100SAPE  C21510098   4.342   0.668   6.423  0.1961  0.3352  0.2217
  100SAPE  H15R10099   4.365   0.767   6.380 -0.5934 -0.3159 -1.8247
  100SAPE  C21610100   4.441   0.560   6.374  0.8446 -0.1422  0.0790
  100SAPE  H16R10101   4.455   0.472   6.440  1.9348  1.1814  1.6876
  100SAPE  H16S10102   4.545   0.600   6.382  0.9117 -0.5765  1.7453
  100SAPE  C21710103   4.413   0.516   6.233  0.1898  0.5295 -0.4817
  100SAPE  H17R10104   4.307   0.495   6.211 -0.3241 -0.0495  2.2393
  100SAPE  H17S10105   4.467   0.421   6.213  2.8089  2.3082 -2.7027
  100SAPE  C21810106   4.465   0.616   6.123  0.0388 -0.5530 -0.3402
  100SAPE  H18R10107   4.567   0.654   6.144 -0.7179  0.6344  1.5180
  100SAPE  H18S10108   4.409   0.712   6.137 -0.6191 -1.0458  0.4878
  100SAPE  C21910109   4.450   0.571   5.981  0.5950  0.0798  0.5247
  100SAPE  H19R10110   4.479   0.651   5.910  1.3985  0.2744  1.0683
  100SAPE  H19S10111   4.346   0.539   5.957 -0.0160  2.6508 -0.5769
  100SAPE  C22010112   4.553   0.457   5.961 -0.4966  0.2089 -0.1335
  100SAPE  H20R10113   4.580   0.446   5.854 -2.4790 -2.1865 -0.4981
  100SAPE  H20S10114   4.518   0.361   6.004  0.7220  0.7498  2.1741
  100SAPE  H20T10115   4.644   0.489   6.014  0.7746 -0.8961 -1.5625
  100SAPE   C3310116   3.321   1.288   7.056 -0.8446 -0.1386  0.2985
  100SAPE   H3X10117   3.302   1.375   6.990 -1.2388  0.5498  1.2924
  100SAPE   H3Y10118   3.238   1.290   7.130 -0.1373 -1.5204  1.1790
  100SAPE   C3410119   3.306   1.154   6.980 -0.0648  0.0341 -0.9185
  100SAPE   H4X10120   3.205   1.139   6.935  0.2111  0.2666 -1.6353
  100SAPE   H4Y10121   3.308   1.069   7.050 -0.7611 -0.9351 -2.0270
  100SAPE   C3510122   3.407   1.122   6.869 -0.0677  0.4290  0.1987
  100SAPE   H5X10123   3.383   1.017   6.842 -2.2564  0.2008  2.6122
  100SAPE   H5Y10124   3.506   1.128   6.918 -0.8853 -0.2921  2.0430
  100SAPE   C3610125   3.409   1.225   6.758 -0.1300 -0.0639  0.2675
  100SAPE   H6X10126   3.453   1.319   6.796  0.4317 -0.6001  0.9784
  100SAPE   H6Y10127   3.303   1.250   6.732 -0.6086 -0.9923  1.2610
  100SAPE   C3710128   3.482   1.182   6.623 -0.2793 -0.7423 -0.1890
  100SAPE   H7X10129   3.591   1.172   6.638 -0.0722 -0.0014 -1.1448
  100SAPE   H7Y10130   3.471   1.258   6.543  0.0526 -1.3641 -0.8450
  100SAPE   C3810131   3.418   1.055   6.556  0.5893  0.6694 -0.3845
  100SAPE   H8X10132   3.413   1.089   6.450  1.4757  0.4670 -0.5026
  100SAPE   H8Y10133   3.317   1.039   6.599  1.3782 -2.1364  0.5996
  100SAPE   C3910134   3.507   0.932   6.566  0.2625 -0.1183 -0.2655
  100SAPE   H9X10135   3.439   0.846   6.584 -0.8691  0.9770  0.8957
  100SAPE   H9Y10136   3.566   0.952   6.657  0.2704  4.5928 -1.0729
  100SAPE  C31010137   3.606   0.913   6.445 -0.3476 -0.0149 -0.2648
  100SAPE  H10X10138   3.670   1.003   6.437  0.5935 -0.4601  1.6478
  100SAPE  H10Y10139   3.543   0.896   6.355  0.4019  1.5880 -1.1229
  100SAPE  C31110140   3.695   0.790   6.464 -0.5414  0.2845  0.2356
  100SAPE  H11X10141   3.627   0.713   6.507  1.6804 -0.5621  2.4657
  100SAPE  H11Y10142   3.777   0.798   6.538 -1.1655 -2.6197  1.3508
  100SAPE  C31210143   3.753   0.743   6.327 -0.0513  0.6973  0.0879
  100SAPE  H12X10144   3.765   0.840   6.274  0.3950  1.2823  1.2321
  100SAPE  H12Y10145   3.679   0.677   6.277  2.3322 -2.4299  0.3863
  100SAPE  C31310146   3.878   0.664   6.336  0.4319 -0.6178 -0.4740
  100SAPE  H13X10147   3.869   0.575   6.401  1.6725  0.1467  0.7775
  100SAPE  H13Y10148   3.953   0.727   6.387 -1.4977  2.0170 -0.7070
  100SAPE  C31410149   3.920   0.616   6.200  0.2666 -0.5438  0.1987
  100SAPE  H14X10150   3.831   0.562   6.161  0.8421  0.2374 -2.3996
  100SAPE  H14Y10151   4.006   0.549   6.219 -0.7313 -1.2580  2.6490
  100SAPE  C31510152   3.952   0.720   6.092 -0.1913  0.2768  0.1157
  100SAPE  H15X10153   3.866   0.786   6.069 -1.0301 -0.8990 -0.1764
  100SAPE  H15Y10154   3.964   0.664   5.997  0.6688  0.1413  0.2926
  100SAPE  C31610155   4.081   0.795   6.115  0.5378 -0.5278  0.4521
  100SAPE  H16X10156   4.159   0.715   6.122  0.8759 -0.0578  3.0504
  100SAPE  H16Y10157   4.069   0.853   6.209 -0.9557  0.9520 -0.5940
  100SAPE  C31710158   4.116   0.892   6.007  0.2030 -0.1110 -0.5310
  100SAPE  H17X10159   4.030   0.962   6.004  0.5269  0.3112 -0.1138
  100SAPE  H17Y10160   4.123   0.847   5.906 -0.2964 -0.4223 -0.4348
  100SAPE  C31810161   4.246   0.968   6.038 -0.3799  0.1155 -0.0528
  100SAPE  H18X10162   4.340   0.910   6.032 -0.9949 -1.4911  3.3090
  100SAPE  H18Y10163   4.240   1.010   6.141  1.3220 -0.3129  0.2421
  100SAPE  H18Z10164   4.256   1.056   5.971 -1.2709 -0.0603 -0.4281
  101SAPE     N10165   2.730   2.830   7.642 -0.2285 -0.1160  0.1885
  101SAPE   HN110166   2.758   2.754   7.576 -1.6954 -2.0810  1.6989
  101SAPE   HN210167   2.742   2.923   7.597 -1.4822 -0.1883 -0.3378
  101SAPE   HN310168   2.804   2.817   7.714 -1.9609  0.9803  2.2881
  101SAPE   C1210169   2.593   2.809   7.713 -0.0141  0.4030  0.5581
  101SAPE  H12A10170   2.520   2.814   7.630 -0.5317 -0.6275  0.9399
  101SAPE  H12B10171   2.582   2.892   7.787  1.9735  3.3157 -2.1216
  101SAPE   C1110172   2.581   2.660   7.772 -0.3464 -0.0644  0.1913
  101SAPE  H11A10173   2.478   2.639   7.809 -0.3494  0.8954  0.7716
  101SAPE  H11B10174   2.646   2.660   7.861  0.4401  0.3122 -0.3757
  101SAPE     P10175   2.531   2.452   7.604  0.2562 -0.0940 -0.2320
  101SAPE   O1310176   2.607   2.327   7.586 -0.4336  0.0675 -0.1198
  101SAPE   O1410177   2.404   2.428   7.674  0.1950 -0.3436  0.2481
  101SAPE   O1210178   2.620   2.562   7.681 -0.4844 -0.2979 -0.6321
  101SAPE   O1110179   2.510   2.518   7.457 -0.7070  0.4542 -0.1472
  101SAPE    C110180   2.633   2.558   7.393  0.0711  0.2052 -0.3308
  101SAPE    HA10181   2.629   2.667   7.374  1.1992  0.1702 -0.8616
  101SAPE    HB10182   2.728   2.555   7.451  1.0164  1.6086 -1.7447
  101SAPE    C210183   2.657   2.492   7.256  0.1451  0.3758  0.5294
  101SAPE    HS10184   2.754   2.532   7.217  0.4658 -1.5343 -0.7540
  101SAPE   O2110185   2.542   2.518   7.170 -0.9888 -0.6175  0.3497
  101SAPE   C2110186   2.543   2.635   7.107  0.3021 -0.0273 -0.5153
  101SAPE   O2210187   2.628   2.723   7.109 -0.0914  0.6862  0.7543
  101SAPE   C2210188   2.397   2.646   7.049 -0.0581 -0.3721 -0.3533
  101SAPE   H2R10189   2.343   2.734   7.091 -2.1202 -0.9404 -1.6593
  101SAPE   H2S10190   2.414   2.672   6.942  0.4264 -0.5177 -0.3133
  101SAPE    C310191   2.666   2.338   7.266  0.0100  0.1986  0.0930
  101SAPE    HX10192   2.571   2.309   7.316  1.0447 -0.6572  1.6535
  101SAPE    HY10193   2.747   2.320   7.341  0.0137  0.1056  0.0669
  101SAPE   O3110194   2.706   2.271   7.144  0.1671  0.2354 -0.2754
  101SAPE   C3110195   2.605   2.214   7.071  0.5233  0.7155  0.6573
  101SAPE   O3210196   2.490   2.207   7.109  0.2128  0.1177  0.7437
  101SAPE   C3210197   2.659   2.147   6.941 -0.1649 -0.2774 -0.2994
  101SAPE   H2X10198   2.573   2.137   6.872  0.6633 -0.4884 -1.3361
  101SAPE   H2Y10199   2.698   2.045   6.962 -2.2373 -1.4702 -1.8817
  101SAPE   C2310200   2.318   2.517   7.034 -0.6996 -0.2554  0.3494
  101SAPE   H3R10201   2.299   2.472   7.134  0.1165 -1.9794 -0.2305
  101SAPE   H3S10202   2.383   2.438   6.990  0.1580  0.4277  0.3525
  101SAPE   C2410203   2.183   2.532   6.956 -0.2468 -0.4173  0.4136
  101SAPE   H4R10204   2.118   2.606   7.008  0.0713  1.7139 -2.0049
  101SAPE   H4S10205   2.124   2.438   6.965 -2.3169  0.6552 -1.1009
  101SAPE   C2510206   2.208   2.568   6.814  0.3011 -0.2829  0.3626
  101SAPE   H5R10207   2.194   2.677   6.810 -2.2249 -0.4817  1.8824
  101SAPE   C2610208   2.240   2.493   6.711 -0.0688  0.2218  0.4640
  101SAPE   H6R10209   2.248   2.550   6.617 -1.7729 -0.7638 -0.3131
  101SAPE   C2710210   2.261   2.340   6.704  0.7289 -0.3681 -0.1866
  101SAPE   H7R10211   2.187   2.306   6.628 -2.6122 -1.1450  3.0941
  101SAPE   H7S10212   2.232   2.291   6.800  1.4998  1.3337  0.9703
  101SAPE   C2810213   2.397   2.303   6.661 -0.2043  0.4518 -0.5247
  101SAPE   H8R10214   2.478   2.335   6.727 -0.1154 -1.4071  0.2999
  101SAPE   C2910215   2.435   2.238   6.550 -0.1738 -0.0908  0.4825
  101SAPE   H9R10216   2.539   2.211   6.525 -1.1118 -2.5881 -1.1263
  101SAPE  C21010217   2.350   2.184   6.435 -0.5068 -0.0928 -1.0755
  101SAPE  H10R10218   2.249   2.200   6.477  0.6158  1.2899  1.2853
  101SAPE  H10S10219   2.372   2.075   6.425  0.3427 -0.3676  2.4782
  101SAPE  C21110220   2.366   2.262   6.307  0.4096  0.1949 -0.8477
  101SAPE  H11R10221   2.330   2.366   6.306  2.7408  1.0657  0.4010
  101SAPE  C21210222   2.405   2.206   6.193 -0.0600  0.0755  0.6590
  101SAPE  H12R10223   2.416   2.268   6.103  0.9918 -2.6777 -1.2591
  101SAPE  C21310224   2.433   2.059   6.171 -0.5110  0.0707  0.4003
  101SAPE  H13R10225   2.348   1.990   6.187 -0.0937 -1.0320 -1.7658
  101SAPE  H13S10226   2.511   2.042   6.249 -2.2089 -2.8425  1.6268
  101SAPE  C21410227   2.472   2.028   6.028  0.2398  0.2387  0.0850
  101SAPE  H14R10228   2.388   1.980   5.976  0.8884 -0.1742 -0.6042
  101SAPE  C21510229   2.589   2.040   5.961  0.2814 -0.3357 -0.3409
  101SAPE  H15R10230   2.587   2.007   5.856  1.4293  0.2848 -0.5747
  101SAPE  C21610231   2.719   2.073   6.028 -0.4132 -0.2096  0.4685
  101SAPE  H16R10232   2.724   2.016   6.123 -1.4984 -0.1574  0.5656
  101SAPE  H16S10233   2.714   2.180   6.056 -1.0368  0.0026 -0.4199
  101SAPE  C21710234   2.838   2.035   5.946 -0.6053 -0.2255 -0.1124
  101SAPE  H17R10235   2.846   1.925   5.930  0.3707 -0.1274 -0.3591
  101SAPE  H17S10236   2.932   2.062   5.999 -0.1912  0.2275 -1.0575
  101SAPE  C21810237   2.851   2.099   5.803 -0.0787 -0.7223  0.2197
  101SAPE  H18R10238   2.856   2.208   5.823  2.8817 -0.5550 -0.9122
  101SAPE  H18S10239   2.759   2.080   5.742 -0.9945 -0.1487  1.3881
  101SAPE  C21910240   2.976   2.056   5.717 -0.4115 -0.0677 -0.0375
  101SAPE  H19R10241   2.938   2.029   5.616  0.1517 -1.5557  0.1169
  101SAPE  H19S10242   3.031   1.973   5.766 -0.9534  0.0874  0.8593
  101SAPE  C22010243   3.083   2.172   5.695  0.7105  0.1248 -0.5006
  101SAPE  H20R10244   3.117   2.213   5.792 -3.2819  2.0614  0.2828
  101SAPE  H20S10245   3.015   2.243   5.645 -1.4261 -2.0611 -0.8682
  101SAPE  H20T10246   3.163   2.133   5.629  1.3916 -2.6446  1.7477
  101SAPE   C3310247   2.777   2.220   6.870  0.2055  0.6684 -0.8325
  101SAPE   H3X10248   2.869   2.237   6.929  1.6317 -0.4311 -2.6247
  101SAPE   H3Y10249   2.747   2.315   6.821  0.7788  1.7594  0.8480
  101SAPE   C3410250   2.834   2.136   6.757  0.6087 -0.3412  0.5597
  101SAPE   H4X10251   2.747   2.118   6.691 -0.2349  0.3392  1.4771
  101SAPE   H4Y10252   2.874   2.036   6.785 -0.5322  0.0030  3.7452
  101SAPE   C3510253   2.934   2.207   6.663  0.3041 -0.4993 -0.4097
  101SAPE   H5X10254   3.017   2.251   6.723 -0.0874  1.5005 -1.2633
  101SAPE   H5Y10255   2.883   2.300   6.629  0.2424 -0.8243 -1.2296
  101SAPE   C3610256   2.979   2.135   6.536  0.0175 -0.4699 -0.1330
  101SAPE   H6X10257   2.886   2.096   6.490 -1.1800  1.4622  0.5038
  101SAPE   H6Y10258   3.047   2.049   6.552 -1.4614 -1.7055 -0.1866
  101SAPE   C3710259   3.047   2.226   6.439  1.1658  0.0614  0.1993
  101SAPE   H7X10260   3.132   2.284   6.480  2.0760 -0.5247 -0.8277
  101SAPE   H7Y10261   2.966   2.288   6.395 -0.7296 -2.7653 -0.5935
  101SAPE   C3810262   3.096   2.135   6.325  0.6825 -1.1765  0.0210
  101SAPE   H8X10263   3.013   2.074   6.285 -0.1971 -1.5169  2.2438
  101SAPE   H8Y10264   3.166   2.055   6.357  2.0094  0.2493  0.8821
  101SAPE   C3910265   3.164   2.202   6.202 -0.4135  0.2066 -0.4598
  101SAPE   H9X10266   3.227   2.286   6.238  2.3377 -2.2361  0.8322
  101SAPE   H9Y10267   3.089   2.237   6.127 -1.1703 -1.0889 -0.3289
  101SAPE  C31010268   3.270   2.112   6.131 -0.4746  1.0576  0.3631
  101SAPE  H10X10269   3.355   2.098   6.201  0.0838 -2.8006 -0.8814
  101SAPE  H10Y10270   3.313   2.169   6.045  1.8079 -0.6796  0.2515
  101SAPE  C31110271   3.208   1.979   6.080  0.0951 -0.9704 -0.0210
  101SAPE  H11X10272   3.124   2.015   6.016  0.8472  0.3267 -0.3121
  101SAPE  H11Y10273   3.157   1.920   6.160  1.7790 -1.6263  0.6022
  101SAPE  C31210274   3.308   1.894   6.009 -0.4008 -0.4539  0.0659
  101SAPE  H12X10275   3.399   1.901   6.072 -0.2216  2.3782 -0.4113
  101SAPE  H12Y10276   3.321   1.933   5.906 -1.2746 -1.5612 -0.4817
  101SAPE  C31310277   3.255   1.752   5.998 -0.5321  0.0877 -0.4224
  101SAPE  H13X10278   3.156   1.762   5.949 -0.8850  1.5173  0.5206
  101SAPE  H13Y10279   3.247   1.715   6.103  0.4635  0.2729 -0.2721
  101SAPE  C31410280   3.339   1.655   5.921  0.1423  0.8462  0.2163
  101SAPE  H14X10281   3.442   1.656   5.963 -1.1109  0.1161  3.6917
  101SAPE  H14Y10282   3.348   1.685   5.815 -1.7006 -0.3657 -0.3275
  101SAPE  C31510283   3.294   1.505   5.915 -0.1907  0.1681 -0.4841
  101SAPE  H15X10284   3.273   1.475   6.021  4.0561 -2.6876 -0.2238
  101SAPE  H15Y10285   3.384   1.450   5.883  1.8947  2.8735  0.3074
  101SAPE  C31610286   3.163   1.471   5.836  0.5843 -0.1791  0.1932
  101SAPE  H16X10287   3.178   1.494   5.729  1.3164  0.2832  0.3912
  101SAPE  H16Y10288   3.083   1.541   5.869  1.0942  0.2277  0.5639
  101SAPE  C31710289   3.117   1.323   5.858  1.1483  0.0463  0.0410
  101SAPE  H17X10290   3.020   1.316   5.805  0.4986  2.1898  0.8498
  101SAPE  H17Y10291   3.108   1.290   5.964  0.3690  0.9347  0.2624
  101SAPE  C31810292   3.223   1.222   5.797 -0.7588  0.0521 -0.1341
  101SAPE  H18X10293   3.181   1.127   5.758 -0.2127 -0.3406  0.2161
  101SAPE  H18Y10294   3.311   1.205   5.863  0.8345 -1.6660 -2.5057
  101SAPE  H18Z10295   3.262   1.268   5.704 -0.2131  2.3345  1.1459
  102SAPE     N10296   3.245   2.019   8.150  0.7907 -0.5830 -0.7831
  102SAPE   HN110297   3.187   1.935   8.169 -0.6388  0.3890 -0.7061
  102SAPE   HN210298   3.338   1.972   8.147  1.5470  0.5750  2.0266
  102SAPE   HN310299   3.237   2.085   8.230  0.4861  0.9741 -2.0290
  102SAPE   C1210300   3.206   2.084   8.022  0.0780  1.2536 -0.9894
  102SAPE  H12A10301   3.217   2.005   7.945 -0.7425  0.3143 -0.1719
  102SAPE  H12B10302   3.279   2.164   7.999 -0.3515  2.0595  0.3120
  102SAPE   C1110303   3.061   2.139   8.036  0.6653  0.4270  0.7043
  102SAPE  H11A10304   3.036   2.188   7.940 -1.4823  1.3676  1.6512
  102SAPE  H11B10305   3.054   2.218   8.114  2.9295  1.2042  0.1870
  102SAPE     P10306   2.816   2.031   8.027  0.2125 -0.5430 -0.2778
  102SAPE   O1310307   2.735   1.977   8.139  0.1235 -0.1316 -0.3478
  102SAPE   O1410308   2.771   2.161   7.972 -0.5130  0.1308  0.3097
  102SAPE   O1210309   2.971   2.030   8.070  0.6329 -0.0830  0.6235
  102SAPE   O1110310   2.809   1.926   7.911 -0.3478  0.2466  0.0235
  102SAPE    C110311   2.891   1.929   7.791  0.8803  0.1215 -0.0373
  102SAPE    HA10312   2.920   2.031   7.759  0.4980  0.4169  0.5416
  102SAPE    HB10313   2.986   1.877   7.814 -0.0886 -2.6500 -1.7357
  102SAPE    C210314   2.810   1.865   7.675  1.1518  0.6305 -0.5290
  102SAPE    HS10315   2.712   1.917   7.668 -0.8840 -2.5208  1.7381
  102SAPE   O2110316   2.793   1.725   7.702 -0.0263  0.4752 -0.2789
  102SAPE   C2110317   2.671   1.674   7.695  0.0364  0.1611 -0.5354
  102SAPE   O2210318   2.575   1.725   7.645  0.5053 -0.1377  0.2502
  102SAPE   C2210319   2.686   1.520   7.723  0.1264  0.3505 -0.2543
  102SAPE   H2R10320   2.760   1.474   7.654  0.4242 -0.0143  0.2997
  102SAPE   H2S10321   2.736   1.506   7.822  0.8427 -0.1127 -0.6749
  102SAPE    C310322   2.876   1.878   7.537 -0.3977 -0.6064 -1.3762
  102SAPE    HX10323   2.982   1.846   7.544 -0.1362  0.2480 -1.3488
  102SAPE    HY10324   2.899   1.984   7.517  1.2395 -0.6487  0.0167
  102SAPE   O3110325   2.808   1.810   7.434  0.4387  0.2905 -0.4757
  102SAPE   C3110326   2.701   1.865   7.394  0.3512 -0.1938 -0.1010
  102SAPE   O3210327   2.662   1.980   7.427 -0.0211  0.7366 -0.3148
  102SAPE   C3210328   2.632   1.768   7.298 -0.1885 -0.1412 -0.0437
  102SAPE   H2X10329   2.589   1.685   7.358  0.4457 -0.7261 -0.3829
  102SAPE   H2Y10330   2.709   1.721   7.232 -0.7470  0.2682 -1.0081
  102SAPE   C2310331   2.554   1.448   7.737  0.2219 -0.5238 -0.0109
  102SAPE   H3R10332   2.470   1.507   7.778  0.1040 -1.1829  0.7103
  102SAPE   H3S10333   2.571   1.368   7.812 -1.5798 -1.0604 -0.1350
  102SAPE   C2410334   2.500   1.388   7.605 -0.1168 -0.1469 -0.7008
  102SAPE   H4R10335   2.481   1.468   7.530 -1.3110  0.6282  0.3889
  102SAPE   H4S10336   2.400   1.349   7.635 -0.6240 -0.6756 -2.9076
  102SAPE   C2510337   2.581   1.270   7.557 -0.6307  0.5243 -0.2702
  102SAPE   H5R10338   2.593   1.191   7.633  0.9411  1.7519  0.8455
  102SAPE   C2610339   2.650   1.263   7.440 -0.2688 -0.1457  1.0460
  102SAPE   H6R10340   2.717   1.177   7.423 -0.7317 -0.3014 -0.0876
  102SAPE   C2710341   2.665   1.376   7.341  0.1276  0.5595 -0.1718
  102SAPE   H7R10342   2.606   1.466   7.367 -0.3863  0.3243 -0.5025
  102SAPE   H7S10343   2.631   1.347   7.239  0.5333  2.6587 -0.9456
  102SAPE   C2810344   2.811   1.411   7.332  0.4426 -0.2937 -0.0446
  102SAPE   H8R10345   2.868   1.412   7.427 -1.2787  1.2640  1.0539
  102SAPE   C2910346   2.877   1.444   7.218 -0.1800 -0.4201  0.3349
  102SAPE   H9R10347   2.983   1.474   7.227  0.2632 -0.1057 -4.0001
  102SAPE  C21010348   2.812   1.451   7.079  0.4797  0.3079  0.3329
  102SAPE  H10R10349   2.805   1.560   7.059  0.2252  0.4464  1.1506
  102SAPE  H10S10350   2.705   1.424   7.082  0.6841 -0.6787 -0.5459
  102SAPE  C21110351   2.890   1.376   6.973  0.5286  0.3442  0.9277
  102SAPE  H11R10352   2.996   1.403   6.969  0.9517 -1.3136 -3.2613
  102SAPE  C21210353   2.845   1.279   6.888 -0.8028 -0.1331  0.6962
  102SAPE  H12R10354   2.918   1.231   6.821  0.1399  0.1248  1.5047
  102SAPE  C21310355   2.713   1.201   6.899 -0.5882 -0.4033 -0.0248
  102SAPE  H13R10356   2.675   1.213   7.003 -1.7698 -2.6504 -0.1174
  102SAPE  H13S10357   2.725   1.092   6.884 -2.0534 -0.2713 -2.7108
  102SAPE  C21410358   2.611   1.256   6.797 -0.5665  0.0892 -0.2807
  102SAPE  H14R10359   2.542   1.332   6.838  0.9331  1.9779 -1.0888
  102SAPE  C21510360   2.612   1.223   6.666 -0.0075 -0.4165 -0.6366
  102SAPE  H15R10361   2.552   1.279   6.594  2.1105 -0.0323 -2.2078
  102SAPE  C21610362   2.716   1.137   6.602  0.1358 -0.4941 -0.0984
  102SAPE  H16R10363   2.762   1.068   6.677 -1.8600 -2.9030 -0.9250
  102SAPE  H16S10364   2.787   1.197   6.543  0.3681 -1.7299 -1.1338
  102SAPE  C21710365   2.663   1.045   6.486 -0.4708  0.0370  0.6402
  102SAPE  H17R10366   2.577   0.986   6.525 -0.9797  0.1738 -0.2553
  102SAPE  H17S10367   2.745   0.972   6.472  1.7479  2.4339  0.3103
  102SAPE  C21810368   2.614   1.115   6.356  0.1003  0.2414 -0.7583
  102SAPE  H18R10369   2.691   1.195   6.350  1.0660 -0.2525  2.6596
  102SAPE  H18S10370   2.514   1.164   6.361  0.2334  0.4238  1.3311
  102SAPE  C21910371   2.615   1.026   6.229 -0.6287 -0.1814  0.5903
  102SAPE  H19R10372   2.715   0.979   6.215 -1.4546 -1.8777  0.0191
  102SAPE  H19S10373   2.612   1.104   6.150 -0.4499 -0.6379  0.1243
  102SAPE  C22010374   2.494   0.927   6.214  0.1313  0.9519  0.0072
  102SAPE  H20R10375   2.507   0.831   6.269 -2.5383  0.3838 -0.2437
  102SAPE  H20S10376   2.472   0.906   6.107 -0.5019 -0.7108  0.4362
  102SAPE  H20T10377   2.404   0.974   6.258 -1.7365 -2.7311  0.5304
  102SAPE   C3310378   2.536   1.849   7.212  0.4189 -0.3061  0.3229
  102SAPE   H3X10379   2.595   1.918   7.148 -0.4835  0.2078  0.0349
  102SAPE   H3Y10380   2.461   1.902   7.273  0.8313  0.7440 -0.0538
  102SAPE   C3410381   2.451   1.758   7.118 -0.1100 -0.5913  0.7884
  102SAPE   H4X10382   2.370   1.818   7.072  0.3375  0.5698  1.4577
  102SAPE   H4Y10383   2.401   1.681   7.179 -1.4174 -0.6728 -0.3426
  102SAPE   C3510384   2.518   1.681   6.997  1.2304 -0.1002 -1.0334
  102SAPE   H5X10385   2.436   1.647   6.930  0.1721  1.1035 -0.4066
  102SAPE   H5Y10386   2.587   1.600   7.028  0.7977 -0.0780  0.0184
  102SAPE   C3610387   2.595   1.769   6.898 -0.8804  0.3542  0.4424
  102SAPE   H6X10388   2.682   1.820   6.944 -0.2826  0.7133 -1.0311
  102SAPE   H6Y10389   2.532   1.847   6.849  1.8990  2.2157 -0.4140
  102SAPE   C3710390   2.658   1.684   6.787 -0.1520  0.3235 -0.0950
  102SAPE   H7X10391   2.571   1.645   6.730 -1.7813  0.3736  2.1906
  102SAPE   H7Y10392   2.708   1.597   6.834 -1.4990  0.4483  1.7015
  102SAPE   C3810393   2.749   1.764   6.700  0.1164 -0.2795 -0.1721
  102SAPE   H8X10394   2.840   1.806   6.749 -0.7913  1.7994 -0.1459
  102SAPE   H8Y10395   2.694   1.851   6.659  0.9506  0.2990 -0.1001
  102SAPE   C3910396   2.785   1.687   6.570 -1.1354  0.2485  0.2115
  102SAPE   H9X10397   2.689   1.661   6.521 -0.5612 -1.1094 -0.2528
  102SAPE   H9Y10398   2.837   1.591   6.594  0.7619  1.4547  1.1241
  102SAPE  C31010399   2.876   1.772   6.472  0.6135 -0.1670  0.1675
  102SAPE  H10X10400   2.981   1.782   6.505  1.0538  1.1946 -1.5035
  102SAPE  H10Y10401   2.836   1.876   6.470  0.8890 -0.0741 -0.7832
  102SAPE  C31110402   2.890   1.724   6.327  0.0490 -0.1747  0.0633
  102SAPE  H11X10403   2.913   1.615   6.324  1.6948  0.1152  0.9056
  102SAPE  H11Y10404   2.963   1.791   6.275 -0.8597  1.3816  0.7298
  102SAPE  C31210405   2.755   1.738   6.256  0.4653  0.1808  0.0036
  102SAPE  H12X10406   2.735   1.847   6.254  0.0026  0.1497  1.5588
  102SAPE  H12Y10407   2.665   1.695   6.306 -0.3188 -0.0299 -1.5530
  102SAPE  C31310408   2.768   1.674   6.111  0.1453 -0.2590  1.0072
  102SAPE  H13X10409   2.860   1.698   6.053 -0.9444 -2.2979 -1.8016
  102SAPE  H13Y10410   2.688   1.714   6.046  1.2415  0.6094  0.1447
  102SAPE  C31410411   2.761   1.522   6.112  0.5172  0.2618  0.9086
  102SAPE  H14X10412   2.675   1.487   6.172 -0.3990  1.5904  0.3977
  102SAPE  H14Y10413   2.847   1.471   6.161 -0.4334  0.2961  2.7045
  102SAPE  C31510414   2.750   1.465   5.973 -0.4579  0.1922 -0.0269
  102SAPE  H15X10415   2.833   1.507   5.911 -0.4805 -0.5633 -0.5902
  102SAPE  H15Y10416   2.660   1.504   5.922  0.0059  1.6512  0.2234
  102SAPE  C31610417   2.761   1.319   5.958 -0.1401  0.3760 -0.1379
  102SAPE  H16X10418   2.690   1.271   6.029 -0.1004  1.3007  0.5492
  102SAPE  H16Y10419   2.855   1.283   6.004  0.0208  1.1774  0.1891
  102SAPE  C31710420   2.739   1.269   5.816 -0.0053 -0.3449 -0.6208
  102SAPE  H17X10421   2.759   1.159   5.813  0.2227 -0.3461  0.4339
  102SAPE  H17Y10422   2.817   1.323   5.758 -1.4890  3.4164  0.6053
  102SAPE  C31810423   2.595   1.285   5.759 -0.2541 -0.4071  0.2017
  102SAPE  H18X10424   2.519   1.246   5.830 -0.8296  1.6950  0.8027
  102SAPE  H18Y10425   2.601   1.230   5.662 -0.1958  1.6985 -1.0510
  102SAPE  H18Z10426   2.570   1.393   5.749 -0.1416 -0.3517  0.5275
  103SAPE     N10427   3.981   0.263   3.194  0.0398  0.1910  0.4142
  103SAPE   HN110428   3.910   0.247   3.269  1.4811  1.1650  2.0643
  103SAPE   HN210429   4.069   0.229   3.238  0.6227  0.6359 -0.3891
  103SAPE   HN310430   3.994   0.365   3.177 -0.1529  0.1990  0.3168
  103SAPE   C1210431   3.956   0.181   3.062  0.0529 -0.5541  0.0253
  103SAPE  H12A10432   4.041   0.188   2.991  0.2768 -0.8738  0.2614
  103SAPE  H12B10433   3.864   0.218   3.013 -0.6356 -0.3047  1.4567
  103SAPE   C1110434   3.946   0.032   3.088  0.6695 -0.0097  0.2721
  103SAPE  H11A10435   4.036   0.001   3.147  0.5547  1.3679  1.2056
  103SAPE  H11B10436   3.945  -0.024   2.992  1.1664 -0.3482  0.4603
  103SAPE     P10437   3.800  -0.133   3.228 -0.2149  0.1739 -0.1541
  103SAPE   O1310438   3.673  -0.121   3.298 -0.4794 -0.1180 -0.4758
  103SAPE   O1410439   3.819  -0.240   3.129 -0.1271 -0.1768  0.1547
  103SAPE   O1210440   3.826   0.006   3.160 -0.4057  0.1856  0.2639
  103SAPE   O1110441   3.924  -0.143   3.330  0.9728 -0.2636 -0.1002
  103SAPE    C110442   4.022  -0.242   3.319 -0.6478  0.6399  0.0697
  103SAPE    HA10443   4.062  -0.245   3.215  1.3311 -0.5948  0.8068
  103SAPE    HB10444   4.116  -0.218   3.374  1.3787 -0.2980 -2.7379
  103SAPE    C210445   3.960  -0.375   3.376 -0.6394  0.5564  0.2990
  103SAPE    HS10446   3.871  -0.394   3.313 -1.3570  0.6870  1.2478
  103SAPE   O2110447   3.921  -0.337   3.505  0.2378 -0.0426  1.2540
  103SAPE   C2110448   3.826  -0.416   3.560  0.5685 -0.4426 -0.1949
  103SAPE   O2210449   3.771  -0.507   3.500  0.9386 -1.1207  0.3691
  103SAPE   C2210450   3.791  -0.363   3.704 -1.1415  0.4716  0.3271
  103SAPE   H2R10451   3.827  -0.258   3.704 -0.1071  0.1412 -1.1325
  103SAPE   H2S10452   3.680  -0.359   3.703 -1.1290  1.6954 -1.5296
  103SAPE    C310453   4.065  -0.494   3.379  0.8432 -1.1643 -0.2819
  103SAPE    HX10454   4.086  -0.504   3.271 -1.2289 -3.1816 -0.5925
  103SAPE    HY10455   4.013  -0.585   3.416  0.1708 -0.4582  0.5560
  103SAPE   O3110456   4.188  -0.455   3.451  0.1130  0.6925 -0.3297
  103SAPE   C3110457   4.275  -0.554   3.445  0.6375  0.3730  0.1627
  103SAPE   O3210458   4.276  -0.646   3.367 -0.0336 -0.0180 -0.4174
  103SAPE   C3210459   4.381  -0.533   3.561  0.1020 -0.3976  0.2642
  103SAPE   H2X10460   4.322  -0.485   3.642 -0.2164  0.3666 -0.4048
  103SAPE   H2Y10461   4.461  -0.464   3.526  1.4203 -2.2930 -0.6500
  103SAPE   C2310462   3.867  -0.443   3.822  0.2255  0.6255  0.1211
  103SAPE   H3R10463   3.812  -0.538   3.806  1.1489 -0.1484  1.3408
  103SAPE   H3S10464   3.838  -0.401   3.921 -3.4434  1.1889 -1.0278
  103SAPE   C2410465   4.013  -0.457   3.796  0.8761  0.2516 -0.4318
  103SAPE   H4R10466   4.030  -0.502   3.695  0.3317 -1.4596  0.1987
  103SAPE   H4S10467   4.048  -0.531   3.871 -2.4339 -0.1550  0.8737
  103SAPE   C2510468   4.082  -0.325   3.809 -0.1871 -0.5532 -0.6631
  103SAPE   H5R10469   4.102  -0.264   3.719 -0.1131  1.1122  0.4503
  103SAPE   C2610470   4.141  -0.276   3.922  0.0677  0.8170 -0.2783
  103SAPE   H6R10471   4.184  -0.175   3.924  2.5218 -0.1863  1.5565
  103SAPE   C2710472   4.129  -0.339   4.058  0.2274  0.0149 -0.0252
  103SAPE   H7R10473   4.223  -0.394   4.081 -0.4318 -0.9169  0.5144
  103SAPE   H7S10474   4.042  -0.408   4.055  0.6712 -0.5374 -2.1858
  103SAPE   C2810475   4.102  -0.232   4.166  0.4658 -0.7518 -0.6133
  103SAPE   H8R10476   4.056  -0.139   4.128  1.8346 -1.0909 -3.3885
  103SAPE   C2910477   4.134  -0.236   4.295  0.4511  0.0374 -0.7451
  103SAPE   H9R10478   4.109  -0.147   4.355  0.3256  0.1038 -0.8928
  103SAPE  C21010479   4.193  -0.358   4.351  0.0447  0.5549 -0.7128
  103SAPE  H10R10480   4.302  -0.342   4.364  0.6451 -3.1486  0.0458
  103SAPE  H10S10481   4.159  -0.438   4.282  0.1315  0.7350 -0.9645
  103SAPE  C21110482   4.152  -0.401   4.490 -0.4860  0.1144  0.5229
  103SAPE  H11R10483   4.072  -0.476   4.491  0.4767 -0.9653 -0.1634
  103SAPE  C21210484   4.190  -0.358   4.607 -0.0047  0.3377  0.1997
  103SAPE  H12R10485   4.163  -0.409   4.701 -0.9497 -1.1668 -0.8520
  103SAPE  C21310486   4.283  -0.241   4.625 -0.3607 -0.1291 -0.1703
  103SAPE  H13R10487   4.224  -0.162   4.677  0.5814 -0.5600  1.6396
  103SAPE  H13S10488   4.323  -0.199   4.530  0.4761  1.0269  0.6641
  103SAPE  C21410489   4.414  -0.252   4.700 -0.4345  0.4218 -0.2352
  103SAPE  H14R10490   4.505  -0.252   4.637  0.2540  1.2831  0.7400
  103SAPE  C21510491   4.420  -0.268   4.836 -0.0804  0.0187 -0.4181
  103SAPE  H15R10492   4.523  -0.262   4.874  0.3406  2.0111 -1.7031
  103SAPE  C21610493   4.311  -0.263   4.940 -0.0351 -0.8237 -0.4631
  103SAPE  H16R10494   4.318  -0.355   5.002  0.9886 -0.4780 -0.0464
  103SAPE  H16S10495   4.215  -0.258   4.884 -0.3923 -4.5055 -0.3909
  103SAPE  C21710496   4.334  -0.141   5.029 -0.5668  0.2438  0.4523
  103SAPE  H17R10497   4.234  -0.133   5.077 -0.6575 -0.7156  0.4451
  103SAPE  H17S10498   4.358  -0.048   4.972 -1.3730  0.2062  0.0355
  103SAPE  C21810499   4.442  -0.163   5.134  0.4595 -0.2394  0.2923
  103SAPE  H18R10500   4.540  -0.161   5.081  0.3872  2.5317  0.1020
  103SAPE  H18S10501   4.418  -0.259   5.184  0.3415 -0.5206 -0.2877
  103SAPE  C21910502   4.456  -0.059   5.245  1.0290 -0.3299 -0.0602
  103SAPE  H19R10503   4.490   0.040   5.208 -1.8751  1.4730  1.6820
  103SAPE  H19S10504   4.540  -0.097   5.307  1.3529 -0.5718 -0.6399
  103SAPE  C22010505   4.334  -0.040   5.329 -0.0606 -0.1277  0.5146
  103SAPE  H20R10506   4.296  -0.134   5.374 -0.2623 -0.3478 -0.0956
  103SAPE  H20S10507   4.254  -0.009   5.259 -0.5414 -1.1651  0.5868
  103SAPE  H20T10508   4.351   0.043   5.401 -0.6729 -0.0250  0.5501
  103SAPE   C3310509   4.440  -0.665   3.612 -0.2552 -0.8263  0.1957
  103SAPE   H3X10510   4.512  -0.641   3.694 -0.2784  0.7250 -0.2033
  103SAPE   H3Y10511   4.500  -0.715   3.533  3.4492  2.4193  0.5882
  103SAPE   C3410512   4.341  -0.756   3.684  0.1146 -0.0037  0.4633
  103SAPE   H4X10513   4.369  -0.861   3.661 -1.6595 -0.3357 -0.3047
  103SAPE   H4Y10514   4.242  -0.749   3.634 -1.4191 -1.3820  3.0945
  103SAPE   C3510515   4.325  -0.736   3.832 -0.1068 -0.3596 -0.6499
  103SAPE   H5X10516   4.295  -0.630   3.845 -0.5315 -0.1292 -3.0154
  103SAPE   H5Y10517   4.425  -0.748   3.879 -0.8399  2.4800  1.9991
  103SAPE   C3610518   4.214  -0.826   3.902 -0.7404  0.1161  0.6665
  103SAPE   H6X10519   4.264  -0.922   3.926  0.7933  0.5219 -0.6903
  103SAPE   H6Y10520   4.135  -0.855   3.829 -1.3551  0.6438  1.1128
  103SAPE   C3710521   4.149  -0.758   4.025 -0.0616 -0.0095  0.1072
  103SAPE   H7X10522   4.105  -0.837   4.090  2.9546  0.5778  3.1279
  103SAPE   H7Y10523   4.075  -0.685   3.987 -1.1952 -2.2904 -2.4145
  103SAPE   C3810524   4.247  -0.693   4.119 -0.8510 -0.5269  0.8116
  103SAPE   H8X10525   4.190  -0.636   4.196  1.5327  1.4967  1.1957
  103SAPE   H8Y10526   4.294  -0.609   4.063 -0.7748 -1.0192  0.1318
  103SAPE   C3910527   4.358  -0.772   4.184 -0.0751  0.2658 -0.0311
  103SAPE   H9X10528   4.436  -0.797   4.109  0.0013  0.5396 -0.0431
  103SAPE   H9Y10529   4.314  -0.871   4.211  2.6171 -1.0414 -0.0567
  103SAPE  C31010530   4.415  -0.706   4.310 -0.1591  0.1483 -0.4456
  103SAPE  H10X10531   4.414  -0.601   4.272 -0.3500 -0.0610 -1.0374
  103SAPE  H10Y10532   4.522  -0.733   4.322 -1.0932 -3.8964  0.2873
  103SAPE  C31110533   4.340  -0.730   4.446  0.3181 -0.3241  0.1369
  103SAPE  H11X10534   4.304  -0.833   4.466 -5.1346  1.4492  1.2302
  103SAPE  H11Y10535   4.244  -0.676   4.435  0.0932 -0.8205 -0.3924
  103SAPE  C31210536   4.428  -0.683   4.559  0.1202  0.2182 -0.2701
  103SAPE  H12X10537   4.455  -0.577   4.542 -2.1376  0.8102 -0.4921
  103SAPE  H12Y10538   4.519  -0.747   4.561 -0.4566 -0.5905  1.2289
  103SAPE  C31310539   4.358  -0.691   4.693  0.5519  0.0177  0.2731
  103SAPE  H13X10540   4.304  -0.787   4.705 -0.9536  0.8220  0.0684
  103SAPE  H13Y10541   4.286  -0.608   4.704  0.4137 -0.2615  1.7266
  103SAPE  C31410542   4.460  -0.667   4.809  0.0488 -0.4547 -0.7228
  103SAPE  H14X10543   4.497  -0.564   4.786 -2.2281  0.9058  1.2431
  103SAPE  H14Y10544   4.547  -0.734   4.794 -1.0142 -2.2557  0.7549
  103SAPE  C31510545   4.397  -0.675   4.944  0.3596  0.0931 -0.6041
  103SAPE  H15X10546   4.369  -0.781   4.964 -0.7782  0.4393 -0.2750
  103SAPE  H15Y10547   4.300  -0.621   4.935 -0.3981 -1.2046 -0.4662
  103SAPE  C31610548   4.481  -0.613   5.052 -0.6202  0.0465 -0.0720
  103SAPE  H16X10549   4.480  -0.502   5.049  1.5812  0.2153  2.1504
  103SAPE  H16Y10550   4.586  -0.650   5.043 -0.5444 -0.5475  2.5916
  103SAPE  C31710551   4.432  -0.659   5.192 -0.6860 -0.0738 -0.8111
  103SAPE  H17X10552   4.321  -0.671   5.195 -0.7426  0.6473  0.9807
  103SAPE  H17Y10553   4.468  -0.581   5.262 -0.0207 -0.3680 -0.8199
  103SAPE  C31810554   4.497  -0.782   5.246 -0.1036 -0.4274  0.4400
  103SAPE  H18X10555   4.441  -0.798   5.341 -2.0941 -0.2473 -0.6495
  103SAPE  H18Y10556   4.596  -0.750   5.284 -0.0715  1.4585 -1.1007
  103SAPE  H18Z10557   4.489  -0.867   5.175  0.0568  0.4668 -0.6832
  104SAPE     N10558   4.246   0.549   3.258  0.3655 -0.4754 -0.1004
  104SAPE   HN110559   4.234   0.500   3.349 -0.7773 -1.6908 -0.8757
  104SAPE   HN210560   4.244   0.651   3.275  2.2877 -0.5034  0.5846
  104SAPE   HN310561   4.170   0.530   3.190  0.2533  1.5968 -0.6017
  104SAPE   C1210562   4.377   0.524   3.180 -0.0351 -0.1108  0.3553
  104SAPE  H12A10563   4.447   0.475   3.251  1.5376 -0.1465 -1.1515
  104SAPE  H12B10564   4.415   0.623   3.146  0.9341 -1.0750 -1.5383
  104SAPE   C1110565   4.340   0.430   3.061 -0.2840 -0.9535  0.1695
  104SAPE  H11A10566   4.442   0.408   3.024 -0.0345  1.0434 -0.4674
  104SAPE  H11B10567   4.285   0.495   2.989  1.3609 -0.7563 -0.9611
  104SAPE     P10568   4.358   0.170   3.107  0.0460  0.2347 -0.2711
  104SAPE   O1310569   4.276   0.065   3.178 -0.1073  0.2149  0.0946
  104SAPE   O1410570   4.393   0.140   2.964  0.5490 -0.7204  0.1247
  104SAPE   O1210571   4.275   0.307   3.108 -0.5352  0.1703  0.2093
  104SAPE   O1110572   4.491   0.190   3.184 -0.4040 -0.4603 -0.0676
  104SAPE    C110573   4.555   0.072   3.237  0.7957  0.4527  0.1207
  104SAPE    HA10574   4.520  -0.025   3.195 -1.4345  1.1865  0.1489
  104SAPE    HB10575   4.664   0.085   3.221  0.9463 -0.9307 -0.1076
  104SAPE    C210576   4.529   0.062   3.391  0.0964 -0.6113  0.0805
  104SAPE    HS10577   4.423   0.032   3.402 -0.1584 -1.0686 -2.8694
  104SAPE   O2110578   4.559   0.177   3.470  0.6263  0.0271 -0.0683
  104SAPE   C2110579   4.494   0.184   3.588  0.2519  0.5139  0.3190
  104SAPE   O2210580   4.387   0.129   3.612 -0.1608  0.2515  0.4197
  104SAPE   C2210581   4.559   0.279   3.683 -0.6284  0.6770 -0.6473
  104SAPE   H2R10582   4.573   0.370   3.621  2.2174 -1.2638 -3.1071
  104SAPE   H2S10583   4.494   0.299   3.771 -0.1447 -1.3018  0.2266
  104SAPE    C310584   4.626  -0.055   3.442  0.1328 -0.5736  0.0833
  104SAPE    HX10585   4.726  -0.008   3.425 -1.3516  2.6288 -0.5363
  104SAPE    HY10586   4.607  -0.133   3.367 -2.4282  0.4709 -0.4398
  104SAPE   O3110587   4.589  -0.088   3.581  0.5304  0.0907 -0.6414
  104SAPE   C3110588   4.495  -0.177   3.595 -0.4505  0.4690 -0.0245
  104SAPE   O3210589   4.427  -0.227   3.511 -0.3743 -0.2818  0.1858
  104SAPE   C3210590   4.480  -0.204   3.745 -0.2875 -0.1534  0.1535
  104SAPE   H2X10591   4.519  -0.307   3.764  0.3265  0.2767  1.3447
  104SAPE   H2Y10592   4.369  -0.211   3.752 -0.1433 -2.3409  1.3011
  104SAPE   C2310593   4.704   0.239   3.723 -0.1583  0.0107  0.0981
  104SAPE   H3R10594   4.737   0.194   3.627 -0.5116  0.9575 -0.4803
  104SAPE   H3S10595   4.721   0.176   3.813  1.3296  3.6430  2.5950
  104SAPE   C2410596   4.797   0.357   3.741  0.4645 -0.0073  0.4948
  104SAPE   H4R10597   4.794   0.413   3.645 -2.1732 -0.3249  0.3033
  104SAPE   H4S10598   4.898   0.310   3.742  0.4463 -0.0603  0.1272
  104SAPE   C2510599   4.761   0.443   3.860  0.7919 -0.2606  0.4911
  104SAPE   H5R10600   4.656   0.475   3.861  1.3222  1.6754 -0.3427
  104SAPE   C2610601   4.850   0.488   3.953  0.0011 -0.5345 -0.2386
  104SAPE   H6R10602   4.827   0.553   4.039  2.8020 -2.5186  2.2005
  104SAPE   C2710603   4.994   0.444   3.959 -0.0624  0.4964  0.9377
  104SAPE   H7R10604   5.068   0.514   4.001 -0.9132  0.1495  3.1638
  104SAPE   H7S10605   5.031   0.426   3.856 -0.4999  0.7521  0.7336
  104SAPE   C2810606   4.984   0.326   4.059 -0.8984 -0.3340  0.9568
  104SAPE   H8R10607   4.990   0.233   4.001  2.8521  2.0988 -3.2250
  104SAPE   C2910608   4.991   0.330   4.191  0.1777  0.6885 -0.2320
  104SAPE   H9R10609   4.995   0.239   4.253  0.3159  1.4736  0.9459
  104SAPE  C21010610   5.005   0.443   4.288 -0.1404 -0.6080  0.5493
  104SAPE  H10R10611   5.051   0.534   4.244  0.3809 -1.7181 -1.3442
  104SAPE  H10S10612   5.077   0.404   4.362 -0.8797  0.1947  1.7228
  104SAPE  C21110613   4.877   0.502   4.344  0.4818 -0.2710  0.4016
  104SAPE  H11R10614   4.804   0.556   4.282 -0.0405  0.5987  1.7277
  104SAPE  C21210615   4.837   0.504   4.477 -0.1866 -0.0923 -0.1900
  104SAPE  H12R10616   4.736   0.540   4.502  0.2042 -0.2796  1.8346
  104SAPE  C21310617   4.919   0.442   4.588 -0.7984 -0.3928 -0.4250
  104SAPE  H13R10618   4.983   0.368   4.537 -0.2988  1.1975 -2.1922
  104SAPE  H13S10619   4.842   0.385   4.646 -1.3129 -1.3154 -1.9408
  104SAPE  C21410620   5.001   0.538   4.664  0.1725  0.0274 -0.1414
  104SAPE  H14R10621   5.090   0.585   4.620  1.3728  0.4826  2.6014
  104SAPE  C21510622   4.992   0.572   4.796 -0.3736  0.5645  0.5480
  104SAPE  H15R10623   5.062   0.647   4.838  0.4820 -0.6069  1.2847
  104SAPE  C21610624   4.887   0.535   4.900  0.6518 -0.1579  0.1402
  104SAPE  H16R10625   4.788   0.521   4.853  0.6172 -3.4675  0.9347
  104SAPE  H16S10626   4.876   0.627   4.961  0.2492 -1.1438  1.6182
  104SAPE  C21710627   4.917   0.423   4.989  0.2334  0.0245 -0.3547
  104SAPE  H17R10628   4.917   0.327   4.933 -0.4944 -0.1154 -0.1288
  104SAPE  H17S10629   4.842   0.407   5.069 -0.5768 -3.2350 -1.6060
  104SAPE  C21810630   5.055   0.424   5.069 -0.2794  0.3205 -0.3969
  104SAPE  H18R10631   5.046   0.519   5.125 -2.9094 -0.5773  0.8584
  104SAPE  H18S10632   5.145   0.419   5.003  1.0013 -0.0592  1.3017
  104SAPE  C21910633   5.068   0.305   5.167 -1.0447  0.6518 -0.7282
  104SAPE  H19R10634   5.057   0.207   5.115 -0.3901  0.1771 -0.0008
  104SAPE  H19S10635   4.992   0.293   5.248 -3.8187  0.2441 -3.2223
  104SAPE  C22010636   5.205   0.295   5.242  1.0401 -0.0223  0.5989
  104SAPE  H20R10637   5.235   0.198   5.287  0.4161 -0.2895  0.4551
  104SAPE  H20S10638   5.198   0.374   5.319 -2.5730 -0.1935  0.6069
  104SAPE  H20T10639   5.290   0.312   5.173  0.8547 -0.1995  0.3212
  104SAPE   C3310640   4.537  -0.102   3.848  0.1274 -0.0213 -0.1045
  104SAPE   H3X10641   4.471  -0.015   3.831 -0.6659 -0.7101 -0.6071
  104SAPE   H3Y10642   4.640  -0.076   3.815 -0.5598  2.7633 -0.2830
  104SAPE   C3410643   4.534  -0.168   3.990  0.0616 -0.2152  0.3227
  104SAPE   H4X10644   4.615  -0.242   4.001 -0.4438 -0.9868 -0.8783
  104SAPE   H4Y10645   4.438  -0.221   4.007  0.1057 -1.8759 -3.5622
  104SAPE   C3510646   4.550  -0.065   4.095  0.0937  0.5004 -0.4315
  104SAPE   H5X10647   4.464   0.004   4.113  2.4930  2.9814  2.6457
  104SAPE   H5Y10648   4.631   0.005   4.066 -1.4198  1.5175 -2.4460
  104SAPE   C3610649   4.570  -0.134   4.231  0.1678  0.1227  0.2025
  104SAPE   H6X10650   4.661  -0.197   4.228 -1.1445 -1.9981  1.5426
  104SAPE   H6Y10651   4.485  -0.206   4.234  0.2066 -0.0758 -2.0471
  104SAPE   C3710652   4.595  -0.041   4.358  0.3163 -0.2692  0.1259
  104SAPE   H7X10653   4.591  -0.117   4.439  0.4073 -0.3114  0.0913
  104SAPE   H7Y10654   4.514   0.035   4.361  0.7185  0.1790 -0.1550
  104SAPE   C3810655   4.727   0.034   4.355  0.5554  0.8697  0.5686
  104SAPE   H8X10656   4.714   0.099   4.266 -0.6836 -3.0166 -2.3676
  104SAPE   H8Y10657   4.818  -0.029   4.345 -2.1993 -3.3231 -0.3672
  104SAPE   C3910658   4.745   0.111   4.486  0.3394 -0.2845  0.0281
  104SAPE   H9X10659   4.661   0.181   4.505  1.0656  0.6566 -0.1292
  104SAPE   H9Y10660   4.839   0.171   4.491 -0.2157  0.5376  1.0719
  104SAPE  C31010661   4.741   0.004   4.597 -0.0193  1.1984 -0.2158
  104SAPE  H10X10662   4.790  -0.092   4.570 -0.5966  0.1825  2.0669
  104SAPE  H10Y10663   4.636  -0.025   4.616  0.4419 -0.6406 -0.3136
  104SAPE  C31110664   4.815   0.056   4.727  0.8224 -0.3477 -0.1545
  104SAPE  H11X10665   4.744   0.129   4.772  1.8968  1.2541 -0.9742
  104SAPE  H11Y10666   4.912   0.106   4.709  1.4381  0.1678  3.7730
  104SAPE  C31210667   4.820  -0.051   4.834 -0.4096  0.1555  0.2031
  104SAPE  H12X10668   4.904  -0.114   4.798 -0.8931 -0.5250  0.2540
  104SAPE  H12Y10669   4.741  -0.129   4.842  0.5645 -1.5776 -4.1819
  104SAPE  C31310670   4.852   0.008   4.967 -0.3803  0.7987 -0.2208
  104SAPE  H13X10671   4.769   0.076   4.997 -1.1698 -0.6563  1.0289
  104SAPE  H13Y10672   4.933   0.083   4.976  0.7526 -0.4067 -0.1922
  104SAPE  C31410673   4.869  -0.099   5.082 -0.0037  0.3033 -0.1396
  104SAPE  H14X10674   4.965  -0.147   5.054 -0.0688 -1.0342  1.7028
  104SAPE  H14Y10675   4.803  -0.188   5.076  0.0393  0.2775 -0.2381
  104SAPE  C31510676   4.874  -0.034   5.216  0.1513 -0.3703 -0.2745
  104SAPE  H15X10677   4.768  -0.008   5.238 -0.4056 -1.8080 -1.1105
  104SAPE  H15Y10678   4.930   0.061   5.214  1.8831 -1.3689 -1.6327
  104SAPE  C31610679   4.938  -0.117   5.329 -0.3625 -0.1158 -0.3550
  104SAPE  H16X10680   5.037  -0.154   5.296 -0.4015 -0.2366 -0.3396
  104SAPE  H16Y10681   4.877  -0.209   5.340  1.7815 -1.5533  0.0307
  104SAPE  C31710682   4.926  -0.037   5.461  0.2356 -0.2933  0.0282
  104SAPE  H17X10683   4.823   0.002   5.476 -0.2691 -0.7977 -1.8049
  104SAPE  H17Y10684   5.002   0.043   5.455  0.7021 -0.8336 -4.3598
  104SAPE  C31810685   4.973  -0.124   5.580  0.3001 -0.5795  0.2517
  104SAPE  H18X10686   4.944  -0.230   5.566  2.2152 -1.1914  0.6585
  104SAPE  H18Y10687   4.932  -0.081   5.675  0.4620  2.2318 -0.8529
  104SAPE  H18Z10688   5.082  -0.137   5.566  0.2688 -0.2821 -0.2788
  105SAPE     N10689   6.660   2.796   3.420 -0.0701  0.1687 -0.0689
  105SAPE   HN110690   6.654   2.883   3.364 -2.2812  2.0374  2.7877
  105SAPE   HN210691   6.673   2.711   3.361 -0.3876 -0.5291  0.8307
  105SAPE   HN310692   6.571   2.773   3.469 -0.3663 -0.9495 -1.0971
  105SAPE   C1210693   6.761   2.810   3.532 -0.1548 -0.4847  0.6244
  105SAPE  H12A10694   6.746   2.721   3.598  1.0162 -0.6779  0.6434
  105SAPE  H12B10695   6.728   2.902   3.586  2.3419  1.0639 -0.3401
  105SAPE   C1110696   6.904   2.814   3.480 -0.2658 -0.0968  0.2528
  105SAPE  H11A10697   6.934   2.721   3.428  1.3274  0.5961 -0.1325
  105SAPE  H11B10698   6.984   2.819   3.557  1.2306  1.0488 -1.2997
  105SAPE     P10699   7.054   2.982   3.365  0.4247  0.0716 -0.4530
  105SAPE   O1310700   7.145   2.869   3.326 -0.1063 -0.2044  0.0011
  105SAPE   O1410701   7.056   3.096   3.270 -0.1175 -0.3850 -0.5964
  105SAPE   O1210702   6.913   2.918   3.379  0.2373 -1.0383 -0.4120
  105SAPE   O1110703   7.085   3.042   3.508  0.1044 -0.0469  0.2496
  105SAPE    C110704   7.035   3.167   3.555 -0.8377  0.7917  0.3033
  105SAPE    HA10705   7.094   3.254   3.518  0.4714  0.4598  1.5176
  105SAPE    HB10706   6.937   3.187   3.506 -1.1475 -0.9010  0.1687
  105SAPE    C210707   7.019   3.159   3.702  0.9166 -0.0087 -0.2193
  105SAPE    HS10708   6.955   3.070   3.723  1.7507 -0.9218 -1.4159
  105SAPE   O2110709   6.953   3.284   3.735 -0.1045 -0.1926  0.7621
  105SAPE   C2110710   6.855   3.291   3.828 -0.0915  0.0123  0.4153
  105SAPE   O2210711   6.818   3.191   3.892 -0.1260 -0.0488  0.2314
  105SAPE   C2210712   6.812   3.433   3.860 -0.7785 -0.2322  0.2362
  105SAPE   H2R10713   6.840   3.496   3.772 -1.1737 -0.1744  0.1468
  105SAPE   H2S10714   6.702   3.446   3.873 -1.2108 -1.8404 -1.4232
  105SAPE    C310715   7.152   3.150   3.775 -0.0239  0.3060 -0.5169
  105SAPE    HX10716   7.218   3.237   3.760  0.0929  0.8422  2.4641
  105SAPE    HY10717   7.202   3.061   3.730 -0.7568 -0.5450  0.2925
  105SAPE   O3110718   7.140   3.118   3.917 -0.0769 -0.0063 -0.5244
  105SAPE   C3110719   7.256   3.078   3.978  0.1134  0.8281 -0.3469
  105SAPE   O3210720   7.357   3.052   3.921 -0.0804 -0.1133  0.2920
  105SAPE   C3210721   7.246   3.079   4.132  0.3448 -0.2177  0.3561
  105SAPE   H2X10722   7.253   2.975   4.170  3.0900 -0.1219  0.3246
  105SAPE   H2Y10723   7.147   3.125   4.154  1.3353  1.2692  1.9454
  105SAPE   C2310724   6.893   3.481   3.980 -0.1723  0.9115  0.0883
  105SAPE   H3R10725   6.892   3.592   3.985  0.9828  0.9235  0.3000
  105SAPE   H3S10726   6.995   3.441   3.961 -0.5417  0.7814 -1.8107
  105SAPE   C2410727   6.819   3.443   4.112  0.6690 -0.0598 -0.7189
  105SAPE   H4R10728   6.821   3.333   4.124  2.0626 -0.1597 -1.7181
  105SAPE   H4S10729   6.711   3.469   4.105  0.4996  1.2375  3.6209
  105SAPE   C2510730   6.876   3.504   4.234  0.1804 -0.0444 -0.1080
  105SAPE   H5R10731   6.960   3.571   4.208 -0.4746 -0.0825 -2.6006
  105SAPE   C2610732   6.848   3.482   4.362  0.4844  0.1932 -0.2893
  105SAPE   H6R10733   6.915   3.525   4.437 -0.4903 -0.7952  1.2022
  105SAPE   C2710734   6.728   3.404   4.419  0.1561  0.2810  0.8857
  105SAPE   H7R10735   6.767   3.334   4.496  4.1666  1.6984  0.3757
  105SAPE   H7S10736   6.683   3.355   4.331 -0.6461  2.2674  0.1232
  105SAPE   C2810737   6.619   3.485   4.484 -0.8389 -0.9006  0.0131
  105SAPE   H8R10738   6.595   3.576   4.426 -1.1911  0.2600  1.8955
  105SAPE   C2910739   6.550   3.462   4.591  0.8917  0.0929  0.5838
  105SAPE   H9R10740   6.484   3.542   4.628  0.6466  0.7282 -1.1111
  105SAPE  C21010741   6.578   3.352   4.688 -0.0746  0.1972 -0.3875
  105SAPE  H10R10742   6.633   3.267   4.643  1.2329 -0.3763  2.0938
  105SAPE  H10S10743   6.476   3.314   4.715  0.2785 -1.0340 -0.7408
  105SAPE  C21110744   6.653   3.388   4.814 -0.1053 -0.1010  1.0255
  105SAPE  H11R10745   6.738   3.450   4.782  0.0804 -1.5347 -1.5509
  105SAPE  C21210746   6.633   3.350   4.943  0.2174 -0.0599  0.0907
  105SAPE  H12R10747   6.692   3.404   5.018  0.5434 -0.0332 -0.1843
  105SAPE  C21310748   6.513   3.273   4.999  0.0388 -0.4314 -0.0810
  105SAPE  H13R10749   6.565   3.195   5.058  2.1565  1.8569  1.2234
  105SAPE  H13S10750   6.462   3.206   4.926 -0.0196 -0.8810  0.3654
  105SAPE  C21410751   6.402   3.341   5.075 -0.1696  0.2972  0.6427
  105SAPE  H14R10752   6.347   3.416   5.016 -3.0753 -0.3963  2.3076
  105SAPE  C21510753   6.375   3.316   5.204  0.3512 -0.2610  0.1892
  105SAPE  H15R10754   6.302   3.377   5.259  1.0266 -0.5449  1.4498
  105SAPE  C21610755   6.443   3.220   5.295 -0.3272  0.3156 -0.4869
  105SAPE  H16R10756   6.546   3.248   5.327  1.2124 -3.0957 -1.9366
  105SAPE  H16S10757   6.450   3.127   5.234 -2.3404  0.6185 -1.2616
  105SAPE  C21710758   6.355   3.203   5.420 -0.4142  0.7573 -0.0778
  105SAPE  H17R10759   6.254   3.176   5.384 -0.2590  0.5925 -0.4037
  105SAPE  H17S10760   6.357   3.301   5.471 -1.7238  1.0575 -0.5844
  105SAPE  C21810761   6.394   3.086   5.512 -0.0532 -0.7412 -0.1118
  105SAPE  H18R10762   6.497   3.080   5.554  2.1362  1.8003 -4.4768
  105SAPE  H18S10763   6.388   2.997   5.446 -0.0534 -1.4035  0.7580
  105SAPE  C21910764   6.298   3.070   5.633  0.7366  0.0409  0.5151
  105SAPE  H19R10765   6.284   2.961   5.651  2.0101 -0.0367  1.1988
  105SAPE  H19S10766   6.198   3.111   5.606 -1.7467 -5.1689  0.6176
  105SAPE  C22010767   6.355   3.116   5.767  0.7558  0.2475 -0.1507
  105SAPE  H20R10768   6.290   3.098   5.855 -0.4362  0.7273 -0.9066
  105SAPE  H20S10769   6.370   3.226   5.760  0.0159  0.3213 -0.8533
  105SAPE  H20T10770   6.454   3.069   5.785  0.3156 -1.8936 -2.7137
  105SAPE   C3310771   7.343   3.180   4.195  0.4613  0.0882 -0.3768
  105SAPE   H3X10772   7.320   3.281   4.154 -0.4854 -0.2396 -0.6941
  105SAPE   H3Y10773   7.446   3.141   4.184 -1.0727 -4.6415 -0.0596
  105SAPE   C3410774   7.319   3.202   4.348 -0.7482 -0.8125  1.0733
  105SAPE   H4X10775   7.230   3.269   4.359  0.2512  1.5452 -3.1081
  105SAPE   H4Y10776   7.408   3.257   4.385 -1.8494  0.0941  2.5095
  105SAPE   C3510777   7.304   3.077   4.437 -0.2482  0.4846 -0.2413
  105SAPE   H5X10778   7.392   3.016   4.409 -0.6485 -0.5322  0.6494
  105SAPE   H5Y10779   7.215   3.016   4.410  0.7332 -0.9426 -0.3726
  105SAPE   C3610780   7.304   3.094   4.590 -0.6374  0.1606 -0.9458
  105SAPE   H6X10781   7.240   3.182   4.614  1.0241  1.2684 -0.3847
  105SAPE   H6Y10782   7.409   3.109   4.623 -0.7939 -0.0445 -0.3261
  105SAPE   C3710783   7.251   2.971   4.670  0.7788 -0.4120 -0.6295
  105SAPE   H7X10784   7.281   2.883   4.609  2.2894  1.0137 -2.0727
  105SAPE   H7Y10785   7.140   2.980   4.669  0.8534  0.5992 -1.2071
  105SAPE   C3810786   7.295   2.971   4.822  0.3930 -0.0681 -0.2287
  105SAPE   H8X10787   7.405   2.986   4.824  0.2375  1.4531  2.7166
  105SAPE   H8Y10788   7.279   2.866   4.855 -1.3106 -0.4322 -2.0742
  105SAPE   C3910789   7.237   3.082   4.911  0.4328  0.4863  0.9733
  105SAPE   H9X10790   7.128   3.065   4.921  0.5738 -2.0156 -0.6717
  105SAPE   H9Y10791   7.241   3.174   4.847 -1.5104 -0.6029 -0.8610
  105SAPE  C31010792   7.292   3.082   5.047  0.1148  0.2920  0.0768
  105SAPE  H10X10793   7.402   3.085   5.031  0.4272 -1.8744  1.4640
  105SAPE  H10Y10794   7.293   2.980   5.092  1.7485  0.3614  0.2680
  105SAPE  C31110795   7.227   3.175   5.148 -0.0937 -0.2269 -0.5743
  105SAPE  H11X10796   7.245   3.284   5.142 -0.7712 -0.1667 -2.0049
  105SAPE  H11Y10797   7.276   3.136   5.240 -0.1027  1.4238  0.1704
  105SAPE  C31210798   7.077   3.157   5.174 -0.6349 -0.1464 -0.0247
  105SAPE  H12X10799   7.030   3.058   5.153  0.5041 -0.4887 -1.1004
  105SAPE  H12Y10800   7.032   3.208   5.086  0.7585  0.0907 -0.6381
  105SAPE  C31310801   7.019   3.250   5.284  0.0562  0.2221 -0.6845
  105SAPE  H13X10802   7.079   3.343   5.295  1.4907 -0.8087  0.6641
  105SAPE  H13Y10803   7.034   3.192   5.377 -1.1240  1.2659  0.1837
  105SAPE  C31410804   6.870   3.277   5.272  0.5157 -0.2851  0.2500
  105SAPE  H14X10805   6.820   3.179   5.258  0.2011 -0.3625  1.7847
  105SAPE  H14Y10806   6.853   3.328   5.174  2.7101  0.8827  0.4287
  105SAPE  C31510807   6.810   3.353   5.394 -0.5724  0.6589 -0.4560
  105SAPE  H15X10808   6.702   3.370   5.379 -1.0393  0.0483  1.8199
  105SAPE  H15Y10809   6.856   3.454   5.398 -1.4972  1.1067 -0.8903
  105SAPE  C31610810   6.827   3.261   5.517 -0.2863  0.4979  0.7259
  105SAPE  H16X10811   6.933   3.252   5.550 -0.7204 -2.7435  1.5914
  105SAPE  H16Y10812   6.790   3.158   5.496 -0.4033  0.6814  0.0158
  105SAPE  C31710813   6.744   3.316   5.637  0.6105 -0.0833 -0.8377
  105SAPE  H17X10814   6.636   3.321   5.610 -0.0812  0.0708  1.6346
  105SAPE  H17Y10815   6.762   3.424   5.657  0.6212 -0.0899 -0.8116
  105SAPE  C31810816   6.766   3.237   5.765 -0.1033 -0.1856  0.2074
  105SAPE  H18X10817   6.868   3.253   5.805  0.5107 -0.8545 -1.0373
  105SAPE  H18Y10818   6.753   3.131   5.733  1.5583 -0.1672 -0.6449
  105SAPE  H18Z10819   6.692   3.259   5.846  0.9535 -0.8384  1.3895
  106SAPE     N10820   0.739   0.763   3.442  0.3172  0.1438 -0.9020
  106SAPE   HN110821   0.781   0.678   3.485 -1.9665 -0.2401  0.7155
  106SAPE   HN210822   0.814   0.810   3.387  0.2558  0.7254 -0.4875
  106SAPE   HN310823   0.704   0.824   3.518  2.0102  0.4089 -0.2905
  106SAPE   C1210824   0.624   0.702   3.358  0.2070  0.4655  0.7165
  106SAPE  H12A10825   0.669   0.607   3.320 -0.2944  1.0892 -1.6341
  106SAPE  H12B10826   0.599   0.775   3.277 -0.9170  2.4474  2.7521
  106SAPE   C1110827   0.506   0.678   3.451  0.1870 -0.3672  0.1641
  106SAPE  H11A10828   0.405   0.673   3.405  0.9250  1.3526 -1.7291
  106SAPE  H11B10829   0.491   0.767   3.515 -0.9638 -0.1064 -0.4467
  106SAPE     P10830   0.421   0.467   3.583 -0.1828  0.5820  0.4670
  106SAPE   O1310831   0.287   0.498   3.532 -0.1726 -0.2742  0.1396
  106SAPE   O1410832   0.476   0.336   3.541  1.1220 -0.6905  0.4497
  106SAPE   O1210833   0.529   0.580   3.546 -0.3136 -0.3722 -0.4343
  106SAPE   O1110834   0.406   0.478   3.742 -0.3744  0.0924 -1.0487
  106SAPE    C110835   0.520   0.432   3.818 -0.2877  0.2502  0.1307
  106SAPE    HA10836   0.608   0.387   3.767 -0.7874 -0.0903 -0.4466
  106SAPE    HB10837   0.561   0.508   3.889  0.5991  0.5624 -0.6844
  106SAPE    C210838   0.475   0.319   3.916  0.1607  0.4066 -0.3848
  106SAPE    HS10839   0.436   0.244   3.843  2.2740 -0.2171 -0.9436
  106SAPE   O2110840   0.385   0.353   4.021  0.3460  0.2034  0.1110
  106SAPE   C2110841   0.305   0.255   4.049 -0.6160 -0.4824 -0.5440
  106SAPE   O2210842   0.301   0.145   4.002  0.0510 -0.5681  0.3081
  106SAPE   C2210843   0.210   0.309   4.158 -0.1686 -0.6122 -0.2291
  106SAPE   H2R10844   0.267   0.339   4.248 -0.8950  1.5540 -0.4201
  106SAPE   H2S10845   0.168   0.403   4.116 -0.3991 -1.0264 -0.9566
  106SAPE    C310846   0.605   0.251   3.975 -0.5707 -0.5050 -0.7501
  106SAPE    HX10847   0.662   0.221   3.884 -1.1082 -0.5944 -1.0642
  106SAPE    HY10848   0.587   0.149   4.015 -0.4379  0.0018  0.6377
  106SAPE   O3110849   0.684   0.344   4.045  0.3867 -0.0713 -0.1837
  106SAPE   C3110850   0.678   0.351   4.181  0.1100 -0.2355 -0.2776
  106SAPE   O3210851   0.603   0.279   4.245  0.4086  0.2407 -0.0486
  106SAPE   C3210852   0.762   0.464   4.229 -0.2412 -0.2656 -0.1227
  106SAPE   H2X10853   0.695   0.552   4.233  0.8013  0.6265 -1.4505
  106SAPE   H2Y10854   0.840   0.485   4.153 -0.3909 -1.1973 -0.5373
  106SAPE   C2310855   0.092   0.219   4.190  0.1841 -0.8479  0.2498
  106SAPE   H3R10856   0.041   0.192   4.095  1.9497  0.5619 -1.1667
  106SAPE   H3S10857   0.024   0.265   4.264 -0.6660  0.1001 -1.0810
  106SAPE   C2410858   0.140   0.091   4.261  0.2611  0.3073 -0.0554
  106SAPE   H4R10859   0.168   0.110   4.367 -1.2434 -0.8063  0.5693
  106SAPE   H4S10860   0.237   0.056   4.219  0.4553  1.8350 -0.9861
  106SAPE   C2510861   0.032  -0.011   4.261  0.8287 -0.4781 -0.7626
  106SAPE   H5R10862   0.002  -0.027   4.156 -1.4575 -0.3765 -0.1912
  106SAPE   C2610863  -0.041  -0.062   4.368 -0.2922 -0.3799  0.6424
  106SAPE   H6R10864  -0.119  -0.136   4.344  1.9070 -2.7989  0.4662
  106SAPE   C2710865  -0.026  -0.031   4.514  0.0635  0.3338 -0.1196
  106SAPE   H7R10866  -0.106   0.040   4.543 -0.6414 -0.2695 -0.5564
  106SAPE   H7S10867   0.069   0.022   4.534  1.0553 -1.6222  0.5945
  106SAPE   C2810868  -0.014  -0.151   4.609 -0.7119 -0.1641 -0.5329
  106SAPE   H8R10869   0.023  -0.249   4.577  0.5260  0.4528 -1.0575
  106SAPE   C2910870  -0.057  -0.150   4.739 -0.6273  0.6562 -0.0710
  106SAPE   H9R10871  -0.045  -0.240   4.800 -0.1946  0.6998 -0.0889
  106SAPE  C21010872  -0.100  -0.026   4.814 -0.0311 -0.5633 -0.4340
  106SAPE  H10R10873  -0.162  -0.057   4.901 -0.4641  1.3810 -0.0040
  106SAPE  H10S10874  -0.170   0.038   4.755 -0.9748  0.5402  1.7748
  106SAPE  C21110875   0.015   0.055   4.860 -0.0971  0.1055 -0.6461
  106SAPE  H11R10876   0.106   0.064   4.799 -0.7001  0.9450 -1.4506
  106SAPE  C21210877   0.024   0.118   4.985 -0.1630 -0.2550  0.2414
  106SAPE  H12R10878   0.119   0.170   5.006  0.3955 -1.2455  0.2263
  106SAPE  C21310879  -0.090   0.124   5.086 -0.1799  0.1407 -0.0892
  106SAPE  H13R10880  -0.185   0.100   5.033  0.6835 -2.5677 -0.5348
  106SAPE  H13S10881  -0.098   0.225   5.131  1.6177  0.2824 -0.0309
  106SAPE  C21410882  -0.076   0.028   5.196  0.4391  0.9356  0.5726
  106SAPE  H14R10883  -0.005  -0.052   5.170 -0.3310  0.3804  0.1131
  106SAPE  C21510884  -0.148   0.027   5.307  0.2775 -0.2416 -0.7588
  106SAPE  H15R10885  -0.117  -0.026   5.398  1.8954  0.5411 -0.8014
  106SAPE  C21610886  -0.262   0.123   5.337 -0.3673 -0.2508 -0.0614
  106SAPE  H16R10887  -0.258   0.209   5.265  1.8066  0.6536  1.0531
  106SAPE  H16S10888  -0.256   0.169   5.438 -2.6334 -1.9381  0.9014
  106SAPE  C21710889  -0.405   0.070   5.313 -0.5745  0.0141  0.1242
  106SAPE  H17R10890  -0.404  -0.001   5.227 -2.0122 -1.3232  1.1553
  106SAPE  H17S10891  -0.475   0.155   5.297 -2.2029 -0.8693  2.0825
  106SAPE  C21810892  -0.468  -0.008   5.428  0.1078 -0.2430  0.2612
  106SAPE  H18R10893  -0.481   0.062   5.513 -1.6929  1.2504 -1.1408
  106SAPE  H18S10894  -0.399  -0.087   5.465  1.7689 -0.2926 -2.6149
  106SAPE  C21910895  -0.599  -0.079   5.391  1.0030 -0.4720 -0.4427
  106SAPE  H19R10896  -0.632  -0.145   5.474  0.6145  0.5359  0.2208
  106SAPE  H19S10897  -0.586  -0.143   5.301  1.1410 -0.6103 -0.3230
  106SAPE  C22010898  -0.720   0.014   5.357 -0.4500 -0.3272 -0.2865
  106SAPE  H20R10899  -0.801  -0.051   5.317 -1.2139 -1.1537  2.3744
  106SAPE  H20S10900  -0.695   0.086   5.277 -0.3051  0.1136  0.1540
  106SAPE  H20T10901  -0.765   0.073   5.440  0.2227  2.5231 -1.8464
  106SAPE   C3310902   0.833   0.437   4.360 -0.2723  0.3718 -0.9365
  106SAPE   H3X10903   0.898   0.526   4.377  0.4684 -0.1883 -0.7799
  106SAPE   H3Y10904   0.896   0.346   4.364 -1.1127 -0.1874  1.6799
  106SAPE   C3410905   0.735   0.445   4.482 -0.2904  0.6261  0.2148
  106SAPE   H4X10906   0.658   0.365   4.484  0.0525  0.2653  2.9050
  106SAPE   H4Y10907   0.683   0.543   4.468 -0.2524  0.7871  1.1161
  106SAPE   C3510908   0.807   0.453   4.616 -0.1933 -0.5005 -1.3624
  106SAPE   H5X10909   0.855   0.552   4.630 -1.4011 -0.2600  2.3644
  106SAPE   H5Y10910   0.891   0.379   4.618  0.2798  0.0316  0.0645
  106SAPE   C3610911   0.716   0.439   4.736 -0.0387  0.0824 -0.1394
  106SAPE   H6X10912   0.643   0.358   4.715  0.1677  0.6500 -3.5123
  106SAPE   H6Y10913   0.658   0.532   4.752  0.0283  0.0800  0.1314
  106SAPE   C3710914   0.792   0.393   4.867 -0.1632  0.0013 -1.2474
  106SAPE   H7X10915   0.873   0.466   4.889  1.2004 -2.0674  1.1237
  106SAPE   H7Y10916   0.820   0.286   4.863 -2.6543 -0.7410 -0.4939
  106SAPE   C3810917   0.692   0.404   4.988  0.1159 -0.1928  0.0321
  106SAPE   H8X10918   0.615   0.327   4.970  0.9115 -0.6047 -1.9058
  106SAPE   H8Y10919   0.633   0.498   4.995  2.2791  1.2194  0.2240
  106SAPE   C3910920   0.761   0.403   5.124  0.5112 -0.2724  0.0102
  106SAPE   H9X10921   0.830   0.490   5.141 -2.0190  1.7705  0.4847
  106SAPE   H9Y10922   0.820   0.309   5.130 -1.4300 -1.5759 -0.4381
  106SAPE  C31010923   0.664   0.405   5.250 -0.4687  0.5006  0.1348
  106SAPE  H10X10924   0.582   0.336   5.223 -0.5415  1.0456 -1.0911
  106SAPE  H10Y10925   0.616   0.504   5.269 -1.6069  0.4669 -2.1909
  106SAPE  C31110926   0.731   0.347   5.381 -0.4422 -0.2531  0.4730
  106SAPE  H11X10927   0.759   0.242   5.359 -1.1414 -0.2583 -0.4614
  106SAPE  H11Y10928   0.655   0.350   5.462 -0.6259  2.2476  0.3038
  106SAPE  C31210929   0.841   0.440   5.428  0.2728 -0.1225 -0.1783
  106SAPE  H12X10930   0.812   0.534   5.376  1.5822 -0.0652 -0.8463
  106SAPE  H12Y10931   0.939   0.396   5.400 -0.8773 -2.4388 -0.8139
  106SAPE  C31310932   0.836   0.493   5.572  0.7414  0.3985  0.4927
  106SAPE  H13X10933   0.741   0.544   5.597  0.9739  2.8858 -2.9149
  106SAPE  H13Y10934   0.912   0.574   5.584  2.6089 -1.3834  1.3121
  106SAPE  C31410935   0.863   0.386   5.682 -0.1818 -1.1866 -0.3019
  106SAPE  H14X10936   0.814   0.290   5.657  1.0173 -2.4992  2.0272
  106SAPE  H14Y10937   0.816   0.424   5.776 -1.8672  0.1891 -1.6282
  106SAPE  C31510938   1.015   0.358   5.693  0.4132  0.2202  0.3107
  106SAPE  H15X10939   1.066   0.448   5.652  1.7292 -0.7052 -0.1460
  106SAPE  H15Y10940   1.049   0.272   5.631  0.2662 -0.8676  1.7010
  106SAPE  C31610941   1.054   0.332   5.841 -0.7023  0.2627 -0.0382
  106SAPE  H16X10942   1.161   0.302   5.831 -0.8304  0.1054 -1.0391
  106SAPE  H16Y10943   0.992   0.261   5.900  0.8981  0.7198  2.3657
  106SAPE  C31710944   1.066   0.461   5.929 -0.3864  0.6008  0.2655
  106SAPE  H17X10945   0.962   0.484   5.962 -0.3365  0.7600  0.3166
  106SAPE  H17Y10946   1.115   0.539   5.867 -0.3266 -0.6007 -1.2609
  106SAPE  C31810947   1.150   0.438   6.055  0.0672 -0.0706 -0.6803
  106SAPE  H18X10948   1.249   0.397   6.024  0.4842  0.4838 -0.1174
  106SAPE  H18Y10949   1.098   0.372   6.127 -0.6635  0.2576 -0.9012
  106SAPE  H18Z10950   1.165   0.525   6.123 -0.1056 -0.5292 -0.0464
  107SAPE     N10951   2.477   3.753   3.116  1.0657 -0.2890  0.0574
  107SAPE   HN110952   2.460   3.850   3.085  1.1160  1.4278  4.6139
  107SAPE   HN210953   2.394   3.699   3.148  1.6944 -0.1193  2.1032
  107SAPE   HN310954   2.535   3.759   3.202 -0.7752 -1.5260  1.4561
  107SAPE   C1210955   2.568   3.670   3.029 -0.6603 -0.0019 -1.1825
  107SAPE  H12A10956   2.547   3.689   2.922 -0.3123  1.4110 -1.0094
  107SAPE  H12B10957   2.553   3.564   3.060 -1.7514  0.6605  0.7579
  107SAPE   C1110958   2.714   3.723   3.068 -0.0255 -0.3476  0.5931
  107SAPE  H11A10959   2.719   3.826   3.025 -2.2809 -0.0262  0.9366
  107SAPE  H11B10960   2.792   3.664   3.016 -0.9356  0.1444 -1.4212
  107SAPE     P10961   2.876   3.731   3.269  0.0924  0.0737 -0.4978
  107SAPE   O1310962   2.973   3.714   3.158 -0.5238  0.0065 -0.1899
  107SAPE   O1410963   2.887   3.861   3.344 -0.0923 -0.1282  0.0951
  107SAPE   O1210964   2.732   3.719   3.208  0.4226 -0.5283  0.2257
  107SAPE   O1110965   2.887   3.612   3.371 -0.8051  0.1931  0.0965
  107SAPE    C110966   2.771   3.541   3.415 -0.1705  0.5612  0.1236
  107SAPE    HA10967   2.717   3.485   3.336  0.5690 -2.4044  1.6134
  107SAPE    HB10968   2.805   3.461   3.483 -1.3152 -1.1740 -1.2714
  107SAPE    C210969   2.671   3.620   3.503 -0.6788 -0.5981 -0.2375
  107SAPE    HS10970   2.628   3.707   3.448  2.0382  0.8041 -0.2686
  107SAPE   O2110971   2.736   3.667   3.623  0.4643  0.1336  0.0596
  107SAPE   C2110972   2.725   3.797   3.663 -0.4827  0.0909 -0.0932
  107SAPE   O2210973   2.659   3.884   3.611  0.1777 -0.4401  0.0093
  107SAPE   C2210974   2.802   3.815   3.792 -0.0938 -0.0522 -0.3529
  107SAPE   H2R10975   2.753   3.766   3.879  0.2101 -2.7471 -1.6144
  107SAPE   H2S10976   2.905   3.774   3.781 -0.1972 -0.1932 -0.7701
  107SAPE    C310977   2.550   3.536   3.537  0.4851 -0.0401  0.5923
  107SAPE    HX10978   2.567   3.452   3.607 -1.1336 -2.0130 -1.2456
  107SAPE    HY10979   2.521   3.500   3.436  2.0426  4.6833 -1.8763
  107SAPE   O3110980   2.449   3.610   3.592 -0.2827 -0.3396  0.0623
  107SAPE   C3110981   2.366   3.677   3.512  0.5666  0.0196 -0.4069
  107SAPE   O3210982   2.372   3.677   3.387  0.0263  0.0452  0.3380
  107SAPE   C3210983   2.273   3.768   3.597 -0.0187  0.1929 -0.5530
  107SAPE   H2X10984   2.290   3.871   3.558 -1.7760  1.0727  0.8957
  107SAPE   H2Y10985   2.322   3.783   3.696 -1.1331  0.7343 -0.0676
  107SAPE   C2310986   2.832   3.966   3.821  0.0990  0.1630 -0.3693
  107SAPE   H3R10987   2.739   4.024   3.833  0.4967  0.2612  3.4586
  107SAPE   H3S10988   2.902   4.015   3.749  0.3691  2.3402  1.2580
  107SAPE   C2410989   2.905   3.994   3.953 -0.0737 -0.4176  0.2781
  107SAPE   H4R10990   2.960   3.900   3.976  0.1365 -0.3476  0.0646
  107SAPE   H4S10991   2.825   3.998   4.030  0.0418  3.1513  0.3530
  107SAPE   C2510992   2.992   4.117   3.968  0.3904  0.4114 -0.0650
  107SAPE   H5R10993   3.068   4.128   3.889 -0.5024  0.0075 -1.0080
  107SAPE   C2610994   2.984   4.205   4.064  0.0448 -0.2405 -0.2468
  107SAPE   H6R10995   3.051   4.292   4.060  1.5113 -1.3745 -2.3798
  107SAPE   C2710996   2.900   4.216   4.189  0.3719 -0.2929 -0.2924
  107SAPE   H7R10997   2.910   4.318   4.232 -1.0261 -0.4247  0.3928
  107SAPE   H7S10998   2.948   4.151   4.265  2.2476  0.2196 -0.9736
  107SAPE   C2810999   2.756   4.175   4.185  0.7890 -0.2998 -0.1427
  107SAPE   H8R11000   2.704   4.200   4.092  2.7816 -1.6346 -1.7046
  107SAPE   C2911001   2.683   4.120   4.281 -0.8382  0.6608 -0.3157
  107SAPE   H9R11002   2.577   4.104   4.256 -0.7627  0.6646 -0.6296
  107SAPE  C21011003   2.722   4.078   4.420  0.7516 -0.2035  0.1169
  107SAPE  H10R11004   2.631   4.090   4.483 -0.1241 -1.8802 -0.7830
  107SAPE  H10S11005   2.798   4.150   4.458 -0.0398  1.2675 -0.9723
  107SAPE  C21111006   2.777   3.938   4.421 -0.3307 -0.1660 -0.5253
  107SAPE  H11R11007   2.865   3.930   4.355  0.3876  1.4699  0.1675
  107SAPE  C21211008   2.750   3.843   4.511 -0.5986  0.7152 -0.6153
  107SAPE  H12R11009   2.805   3.748   4.510 -2.9077 -0.7597  1.1018
  107SAPE  C21311010   2.660   3.840   4.630  0.4723 -0.0571  0.2792
  107SAPE  H13R11011   2.604   3.936   4.630  2.2039  1.0074 -0.6538
  107SAPE  H13S11012   2.722   3.838   4.722  0.5380 -0.3435  0.2298
  107SAPE  C21411013   2.565   3.720   4.625 -0.0219  0.5011 -0.1367
  107SAPE  H14R11014   2.470   3.754   4.581  0.1550  0.6800 -0.3844
  107SAPE  C21511015   2.587   3.592   4.673  0.3469 -0.0136  0.1297
  107SAPE  H15R11016   2.503   3.522   4.677 -0.5374  1.0451  0.8564
  107SAPE  C21611017   2.718   3.549   4.731 -0.2169 -0.4128 -1.0922
  107SAPE  H16R11018   2.797   3.625   4.715 -1.5051  1.4182  0.7162
  107SAPE  H16S11019   2.739   3.447   4.692 -0.0096 -0.9866  0.4216
  107SAPE  C21711020   2.703   3.532   4.886  0.4278 -0.5225  0.7850
  107SAPE  H17R11021   2.801   3.492   4.921  2.3259  1.9774 -1.2620
  107SAPE  H17S11022   2.629   3.452   4.908  0.3901 -0.3791  1.1812
  107SAPE  C21811023   2.676   3.656   4.967 -0.2225 -0.0656 -0.4215
  107SAPE  H18R11024   2.604   3.723   4.914  0.4626  0.6111 -0.5050
  107SAPE  H18S11025   2.764   3.723   4.969 -0.2576  0.2745 -3.7877
  107SAPE  C21911026   2.616   3.630   5.107 -0.8333  0.0759  0.5749
  107SAPE  H19R11027   2.684   3.566   5.167  2.0788  1.2216 -1.2742
  107SAPE  H19S11028   2.523   3.572   5.090 -0.3577 -0.0932 -1.7726
  107SAPE  C22011029   2.591   3.757   5.186 -0.2920 -0.5172 -0.1008
  107SAPE  H20R11030   2.676   3.827   5.201 -0.3476 -0.5472  0.3939
  107SAPE  H20S11031   2.551   3.737   5.288 -0.7670  0.4623 -0.0792
  107SAPE  H20T11032   2.500   3.798   5.137  0.8053  1.6856 -0.4535
  107SAPE   C3311033   2.123   3.733   3.590 -0.6546  0.3004 -0.2374
  107SAPE   H3X11034   2.094   3.721   3.484 -2.6859 -1.0505  0.4154
  107SAPE   H3Y11035   2.055   3.808   3.635  0.2859  0.7917  0.4100
  107SAPE   C3411036   2.088   3.601   3.658  0.0404 -0.2250  0.0211
  107SAPE   H4X11037   2.154   3.517   3.629  0.3675  0.1879 -0.4477
  107SAPE   H4Y11038   1.983   3.582   3.627 -0.9505  2.7184  1.3155
  107SAPE   C3511039   2.098   3.583   3.815  0.3964  0.1592 -0.6370
  107SAPE   H5X11040   2.198   3.619   3.848  0.7481 -2.0948  1.0058
  107SAPE   H5Y11041   2.101   3.473   3.829 -0.8572  0.1307 -0.5553
  107SAPE   C3611042   1.981   3.665   3.879 -0.0460  0.6130 -0.4725
  107SAPE   H6X11043   1.886   3.625   3.836 -0.9463  3.6530 -1.5500
  107SAPE   H6Y11044   1.978   3.772   3.850 -0.5585  0.4279 -1.1104
  107SAPE   C3711045   1.970   3.655   4.032  0.5849  0.1962 -0.2244
  107SAPE   H7X11046   2.061   3.692   4.084  0.8841 -1.9989  0.9430
  107SAPE   H7Y11047   1.971   3.548   4.063 -1.3417  0.8174  2.2799
  107SAPE   C3811048   1.845   3.734   4.078 -0.3086 -0.1407 -0.4268
  107SAPE   H8X11049   1.763   3.700   4.010 -2.5771 -1.5365  2.7449
  107SAPE   H8Y11050   1.859   3.844   4.073  1.2778 -0.3215 -0.5476
  107SAPE   C3911051   1.798   3.702   4.220  0.2910  0.2619 -0.6436
  107SAPE   H9X11052   1.805   3.594   4.245  2.0488  0.1468 -1.5067
  107SAPE   H9Y11053   1.688   3.719   4.217  0.4979  1.9032  0.1065
  107SAPE  C31011054   1.839   3.792   4.332  0.5752 -0.1501  1.1387
  107SAPE  H10X11055   1.805   3.894   4.306  0.1372 -0.5285  0.1762
  107SAPE  H10Y11056   1.950   3.792   4.337  0.7222 -3.1746 -0.1417
  107SAPE  C31111057   1.783   3.742   4.462 -0.3074 -0.4575 -0.2238
  107SAPE  H11X11058   1.832   3.644   4.478 -1.6202 -1.0095  0.5918
  107SAPE  H11Y11059   1.673   3.724   4.461 -0.0899 -2.4124  2.2219
  107SAPE  C31211060   1.823   3.834   4.580  0.7899  0.7077  0.2559
  107SAPE  H12X11061   1.806   3.942   4.563 -3.1868  0.3638  0.9934
  107SAPE  H12Y11062   1.932   3.817   4.592  0.9501  1.6425  0.1756
  107SAPE  C31311063   1.747   3.791   4.710  0.8719 -0.0543 -0.0711
  107SAPE  H13X11064   1.781   3.686   4.724  0.1090 -0.8320 -3.1704
  107SAPE  H13Y11065   1.637   3.793   4.694  0.7002 -1.2400  0.8536
  107SAPE  C31411066   1.783   3.874   4.830 -0.3460  0.3320 -0.3233
  107SAPE  H14X11067   1.777   3.982   4.803  0.4667  0.5399  0.3176
  107SAPE  H14Y11068   1.889   3.859   4.858 -0.2072 -3.4089 -2.2149
  107SAPE  C31511069   1.686   3.872   4.953 -0.4358  0.2981  0.5095
  107SAPE  H15X11070   1.665   3.765   4.978 -1.7392  0.0835 -1.2746
  107SAPE  H15Y11071   1.587   3.904   4.914 -0.9419  1.2077  2.4690
  107SAPE  C31611072   1.736   3.969   5.065 -0.1738 -0.2654 -0.1074
  107SAPE  H16X11073   1.821   4.035   5.037  0.5734 -1.0761  0.1979
  107SAPE  H16Y11074   1.778   3.902   5.143 -2.3705  1.4546  2.7605
  107SAPE  C31711075   1.629   4.068   5.116  0.0991  0.0392  0.3645
  107SAPE  H17X11076   1.550   4.017   5.174 -0.1940  0.3871  0.2747
  107SAPE  H17Y11077   1.576   4.110   5.027  0.0247  0.0281  0.4035
  107SAPE  C31811078   1.685   4.175   5.202 -0.1344 -0.7164 -0.9200
  107SAPE  H18X11079   1.700   4.132   5.303 -0.2250 -1.9661 -1.4155
  107SAPE  H18Y11080   1.603   4.249   5.217  1.3921  0.9249 -0.4319
  107SAPE  H18Z11081   1.770   4.228   5.155 -0.8013  0.2419 -1.0824
  108SAPE     N11082   1.437   5.009   2.758 -0.2999 -0.1931 -0.2878
  108SAPE   HN111083   1.496   4.978   2.838  1.1916  0.4326 -1.1071
  108SAPE   HN211084   1.355   5.062   2.795  0.3890  2.0259 -1.7004
  108SAPE   HN311085   1.404   4.927   2.705  0.3763 -1.3939  1.0820
  108SAPE   C1211086   1.476   5.110   2.652 -0.5176  0.1987  0.3179
  108SAPE  H12A11087   1.396   5.108   2.575 -0.2776 -0.1455  0.0741
  108SAPE  H12B11088   1.570   5.068   2.611 -0.4463  0.8752 -0.2099
  108SAPE   C1111089   1.485   5.258   2.698 -0.0129  0.7216 -0.2930
  108SAPE  H11A11090   1.488   5.327   2.611  0.5521  1.9893  0.6974
  108SAPE  H11B11091   1.579   5.266   2.758 -0.5131 -0.6063  0.7150
  108SAPE     P11092   1.374   5.419   2.868 -0.0919  0.1281  0.3442
  108SAPE   O1311093   1.506   5.484   2.853 -0.3547 -0.6415 -0.2812
  108SAPE   O1411094   1.256   5.500   2.840  0.7343  0.0836  0.0088
  108SAPE   O1211095   1.376   5.287   2.782 -0.4073  0.3636 -0.6479
  108SAPE   O1111096   1.369   5.362   3.015  0.2966  0.1892  0.8812
  108SAPE    C111097   1.483   5.277   3.050  1.0727 -0.1127 -0.3760
  108SAPE    HA11098   1.471   5.174   3.011  0.4156 -0.3134  0.3289
  108SAPE    HB11099   1.581   5.316   3.013  0.9631  2.7157  1.9024
  108SAPE    C211100   1.501   5.256   3.202  0.7048  0.5143 -0.0851
  108SAPE    HS11101   1.558   5.165   3.229  1.0629  0.7135 -0.1753
  108SAPE   O2111102   1.369   5.223   3.262 -0.4451 -0.4191 -0.1382
  108SAPE   C2111103   1.334   5.106   3.265  0.5731  0.3329  0.1187
  108SAPE   O2211104   1.384   5.005   3.222  0.0257 -0.1045 -0.3801
  108SAPE   C2211105   1.211   5.094   3.358 -0.4440 -0.1455  0.4862
  108SAPE   H2R11106   1.134   5.163   3.316 -1.9790 -0.1185  3.1351
  108SAPE   H2S11107   1.163   4.995   3.350 -1.3572  0.4420 -2.5088
  108SAPE    C311108   1.541   5.386   3.264 -0.3252  0.0530  0.1773
  108SAPE    HX11109   1.470   5.459   3.219 -1.8868 -1.7519 -0.4404
  108SAPE    HY11110   1.647   5.413   3.248 -0.6416  2.0717  1.1382
  108SAPE   O3111111   1.513   5.406   3.408 -0.4179  0.2733  0.4208
  108SAPE   C3111112   1.571   5.335   3.502  0.4607  0.5721  1.1646
  108SAPE   O3211113   1.661   5.252   3.496 -0.1871 -0.1595  0.3601
  108SAPE   C3211114   1.502   5.379   3.630 -0.1403  0.0427  0.0799
  108SAPE   H2X11115   1.393   5.381   3.610 -0.1091  0.0973 -0.0865
  108SAPE   H2Y11116   1.526   5.487   3.641  0.0627 -0.0238  0.3086
  108SAPE   C2311117   1.232   5.139   3.501 -0.0655  0.4745  0.0301
  108SAPE   H3R11118   1.128   5.148   3.541 -0.7772  1.5049 -1.9225
  108SAPE   H3S11119   1.276   5.240   3.508 -0.9529  0.8388  0.5841
  108SAPE   C2411120   1.311   5.025   3.573 -0.0481 -0.3919  0.7517
  108SAPE   H4R11121   1.418   5.047   3.554 -0.5488 -0.3382 -2.7708
  108SAPE   H4S11122   1.288   4.931   3.518 -2.4204  1.3492 -1.4986
  108SAPE   C2511123   1.284   5.027   3.725  0.2992  0.2287 -0.3061
  108SAPE   H5R11124   1.245   5.120   3.769  0.1924  1.4667 -2.8583
  108SAPE   C2611125   1.296   4.922   3.806  0.0064 -0.7637 -0.2756
  108SAPE   H6R11126   1.288   4.944   3.913  2.3795  4.1397 -0.8348
  108SAPE   C2711127   1.343   4.784   3.767  0.0294  0.2348 -0.6644
  108SAPE   H7R11128   1.388   4.723   3.848 -0.5769 -3.2243 -2.6696
  108SAPE   H7S11129   1.417   4.804   3.686 -0.5236  0.6214 -1.0856
  108SAPE   C2811130   1.238   4.706   3.700 -0.5644 -0.4265  0.3517
  108SAPE   H8R11131   1.208   4.753   3.606  3.2771  0.0621 -0.8066
  108SAPE   C2911132   1.191   4.590   3.731 -0.5555 -0.0592  0.1061
  108SAPE   H9R11133   1.104   4.548   3.677 -2.0265  0.5745  1.8879
  108SAPE  C21011134   1.236   4.505   3.843  0.3878  0.0583 -0.2105
  108SAPE  H10R11135   1.285   4.564   3.923  0.9003  0.6828 -0.9621
  108SAPE  H10S11136   1.305   4.427   3.805 -0.5683 -0.2340 -1.4422
  108SAPE  C21111137   1.118   4.431   3.900  0.3349 -0.4113  0.2262
  108SAPE  H11R11138   1.027   4.426   3.839  0.7390 -1.0354 -0.3401
  108SAPE  C21211139   1.119   4.368   4.015  0.7652 -0.2136 -0.3097
  108SAPE  H12R11140   1.022   4.331   4.052  2.0378  0.4187  4.2146
  108SAPE  C21311141   1.221   4.354   4.123  0.2136 -0.0260 -0.5304
  108SAPE  H13R11142   1.180   4.292   4.205 -1.2033  0.5478 -0.7728
  108SAPE  H13S11143   1.237   4.455   4.167 -1.4743  0.0534 -0.0255
  108SAPE  C21411144   1.352   4.294   4.074  0.5293 -0.6386  0.0826
  108SAPE  H14R11145   1.334   4.207   4.010  0.9083 -0.9157  0.3552
  108SAPE  C21511146   1.477   4.341   4.081 -0.0501 -0.3132  0.3039
  108SAPE  H15R11147   1.558   4.283   4.034 -0.7679 -0.4285 -0.8477
  108SAPE  C21611148   1.526   4.475   4.138  0.0145  0.7056 -0.2141
  108SAPE  H16R11149   1.601   4.447   4.216 -0.1139 -0.1966 -0.4022
  108SAPE  H16S11150   1.442   4.525   4.190 -0.3062 -0.4709  0.4417
  108SAPE  C21711151   1.583   4.555   4.021  0.2473  0.3022  0.9536
  108SAPE  H17R11152   1.515   4.563   3.934 -0.3049 -0.7569  1.2688
  108SAPE  H17S11153   1.678   4.509   3.986  1.8196  3.3769  0.7897
  108SAPE  C21811154   1.618   4.701   4.053 -0.0506  0.5978 -0.6512
  108SAPE  H18R11155   1.614   4.764   3.962  1.6367  1.0657 -0.4321
  108SAPE  H18S11156   1.724   4.706   4.084  0.0080  0.7453 -0.8755
  108SAPE  C21911157   1.523   4.771   4.152  0.1651  0.2887  0.6019
  108SAPE  H19R11158   1.534   4.728   4.253 -0.2186 -0.5569  0.2906
  108SAPE  H19S11159   1.421   4.749   4.114  0.3520  2.8365 -1.7377
  108SAPE  C22011160   1.525   4.923   4.151 -0.5104  0.1613 -0.2777
  108SAPE  H20R11161   1.494   4.973   4.057 -0.8914  1.1386  0.3576
  108SAPE  H20S11162   1.618   4.976   4.182 -0.5793 -0.0667  0.3409
  108SAPE  H20T11163   1.444   4.951   4.221  0.5059  1.6191  0.3713
  108SAPE   C3311164   1.542   5.294   3.752  0.2881  0.1779  0.0313
  108SAPE   H3X11165   1.651   5.303   3.767 -0.0897  1.5918  2.3788
  108SAPE   H3Y11166   1.514   5.187   3.744  1.6899 -0.3463  1.7022
  108SAPE   C3411167   1.480   5.361   3.873 -0.0118 -0.5484  0.0867
  108SAPE   H4X11168   1.373   5.385   3.859 -0.2156 -2.0754 -1.3760
  108SAPE   H4Y11169   1.527   5.459   3.892 -0.0503 -0.4231 -0.4323
  108SAPE   C3511170   1.517   5.292   4.009  0.5384  0.7651  0.2899
  108SAPE   H5X11171   1.465   5.195   4.018 -0.2521  1.1178 -0.3063
  108SAPE   H5Y11172   1.626   5.273   4.001  0.2698  0.0160 -3.7069
  108SAPE   C3611173   1.479   5.382   4.129 -0.2247 -0.1314 -0.3381
  108SAPE   H6X11174   1.370   5.401   4.119 -0.4606 -1.7377 -1.1081
  108SAPE   H6Y11175   1.538   5.475   4.111  0.4044 -0.7007 -1.3007
  108SAPE   C3711176   1.509   5.300   4.255 -0.5027  0.1124 -0.0581
  108SAPE   H7X11177   1.619   5.283   4.262 -0.7639 -2.8253 -1.6964
  108SAPE   H7Y11178   1.479   5.196   4.230  1.8451 -0.3594 -1.2523
  108SAPE   C3811179   1.447   5.363   4.381 -1.0003  0.4715 -0.0180
  108SAPE   H8X11180   1.337   5.348   4.385 -0.7880 -1.5049 -0.5550
  108SAPE   H8Y11181   1.467   5.473   4.383 -0.6162  0.3900  0.9090
  108SAPE   C3911182   1.501   5.296   4.512  0.0171 -0.9888 -0.2535
  108SAPE   H9X11183   1.578   5.369   4.545  0.9388 -1.0494 -2.1239
  108SAPE   H9Y11184   1.551   5.201   4.483  0.5941 -0.9142  0.4853
  108SAPE  C31011185   1.406   5.253   4.623  0.5765  0.4455 -0.2801
  108SAPE  H10X11186   1.439   5.150   4.650 -2.0419 -0.7489 -1.3140
  108SAPE  H10Y11187   1.303   5.259   4.583  0.5083 -1.4698 -0.5159
  108SAPE  C31111188   1.422   5.335   4.755 -0.0321 -0.2728  0.3181
  108SAPE  H11X11189   1.382   5.435   4.726  1.5355 -0.1441 -1.6526
  108SAPE  H11Y11190   1.529   5.343   4.781  0.3371 -0.1259 -1.1355
  108SAPE  C31211191   1.332   5.293   4.872 -0.8929  0.4623 -0.5264
  108SAPE  H12X11192   1.346   5.361   4.959 -1.6928 -1.2109  0.9776
  108SAPE  H12Y11193   1.388   5.204   4.909 -0.1141  1.7348  1.4906
  108SAPE  C31311194   1.186   5.265   4.845  0.1253 -0.2782  0.2344
  108SAPE  H13X11195   1.170   5.178   4.778 -2.3421 -0.5480  1.0742
  108SAPE  H13Y11196   1.143   5.352   4.792  0.2688 -0.1621  0.3082
  108SAPE  C31411197   1.100   5.232   4.973 -0.0255  0.1668  0.8494
  108SAPE  H14X11198   0.992   5.230   4.946  0.5371 -1.2813 -1.6732
  108SAPE  H14Y11199   1.118   5.317   5.042 -0.1293 -1.0664  2.4664
  108SAPE  C31511200   1.137   5.100   5.048 -0.0868 -0.8295  0.7324
  108SAPE  H15X11201   1.247   5.094   5.059  0.2505  2.2169  0.0375
  108SAPE  H15Y11202   1.100   5.010   4.995 -1.9671 -0.4411  1.3199
  108SAPE  C31611203   1.072   5.084   5.182 -0.0962 -0.4075  0.8240
  108SAPE  H16X11204   0.963   5.099   5.171 -0.0176 -0.9828 -1.0051
  108SAPE  H16Y11205   1.112   5.165   5.247  0.7208  1.0925 -1.4241
  108SAPE  C31711206   1.098   4.948   5.245 -0.1853 -0.2294  0.4068
  108SAPE  H17X11207   1.208   4.942   5.261 -0.3500 -0.1846  1.6524
  108SAPE  H17Y11208   1.070   4.866   5.176 -0.7450  1.6125 -1.6583
  108SAPE  C31811209   1.030   4.932   5.385  0.9575  0.7019  0.9087
  108SAPE  H18X11210   1.073   5.004   5.458  0.9122 -1.2461  2.9674
  108SAPE  H18Y11211   1.055   4.826   5.410  1.7556  0.8810  0.9062
  108SAPE  H18Z11212   0.920   4.947   5.381  0.6800 -1.3172 -2.0424
  109SAPE     N11213   4.187   2.975   3.188 -0.1043  0.0282  0.0032
  109SAPE   HN111214   4.205   2.999   3.088 -1.5122 -1.5551 -0.6721
  109SAPE   HN211215   4.257   2.907   3.222 -1.6144 -2.0790 -0.9145
  109SAPE   HN311216   4.095   2.928   3.196 -0.0482 -0.3112 -1.1404
  109SAPE   C1211217   4.184   3.101   3.266  0.1205  0.3716  0.1278
  109SAPE  H12A11218   4.135   3.178   3.204  0.8584  1.6737  1.1006
  109SAPE  H12B11219   4.290   3.128   3.287  0.1280  0.9082 -0.5661
  109SAPE   C1111220   4.092   3.088   3.392  0.9774 -0.3649  0.1661
  109SAPE  H11A11221   4.072   3.191   3.428 -0.9382 -0.2726 -1.0484
  109SAPE  H11B11222   4.149   3.038   3.474 -0.0116  0.6018  1.4900
  109SAPE     P11223   3.853   3.092   3.309 -0.2270 -0.3797  0.3488
  109SAPE   O1311224   3.880   3.177   3.186  0.2523 -0.1299 -1.1129
  109SAPE   O1411225   3.735   3.000   3.297 -0.2695 -0.1540  0.4049
  109SAPE   O1211226   3.982   3.007   3.355  0.0590 -0.1547 -0.4472
  109SAPE   O1111227   3.835   3.191   3.435 -0.6806 -0.1072 -0.0397
  109SAPE    C111228   3.760   3.160   3.552  0.2296 -0.8086 -0.0635
  109SAPE    HA11229   3.710   3.253   3.585  0.6995 -0.4561 -0.3200
  109SAPE    HB11230   3.676   3.095   3.520 -0.0974 -0.2986 -0.2501
  109SAPE    C211231   3.851   3.099   3.668  0.1144  0.4663  0.4834
  109SAPE    HS11232   3.782   3.109   3.755 -1.2699 -1.3923 -0.3408
  109SAPE   O2111233   3.982   3.168   3.680 -0.5580 -0.6284 -0.4039
  109SAPE   C2111234   3.971   3.300   3.700  0.6439 -0.4409 -0.1370
  109SAPE   O2211235   3.877   3.352   3.752  0.2562 -1.4479  0.5095
  109SAPE   C2211236   4.107   3.360   3.664  0.6462 -0.4767 -0.0568
  109SAPE   H2R11237   4.190   3.287   3.677 -1.2480 -2.6018  0.6920
  109SAPE   H2S11238   4.101   3.392   3.558  3.9246  1.0985  0.0922
  109SAPE    C311239   3.869   2.948   3.656 -0.3114  0.2382 -0.3278
  109SAPE    HX11240   3.943   2.935   3.575 -0.0088 -0.6240  0.0811
  109SAPE    HY11241   3.778   2.900   3.614  0.5876 -0.7219 -1.2451
  109SAPE   O3111242   3.898   2.885   3.775 -0.1224  0.1647  0.2284
  109SAPE   C3111243   3.935   2.757   3.764 -0.4823  0.1744  0.1716
  109SAPE   O3211244   3.958   2.699   3.660  0.8137 -0.0177  0.3050
  109SAPE   C3211245   3.963   2.699   3.906 -1.1891  0.2076  0.1014
  109SAPE   H2X11246   4.070   2.673   3.895 -0.1419  3.8018  0.6476
  109SAPE   H2Y11247   3.897   2.610   3.920 -1.0691  0.2085  0.6632
  109SAPE   C2311248   4.133   3.488   3.742 -0.0970 -0.6434 -0.6682
  109SAPE   H3R11249   4.041   3.549   3.729  0.6281  0.0560 -2.9508
  109SAPE   H3S11250   4.217   3.546   3.699  1.4668  1.6587  4.7025
  109SAPE   C2411251   4.181   3.465   3.879  0.7121 -0.1229 -0.8660
  109SAPE   H4R11252   4.280   3.415   3.885 -0.3538 -2.3804 -0.9453
  109SAPE   H4S11253   4.105   3.408   3.938  0.4569  2.0771  1.1189
  109SAPE   C2511254   4.188   3.592   3.952  1.0333  0.7587 -0.1712
  109SAPE   H5R11255   4.186   3.682   3.889  2.0039  0.9581  0.0681
  109SAPE   C2611256   4.199   3.610   4.087  0.0144  0.4222  0.4967
  109SAPE   H6R11257   4.189   3.715   4.120 -2.5477  0.3939 -0.0012
  109SAPE   C2711258   4.198   3.501   4.193 -0.3780 -0.9103 -0.2490
  109SAPE   H7R11259   4.204   3.396   4.158  0.3333 -1.5104  1.5598
  109SAPE   H7S11260   4.101   3.497   4.247 -0.0039 -1.3755  0.4053
  109SAPE   C2811261   4.310   3.524   4.290 -0.5094 -0.2919  0.6640
  109SAPE   H8R11262   4.408   3.488   4.257 -0.2585 -0.4688  1.5584
  109SAPE   C2911263   4.308   3.589   4.413  0.0049 -0.1178 -0.2070
  109SAPE   H9R11264   4.407   3.596   4.460  0.7340  0.9473 -1.8217
  109SAPE  C21011265   4.186   3.642   4.495 -0.1820  0.7084 -1.2432
  109SAPE  H10R11266   4.095   3.640   4.431 -1.2651  3.3443  0.0582
  109SAPE  H10S11267   4.206   3.747   4.526 -0.6590  0.6686 -0.7785
  109SAPE  C21111268   4.169   3.554   4.617 -0.0988 -0.1604  0.0521
  109SAPE  H11R11269   4.256   3.564   4.683  0.2739  2.1129 -0.6907
  109SAPE  C21211270   4.073   3.462   4.649  0.1012  0.3312 -0.4644
  109SAPE  H12R11271   4.066   3.427   4.752 -2.2027  0.6882 -0.4546
  109SAPE  C21311272   3.953   3.419   4.569 -0.4983  0.1585  0.9061
  109SAPE  H13R11273   3.904   3.340   4.629  2.4655 -3.8657 -1.4973
  109SAPE  H13S11274   3.986   3.363   4.479 -1.2819 -0.0971  0.7680
  109SAPE  C21411275   3.841   3.511   4.531 -0.0695 -0.0350 -0.8445
  109SAPE  H14R11276   3.849   3.606   4.587 -0.6025 -1.7216  2.2978
  109SAPE  C21511277   3.724   3.487   4.465 -0.2624  0.1896 -0.5638
  109SAPE  H15R11278   3.668   3.579   4.442  3.0161  2.5858  0.3952
  109SAPE  C21611279   3.681   3.361   4.401 -0.3327 -0.1783  0.2009
  109SAPE  H16R11280   3.572   3.366   4.378 -0.4144  0.3438  0.6738
  109SAPE  H16S11281   3.708   3.278   4.469 -2.2943 -0.4755  0.6950
  109SAPE  C21711282   3.761   3.331   4.271  0.1929  0.2754 -0.0665
  109SAPE  H17R11283   3.738   3.231   4.229 -2.4956 -0.4738  2.7898
  109SAPE  H17S11284   3.867   3.321   4.305 -0.4864 -1.5780  1.7750
  109SAPE  C21811285   3.754   3.426   4.156 -0.2089 -0.2624 -0.1618
  109SAPE  H18R11286   3.826   3.392   4.079  1.5948  1.0618  0.8638
  109SAPE  H18S11287   3.791   3.525   4.191 -1.6115  0.3634 -0.3539
  109SAPE  C21911288   3.608   3.438   4.101 -0.1378  0.1562  0.3683
  109SAPE  H19R11289   3.543   3.482   4.180  0.4869  0.4942  0.6996
  109SAPE  H19S11290   3.567   3.337   4.079 -0.1803  0.3223 -0.3219
  109SAPE  C22011291   3.600   3.524   3.968  0.3739 -0.6433  0.0179
  109SAPE  H20R11292   3.687   3.514   3.900  0.8480 -2.7286  0.8505
  109SAPE  H20S11293   3.592   3.629   4.002  0.5983 -0.1174 -1.4533
  109SAPE  H20T11294   3.505   3.502   3.914  1.8567 -3.4995 -1.6850
  109SAPE   C3311295   3.943   2.787   4.028 -0.4700  0.9366 -0.8146
  109SAPE   H3X11296   3.996   2.885   4.020  1.9348 -0.2541 -0.5181
  109SAPE   H3Y11297   3.995   2.739   4.113  2.1601 -0.6345 -3.1440
  109SAPE   C3411298   3.797   2.797   4.068 -0.3847  0.1525 -0.8208
  109SAPE   H4X11299   3.768   2.694   4.095  0.2518  0.1125 -0.2810
  109SAPE   H4Y11300   3.738   2.834   3.981 -1.0111 -0.2288 -0.5662
  109SAPE   C3511301   3.765   2.885   4.188 -0.4375  0.0544 -0.8604
  109SAPE   H5X11302   3.656   2.879   4.206 -0.7894  2.7838 -1.6791
  109SAPE   H5Y11303   3.791   2.990   4.163 -0.2919  0.3402  0.4001
  109SAPE   C3611304   3.845   2.861   4.319  0.2129  0.2121 -0.7009
  109SAPE   H6X11305   3.952   2.839   4.298 -0.0198 -0.1338 -1.5521
  109SAPE   H6Y11306   3.803   2.773   4.372  0.0317  0.7578  0.0844
  109SAPE   C3711307   3.828   2.981   4.416  0.0568  0.0296  0.0218
  109SAPE   H7X11308   3.723   3.012   4.431  0.4180  0.4360  1.9025
  109SAPE   H7Y11309   3.869   3.078   4.380 -0.9024  0.7384  0.7928
  109SAPE   C3811310   3.890   2.935   4.548  0.4516 -0.1508 -0.4943
  109SAPE   H8X11311   4.001   2.927   4.547  0.5046  0.5875 -0.5486
  109SAPE   H8Y11312   3.857   2.833   4.579 -0.5416  0.8122  1.7844
  109SAPE   C3911313   3.856   3.026   4.669 -0.2259  0.0696 -0.2718
  109SAPE   H9X11314   3.747   3.040   4.661 -0.3581 -0.1059  1.1426
  109SAPE   H9Y11315   3.897   3.128   4.655  0.1333 -0.2526 -1.7873
  109SAPE  C31011316   3.911   2.981   4.799 -0.5270  0.4308  0.3528
  109SAPE  H10X11317   4.011   2.935   4.784 -1.8157 -2.5422  0.0563
  109SAPE  H10Y11318   3.843   2.899   4.831 -1.8650  0.9088 -1.1206
  109SAPE  C31111319   3.924   3.080   4.911 -0.0991 -0.9232  0.3227
  109SAPE  H11X11320   3.824   3.119   4.939  0.9193  1.2697  1.2030
  109SAPE  H11Y11321   3.980   3.173   4.885 -0.6195 -0.4320  0.9137
  109SAPE  C31211322   3.994   3.028   5.036  0.4953  0.1293  0.4568
  109SAPE  H12X11323   4.085   2.969   5.013 -0.6383 -2.2909  1.8143
  109SAPE  H12Y11324   3.927   2.953   5.084 -1.1414  1.3206  0.1441
  109SAPE  C31311325   4.023   3.136   5.136 -0.4676  0.4917  0.6806
  109SAPE  H13X11326   3.932   3.191   5.170 -1.0570 -1.4242  2.4121
  109SAPE  H13Y11327   4.092   3.204   5.083 -0.9020 -0.7575 -1.5837
  109SAPE  C31411328   4.092   3.092   5.261  0.2644 -0.3944 -0.5407
  109SAPE  H14X11329   4.194   3.054   5.236  0.8255  0.9553 -0.4372
  109SAPE  H14Y11330   4.029   3.018   5.314  0.4774 -0.7727 -0.8159
  109SAPE  C31511331   4.120   3.204   5.363  0.2720 -0.2458 -0.0605
  109SAPE  H15X11332   4.031   3.257   5.405 -0.2849  0.0644 -1.5585
  109SAPE  H15Y11333   4.190   3.277   5.317  3.0092 -1.0271  2.5952
  109SAPE  C31611334   4.211   3.152   5.474  0.8486 -0.3335 -0.2587
  109SAPE  H16X11335   4.249   3.248   5.516  0.2297  0.5186 -1.5585
  109SAPE  H16Y11336   4.301   3.091   5.453  1.7209 -0.2556  2.8464
  109SAPE  C31711337   4.126   3.088   5.586 -0.3458 -0.2362 -0.2997
  109SAPE  H17X11338   4.116   2.979   5.564 -1.6806 -0.5254  1.4737
  109SAPE  H17Y11339   4.023   3.130   5.575 -0.4886 -1.1043 -3.4151
  109SAPE  C31811340   4.183   3.113   5.720 -0.2072 -0.4707  0.1002
  109SAPE  H18X11341   4.164   3.222   5.732 -0.9751 -0.6018  0.1488
  109SAPE  H18Y11342   4.288   3.080   5.734 -0.2198 -0.5466  0.0130
  109SAPE  H18Z11343   4.135   3.055   5.802 -1.2647  1.4716  0.9365
  110SAPE     N11344   3.677   0.548   2.698  1.1909  0.1074  0.5064
  110SAPE   HN111345   3.687   0.487   2.615  0.2592 -0.0509  0.4960
  110SAPE   HN211346   3.690   0.481   2.777  1.5474 -1.2528 -0.6552
  110SAPE   HN311347   3.582   0.591   2.695  2.4181  3.1746  1.4143
  110SAPE   C1211348   3.784   0.654   2.690 -0.5629  1.0312  0.6584
  110SAPE  H12A11349   3.748   0.732   2.620  0.2945  1.2886  0.5020
  110SAPE  H12B11350   3.877   0.606   2.652 -0.2006  0.4780  2.1485
  110SAPE   C1111351   3.809   0.714   2.830 -0.1838  0.3251  0.8944
  110SAPE  H11A11352   3.712   0.746   2.874 -0.7626 -1.8433  1.3223
  110SAPE  H11B11353   3.866   0.808   2.817 -0.1210  0.2193  0.4010
  110SAPE     P11354   3.987   0.658   3.022  0.0304  0.0747  0.0951
  110SAPE   O1311355   4.012   0.542   3.106 -0.2941  0.5201 -0.4802
  110SAPE   O1411356   4.100   0.715   2.940 -0.6386  0.4797 -0.3924
  110SAPE   O1211357   3.868   0.621   2.920  0.5947  0.0102 -0.3265
  110SAPE   O1111358   3.933   0.775   3.118  0.4143 -0.2494  0.1755
  110SAPE    C111359   3.826   0.752   3.209 -0.1427 -0.5498 -0.2620
  110SAPE    HA11360   3.732   0.805   3.183  0.0558  1.2429  2.3912
  110SAPE    HB11361   3.814   0.644   3.235  1.8794 -1.0057 -1.0290
  110SAPE    C211362   3.847   0.815   3.348 -0.3150 -0.2348 -0.1274
  110SAPE    HS11363   3.752   0.819   3.406 -0.5166  3.5368 -0.4512
  110SAPE   O2111364   3.901   0.949   3.344  0.7846 -0.2689  0.4123
  110SAPE   C2111365   3.806   1.038   3.313  0.1767 -0.6074  0.3919
  110SAPE   O2211366   3.689   1.013   3.284 -0.2465  0.6902  1.4307
  110SAPE   C2211367   3.861   1.183   3.307 -0.5870 -1.2079 -0.2066
  110SAPE   H2R11368   3.971   1.178   3.295 -0.4873 -2.3956  1.0100
  110SAPE   H2S11369   3.821   1.231   3.215  1.9120 -0.1215 -0.8112
  110SAPE    C311370   3.944   0.744   3.444 -0.1176  0.4133 -0.1894
  110SAPE    HX11371   3.921   0.636   3.447  0.1893  0.3113 -1.1291
  110SAPE    HY11372   4.045   0.748   3.398 -0.6606 -1.4501 -1.6485
  110SAPE   O3111373   3.940   0.801   3.578  0.3297  0.6811 -0.3086
  110SAPE   C3111374   4.040   0.775   3.661 -0.2140 -0.1371  0.8490
  110SAPE   O3211375   4.149   0.731   3.634 -0.1401 -0.0333 -0.3064
  110SAPE   C3211376   4.004   0.826   3.800  0.1160  0.1151 -0.0029
  110SAPE   H2X11377   3.924   0.754   3.828  0.1525  0.7801  1.9813
  110SAPE   H2Y11378   3.973   0.932   3.793 -1.9401 -0.3933  0.6790
  110SAPE   C2311379   3.817   1.257   3.438  0.1557  0.0129 -0.0514
  110SAPE   H3R11380   3.711   1.236   3.463 -0.8897  0.6463 -3.3651
  110SAPE   H3S11381   3.825   1.367   3.424 -0.6284  0.3365  1.8407
  110SAPE   C2411382   3.901   1.213   3.556 -0.4510 -0.5444  0.8051
  110SAPE   H4R11383   3.898   1.104   3.576 -2.4902 -0.2078  2.8132
  110SAPE   H4S11384   3.845   1.253   3.643  0.9822  0.6211  1.2281
  110SAPE   C2511385   4.037   1.264   3.556 -0.5262 -0.1891  0.3325
  110SAPE   H5R11386   4.080   1.280   3.456 -1.6182 -1.3108 -0.3399
  110SAPE   C2611387   4.123   1.278   3.661 -0.2302  0.1979  0.0209
  110SAPE   H6R11388   4.223   1.320   3.644 -0.0588 -0.2531 -0.1119
  110SAPE   C2711389   4.081   1.259   3.806 -0.4717 -0.1040  0.7356
  110SAPE   H7R11390   4.122   1.163   3.843 -1.7232 -1.0807 -0.3116
  110SAPE   H7S11391   3.971   1.245   3.817 -0.3421 -3.4607 -1.1234
  110SAPE   C2811392   4.131   1.366   3.898 -0.3642 -0.3930 -0.4222
  110SAPE   H8R11393   4.106   1.466   3.861 -2.1882 -0.8293 -0.4786
  110SAPE   C2911394   4.217   1.354   4.002 -0.1608 -0.7150 -0.1145
  110SAPE   H9R11395   4.235   1.433   4.076 -1.5607 -2.1115  1.8337
  110SAPE  C21011396   4.279   1.229   4.056 -0.5352 -0.2703  1.0014
  110SAPE  H10R11397   4.387   1.236   4.081 -0.0196 -0.0067 -1.0979
  110SAPE  H10S11398   4.280   1.155   3.973  1.4740  2.3780 -1.5911
  110SAPE  C21111399   4.205   1.172   4.173 -0.2321  0.1899 -0.4222
  110SAPE  H11R11400   4.134   1.091   4.152 -0.2912 -0.1253  0.8962
  110SAPE  C21211401   4.215   1.213   4.305  0.7694  0.6924 -0.8296
  110SAPE  H12R11402   4.167   1.155   4.385  2.5044  1.4718  0.8836
  110SAPE  C21311403   4.295   1.324   4.366 -0.2754  0.0107 -0.4525
  110SAPE  H13R11404   4.357   1.378   4.291  0.1313 -0.7142 -0.6419
  110SAPE  H13S11405   4.380   1.277   4.420  2.0150  3.1412 -1.0457
  110SAPE  C21411406   4.215   1.409   4.459 -0.1233 -0.2772 -0.4386
  110SAPE  H14R11407   4.186   1.505   4.412 -0.8509 -0.3390 -0.1356
  110SAPE  C21511408   4.189   1.391   4.590 -0.3557  0.0175  0.2121
  110SAPE  H15R11409   4.137   1.473   4.642  1.5362 -0.0226  2.3404
  110SAPE  C21611410   4.238   1.281   4.681 -0.6155 -0.1338  0.5937
  110SAPE  H16R11411   4.347   1.294   4.697 -0.7797  3.1345 -0.2762
  110SAPE  H16S11412   4.228   1.186   4.625 -3.5020  0.3184  0.1820
  110SAPE  C21711413   4.173   1.274   4.817 -0.1339  0.7161 -0.1461
  110SAPE  H17R11414   4.188   1.170   4.853 -2.2275  0.7792  1.0454
  110SAPE  H17S11415   4.063   1.281   4.804 -0.0863 -0.8366 -1.5308
  110SAPE  C21811416   4.219   1.373   4.926 -0.8364 -0.0208 -0.4284
  110SAPE  H18R11417   4.196   1.475   4.888 -3.1625  0.1022  1.0638
  110SAPE  H18S11418   4.329   1.362   4.928 -0.5572  1.5855 -2.8976
  110SAPE  C21911419   4.139   1.356   5.058 -0.0571  0.0316  0.3415
  110SAPE  H19R11420   4.152   1.251   5.091  0.6834 -0.1428 -0.4757
  110SAPE  H19S11421   4.029   1.371   5.056  0.0492  1.2810  2.1458
  110SAPE  C22011422   4.191   1.445   5.171 -0.0136 -1.0897  0.0440
  110SAPE  H20R11423   4.191   1.552   5.140  1.1455 -0.8669  0.7439
  110SAPE  H20S11424   4.297   1.424   5.199 -0.5397  0.0769  3.2980
  110SAPE  H20T11425   4.128   1.448   5.262  1.3802  0.8921  1.0131
  110SAPE   C3311426   4.121   0.799   3.900  0.0447 -0.4742 -0.1134
  110SAPE   H3X11427   4.197   0.877   3.876  0.4836 -0.9627 -0.3314
  110SAPE   H3Y11428   4.166   0.698   3.888  3.4207  1.1257 -2.9660
  110SAPE   C3411429   4.088   0.824   4.048 -0.4877 -0.0661 -0.2563
  110SAPE   H4X11430   4.043   0.925   4.058  2.0022  0.9749  1.4670
  110SAPE   H4Y11431   4.177   0.813   4.114 -1.2532 -1.9884  0.5352
  110SAPE   C3511432   4.002   0.725   4.117 -0.0118  0.1204  1.0100
  110SAPE   H5X11433   4.001   0.627   4.065 -0.9892  0.6679 -0.0374
  110SAPE   H5Y11434   3.904   0.773   4.098 -0.5376 -1.6302 -1.1102
  110SAPE   C3611435   4.025   0.706   4.266 -1.0567 -0.0890 -0.0071
  110SAPE   H6X11436   4.130   0.685   4.296 -0.9885  1.2994  0.7950
  110SAPE   H6Y11437   3.964   0.618   4.299 -2.0048 -0.0035 -1.4653
  110SAPE   C3711438   3.976   0.835   4.338 -0.3849  0.7154 -0.5900
  110SAPE   H7X11439   3.879   0.861   4.291 -0.6054  1.4063  0.2260
  110SAPE   H7Y11440   4.045   0.919   4.314 -0.3343  1.2815  1.4101
  110SAPE   C3811441   3.960   0.840   4.487 -0.1426 -0.6612 -0.9510
  110SAPE   H8X11442   3.872   0.778   4.513  0.2001  0.4339  3.8290
  110SAPE   H8Y11443   3.940   0.942   4.525  1.4290 -1.2888  1.8224
  110SAPE   C3911444   4.093   0.799   4.555  0.2354 -0.2819 -0.1536
  110SAPE   H9X11445   4.177   0.824   4.487 -1.4523  1.9701 -1.5870
  110SAPE   H9Y11446   4.092   0.688   4.558  1.1279 -0.4124 -2.4038
  110SAPE  C31011447   4.113   0.852   4.698  0.0645 -0.1719 -0.0203
  110SAPE  H10X11448   4.124   0.961   4.683  0.6129 -0.1131  0.7681
  110SAPE  H10Y11449   4.204   0.808   4.744 -0.4590  0.2628  1.4848
  110SAPE  C31111450   4.012   0.800   4.807 -0.2017  0.0755  0.5711
  110SAPE  H11X11451   4.005   0.689   4.799  0.2514  0.1334 -0.9553
  110SAPE  H11Y11452   3.908   0.826   4.779 -0.2040  1.2785  1.6053
  110SAPE  C31211453   4.046   0.857   4.947  0.3373  0.5310  0.1488
  110SAPE  H12X11454   4.083   0.961   4.936  0.5487  0.2202 -2.8168
  110SAPE  H12Y11455   4.136   0.809   4.991 -1.8689 -2.3874  1.8480
  110SAPE  C31311456   3.932   0.828   5.051 -0.4270  0.3932  0.6544
  110SAPE  H13X11457   3.933   0.718   5.067  1.9250  0.3572  0.5679
  110SAPE  H13Y11458   3.833   0.867   5.018  0.6837  1.9171 -1.0745
  110SAPE  C31411459   3.964   0.888   5.184  0.5211 -0.1170  0.0412
  110SAPE  H14X11460   3.978   0.997   5.169 -0.8158  0.1120  0.3391
  110SAPE  H14Y11461   4.066   0.858   5.217  1.1909  0.3726 -1.4613
  110SAPE  C31511462   3.855   0.844   5.287 -0.3445  0.0195  0.0965
  110SAPE  H15X11463   3.838   0.736   5.268 -0.1555  0.2694 -1.6735
  110SAPE  H15Y11464   3.765   0.904   5.262  0.7487  1.8411  0.2905
  110SAPE  C31611465   3.894   0.887   5.427 -0.7455  0.0066  0.6108
  110SAPE  H16X11466   4.001   0.917   5.420 -0.1724 -2.2016 -1.9987
  110SAPE  H16Y11467   3.896   0.796   5.492  0.1370 -0.5196 -0.1299
  110SAPE  C31711468   3.819   1.007   5.481 -0.6567 -0.5878 -0.7712
  110SAPE  H17X11469   3.832   1.007   5.591 -0.1111 -0.7344 -0.8308
  110SAPE  H17Y11470   3.712   0.988   5.458 -0.8223  1.2976 -1.8241
  110SAPE  C31811471   3.865   1.150   5.424  0.0550  0.0210  0.9940
  110SAPE  H18X11472   3.975   1.163   5.432  0.2283  0.6376 -1.4853
  110SAPE  H18Y11473   3.814   1.230   5.481 -0.9994  0.2281 -0.2087
  110SAPE  H18Z11474   3.842   1.171   5.318  1.5220 -1.4526  0.3419
  111SAPE     N11475   3.796   3.666   3.238 -0.3678 -0.2675 -0.1276
  111SAPE   HN111476   3.840   3.730   3.307  0.2713 -0.7439 -0.0793
  111SAPE   HN211477   3.793   3.572   3.284 -0.9142  0.1651  0.7449
  111SAPE   HN311478   3.855   3.664   3.153  1.9010 -1.1283  1.3796
  111SAPE   C1211479   3.663   3.731   3.217  0.0884  0.0263  0.3743
  111SAPE  H12A11480   3.688   3.823   3.160 -0.4584 -0.1970 -0.2310
  111SAPE  H12B11481   3.627   3.754   3.319  0.7132 -1.4987  0.9662
  111SAPE   C1111482   3.572   3.649   3.137  0.2792 -0.1148 -0.7947
  111SAPE  H11A11483   3.620   3.603   3.048 -2.0155  0.9888 -2.6835
  111SAPE  H11B11484   3.493   3.723   3.112  2.7024  2.8657 -0.3944
  111SAPE     P11485   3.426   3.452   3.183 -0.0780  0.1756 -0.1693
  111SAPE   O1311486   3.323   3.530   3.113 -0.3711 -0.4679  0.0048
  111SAPE   O1411487   3.481   3.334   3.115  0.1298  0.6366 -0.2312
  111SAPE   O1211488   3.533   3.547   3.234 -0.2125  0.9267  0.9737
  111SAPE   O1111489   3.365   3.402   3.313  0.4794 -0.0293 -0.0511
  111SAPE    C111490   3.432   3.374   3.429  0.4015  0.2311  0.3301
  111SAPE    HA11491   3.395   3.277   3.470 -2.9557  1.6036  0.8256
  111SAPE    HB11492   3.542   3.368   3.415  0.4685 -0.7622  1.1111
  111SAPE    C211493   3.402   3.469   3.549 -0.2042 -0.3936  0.5410
  111SAPE    HS11494   3.455   3.423   3.635  0.0390 -1.5578 -0.2004
  111SAPE   O2111495   3.264   3.482   3.565  0.7013  0.2155  0.0163
  111SAPE   C2111496   3.206   3.379   3.635 -0.1281  0.1199 -0.1050
  111SAPE   O2211497   3.269   3.289   3.686  0.1362  0.0933  0.0186
  111SAPE   C2211498   3.046   3.377   3.635 -0.3144  0.0668 -0.8950
  111SAPE   H2R11499   3.014   3.425   3.540 -0.8676  0.9621 -0.2694
  111SAPE   H2S11500   3.007   3.274   3.627 -0.7455  0.3358 -2.7008
  111SAPE    C311501   3.471   3.609   3.526 -0.0690 -0.3759 -0.1947
  111SAPE    HX11502   3.409   3.676   3.462  0.4672  2.8560  2.4180
  111SAPE    HY11503   3.568   3.589   3.476 -0.1597 -1.6780  0.1211
  111SAPE   O3111504   3.499   3.674   3.652 -0.2415  0.1856 -0.1159
  111SAPE   C3111505   3.527   3.799   3.648  0.2847  0.4681  0.7348
  111SAPE   O3211506   3.535   3.853   3.537 -0.3500  0.0729 -0.1400
  111SAPE   C3211507   3.558   3.851   3.783 -0.3061 -0.2957 -0.4808
  111SAPE   H2X11508   3.619   3.944   3.776  0.3385 -0.7138 -0.5427
  111SAPE   H2Y11509   3.616   3.772   3.836  0.5396 -0.9222 -2.2396
  111SAPE   C2311510   2.965   3.453   3.743  0.7760  0.1813  0.0046
  111SAPE   H3R11511   2.859   3.426   3.723  1.0562 -1.2828  0.3273
  111SAPE   H3S11512   2.959   3.563   3.732 -1.2780 -0.0873 -2.4530
  111SAPE   C2411513   2.986   3.412   3.891  0.5598 -0.0699 -0.4866
  111SAPE   H4R11514   2.961   3.304   3.896 -0.0253  0.0725 -0.1595
  111SAPE   H4S11515   2.905   3.461   3.950  0.7632 -0.0709 -0.2017
  111SAPE   C2511516   3.128   3.437   3.930 -0.4381 -0.3168 -0.3014
  111SAPE   H5R11517   3.201   3.364   3.892  3.0654  3.1610 -0.9078
  111SAPE   C2611518   3.166   3.531   4.022 -0.1896  0.2022  0.0887
  111SAPE   H6R11519   3.273   3.548   4.039  0.1179  0.3877 -1.8753
  111SAPE   C2711520   3.071   3.618   4.103 -0.4309  0.3385 -0.2606
  111SAPE   H7R11521   2.996   3.678   4.048 -0.6133 -0.1668 -0.5706
  111SAPE   H7S11522   3.132   3.698   4.151 -2.8128  2.4113 -0.5410
  111SAPE   C2811523   3.007   3.543   4.218 -0.3477 -0.2752  0.1342
  111SAPE   H8R11524   2.912   3.490   4.202 -0.2803 -0.4781  0.3996
  111SAPE   C2911525   3.063   3.544   4.345  0.7031 -0.5160  0.9537
  111SAPE   H9R11526   3.013   3.482   4.421  3.4929 -2.6698  1.1776
  111SAPE  C21011527   3.196   3.601   4.393 -0.0201 -0.3803  0.2458
  111SAPE  H10R11528   3.163   3.691   4.450  1.6371 -0.3760  1.2738
  111SAPE  H10S11529   3.254   3.646   4.309  0.1090  0.1402  0.6068
  111SAPE  C21111530   3.283   3.509   4.469 -0.8943 -0.6169  0.1202
  111SAPE  H11R11531   3.352   3.448   4.408  0.2036  0.4039  0.2964
  111SAPE  C21211532   3.280   3.489   4.599 -0.2115  0.0552 -0.1820
  111SAPE  H12R11533   3.363   3.427   4.636  0.1716  0.4920 -0.2893
  111SAPE  C21311534   3.194   3.553   4.697 -0.0152 -0.3257 -0.5379
  111SAPE  H13R11535   3.115   3.615   4.650 -0.6381  0.3833  1.3338
  111SAPE  H13S11536   3.257   3.617   4.762  0.8213 -0.3205 -1.3354
  111SAPE  C21411537   3.137   3.451   4.795  0.6386  0.5873  0.0989
  111SAPE  H14R11538   3.133   3.348   4.755  0.1670 -0.1218  1.9019
  111SAPE  C21511539   3.084   3.484   4.912 -0.2729 -0.3228 -0.3155
  111SAPE  H15R11540   3.047   3.403   4.976 -0.2611  1.9079  2.7871
  111SAPE  C21611541   3.075   3.617   4.982 -0.3585  1.0722 -0.3273
  111SAPE  H16R11542   2.966   3.637   4.988 -0.7477 -0.2309 -2.2427
  111SAPE  H16S11543   3.114   3.699   4.917 -1.2958 -0.2670 -2.7018
  111SAPE  C21711544   3.122   3.590   5.124 -0.8516 -0.4462 -0.6679
  111SAPE  H17R11545   3.230   3.565   5.124 -0.7213 -0.0926  1.7968
  111SAPE  H17S11546   3.062   3.510   5.173  1.1341 -1.3318  0.4195
  111SAPE  C21811547   3.105   3.714   5.211 -0.3394  0.2786 -0.5844
  111SAPE  H18R11548   2.998   3.744   5.210 -0.3614  0.2203 -1.9277
  111SAPE  H18S11549   3.158   3.800   5.165  2.1558  0.2117  1.8751
  111SAPE  C21911550   3.155   3.702   5.362 -0.5230  0.1457 -0.0261
  111SAPE  H19R11551   3.265   3.692   5.367 -0.3488  1.6572 -0.1968
  111SAPE  H19S11552   3.103   3.619   5.415 -0.2926 -0.2078 -0.3523
  111SAPE  C22011553   3.120   3.830   5.435  0.1201  0.2460  0.2925
  111SAPE  H20R11554   3.163   3.808   5.536 -0.9264 -1.5798  0.3845
  111SAPE  H20S11555   3.009   3.830   5.432  0.1298  0.6334 -3.0596
  111SAPE  H20T11556   3.154   3.925   5.389 -1.8049  1.1962  0.7359
  111SAPE   C3311557   3.424   3.867   3.860  0.5908 -0.1671 -0.4655
  111SAPE   H3X11558   3.382   3.766   3.879 -1.4754  1.2491  4.2983
  111SAPE   H3Y11559   3.353   3.929   3.802 -1.5612 -0.4838  1.6680
  111SAPE   C3411560   3.443   3.931   3.999  0.4417  0.1614  0.6509
  111SAPE   H4X11561   3.491   4.030   3.988  2.7630 -1.0340 -0.8196
  111SAPE   H4Y11562   3.508   3.861   4.056 -0.5769  0.5927  2.4029
  111SAPE   C3511563   3.308   3.949   4.079  0.3416  0.1710 -0.2929
  111SAPE   H5X11564   3.279   3.849   4.120 -2.2957 -0.2442 -2.8201
  111SAPE   H5Y11565   3.232   3.984   4.006  1.2039 -0.4735 -1.5380
  111SAPE   C3611566   3.331   4.050   4.197  0.3150 -0.3071 -0.8061
  111SAPE   H6X11567   3.293   4.153   4.179  1.0479  0.0358 -0.4276
  111SAPE   H6Y11568   3.439   4.055   4.223  0.1699 -0.4478 -0.1441
  111SAPE   C3711569   3.238   4.014   4.321 -1.1837  0.3313  0.5621
  111SAPE   H7X11570   3.266   3.907   4.328  1.5023  0.9896  1.0007
  111SAPE   H7Y11571   3.135   4.017   4.280 -0.7271  0.2439 -0.6337
  111SAPE   C3811572   3.260   4.100   4.439 -0.8368  0.1385  0.2154
  111SAPE   H8X11573   3.263   4.208   4.414  1.8234 -0.4278 -2.4979
  111SAPE   H8Y11574   3.365   4.089   4.474 -0.1946  1.2285 -1.2720
  111SAPE   C3911575   3.161   4.083   4.552 -0.2316 -0.0172 -0.5003
  111SAPE   H9X11576   3.154   3.975   4.577  1.7557 -0.5607 -2.0571
  111SAPE   H9Y11577   3.061   4.113   4.515 -0.2521  0.5580  0.0059
  111SAPE  C31011578   3.201   4.153   4.688 -0.2296 -0.4718  0.1366
  111SAPE  H10X11579   3.214   4.263   4.678  2.5775 -0.5363  2.0095
  111SAPE  H10Y11580   3.301   4.115   4.717 -0.1075 -0.3637 -0.1476
  111SAPE  C31111581   3.097   4.120   4.789  0.9446  0.6086 -0.0011
  111SAPE  H11X11582   3.101   4.010   4.804 -0.9302  0.3050 -1.4859
  111SAPE  H11Y11583   2.999   4.158   4.756  0.7501  3.2190  3.0973
  111SAPE  C31211584   3.120   4.189   4.921  0.1810 -0.6181  0.3121
  111SAPE  H12X11585   3.096   4.296   4.907  0.9854 -0.3388  0.9670
  111SAPE  H12Y11586   3.223   4.183   4.962 -0.3827  1.6988  2.2829
  111SAPE  C31311587   3.032   4.154   5.045  0.4348  0.1493  0.3922
  111SAPE  H13X11588   3.059   4.222   5.128  1.2358  0.0872  0.1965
  111SAPE  H13Y11589   3.067   4.054   5.076  1.1348  0.0848 -0.5384
  111SAPE  C31411590   2.879   4.148   5.016 -0.0524 -0.4978  0.5001
  111SAPE  H14X11591   2.862   4.099   4.918 -0.2893 -1.2085  0.8830
  111SAPE  H14Y11592   2.848   4.253   4.998 -0.2891 -0.5188  0.7761
  111SAPE  C31511593   2.789   4.083   5.127 -0.8645 -0.1721  0.9089
  111SAPE  H15X11594   2.815   4.131   5.223  1.3654  0.3787  0.0865
  111SAPE  H15Y11595   2.800   3.974   5.144  1.3343 -0.1066  0.1404
  111SAPE  C31611596   2.634   4.111   5.096 -0.8383 -0.5049 -0.0595
  111SAPE  H16X11597   2.606   4.218   5.102 -2.5567 -0.9716  0.8388
  111SAPE  H16Y11598   2.577   4.056   5.174 -1.0453 -0.5399 -0.2361
  111SAPE  C31711599   2.584   4.059   4.963  0.1686  0.6397  0.6237
  111SAPE  H17X11600   2.623   3.955   4.966 -3.6225 -0.9595  0.1141
  111SAPE  H17Y11601   2.635   4.120   4.884  0.1631  0.1218  0.2174
  111SAPE  C31811602   2.429   4.055   4.941 -0.2644 -1.2682 -0.4305
  111SAPE  H18X11603   2.405   4.162   4.925 -1.3202 -1.3093  0.8192
  111SAPE  H18Y11604   2.383   4.003   5.027  1.7407  0.8102  2.0580
  111SAPE  H18Z11605   2.400   3.999   4.850 -1.7753 -0.2531 -0.6024
  112SAPE     N11606   1.283   0.315   3.685  0.0557 -0.1622  0.7907
  112SAPE   HN111607   1.219   0.353   3.613 -0.5642  1.1769  1.9939
  112SAPE   HN211608   1.369   0.373   3.675 -1.8086  2.6409 -0.0083
  112SAPE   HN311609   1.317   0.218   3.664  0.1256  0.3130 -1.6150
  112SAPE   C1211610   1.204   0.322   3.805 -0.9022  0.9221  0.2405
  112SAPE  H12A11611   1.268   0.277   3.884  1.3113 -3.3560 -3.5515
  112SAPE  H12B11612   1.121   0.252   3.784  0.8700 -1.1928 -0.0422
  112SAPE   C1111613   1.160   0.461   3.824 -0.6067 -0.6658 -0.3132
  112SAPE  H11A11614   1.245   0.531   3.841 -0.3613 -0.4433 -2.2337
  112SAPE  H11B11615   1.105   0.468   3.921 -1.3580  0.8352 -0.8173
  112SAPE     P11616   0.923   0.498   3.689  0.1814  0.0558  0.5097
  112SAPE   O1311617   0.883   0.605   3.600 -0.0645 -0.1760 -1.0453
  112SAPE   O1411618   0.879   0.361   3.652  0.4291 -0.3933  0.3772
  112SAPE   O1211619   1.082   0.514   3.713 -0.5244 -0.8228 -0.3526
  112SAPE   O1111620   0.869   0.520   3.838 -0.3888 -0.3682 -0.5358
  112SAPE    C111621   0.849   0.647   3.894  0.7227 -0.1854  0.2975
  112SAPE    HA11622   0.785   0.701   3.820 -0.4931 -3.7355 -1.5052
  112SAPE    HB11623   0.779   0.642   3.980 -0.5330  0.8173 -0.6106
  112SAPE    C211624   0.979   0.722   3.925  0.4229  0.8632  0.1436
  112SAPE    HS11625   1.048   0.717   3.838  0.6011  2.8013  0.1244
  112SAPE   O2111626   1.033   0.659   4.036 -0.1718 -0.5346  1.2948
  112SAPE   C2111627   1.147   0.688   4.079  0.1602 -0.0019 -0.1336
  112SAPE   O2211628   1.230   0.756   4.016 -0.2955  0.1942  0.1488
  112SAPE   C2211629   1.177   0.632   4.222  0.1650 -0.7199  1.4093
  112SAPE   H2R11630   1.198   0.725   4.280 -1.1821 -0.3941  1.4166
  112SAPE   H2S11631   1.082   0.596   4.267 -0.8430 -1.4072 -1.0722
  112SAPE    C311632   0.947   0.868   3.948 -0.9371  0.2862  0.7095
  112SAPE    HX11633   0.912   0.908   3.850  1.0649 -0.5043 -0.4007
  112SAPE    HY11634   1.040   0.925   3.968 -0.4058  0.0840 -1.0373
  112SAPE   O3111635   0.845   0.886   4.052  0.0593  0.6185 -0.2916
  112SAPE   C3111636   0.894   0.901   4.178  0.9853 -0.5295 -0.0746
  112SAPE   O3211637   1.010   0.926   4.206  0.2320 -0.1128  0.4096
  112SAPE   C3211638   0.776   0.890   4.272 -0.3515 -0.2745 -0.5559
  112SAPE   H2X11639   0.728   0.792   4.251 -0.1549 -0.4088 -0.3756
  112SAPE   H2Y11640   0.694   0.959   4.241  1.0899  0.8168 -2.0775
  112SAPE   C2311641   1.284   0.520   4.232 -0.2959 -0.0685 -0.2820
  112SAPE   H3R11642   1.380   0.574   4.219 -1.1831  1.1494 -2.2519
  112SAPE   H3S11643   1.269   0.453   4.145  1.4919 -0.0641 -0.6423
  112SAPE   C2411644   1.272   0.450   4.370  0.0181 -0.5186 -0.0894
  112SAPE   H4R11645   1.316   0.348   4.363  1.5652 -0.0072  1.3916
  112SAPE   H4S11646   1.163   0.443   4.388  0.4933 -0.5540  3.3678
  112SAPE   C2511647   1.334   0.522   4.485 -1.2216  0.4008  0.3808
  112SAPE   H5R11648   1.403   0.603   4.458 -1.6369  0.0677 -1.9615
  112SAPE   C2611649   1.317   0.492   4.615 -0.4474  0.1163  0.7273
  112SAPE   H6R11650   1.372   0.548   4.692 -1.1117  0.3767  1.0131
  112SAPE   C2711651   1.230   0.388   4.673 -0.0780  0.7746 -0.4759
  112SAPE   H7R11652   1.287   0.294   4.689  0.8455  1.5054  0.6536
  112SAPE   H7S11653   1.145   0.359   4.607 -1.8799  0.8763  1.6572
  112SAPE   C2811654   1.169   0.438   4.801 -0.0400 -0.2500 -0.4272
  112SAPE   H8R11655   1.064   0.470   4.797  0.1090  0.5835  1.5355
  112SAPE   C2911656   1.226   0.435   4.914 -0.1471  0.0034 -0.6633
  112SAPE   H9R11657   1.176   0.486   4.998 -1.5171 -0.5028 -1.1577
  112SAPE  C21011658   1.368   0.398   4.950 -0.4559  0.7619  0.4539
  112SAPE  H10R11659   1.404   0.451   5.041  2.5794 -2.1529  1.1706
  112SAPE  H10S11660   1.439   0.427   4.869  2.9196 -1.8270  2.2190
  112SAPE  C21111661   1.375   0.248   4.966 -0.4261 -0.5744  0.0621
  112SAPE  H11R11662   1.368   0.189   4.874  1.3860 -0.8266  0.0520
  112SAPE  C21211663   1.371   0.184   5.089 -0.6426 -0.1693  0.5273
  112SAPE  H12R11664   1.381   0.075   5.098  0.8450  0.0499  2.0065
  112SAPE  C21311665   1.364   0.257   5.220  0.1588 -0.2717 -0.1724
  112SAPE  H13R11666   1.313   0.355   5.216  0.7803  0.1193  0.9831
  112SAPE  H13S11667   1.466   0.283   5.255 -0.1356  1.3881 -0.4525
  112SAPE  C21411668   1.291   0.172   5.322 -0.0045 -0.5156 -0.0513
  112SAPE  H14R11669   1.236   0.086   5.281 -1.5053  0.1190  0.5796
  112SAPE  C21511670   1.300   0.195   5.447 -0.1995 -0.0046 -0.2524
  112SAPE  H15R11671   1.259   0.121   5.518 -1.4977 -1.4213 -2.3802
  112SAPE  C21611672   1.381   0.300   5.519 -0.0707 -0.2588 -0.1658
  112SAPE  H16R11673   1.313   0.368   5.574 -0.5751 -1.5940  0.9391
  112SAPE  H16S11674   1.455   0.351   5.454  2.1107 -1.1137  1.4976
  112SAPE  C21711675   1.468   0.238   5.636  0.4360 -0.8343 -0.2744
  112SAPE  H17R11676   1.545   0.186   5.576  1.5349 -0.3955  0.7163
  112SAPE  H17S11677   1.417   0.158   5.693 -1.8849  0.4097 -0.4676
  112SAPE  C21811678   1.530   0.346   5.729  0.7270  0.2748  0.2416
  112SAPE  H18R11679   1.572   0.434   5.675  0.3842 -1.0202 -2.3152
  112SAPE  H18S11680   1.611   0.294   5.784 -1.1272  1.6815  4.7027
  112SAPE  C21911681   1.435   0.403   5.838 -0.6586 -0.0729  0.2360
  112SAPE  H19R11682   1.379   0.324   5.893 -0.5564 -0.9901 -0.9394
  112SAPE  H19S11683   1.359   0.450   5.771 -2.2656 -2.8562 -0.0619
  112SAPE  C22011684   1.497   0.499   5.940 -0.1764 -0.0425  0.3272
  112SAPE  H20R11685   1.591   0.459   5.982  0.2486  0.9950  0.3607
  112SAPE  H20S11686   1.418   0.516   6.016 -1.8358 -0.5089 -1.2022
  112SAPE  H20T11687   1.524   0.595   5.892  4.1281 -1.3500 -0.2913
  112SAPE   C3311688   0.805   0.894   4.425  0.6393  0.2132  0.6493
  112SAPE   H3X11689   0.910   0.868   4.452  0.0896  0.3412  3.2025
  112SAPE   H3Y11690   0.743   0.813   4.469 -1.5786  0.9938 -0.8753
  112SAPE   C3411691   0.771   1.025   4.490  0.4828  0.4556 -0.3140
  112SAPE   H4X11692   0.666   1.055   4.469  0.7042  0.3585 -1.6005
  112SAPE   H4Y11693   0.832   1.111   4.454 -0.3956  0.9542 -0.6446
  112SAPE   C3511694   0.788   1.020   4.645 -0.3586  1.0283 -0.6956
  112SAPE   H5X11695   0.784   1.121   4.692 -1.5166  0.6173  0.1358
  112SAPE   H5Y11696   0.885   0.973   4.670 -1.5385 -0.7198  0.8600
  112SAPE   C3611697   0.677   0.936   4.708 -0.1030 -0.0918  0.7297
  112SAPE   H6X11698   0.676   0.834   4.664  0.8344 -0.1845  0.8995
  112SAPE   H6Y11699   0.579   0.988   4.696  0.4664  0.8417  0.0599
  112SAPE   C3711700   0.693   0.916   4.855  0.0588 -0.7056 -0.2037
  112SAPE   H7X11701   0.701   1.019   4.895 -0.1505 -1.3845  1.7207
  112SAPE   H7Y11702   0.788   0.865   4.882  0.0096 -0.8481 -0.2988
  112SAPE   C3811703   0.578   0.847   4.916  0.1231 -0.2833  0.0778
  112SAPE   H8X11704   0.572   0.743   4.876 -2.8335 -0.2941  0.3449
  112SAPE   H8Y11705   0.481   0.898   4.900  1.1936  2.0973  0.8061
  112SAPE   C3911706   0.591   0.825   5.070 -0.6532  0.2562  0.1479
  112SAPE   H9X11707   0.662   0.907   5.094  2.5198 -2.5898  1.2547
  112SAPE   H9Y11708   0.624   0.723   5.098 -0.8112  0.1306 -0.1179
  112SAPE  C31011709   0.472   0.854   5.159  0.1431 -0.1208 -0.2226
  112SAPE  H10X11710   0.390   0.780   5.160 -1.7665  1.7675 -3.4295
  112SAPE  H10Y11711   0.422   0.938   5.108  1.1435  0.4422 -0.3128
  112SAPE  C31111712   0.519   0.901   5.296 -0.0097  0.3823 -0.8560
  112SAPE  H11X11713   0.426   0.933   5.347 -0.0496  1.2063 -1.4308
  112SAPE  H11Y11714   0.590   0.986   5.291  0.7685 -0.2256 -0.3896
  112SAPE  C31211715   0.590   0.789   5.385 -0.2378 -0.1984  0.5586
  112SAPE  H12X11716   0.689   0.764   5.342 -1.3741 -0.7972 -1.8740
  112SAPE  H12Y11717   0.544   0.687   5.383  1.4981 -1.0013 -0.1051
  112SAPE  C31311718   0.595   0.825   5.536 -0.5660 -0.1332  0.3459
  112SAPE  H13X11719   0.666   0.910   5.537 -0.6097  0.1591 -3.7534
  112SAPE  H13Y11720   0.638   0.734   5.583 -0.7361 -0.1694  0.4337
  112SAPE  C31411721   0.471   0.873   5.614  0.2505 -0.3651  0.4904
  112SAPE  H14X11722   0.418   0.957   5.564  0.0485 -0.2084  0.9724
  112SAPE  H14Y11723   0.503   0.913   5.712 -0.7550 -1.4978  1.3164
  112SAPE  C31511724   0.377   0.754   5.645 -0.1433 -0.0199  0.8752
  112SAPE  H15X11725   0.327   0.720   5.552  0.1107 -1.3355  1.1977
  112SAPE  H15Y11726   0.298   0.796   5.710 -0.8227 -2.2150  1.5807
  112SAPE  C31611727   0.439   0.633   5.715  0.3840  0.7110  0.0651
  112SAPE  H16X11728   0.497   0.677   5.799  1.8636  0.8535 -0.9876
  112SAPE  H16Y11729   0.496   0.567   5.645 -2.2184 -0.8030 -0.7629
  112SAPE  C31711730   0.330   0.550   5.782  0.2502 -0.8414  0.1305
  112SAPE  H17X11731   0.255   0.513   5.710 -0.7738 -1.1757  1.3324
  112SAPE  H17Y11732   0.276   0.614   5.855 -2.4935 -1.8341 -0.9015
  112SAPE  C31811733   0.384   0.429   5.853 -0.1997  0.0943 -0.8625
  112SAPE  H18X11734   0.476   0.456   5.909  1.0183 -1.2101 -2.1358
  112SAPE  H18Y11735   0.408   0.347   5.783  0.3548 -0.1357 -0.4103
  112SAPE  H18Z11736   0.309   0.388   5.925  1.2316  1.0860  1.3145
  113SAPE     N11737   1.301   6.369   3.470 -0.0491  0.2427  0.0568
  113SAPE   HN111738   1.342   6.345   3.562  0.6202 -0.2950 -0.3706
  113SAPE   HN211739   1.200   6.344   3.472  0.0756 -0.5526 -1.5714
  113SAPE   HN311740   1.340   6.316   3.389 -0.2660  2.0303 -1.2892
  113SAPE   C1211741   1.307   6.516   3.452  0.4519  0.0429 -0.0241
  113SAPE  H12A11742   1.269   6.556   3.549  1.2987  3.1841 -0.8677
  113SAPE  H12B11743   1.231   6.545   3.377 -1.1302 -0.0061  1.4879
  113SAPE   C1111744   1.454   6.567   3.428  0.2593  0.2540  0.3202
  113SAPE  H11A11745   1.526   6.532   3.505  0.9016  0.2241 -0.2913
  113SAPE  H11B11746   1.462   6.678   3.433 -0.6611  0.3832 -0.6798
  113SAPE     P11747   1.638   6.510   3.242 -0.3860  0.0985  0.0109
  113SAPE   O1311748   1.632   6.453   3.105 -0.4370 -0.0036 -0.4931
  113SAPE   O1411749   1.728   6.623   3.264  0.5081 -0.0116  0.1297
  113SAPE   O1211750   1.495   6.544   3.290  0.4852 -0.6914 -0.1071
  113SAPE   O1111751   1.676   6.392   3.351 -0.3220  0.1689 -0.4446
  113SAPE    C111752   1.730   6.268   3.316  0.6955 -0.1670 -0.6818
  113SAPE    HA11753   1.709   6.240   3.210  3.7277  0.1663 -1.4404
  113SAPE    HB11754   1.840   6.269   3.327  0.5728 -2.6004  1.9308
  113SAPE    C211755   1.672   6.163   3.410 -0.2623  0.4744 -0.0867
  113SAPE    HS11756   1.562   6.153   3.398 -0.2035 -0.0806 -0.2008
  113SAPE   O2111757   1.707   6.195   3.544  0.3968 -0.2537 -0.1989
  113SAPE   C2111758   1.613   6.203   3.633  0.7197  0.2237  0.2589
  113SAPE   O2211759   1.492   6.185   3.607  0.9939 -0.7948 -0.1011
  113SAPE   C2211760   1.681   6.211   3.772  0.8045  0.2263  0.3253
  113SAPE   H2R11761   1.752   6.125   3.770  0.2779 -0.2295  0.8292
  113SAPE   H2S11762   1.740   6.304   3.787 -0.6949  1.5539 -1.5136
  113SAPE    C311763   1.741   6.028   3.366 -0.1001  0.1472 -0.3284
  113SAPE    HX11764   1.850   6.040   3.351  0.8559 -0.9121  4.3105
  113SAPE    HY11765   1.684   5.994   3.276 -1.4080  0.1920  0.4687
  113SAPE   O3111766   1.713   5.924   3.464  0.3113 -0.4368 -0.1033
  113SAPE   C3111767   1.773   5.812   3.446 -0.3650 -0.2057  0.3194
  113SAPE   O3211768   1.855   5.785   3.358 -0.1533 -0.2045 -0.2233
  113SAPE   C3211769   1.724   5.701   3.545 -0.2509  0.7020 -0.5870
  113SAPE   H2X11770   1.656   5.630   3.494  1.0374 -1.6744  0.8226
  113SAPE   H2Y11771   1.678   5.748   3.634 -0.3028 -0.1417 -0.1606
  113SAPE   C2311772   1.584   6.178   3.887 -0.0050 -0.3736  0.0215
  113SAPE   H3R11773   1.535   6.080   3.869 -1.7003  0.7497 -1.9756
  113SAPE   H3S11774   1.502   6.252   3.879 -0.7260 -0.9430  1.6915
  113SAPE   C2411775   1.639   6.202   4.027 -0.0112  1.2678  0.1270
  113SAPE   H4R11776   1.557   6.207   4.102 -2.0039 -0.1156 -1.8332
  113SAPE   H4S11777   1.681   6.305   4.020  1.6572  0.6081 -0.0560
  113SAPE   C2511778   1.741   6.095   4.068 -0.4721 -0.3221 -0.7607
  113SAPE   H5R11779   1.754   6.012   3.997  4.3428  1.2992 -2.1454
  113SAPE   C2611780   1.823   6.103   4.167 -0.0626  0.0538 -1.2902
  113SAPE   H6R11781   1.902   6.031   4.192 -0.4428 -0.2864 -1.0520
  113SAPE   C2711782   1.820   6.209   4.274 -0.4948 -0.0937  0.4708
  113SAPE   H7R11783   1.833   6.304   4.219 -1.7577 -1.8666 -3.2437
  113SAPE   H7S11784   1.916   6.206   4.329 -0.6606  2.0492  0.9289
  113SAPE   C2811785   1.707   6.197   4.379 -0.0258 -0.5116  0.6684
  113SAPE   H8R11786   1.617   6.258   4.363 -1.4962 -2.0726  2.4863
  113SAPE   C2911787   1.697   6.124   4.493 -0.1106 -1.1092  0.3998
  113SAPE   H9R11788   1.602   6.129   4.548 -0.7418  0.4535 -0.7615
  113SAPE  C21011789   1.803   6.038   4.558  0.0281  0.2688 -0.4307
  113SAPE  H10R11790   1.884   5.994   4.496  1.5793 -1.7224  2.7600
  113SAPE  H10S11791   1.753   5.948   4.599 -1.4706  0.1244 -2.3968
  113SAPE  C21111792   1.875   6.124   4.655 -0.1169  0.2280  0.0267
  113SAPE  H11R11793   1.937   6.200   4.605 -0.6698  0.0632 -0.9487
  113SAPE  C21211794   1.877   6.107   4.786 -0.2312  0.0321 -1.2299
  113SAPE  H12R11795   1.934   6.177   4.849 -3.3346  0.5760  1.2090
  113SAPE  C21311796   1.813   6.006   4.881 -0.1604  0.1621  0.5723
  113SAPE  H13R11797   1.748   5.940   4.819  1.5023  1.8842 -3.2864
  113SAPE  H13S11798   1.747   6.050   4.959 -0.4901  0.2904  0.2226
  113SAPE  C21411799   1.915   5.924   4.962  0.5010  0.6585 -0.0046
  113SAPE  H14R11800   1.970   5.849   4.904 -2.7778 -0.9671 -1.1889
  113SAPE  C21511801   1.943   5.937   5.093 -0.1439 -0.4148 -0.2864
  113SAPE  H15R11802   2.001   5.855   5.138 -0.8278  0.4036  2.2632
  113SAPE  C21611803   1.871   6.022   5.195 -0.2758  0.0555 -0.8232
  113SAPE  H16R11804   1.765   5.989   5.205  0.3817 -1.9659  0.1528
  113SAPE  H16S11805   1.858   6.122   5.149 -1.4559  0.6753  0.8021
  113SAPE  C21711806   1.920   6.037   5.338  0.1462  0.3128  0.1657
  113SAPE  H17R11807   1.939   5.934   5.376 -1.1878 -0.0541 -0.1060
  113SAPE  H17S11808   1.846   6.089   5.402 -0.1138  0.8079 -0.5305
  113SAPE  C21811809   2.057   6.108   5.327 -0.2708 -0.2619 -0.2716
  113SAPE  H18R11810   2.055   6.210   5.283  1.0825 -0.7894 -1.6427
  113SAPE  H18S11811   2.127   6.056   5.258  1.8889  0.9883  0.8510
  113SAPE  C21911812   2.123   6.120   5.466 -0.4016  0.2756 -0.6396
  113SAPE  H19R11813   2.055   6.176   5.533 -0.3653 -1.5469  1.0311
  113SAPE  H19S11814   2.214   6.184   5.461 -0.5371  0.3873 -2.1188
  113SAPE  C22011815   2.164   5.989   5.539  0.0728 -0.0826  0.1510
  113SAPE  H20R11816   2.238   5.929   5.481 -1.8723 -2.4221 -0.0811
  113SAPE  H20S11817   2.074   5.925   5.550  0.1786 -0.1395  0.7030
  113SAPE  H20T11818   2.179   6.016   5.645 -2.5279  0.0657  0.5449
  113SAPE   C3311819   1.847   5.609   3.586  0.6064 -0.0991 -0.1649
  113SAPE   H3X11820   1.912   5.589   3.498 -2.1848  1.7514 -2.8666
  113SAPE   H3Y11821   1.815   5.512   3.629  0.5125  1.0441  2.5272
  113SAPE   C3411822   1.926   5.666   3.710  0.2372 -0.0966 -0.2005
  113SAPE   H4X11823   1.941   5.775   3.696 -0.4145  0.0042 -0.1350
  113SAPE   H4Y11824   2.028   5.622   3.700  1.2971  2.2199 -0.3417
  113SAPE   C3511825   1.856   5.631   3.839  0.0344 -0.6834 -1.0934
  113SAPE   H5X11826   1.835   5.522   3.849 -1.2093 -0.2373  2.3226
  113SAPE   H5Y11827   1.763   5.691   3.836  1.2278  1.3348  0.1630
  113SAPE   C3611828   1.922   5.688   3.972 -0.2990  0.7937  0.1200
  113SAPE   H6X11829   1.952   5.795   3.977  0.8520  0.4039  3.4716
  113SAPE   H6Y11830   2.013   5.625   3.980 -1.3375 -0.4739  2.8551
  113SAPE   C3711831   1.832   5.670   4.088  0.6078 -0.1111  0.4682
  113SAPE   H7X11832   1.777   5.574   4.078 -2.0881  1.5114 -1.7179
  113SAPE   H7Y11833   1.749   5.742   4.076  0.4727 -0.1997  0.8649
  113SAPE   C3811834   1.903   5.664   4.230 -0.1593 -0.2210  0.1975
  113SAPE   H8X11835   1.971   5.577   4.229 -2.1590 -1.8608  0.4435
  113SAPE   H8Y11836   1.974   5.749   4.233 -0.4284  0.0250 -0.2582
  113SAPE   C3911837   1.808   5.652   4.346  0.0242 -0.5163  1.0676
  113SAPE   H9X11838   1.739   5.568   4.322  0.4865 -0.6549  0.1982
  113SAPE   H9Y11839   1.737   5.737   4.349  0.5477  0.1400 -2.0641
  113SAPE  C31011840   1.875   5.638   4.482  0.3445 -0.3811  0.4431
  113SAPE  H10X11841   1.917   5.737   4.511  1.0569 -1.2803  2.6822
  113SAPE  H10Y11842   1.963   5.570   4.483  0.1340 -0.6525  0.9467
  113SAPE  C31111843   1.784   5.587   4.593 -0.0582 -0.4998  0.5726
  113SAPE  H11X11844   1.752   5.483   4.572  0.0179 -1.2171  3.6549
  113SAPE  H11Y11845   1.693   5.649   4.606 -1.2633 -1.5623 -2.1070
  113SAPE  C31211846   1.869   5.590   4.722  0.7616 -0.2239  0.0179
  113SAPE  H12X11847   1.921   5.689   4.725 -0.9117  0.6861 -0.0561
  113SAPE  H12Y11848   1.948   5.514   4.703  1.3044  0.7425 -1.8800
  113SAPE  C31311849   1.784   5.565   4.840 -0.1276  0.0765 -0.2477
  113SAPE  H13X11850   1.727   5.470   4.832  0.0132 -0.0136 -0.2011
  113SAPE  H13Y11851   1.715   5.651   4.848 -0.3153 -0.0276 -0.7646
  113SAPE  C31411852   1.874   5.554   4.967  0.0099 -0.3159  0.4647
  113SAPE  H14X11853   1.938   5.644   4.968  0.5570 -0.6953  0.3839
  113SAPE  H14Y11854   1.931   5.459   4.956 -1.0444 -0.9791  0.5236
  113SAPE  C31511855   1.790   5.534   5.096 -0.9659 -0.3569  0.0431
  113SAPE  H15X11856   1.852   5.536   5.188 -1.7769  2.5617  0.6255
  113SAPE  H15Y11857   1.744   5.433   5.089 -0.6412 -0.4049 -2.1498
  113SAPE  C31611858   1.698   5.647   5.124 -0.9008 -0.0773  0.4897
  113SAPE  H16X11859   1.613   5.645   5.052 -1.0800 -0.6591  0.7119
  113SAPE  H16Y11860   1.747   5.747   5.124 -0.8933 -0.0805  0.7570
  113SAPE  C31711861   1.630   5.630   5.256 -0.8104  1.3112 -0.3441
  113SAPE  H17X11862   1.705   5.633   5.338 -0.5211 -3.2255 -0.1852
  113SAPE  H17Y11863   1.593   5.525   5.258  0.7564  0.7274 -0.4768
  113SAPE  C31811864   1.511   5.727   5.289 -0.3853  0.4889 -0.5362
  113SAPE  H18X11865   1.447   5.667   5.357  1.5942 -2.5040 -1.1556
  113SAPE  H18Y11866   1.448   5.747   5.199 -1.6988 -1.0582 -0.0029
  113SAPE  H18Z11867   1.540   5.822   5.338 -1.5296  0.9358 -0.7029
  114SAPE     N11868   3.427   1.826   2.897  0.2200  0.2572  0.0558
  114SAPE   HN111869   3.333   1.869   2.896 -1.4087 -2.9208 -2.2223
  114SAPE   HN211870   3.473   1.862   2.983  0.6831 -0.6883  0.2242
  114SAPE   HN311871   3.487   1.861   2.820  0.0818 -1.7137 -1.0209
  114SAPE   C1211872   3.420   1.676   2.897  0.2357  0.2146  0.1265
  114SAPE  H12A11873   3.507   1.630   2.845  0.1194  1.0910 -0.8705
  114SAPE  H12B11874   3.345   1.663   2.817 -1.3417  0.9814  1.4258
  114SAPE   C1111875   3.377   1.621   3.035 -0.4296  0.7353  0.0113
  114SAPE  H11A11876   3.456   1.631   3.112 -1.8186 -1.5818  1.9088
  114SAPE  H11B11877   3.355   1.512   3.024  0.0376  0.7675 -1.4874
  114SAPE     P11878   3.200   1.635   3.222  0.0151 -0.1198  0.2119
  114SAPE   O1311879   3.064   1.696   3.232 -0.3616  0.2625  0.1998
  114SAPE   O1411880   3.212   1.492   3.242 -0.0425  0.0741  0.3854
  114SAPE   O1211881   3.257   1.678   3.081  0.9915 -0.5978  0.1725
  114SAPE   O1111882   3.300   1.705   3.332  0.5782  0.3012 -0.2195
  114SAPE    C111883   3.376   1.827   3.305 -0.0130 -0.2117  0.0832
  114SAPE    HA11884   3.458   1.802   3.235 -0.3251 -2.7689  0.5345
  114SAPE    HB11885   3.314   1.894   3.241  0.4197 -0.4546 -0.6075
  114SAPE    C211886   3.418   1.897   3.430  0.5796  1.0515  0.2484
  114SAPE    HS11887   3.496   1.969   3.396  0.0760  1.7205  0.4801
  114SAPE   O2111888   3.465   1.804   3.530 -0.5990  0.3620  0.1998
  114SAPE   C2111889   3.586   1.757   3.508  0.4036 -0.3546  0.2864
  114SAPE   O2211890   3.657   1.776   3.415  0.2720 -0.3229  0.3977
  114SAPE   C2211891   3.611   1.650   3.619 -0.0982 -0.1228 -0.2730
  114SAPE   H2R11892   3.533   1.664   3.697  1.1156 -1.2129  1.1896
  114SAPE   H2S11893   3.607   1.544   3.586  0.1049 -0.2671  0.1665
  114SAPE    C311894   3.308   1.982   3.495 -0.4185  0.1082 -0.4690
  114SAPE    HX11895   3.212   1.927   3.508  0.6237 -1.2877  1.7360
  114SAPE    HY11896   3.284   2.058   3.418  1.2551  2.4980  1.2312
  114SAPE   O3111897   3.349   2.062   3.611 -0.4622  0.3631  0.0514
  114SAPE   C3111898   3.308   2.024   3.731  0.4939  0.4383 -0.0537
  114SAPE   O3211899   3.236   1.929   3.747  0.2931  0.1912 -0.1764
  114SAPE   C3211900   3.369   2.121   3.827  1.0367  0.0111  0.5767
  114SAPE   H2X11901   3.295   2.204   3.830  0.6485 -0.3617  1.8985
  114SAPE   H2Y11902   3.459   2.173   3.787 -0.1351  0.8603 -1.0801
  114SAPE   C2311903   3.741   1.694   3.688  0.2044 -0.2839 -0.1170
  114SAPE   H3R11904   3.754   1.804   3.693 -1.8328  0.1128 -1.9321
  114SAPE   H3S11905   3.815   1.650   3.618  1.0875 -0.0922  0.6779
  114SAPE   C2411906   3.756   1.629   3.822 -0.5814 -0.2288 -0.1673
  114SAPE   H4R11907   3.762   1.519   3.803  1.1521 -0.2961  0.6241
  114SAPE   H4S11908   3.665   1.636   3.886  1.4236  1.0054  2.7616
  114SAPE   C2511909   3.879   1.673   3.897  0.0713  0.2939  0.4270
  114SAPE   H5R11910   3.975   1.632   3.863  0.6780  0.4304  1.9311
  114SAPE   C2611911   3.882   1.754   4.007 -0.2977  0.1015  0.6298
  114SAPE   H6R11912   3.978   1.770   4.057  0.5607 -0.6766 -0.7231
  114SAPE   C2711913   3.775   1.835   4.077 -0.1430  0.2177  0.5638
  114SAPE   H7R11914   3.699   1.871   4.004 -0.4070  0.9218  1.1771
  114SAPE   H7S11915   3.830   1.925   4.110  0.1948  1.8465 -3.7550
  114SAPE   C2811916   3.714   1.751   4.183  0.6007  0.2817  0.4728
  114SAPE   H8R11917   3.660   1.661   4.151  1.3300 -0.4468  1.2446
  114SAPE   C2911918   3.693   1.785   4.311  0.0918 -0.3042  0.0334
  114SAPE   H9R11919   3.647   1.716   4.383  1.4820 -1.0706  0.2003
  114SAPE  C21011920   3.737   1.911   4.380  0.1923  0.1854  0.0577
  114SAPE  H10R11921   3.811   1.970   4.322 -0.9313  1.0532 -0.5300
  114SAPE  H10S11922   3.788   1.877   4.473  1.6546 -0.7537 -1.0370
  114SAPE  C21111923   3.623   2.006   4.403  0.7761 -0.1703  0.4928
  114SAPE  H11R11924   3.540   2.005   4.332 -0.4295  0.5364  1.8433
  114SAPE  C21211925   3.618   2.102   4.497  0.4376  0.2286 -0.5901
  114SAPE  H12R11926   3.535   2.175   4.494  0.0958 -0.0294  1.2779
  114SAPE  C21311927   3.716   2.121   4.605 -0.1937  0.0824 -0.3617
  114SAPE  H13R11928   3.744   2.228   4.604 -0.9235  0.2830 -2.0132
  114SAPE  H13S11929   3.817   2.079   4.584  0.9363  0.7275  3.1522
  114SAPE  C21411930   3.672   2.095   4.745 -0.0897 -0.1594 -0.2899
  114SAPE  H14R11931   3.593   2.018   4.750 -0.1925 -0.0886 -0.7553
  114SAPE  C21511932   3.729   2.126   4.855 -0.1731  0.3546 -0.3611
  114SAPE  H15R11933   3.676   2.099   4.948  0.5994 -0.8380 -0.2506
  114SAPE  C21611934   3.858   2.203   4.886 -0.1699  0.0708 -0.8888
  114SAPE  H16R11935   3.835   2.312   4.889  0.2828  0.1363  0.6300
  114SAPE  H16S11936   3.936   2.181   4.810  0.8932  1.6925 -0.3240
  114SAPE  C21711937   3.914   2.146   5.013  0.4083  0.9665  0.1460
  114SAPE  H17R11938   3.906   2.035   5.013  0.0468  0.9319  2.5707
  114SAPE  H17S11939   3.849   2.173   5.099 -0.7021 -1.5467  0.1806
  114SAPE  C21811940   4.055   2.187   5.040  0.5764 -0.3914 -0.3559
  114SAPE  H18R11941   4.066   2.296   5.019 -0.5611 -0.5188 -1.7507
  114SAPE  H18S11942   4.125   2.140   4.968  1.9283  0.9715 -0.0012
  114SAPE  C21911943   4.108   2.158   5.184 -0.2991 -0.0888 -0.1932
  114SAPE  H19R11944   4.050   2.222   5.253 -0.9779  0.0265 -0.8601
  114SAPE  H19S11945   4.212   2.198   5.178 -0.5353  0.4584 -0.7257
  114SAPE  C22011946   4.110   2.009   5.222  0.1269  0.0247  0.3719
  114SAPE  H20R11947   4.149   1.990   5.324 -0.0571  0.9508  0.6250
  114SAPE  H20S11948   4.157   1.954   5.138 -0.3861 -1.6961  1.1782
  114SAPE  H20T11949   4.013   1.955   5.225  0.3582 -0.4666 -0.5669
  114SAPE   C3311950   3.398   2.068   3.976  0.6401  0.2249 -1.0459
  114SAPE   H3X11951   3.492   2.009   3.985  0.4513  0.1736  1.2428
  114SAPE   H3Y11952   3.314   1.999   3.996 -0.8409  0.8808 -4.3809
  114SAPE   C3411953   3.414   2.194   4.075  0.9849 -0.3762  0.3424
  114SAPE   H4X11954   3.448   2.159   4.175  1.0307  2.2253  1.3186
  114SAPE   H4Y11955   3.319   2.251   4.083 -0.2159 -1.8337 -2.1330
  114SAPE   C3511956   3.529   2.288   4.023 -0.4682  0.1003  0.2301
  114SAPE   H5X11957   3.495   2.363   3.949  0.6725  0.7245  0.3269
  114SAPE   H5Y11958   3.610   2.228   3.977  0.6841  1.0685  0.9289
  114SAPE   C3611959   3.600   2.362   4.138 -1.1913  0.7754  0.1594
  114SAPE   H6X11960   3.680   2.432   4.105  1.7876 -2.4648 -0.0299
  114SAPE   H6Y11961   3.646   2.290   4.209 -1.6565 -0.2262 -0.5377
  114SAPE   C3711962   3.499   2.452   4.217 -0.4641 -0.2007 -0.4830
  114SAPE   H7X11963   3.427   2.384   4.267  1.0689 -1.3270  0.2842
  114SAPE   H7Y11964   3.456   2.519   4.140  1.7580  0.2165 -1.4401
  114SAPE   C3811965   3.572   2.516   4.334  0.4960  0.4830 -0.4000
  114SAPE   H8X11966   3.651   2.585   4.296  1.5077 -0.3452  0.1320
  114SAPE   H8Y11967   3.632   2.440   4.388 -0.3085  1.2059  1.6049
  114SAPE   C3911968   3.497   2.600   4.434 -0.2813 -0.2024 -0.1879
  114SAPE   H9X11969   3.411   2.537   4.467 -1.2902  2.0727  1.8053
  114SAPE   H9Y11970   3.456   2.687   4.379  0.5296  1.2910  1.4845
  114SAPE  C31011971   3.590   2.644   4.553  0.5878 -0.0896  0.5713
  114SAPE  H10X11972   3.652   2.733   4.531 -2.2339  2.3144  1.6490
  114SAPE  H10Y11973   3.661   2.564   4.584  0.3472 -0.7623 -0.5638
  114SAPE  C31111974   3.503   2.692   4.677  0.1328 -0.6566 -0.4608
  114SAPE  H11X11975   3.432   2.609   4.696  0.9353 -1.2732 -0.0663
  114SAPE  H11Y11976   3.449   2.786   4.654 -0.3150 -1.2131 -1.7930
  114SAPE  C31211977   3.606   2.736   4.779  0.7180  0.7042  0.0427
  114SAPE  H12X11978   3.565   2.821   4.837  0.6684  1.1541 -0.6460
  114SAPE  H12Y11979   3.703   2.764   4.732  0.0463  1.3995 -0.9651
  114SAPE  C31311980   3.628   2.627   4.891  0.2231 -0.4170  0.2436
  114SAPE  H13X11981   3.707   2.653   4.964  0.0061 -0.5909  0.5458
  114SAPE  H13Y11982   3.649   2.528   4.845  0.7872 -0.0511 -0.3059
  114SAPE  C31411983   3.498   2.591   4.970 -1.1277 -0.4000 -0.5753
  114SAPE  H14X11984   3.408   2.591   4.906 -1.4010 -0.7681 -0.1964
  114SAPE  H14Y11985   3.496   2.679   5.038 -1.8666 -0.1786 -0.8795
  114SAPE  C31511986   3.506   2.470   5.063 -0.7830 -0.2075  1.0474
  114SAPE  H15X11987   3.578   2.485   5.146 -0.0388  2.0101  0.0842
  114SAPE  H15Y11988   3.541   2.383   5.004  0.0905  0.1888  0.9667
  114SAPE  C31611989   3.365   2.441   5.128 -0.3416 -0.6407  0.2620
  114SAPE  H16X11990   3.287   2.432   5.050  1.1982 -1.2495 -1.2530
  114SAPE  H16Y11991   3.338   2.518   5.203  3.1435  1.0371  0.0118
  114SAPE  C31711992   3.364   2.314   5.220  0.1393 -0.6168  0.0162
  114SAPE  H17X11993   3.454   2.334   5.282  1.7543 -1.7778 -1.8476
  114SAPE  H17Y11994   3.383   2.225   5.157 -1.4937 -1.6774  0.9312
  114SAPE  C31811995   3.234   2.291   5.301  0.9299 -0.6307 -0.0488
  114SAPE  H18X11996   3.227   2.370   5.379  1.3141 -1.0094  0.3750
  114SAPE  H18Y11997   3.247   2.189   5.344  1.6774 -1.5833 -2.3685
  114SAPE  H18Z11998   3.138   2.293   5.245  0.3036  2.1335  0.9346
  115SAPE     N11999   1.132   2.438   3.481  0.1486  0.2060 -0.9205
  115SAPE   HN112000   1.110   2.493   3.396 -0.4054 -1.3570 -1.8289
  115SAPE   HN212001   1.182   2.489   3.557  0.7146 -0.7608 -0.6268
  115SAPE   HN312002   1.187   2.354   3.456  1.8416  0.4483  1.6424
  115SAPE   C1212003   1.011   2.377   3.548 -0.2223 -0.4783  0.0607
  115SAPE  H12A12004   0.947   2.359   3.459  0.0576  1.9656 -0.7007
  115SAPE  H12B12005   0.957   2.459   3.599  1.9546  1.0953 -0.0348
  115SAPE   C1112006   1.058   2.262   3.634  0.4807 -1.0976 -0.3852
  115SAPE  H11A12007   0.977   2.250   3.710  0.2403 -0.2973 -0.5068
  115SAPE  H11B12008   1.137   2.309   3.696 -0.8710  0.8256 -0.0548
  115SAPE     P12009   1.023   2.022   3.524 -0.1026  0.2067  0.0337
  115SAPE   O1312010   0.883   2.061   3.538 -0.3896 -0.4097  0.4653
  115SAPE   O1412011   1.065   1.972   3.389 -0.4606 -0.0110  0.3767
  115SAPE   O1212012   1.109   2.157   3.558  0.2016  0.5377  0.2685
  115SAPE   O1112013   1.087   1.920   3.623 -0.7564  0.6598 -0.0545
  115SAPE    C112014   1.224   1.879   3.618 -0.1603 -0.6682 -0.5553
  115SAPE    HA12015   1.220   1.769   3.599 -3.1817 -1.1924  2.2483
  115SAPE    HB12016   1.286   1.912   3.532  0.5986  1.7921  0.8411
  115SAPE    C212017   1.315   1.917   3.735 -0.2074  0.1155 -0.6358
  115SAPE    HS12018   1.413   1.889   3.692 -0.6215 -1.6187 -0.5095
  115SAPE   O2112019   1.296   1.842   3.853  0.5042  0.2036 -0.1782
  115SAPE   C2112020   1.328   1.711   3.853 -0.2105 -1.0193  0.9376
  115SAPE   O2212021   1.383   1.654   3.760 -0.8191 -0.4452  1.1786
  115SAPE   C2212022   1.283   1.648   3.987  0.7551 -0.1089  0.3290
  115SAPE   H2R12023   1.303   1.716   4.073 -0.9930  1.6518 -0.5904
  115SAPE   H2S12024   1.175   1.622   3.986  0.2903  1.5777 -1.6812
  115SAPE    C312025   1.300   2.066   3.774  0.2711  0.9280  0.3008
  115SAPE    HX12026   1.197   2.076   3.815  0.0604  0.5859 -0.1344
  115SAPE    HY12027   1.314   2.118   3.677  1.7057 -1.1698 -0.6845
  115SAPE   O3112028   1.395   2.102   3.882 -0.6372  0.2031  0.1381
  115SAPE   C3112029   1.420   2.234   3.892 -0.1367  0.6820  0.7324
  115SAPE   O3212030   1.379   2.315   3.809  0.0752  0.3125 -0.4557
  115SAPE   C3212031   1.505   2.264   4.007 -0.5974 -0.1014  0.0016
  115SAPE   H2X12032   1.607   2.221   3.993 -0.2406  0.2840  1.2406
  115SAPE   H2Y12033   1.471   2.194   4.086 -0.1270  0.6911  0.9290
  115SAPE   C2312034   1.353   1.518   4.015 -0.0584  0.5770 -0.2216
  115SAPE   H3R12035   1.366   1.468   3.917 -2.0234  0.6765 -0.5666
  115SAPE   H3S12036   1.293   1.449   4.078  0.2270 -0.1737 -0.7474
  115SAPE   C2412037   1.494   1.541   4.080 -0.5635 -0.0763 -0.0576
  115SAPE   H4R12038   1.515   1.443   4.128  1.5879  1.1500  1.6753
  115SAPE   H4S12039   1.491   1.618   4.159 -0.2239  0.0337 -0.1506
  115SAPE   C2512040   1.603   1.579   3.989 -0.0068 -0.1742 -0.2342
  115SAPE   H5R12041   1.642   1.494   3.931 -0.2868 -0.5772  0.1586
  115SAPE   C2612042   1.660   1.696   3.972  0.7818 -0.0147 -0.9484
  115SAPE   H6R12043   1.728   1.694   3.886 -0.5959 -1.7046 -2.0830
  115SAPE   C2712044   1.627   1.829   4.044 -0.1241  0.8335 -0.7236
  115SAPE   H7R12045   1.544   1.812   4.116  0.7163  0.7069  0.2324
  115SAPE   H7S12046   1.570   1.894   3.974 -0.6333  0.7878 -0.3518
  115SAPE   C2812047   1.760   1.892   4.091 -0.1004  0.3088 -0.5153
  115SAPE   H8R12048   1.822   1.923   4.005  0.0784  0.4349 -0.3426
  115SAPE   C2912049   1.801   1.926   4.210  0.0321 -0.6511  0.4235
  115SAPE   H9R12050   1.899   1.977   4.216 -0.9618  1.8423 -2.0650
  115SAPE  C21012051   1.719   1.914   4.335 -0.1636  0.2404  0.2912
  115SAPE  H10R12052   1.775   1.857   4.412  0.5313  0.1192 -0.2954
  115SAPE  H10S12053   1.623   1.860   4.316 -0.5603  1.8579 -3.0962
  115SAPE  C21112054   1.690   2.048   4.390 -0.5677 -0.3379 -0.1202
  115SAPE  H11R12055   1.618   2.103   4.327 -0.9464 -1.8222 -1.0396
  115SAPE  C21212056   1.732   2.109   4.504  0.1667  0.4688 -0.1137
  115SAPE  H12R12057   1.688   2.204   4.538  0.8064  0.2024  1.6058
  115SAPE  C21312058   1.830   2.040   4.599 -0.2169 -0.4442 -0.1302
  115SAPE  H13R12059   1.897   1.993   4.524  0.4915 -0.5818  0.5766
  115SAPE  H13S12060   1.789   1.961   4.665  1.0340  1.0774  2.6344
  115SAPE  C21412061   1.896   2.143   4.690 -0.5307 -0.0890  0.0750
  115SAPE  H14R12062   1.941   2.227   4.637 -0.2134  0.7235  1.5742
  115SAPE  C21512063   1.906   2.134   4.822  0.7892  0.1724  0.3076
  115SAPE  H15R12064   1.947   2.225   4.867  0.5787  0.7715 -0.6816
  115SAPE  C21612065   1.852   2.027   4.915 -0.0429 -0.2274 -0.3390
  115SAPE  H16R12066   1.923   1.945   4.940 -0.7409 -0.4172  1.1478
  115SAPE  H16S12067   1.761   1.980   4.872 -0.6384  0.8573 -0.2952
  115SAPE  C21712068   1.831   2.094   5.057 -0.2193  0.4812 -0.9894
  115SAPE  H17R12069   1.927   2.128   5.101  0.7331 -3.5217  0.4385
  115SAPE  H17S12070   1.816   2.008   5.126  1.6778  0.9923  0.1471
  115SAPE  C21812071   1.714   2.191   5.076 -0.4248  0.0810  0.3987
  115SAPE  H18R12072   1.687   2.213   4.970 -0.9547 -2.5362 -0.0748
  115SAPE  H18S12073   1.752   2.279   5.133 -0.9263  0.5992 -0.0514
  115SAPE  C21912074   1.582   2.127   5.133 -0.0992  0.5965 -0.2001
  115SAPE  H19R12075   1.610   2.101   5.237 -0.8200  1.5104  0.2346
  115SAPE  H19S12076   1.549   2.034   5.081  0.5728 -0.1520  0.6800
  115SAPE  C22012077   1.470   2.232   5.132  0.0243 -0.1081 -0.4624
  115SAPE  H20R12078   1.378   2.179   5.164 -1.8465  1.9252 -2.1475
  115SAPE  H20S12079   1.464   2.272   5.028 -1.8814  4.4667  1.1815
  115SAPE  H20T12080   1.497   2.313   5.202  1.8101 -0.3937 -0.7605
  115SAPE   C3312081   1.503   2.408   4.049 -0.6049 -0.1121 -0.5719
  115SAPE   H3X12082   1.397   2.439   4.059 -0.6519 -1.1185  4.1714
  115SAPE   H3Y12083   1.552   2.476   3.976 -0.6320  1.1104  0.4991
  115SAPE   C3412084   1.580   2.424   4.182 -0.3204 -0.0647  0.1014
  115SAPE   H4X12085   1.683   2.385   4.171  0.4181  1.9811 -0.6467
  115SAPE   H4Y12086   1.526   2.358   4.254 -1.4755 -0.0606 -0.7283
  115SAPE   C3512087   1.577   2.569   4.232 -0.4486 -0.3813  0.3713
  115SAPE   H5X12088   1.470   2.590   4.252 -0.5457 -1.9534  1.6485
  115SAPE   H5Y12089   1.598   2.643   4.151  0.9549 -1.2014 -0.0449
  115SAPE   C3612090   1.652   2.596   4.360  0.6554 -0.0274  0.3866
  115SAPE   H6X12091   1.666   2.706   4.351 -0.2078  0.0964  0.3993
  115SAPE   H6Y12092   1.752   2.549   4.360  0.3119 -0.9377 -2.3325
  115SAPE   C3712093   1.583   2.575   4.493 -0.0434 -0.0381 -0.8793
  115SAPE   H7X12094   1.563   2.466   4.498 -2.3162  0.3846  1.9741
  115SAPE   H7Y12095   1.496   2.643   4.494  0.6852  0.9245  0.3956
  115SAPE   C3812096   1.681   2.629   4.599  0.8780  0.0076 -0.4815
  115SAPE   H8X12097   1.677   2.740   4.594  1.3401  0.1412  1.4613
  115SAPE   H8Y12098   1.785   2.597   4.577  0.5888 -0.3517 -1.3961
  115SAPE   C3912099   1.650   2.578   4.738  0.6947  0.3863  0.0361
  115SAPE   H9X12100   1.638   2.468   4.739  0.6387  0.3964  1.4897
  115SAPE   H9Y12101   1.545   2.605   4.764  1.2523 -1.4492  5.1529
  115SAPE  C31012102   1.751   2.614   4.845  0.7417  0.5691  0.6692
  115SAPE  H10X12103   1.754   2.725   4.842  3.0041  0.5184 -0.8178
  115SAPE  H10Y12104   1.853   2.576   4.822  0.2772 -0.2807 -0.0055
  115SAPE  C31112105   1.697   2.573   4.979  0.0228  0.0164  0.4111
  115SAPE  H11X12106   1.678   2.464   4.984  0.9057 -0.2248 -0.9491
  115SAPE  H11Y12107   1.604   2.629   5.001 -0.0421 -0.7744  2.3617
  115SAPE  C31212108   1.797   2.599   5.090 -0.3141 -0.2990  0.3477
  115SAPE  H12X12109   1.837   2.703   5.088 -3.4772  1.2967  4.5201
  115SAPE  H12Y12110   1.880   2.528   5.071 -1.1920 -0.7627 -2.1755
  115SAPE  C31312111   1.741   2.572   5.231  0.0352  0.3974  1.1503
  115SAPE  H13X12112   1.709   2.466   5.237  1.4577 -0.0779  0.7274
  115SAPE  H13Y12113   1.651   2.638   5.233 -0.3878 -0.1603  0.7819
  115SAPE  C31412114   1.831   2.604   5.348  0.2622  0.3373 -0.7023
  115SAPE  H14X12115   1.784   2.553   5.435  0.9439 -0.1864 -0.6249
  115SAPE  H14Y12116   1.823   2.715   5.353 -1.4375  0.2374 -0.6563
  115SAPE  C31512117   1.971   2.542   5.336  0.3819 -0.3606  0.5387
  115SAPE  H15X12118   2.045   2.584   5.407 -1.1483  0.5340  1.6391
  115SAPE  H15Y12119   2.014   2.568   5.237  1.0036 -0.1674  0.8553
  115SAPE  C31612120   1.972   2.391   5.362 -0.6584 -0.0329  0.1928
  115SAPE  H16X12121   1.899   2.340   5.296 -0.6869  0.1486  0.0857
  115SAPE  H16Y12122   1.951   2.370   5.470 -2.0336  0.3766  0.0215
  115SAPE  C31712123   2.113   2.332   5.329 -0.2384 -0.3660  0.4282
  115SAPE  H17X12124   2.107   2.222   5.344  3.2001 -0.6774  0.2888
  115SAPE  H17Y12125   2.183   2.367   5.407 -1.6081  2.0102  0.7004
  115SAPE  C31812126   2.165   2.359   5.188 -0.0468  0.0656 -0.1403
  115SAPE  H18X12127   2.200   2.462   5.169  1.6859 -0.0346  2.0886
  115SAPE  H18Y12128   2.088   2.327   5.114  0.7917  0.3061 -1.1403
  115SAPE  H18Z12129   2.257   2.301   5.165  0.3114  0.6634 -0.2360
  116SAPE     N12130   0.860   3.638   3.315  0.1172  0.2971 -0.1015
  116SAPE   HN112131   0.786   3.584   3.266  1.4662 -0.3229 -1.5487
  116SAPE   HN212132   0.916   3.687   3.242 -1.5468  2.1563 -0.2138
  116SAPE   HN312133   0.917   3.566   3.363  1.1508  1.1224 -0.0749
  116SAPE   C1212134   0.831   3.732   3.429  0.0815 -0.1103 -0.5088
  116SAPE  H12A12135   0.929   3.751   3.476 -0.1351  0.7499 -0.3827
  116SAPE  H12B12136   0.764   3.676   3.497  0.5071 -0.5424 -0.4419
  116SAPE   C1112137   0.755   3.861   3.391 -0.1260 -0.5283  0.1954
  116SAPE  H11A12138   0.819   3.921   3.322  0.2771 -2.9628 -1.7159
  116SAPE  H11B12139   0.734   3.928   3.477  0.0668 -1.1820  0.7597
  116SAPE     P12140   0.495   3.853   3.373  0.6542 -0.3490  0.2724
  116SAPE   O1312141   0.396   3.818   3.267  0.0842  0.0211  0.1494
  116SAPE   O1412142   0.487   3.787   3.501  0.1194  0.1277 -0.2270
  116SAPE   O1212143   0.637   3.834   3.316  0.2248 -0.6964  0.5054
  116SAPE   O1112144   0.490   4.010   3.391 -0.2603 -0.8266 -0.2283
  116SAPE    C112145   0.485   4.063   3.521  0.1419 -0.0351  0.0728
  116SAPE    HA12146   0.551   4.018   3.598  0.3593  0.5542  0.2377
  116SAPE    HB12147   0.514   4.170   3.516 -0.1517  0.0553  0.2364
  116SAPE    C212148   0.329   4.044   3.576  0.4070  0.0765 -0.1547
  116SAPE    HS12149   0.301   3.937   3.565  1.0963 -0.3040  1.5231
  116SAPE   O2112150   0.249   4.144   3.509 -0.8038  0.2564  0.0403
  116SAPE   C2112151   0.127   4.102   3.482 -0.0243  0.1986  0.0899
  116SAPE   O2212152   0.087   3.986   3.477  0.1731 -0.0524  0.4097
  116SAPE   C2212153   0.040   4.215   3.436  0.8073  0.0207  0.4272
  116SAPE   H2R12154   0.095   4.258   3.349  2.1521 -1.7749  0.3228
  116SAPE   H2S12155  -0.055   4.165   3.405  0.5744 -0.2893  1.6096
  116SAPE    C312156   0.339   4.069   3.727 -0.5138 -0.6164 -0.2128
  116SAPE    HX12157   0.370   4.175   3.743  0.1874 -0.6918 -0.9536
  116SAPE    HY12158   0.417   3.997   3.759 -1.9372 -2.1359 -0.0176
  116SAPE   O3112159   0.216   4.047   3.792  0.4089  0.3094  0.0740
  116SAPE   C3112160   0.186   3.922   3.802 -0.0088  0.9832 -0.4957
  116SAPE   O3212161   0.272   3.837   3.800 -0.2554  0.4679  0.3307
  116SAPE   C3212162   0.045   3.897   3.826  0.5963  0.2469  0.4121
  116SAPE   H2X12163   0.011   3.797   3.792 -0.1093 -0.1356  2.1517
  116SAPE   H2Y12164  -0.016   3.960   3.757  0.5190  0.2176  0.4526
  116SAPE   C2312165   0.003   4.314   3.551  0.1903  0.0231 -0.3919
  116SAPE   H3R12166  -0.046   4.264   3.637  0.6242 -0.5180 -0.4546
  116SAPE   H3S12167  -0.087   4.362   3.507  0.4910  0.5136 -0.4899
  116SAPE   C2412168   0.111   4.407   3.605 -0.6829  0.5695  0.6117
  116SAPE   H4R12169   0.170   4.440   3.517 -2.1690 -0.8400 -0.9849
  116SAPE   H4S12170   0.183   4.355   3.671 -1.6587  1.0885  2.1423
  116SAPE   C2512171   0.054   4.526   3.679 -0.0908  0.3632 -0.2772
  116SAPE   H5R12172   0.030   4.615   3.619  0.9074 -0.1238 -1.4493
  116SAPE   C2612173   0.018   4.525   3.809  0.6407  0.7943  0.3772
  116SAPE   H6R12174   0.001   4.625   3.851 -1.3510  0.8536 -0.4427
  116SAPE   C2712175   0.009   4.413   3.900  0.2259  1.0601 -0.4720
  116SAPE   H7R12176   0.055   4.452   3.993  2.1613 -1.0464 -0.4705
  116SAPE   H7S12177   0.079   4.331   3.874  0.2317  0.7558  0.4948
  116SAPE   C2812178  -0.135   4.380   3.917  0.0521  0.2736  0.1236
  116SAPE   H8R12179  -0.178   4.331   3.828  0.4930  0.5792 -0.2639
  116SAPE   C2912180  -0.212   4.406   4.022  0.1879  0.8521  0.1297
  116SAPE   H9R12181  -0.313   4.363   4.028  0.7874 -0.4441  1.3369
  116SAPE  C21012182  -0.166   4.492   4.141 -0.0506  0.1281 -0.0636
  116SAPE  H10R12183  -0.115   4.582   4.100 -0.3247  0.4787  0.3612
  116SAPE  H10S12184  -0.078   4.441   4.186 -1.6150 -1.7804  1.0297
  116SAPE  C21112185  -0.263   4.540   4.247 -0.1362 -0.2063  0.5899
  116SAPE  H11R12186  -0.273   4.649   4.237 -1.6533 -0.0065  3.5026
  116SAPE  C21212187  -0.353   4.481   4.323  0.1120 -0.0214 -0.5710
  116SAPE  H12R12188  -0.399   4.543   4.401  1.7608 -0.1214  0.5440
  116SAPE  C21312189  -0.388   4.333   4.350 -0.2963 -0.1426  0.1474
  116SAPE  H13R12190  -0.381   4.283   4.252  1.1244  2.6717 -1.3248
  116SAPE  H13S12191  -0.493   4.335   4.385 -0.6216 -0.8752 -0.7596
  116SAPE  C21412192  -0.291   4.276   4.451 -0.4283  0.2529 -0.6459
  116SAPE  H14R12193  -0.192   4.253   4.410 -0.7670  0.1384 -1.4197
  116SAPE  C21512194  -0.316   4.257   4.582 -0.1992 -0.0730 -0.1030
  116SAPE  H15R12195  -0.239   4.209   4.644  1.1766  0.8626 -1.0276
  116SAPE  C21612196  -0.445   4.287   4.656  0.1514 -0.7890  0.1816
  116SAPE  H16R12197  -0.532   4.231   4.615  0.3865 -1.2788  0.3453
  116SAPE  H16S12198  -0.479   4.391   4.633  2.7567 -0.2730 -1.6944
  116SAPE  C21712199  -0.424   4.283   4.810  0.5072 -0.1032  0.4445
  116SAPE  H17R12200  -0.513   4.326   4.862 -0.2233 -1.0925  0.0541
  116SAPE  H17S12201  -0.332   4.334   4.845 -0.6588  2.5260 -0.0790
  116SAPE  C21812202  -0.428   4.138   4.859  0.1141  0.0844 -0.3127
  116SAPE  H18R12203  -0.341   4.079   4.822  0.7962 -0.3165  1.7805
  116SAPE  H18S12204  -0.514   4.077   4.823  0.7739 -1.1266  0.0851
  116SAPE  C21912205  -0.431   4.128   5.012  0.5060 -0.1867 -0.1052
  116SAPE  H19R12206  -0.355   4.197   5.054 -1.3382  0.7099  1.9967
  116SAPE  H19S12207  -0.391   4.026   5.028  0.3874 -0.2460 -0.1869
  116SAPE  C22012208  -0.570   4.150   5.081 -0.1734 -0.0996 -0.1576
  116SAPE  H20R12209  -0.568   4.119   5.188 -3.9000  2.0822  0.6982
  116SAPE  H20S12210  -0.657   4.094   5.042 -0.4291  1.1464 -1.4487
  116SAPE  H20T12211  -0.604   4.255   5.071  2.4018  0.7319 -1.1744
  116SAPE   C3312212  -0.004   3.932   3.969  0.4903  0.2657 -0.4916
  116SAPE   H3X12213  -0.103   3.977   3.951 -0.1194 -1.3242 -1.3548
  116SAPE   H3Y12214   0.049   4.019   4.013 -0.8175 -0.8234  3.5950
  116SAPE   C3412215  -0.025   3.827   4.081 -0.1974  0.1786  0.4215
  116SAPE   H4X12216   0.072   3.774   4.093 -1.0256 -2.4081 -2.7929
  116SAPE   H4Y12217  -0.094   3.749   4.043  0.2177  0.9965 -2.2994
  116SAPE   C3512218  -0.077   3.888   4.215 -0.5426 -0.7167  0.6245
  116SAPE   H5X12219  -0.109   3.807   4.283  1.0687 -1.0038  1.0769
  116SAPE   H5Y12220  -0.151   3.969   4.195  0.5899  0.4546  0.9875
  116SAPE   C3612221   0.035   3.969   4.280 -0.6110 -0.6713  0.4049
  116SAPE   H6X12222   0.074   4.055   4.220  2.6890 -2.2523  0.0980
  116SAPE   H6Y12223   0.129   3.913   4.294  0.0866  0.8670  2.2014
  116SAPE   C3712224  -0.004   4.018   4.423 -0.2757  0.5177 -0.6125
  116SAPE   H7X12225  -0.108   4.058   4.426  0.1092  1.9321 -3.2001
  116SAPE   H7Y12226   0.064   4.097   4.460  1.0331 -1.0656  0.4912
  116SAPE   C3812227   0.007   3.898   4.526  0.5568 -0.4048  0.4987
  116SAPE   H8X12228   0.111   3.857   4.525 -1.6012 -7.0409  1.3224
  116SAPE   H8Y12229  -0.051   3.806   4.503  2.3464 -1.4797  0.0982
  116SAPE   C3912230  -0.031   3.936   4.666 -0.0631 -0.4869 -0.0387
  116SAPE   H9X12231  -0.137   3.971   4.663 -1.3223 -3.7497  1.4102
  116SAPE   H9Y12232   0.037   4.015   4.705 -1.4653  0.3520  0.8392
  116SAPE  C31012233  -0.029   3.810   4.760  0.6076  0.6239 -0.2651
  116SAPE  H10X12234   0.069   3.758   4.756  1.3044  1.8835 -0.1113
  116SAPE  H10Y12235  -0.107   3.740   4.724  1.5421  0.1272 -1.3510
  116SAPE  C31112236  -0.060   3.867   4.901  0.2290 -0.0521  0.3637
  116SAPE  H11X12237  -0.154   3.926   4.895 -0.4302 -1.1201 -0.1132
  116SAPE  H11Y12238   0.022   3.931   4.940  1.5561 -2.1221  1.1462
  116SAPE  C31212239  -0.070   3.754   5.006 -0.2928  0.0330  0.0816
  116SAPE  H12X12240   0.029   3.705   5.013  0.1862  0.9128 -0.4539
  116SAPE  H12Y12241  -0.152   3.685   4.974 -0.2916 -0.8574  1.8595
  116SAPE  C31312242  -0.095   3.801   5.153 -0.6072 -0.5189  0.6489
  116SAPE  H13X12243  -0.197   3.846   5.159 -0.6606 -0.0239 -2.1866
  116SAPE  H13Y12244  -0.015   3.872   5.184 -0.3258 -1.6498  2.6196
  116SAPE  C31412245  -0.086   3.692   5.253  0.5449  0.1651 -0.2359
  116SAPE  H14X12246   0.016   3.649   5.247  0.1423 -0.6514 -1.6316
  116SAPE  H14Y12247  -0.155   3.615   5.214  1.1399  1.4808 -4.5214
  116SAPE  C31512248  -0.110   3.735   5.405 -0.3573  0.0367 -0.1447
  116SAPE  H15X12249  -0.155   3.643   5.448  0.5918 -1.3076 -1.9148
  116SAPE  H15Y12250  -0.192   3.810   5.415  0.5384  1.0404 -0.0942
  116SAPE  C31612251   0.029   3.771   5.470  0.2046  0.8816 -0.1584
  116SAPE  H16X12252   0.080   3.843   5.403 -1.4381  0.3232 -2.1047
  116SAPE  H16Y12253   0.090   3.678   5.468  0.8605  1.2736  0.6476
  116SAPE  C31712254   0.019   3.824   5.605  0.6770 -0.2733 -0.6928
  116SAPE  H17X12255  -0.030   3.923   5.613  1.2249 -0.0496 -0.0098
  116SAPE  H17Y12256   0.121   3.858   5.634  2.0374 -4.3184 -0.0639
  116SAPE  C31812257  -0.031   3.722   5.711  0.0884 -0.1626  0.5098
  116SAPE  H18X12258   0.038   3.635   5.717 -0.0785 -0.5001 -1.8081
  116SAPE  H18Y12259  -0.134   3.688   5.691 -0.3842  1.2972  0.3549
  116SAPE  H18Z12260  -0.021   3.768   5.812  1.4280  0.0867  0.2820
  117SOPE     N12261   5.818   5.267   7.742  0.1577 -0.2511  0.8152
  117SOPE   HN112262   5.815   5.300   7.841  1.7262 -0.1507  0.8625
  117SOPE   HN212263   5.815   5.344   7.672 -0.0017 -0.9793  0.0002
  117SOPE   HN312264   5.733   5.213   7.717  1.2185 -0.7798 -2.0507
  117SOPE   C1212265   5.942   5.185   7.738 -0.0450 -0.2733  0.0326
  117SOPE  H12A12266   5.946   5.138   7.838 -1.3993  3.8332  2.2358
  117SOPE  H12B12267   6.029   5.254   7.729  0.4345 -0.7658  0.7738
  117SOPE   C1112268   5.924   5.095   7.609  0.2660  0.5277 -0.3604
  117SOPE  H11A12269   6.020   5.039   7.598  0.3122  0.4290  0.4561
  117SOPE  H11B12270   5.922   5.163   7.522  1.1037  3.3898  1.6939
  117SOPE     P12271   5.788   4.871   7.548 -0.1143  0.1112  0.0467
  117SOPE   O1312272   5.647   4.837   7.562  0.1163  0.2160 -0.2446
  117SOPE   O1412273   5.886   4.771   7.595  0.3971  0.4523 -0.4202
  117SOPE   O1212274   5.813   5.006   7.624 -0.4335 -0.1265 -0.2206
  117SOPE   O1112275   5.823   4.913   7.396 -0.4455 -0.1216 -0.3842
  117SOPE    C112276   5.748   5.030   7.339 -0.1270  0.3163  0.1074
  117SOPE    HA12277   5.816   5.060   7.255  0.8049 -0.9930  0.3638
  117SOPE    HB12278   5.738   5.117   7.407 -2.2873 -0.4288  0.8233
  117SOPE    C212279   5.606   5.007   7.280  0.1844 -0.1949 -0.3469
  117SOPE    HS12280   5.559   4.946   7.360 -1.1149  0.8955 -0.2433
  117SOPE   O2112281   5.608   4.944   7.149  0.1397 -0.2272  0.0936
  117SOPE   C2112282   5.599   4.809   7.140 -1.0213  0.3670  0.2358
  117SOPE   O2212283   5.600   4.729   7.230 -0.3183  0.5231  0.5980
  117SOPE   C2212284   5.587   4.773   6.993  0.7462 -0.0433  0.3837
  117SOPE   H2R12285   5.481   4.799   6.971  0.3665 -1.9060 -0.1298
  117SOPE   H2S12286   5.589   4.664   6.972  2.5370  0.5102 -2.9650
  117SOPE    C312287   5.521   5.136   7.277 -0.4293 -0.5278 -0.2217
  117SOPE    HX12288   5.530   5.184   7.377  2.2415 -0.8006 -0.2656
  117SOPE    HY12289   5.421   5.088   7.272 -0.4030 -0.8917  1.7869
  117SOPE   O3112290   5.557   5.227   7.175 -0.2029 -0.7730 -0.3874
  117SOPE   C3112291   5.623   5.332   7.208 -0.0260 -0.3849 -0.1060
  117SOPE   O3212292   5.660   5.368   7.317  0.1587 -0.5637 -0.3860
  117SOPE   C3212293   5.690   5.387   7.082 -0.7780 -0.2381  0.7877
  117SOPE   H2X12294   5.791   5.419   7.117  0.7177 -1.2283 -2.2746
  117SOPE   H2Y12295   5.627   5.469   7.043 -0.2718 -0.8830 -1.5661
  117SOPE   C2312296   5.686   4.846   6.899  0.3671 -0.5382 -1.6211
  117SOPE   H3R12297   5.785   4.798   6.912 -0.0530 -1.0033  0.1579
  117SOPE   H3S12298   5.686   4.952   6.930  1.3153 -0.2903 -2.4025
  117SOPE   C2412299   5.634   4.842   6.753  0.2252 -0.8227 -0.3598
  117SOPE   H4R12300   5.541   4.904   6.754 -0.4410 -1.6792 -2.7095
  117SOPE   H4S12301   5.707   4.894   6.687 -1.6726  0.9748 -1.1789
  117SOPE   C2512302   5.611   4.699   6.687  0.0270 -0.0869 -1.0765
  117SOPE   H5R12303   5.702   4.635   6.685 -0.1469 -0.3289 -2.0863
  117SOPE   H5S12304   5.530   4.653   6.747  1.6343 -1.2014  0.3264
  117SOPE   C2612305   5.568   4.689   6.535  0.5348  0.0220 -0.3285
  117SOPE   H6R12306   5.555   4.582   6.508  1.3509  0.2504 -1.7979
  117SOPE   H6S12307   5.469   4.737   6.526  1.2588  1.6199 -0.1190
  117SOPE   C2712308   5.670   4.749   6.433 -1.0253  0.5648  0.0855
  117SOPE   H7R12309   5.710   4.850   6.454  3.5874 -1.3062  1.4234
  117SOPE   H7S12310   5.762   4.688   6.446 -0.0063  1.5775 -1.9005
  117SOPE   C2812311   5.626   4.753   6.289  0.1085 -0.3917  0.0720
  117SOPE   H8R12312   5.539   4.819   6.272  0.1501  0.1552  1.8073
  117SOPE   H8S12313   5.707   4.812   6.241 -2.3526  2.1356 -1.2714
  117SOPE   C2912314   5.600   4.612   6.244  0.5416  0.1067  0.3742
  117SOPE   H9112315   5.516   4.562   6.294  0.8440  1.0725  1.9271
  117SOPE  C21012316   5.665   4.549   6.140  0.3909  0.7199 -0.2710
  117SOPE  H10112317   5.628   4.449   6.117 -0.1419  0.7148  0.5392
  117SOPE  C21112318   5.779   4.592   6.064 -0.3716 -0.1539  0.0987
  117SOPE  H11R12319   5.866   4.539   6.107  0.3875  0.9772  0.0088
  117SOPE  H11S12320   5.798   4.701   6.078  1.9968 -0.3155 -1.3932
  117SOPE  C21212321   5.773   4.560   5.913 -0.4328 -0.6428 -0.0299
  117SOPE  H12R12322   5.682   4.592   5.857  0.7190  2.0017 -0.5251
  117SOPE  H12S12323   5.772   4.450   5.922  0.8144 -0.5770  1.1954
  117SOPE  C21312324   5.883   4.613   5.819 -0.1706 -0.4549  0.3772
  117SOPE  H13R12325   5.896   4.723   5.827  0.7419 -0.3676 -1.6947
  117SOPE  H13S12326   5.868   4.598   5.710  0.6339 -0.2212  0.2276
  117SOPE  C21412327   6.011   4.545   5.848  0.1980  0.1696 -0.2440
  117SOPE  H14R12328   5.983   4.440   5.828 -0.9678  0.1067  1.5131
  117SOPE  H14S12329   6.053   4.556   5.950  1.8194 -0.1036 -0.8456
  117SOPE  C21512330   6.116   4.579   5.750 -1.3182 -0.4217  0.4033
  117SOPE  H15R12331   6.165   4.672   5.786  3.5986 -2.3201 -0.5795
  117SOPE  H15S12332   6.084   4.589   5.645  2.2864  0.5820 -0.7419
  117SOPE  C21612333   6.219   4.469   5.747  0.5498 -0.3031  0.1747
  117SOPE  H16R12334   6.185   4.368   5.717  1.1673 -0.7654  0.9964
  117SOPE  H16S12335   6.265   4.452   5.847 -0.9793  1.0138  1.1529
  117SOPE  C21712336   6.341   4.504   5.658 -0.3003 -0.4157  0.3836
  117SOPE  H17R12337   6.416   4.422   5.657  0.0277 -0.1159 -0.3978
  117SOPE  H17S12338   6.392   4.595   5.698  1.0747 -1.3242  0.7853
  117SOPE  C21812339   6.298   4.531   5.514 -0.0420 -0.1611 -0.1073
  117SOPE  H18R12340   6.250   4.444   5.463 -2.8358  1.9438 -1.3067
  117SOPE  H18S12341   6.383   4.558   5.448 -0.7740  1.7724 -0.3078
  117SOPE  H18T12342   6.218   4.608   5.516 -1.6335 -1.6574 -1.6581
  117SOPE   C3312343   5.697   5.276   6.966  0.6849 -0.3361 -0.3321
  117SOPE   H3X12344   5.600   5.224   6.954 -0.6876  1.7103  1.3328
  117SOPE   H3Y12345   5.773   5.200   6.995 -0.0688 -1.3795 -1.0242
  117SOPE   C3412346   5.732   5.324   6.827  0.2091 -0.0305 -0.2322
  117SOPE   H4X12347   5.835   5.363   6.844  0.8921 -1.3903 -1.0811
  117SOPE   H4Y12348   5.659   5.402   6.795  0.7456  1.0271  0.9997
  117SOPE   C3512349   5.741   5.202   6.727 -0.4434 -0.6017 -0.9551
  117SOPE   H5X12350   5.665   5.124   6.746 -0.9496 -0.4253 -2.1508
  117SOPE   H5Y12351   5.841   5.156   6.738 -0.5226 -0.4585  0.5629
  117SOPE   C3612352   5.721   5.261   6.587 -0.0037  0.7917 -0.3595
  117SOPE   H6X12353   5.799   5.334   6.555 -0.1316  1.8016  1.4736
  117SOPE   H6Y12354   5.627   5.321   6.578  0.0940  1.1146  0.6511
  117SOPE   C3712355   5.717   5.156   6.480  0.4722  0.4801  0.3462
  117SOPE   H7X12356   5.620   5.102   6.481  1.3556 -1.1527  0.4854
  117SOPE   H7Y12357   5.804   5.089   6.495  2.5184  3.1048  0.9297
  117SOPE   C3812358   5.755   5.208   6.339  0.6961  0.9268 -0.5746
  117SOPE   H8X12359   5.866   5.202   6.338  0.6221 -1.1410 -0.3232
  117SOPE   H8Y12360   5.716   5.312   6.330  0.1574  0.7289 -0.5782
  117SOPE   C3912361   5.719   5.110   6.228 -0.6055  0.1775  0.3336
  117SOPE   H9X12362   5.608   5.112   6.226 -0.6047 -0.1053 -0.0460
  117SOPE   H9Y12363   5.753   5.009   6.258  0.9463  0.2879 -0.9125
  117SOPE  C31012364   5.783   5.146   6.098  0.2142 -0.9929  0.3419
  117SOPE  H10X12365   5.892   5.163   6.110  0.0026  0.1139  0.7664
  117SOPE  H10Y12366   5.738   5.237   6.054  1.6533 -0.6758 -0.5202
  117SOPE  C31112367   5.763   5.029   5.994 -0.1135  0.1735 -0.3467
  117SOPE  H11X12368   5.660   4.990   5.979  0.1849 -1.1099  0.7689
  117SOPE  H11Y12369   5.818   4.945   6.040  0.1497 -0.3170 -1.5245
  117SOPE  C31212370   5.836   5.069   5.868 -0.7045  0.2143  0.5407
  117SOPE  H12X12371   5.872   4.979   5.814 -0.5204 -1.0880  2.6925
  117SOPE  H12Y12372   5.923   5.131   5.896 -1.0355  0.0121  2.1453
  117SOPE  C31312373   5.750   5.148   5.770  0.2446 -0.3307 -0.8011
  117SOPE  H13X12374   5.720   5.245   5.815  0.9302 -0.1617 -0.7071
  117SOPE  H13Y12375   5.658   5.090   5.745  0.4141 -0.4439 -1.1669
  117SOPE  C31412376   5.838   5.174   5.650  0.0797  0.1530 -1.5839
  117SOPE  H14X12377   5.862   5.084   5.590 -1.4661 -0.6171 -1.1044
  117SOPE  H14Y12378   5.937   5.208   5.686  0.2495 -2.6551  1.0213
  117SOPE  C31512379   5.758   5.270   5.553 -0.4312  0.4359 -0.1944
  117SOPE  H15X12380   5.736   5.358   5.616  2.5302  1.2518 -0.1495
  117SOPE  H15Y12381   5.670   5.215   5.514  1.2823 -1.8700 -1.0444
  117SOPE  C31612382   5.852   5.296   5.433  0.4103 -0.9000 -0.4044
  117SOPE  H16X12383   5.907   5.206   5.396  1.0129 -0.1113 -1.4775
  117SOPE  H16Y12384   5.923   5.379   5.449 -0.1733 -0.6233  0.9411
  117SOPE  C31712385   5.773   5.327   5.307  0.7212 -0.2740 -0.2806
  117SOPE  H17X12386   5.719   5.422   5.324  0.2725 -0.0430 -2.7704
  117SOPE  H17Y12387   5.700   5.245   5.289 -1.2665  0.9276  1.6953
  117SOPE  C31812388   5.857   5.349   5.181 -0.6217 -0.4342 -0.1575
  117SOPE  H18X12389   5.791   5.367   5.094 -1.1071 -0.1917  0.2551
  117SOPE  H18Y12390   5.917   5.264   5.142  2.2056  0.4564  1.9195
  117SOPE  H18Z12391   5.926   5.434   5.197 -2.5652  1.2205 -0.2581
  118SOPE     N12392   0.655   6.716   8.002 -0.0713  0.1736 -0.3127
  118SOPE   HN112393   0.587   6.678   8.071  0.9479 -1.0703  0.0446
  118SOPE   HN212394   0.648   6.665   7.912  0.2265 -0.0854 -0.1923
  118SOPE   HN312395   0.751   6.706   8.042 -0.4298  0.1181  0.5417
  118SOPE   C1212396   0.631   6.863   7.975  0.3410 -0.4778  0.0807
  118SOPE  H12A12397   0.719   6.911   7.928  0.4686 -2.1385 -1.4492
  118SOPE  H12B12398   0.616   6.909   8.075  0.2477 -0.0049 -0.1468
  118SOPE   C1112399   0.505   6.879   7.886  0.0052 -0.5576 -0.4264
  118SOPE  H11A12400   0.535   6.846   7.784  1.4008  2.1606 -0.9827
  118SOPE  H11B12401   0.478   6.987   7.880  0.2833 -0.4117  0.8386
  118SOPE     P12402   0.248   6.837   7.904 -0.4005  0.4321  0.1339
  118SOPE   O1312403   0.216   6.982   7.918 -0.0206  0.1168 -0.6940
  118SOPE   O1412404   0.154   6.749   7.979  0.3972  0.0398 -0.4239
  118SOPE   O1212405   0.399   6.805   7.939  0.7876 -0.0140 -0.1579
  118SOPE   O1112406   0.250   6.805   7.749 -0.2234 -0.1374 -0.4235
  118SOPE    C112407   0.151   6.842   7.658  0.1018  0.4558  1.3268
  118SOPE    HA12408   0.192   6.840   7.554  0.0971  0.0033  1.3307
  118SOPE    HB12409   0.107   6.943   7.675 -1.2690 -0.1003  1.1992
  118SOPE    C212410   0.038   6.731   7.648 -0.5692  0.1886 -0.2869
  118SOPE    HS12411  -0.018   6.733   7.744 -1.8758  2.6775 -1.0095
  118SOPE   O2112412   0.090   6.600   7.626 -0.2492  0.0459  0.2351
  118SOPE   C2112413   0.013   6.501   7.647 -1.1010  0.8032 -0.0209
  118SOPE   O2212414  -0.106   6.493   7.668 -0.7272  0.1015  0.7024
  118SOPE   C2212415   0.093   6.369   7.660 -0.2551 -0.7188  0.2351
  118SOPE   H2R12416   0.029   6.306   7.725 -0.9127 -0.8150 -0.4901
  118SOPE   H2S12417   0.195   6.389   7.698 -0.5566 -0.7647  1.1005
  118SOPE    C312418  -0.070   6.777   7.543  0.1216  0.0732  0.3827
  118SOPE    HX12419  -0.076   6.887   7.557 -0.2430  0.0355  0.5339
  118SOPE    HY12420  -0.168   6.727   7.557  0.6491 -0.8729  0.8179
  118SOPE   O3112421  -0.004   6.757   7.416  0.3689  0.3439  0.7704
  118SOPE   C3112422  -0.051   6.663   7.329 -0.0387 -0.6213 -0.5702
  118SOPE   O3212423  -0.149   6.602   7.343  0.2222  0.2426  0.1268
  118SOPE   C3212424   0.035   6.656   7.212 -0.2112  0.2049 -0.6303
  118SOPE   H2X12425   0.141   6.642   7.242 -1.0672 -0.7399  2.3219
  118SOPE   H2Y12426   0.029   6.757   7.166 -0.6198  1.0635  1.2075
  118SOPE   C2312427   0.124   6.314   7.522 -0.0693  0.0686  0.3848
  118SOPE   H3R12428   0.165   6.397   7.461  0.3576  0.5507  1.2948
  118SOPE   H3S12429   0.027   6.284   7.477  0.9514 -0.6986 -1.4230
  118SOPE   C2412430   0.200   6.175   7.519  0.0365  0.4047 -0.7413
  118SOPE   H4R12431   0.292   6.177   7.582 -1.0616  1.8326  0.9281
  118SOPE   H4S12432   0.119   6.109   7.558 -1.3103  2.0700 -0.5752
  118SOPE   C2512433   0.223   6.129   7.371  0.8436 -0.4641  0.2151
  118SOPE   H5R12434   0.262   6.024   7.372 -0.2792 -0.9924 -2.4484
  118SOPE   H5S12435   0.126   6.118   7.319  0.5780  0.3208  0.5385
  118SOPE   C2612436   0.324   6.221   7.300 -0.1096  0.5921  0.5976
  118SOPE   H6R12437   0.285   6.324   7.290  1.6613  1.2880  0.4645
  118SOPE   H6S12438   0.413   6.231   7.365 -0.1131 -3.3804  1.4477
  118SOPE   C2712439   0.365   6.153   7.165  0.5993  0.4648 -0.3005
  118SOPE   H7R12440   0.432   6.077   7.211  0.2335 -1.0469 -2.1601
  118SOPE   H7S12441   0.279   6.107   7.112 -2.0293  2.1912  2.1144
  118SOPE   C2812442   0.439   6.239   7.059 -0.3015 -0.8119  0.4848
  118SOPE   H8R12443   0.530   6.285   7.102  1.1551 -2.6465 -0.5297
  118SOPE   H8S12444   0.478   6.159   6.993 -1.3309 -3.0390  2.4304
  118SOPE   C2912445   0.353   6.345   6.984 -0.1471  0.0870 -0.4246
  118SOPE   H9112446   0.318   6.427   7.049  0.0636 -0.3782  0.2949
  118SOPE  C21012447   0.323   6.343   6.853 -0.5657 -0.5513  0.0305
  118SOPE  H10112448   0.270   6.429   6.810  0.5051  1.5538  2.6539
  118SOPE  C21112449   0.361   6.229   6.763 -0.0973  0.1942 -0.2306
  118SOPE  H11R12450   0.327   6.133   6.808 -1.4589  0.4369 -0.7045
  118SOPE  H11S12451   0.469   6.231   6.736 -0.0877  0.7175 -0.1617
  118SOPE  C21212452   0.281   6.233   6.632 -0.4998  0.4730 -0.0389
  118SOPE  H12R12453   0.171   6.234   6.648 -0.2876 -1.4142  2.0686
  118SOPE  H12S12454   0.289   6.130   6.591 -0.7784 -1.2445  3.8048
  118SOPE  C21312455   0.318   6.347   6.535 -0.4404  0.0006 -0.7568
  118SOPE  H13R12456   0.375   6.426   6.589 -3.1223 -0.8688  3.9085
  118SOPE  H13S12457   0.221   6.391   6.504 -0.0270  0.0717 -2.0272
  118SOPE  C21412458   0.376   6.303   6.402  0.4210  0.1180 -0.0152
  118SOPE  H14R12459   0.295   6.248   6.350 -0.2847  2.4323 -1.5335
  118SOPE  H14S12460   0.458   6.229   6.416  0.0639 -0.3144 -0.1710
  118SOPE  C21512461   0.417   6.419   6.317 -0.1246  0.4912  0.1948
  118SOPE  H15R12462   0.488   6.491   6.362 -0.1259 -0.3004  1.5126
  118SOPE  H15S12463   0.325   6.466   6.278  0.4459  0.3521 -1.4004
  118SOPE  C21612464   0.490   6.370   6.191 -0.1056  0.0399  0.2394
  118SOPE  H16R12465   0.436   6.282   6.152  0.3663  0.9278 -2.6362
  118SOPE  H16S12466   0.594   6.343   6.221 -0.3402 -0.6724  0.4300
  118SOPE  C21712467   0.497   6.469   6.082  0.5495 -0.0604  0.4500
  118SOPE  H17R12468   0.396   6.506   6.054  1.2734  0.3668 -1.8048
  118SOPE  H17S12469   0.537   6.420   5.990 -0.3938 -2.6044  1.3068
  118SOPE  C21812470   0.592   6.579   6.111 -0.0803  0.3227  0.6158
  118SOPE  H18R12471   0.683   6.539   6.162 -0.4075 -0.2573  0.7511
  118SOPE  H18S12472   0.542   6.639   6.190 -1.9682  0.2993 -0.4953
  118SOPE  H18T12473   0.614   6.623   6.012  0.5813 -3.9891 -1.3987
  118SOPE   C3312474  -0.015   6.554   7.103  0.7460  0.6011  0.4636
  118SOPE   H3X12475  -0.108   6.502   7.133  1.9831 -3.1685 -1.5939
  118SOPE   H3Y12476   0.056   6.470   7.094 -0.2748 -0.0733 -2.1782
  118SOPE   C3412477  -0.048   6.618   6.966 -0.2014 -0.5744  0.4616
  118SOPE   H4X12478   0.045   6.672   6.940 -0.2400 -0.6683  0.1224
  118SOPE   H4Y12479  -0.123   6.698   6.981 -0.6346 -0.8503 -0.1952
  118SOPE   C3512480  -0.081   6.520   6.853 -0.1953 -0.6570  0.0816
  118SOPE   H5X12481  -0.156   6.446   6.889 -0.2625  0.3210  2.1072
  118SOPE   H5Y12482   0.013   6.462   6.839 -0.4249 -0.9192 -0.3810
  118SOPE   C3612483  -0.135   6.576   6.719 -0.2295  0.5391  0.1200
  118SOPE   H6X12484  -0.207   6.659   6.730  0.4115  0.7492  4.6441
  118SOPE   H6Y12485  -0.174   6.492   6.657 -1.1039  0.5213  0.6745
  118SOPE   C3712486  -0.022   6.636   6.639 -0.3409  0.2764  0.4793
  118SOPE   H7X12487   0.062   6.566   6.624 -0.7181 -0.1952  0.5595
  118SOPE   H7Y12488   0.017   6.723   6.696  0.5148 -0.3541  0.8660
  118SOPE   C3812489  -0.081   6.678   6.501 -1.1156 -0.1135 -0.0106
  118SOPE   H8X12490  -0.129   6.777   6.514  1.5577  1.2179  0.4954
  118SOPE   H8Y12491  -0.154   6.599   6.473  1.2677 -1.7639 -2.0570
  118SOPE   C3912492   0.026   6.680   6.385  0.0093 -0.0360 -0.0494
  118SOPE   H9X12493   0.095   6.599   6.417  2.0841  1.9627  0.8619
  118SOPE   H9Y12494   0.071   6.782   6.386 -1.4029  0.6765 -2.1886
  118SOPE  C31012495  -0.024   6.660   6.247  0.1978 -0.1703  0.0597
  118SOPE  H10X12496  -0.075   6.752   6.211  2.1701 -0.0881 -2.9179
  118SOPE  H10Y12497  -0.094   6.574   6.240 -1.4559  0.8403  2.7377
  118SOPE  C31112498   0.097   6.627   6.157 -0.0633 -0.4824  0.6364
  118SOPE  H11X12499   0.119   6.518   6.169  1.8148 -0.0508  1.3209
  118SOPE  H11Y12500   0.182   6.692   6.186 -0.3318  0.7299 -1.1471
  118SOPE  C31212501   0.069   6.674   6.008 -0.5167 -0.6512  0.9519
  118SOPE  H12X12502   0.029   6.778   6.002  0.7253  0.0970  3.9399
  118SOPE  H12Y12503  -0.008   6.616   5.953 -0.5198  0.2119  0.0074
  118SOPE  C31312504   0.199   6.665   5.924  0.2367  0.6158 -0.0474
  118SOPE  H13X12505   0.221   6.561   5.895 -0.7019  0.7688 -1.3900
  118SOPE  H13Y12506   0.281   6.690   5.996 -0.1757 -0.8433  0.9643
  118SOPE  C31412507   0.199   6.749   5.799  0.1601 -0.0618 -0.3923
  118SOPE  H14X12508   0.135   6.838   5.817  1.0251  0.0599  2.5775
  118SOPE  H14Y12509   0.152   6.685   5.721 -0.8135  0.0554  0.0825
  118SOPE  C31512510   0.338   6.804   5.766 -0.0731  0.2071 -0.1488
  118SOPE  H15X12511   0.379   6.862   5.852  0.5254  0.7167 -0.7624
  118SOPE  H15Y12512   0.326   6.882   5.688  1.7227 -2.3135 -3.1687
  118SOPE  C31612513   0.439   6.683   5.738  0.2854  0.2703 -0.0902
  118SOPE  H16X12514   0.391   6.621   5.659 -0.7425 -0.3778  1.0005
  118SOPE  H16Y12515   0.458   6.619   5.827 -4.8854 -0.6685  0.6561
  118SOPE  C31712516   0.575   6.734   5.694  0.2186  0.0105  0.3056
  118SOPE  H17X12517   0.644   6.648   5.680 -1.1290 -1.1527  0.6264
  118SOPE  H17Y12518   0.619   6.797   5.774  0.9080  0.4659 -0.4150
  118SOPE  C31812519   0.583   6.808   5.562  0.0789 -0.1792  0.4179
  118SOPE  H18X12520   0.498   6.879   5.557 -0.0872 -0.4423 -0.6165
  118SOPE  H18Y12521   0.582   6.732   5.481 -1.8168 -0.1295  0.3500
  118SOPE  H18Z12522   0.677   6.867   5.557 -0.2771  0.6031  2.1526
  119SOPE     N12523   1.761   6.726   7.998  0.1964  0.4188  0.4348
  119SOPE   HN112524   1.710   6.724   8.089 -0.5879 -0.9216 -0.0061
  119SOPE   HN212525   1.751   6.816   7.947 -0.9472 -0.4574 -0.9637
  119SOPE   HN312526   1.718   6.653   7.938 -0.4385  1.7393 -0.7921
  119SOPE   C1212527   1.910   6.712   8.019  0.0852  1.0443  0.1960
  119SOPE  H12A12528   1.915   6.648   8.110 -1.1895  0.6619  0.0213
  119SOPE  H12B12529   1.945   6.817   8.035  1.9771  0.4823 -0.0593
  119SOPE   C1112530   1.983   6.657   7.891  0.7388 -0.0711  0.6201
  119SOPE  H11A12531   2.093   6.671   7.902  0.8626  0.3777 -0.9325
  119SOPE  H11B12532   1.948   6.725   7.810 -3.6213 -0.4860  1.8882
  119SOPE     P12533   1.839   6.480   7.758 -0.1839 -0.0133 -0.4384
  119SOPE   O1312534   1.729   6.576   7.781  0.1356  0.6082  0.0535
  119SOPE   O1412535   1.813   6.336   7.779 -0.0259 -0.0860 -0.6407
  119SOPE   O1212536   1.961   6.521   7.861  0.3039  0.5333  0.1383
  119SOPE   O1112537   1.899   6.503   7.613 -0.8961 -0.1508  0.3613
  119SOPE    C112538   2.013   6.415   7.584  0.0708 -0.1609 -0.5693
  119SOPE    HA12539   1.999   6.310   7.615 -0.7551  0.4983  1.4613
  119SOPE    HB12540   2.112   6.448   7.622 -0.4117 -1.4136  1.9554
  119SOPE    C212541   2.049   6.404   7.430 -0.1793  0.1069  0.0115
  119SOPE    HS12542   2.133   6.331   7.428  1.2092  1.6485 -1.0842
  119SOPE   O2112543   2.092   6.531   7.385 -0.2594  0.4671  0.5052
  119SOPE   C2112544   2.161   6.527   7.270 -0.5035  0.2254 -0.1281
  119SOPE   O2212545   2.206   6.420   7.228  0.1331 -0.3726 -0.1855
  119SOPE   C2212546   2.178   6.670   7.210  0.2489 -0.4726  0.2047
  119SOPE   H2R12547   2.249   6.728   7.272  0.0747  2.3119 -1.9971
  119SOPE   H2S12548   2.078   6.718   7.208 -0.3772 -1.7505 -0.6184
  119SOPE    C312549   1.923   6.350   7.354  0.5034  0.3997  0.7758
  119SOPE    HX12550   1.848   6.432   7.351  0.0314 -0.0504 -0.4127
  119SOPE    HY12551   1.866   6.272   7.407 -0.2289  0.1604 -0.3245
  119SOPE   O3112552   1.945   6.311   7.216 -0.2418 -0.3501  0.1695
  119SOPE   C3112553   2.012   6.195   7.206  0.3809  0.3834  0.8469
  119SOPE   O3212554   2.054   6.126   7.297 -0.7903 -0.0686 -0.1183
  119SOPE   C3212555   2.029   6.170   7.051  0.0017  0.5579  0.4742
  119SOPE   H2X12556   2.059   6.267   7.004 -0.8267  0.6340  0.0785
  119SOPE   H2Y12557   1.921   6.157   7.030  0.2006 -0.7705  0.1835
  119SOPE   C2312558   2.222   6.653   7.059  0.1835  0.1465 -0.0939
  119SOPE   H3R12559   2.309   6.584   7.058 -1.7750 -2.5172 -0.9519
  119SOPE   H3S12560   2.246   6.754   7.021 -1.5098  0.9882  0.9420
  119SOPE   C2412561   2.113   6.599   6.963 -0.8869  0.3694 -0.1416
  119SOPE   H4R12562   2.074   6.505   7.008 -0.3556  0.0772 -0.2890
  119SOPE   H4S12563   2.029   6.671   6.958 -0.3673  0.9174 -1.3152
  119SOPE   C2512564   2.168   6.579   6.825  0.3157  0.2321  0.6144
  119SOPE   H5R12565   2.211   6.674   6.787 -1.2164  0.4313 -0.7217
  119SOPE   H5S12566   2.249   6.503   6.835  0.3299  0.1827  0.1491
  119SOPE   C2612567   2.058   6.523   6.738  0.7340  0.3068  0.4288
  119SOPE   H6R12568   2.018   6.430   6.785  0.7429 -0.7539 -1.5370
  119SOPE   H6S12569   1.976   6.596   6.726  1.7846  1.7750  1.8407
  119SOPE   C2712570   2.108   6.467   6.600 -0.3206  0.1932 -0.5362
  119SOPE   H7R12571   2.203   6.414   6.620 -0.3216  1.1867  2.7388
  119SOPE   H7S12572   2.037   6.386   6.575  0.4828 -1.1766  1.4381
  119SOPE   C2812573   2.102   6.572   6.486  0.1012 -0.8138 -1.1232
  119SOPE   H8R12574   2.006   6.628   6.487  0.5829  0.2951  3.0115
  119SOPE   H8S12575   2.171   6.648   6.529 -0.5550 -0.8541  0.0548
  119SOPE   C2912576   2.158   6.528   6.356  0.6957  0.2531 -0.5882
  119SOPE   H9112577   2.157   6.418   6.349 -0.8362 -0.0175  2.3575
  119SOPE  C21012578   2.205   6.596   6.249 -0.7651 -0.4324 -0.4459
  119SOPE  H10112579   2.241   6.542   6.160 -2.4879 -0.9704 -0.8587
  119SOPE  C21112580   2.213   6.746   6.249 -0.3196  0.7926 -0.1060
  119SOPE  H11R12581   2.297   6.780   6.184  1.1035  0.6895  1.5950
  119SOPE  H11S12582   2.229   6.787   6.351  0.4825 -3.5700  1.7731
  119SOPE  C21212583   2.087   6.806   6.182 -0.4208  0.4501  0.2093
  119SOPE  H12R12584   1.993   6.780   6.236 -0.7708  1.8488  0.3315
  119SOPE  H12S12585   2.081   6.761   6.081  0.7175  0.4779  0.1255
  119SOPE  C21312586   2.085   6.962   6.152  0.6050  0.0945  0.4223
  119SOPE  H13R12587   2.149   6.998   6.069  1.9661  0.7271  1.6901
  119SOPE  H13S12588   2.097   7.026   6.242  1.2147  1.3188 -0.5050
  119SOPE  C21412589   1.940   7.004   6.119  1.2221 -0.1907 -0.2084
  119SOPE  H14R12590   1.931   7.114   6.132  0.2554 -0.4571  1.7613
  119SOPE  H14S12591   1.886   6.967   6.209 -0.7366  1.2042 -0.7410
  119SOPE  C21512592   1.867   6.957   5.988 -0.1802 -0.8857 -0.0221
  119SOPE  H15R12593   1.769   7.008   5.994 -0.0820 -0.7890  0.7544
  119SOPE  H15S12594   1.840   6.849   5.986 -0.8691 -0.7150 -0.4771
  119SOPE  C21612595   1.935   6.984   5.848  0.3597 -0.4967 -0.6209
  119SOPE  H16R12596   1.864   6.962   5.766  0.3038  0.0716 -0.7280
  119SOPE  H16S12597   2.030   6.927   5.841  0.4315 -0.4668  0.0392
  119SOPE  C21712598   1.979   7.127   5.849 -0.3226 -0.9374 -0.1715
  119SOPE  H17R12599   2.064   7.143   5.918  1.3092  0.0415 -2.2656
  119SOPE  H17S12600   1.902   7.203   5.873 -0.4216 -0.5554 -1.6088
  119SOPE  C21812601   2.033   7.167   5.706  0.2248 -0.2956 -0.1221
  119SOPE  H18R12602   2.075   7.270   5.706 -1.1957  0.3346 -1.4615
  119SOPE  H18S12603   1.942   7.172   5.642  0.7772 -0.0565 -0.8964
  119SOPE  H18T12604   2.110   7.096   5.671  0.6625 -0.9835  2.0503
  119SOPE   C3312605   2.096   6.036   7.007 -0.2299 -0.0306  0.6365
  119SOPE   H3X12606   2.106   5.960   7.087  1.3095 -0.4127  0.1265
  119SOPE   H3Y12607   2.201   6.071   7.000 -0.2351  0.5064  2.7675
  119SOPE   C3412608   2.038   5.974   6.880 -0.0904  0.5255 -0.2644
  119SOPE   H4X12609   2.069   6.034   6.792 -0.5509  1.2266  0.0406
  119SOPE   H4Y12610   1.928   5.974   6.889  0.0166  1.5976  1.5243
  119SOPE   C3512611   2.089   5.834   6.855 -0.1457  0.5943 -0.0438
  119SOPE   H5X12612   2.064   5.761   6.935 -0.1442  1.3144  0.6258
  119SOPE   H5Y12613   2.200   5.841   6.858 -0.2383  3.3030 -0.1886
  119SOPE   C3612614   2.041   5.775   6.714  0.4502  0.3158 -0.2518
  119SOPE   H6X12615   1.931   5.795   6.712  0.2308 -0.8607 -0.4957
  119SOPE   H6Y12616   2.046   5.665   6.727 -2.6867  0.2550  1.8110
  119SOPE   C3712617   2.121   5.814   6.593  0.5246 -0.1092 -0.4946
  119SOPE   H7X12618   2.231   5.802   6.600  1.0775  4.1265  1.4767
  119SOPE   H7Y12619   2.118   5.925   6.588 -0.2684 -0.1190 -0.3569
  119SOPE   C3812620   2.054   5.754   6.471  0.3484  0.9256 -0.1153
  119SOPE   H8X12621   1.956   5.804   6.454  0.2386  0.8795  0.3754
  119SOPE   H8Y12622   2.028   5.649   6.494  1.1733  0.3375 -1.7538
  119SOPE   C3912623   2.138   5.759   6.343 -0.1444 -0.2290 -1.0060
  119SOPE   H9X12624   2.244   5.733   6.358  0.1294  0.5947 -1.4218
  119SOPE   H9Y12625   2.140   5.863   6.304  1.8225  0.8001  1.6038
  119SOPE  C31012626   2.083   5.674   6.227  0.0118 -0.5276 -0.0508
  119SOPE  H10X12627   1.979   5.704   6.202 -1.0951 -2.6855  1.6348
  119SOPE  H10Y12628   2.067   5.570   6.261 -0.6461 -0.1918  0.7213
  119SOPE  C31112629   2.170   5.657   6.097 -0.3071 -0.7188 -0.8102
  119SOPE  H11X12630   2.263   5.601   6.121 -0.0884  0.2134  0.6486
  119SOPE  H11Y12631   2.202   5.760   6.071  2.4618 -1.0816  0.8124
  119SOPE  C31212632   2.098   5.602   5.985  0.2375 -0.4450  0.6534
  119SOPE  H12X12633   1.989   5.620   5.992  0.1559  0.7025 -2.2442
  119SOPE  H12Y12634   2.112   5.492   5.979 -1.1634 -0.6062  0.1068
  119SOPE  C31312635   2.155   5.654   5.850 -0.3679 -0.1288 -0.6521
  119SOPE  H13X12636   2.145   5.764   5.840 -1.7260 -0.0544  1.2310
  119SOPE  H13Y12637   2.093   5.624   5.763 -2.1488 -0.7492  0.7871
  119SOPE  C31412638   2.303   5.611   5.836  0.8472 -0.6453 -0.1067
  119SOPE  H14X12639   2.299   5.503   5.812 -1.8675 -0.6775  0.1877
  119SOPE  H14Y12640   2.360   5.631   5.928 -0.9427  0.4180  0.8434
  119SOPE  C31512641   2.373   5.674   5.714 -0.4387 -0.1499 -0.3491
  119SOPE  H15X12642   2.483   5.661   5.720 -0.5267 -1.6709 -1.3054
  119SOPE  H15Y12643   2.377   5.781   5.742  2.7197 -0.0805 -0.7513
  119SOPE  C31612644   2.309   5.638   5.587  0.8245  0.1125  0.1409
  119SOPE  H16X12645   2.207   5.682   5.581  0.8412  0.0458 -0.7083
  119SOPE  H16Y12646   2.313   5.527   5.581  2.4653  0.1308  0.4688
  119SOPE  C31712647   2.383   5.686   5.466  0.2008 -0.5094  0.1058
  119SOPE  H17X12648   2.478   5.628   5.464 -1.0771 -2.6806 -0.9889
  119SOPE  H17Y12649   2.405   5.794   5.480  1.4285 -0.5152 -1.5069
  119SOPE  C31812650   2.306   5.675   5.340 -0.2621 -0.0735  0.7304
  119SOPE  H18X12651   2.382   5.683   5.259 -0.3061 -0.0210  0.6940
  119SOPE  H18Y12652   2.233   5.757   5.324  0.1786 -0.1530 -2.2482
  119SOPE  H18Z12653   2.250   5.580   5.334 -4.4228  1.8442  3.8257
  120SOPE     N12654   0.754   1.103   8.412 -0.2097 -0.6345  0.9741
  120SOPE   HN112655   0.696   1.031   8.365  0.2571  0.1543 -0.9342
  120SOPE   HN212656   0.843   1.062   8.447  0.0263  0.2408  1.4391
  120SOPE   HN312657   0.701   1.140   8.493 -0.6740  2.6126 -0.6316
  120SOPE   C1212658   0.799   1.224   8.318  0.1748  0.2284  0.0797
  120SOPE  H12A12659   0.874   1.284   8.374 -1.3930  2.2723  0.1050
  120SOPE  H12B12660   0.703   1.273   8.295 -0.7847 -0.2689  2.6228
  120SOPE   C1112661   0.870   1.158   8.200  0.3414  0.1256  0.3032
  120SOPE  H11A12662   0.970   1.125   8.235 -0.6168 -2.4812  0.8028
  120SOPE  H11B12663   0.882   1.230   8.116  0.6390  0.8574  0.9580
  120SOPE     P12664   0.693   1.031   8.043  0.4730  0.3561  0.1619
  120SOPE   O1312665   0.602   1.140   8.074  0.1334 -0.7851  0.4740
  120SOPE   O1412666   0.630   0.900   8.052  0.0451 -0.0117  0.3649
  120SOPE   O1212667   0.808   1.037   8.152  0.5309  0.0084 -0.5264
  120SOPE   O1112668   0.763   1.051   7.906 -0.3077 -0.1088 -0.2194
  120SOPE    C112669   0.781   0.943   7.813  0.3523  0.5449 -0.1327
  120SOPE    HA12670   0.731   0.852   7.852 -0.0350  0.7287 -0.1877
  120SOPE    HB12671   0.888   0.917   7.800 -0.2172 -1.2208 -1.5883
  120SOPE    C212672   0.721   0.978   7.681 -0.0732 -0.2307 -0.7048
  120SOPE    HS12673   0.610   0.971   7.691  0.1286 -1.2531  1.3544
  120SOPE   O2112674   0.782   0.883   7.594 -0.2965  0.4994 -0.0217
  120SOPE   C2112675   0.717   0.853   7.490  0.1560 -0.1904  0.2813
  120SOPE   O2212676   0.604   0.900   7.466 -0.5108  0.1256  0.3339
  120SOPE   C2212677   0.794   0.751   7.411  0.7271  0.4071  0.8610
  120SOPE   H2R12678   0.837   0.672   7.476  1.0669  0.2782  0.4805
  120SOPE   H2S12679   0.875   0.814   7.367  0.9761 -0.2802  0.3302
  120SOPE    C312680   0.758   1.125   7.640 -0.7586 -0.0563  0.4511
  120SOPE    HX12681   0.866   1.128   7.614 -0.8555  0.2884  0.0787
  120SOPE    HY12682   0.745   1.194   7.726 -2.4422 -0.8181  0.8606
  120SOPE   O3112683   0.680   1.178   7.524  0.7806 -0.0352 -0.6563
  120SOPE   C3112684   0.554   1.207   7.556  0.5249  0.0289 -0.4515
  120SOPE   O3212685   0.508   1.206   7.667  1.0809 -0.4677 -0.0215
  120SOPE   C3212686   0.476   1.240   7.427  0.3078  0.5991  1.3275
  120SOPE   H2X12687   0.454   1.145   7.373 -0.8348  1.7516 -0.3525
  120SOPE   H2Y12688   0.547   1.294   7.361 -1.5418 -0.5132 -1.8359
  120SOPE   C2312689   0.710   0.686   7.297  0.3671 -0.0401 -0.1523
  120SOPE   H3R12690   0.666   0.776   7.249  2.3223  0.4051 -1.1964
  120SOPE   H3S12691   0.617   0.642   7.341  1.1339 -1.6459 -0.0632
  120SOPE   C2412692   0.786   0.601   7.204  0.3702 -0.0377 -0.2483
  120SOPE   H4R12693   0.855   0.666   7.146 -0.3566 -1.0912 -2.3886
  120SOPE   H4S12694   0.837   0.519   7.259  1.2964  0.6681 -0.0292
  120SOPE   C2512695   0.707   0.542   7.089  0.6794  0.6995  0.8612
  120SOPE   H5R12696   0.617   0.484   7.120 -0.2074  0.3528 -2.0100
  120SOPE   H5S12697   0.658   0.623   7.031 -1.6760 -0.3894  1.1920
  120SOPE   C2612698   0.796   0.449   7.001 -0.4614 -0.2912 -0.1223
  120SOPE   H6R12699   0.891   0.503   6.980  0.2224 -1.7068 -0.7988
  120SOPE   H6S12700   0.822   0.364   7.068 -2.1124 -2.2661 -1.8488
  120SOPE   C2712701   0.727   0.399   6.878 -0.0462  0.3078  0.4876
  120SOPE   H7R12702   0.637   0.337   6.894 -0.1216  0.0897 -0.6592
  120SOPE   H7S12703   0.704   0.485   6.812  0.1638 -0.1078 -0.1351
  120SOPE   C2812704   0.834   0.310   6.812  0.2706 -0.2047  0.6000
  120SOPE   H8R12705   0.906   0.388   6.782 -1.5358  1.7383  1.1202
  120SOPE   H8S12706   0.892   0.243   6.879  1.3299 -1.8994 -1.8719
  120SOPE   C2912707   0.789   0.230   6.691 -0.2740 -0.1705  0.0046
  120SOPE   H9112708   0.713   0.156   6.720  0.1011 -0.3139  0.6298
  120SOPE  C21012709   0.831   0.236   6.568  0.0873 -0.3019 -0.2193
  120SOPE  H10112710   0.789   0.167   6.494 -2.1831  0.3279  0.3878
  120SOPE  C21112711   0.942   0.321   6.525 -1.2607 -0.2314  0.4320
  120SOPE  H11R12712   1.035   0.260   6.535 -0.8198  0.3195 -0.2105
  120SOPE  H11S12713   0.953   0.421   6.573  0.0005 -0.5811  0.9139
  120SOPE  C21212714   0.929   0.362   6.378 -0.4211  0.2467  0.9014
  120SOPE  H12R12715   0.909   0.275   6.312 -0.1947 -1.3204  2.7959
  120SOPE  H12S12716   1.026   0.408   6.352 -1.0459  0.8635 -0.4344
  120SOPE  C21312717   0.819   0.463   6.353  0.8529 -0.3343 -0.1550
  120SOPE  H13R12718   0.819   0.549   6.423  0.9672  0.2611 -0.8748
  120SOPE  H13S12719   0.723   0.413   6.378  0.2938  1.3067  1.1901
  120SOPE  C21412720   0.816   0.534   6.212  0.0118 -0.6699 -0.6466
  120SOPE  H14R12721   0.815   0.444   6.148  0.3363 -1.0405 -0.1410
  120SOPE  H14S12722   0.918   0.580   6.215  0.6046 -1.9633  1.5433
  120SOPE  C21512723   0.693   0.633   6.190  0.0445  0.5059 -0.2737
  120SOPE  H15R12724   0.689   0.698   6.280 -0.0834  0.6259 -0.3644
  120SOPE  H15S12725   0.599   0.574   6.196  1.6133 -1.9632  1.4753
  120SOPE  C21612726   0.706   0.682   6.049  0.0438  0.0276 -0.8173
  120SOPE  H16R12727   0.682   0.595   5.984 -0.9856 -0.8369  0.6462
  120SOPE  H16S12728   0.809   0.714   6.022 -0.7908  3.8603 -0.0150
  120SOPE  C21712729   0.613   0.803   6.020 -0.6177  0.5629  1.6945
  120SOPE  H17R12730   0.506   0.777   6.028 -1.0461  0.0773 -3.0110
  120SOPE  H17S12731   0.616   0.823   5.911  0.0847 -2.3446  1.1110
  120SOPE  C21812732   0.640   0.936   6.087  0.4260 -0.4215  0.6041
  120SOPE  H18R12733   0.648   0.927   6.198 -0.6437 -3.1720  0.5349
  120SOPE  H18S12734   0.554   1.006   6.087 -0.5607 -1.5872  1.4344
  120SOPE  H18T12735   0.735   0.987   6.060 -1.3406  2.4588 -0.6270
  120SOPE   C3312736   0.342   1.310   7.440 -0.5586  0.4505 -0.2715
  120SOPE   H3X12737   0.345   1.393   7.514  0.5532 -0.7105  1.0450
  120SOPE   H3Y12738   0.264   1.242   7.483  0.5778 -0.3126  0.6443
  120SOPE   C3412739   0.277   1.369   7.312 -0.3477 -0.2288 -0.2323
  120SOPE   H4X12740   0.345   1.433   7.252 -0.2017  0.3719  0.5610
  120SOPE   H4Y12741   0.190   1.428   7.347  0.9991 -0.3820  3.9618
  120SOPE   C3512742   0.216   1.267   7.217  0.2033 -0.1091  0.5510
  120SOPE   H5X12743   0.153   1.190   7.268  2.1226 -1.5783  0.8161
  120SOPE   H5Y12744   0.302   1.209   7.177 -0.1485 -0.7194  0.6594
  120SOPE   C3612745   0.148   1.328   7.102 -0.4111 -0.8412 -0.5106
  120SOPE   H6X12746   0.207   1.386   7.029 -0.5312  0.6619  0.5471
  120SOPE   H6Y12747   0.074   1.397   7.149 -0.4077  0.7725 -2.7378
  120SOPE   C3712748   0.070   1.225   7.022  0.4253 -0.4450 -0.3289
  120SOPE   H7X12749   0.015   1.273   6.938  0.6282 -1.6345 -1.1599
  120SOPE   H7Y12750  -0.011   1.186   7.087  1.1301 -1.1808  0.1279
  120SOPE   C3812751   0.162   1.129   6.948  0.5846  0.3430 -0.5567
  120SOPE   H8X12752   0.214   1.071   7.026 -0.9445  1.0969  1.0876
  120SOPE   H8Y12753   0.234   1.177   6.878  0.3158 -0.0316 -1.1075
  120SOPE   C3912754   0.075   1.023   6.871 -0.2695  0.0378 -0.2397
  120SOPE   H9X12755  -0.026   1.067   6.855 -0.2367  0.3182  0.3154
  120SOPE   H9Y12756   0.077   0.926   6.925 -2.3165  1.3343  2.3860
  120SOPE  C31012757   0.138   0.999   6.730 -0.4659 -0.1844 -0.4500
  120SOPE  H10X12758   0.247   0.977   6.724  0.1074  2.4859 -0.9872
  120SOPE  H10Y12759   0.130   1.102   6.689  0.2233  0.7090  1.5387
  120SOPE  C31112760   0.042   0.910   6.647 -0.0583 -0.0430 -0.4617
  120SOPE  H11X12761  -0.053   0.967   6.641 -0.7797 -1.2238 -0.5159
  120SOPE  H11Y12762   0.022   0.809   6.688  0.3376 -0.0095 -0.1857
  120SOPE  C31212763   0.093   0.892   6.506 -0.2325 -0.6995 -0.1288
  120SOPE  H12X12764   0.067   0.788   6.478 -0.1933 -0.7920  0.1814
  120SOPE  H12Y12765   0.203   0.900   6.515 -0.4705 -0.2905  4.1048
  120SOPE  C31312766   0.048   1.004   6.408 -0.1952  0.4363  0.5981
  120SOPE  H13X12767   0.020   1.096   6.464 -3.5307  0.5729 -1.0795
  120SOPE  H13Y12768  -0.038   0.967   6.348  0.3744  0.1830 -0.0769
  120SOPE  C31412769   0.163   1.044   6.316  0.7948  0.4990 -0.3353
  120SOPE  H14X12770   0.198   0.959   6.253 -1.9024  0.8751 -2.5349
  120SOPE  H14Y12771   0.248   1.079   6.379  1.9084  0.7970 -1.9472
  120SOPE  C31512772   0.143   1.151   6.212  0.0224 -0.1811  0.4269
  120SOPE  H15X12773   0.114   1.249   6.255  0.8152  0.1142  0.2978
  120SOPE  H15Y12774   0.068   1.100   6.148  0.0975 -0.1485  0.3129
  120SOPE  C31612775   0.273   1.163   6.131 -0.6050  0.0448  0.7636
  120SOPE  H16X12776   0.339   1.075   6.138 -1.3946 -0.8184 -1.5615
  120SOPE  H16Y12777   0.343   1.242   6.166  1.0464 -0.9078 -0.2988
  120SOPE  C31712778   0.246   1.187   5.983 -0.4496 -0.7348 -0.1962
  120SOPE  H17X12779   0.193   1.284   5.974  0.1020 -0.4188 -0.1237
  120SOPE  H17Y12780   0.183   1.107   5.939 -3.1936  1.2053 -0.0125
  120SOPE  C31812781   0.367   1.190   5.887 -0.7333  0.5906  0.4520
  120SOPE  H18X12782   0.450   1.248   5.933  0.0114 -0.6952  0.7496
  120SOPE  H18Y12783   0.347   1.223   5.782 -3.1072 -0.4967  0.5131
  120SOPE  H18Z12784   0.403   1.087   5.870 -2.4311  0.0391 -0.0016
  121SOPE     N12785   1.209   0.599   7.785 -0.5035 -0.1849 -0.2560
  121SOPE   HN112786   1.223   0.696   7.752  1.0844 -1.5025 -4.0349
  121SOPE   HN212787   1.219   0.597   7.889  1.4865 -0.2083 -0.4149
  121SOPE   HN312788   1.285   0.545   7.738  0.5185  0.5385  0.5150
  121SOPE   C1212789   1.080   0.543   7.732 -1.1209 -0.4736  0.5273
  121SOPE  H12A12790   1.088   0.433   7.729 -3.7927 -0.7096 -1.3649
  121SOPE  H12B12791   1.068   0.581   7.628 -1.1512 -0.6266  0.4757
  121SOPE   C1112792   0.964   0.592   7.825 -0.2512 -0.0533  0.4528
  121SOPE  H11A12793   0.868   0.574   7.773 -0.3797  3.1902 -0.6736
  121SOPE  H11B12794   0.964   0.703   7.826 -1.0086 -0.0399 -0.2571
  121SOPE     P12795   0.923   0.392   7.995 -0.1949 -0.2758 -0.0963
  121SOPE   O1312796   0.778   0.400   8.035 -0.0689  0.0432  0.4281
  121SOPE   O1412797   1.020   0.344   8.101  0.6819 -0.5076 -0.3017
  121SOPE   O1212798   0.964   0.541   7.959  0.6345  0.6502 -0.1981
  121SOPE   O1112799   0.953   0.320   7.859 -0.4224  0.5067 -0.4823
  121SOPE    C112800   1.001   0.182   7.857  0.3045  0.3382 -0.7256
  121SOPE    HA12801   0.948   0.116   7.929  0.7371  0.6511 -0.1066
  121SOPE    HB12802   1.109   0.179   7.882  0.1739  1.5127  0.0740
  121SOPE    C212803   0.985   0.126   7.713 -0.1548  0.0952  0.6429
  121SOPE    HS12804   1.034   0.197   7.643 -0.2663 -2.3110 -2.0898
  121SOPE   O2112805   0.842   0.110   7.676  0.1718 -0.1680  0.2279
  121SOPE   C2112806   0.810   0.177   7.568 -0.2183  0.7025  0.4648
  121SOPE   O2212807   0.890   0.228   7.492  0.1043  0.3720  0.6704
  121SOPE   C2212808   0.661   0.175   7.549 -0.2799 -0.3512  0.0206
  121SOPE   H2R12809   0.601   0.209   7.636  1.4913  1.8493  0.4780
  121SOPE   H2S12810   0.631   0.068   7.543 -0.7563 -0.2018 -0.3700
  121SOPE    C312811   1.054  -0.005   7.690 -0.0067  0.3876 -0.5081
  121SOPE    HX12812   0.988  -0.090   7.715 -0.8169  1.3342  0.7063
  121SOPE    HY12813   1.144  -0.010   7.756  1.3271 -1.0199 -2.3331
  121SOPE   O3112814   1.098  -0.019   7.557 -0.0048  0.2516  0.1637
  121SOPE   C3112815   1.206   0.048   7.506  0.4923 -0.0596 -0.7582
  121SOPE   O3212816   1.270   0.131   7.573 -0.9793  0.0541  0.3460
  121SOPE   C3212817   1.249  -0.006   7.373  0.7651 -0.1428  0.6537
  121SOPE   H2X12818   1.163  -0.061   7.329 -0.0473  1.1177  0.6198
  121SOPE   H2Y12819   1.330  -0.081   7.378  0.6740 -0.1639  3.7923
  121SOPE   C2312820   0.630   0.248   7.418 -0.6755  0.4554  0.0814
  121SOPE   H3R12821   0.664   0.190   7.330 -1.0492 -1.9748  1.4696
  121SOPE   H3S12822   0.690   0.342   7.415 -0.5318  0.4723  2.1320
  121SOPE   C2412823   0.476   0.283   7.401  0.2124  0.6494 -0.3431
  121SOPE   H4R12824   0.453   0.340   7.493  1.0113 -1.4056  1.2077
  121SOPE   H4S12825   0.476   0.348   7.310  0.1322 -2.0124 -2.3690
  121SOPE   C2512826   0.378   0.162   7.397  0.0838  0.1982 -0.3293
  121SOPE   H5R12827   0.399   0.105   7.490 -0.5691 -0.9786 -0.8814
  121SOPE   H5S12828   0.275   0.204   7.401  0.8558  2.2439 -0.9711
  121SOPE   C2612829   0.383   0.067   7.279  0.3432 -0.3683 -0.1215
  121SOPE   H6R12830   0.488   0.036   7.262  1.1815  1.5063  1.2937
  121SOPE   H6S12831   0.313  -0.015   7.306 -0.2252  0.7309  1.8754
  121SOPE   C2712832   0.331   0.141   7.152 -0.0160 -0.2015  0.3659
  121SOPE   H7R12833   0.228   0.174   7.179  0.0387 -0.2189  0.6000
  121SOPE   H7S12834   0.396   0.229   7.129  0.3149 -0.7257 -0.7737
  121SOPE   C2812835   0.330   0.054   7.024  0.2143  0.0481 -0.0389
  121SOPE   H8R12836   0.439   0.035   7.011  0.3850  0.5447  0.6323
  121SOPE   H8S12837   0.271  -0.040   7.033  0.0437  0.0136 -1.3327
  121SOPE   C2912838   0.272   0.136   6.911  0.2979 -0.4082 -1.0700
  121SOPE   H9112839   0.187   0.204   6.924 -0.0800 -0.8788 -1.0670
  121SOPE  C21012840   0.305   0.117   6.782 -0.8048 -0.8627  0.0223
  121SOPE  H10112841   0.245   0.172   6.707 -0.9790 -0.7680  0.2313
  121SOPE  C21112842   0.398   0.016   6.725 -0.0023 -0.2909 -0.6991
  121SOPE  H11R12843   0.377  -0.075   6.786  0.5369 -0.0994 -0.2262
  121SOPE  H11S12844   0.501   0.050   6.744 -0.2562  0.7080 -1.0422
  121SOPE  C21212845   0.367  -0.020   6.574 -0.0065 -0.1475 -0.3781
  121SOPE  H12R12846   0.258  -0.024   6.554  0.0812  2.1702 -1.6393
  121SOPE  H12S12847   0.403  -0.125   6.569 -1.0178 -0.7120  2.4073
  121SOPE  C21312848   0.429   0.090   6.482 -0.2117 -0.0845  0.2089
  121SOPE  H13R12849   0.535   0.060   6.462  0.4150  1.1260  1.5579
  121SOPE  H13S12850   0.423   0.192   6.525 -2.0696 -0.1237  0.1162
  121SOPE  C21412851   0.350   0.084   6.347  0.0387 -0.1723  0.2828
  121SOPE  H14R12852   0.252   0.132   6.365  0.2074  0.7257 -1.1132
  121SOPE  H14S12853   0.335  -0.022   6.318 -1.5187  0.1703 -0.2459
  121SOPE  C21512854   0.409   0.164   6.232 -0.6484 -0.6044 -0.4770
  121SOPE  H15R12855   0.386   0.273   6.234 -1.1758 -0.7126 -0.6077
  121SOPE  H15S12856   0.371   0.134   6.132 -1.9050 -0.7446  0.0211
  121SOPE  C21612857   0.562   0.156   6.221  0.0256  0.2110 -0.6115
  121SOPE  H16R12858   0.593   0.051   6.197  0.4978  0.6414 -1.9783
  121SOPE  H16S12859   0.612   0.177   6.319 -0.9627 -2.1598  0.4855
  121SOPE  C21712860   0.621   0.248   6.118 -0.4107  0.2983  0.0223
  121SOPE  H17R12861   0.727   0.247   6.151 -0.2879  0.3354 -0.3584
  121SOPE  H17S12862   0.584   0.352   6.129 -0.5094  0.2535  0.1192
  121SOPE  C21812863   0.623   0.196   5.972  0.1115  0.1482  0.5958
  121SOPE  H18R12864   0.700   0.117   5.959  1.0511  1.3671 -1.8027
  121SOPE  H18S12865   0.651   0.271   5.896  2.2138 -2.4303 -1.3751
  121SOPE  H18T12866   0.523   0.160   5.940 -0.3129 -0.3235  2.3316
  121SOPE   C3312867   1.273   0.110   7.272 -0.3109  0.4054 -0.3812
  121SOPE   H3X12868   1.370   0.156   7.302  1.4699 -1.6279 -2.6975
  121SOPE   H3Y12869   1.199   0.192   7.259 -0.1682  0.5111 -0.5172
  121SOPE   C3412870   1.289   0.064   7.129  0.2007  0.1331 -1.1920
  121SOPE   H4X12871   1.340  -0.035   7.132 -0.4688 -0.2076  0.9028
  121SOPE   H4Y12872   1.353   0.139   7.078 -0.3084  1.5946  0.2467
  121SOPE   C3512873   1.159   0.063   7.050  1.2081  0.4356 -0.5238
  121SOPE   H5X12874   1.137   0.170   7.029  3.0169  0.9992  0.2895
  121SOPE   H5Y12875   1.071   0.033   7.110  0.6133 -0.4023 -1.7616
  121SOPE   C3612876   1.162  -0.020   6.919 -0.0527  0.3286  0.1271
  121SOPE   H6X12877   1.060  -0.021   6.875 -0.3154  1.9056  0.6457
  121SOPE   H6Y12878   1.191  -0.125   6.943  1.6405  0.5099 -0.9931
  121SOPE   C3712879   1.266   0.018   6.812 -0.2371  0.0360 -0.2714
  121SOPE   H7X12880   1.253  -0.064   6.738  0.8817 -0.9891  0.6253
  121SOPE   H7Y12881   1.364   0.015   6.865 -0.7989 -0.3886  0.7713
  121SOPE   C3812882   1.250   0.155   6.752  0.3584 -0.7995 -0.5293
  121SOPE   H8X12883   1.279   0.225   6.834  1.6928  0.5678 -2.1077
  121SOPE   H8Y12884   1.139   0.163   6.742  0.1522 -0.7767  1.2958
  121SOPE   C3912885   1.331   0.188   6.622 -0.6297  0.3410 -1.0130
  121SOPE   H9X12886   1.298   0.118   6.542 -0.0473 -0.5668 -0.4709
  121SOPE   H9Y12887   1.440   0.168   6.630 -0.5229  0.5538 -1.7889
  121SOPE  C31012888   1.323   0.339   6.573 -0.0796  0.5560 -0.6707
  121SOPE  H10X12889   1.377   0.407   6.641 -0.5236  0.0467  0.2087
  121SOPE  H10Y12890   1.214   0.359   6.568 -0.2250 -0.3556 -1.3997
  121SOPE  C31112891   1.370   0.349   6.434  0.3534  0.6657 -0.1208
  121SOPE  H11X12892   1.352   0.453   6.398  1.7179  0.9636 -0.0001
  121SOPE  H11Y12893   1.301   0.283   6.379 -0.6553  0.4242  1.3800
  121SOPE  C31212894   1.522   0.312   6.415  0.0285  0.0366  0.0653
  121SOPE  H12X12895   1.545   0.214   6.462  0.0928 -0.5373 -1.1339
  121SOPE  H12Y12896   1.584   0.386   6.470 -0.3840  0.3890  0.0612
  121SOPE  C31312897   1.572   0.304   6.274 -0.1319  0.1550 -0.0636
  121SOPE  H13X12898   1.682   0.291   6.274 -0.2307 -0.7068 -0.6100
  121SOPE  H13Y12899   1.551   0.405   6.231 -0.7907  0.0319 -0.0390
  121SOPE  C31412900   1.525   0.177   6.205 -0.5776 -0.6618 -0.1107
  121SOPE  H14X12901   1.549   0.187   6.097 -1.9865  0.2305 -0.3688
  121SOPE  H14Y12902   1.414   0.171   6.212 -0.4986 -0.2594  2.4277
  121SOPE  C31512903   1.581   0.045   6.259  0.1932 -0.1797 -0.0696
  121SOPE  H15X12904   1.545   0.026   6.362 -0.3172  1.5283  0.1138
  121SOPE  H15Y12905   1.691   0.053   6.248  0.3638 -1.4560  0.5519
  121SOPE  C31612906   1.522  -0.068   6.173  0.5929 -0.3108 -0.7517
  121SOPE  H16X12907   1.554  -0.058   6.067  0.1669 -1.3231 -0.9883
  121SOPE  H16Y12908   1.413  -0.060   6.192  0.3196 -2.0817 -1.4452
  121SOPE  C31712909   1.565  -0.209   6.211 -0.3022  0.1230  0.2263
  121SOPE  H17X12910   1.527  -0.276   6.130  2.5917 -0.9794 -0.3492
  121SOPE  H17Y12911   1.522  -0.229   6.312  1.0992  2.3319  1.3227
  121SOPE  C31812912   1.719  -0.231   6.219  0.3317  0.3367 -0.4772
  121SOPE  H18X12913   1.756  -0.229   6.115 -3.1869  0.4774 -1.8497
  121SOPE  H18Y12914   1.747  -0.316   6.285  1.3154 -0.5669 -1.9884
  121SOPE  H18Z12915   1.757  -0.140   6.271 -1.2411  0.5846  0.3013
  122SOPE     N12916   1.917   0.894   7.927 -0.3880  0.2999  0.3306
  122SOPE   HN112917   1.903   0.798   7.966  0.1859  0.4368  0.8985
  122SOPE   HN212918   2.012   0.918   7.960 -0.2794  2.9243 -1.5788
  122SOPE   HN312919   1.844   0.965   7.947 -1.6061 -0.7321 -0.2386
  122SOPE   C1212920   1.934   0.870   7.778  0.0281 -0.4726 -0.5439
  122SOPE  H12A12921   2.035   0.823   7.770  0.1441 -0.3348  0.0402
  122SOPE  H12B12922   1.942   0.960   7.713  3.3889 -1.0264 -1.0846
  122SOPE   C1112923   1.825   0.781   7.723  0.3996  0.0849 -0.2406
  122SOPE  H11A12924   1.854   0.769   7.616  0.4402 -2.1097 -0.0346
  122SOPE  H11B12925   1.729   0.830   7.749  1.5618  2.2973  0.1017
  122SOPE     P12926   1.903   0.524   7.749  0.0383 -0.4725  0.0236
  122SOPE   O1312927   1.854   0.409   7.830 -0.5276  0.4375  0.4151
  122SOPE   O1412928   2.048   0.567   7.747  0.5540 -0.6031  0.0557
  122SOPE   O1212929   1.827   0.656   7.797 -0.6342  0.2911  0.2200
  122SOPE   O1112930   1.852   0.510   7.597  0.3944 -0.8198  0.7638
  122SOPE    C112931   1.710   0.482   7.571  0.9105 -0.4483 -0.5191
  122SOPE    HA12932   1.668   0.532   7.481  0.0524 -1.1566 -0.5238
  122SOPE    HB12933   1.645   0.499   7.659  0.7718 -1.5602 -0.3907
  122SOPE    C212934   1.690   0.332   7.535  0.0399 -1.3789  0.2717
  122SOPE    HS12935   1.718   0.275   7.626 -1.1808 -0.6557  1.1326
  122SOPE   O2112936   1.775   0.310   7.413  0.7081 -0.5724 -0.3400
  122SOPE   C2112937   1.784   0.179   7.394 -0.1847 -0.1080 -0.0879
  122SOPE   O2212938   1.749   0.095   7.469  1.0312  0.5098  0.0521
  122SOPE   C2212939   1.855   0.160   7.259  0.0356  0.3719  0.8670
  122SOPE   H2R12940   1.949   0.102   7.269 -0.8871 -1.7316 -1.7323
  122SOPE   H2S12941   1.890   0.256   7.215 -1.3645  1.4202  1.9361
  122SOPE    C312942   1.543   0.292   7.511  0.0428 -0.1165 -0.2109
  122SOPE    HX12943   1.494   0.314   7.608  0.3459  1.1750 -0.3246
  122SOPE    HY12944   1.544   0.185   7.484  3.0997 -0.6754  1.6279
  122SOPE   O3112945   1.484   0.365   7.405 -0.2438 -0.4232  0.0608
  122SOPE   C3112946   1.399   0.456   7.433 -0.0507  0.4382  0.2793
  122SOPE   O3212947   1.376   0.497   7.547 -0.0828  0.3218  0.7088
  122SOPE   C3212948   1.361   0.510   7.300  0.4334  0.0902  0.4580
  122SOPE   H2X12949   1.343   0.432   7.222 -0.1173  1.7616 -1.1760
  122SOPE   H2Y12950   1.451   0.557   7.255  1.5895 -1.6060  0.8933
  122SOPE   C2312951   1.772   0.067   7.164  0.4591 -0.1856  0.0432
  122SOPE   H3R12952   1.752  -0.026   7.222  1.7319 -0.4240  0.1209
  122SOPE   H3S12953   1.829   0.032   7.075 -0.2401 -0.9060 -0.1392
  122SOPE   C2412954   1.634   0.133   7.122 -0.5946  0.1461 -0.5177
  122SOPE   H4R12955   1.589   0.059   7.052 -1.1676  0.0477 -0.0510
  122SOPE   H4S12956   1.576   0.150   7.215  0.9808  0.5612  0.4169
  122SOPE   C2512957   1.654   0.268   7.047  0.2596 -0.0765 -0.3149
  122SOPE   H5R12958   1.703   0.341   7.115 -1.1691  0.9639 -0.3552
  122SOPE   H5S12959   1.734   0.254   6.971  1.5351  1.2239  0.7051
  122SOPE   C2612960   1.532   0.334   6.977  0.9171  1.1162  0.2022
  122SOPE   H6R12961   1.486   0.276   6.894 -2.1175  3.2373  0.2550
  122SOPE   H6S12962   1.443   0.347   7.042 -0.4660  1.1347 -1.6145
  122SOPE   C2712963   1.560   0.478   6.924 -0.4768 -0.3301 -0.3044
  122SOPE   H7R12964   1.472   0.503   6.860 -1.9409  2.7350  2.6032
  122SOPE   H7S12965   1.568   0.549   7.009  2.3598 -2.3198  1.2138
  122SOPE   C2812966   1.689   0.504   6.843 -0.0420 -0.4338 -0.3986
  122SOPE   H8R12967   1.775   0.468   6.902 -0.6452  1.2547  1.6104
  122SOPE   H8S12968   1.677   0.442   6.751 -2.9716  0.8475 -0.9953
  122SOPE   C2912969   1.709   0.648   6.806  0.3636  0.5562 -0.2166
  122SOPE   H9112970   1.766   0.704   6.881  0.3741 -1.1294  1.0944
  122SOPE  C21012971   1.655   0.716   6.707 -0.5099  0.6109 -0.0403
  122SOPE  H10112972   1.664   0.825   6.697 -0.7128  0.6271 -0.0376
  122SOPE  C21112973   1.558   0.660   6.598  0.9166  0.1668  0.3459
  122SOPE  H11R12974   1.463   0.717   6.599 -0.0237 -1.3299  2.1125
  122SOPE  H11S12975   1.528   0.556   6.623  0.1517  0.0575 -0.9314
  122SOPE  C21212976   1.606   0.657   6.450 -0.1292 -0.4335 -0.0931
  122SOPE  H12R12977   1.520   0.622   6.389 -0.0649 -0.3465 -0.2351
  122SOPE  H12S12978   1.685   0.581   6.427 -0.3053 -0.8750  0.7306
  122SOPE  C21312979   1.649   0.797   6.398  0.1568 -0.0265 -0.5976
  122SOPE  H13R12980   1.752   0.822   6.433  0.3473  2.7327 -2.7509
  122SOPE  H13S12981   1.573   0.863   6.444 -0.1132 -1.4750  1.1636
  122SOPE  C21412982   1.625   0.809   6.250  0.3577 -0.0779  0.8181
  122SOPE  H14R12983   1.517   0.792   6.232  0.6465 -2.1429  0.8042
  122SOPE  H14S12984   1.668   0.730   6.185 -0.5270 -1.2170  1.5748
  122SOPE  C21512985   1.660   0.953   6.189 -0.2038  0.0717  0.0657
  122SOPE  H15R12986   1.767   0.979   6.202  0.1741 -0.7778 -1.1739
  122SOPE  H15S12987   1.600   1.028   6.245 -1.2051 -1.2914  0.8911
  122SOPE  C21612988   1.639   0.942   6.034  0.4076  0.3303 -0.2742
  122SOPE  H16R12989   1.530   0.928   6.019  0.2471 -0.9796  1.6775
  122SOPE  H16S12990   1.687   0.846   6.007  1.8217  0.4648  1.5554
  122SOPE  C21712991   1.689   1.062   5.962  0.2724  0.0419  0.0815
  122SOPE  H17R12992   1.796   1.038   5.947  0.1316 -1.1445  0.8918
  122SOPE  H17S12993   1.671   1.161   6.010  0.0333 -0.7703  1.7401
  122SOPE  C21812994   1.628   1.085   5.820  0.7543  0.0982 -0.0988
  122SOPE  H18R12995   1.646   0.996   5.757 -1.1697  0.4536 -1.2471
  122SOPE  H18S12996   1.663   1.172   5.761 -1.9487 -0.5349 -2.8718
  122SOPE  H18T12997   1.517   1.094   5.825  0.8214  2.4813 -1.5452
  122SOPE   C3312998   1.243   0.605   7.306  0.5833 -0.1248 -0.8976
  122SOPE   H3X12999   1.261   0.682   7.385  3.2896 -0.2183 -1.3061
  122SOPE   H3Y13000   1.148   0.550   7.321 -0.2533  1.1504 -1.2964
  122SOPE   C3413001   1.227   0.691   7.182  0.0625  0.0201  0.7549
  122SOPE   H4X13002   1.317   0.756   7.179  1.1844 -1.5120 -0.1232
  122SOPE   H4Y13003   1.142   0.761   7.197  0.6303  0.6985  0.9045
  122SOPE   C3513004   1.196   0.621   7.053  0.4144 -0.3421  0.8413
  122SOPE   H5X13005   1.098   0.569   7.048  1.5679 -2.6051 -3.1028
  122SOPE   H5Y13006   1.269   0.542   7.024  0.1699 -0.5613  0.8119
  122SOPE   C3613007   1.187   0.731   6.940 -0.2976  0.4745 -0.7680
  122SOPE   H6X13008   1.282   0.785   6.917 -0.9781  1.4198 -1.4300
  122SOPE   H6Y13009   1.119   0.816   6.961  0.0164  0.0031  2.9898
  122SOPE   C3713010   1.170   0.663   6.808  0.2220 -0.1847 -0.0076
  122SOPE   H7X13011   1.068   0.620   6.817  0.0186 -0.1228 -1.7390
  122SOPE   H7Y13012   1.242   0.579   6.796 -1.0700 -1.3999  0.4122
  122SOPE   C3813013   1.152   0.764   6.691  0.4831 -0.4981 -1.3385
  122SOPE   H8X13014   1.240   0.831   6.682  1.0950 -1.0447  0.3087
  122SOPE   H8Y13015   1.064   0.831   6.703  2.2272  1.5386  1.1868
  122SOPE   C3913016   1.157   0.695   6.546  0.6178 -0.3574 -0.1208
  122SOPE   H9X13017   1.087   0.609   6.536 -0.1274  0.1529  0.7019
  122SOPE   H9Y13018   1.263   0.678   6.517  0.3726 -1.2215 -0.5678
  122SOPE  C31013019   1.110   0.803   6.440  0.1474 -0.2898 -0.0442
  122SOPE  H10X13020   1.143   0.903   6.474 -0.2334  0.0922 -0.7868
  122SOPE  H10Y13021   1.000   0.798   6.451  0.2525 -1.6400  0.6892
  122SOPE  C31113022   1.148   0.780   6.291 -0.1909  0.0143  0.5275
  122SOPE  H11X13023   1.122   0.673   6.275  2.2028 -1.0003  2.5851
  122SOPE  H11Y13024   1.258   0.778   6.272 -0.2581 -0.1863  0.1408
  122SOPE  C31213025   1.086   0.888   6.193  0.5323  0.7909  0.6748
  122SOPE  H12X13026   1.101   0.987   6.240  0.5699  2.1126 -1.9106
  122SOPE  H12Y13027   0.977   0.865   6.195  0.8667 -0.8705  1.3780
  122SOPE  C31313028   1.141   0.872   6.048  0.5979  0.1159 -0.3433
  122SOPE  H13X13029   1.114   0.769   6.017  2.3352 -0.3679 -0.3778
  122SOPE  H13Y13030   1.251   0.886   6.050  0.3346  2.8901  2.0357
  122SOPE  C31413031   1.065   0.959   5.949 -0.2760 -0.7296 -0.3195
  122SOPE  H14X13032   1.078   1.062   5.987  0.7327 -1.4057  1.2595
  122SOPE  H14Y13033   0.958   0.936   5.968 -0.2816  0.5903  1.4271
  122SOPE  C31513034   1.112   0.936   5.798 -0.1813  0.2218 -0.7226
  122SOPE  H15X13035   1.068   0.835   5.786 -0.3268  0.2046 -0.1211
  122SOPE  H15Y13036   1.222   0.923   5.794 -0.2575 -1.9452  1.4999
  122SOPE  C31613037   1.048   1.033   5.698  0.3519  0.0749 -0.4187
  122SOPE  H16X13038   0.938   1.016   5.690 -0.0087  1.7431  0.4802
  122SOPE  H16Y13039   1.087   1.020   5.595  0.4347  0.8116 -0.4860
  122SOPE  C31713040   1.066   1.189   5.723  0.1830 -0.2045 -0.6724
  122SOPE  H17X13041   1.176   1.203   5.724  0.2396 -0.5498 -1.7000
  122SOPE  H17Y13042   1.023   1.221   5.821 -1.0649  0.9094 -1.5487
  122SOPE  C31813043   0.992   1.263   5.613  0.0779 -0.5774  0.8722
  122SOPE  H18X13044   1.045   1.245   5.517 -1.2557  2.2179 -0.5165
  122SOPE  H18Y13045   1.008   1.371   5.633 -0.2955  0.0278 -1.7306
  122SOPE  H18Z13046   0.885   1.235   5.597  0.2893 -0.2552 -1.5732
  123SOPE     N13047   5.904   3.534   2.988 -0.6269 -0.2583  0.3660
  123SOPE   HN113048   5.980   3.605   2.980 -0.4212 -0.6266 -1.8126
  123SOPE   HN213049   5.824   3.586   2.945 -0.1249 -0.8720 -1.3983
  123SOPE   HN313050   5.883   3.508   3.086 -0.5404  1.9310  1.0333
  123SOPE   C1213051   5.932   3.408   2.903  0.1342  0.8419  0.1067
  123SOPE  H12A13052   6.006   3.345   2.957 -0.2161  0.9979  0.7770
  123SOPE  H12B13053   5.986   3.441   2.811  1.0889  0.1271  0.4049
  123SOPE   C1113054   5.805   3.322   2.891  0.1318  0.1191  0.1918
  123SOPE  H11A13055   5.838   3.233   2.833  2.0904 -0.1102  1.5695
  123SOPE  H11B13056   5.729   3.383   2.836  0.1418 -3.1089 -3.9052
  123SOPE     P13057   5.635   3.192   3.028 -0.3758  0.2696  0.3848
  123SOPE   O1313058   5.688   3.056   2.987 -0.0897  0.1980  0.2069
  123SOPE   O1413059   5.525   3.246   2.946  0.6041 -0.8545 -0.6269
  123SOPE   O1213060   5.758   3.292   3.023  0.1603  0.5560  0.0101
  123SOPE   O1113061   5.606   3.188   3.182  0.0029  0.1348 -0.1820
  123SOPE    C113062   5.576   3.322   3.243 -0.3135 -0.3937  0.4050
  123SOPE    HA13063   5.543   3.396   3.167  2.7110 -1.7033 -2.4331
  123SOPE    HB13064   5.675   3.368   3.268 -0.2870  0.0599 -0.4980
  123SOPE    C213065   5.479   3.314   3.362 -0.3132  0.4762  0.2935
  123SOPE    HS13066   5.473   3.408   3.420  0.9593 -0.2635  1.6654
  123SOPE   O2113067   5.518   3.199   3.447  0.0646  0.0134 -0.2892
  123SOPE   C2113068   5.615   3.227   3.527 -0.1427  0.0371 -0.3805
  123SOPE   O2213069   5.670   3.337   3.545  0.8809  0.2360  0.0652
  123SOPE   C2213070   5.643   3.097   3.613 -0.3413  0.0194  0.4259
  123SOPE   H2R13071   5.747   3.097   3.653 -1.0182  1.0237  2.2854
  123SOPE   H2S13072   5.634   3.006   3.551 -0.4468 -0.8850  1.7316
  123SOPE    C313073   5.338   3.298   3.306  0.0922 -0.3500  0.5424
  123SOPE    HX13074   5.339   3.193   3.269  0.4354 -0.9731  2.2007
  123SOPE    HY13075   5.315   3.367   3.223 -2.3411 -0.5476  0.9852
  123SOPE   O3113076   5.236   3.323   3.398 -0.3717  0.0781 -0.0967
  123SOPE   C3113077   5.170   3.218   3.448 -0.6377  0.1673 -0.5047
  123SOPE   O3213078   5.189   3.100   3.419 -0.1330 -0.3729  0.2035
  123SOPE   C3213079   5.070   3.284   3.540 -0.3058  0.2215  0.1629
  123SOPE   H2X13080   4.966   3.251   3.516 -0.7955  2.4750 -1.1202
  123SOPE   H2Y13081   5.070   3.395   3.544  0.4102  0.2216  0.3426
  123SOPE   C2313082   5.570   3.099   3.746 -0.3269  0.2306 -0.0047
  123SOPE   H3R13083   5.596   3.010   3.806 -1.4650  0.2332  0.5177
  123SOPE   H3S13084   5.460   3.098   3.730 -0.4339 -1.3182  0.6623
  123SOPE   C2413085   5.614   3.215   3.841 -0.7024  0.1202  0.3419
  123SOPE   H4R13086   5.724   3.225   3.830 -0.7476  1.4446  0.9423
  123SOPE   H4S13087   5.567   3.307   3.799 -0.8925 -0.5609 -0.9987
  123SOPE   C2513088   5.586   3.185   3.984 -0.0561  0.4974  0.0425
  123SOPE   H5R13089   5.479   3.160   4.001 -0.1930  0.2157 -1.1115
  123SOPE   H5S13090   5.637   3.087   4.004  1.3659  1.2832  0.4296
  123SOPE   C2613091   5.644   3.280   4.083  0.8357  0.2543 -0.2304
  123SOPE   H6R13092   5.753   3.256   4.084  1.0686  1.0969  1.9693
  123SOPE   H6S13093   5.639   3.384   4.044  1.0594 -0.5888 -2.6764
  123SOPE   C2713094   5.596   3.261   4.229 -0.7430  0.3484  0.8436
  123SOPE   H7R13095   5.485   3.268   4.237 -0.7306  1.6643  0.1232
  123SOPE   H7S13096   5.627   3.164   4.272 -0.0851 -0.7372 -1.9114
  123SOPE   C2813097   5.643   3.371   4.324 -0.3410  0.3709 -0.2469
  123SOPE   H8R13098   5.751   3.354   4.341  0.2430  3.3188 -0.6097
  123SOPE   H8S13099   5.634   3.463   4.263 -0.2137  1.0028  0.6567
  123SOPE   C2913100   5.574   3.381   4.456  0.0881 -0.4631 -0.1266
  123SOPE   H9113101   5.505   3.465   4.473  1.1330  0.6981 -1.4485
  123SOPE  C21013102   5.591   3.299   4.560 -0.3373  0.0150 -0.0443
  123SOPE  H10113103   5.525   3.306   4.648 -0.2084 -2.1671  0.2939
  123SOPE  C21113104   5.689   3.185   4.566  0.4320  0.4377  0.3428
  123SOPE  H11R13105   5.786   3.228   4.598  0.6832 -0.7943  1.3043
  123SOPE  H11S13106   5.706   3.136   4.467  0.5280  1.6492 -0.2614
  123SOPE  C21213107   5.643   3.082   4.677  0.6992 -0.2005 -0.3113
  123SOPE  H12R13108   5.708   2.992   4.673 -2.0418 -2.3687  0.8987
  123SOPE  H12S13109   5.540   3.046   4.657  0.4308 -0.1434  0.8865
  123SOPE  C21313110   5.638   3.138   4.826 -0.4536  0.1335 -0.2328
  123SOPE  H13R13111   5.536   3.171   4.857  0.3070  2.2729  0.2173
  123SOPE  H13S13112   5.703   3.228   4.834 -0.6572  0.4964 -2.2191
  123SOPE  C21413113   5.674   3.031   4.936 -0.7151 -0.3213 -0.2128
  123SOPE  H14R13114   5.780   3.000   4.936 -1.2329 -2.2408  0.2246
  123SOPE  H14S13115   5.615   2.945   4.898  0.6326 -1.4228  0.1281
  123SOPE  C21513116   5.625   3.062   5.076 -0.3218 -0.3818 -0.2249
  123SOPE  H15R13117   5.639   3.170   5.101 -1.5535  0.0120 -1.1527
  123SOPE  H15S13118   5.699   3.008   5.138 -0.6236 -0.3507  0.1655
  123SOPE  C21613119   5.488   3.018   5.111 -0.0867 -0.5999 -0.7553
  123SOPE  H16R13120   5.489   2.913   5.147  0.0780 -1.6610 -3.6223
  123SOPE  H16S13121   5.413   3.033   5.031 -1.7719 -0.3637  0.8079
  123SOPE  C21713122   5.430   3.098   5.233 -0.0981 -0.2120 -0.0002
  123SOPE  H17R13123   5.419   3.202   5.196 -0.7866  0.1186  1.0831
  123SOPE  H17S13124   5.513   3.090   5.306  1.8466  3.4024 -1.5848
  123SOPE  C21813125   5.300   3.042   5.286  0.0388  0.1668  0.2574
  123SOPE  H18R13126   5.318   2.935   5.308  3.5560  0.6430  0.2633
  123SOPE  H18S13127   5.235   3.049   5.196 -1.6462 -0.5437  1.3550
  123SOPE  H18T13128   5.267   3.103   5.373 -0.8622  0.2521 -0.1338
  123SOPE   C3313129   5.097   3.260   3.686  0.1613  0.1249 -0.6370
  123SOPE   H3X13130   5.133   3.158   3.712  2.4951  1.2530  0.9517
  123SOPE   H3Y13131   5.003   3.271   3.745 -0.8831 -1.3899 -1.9527
  123SOPE   C3413132   5.210   3.355   3.739  0.1210 -0.4132 -0.0743
  123SOPE   H4X13133   5.185   3.463   3.732  2.9786  0.2510 -1.4126
  123SOPE   H4Y13134   5.296   3.341   3.670  1.7967 -1.4042  2.1037
  123SOPE   C3513135   5.257   3.321   3.880 -0.1575  0.2256 -0.0428
  123SOPE   H5X13136   5.344   3.379   3.917 -1.1053  0.5127  1.8596
  123SOPE   H5Y13137   5.292   3.216   3.884  2.6142  1.1044  2.1360
  123SOPE   C3613138   5.148   3.327   3.989 -0.4397  0.8422 -0.1369
  123SOPE   H6X13139   5.071   3.248   3.977  0.8797 -0.9661  2.1760
  123SOPE   H6Y13140   5.098   3.425   3.973 -0.1642  1.0238  0.1097
  123SOPE   C3713141   5.201   3.337   4.136 -0.3436 -0.2322 -0.4131
  123SOPE   H7X13142   5.271   3.423   4.142 -1.5578  0.6753  2.2879
  123SOPE   H7Y13143   5.253   3.247   4.177 -1.0976  0.7755  3.1161
  123SOPE   C3813144   5.101   3.382   4.245  1.5589  0.2658 -0.4302
  123SOPE   H8X13145   5.014   3.313   4.247  1.4451  0.3756 -1.3284
  123SOPE   H8Y13146   5.059   3.479   4.213  0.1746 -1.0066 -2.7455
  123SOPE   C3913147   5.155   3.380   4.391 -0.1356  0.0147  0.2006
  123SOPE   H9X13148   5.247   3.442   4.403 -0.6604  0.3834  3.0898
  123SOPE   H9Y13149   5.210   3.286   4.413  0.6579 -0.4248 -3.1281
  123SOPE  C31013150   5.062   3.437   4.499 -0.4501  0.3440 -0.3730
  123SOPE  H10X13151   4.971   3.374   4.506 -1.3478  1.6168 -0.1855
  123SOPE  H10Y13152   5.026   3.538   4.471 -1.0159  0.6349  1.2633
  123SOPE  C31113153   5.136   3.457   4.632 -0.6608  0.7732  0.1763
  123SOPE  H11X13154   5.211   3.539   4.631 -0.6157  0.7396  0.6661
  123SOPE  H11Y13155   5.193   3.368   4.664  2.1637  1.5383 -2.2709
  123SOPE  C31213156   5.040   3.484   4.748  0.1058  0.2273  0.1082
  123SOPE  H12X13157   4.960   3.407   4.742  0.3932  0.0078 -1.3769
  123SOPE  H12Y13158   5.002   3.588   4.737  0.7159  0.3878 -0.5319
  123SOPE  C31313159   5.110   3.448   4.882 -0.0220 -0.0201 -0.2192
  123SOPE  H13X13160   5.205   3.506   4.885 -0.2829  0.3585  1.7973
  123SOPE  H13Y13161   5.142   3.342   4.882 -2.3489 -0.7845 -0.0808
  123SOPE  C31413162   5.022   3.472   4.999 -0.1714  0.4212 -0.7487
  123SOPE  H14X13163   4.927   3.417   4.986 -1.6370  2.9635 -1.5046
  123SOPE  H14Y13164   4.991   3.579   4.991  0.2257  0.5825 -0.2049
  123SOPE  C31513165   5.086   3.449   5.138  1.2512 -0.5765  0.1638
  123SOPE  H15X13166   5.185   3.496   5.155 -0.0239  2.6337 -0.6515
  123SOPE  H15Y13167   5.087   3.338   5.142 -2.5854 -0.6997  1.1234
  123SOPE  C31613168   4.984   3.489   5.244  1.1486  0.2483 -0.4722
  123SOPE  H16X13169   4.891   3.428   5.242  0.4116  1.1596  2.0168
  123SOPE  H16Y13170   4.970   3.597   5.222 -1.4816 -0.1157 -0.9616
  123SOPE  C31713171   5.042   3.458   5.383  0.9723 -0.4364 -0.1053
  123SOPE  H17X13172   5.140   3.510   5.389  0.8584 -0.3519  1.4411
  123SOPE  H17Y13173   5.050   3.347   5.391  2.0752 -0.3780 -0.2783
  123SOPE  C31813174   4.960   3.508   5.499  0.0708  0.2535 -0.6791
  123SOPE  H18X13175   4.869   3.445   5.498 -0.8079  1.4729 -0.6726
  123SOPE  H18Y13176   4.937   3.617   5.501  0.7367  0.3901  0.0676
  123SOPE  H18Z13177   5.006   3.486   5.598 -1.8504  0.8966  0.4134
  124SOPE     N13178   0.714   6.587   3.477  0.0632  0.1840  0.0164
  124SOPE   HN113179   0.614   6.570   3.500  0.2414 -0.0676  0.6253
  124SOPE   HN213180   0.711   6.686   3.443 -0.8804  0.6927  1.4489
  124SOPE   HN313181   0.753   6.527   3.402  1.8087  2.8407 -1.3986
  124SOPE   C1213182   0.804   6.579   3.599 -0.3195 -1.0013  0.7351
  124SOPE  H12A13183   0.777   6.661   3.669  3.8228 -0.8225  2.3907
  124SOPE  H12B13184   0.908   6.605   3.570 -0.3158 -1.7528  0.0459
  124SOPE   C1113185   0.798   6.446   3.665 -0.3052  0.4548  0.3529
  124SOPE  H11A13186   0.707   6.435   3.728  0.3375 -1.7106  0.9895
  124SOPE  H11B13187   0.879   6.434   3.740 -0.1802  0.7036  0.2577
  124SOPE     P13188   0.921   6.246   3.550 -0.2551  0.2652  0.2646
  124SOPE   O1313189   1.041   6.336   3.540  0.2559  0.1941  0.1089
  124SOPE   O1413190   0.890   6.157   3.437 -0.1045 -0.6892  0.0137
  124SOPE   O1213191   0.795   6.337   3.568 -0.3222 -0.4687  0.1146
  124SOPE   O1113192   0.934   6.168   3.681  0.3039 -0.0882 -0.5874
  124SOPE    C113193   0.837   6.065   3.722  0.2377  1.1004 -0.8416
  124SOPE    HA13194   0.892   6.000   3.794 -1.5765  0.5318  0.0752
  124SOPE    HB13195   0.815   5.989   3.645  2.3042 -1.0035  0.5052
  124SOPE    C213196   0.702   6.102   3.790 -0.5904  0.2224  0.0334
  124SOPE    HS13197   0.623   6.129   3.717 -0.2122  0.7173 -0.2020
  124SOPE   O2113198   0.720   6.214   3.884 -0.2451  0.1015  0.2743
  124SOPE   C2113199   0.608   6.281   3.903  0.0111 -0.2030  0.3820
  124SOPE   O2213200   0.508   6.281   3.838  0.7610 -0.4004 -0.3455
  124SOPE   C2213201   0.632   6.359   4.039  0.4865 -0.1822  0.0370
  124SOPE   H2R13202   0.668   6.458   4.002 -0.8154 -0.8304 -3.4056
  124SOPE   H2S13203   0.711   6.307   4.098  0.6872 -0.2258 -0.2646
  124SOPE    C313204   0.667   5.981   3.885  0.0953  0.6662 -0.0969
  124SOPE    HX13205   0.748   5.978   3.962  0.2001 -0.5962 -0.2398
  124SOPE    HY13206   0.688   5.892   3.822 -1.3501  0.4672 -0.3121
  124SOPE   O3113207   0.529   5.982   3.945  0.3395 -0.5415  0.0697
  124SOPE   C3113208   0.434   5.938   3.866 -0.2468  0.2564  0.2573
  124SOPE   O3213209   0.449   5.907   3.747 -0.1874  0.4417 -0.0953
  124SOPE   C3213210   0.300   5.933   3.940 -1.3953 -0.4163  0.2898
  124SOPE   H2X13211   0.235   5.986   3.868 -1.2548 -1.6485 -0.7851
  124SOPE   H2Y13212   0.296   5.991   4.034 -1.6591 -1.5327  0.9866
  124SOPE   C2313213   0.503   6.372   4.122 -0.7352 -0.1475  0.0859
  124SOPE   H3R13214   0.419   6.407   4.058 -0.1803  0.6417 -0.2227
  124SOPE   H3S13215   0.526   6.445   4.202 -0.4942 -1.3411  1.1325
  124SOPE   C2413216   0.455   6.245   4.191  0.6065  1.0184 -0.4633
  124SOPE   H4R13217   0.429   6.162   4.121 -1.2518  0.9826  0.1988
  124SOPE   H4S13218   0.539   6.199   4.247 -0.4710  1.3880  1.5664
  124SOPE   C2513219   0.338   6.271   4.285  0.1775 -0.3392 -0.0503
  124SOPE   H5R13220   0.357   6.373   4.326  2.7286 -1.0351  0.6402
  124SOPE   H5S13221   0.246   6.283   4.224 -0.3339  1.1603  0.9385
  124SOPE   C2613222   0.318   6.160   4.389 -0.0470 -0.1829 -1.2363
  124SOPE   H6R13223   0.295   6.070   4.328 -1.3239  0.2396 -1.4070
  124SOPE   H6S13224   0.406   6.132   4.451 -2.2944 -2.9312  1.0452
  124SOPE   C2713225   0.214   6.205   4.497 -0.2351 -0.4794 -0.7429
  124SOPE   H7R13226   0.253   6.303   4.532  0.9122 -0.0466 -3.0426
  124SOPE   H7S13227   0.112   6.229   4.458 -0.4072  0.9280  0.4713
  124SOPE   C2813228   0.199   6.099   4.614 -0.8212  0.6814  0.7238
  124SOPE   H8R13229   0.151   6.008   4.572  0.7481 -0.4144  1.2434
  124SOPE   H8S13230   0.299   6.077   4.658 -2.3836 -1.5001  3.5065
  124SOPE   C2913231   0.111   6.162   4.719  0.5054 -0.2914  0.4772
  124SOPE   H9113232   0.068   6.257   4.684  1.0063  0.0744  0.8439
  124SOPE  C21013233   0.095   6.114   4.845  0.5063  0.0260 -0.7507
  124SOPE  H10113234   0.038   6.179   4.913  0.9784 -0.2354 -0.1023
  124SOPE  C21113235   0.148   5.978   4.891  0.1657 -0.4535  0.4166
  124SOPE  H11R13236   0.196   5.987   4.990  1.1000 -0.1915 -0.0535
  124SOPE  H11S13237   0.223   5.940   4.818 -0.1344  2.5118 -1.6582
  124SOPE  C21213238   0.045   5.865   4.906 -0.5089  0.6647 -0.0226
  124SOPE  H12R13239   0.095   5.767   4.923 -1.0655  0.2828 -0.5526
  124SOPE  H12S13240  -0.016   5.852   4.814 -0.4457  0.4663 -0.0372
  124SOPE  C21313241  -0.054   5.891   5.018 -0.0078  0.5076  0.1670
  124SOPE  H13R13242  -0.112   5.984   4.996 -1.8380 -0.8479 -1.0629
  124SOPE  H13S13243   0.006   5.900   5.111  4.5987 -0.6244 -2.3314
  124SOPE  C21413244  -0.144   5.774   5.039  0.1682  0.3106 -0.0963
  124SOPE  H14R13245  -0.101   5.686   5.092  1.5308  0.7635 -0.3927
  124SOPE  H14S13246  -0.161   5.730   4.939  3.2491 -0.9182 -0.2058
  124SOPE  C21513247  -0.284   5.792   5.102 -0.1098 -0.9538 -0.2492
  124SOPE  H15R13248  -0.322   5.883   5.053 -1.8693 -1.5906 -0.1215
  124SOPE  H15S13249  -0.268   5.803   5.212 -0.4522 -1.3443 -0.1581
  124SOPE  C21613250  -0.377   5.670   5.084  0.9803 -0.0503 -0.0378
  124SOPE  H16R13251  -0.379   5.621   4.984 -3.5028 -0.0889 -0.1139
  124SOPE  H16S13252  -0.480   5.702   5.111  0.4579 -1.2831 -0.5172
  124SOPE  C21713253  -0.327   5.569   5.191  0.0747  0.2799 -0.1787
  124SOPE  H17R13254  -0.341   5.606   5.295  0.9116 -0.0862  0.0725
  124SOPE  H17S13255  -0.224   5.533   5.175  0.5937  1.5514  0.1906
  124SOPE  C21813256  -0.418   5.444   5.203  0.0896  0.7765 -0.6468
  124SOPE  H18R13257  -0.403   5.388   5.297  0.3346  0.7781 -0.6842
  124SOPE  H18S13258  -0.414   5.367   5.123  0.9236 -0.4178  0.5058
  124SOPE  H18T13259  -0.524   5.477   5.212 -0.6785 -1.6144 -0.3880
  124SOPE   C3313260   0.240   5.790   3.962  0.3593 -0.3366 -0.3803
  124SOPE   H3X13261   0.245   5.740   3.863  0.6706 -2.6992  0.7742
  124SOPE   H3Y13262   0.141   5.809   4.007  0.2833  1.2263 -1.1065
  124SOPE   C3413263   0.322   5.710   4.053 -0.7068  0.1382 -0.1732
  124SOPE   H4X13264   0.428   5.709   4.018 -0.0481  1.3311  1.6764
  124SOPE   H4Y13265   0.293   5.603   4.054 -0.1275 -0.0728 -1.7593
  124SOPE   C3513266   0.326   5.774   4.195  0.9400 -0.3038 -0.4350
  124SOPE   H5X13267   0.227   5.784   4.244 -0.3440 -1.5559 -2.6071
  124SOPE   H5Y13268   0.374   5.875   4.189  0.2726  0.0685  0.3356
  124SOPE   C3613269   0.412   5.690   4.290 -0.0683 -0.1569  0.0464
  124SOPE   H6X13270   0.515   5.681   4.250 -0.4369  0.0254 -0.9866
  124SOPE   H6Y13271   0.357   5.593   4.299 -0.5210  0.1247  0.3150
  124SOPE   C3713272   0.401   5.762   4.431 -0.2577  0.4912 -0.0780
  124SOPE   H7X13273   0.293   5.785   4.447 -1.2255 -2.5429 -1.4092
  124SOPE   H7Y13274   0.464   5.852   4.446  0.6780 -0.0709 -0.6101
  124SOPE   C3813275   0.433   5.657   4.543 -0.1096 -0.2903 -0.0032
  124SOPE   H8X13276   0.540   5.628   4.538 -0.0155 -0.2809  1.5221
  124SOPE   H8Y13277   0.366   5.569   4.539 -0.8404  0.2611 -0.2112
  124SOPE   C3913278   0.408   5.728   4.679 -0.0226 -0.1627  0.7532
  124SOPE   H9X13279   0.320   5.794   4.664 -0.2362 -0.8403 -1.2625
  124SOPE   H9Y13280   0.487   5.801   4.706 -1.3970  0.9185  2.0502
  124SOPE  C31013281   0.386   5.626   4.796 -0.5038  0.2475  0.1453
  124SOPE  H10X13282   0.307   5.556   4.763 -0.5507  1.1833 -1.8452
  124SOPE  H10Y13283   0.344   5.682   4.883  2.2462 -0.0987  1.8192
  124SOPE  C31113284   0.503   5.542   4.844  0.2696 -0.1844 -0.2013
  124SOPE  H11X13285   0.603   5.587   4.827  1.7183 -2.7505  0.9500
  124SOPE  H11Y13286   0.496   5.450   4.783  1.0482 -0.4474  0.0909
  124SOPE  C31213287   0.492   5.505   4.997  0.0353 -0.3566 -0.3372
  124SOPE  H12X13288   0.390   5.468   5.017  0.9004 -2.1038  1.0981
  124SOPE  H12Y13289   0.475   5.600   5.054  0.0555 -1.3327  1.3738
  124SOPE  C31313290   0.607   5.421   5.041 -0.3274 -0.1067 -0.1057
  124SOPE  H13X13291   0.687   5.492   5.073 -1.3446  0.5677  1.0048
  124SOPE  H13Y13292   0.648   5.344   4.973  1.4034 -0.4528  1.2465
  124SOPE  C31413293   0.580   5.350   5.174  0.3863 -0.3572 -0.8603
  124SOPE  H14X13294   0.507   5.269   5.149  0.8076 -1.4549  1.2203
  124SOPE  H14Y13295   0.511   5.407   5.240 -1.3664 -2.5764 -0.6391
  124SOPE  C31513296   0.711   5.301   5.248  0.4317  0.2924  0.0916
  124SOPE  H15X13297   0.791   5.311   5.173 -1.0742  0.9103 -1.5011
  124SOPE  H15Y13298   0.706   5.193   5.273 -0.3459  0.2000 -0.4114
  124SOPE  C31613299   0.730   5.388   5.372 -0.4368 -0.1984 -0.2412
  124SOPE  H16X13300   0.718   5.496   5.345 -2.1245 -0.6880 -1.6297
  124SOPE  H16Y13301   0.834   5.366   5.404 -0.5668  2.0614  2.0375
  124SOPE  C31713302   0.641   5.354   5.499 -0.1070  0.0647  0.2471
  124SOPE  H17X13303   0.641   5.243   5.514  1.4013  0.3772  3.5065
  124SOPE  H17Y13304   0.536   5.385   5.480 -0.2743  0.0126  1.0356
  124SOPE  C31813305   0.696   5.412   5.632 -0.3698 -0.7091 -0.5287
  124SOPE  H18X13306   0.688   5.329   5.706 -1.2530 -0.4402 -0.3124
  124SOPE  H18Y13307   0.644   5.506   5.659  0.1845 -1.2843  3.1017
  124SOPE  H18Z13308   0.800   5.449   5.625 -0.0668 -1.3023  0.4953
  125SOPE     N13309   2.541   0.469   3.288 -0.1356  0.1693  0.4800
  125SOPE   HN113310   2.481   0.553   3.302 -0.0493  0.6060 -1.5097
  125SOPE   HN213311   2.517   0.387   3.346 -0.9575  0.1366  0.1043
  125SOPE   HN313312   2.639   0.497   3.309  0.3905  0.1388 -1.6420
  125SOPE   C1213313   2.518   0.430   3.146  0.6136 -0.4687 -0.1229
  125SOPE  H12A13314   2.571   0.507   3.086 -2.3465  2.2380  0.4282
  125SOPE  H12B13315   2.409   0.448   3.127  0.5803 -0.0351  0.4429
  125SOPE   C1113316   2.578   0.288   3.117 -0.6379  0.0809  0.5431
  125SOPE  H11A13317   2.560   0.263   3.011  3.4052 -2.0871  0.1853
  125SOPE  H11B13318   2.512   0.228   3.184 -1.1607 -0.8316 -0.7440
  125SOPE     P13319   2.787   0.131   3.144  0.2166  0.0047  0.1468
  125SOPE   O1313320   2.893   0.140   3.253 -0.1584  0.0637  0.1691
  125SOPE   O1413321   2.832   0.088   3.009  0.0977 -0.0153  0.0796
  125SOPE   O1213322   2.718   0.276   3.144 -0.4945  0.4707  0.3483
  125SOPE   O1113323   2.671   0.027   3.192 -0.5451 -0.1456 -0.5371
  125SOPE    C113324   2.648   0.010   3.332 -0.1061 -0.4161  0.2022
  125SOPE    HA13325   2.541  -0.013   3.349 -0.0741  1.2214  3.2416
  125SOPE    HB13326   2.663   0.103   3.390 -2.1039  0.3145 -0.3881
  125SOPE    C213327   2.736  -0.109   3.397 -0.6170  0.4400 -1.0157
  125SOPE    HS13328   2.693  -0.139   3.494  0.4293 -0.1017 -0.7049
  125SOPE   O2113329   2.874  -0.079   3.411  0.1974  0.5657 -0.2628
  125SOPE   C2113330   2.904   0.010   3.507  0.8582 -0.2077  0.0230
  125SOPE   O2213331   2.823   0.055   3.588  0.4299  0.1599 -0.8501
  125SOPE   C2213332   3.048   0.035   3.511 -0.3447  0.1955 -0.2000
  125SOPE   H2R13333   3.059   0.143   3.486 -0.6664  0.5841  1.2584
  125SOPE   H2S13334   3.105  -0.025   3.436 -1.3178  0.3232 -1.0614
  125SOPE    C313335   2.727  -0.242   3.316  0.6503  0.5281 -0.2857
  125SOPE    HX13336   2.785  -0.235   3.222  1.2275  0.2997  0.0442
  125SOPE    HY13337   2.624  -0.256   3.278  0.0936 -1.1227  1.6576
  125SOPE   O3113338   2.747  -0.354   3.409 -1.0027  0.8597  0.2046
  125SOPE   C3113339   2.873  -0.397   3.414  0.9761  0.3611  0.0824
  125SOPE   O3213340   2.956  -0.362   3.334 -0.6791 -0.5292 -0.0608
  125SOPE   C3213341   2.897  -0.497   3.521  0.3838 -0.4557  0.3847
  125SOPE   H2X13342   2.910  -0.594   3.467  0.6490 -0.3849  0.3182
  125SOPE   H2Y13343   2.800  -0.517   3.570 -0.1010 -2.4528 -1.2475
  125SOPE   C2313344   3.106   0.007   3.655  0.5080  0.0072  0.5336
  125SOPE   H3R13345   3.057   0.068   3.734 -0.4923  1.4622 -1.1344
  125SOPE   H3S13346   3.211   0.042   3.652 -0.0005  1.6089 -2.8763
  125SOPE   C2413347   3.095  -0.137   3.692 -0.3982 -0.2335 -0.1737
  125SOPE   H4R13348   2.988  -0.161   3.711  0.0230 -0.3699  2.4836
  125SOPE   H4S13349   3.136  -0.190   3.604  3.3809 -0.4094  1.4893
  125SOPE   C2513350   3.180  -0.172   3.820  0.1171 -0.0064 -0.1239
  125SOPE   H5R13351   3.156  -0.280   3.824 -4.4158  0.6313 -2.4521
  125SOPE   H5S13352   3.289  -0.152   3.810  0.4858 -1.4420  0.6948
  125SOPE   C2613353   3.143  -0.106   3.952  0.2622 -0.0661  0.8125
  125SOPE   H6R13354   3.170   0.002   3.952 -0.7704  0.2710 -1.6569
  125SOPE   H6S13355   3.034  -0.103   3.972 -0.0166 -1.4931 -0.3456
  125SOPE   C2713356   3.219  -0.160   4.062  0.1091  0.2827 -0.0227
  125SOPE   H7R13357   3.326  -0.170   4.036 -0.1313  0.5673 -1.1533
  125SOPE   H7S13358   3.221  -0.085   4.143  2.8905 -0.9527  1.1946
  125SOPE   C2813359   3.169  -0.292   4.126 -0.2814  0.3025  0.2476
  125SOPE   H8R13360   3.063  -0.295   4.160 -0.4542  1.9945 -0.0493
  125SOPE   H8S13361   3.166  -0.351   4.031 -2.2637  0.4090  0.1963
  125SOPE   C2913362   3.261  -0.332   4.236  0.0892  0.7697  0.8340
  125SOPE   H9113363   3.352  -0.380   4.195  0.4037  2.0878 -0.0559
  125SOPE  C21013364   3.250  -0.291   4.363  0.4090  1.0013 -0.1154
  125SOPE  H10113365   3.331  -0.329   4.427 -2.7539 -2.7378  2.1500
  125SOPE  C21113366   3.136  -0.213   4.427  0.5257 -0.3632  0.3832
  125SOPE  H11R13367   3.076  -0.279   4.493  0.4628 -1.1358 -0.4224
  125SOPE  H11S13368   3.080  -0.176   4.339  2.1924  0.5707 -0.3355
  125SOPE  C21213369   3.178  -0.089   4.507 -0.5712  0.0174 -0.5797
  125SOPE  H12R13370   3.100  -0.010   4.505  1.7993  2.4949 -0.9180
  125SOPE  H12S13371   3.265  -0.048   4.450 -0.0196 -0.8127 -0.3623
  125SOPE  C21313372   3.228  -0.134   4.648 -0.0247  0.0592 -0.2672
  125SOPE  H13R13373   3.309  -0.210   4.639 -0.4339 -0.5675  1.0856
  125SOPE  H13S13374   3.141  -0.182   4.697 -0.6293  0.6857 -0.7151
  125SOPE  C21413375   3.267  -0.020   4.744  0.0047 -0.1546  0.6195
  125SOPE  H14R13376   3.189   0.060   4.741  0.6914  0.5118 -1.2744
  125SOPE  H14S13377   3.359   0.035   4.715 -0.6627  1.5258  1.5579
  125SOPE  C21513378   3.303  -0.067   4.890 -0.2909  1.3622  0.1429
  125SOPE  H15R13379   3.226  -0.139   4.925 -1.6554  1.6756 -2.0297
  125SOPE  H15S13380   3.297   0.020   4.958 -2.7019  2.2519 -1.1080
  125SOPE  C21613381   3.440  -0.137   4.907 -0.0635 -0.6954  0.6576
  125SOPE  H16R13382   3.513  -0.058   4.877 -1.2593  0.6974  1.2778
  125SOPE  H16S13383   3.444  -0.213   4.826  0.2027  0.7520 -0.7501
  125SOPE  C21713384   3.489  -0.191   5.043  0.2481  0.0376 -0.3923
  125SOPE  H17R13385   3.592  -0.231   5.038 -0.1347 -1.0793  0.2523
  125SOPE  H17S13386   3.428  -0.282   5.065 -2.7377  2.0785  0.4903
  125SOPE  C21813387   3.472  -0.102   5.164  0.1508 -0.5173 -0.0247
  125SOPE  H18R13388   3.365  -0.073   5.175  0.4926  0.8639 -0.1294
  125SOPE  H18S13389   3.528  -0.006   5.163 -2.3379  1.0258 -0.1460
  125SOPE  H18T13390   3.514  -0.148   5.255 -1.1708 -0.6979  0.5076
  125SOPE   C3313391   3.013  -0.472   3.618  0.0231  0.6354 -0.1492
  125SOPE   H3X13392   2.988  -0.386   3.684 -0.0850  1.6677 -1.4697
  125SOPE   H3Y13393   3.101  -0.448   3.554  0.2012 -1.8600 -0.9612
  125SOPE   C3413394   3.050  -0.600   3.703  0.0578  0.2112  0.7030
  125SOPE   H4X13395   3.099  -0.672   3.634 -0.3427  0.6445 -0.0453
  125SOPE   H4Y13396   2.954  -0.651   3.724  0.2265 -1.1909 -1.5542
  125SOPE   C3513397   3.126  -0.563   3.827 -0.7222 -0.4832 -0.0004
  125SOPE   H5X13398   3.054  -0.517   3.897 -0.5242  0.9204 -0.6878
  125SOPE   H5Y13399   3.219  -0.503   3.814  0.1386 -2.3309 -4.1187
  125SOPE   C3613400   3.176  -0.687   3.896  0.1955  1.0244 -0.3408
  125SOPE   H6X13401   3.260  -0.735   3.842 -0.3313  1.3639 -1.4838
  125SOPE   H6Y13402   3.093  -0.761   3.907 -0.3254  1.4163 -1.5120
  125SOPE   C3713403   3.228  -0.652   4.044 -0.2726  0.3354  0.9855
  125SOPE   H7X13404   3.147  -0.616   4.111  0.6004  0.2353  2.1000
  125SOPE   H7Y13405   3.292  -0.562   4.033  0.2974  0.1103  2.3179
  125SOPE   C3813406   3.300  -0.773   4.105  0.6592 -0.2865 -0.4919
  125SOPE   H8X13407   3.390  -0.799   4.045  1.6061 -0.9917  1.1759
  125SOPE   H8Y13408   3.231  -0.859   4.097 -0.4858  0.4601  0.8329
  125SOPE   C3913409   3.343  -0.751   4.253  0.7838 -0.0534  0.1854
  125SOPE   H9X13410   3.401  -0.657   4.260 -0.8221  1.0738 -0.8330
  125SOPE   H9Y13411   3.405  -0.842   4.267 -0.0586 -0.8087 -0.7967
  125SOPE  C31013412   3.226  -0.730   4.356 -0.7874  0.6691  0.3795
  125SOPE  H10X13413   3.164  -0.822   4.362 -1.4210  1.1167  0.9497
  125SOPE  H10Y13414   3.161  -0.640   4.346 -1.8844 -0.0941  0.4625
  125SOPE  C31113415   3.290  -0.712   4.499  0.4064  0.8033 -0.1008
  125SOPE  H11X13416   3.326  -0.607   4.498 -1.6837  1.5570  0.0407
  125SOPE  H11Y13417   3.369  -0.789   4.510 -0.1132  0.4505  1.3677
  125SOPE  C31213418   3.183  -0.728   4.611  0.1238 -1.0044 -0.7855
  125SOPE  H12X13419   3.154  -0.835   4.599 -1.7172 -0.8132  1.3225
  125SOPE  H12Y13420   3.094  -0.664   4.594  0.3774 -0.5857 -0.5412
  125SOPE  C31313421   3.237  -0.702   4.754 -0.0674 -0.3645 -0.0911
  125SOPE  H13X13422   3.319  -0.774   4.774  0.0301  0.0740  1.1908
  125SOPE  H13Y13423   3.154  -0.719   4.826  1.0132  0.6170  1.4487
  125SOPE  C31413424   3.291  -0.562   4.782  0.4571  0.5224  0.6745
  125SOPE  H14X13425   3.216  -0.481   4.769 -1.8642 -1.7236 -0.8975
  125SOPE  H14Y13426   3.367  -0.539   4.704 -0.9732  1.2610 -0.5423
  125SOPE  C31513427   3.361  -0.542   4.916 -0.5354  0.7078  0.0365
  125SOPE  H15X13428   3.284  -0.566   4.992 -0.7823 -0.2340 -0.4916
  125SOPE  H15Y13429   3.396  -0.437   4.912  4.0937 -0.5856 -0.4616
  125SOPE  C31613430   3.490  -0.624   4.924 -0.3016  0.1112 -0.1587
  125SOPE  H16X13431   3.554  -0.604   4.836  0.6210  0.8497  0.6551
  125SOPE  H16Y13432   3.469  -0.733   4.919 -1.2714  0.2201  1.0001
  125SOPE  C31713433   3.571  -0.599   5.053 -0.4110  0.0530 -0.0785
  125SOPE  H17X13434   3.611  -0.497   5.069 -0.4568 -0.1602  1.5014
  125SOPE  H17Y13435   3.657  -0.670   5.054 -1.2070 -0.9503  1.5021
  125SOPE  C31813436   3.491  -0.648   5.178  0.0997 -0.7420 -0.3342
  125SOPE  H18X13437   3.563  -0.658   5.262  1.7928  1.6455 -1.3790
  125SOPE  H18Y13438   3.439  -0.743   5.155 -0.0018 -0.8362  0.2738
  125SOPE  H18Z13439   3.421  -0.567   5.207  1.8485  1.1887 -1.1871
  126SOPE     N13440   4.373   4.263   2.642 -0.0821 -0.2789  0.2805
  126SOPE   HN113441   4.421   4.220   2.560 -1.3200 -1.2396  0.0334
  126SOPE   HN213442   4.273   4.233   2.639  0.3745 -1.8952  0.2190
  126SOPE   HN313443   4.371   4.367   2.636 -1.1641 -0.3149 -0.4447
  126SOPE   C1213444   4.438   4.222   2.767 -0.5270  0.5587  0.0182
  126SOPE  H12A13445   4.536   4.274   2.769  0.1037 -0.4169 -2.2593
  126SOPE  H12B13446   4.450   4.112   2.757 -2.9713  0.4407 -2.8834
  126SOPE   C1113447   4.358   4.243   2.892  0.6296  0.1050 -0.0410
  126SOPE  H11A13448   4.337   4.350   2.914  0.0786  0.6513 -2.8019
  126SOPE  H11B13449   4.423   4.206   2.974  0.6872 -4.2807 -1.8081
  126SOPE     P13450   4.212   4.023   2.953  0.3325 -0.0935  0.1860
  126SOPE   O1313451   4.325   3.940   2.915 -0.2977  1.0843 -0.5018
  126SOPE   O1413452   4.077   3.961   2.930 -0.2097  0.0696  0.2453
  126SOPE   O1213453   4.234   4.163   2.885  0.9016  0.0745 -0.5872
  126SOPE   O1113454   4.226   4.058   3.100 -0.2218  0.1426 -0.3874
  126SOPE    C113455   4.288   3.964   3.190 -0.5314  0.4258  0.8617
  126SOPE    HA13456   4.342   4.016   3.272  0.1931 -2.0687  2.0713
  126SOPE    HB13457   4.352   3.887   3.141 -0.7018  0.3671  0.7291
  126SOPE    C213458   4.178   3.887   3.275  0.2814  0.0542 -0.0653
  126SOPE    HS13459   4.112   3.848   3.194  0.0017  0.4863 -0.0439
  126SOPE   O2113460   4.112   3.992   3.349 -0.1930  0.3813 -0.4026
  126SOPE   C2113461   3.996   3.949   3.409 -0.6429  0.2881  0.5567
  126SOPE   O2213462   3.935   3.848   3.379 -0.0251 -0.0790 -0.3947
  126SOPE   C2213463   3.944   4.058   3.501  0.8012  0.0014  0.9230
  126SOPE   H2R13464   3.833   4.060   3.501  0.5690 -3.1116 -2.6459
  126SOPE   H2S13465   3.969   4.158   3.459  0.5202 -0.1969  0.2819
  126SOPE    C313466   4.238   3.771   3.357  0.2973  0.0781 -0.0667
  126SOPE    HX13467   4.312   3.710   3.302  0.6214 -1.1062  1.5950
  126SOPE    HY13468   4.164   3.698   3.397 -0.8147 -1.0208 -3.7747
  126SOPE   O3113469   4.301   3.824   3.473  0.3110 -0.3005 -1.0524
  126SOPE   C3113470   4.434   3.849   3.461 -0.0950 -0.2360 -0.6058
  126SOPE   O3213471   4.505   3.821   3.366  0.5101  1.1352  0.3068
  126SOPE   C3213472   4.477   3.918   3.584 -0.0547  0.4216 -0.5886
  126SOPE   H2X13473   4.420   4.012   3.601  2.3595  1.5793  1.9225
  126SOPE   H2Y13474   4.581   3.959   3.580  1.3257 -2.4962  1.6035
  126SOPE   C2313475   3.997   4.060   3.651  0.0950 -0.2984  0.6859
  126SOPE   H3R13476   3.969   4.159   3.692 -2.5194 -0.1771 -1.1309
  126SOPE   H3S13477   4.107   4.047   3.650  0.0299 -0.8510  0.2880
  126SOPE   C2413478   3.940   3.946   3.736 -0.2290 -0.5929  0.4646
  126SOPE   H4R13479   3.830   3.960   3.737 -0.0523  0.9096  1.8177
  126SOPE   H4S13480   3.955   3.846   3.690  2.3005 -1.0516  2.0849
  126SOPE   C2513481   3.991   3.960   3.885  0.7799  0.3973 -0.0170
  126SOPE   H5R13482   4.101   3.946   3.894  0.9811 -0.9335 -3.0755
  126SOPE   H5S13483   3.954   4.059   3.918 -0.1210 -0.2560  0.9902
  126SOPE   C2613484   3.921   3.864   3.987  0.0122  0.1395  0.2133
  126SOPE   H6R13485   3.812   3.864   3.964  0.0975 -0.7087 -0.2289
  126SOPE   H6S13486   3.948   3.763   3.949  1.6217 -0.6266  3.0499
  126SOPE   C2713487   3.958   3.890   4.133 -0.5949 -0.0156 -0.6317
  126SOPE   H7R13488   4.068   3.881   4.147 -0.8625  0.4701  2.9513
  126SOPE   H7S13489   3.943   3.993   4.172 -1.0734 -0.1225 -0.5227
  126SOPE   C2813490   3.901   3.796   4.230 -1.0019  1.0988 -0.7958
  126SOPE   H8R13491   3.923   3.688   4.212 -0.6040  1.0980 -0.3198
  126SOPE   H8S13492   3.944   3.826   4.328 -1.9606 -2.0209  0.7296
  126SOPE   C2913493   3.753   3.806   4.238  0.0552  0.3520 -0.0068
  126SOPE   H9113494   3.698   3.779   4.146 -1.4947  1.6922  0.4938
  126SOPE  C21013495   3.678   3.848   4.338 -0.0459  0.3799  0.4893
  126SOPE  H10113496   3.574   3.871   4.312 -0.1144 -0.4171  0.0216
  126SOPE  C21113497   3.734   3.899   4.465 -0.2544  0.1805 -0.6366
  126SOPE  H11R13498   3.717   4.009   4.471 -0.2491  0.1805 -0.6249
  126SOPE  H11S13499   3.843   3.886   4.483 -0.5341  0.0030  1.1549
  126SOPE  C21213500   3.662   3.825   4.588 -0.3658 -0.0794 -0.2457
  126SOPE  H12R13501   3.714   3.859   4.680  0.3974 -0.4920 -0.5074
  126SOPE  H12S13502   3.682   3.716   4.590  0.0951 -0.0447  3.7434
  126SOPE  C21313503   3.516   3.859   4.603  0.7475 -0.0511 -0.8364
  126SOPE  H13R13504   3.449   3.812   4.527 -0.5823  2.9075 -1.6445
  126SOPE  H13S13505   3.500   3.968   4.588  0.5200  0.2850  1.5267
  126SOPE  C21413506   3.454   3.821   4.745 -0.1146  0.3946  0.6307
  126SOPE  H14R13507   3.476   3.716   4.772  1.3972  0.3863 -0.5231
  126SOPE  H14S13508   3.345   3.835   4.726 -0.0115 -1.1252 -1.3309
  126SOPE  C21513509   3.484   3.918   4.860  0.4126 -0.2427 -0.4633
  126SOPE  H15R13510   3.471   4.024   4.830  0.8159  0.2039  0.8543
  126SOPE  H15S13511   3.591   3.912   4.889  0.5809  1.1706 -0.7416
  126SOPE  C21613512   3.402   3.896   4.986 -0.5596  0.3354 -0.0055
  126SOPE  H16R13513   3.404   3.790   5.018  0.2831  0.0107 -1.0967
  126SOPE  H16S13514   3.295   3.918   4.966 -1.0592 -0.0157  2.0491
  126SOPE  C21713515   3.434   3.980   5.106 -0.6177  0.0269  0.0810
  126SOPE  H17R13516   3.358   3.963   5.185  2.0223  0.6033  2.9008
  126SOPE  H17S13517   3.422   4.089   5.084  1.0371  0.1300 -0.4494
  126SOPE  C21813518   3.572   3.957   5.181 -0.1386 -0.6099  0.4379
  126SOPE  H18R13519   3.586   3.994   5.285 -1.1844 -0.5648  0.5732
  126SOPE  H18S13520   3.646   4.015   5.122  0.3724 -1.5337  0.1404
  126SOPE  H18T13521   3.601   3.850   5.185  1.0131 -0.2887  1.8517
  126SOPE   C3313522   4.484   3.821   3.707  0.0226 -0.6884  0.2559
  126SOPE   H3X13523   4.573   3.756   3.691  0.8896  0.4151  0.4637
  126SOPE   H3Y13524   4.400   3.751   3.725 -1.7543  1.5983  1.1959
  126SOPE   C3413525   4.521   3.895   3.842 -0.4771  0.6279  0.1813
  126SOPE   H4X13526   4.607   3.964   3.831  0.2068  0.1565  2.2106
  126SOPE   H4Y13527   4.544   3.815   3.915  3.2562  0.1721 -1.2848
  126SOPE   C3513528   4.403   3.978   3.901 -0.4753  0.3183 -0.2214
  126SOPE   H5X13529   4.318   3.909   3.881  0.1877 -0.1395 -1.6250
  126SOPE   H5Y13530   4.374   4.066   3.839 -0.9766 -0.7900 -1.6170
  126SOPE   C3613531   4.423   4.020   4.042 -0.8892 -0.1095  0.2629
  126SOPE   H6X13532   4.349   4.101   4.061  0.4668  1.6890 -1.6859
  126SOPE   H6Y13533   4.523   4.068   4.046 -0.4512 -0.9811 -0.0089
  126SOPE   C3713534   4.412   3.909   4.150 -0.6699 -0.5200 -0.1938
  126SOPE   H7X13535   4.478   3.823   4.124  1.6398  0.5916  1.5856
  126SOPE   H7Y13536   4.308   3.871   4.151 -2.7457  4.3751  1.8648
  126SOPE   C3813537   4.436   3.944   4.298 -0.2484  0.4663  0.4022
  126SOPE   H8X13538   4.545   3.966   4.295  0.0386 -0.9216 -1.4590
  126SOPE   H8Y13539   4.417   3.857   4.364  0.3952 -1.0776 -1.3607
  126SOPE   C3913540   4.349   4.070   4.337 -0.3216  0.4406 -0.0624
  126SOPE   H9X13541   4.246   4.037   4.310 -0.3173 -0.0741  0.5381
  126SOPE   H9Y13542   4.379   4.165   4.286  1.2742  0.6078  1.1025
  126SOPE  C31013543   4.350   4.101   4.480  0.2673  0.1175 -0.8241
  126SOPE  H10X13544   4.298   4.021   4.537 -1.4899  3.3756  2.6351
  126SOPE  H10Y13545   4.302   4.195   4.517  1.4662 -0.0230  1.2754
  126SOPE  C31113546   4.493   4.114   4.541  0.0558  1.2325 -0.0861
  126SOPE  H11X13547   4.551   4.192   4.488  0.4578  0.2054 -1.2004
  126SOPE  H11Y13548   4.557   4.024   4.528 -0.9948  0.4312  0.2151
  126SOPE  C31213549   4.486   4.143   4.690 -0.0138 -0.2337  0.3241
  126SOPE  H12X13550   4.442   4.054   4.740  1.7065 -2.2703 -1.5587
  126SOPE  H12Y13551   4.418   4.229   4.710 -1.4835 -1.1798 -0.4299
  126SOPE  C31313552   4.629   4.166   4.749  0.4268 -0.7697  0.2376
  126SOPE  H13X13553   4.680   4.255   4.706 -1.8070 -0.5267 -2.2030
  126SOPE  H13Y13554   4.703   4.088   4.720  0.7680 -0.2544 -0.3012
  126SOPE  C31413555   4.638   4.182   4.903  0.1870  0.5322 -0.4727
  126SOPE  H14X13556   4.596   4.087   4.943  0.9562  0.3497 -0.0753
  126SOPE  H14Y13557   4.576   4.264   4.944  2.2871  1.0595  1.9390
  126SOPE  C31513558   4.783   4.170   4.955  0.1496  0.3988 -0.5687
  126SOPE  H15X13559   4.833   4.081   4.912 -1.2830 -1.8906  2.1756
  126SOPE  H15Y13560   4.789   4.142   5.062 -0.7573  0.2787 -0.5414
  126SOPE  C31613561   4.856   4.296   4.919 -0.6454 -0.3962 -0.1645
  126SOPE  H16X13562   4.798   4.390   4.926  0.1462  0.0946 -0.0399
  126SOPE  H16Y13563   4.890   4.292   4.814  1.2810  1.7690  0.2894
  126SOPE  C31713564   4.980   4.309   5.002 -0.3142 -0.2932 -0.5709
  126SOPE  H17X13565   5.042   4.390   4.956  1.0706 -1.1924 -0.3607
  126SOPE  H17Y13566   5.034   4.212   4.996  1.2523  0.4584  0.6635
  126SOPE  C31813567   4.944   4.335   5.145  0.2652  0.2405  0.5054
  126SOPE  H18X13568   4.966   4.242   5.203  0.3361  0.0049  0.1080
  126SOPE  H18Y13569   4.835   4.354   5.155 -0.5288 -3.1328 -0.2439
  126SOPE  H18Z13570   5.000   4.416   5.195 -0.4258  0.7541  0.4502
  127SOPE     N13571   6.150   5.220   2.992  0.0256 -0.5579  0.3821
  127SOPE   HN113572   6.059   5.267   3.013  0.2400 -0.5386  1.3074
  127SOPE   HN213573   6.151   5.141   3.059 -0.7757 -0.6426  0.3138
  127SOPE   HN313574   6.223   5.293   2.985 -0.5595 -0.0326 -0.5558
  127SOPE   C1213575   6.120   5.164   2.853 -0.4013  0.3832  0.2185
  127SOPE  H12A13576   6.209   5.118   2.805  1.9453  2.2621  2.4358
  127SOPE  H12B13577   6.079   5.250   2.796 -3.5463  0.3952  2.2780
  127SOPE   C1113578   6.012   5.058   2.863 -0.0387 -0.6058 -0.0096
  127SOPE  H11A13579   5.956   5.058   2.767 -2.6854 -2.6955  1.3866
  127SOPE  H11B13580   5.935   5.078   2.942  1.2930 -1.1061  1.4671
  127SOPE     P13581   6.114   4.870   3.017  0.6598  0.1321  0.3306
  127SOPE   O1313582   6.240   4.793   3.000  0.2312 -0.6964  0.2697
  127SOPE   O1413583   6.001   4.789   3.065  0.3073  0.0613 -0.2826
  127SOPE   O1213584   6.075   4.934   2.887 -0.1172  0.0813  0.4595
  127SOPE   O1113585   6.141   4.989   3.114 -0.1280  0.7900 -0.4105
  127SOPE    C113586   6.208   4.956   3.238 -0.3798  0.4170  0.0415
  127SOPE    HA13587   6.316   4.981   3.233  0.2753 -2.3991 -2.0756
  127SOPE    HB13588   6.205   4.848   3.264  0.6904  0.3754  0.0374
  127SOPE    C213589   6.141   5.046   3.348  0.0317 -0.3710 -0.0527
  127SOPE    HS13590   6.036   5.010   3.350  0.0816 -0.5630 -0.6423
  127SOPE   O2113591   6.154   5.183   3.305  0.3930  0.7364  1.0124
  127SOPE   C2113592   6.096   5.283   3.370  0.3123  1.0399  0.3884
  127SOPE   O2213593   5.997   5.266   3.440 -0.5347 -0.2927  0.2686
  127SOPE   C2213594   6.176   5.407   3.357  0.5116 -0.0859 -0.3453
  127SOPE   H2R13595   6.146   5.455   3.262 -0.0360 -0.4747 -0.3750
  127SOPE   H2S13596   6.286   5.388   3.357  0.3309 -1.5298  2.0009
  127SOPE    C313597   6.208   5.016   3.486  0.5742 -0.1103 -0.2235
  127SOPE    HX13598   6.292   5.089   3.495 -0.5849  1.1275  1.0604
  127SOPE    HY13599   6.232   4.908   3.499 -0.4463 -0.2839  0.3646
  127SOPE   O3113600   6.114   5.051   3.588  0.1967 -0.5152 -0.0312
  127SOPE   C3113601   6.002   4.985   3.596  0.1780  0.5429  0.0112
  127SOPE   O3213602   5.980   4.881   3.536 -0.4408  0.1371 -0.1636
  127SOPE   C3213603   5.908   5.045   3.703 -0.2492  0.7170  0.1000
  127SOPE   H2X13604   5.808   5.005   3.674 -0.1142  1.7507 -1.9535
  127SOPE   H2Y13605   5.906   5.156   3.696 -0.5032  0.6307 -1.6209
  127SOPE   C2313606   6.142   5.496   3.479  0.4107  0.3302  0.2255
  127SOPE   H3R13607   6.031   5.493   3.490  0.3846 -1.0982 -0.1385
  127SOPE   H3S13608   6.167   5.602   3.460  0.0562  0.3163 -0.3796
  127SOPE   C2413609   6.224   5.439   3.599 -0.0732 -0.6573 -0.0951
  127SOPE   H4R13610   6.235   5.329   3.589 -1.4062 -0.9152  0.9153
  127SOPE   H4S13611   6.326   5.483   3.592 -0.4311  0.1822 -0.1521
  127SOPE   C2513612   6.145   5.460   3.732 -0.5079  0.7790 -0.3118
  127SOPE   H5R13613   6.111   5.566   3.727  0.7510  1.2339  0.3201
  127SOPE   H5S13614   6.065   5.384   3.741  2.2379 -2.3252 -0.4614
  127SOPE   C2613615   6.215   5.433   3.872 -0.4164 -0.8263 -0.0760
  127SOPE   H6R13616   6.306   5.496   3.871 -1.5895  0.9713 -2.1111
  127SOPE   H6S13617   6.155   5.460   3.962  2.1950  0.9511  1.2636
  127SOPE   C2713618   6.270   5.286   3.891  0.6867 -0.0512 -0.1274
  127SOPE   H7R13619   6.212   5.214   3.829  2.1022 -1.3956  0.0543
  127SOPE   H7S13620   6.365   5.288   3.833  1.3768  2.9245  0.9482
  127SOPE   C2813621   6.287   5.235   4.026  0.4129 -0.2181 -0.2106
  127SOPE   H8R13622   6.190   5.239   4.078 -1.3639 -1.2095 -3.1874
  127SOPE   H8S13623   6.306   5.126   4.025  1.3089 -0.3198  4.5708
  127SOPE   C2913624   6.415   5.302   4.088  0.3643 -0.3688 -0.1196
  127SOPE   H9113625   6.502   5.308   4.021  1.4606 -0.7027  1.2282
  127SOPE  C21013626   6.433   5.348   4.213  0.6523  0.1415  0.6268
  127SOPE  H10113627   6.530   5.388   4.246  0.3651  2.1162 -0.7939
  127SOPE  C21113628   6.323   5.338   4.323 -0.1587  0.0943 -0.3541
  127SOPE  H11R13629   6.265   5.245   4.309 -0.3931  0.1253  0.3800
  127SOPE  H11S13630   6.253   5.425   4.321  1.4068  1.3931 -0.9387
  127SOPE  C21213631   6.389   5.316   4.462 -0.0608  0.1885 -0.1595
  127SOPE  H12R13632   6.434   5.415   4.486 -2.0168  0.6584  1.9607
  127SOPE  H12S13633   6.470   5.244   4.441  0.6989  0.4516  1.6546
  127SOPE  C21313634   6.293   5.280   4.575  0.5116 -0.1574  0.6989
  127SOPE  H13R13635   6.229   5.190   4.577 -1.1056  0.9298 -0.0454
  127SOPE  H13S13636   6.218   5.362   4.577  0.1650 -0.4630  2.6403
  127SOPE  C21413637   6.363   5.281   4.714  0.2976  0.0419  0.6946
  127SOPE  H14R13638   6.305   5.352   4.776 -1.1379 -0.5473  0.0888
  127SOPE  H14S13639   6.468   5.317   4.705 -0.5610  2.2362 -1.9799
  127SOPE  C21513640   6.374   5.137   4.776  0.5833  0.3996 -0.1020
  127SOPE  H15R13641   6.422   5.078   4.695  1.2553  0.9615 -0.1219
  127SOPE  H15S13642   6.272   5.101   4.801  0.7484  0.3444  0.5176
  127SOPE  C21613643   6.478   5.130   4.891  0.2914 -0.4736 -0.6509
  127SOPE  H16R13644   6.475   5.215   4.963  3.1710 -0.1386 -0.8345
  127SOPE  H16S13645   6.576   5.152   4.845  0.0096 -0.1987 -1.1362
  127SOPE  C21713646   6.481   5.004   4.968 -0.0591  0.0105 -0.4482
  127SOPE  H17R13647   6.502   4.920   4.898  0.1015 -0.4746  0.1849
  127SOPE  H17S13648   6.385   4.982   5.019 -0.0186  1.3812  0.2856
  127SOPE  C21813649   6.591   5.010   5.079 -0.1149  0.1557 -0.1810
  127SOPE  H18R13650   6.557   5.076   5.161  0.2851  2.3683 -1.7079
  127SOPE  H18S13651   6.684   5.041   5.027  1.4015  0.5495  2.5980
  127SOPE  H18T13652   6.598   4.909   5.124 -0.9919  0.1075 -0.1197
  127SOPE   C3313653   5.938   4.996   3.841 -0.4670 -0.3736 -0.9874
  127SOPE   H3X13654   6.042   5.023   3.868 -1.2855 -0.2577  2.5051
  127SOPE   H3Y13655   5.927   4.887   3.859  2.1983 -0.6261 -0.5237
  127SOPE   C3413656   5.833   5.055   3.937 -0.5343  0.1083 -0.6105
  127SOPE   H4X13657   5.729   5.036   3.902 -2.1601  0.0296  3.6428
  127SOPE   H4Y13658   5.829   5.165   3.927  0.6340  0.1520 -0.7194
  127SOPE   C3513659   5.853   5.020   4.086  0.1176 -0.0154 -0.6292
  127SOPE   H5X13660   5.953   5.055   4.119 -0.3776  0.7625  0.0941
  127SOPE   H5Y13661   5.835   4.912   4.104 -2.0864 -0.0621 -2.6063
  127SOPE   C3613662   5.746   5.100   4.164  0.3855  0.3186  0.0672
  127SOPE   H6X13663   5.647   5.070   4.125  1.0991 -1.8263 -0.2601
  127SOPE   H6Y13664   5.755   5.210   4.159 -2.6825  0.5808 -1.6470
  127SOPE   C3713665   5.753   5.068   4.319  0.2427 -0.1543 -0.4497
  127SOPE   H7X13666   5.860   5.086   4.343  0.2895  2.0842 -2.0584
  127SOPE   H7Y13667   5.726   4.961   4.332  1.6330 -0.6323 -1.1938
  127SOPE   C3813668   5.659   5.152   4.415 -0.0321 -0.4546 -0.2888
  127SOPE   H8X13669   5.551   5.125   4.406 -0.5056 -0.0112  2.9845
  127SOPE   H8Y13670   5.655   5.262   4.397  0.8892 -0.8477 -3.4675
  127SOPE   C3913671   5.701   5.126   4.556 -0.3148 -0.3755  0.5417
  127SOPE   H9X13672   5.792   5.188   4.572  0.0204 -0.1770 -1.8193
  127SOPE   H9Y13673   5.717   5.018   4.574 -1.6035 -0.8817 -1.0785
  127SOPE  C31013674   5.598   5.153   4.666 -0.4527 -1.1711 -0.6221
  127SOPE  H10X13675   5.588   5.264   4.674  2.8196 -0.8338 -0.1690
  127SOPE  H10Y13676   5.646   5.128   4.763  0.1197 -1.7701 -1.0561
  127SOPE  C31113677   5.448   5.103   4.659  0.2406 -0.1817 -0.2216
  127SOPE  H11X13678   5.451   4.999   4.696  0.5893  0.1083  0.5887
  127SOPE  H11Y13679   5.413   5.103   4.553  1.5765 -1.6314 -0.7032
  127SOPE  C31213680   5.335   5.182   4.737  0.0295 -0.2495 -0.1355
  127SOPE  H12X13681   5.239   5.157   4.686  0.1762 -0.2754 -0.4001
  127SOPE  H12Y13682   5.362   5.289   4.725 -0.8200 -0.2310 -2.3907
  127SOPE  C31313683   5.331   5.135   4.882  0.6686 -0.6929 -0.5061
  127SOPE  H13X13684   5.248   5.188   4.934  1.1935 -1.6237  1.3747
  127SOPE  H13Y13685   5.422   5.175   4.933 -0.5293 -0.5858  1.6791
  127SOPE  C31413686   5.318   4.983   4.917 -0.0760 -0.2013 -0.1295
  127SOPE  H14X13687   5.409   4.931   4.882 -0.4315  0.1893 -1.7035
  127SOPE  H14Y13688   5.238   4.930   4.861  0.1379 -0.5786 -0.0807
  127SOPE  C31513689   5.317   4.951   5.073  0.2343 -0.1112  0.1385
  127SOPE  H15X13690   5.223   4.997   5.108 -0.7690  0.2417 -2.7604
  127SOPE  H15Y13691   5.403   5.003   5.120 -0.3832  1.9016 -0.8549
  127SOPE  C31613692   5.317   4.796   5.109 -0.1979 -0.5711 -0.2784
  127SOPE  H16X13693   5.387   4.794   5.196 -0.8901 -1.3133  0.2813
  127SOPE  H16Y13694   5.360   4.752   5.017  0.7597  1.2313 -0.7429
  127SOPE  C31713695   5.176   4.748   5.138  0.1241  0.1813 -0.3560
  127SOPE  H17X13696   5.182   4.637   5.134  0.1357  0.2012 -1.0265
  127SOPE  H17Y13697   5.100   4.769   5.060 -0.0923 -0.7018 -0.3974
  127SOPE  C31813698   5.122   4.797   5.274 -0.0155 -0.2607 -0.0073
  127SOPE  H18X13699   5.012   4.787   5.271 -0.4780  2.1323  3.3548
  127SOPE  H18Y13700   5.141   4.904   5.298 -1.3477 -0.0344  0.0828
  127SOPE  H18Z13701   5.153   4.735   5.361 -0.1362 -0.7026 -0.2727
  128SOPE     N13702   1.369   3.419   3.355 -0.1468 -0.6875 -0.2706
  128SOPE   HN113703   1.304   3.337   3.351 -1.5089  0.3883 -2.1608
  128SOPE   HN213704   1.379   3.452   3.452 -0.4911  0.6569 -0.6735
  128SOPE   HN313705   1.319   3.495   3.305  2.7894  0.2291 -2.0409
  128SOPE   C1213706   1.498   3.392   3.288  0.0244 -0.0481  0.3959
  128SOPE  H12A13707   1.570   3.475   3.305  0.9946 -0.9972  1.0815
  128SOPE  H12B13708   1.481   3.371   3.180 -1.8906  0.0204  0.6568
  128SOPE   C1113709   1.564   3.263   3.345  0.2316  0.6546 -0.1374
  128SOPE  H11A13710   1.621   3.281   3.438  1.4870 -0.8416 -0.5649
  128SOPE  H11B13711   1.631   3.222   3.266 -0.7494 -0.8182 -0.2503
  128SOPE     P13712   1.499   3.027   3.451  0.4641  0.0425 -0.4090
  128SOPE   O1313713   1.616   3.063   3.533 -0.6880 -0.0158  0.1468
  128SOPE   O1413714   1.512   2.910   3.361  0.2728 -0.0809 -0.1359
  128SOPE   O1213715   1.463   3.168   3.378 -0.1144 -0.1403 -0.2392
  128SOPE   O1113716   1.369   2.999   3.542  0.2070  0.3186  0.1823
  128SOPE    C113717   1.295   3.093   3.617 -0.1736 -0.7616 -0.0279
  128SOPE    HA13718   1.188   3.064   3.616  0.4643 -3.3771 -1.9354
  128SOPE    HB13719   1.298   3.191   3.565  0.5348 -1.8409 -2.1179
  128SOPE    C213720   1.354   3.117   3.757  0.1791 -0.5320 -0.8795
  128SOPE    HS13721   1.456   3.157   3.740 -0.0122 -0.2934 -1.4708
  128SOPE   O2113722   1.343   2.987   3.832 -0.6526 -0.6418  0.0468
  128SOPE   C2113723   1.444   2.969   3.916 -0.2136 -0.4121  0.7612
  128SOPE   O2213724   1.539   3.040   3.931 -0.0663 -0.0970 -0.1270
  128SOPE   C2213725   1.411   2.852   3.996  0.4399  0.2212  0.1848
  128SOPE   H2R13726   1.500   2.786   3.999 -0.6520 -1.2779  0.5586
  128SOPE   H2S13727   1.327   2.802   3.943  0.6390  0.1966 -0.1091
  128SOPE    C313728   1.271   3.214   3.842 -0.5577  0.0801 -0.6076
  128SOPE    HX13729   1.164   3.187   3.857 -0.7001  0.3606 -1.0876
  128SOPE    HY13730   1.262   3.302   3.775 -1.8797  0.8010  0.4538
  128SOPE   O3113731   1.324   3.242   3.977 -0.6653 -0.6732 -0.7405
  128SOPE   C3113732   1.406   3.347   3.994 -0.3669  0.2117 -0.2580
  128SOPE   O3213733   1.438   3.418   3.903 -0.0908 -0.4996 -0.2500
  128SOPE   C3213734   1.443   3.363   4.147  0.1278  0.5966  1.3585
  128SOPE   H2X13735   1.416   3.262   4.186 -0.5874 -0.1632 -0.9408
  128SOPE   H2Y13736   1.379   3.443   4.190 -0.4568  0.2085  1.2281
  128SOPE   C2313737   1.374   2.880   4.142 -0.2447 -0.1649 -0.2049
  128SOPE   H3R13738   1.358   2.788   4.201  1.2340 -1.0138 -1.0688
  128SOPE   H3S13739   1.275   2.931   4.149 -1.3665 -2.2031 -0.4662
  128SOPE   C2413740   1.490   2.947   4.219  0.1936 -0.1867  0.0440
  128SOPE   H4R13741   1.586   2.902   4.187 -0.1344 -1.0600  0.2849
  128SOPE   H4S13742   1.505   3.053   4.188  4.9905 -0.7108 -0.0795
  128SOPE   C2513743   1.489   2.967   4.376 -0.7851 -1.0794  0.2615
  128SOPE   H5R13744   1.496   2.866   4.423  0.2044 -1.7750 -1.3031
  128SOPE   H5S13745   1.578   3.031   4.395  0.4574 -3.2930  2.4212
  128SOPE   C2613746   1.367   3.035   4.432 -0.0593 -0.4348 -0.3136
  128SOPE   H6R13747   1.344   3.124   4.370  0.6219 -0.7302 -1.0190
  128SOPE   H6S13748   1.282   2.967   4.409  1.0028 -0.5217 -5.2023
  128SOPE   C2713749   1.400   3.075   4.576  0.0962  0.1685 -0.1119
  128SOPE   H7R13750   1.487   3.143   4.588  0.4057 -0.7203  4.1617
  128SOPE   H7S13751   1.311   3.121   4.625 -1.4592 -1.6543 -1.0443
  128SOPE   C2813752   1.434   2.948   4.673  0.7464  0.1025  0.3468
  128SOPE   H8R13753   1.342   2.885   4.669  1.1361 -0.4686  0.3702
  128SOPE   H8S13754   1.517   2.894   4.624 -0.7770 -2.5921  0.5783
  128SOPE   C2913755   1.483   2.989   4.812  0.0007  0.1692  0.2216
  128SOPE   H9113756   1.583   3.035   4.804  0.1501 -0.5333 -3.2697
  128SOPE  C21013757   1.428   2.984   4.937  0.2034  0.5643  0.1779
  128SOPE  H10113758   1.479   3.027   5.025  0.6119  2.1958 -0.8170
  128SOPE  C21113759   1.287   2.936   4.960 -0.3851 -0.0086  0.5137
  128SOPE  H11R13760   1.293   2.830   4.991  1.7773  0.0063  0.3162
  128SOPE  H11S13761   1.231   2.950   4.866  2.5713 -0.9073 -1.5479
  128SOPE  C21213762   1.229   3.022   5.073 -0.0762  0.4966  0.0659
  128SOPE  H12R13763   1.239   3.129   5.044 -0.7014  0.1314 -1.6296
  128SOPE  H12S13764   1.282   3.007   5.170 -2.0099 -1.4072  0.9179
  128SOPE  C21313765   1.085   2.975   5.103 -0.1135 -0.0511  0.2933
  128SOPE  H13R13766   1.084   2.869   5.137 -1.2414 -0.5122 -1.0748
  128SOPE  H13S13767   1.022   2.995   5.014 -2.1376  0.8258  1.8506
  128SOPE  C21413768   1.024   3.068   5.204 -0.2208  0.0638 -0.0001
  128SOPE  H14R13769   1.018   3.174   5.171 -1.3467  0.0347  0.0665
  128SOPE  H14S13770   1.074   3.055   5.302  1.3379  0.0006 -0.7568
  128SOPE  C21513771   0.878   3.032   5.229 -0.5668  0.3185 -0.2299
  128SOPE  H15R13772   0.870   2.931   5.275 -2.3630  1.3797  2.0208
  128SOPE  H15S13773   0.821   3.040   5.134  0.8535 -1.5020 -1.3076
  128SOPE  C21613774   0.801   3.127   5.328 -0.8385 -0.1055  1.1695
  128SOPE  H16R13775   0.860   3.145   5.421 -0.2287  1.1620  0.5670
  128SOPE  H16S13776   0.705   3.076   5.349 -1.5047  0.8981  0.6306
  128SOPE  C21713777   0.767   3.261   5.265  0.1321 -0.1444 -0.3190
  128SOPE  H17R13778   0.704   3.255   5.173  0.9459  0.1383 -0.9109
  128SOPE  H17S13779   0.864   3.309   5.241  0.0393 -0.2299 -0.8886
  128SOPE  C21813780   0.691   3.348   5.363  0.6010  0.1403 -0.2700
  128SOPE  H18R13781   0.742   3.357   5.462  1.0405  0.6821 -0.5423
  128SOPE  H18S13782   0.586   3.314   5.368  0.0048  1.8407 -0.6714
  128SOPE  H18T13783   0.696   3.451   5.324 -2.8339  0.2547 -0.6367
  128SOPE   C3313784   1.592   3.396   4.153  0.1536  0.8549  0.4930
  128SOPE   H3X13785   1.603   3.506   4.141  1.0700  0.8421  1.1479
  128SOPE   H3Y13786   1.640   3.352   4.063 -3.4788  0.9759 -1.7235
  128SOPE   C3413787   1.674   3.357   4.272  0.4212  0.2948  0.7050
  128SOPE   H4X13788   1.779   3.389   4.256  0.2681 -0.1536 -1.5466
  128SOPE   H4Y13789   1.669   3.246   4.273  0.4616  0.2647 -0.6478
  128SOPE   C3513790   1.618   3.396   4.409  0.2009 -0.0280 -0.3105
  128SOPE   H5X13791   1.526   3.345   4.445  0.5582  0.4006  1.2952
  128SOPE   H5Y13792   1.613   3.506   4.418  1.9257 -0.1190  4.9955
  128SOPE   C3613793   1.719   3.369   4.525  0.8359 -0.2309 -0.1064
  128SOPE   H6X13794   1.816   3.418   4.499 -0.7646  2.8762 -0.6521
  128SOPE   H6Y13795   1.755   3.264   4.532  0.2821 -0.5259 -1.3995
  128SOPE   C3713796   1.675   3.413   4.664 -0.1295  0.1120 -0.1683
  128SOPE   H7X13797   1.574   3.380   4.698 -0.7365  0.4787 -1.5624
  128SOPE   H7Y13798   1.665   3.523   4.652  0.1548  0.0695 -0.8417
  128SOPE   C3813799   1.786   3.376   4.764 -0.6406  0.0259 -0.1744
  128SOPE   H8X13800   1.887   3.380   4.719 -0.3509  0.8324  0.5040
  128SOPE   H8Y13801   1.769   3.269   4.787 -2.7769  0.2061 -0.6557
  128SOPE   C3913802   1.781   3.448   4.900  0.1189 -0.1377  0.5891
  128SOPE   H9X13803   1.673   3.441   4.928 -0.1053 -2.2175 -0.6036
  128SOPE   H9Y13804   1.798   3.555   4.875 -3.0515 -0.0778 -1.9795
  128SOPE  C31013805   1.884   3.389   5.005  0.2741  0.5186  0.1453
  128SOPE  H10X13806   1.974   3.454   5.017 -0.8443  1.8493  1.9968
  128SOPE  H10Y13807   1.924   3.290   4.978 -0.5297 -0.0700  1.0524
  128SOPE  C31113808   1.822   3.375   5.147  0.3274  0.2041  0.3082
  128SOPE  H11X13809   1.760   3.466   5.165 -0.5160 -0.4299  0.6363
  128SOPE  H11Y13810   1.910   3.371   5.215 -0.9351  0.8337  2.0633
  128SOPE  C31213811   1.734   3.252   5.165  0.4838 -0.1587 -0.1507
  128SOPE  H12X13812   1.786   3.165   5.120  2.4386  0.2417  1.1957
  128SOPE  H12Y13813   1.646   3.278   5.101  1.2951  0.4592 -1.0524
  128SOPE  C31313814   1.674   3.229   5.312 -0.1132 -0.0040  0.0003
  128SOPE  H13X13815   1.619   3.319   5.345  1.3352  0.7304  0.5000
  128SOPE  H13Y13816   1.749   3.216   5.393  0.2984 -0.2141 -0.4082
  128SOPE  C31413817   1.581   3.103   5.321  0.1804  0.2438  0.2095
  128SOPE  H14X13818   1.644   3.025   5.273 -0.8522 -0.1061 -0.5980
  128SOPE  H14Y13819   1.492   3.111   5.256 -0.0927  0.9223  0.6595
  128SOPE  C31513820   1.532   3.059   5.459 -0.2133 -0.2855  0.0021
  128SOPE  H15X13821   1.479   3.139   5.514  0.0877 -0.3325  0.3619
  128SOPE  H15Y13822   1.619   3.031   5.521 -0.9064  0.3348  1.2849
  128SOPE  C31613823   1.427   2.946   5.452 -0.4150 -0.3102 -0.4530
  128SOPE  H16X13824   1.328   2.977   5.411 -0.2309  1.6243  0.4653
  128SOPE  H16Y13825   1.422   2.910   5.558  0.5204 -1.5988 -0.8201
  128SOPE  C31713826   1.467   2.827   5.372  0.1911  0.1633 -0.3668
  128SOPE  H17X13827   1.531   2.767   5.439 -1.0660 -0.1301  0.6079
  128SOPE  H17Y13828   1.520   2.844   5.276  0.9409 -0.9705 -0.1636
  128SOPE  C31813829   1.358   2.730   5.335  0.8191  0.2310 -0.3268
  128SOPE  H18X13830   1.400   2.635   5.295  0.1086 -0.7378  1.1373
  128SOPE  H18Y13831   1.306   2.778   5.249  1.2169 -0.8938 -1.2282
  128SOPE  H18Z13832   1.288   2.707   5.418  0.2878  1.4093 -0.4218
  129OSM      N13833   6.412   5.076   7.963  0.2464  0.1091  0.1851
  129OSM    C1513834   6.364   5.083   7.821 -0.0991  0.3803  0.3443
  129OSM   H15A13835   6.320   5.180   7.807  0.4183  0.7795  1.3711
  129OSM   H15B13836   6.296   5.001   7.804 -1.2625  1.3838  0.0888
  129OSM   H15C13837   6.450   5.087   7.755  0.4018  0.3268  0.9811
  129OSM    C1413838   6.290   5.103   8.051  0.2378 -0.1872 -0.3042
  129OSM   H14A13839   6.262   5.207   8.056 -0.8621 -0.4884  0.2859
  129OSM   H14B13840   6.320   5.073   8.150  1.1403  0.1015 -0.4805
  129OSM   H14C13841   6.217   5.032   8.013  0.9821 -1.7427  1.0810
  129OSM    C1313842   6.463   4.939   7.993 -0.3304  0.6592  0.2718
  129OSM   H13A13843   6.496   4.923   8.095 -2.0751 -2.3527  0.4980
  129OSM   H13B13844   6.547   4.909   7.932 -1.7925 -3.4179 -0.0866
  129OSM   H13C13845   6.383   4.872   7.963 -0.2881  0.5289  0.4497
  129OSM    C1213846   6.521   5.176   7.992  0.7406 -1.0443 -0.0664
  129OSM   H12A13847   6.620   5.139   7.967  0.7067 -2.1738  1.3746
  129OSM   H12B13848   6.529   5.198   8.097  0.9756 -1.8819  0.0963
  129OSM    C1113849   6.508   5.317   7.932 -0.1757 -0.0782 -0.2631
  129OSM   H11A13850   6.495   5.306   7.822 -2.7603 -1.9155  0.1236
  129OSM   H11B13851   6.604   5.365   7.960  0.6246 -1.6991 -0.1168
  129OSM      P13852   6.339   5.512   7.913  0.0061  0.1767  0.3398
  129OSM    O1313853   6.231   5.562   8.004 -0.2021  0.2395  0.2191
  129OSM    O1413854   6.450   5.599   7.870 -0.2660  0.1539  0.0261
  129OSM    O1113855   6.271   5.452   7.780 -0.1731  0.2758  0.0532
  129OSM    O1213856   6.404   5.391   7.986  0.1100  0.9083 -0.5851
  129OSM    C1S13857   6.211   5.539   7.684 -0.6671 -1.2851 -0.1470
  129OSM    H1S13858   6.246   5.643   7.701  0.6749 -2.0949  2.7026
  129OSM    H1T13859   6.100   5.533   7.691 -0.7554 -0.6828 -0.8547
  129OSM     NF13860   6.221   5.602   7.443 -0.2739  0.0639  0.0749
  129OSM    HNF13861   6.139   5.590   7.386 -1.2166  3.2295  0.5635
  129OSM    C2S13862   6.254   5.498   7.540  0.6417  0.0404 -0.3136
  129OSM    H2S13863   6.365   5.496   7.536  0.6484  1.1339 -1.5419
  129OSM    C3S13864   6.203   5.353   7.514  0.6963 -0.2581 -0.0355
  129OSM    H3S13865   6.094   5.346   7.532  0.9340  1.4100  2.7107
  129OSM     O313866   6.248   5.254   7.598  0.6327 -0.3005 -0.1967
  129OSM    HO313867   6.271   5.310   7.673 -0.2181 -0.7130  0.3851
  129OSM    C4S13868   6.236   5.310   7.374  0.0542 -0.2571 -0.4376
  129OSM    H4S13869   6.345   5.298   7.363 -0.0466 -2.3208  0.3346
  129OSM    C5S13870   6.151   5.262   7.287  0.5655  0.2161  0.5015
  129OSM    H5S13871   6.047   5.250   7.322  0.6956  1.5810  1.4197
  129OSM    C6S13872   6.183   5.204   7.148 -0.0461  0.1457  0.0497
  129OSM    H6S13873   6.131   5.109   7.126  1.0467 -0.3796 -0.3761
  129OSM    H6T13874   6.291   5.183   7.131  0.1242  0.2552  0.9896
  129OSM    C7S13875   6.124   5.287   7.023  0.3928 -0.1279 -0.1653
  129OSM    H7S13876   6.175   5.385   7.037 -0.1489 -0.1454  2.5413
  129OSM    H7T13877   6.016   5.311   7.031  0.2272 -0.2424 -1.8702
  129OSM    C8S13878   6.165   5.229   6.894  0.0780 -0.2526 -0.2271
  129OSM    H8S13879   6.091   5.160   6.849  2.2198 -1.6574 -1.7928
  129OSM    H8T13880   6.262   5.175   6.899  1.4149  1.8279 -1.7980
  129OSM    C9S13881   6.195   5.330   6.775 -0.6593  0.5605 -0.2101
  129OSM    H9S13882   6.291   5.382   6.792 -2.2037  3.7885 -0.5153
  129OSM    H9T13883   6.110   5.402   6.774 -1.0610  0.1866  1.8297
  129OSM   C10S13884   6.201   5.266   6.632 -0.0406  0.1442  0.1295
  129OSM   H10S13885   6.114   5.200   6.614  1.3003 -1.6927  0.0944
  129OSM   H10T13886   6.294   5.205   6.631 -0.7734 -1.1333  2.5758
  129OSM   C11S13887   6.202   5.373   6.518 -0.0262 -0.2246  0.1552
  129OSM   H11S13888   6.293   5.436   6.528  0.2081 -0.6035  0.4332
  129OSM   H11T13889   6.118   5.443   6.540  0.0016  1.2946 -3.7683
  129OSM   C12S13890   6.181   5.314   6.372 -0.9676  0.3358 -0.4855
  129OSM   H12S13891   6.086   5.258   6.358 -0.4376 -0.2336 -1.8766
  129OSM   H12T13892   6.266   5.246   6.349  0.4667  2.6212 -2.4007
  129OSM   C13S13893   6.175   5.423   6.267  0.2604 -0.0766  0.2127
  129OSM   H13S13894   6.270   5.479   6.277  1.4756 -1.8002 -1.2865
  129OSM   H13T13895   6.088   5.493   6.271 -0.4642 -0.8983 -0.6867
  129OSM   C14S13896   6.174   5.362   6.123 -0.3685 -0.1791 -0.1601
  129OSM   H14S13897   6.081   5.304   6.106  0.6024 -1.6982 -0.4857
  129OSM   H14T13898   6.249   5.281   6.130  0.3425  0.5195  0.5236
  129OSM   C15S13899   6.215   5.463   6.014 -0.0503 -0.6628  0.4840
  129OSM   H15S13900   6.315   5.511   6.024  0.0771 -0.9031  0.3829
  129OSM   H15T13901   6.142   5.546   6.019 -0.7559 -1.1875 -0.7634
  129OSM   C16S13902   6.217   5.410   5.869  0.1500  0.3524 -0.0638
  129OSM   H16S13903   6.113   5.378   5.846 -0.4590 -0.6763  3.5221
  129OSM   H16T13904   6.274   5.315   5.876 -1.4584 -0.7115 -0.8773
  129OSM   C17S13905   6.277   5.503   5.760  0.1743 -0.2184  0.7129
  129OSM   H17S13906   6.380   5.535   5.789  0.7263 -0.8832 -0.4569
  129OSM   H17T13907   6.228   5.603   5.763  0.9819  0.1630  2.3757
  129OSM   C18S13908   6.265   5.444   5.624 -0.2795 -0.0441  0.2024
  129OSM   H18S13909   6.158   5.425   5.599 -0.3837 -0.3679  0.8735
  129OSM   H18T13910   6.315   5.345   5.626 -1.9644 -0.9609  2.7796
  129OSM   H18U13911   6.306   5.513   5.547  2.0724 -1.3038  0.2345
  129OSM    C1F13912   6.284   5.709   7.422  0.0734 -0.2522  0.4492
  129OSM     OF13913   6.387   5.740   7.478  0.4438  0.0963  0.1565
  129OSM    C2F13914   6.218   5.804   7.324 -0.5633 -0.0321  0.4297
  129OSM    H2F13915   6.238   5.907   7.360  2.8848 -0.7636  0.9739
  129OSM    H2G13916   6.110   5.790   7.302 -0.2311 -2.2390 -0.0199
  129OSM    C3F13917   6.286   5.803   7.185 -0.2948 -0.2871 -0.8537
  129OSM    H3F13918   6.394   5.826   7.197 -0.0607 -1.1594 -1.1631
  129OSM    H3G13919   6.228   5.871   7.119 -0.7108  2.5905  2.1962
  129OSM    C4F13920   6.266   5.675   7.116  0.4654 -0.0849  0.7945
  129OSM    H4F13921   6.156   5.657   7.124  0.3294 -1.8115 -2.7709
  129OSM    H4G13922   6.312   5.596   7.179  1.2977 -0.3029 -0.0669
  129OSM    C5F13923   6.321   5.665   6.978  0.3965  0.2287 -0.2908
  129OSM    H5F13924   6.280   5.571   6.935 -1.8866  0.7231  0.6862
  129OSM    H5G13925   6.431   5.648   6.984  0.2107 -1.0809 -0.2056
  129OSM    C6F13926   6.289   5.770   6.871 -0.3921  0.1770 -0.9759
  129OSM    H6F13927   6.325   5.871   6.902 -1.6109  0.8320 -1.6327
  129OSM    H6G13928   6.179   5.782   6.867 -0.8224 -2.6206  0.3366
  129OSM    C7F13929   6.355   5.726   6.744 -0.0041  0.6459  0.1575
  129OSM    H7F13930   6.318   5.625   6.718 -1.5629  0.8757  1.3756
  129OSM    H7G13931   6.461   5.709   6.775  1.0261  0.7360 -2.9551
  129OSM    C8F13932   6.351   5.818   6.627 -0.2825 -0.1298 -0.1764
  129OSM    H8F13933   6.377   5.920   6.663  1.3522  0.1373 -1.9841
  129OSM    H8G13934   6.242   5.823   6.603 -0.5934  0.9512  1.2893
  129OSM    C9F13935   6.435   5.774   6.513 -0.1884 -0.3303 -0.3577
  129OSM    H9F13936   6.544   5.772   6.528 -0.2021  0.0288 -0.1983
  129OSM   C10F13937   6.397   5.762   6.381 -0.3220 -0.1204  0.8841
  129OSM   H10F13938   6.466   5.736   6.299  1.0569 -0.3806  2.0905
  129OSM   C11F13939   6.252   5.767   6.329  0.0628  0.4156  0.0394
  129OSM   H11F13940   6.195   5.856   6.364  1.3254  1.5277 -0.6395
  129OSM   H11G13941   6.195   5.683   6.373  2.7384 -0.4950  2.0855
  129OSM   C12F13942   6.232   5.769   6.176 -0.2556 -0.2707 -1.0824
  129OSM   H12F13943   6.122   5.765   6.158 -0.0039 -2.4749 -2.5272
  129OSM   H12G13944   6.279   5.676   6.140  1.1643  0.2703 -0.7134
  129OSM   C13F13945   6.294   5.890   6.113  0.2562  0.5250  0.3503
  129OSM   H13F13946   6.400   5.909   6.142  0.6357 -1.9038  0.7822
  129OSM   H13G13947   6.242   5.979   6.153 -1.9820 -0.8235  0.5939
  129OSM   C14F13948   6.274   5.890   5.958 -0.4688 -0.2723 -0.1959
  129OSM   H14F13949   6.165   5.874   5.946 -0.8420 -0.4174  2.6455
  129OSM   H14G13950   6.325   5.810   5.900  0.8390  0.2710  0.1603
  129OSM   C15F13951   6.311   6.025   5.884  0.2057 -0.1552 -0.1050
  129OSM   H15F13952   6.414   6.028   5.845  0.8251 -1.5180  1.2928
  129OSM   H15G13953   6.308   6.109   5.957  1.3805 -0.7449  0.6490
  129OSM   C16F13954   6.216   6.060   5.773  0.9171  0.8282 -0.9046
  129OSM   H16F13955   6.174   5.964   5.737 -1.1335  0.9920  0.8239
  129OSM   H16G13956   6.277   6.083   5.683  0.1422  1.6855 -1.2215
  129OSM   C17F13957   6.113   6.164   5.796 -0.7189 -1.0249  0.5288
  129OSM   H17F13958   6.161   6.248   5.850  0.8060 -1.9434  0.6525
  129OSM   H17G13959   6.031   6.129   5.863  1.0367 -1.6132  2.4626
  129OSM   C18F13960   6.048   6.218   5.675  0.2866 -0.0569 -0.2708
  129OSM   H18F13961   6.117   6.242   5.592  1.9414 -0.0831  1.0414
  129OSM   H18G13962   6.000   6.317   5.696 -0.2354 -0.7500  2.1039
  129OSM   H18H13963   5.974   6.145   5.636  0.9987 -0.2754 -1.2374
  130OSM      N13964   6.264   1.355   8.076 -0.2298 -0.2349 -1.1018
  130OSM    C1513965   6.150   1.314   7.993 -0.2162 -0.5557 -0.4480
  130OSM   H15A13966   6.195   1.257   7.913 -1.1606 -0.4249 -1.0941
  130OSM   H15B13967   6.091   1.395   7.953  1.1527  1.3992  1.2622
  130OSM   H15C13968   6.087   1.240   8.040  0.5347 -1.0678 -0.2262
  130OSM    C1413969   6.335   1.466   8.001  0.0601  0.2605 -0.6236
  130OSM   H14A13970   6.380   1.427   7.911 -0.1256 -0.3292 -0.4682
  130OSM   H14B13971   6.424   1.503   8.049  1.8432 -2.3179 -1.6793
  130OSM   H14C13972   6.271   1.547   7.972 -0.5543 -0.6383 -1.8695
  130OSM    C1313973   6.218   1.413   8.207  0.4375  0.0310  0.1780
  130OSM   H13A13974   6.156   1.501   8.196  0.8190  0.1962 -0.7484
  130OSM   H13B13975   6.308   1.434   8.264 -0.1247  0.2803  0.9900
  130OSM   H13C13976   6.162   1.343   8.267  0.1936  0.9880  1.1022
  130OSM    C1213977   6.354   1.236   8.109  0.0824  0.0712  0.5056
  130OSM   H12A13978   6.293   1.161   8.159  0.9173 -0.9839 -0.0149
  130OSM   H12B13979   6.430   1.268   8.179  0.0647  1.1931  0.0163
  130OSM    C1113980   6.426   1.158   7.996  0.0694 -0.8138  0.0017
  130OSM   H11A13981   6.493   1.080   8.039  2.1455  1.4958  1.2167
  130OSM   H11B13982   6.498   1.223   7.944 -0.0518 -0.6332  0.0592
  130OSM      P13983   6.304   0.946   7.916 -0.1287 -0.3857  0.0678
  130OSM    O1313984   6.388   0.875   8.011  0.0533  0.1458  0.2798
  130OSM    O1413985   6.158   0.945   7.942 -0.0374  0.0223  0.5056
  130OSM    O1113986   6.334   0.898   7.767  0.6914 -0.2428  0.5905
  130OSM    O1213987   6.342   1.096   7.907  0.0940  0.0019 -0.1182
  130OSM    C1S13988   6.458   0.840   7.749 -0.4832 -0.0911 -0.7334
  130OSM    H1S13989   6.457   0.740   7.796  0.6694  0.1767 -0.1324
  130OSM    H1T13990   6.535   0.911   7.786 -1.4400  0.0857  1.0212
  130OSM     NF13991   6.607   0.733   7.584 -0.3426 -0.2066  0.0832
  130OSM    HNF13992   6.686   0.790   7.566  0.1527 -0.6638  0.8038
  130OSM    C2S13993   6.489   0.813   7.600  0.5261 -0.0595 -0.7363
  130OSM    H2S13994   6.405   0.748   7.566 -0.0111  0.3092 -0.1352
  130OSM    C3S13995   6.484   0.938   7.522 -0.2410 -1.2977 -0.0833
  130OSM    H3S13996   6.568   1.006   7.550 -0.7668 -0.1539 -1.2264
  130OSM     O313997   6.366   1.011   7.536  0.3359 -0.0563  0.0449
  130OSM    HO313998   6.324   0.976   7.615 -0.1135 -0.5977 -0.4246
  130OSM    C4S13999   6.508   0.904   7.380  0.3272 -0.1034  0.9622
  130OSM    H4S14000   6.611   0.905   7.343  0.2029  1.4707  0.5913
  130OSM    C5S14001   6.412   0.868   7.290  0.3647  0.3997  0.4814
  130OSM    H5S14002   6.310   0.848   7.327  0.1332 -0.7459 -0.6906
  130OSM    C6S14003   6.446   0.826   7.150 -0.3517  0.3929  0.1941
  130OSM    H6S14004   6.543   0.867   7.115 -0.5826  2.2938  1.6248
  130OSM    H6T14005   6.375   0.861   7.072  0.9194  1.6050 -0.4663
  130OSM    C7S14006   6.446   0.671   7.134 -0.2994  0.2429 -0.1797
  130OSM    H7S14007   6.337   0.648   7.135  0.0020 -1.8744 -2.7693
  130OSM    H7T14008   6.496   0.612   7.213  1.4432  1.6973 -0.1412
  130OSM    C8S14009   6.502   0.620   7.002  0.2499 -0.8953  0.0797
  130OSM    H8S14010   6.490   0.510   6.996 -3.2039 -0.7276  1.4147
  130OSM    H8T14011   6.611   0.638   6.994  0.3595 -2.0572 -1.3125
  130OSM    C9S14012   6.432   0.666   6.874  0.0629  0.4369  0.3191
  130OSM    H9S14013   6.411   0.773   6.893  1.2916  0.5389  1.2713
  130OSM    H9T14014   6.344   0.602   6.850  0.4890 -0.9008  2.1072
  130OSM   C10S14015   6.529   0.676   6.748 -0.2640  0.3434 -0.8537
  130OSM   H10S14016   6.549   0.568   6.730 -2.1203  0.0636 -1.5176
  130OSM   H10T14017   6.625   0.731   6.757  0.7408 -1.0073 -2.6410
  130OSM   C11S14018   6.450   0.730   6.630  0.6844 -0.3783 -0.2130
  130OSM   H11S14019   6.424   0.834   6.659  2.5091 -0.1795  0.8783
  130OSM   H11T14020   6.356   0.672   6.621 -0.6311  1.6760 -0.2911
  130OSM   C12S14021   6.527   0.726   6.498 -1.0065 -0.1318  0.2447
  130OSM   H12S14022   6.587   0.633   6.500 -0.2598  0.3532  1.7001
  130OSM   H12T14023   6.600   0.809   6.489 -0.3053 -0.6932  0.5707
  130OSM   C13S14024   6.431   0.738   6.383 -0.3644 -0.3134 -0.4714
  130OSM   H13S14025   6.383   0.838   6.378 -0.1554 -0.1420  0.6097
  130OSM   H13T14026   6.347   0.666   6.387 -1.9726  1.2746 -3.0709
  130OSM   C14S14027   6.493   0.721   6.242  0.7610  0.1147  0.6903
  130OSM   H14S14028   6.558   0.632   6.228 -1.9537 -2.1110  1.1892
  130OSM   H14T14029   6.559   0.809   6.228 -0.9253  1.4906  1.0080
  130OSM   C15S14030   6.386   0.720   6.123  0.0806  0.2032 -0.2336
  130OSM   H15S14031   6.352   0.826   6.117 -0.4261  0.2662  2.6519
  130OSM   H15T14032   6.300   0.670   6.171 -1.0445  0.5613 -1.7835
  130OSM   C16S14033   6.419   0.645   6.000 -0.0917 -0.2228 -0.5202
  130OSM   H16S14034   6.326   0.595   5.965  0.1351 -1.7613  0.9276
  130OSM   H16T14035   6.495   0.567   6.022  1.4834  1.4374  0.1903
  130OSM   C17S14036   6.471   0.736   5.887  0.4468  0.5376 -0.2433
  130OSM   H17S14037   6.505   0.673   5.802  1.4377 -0.5011  0.8782
  130OSM   H17T14038   6.560   0.793   5.921  1.2349 -0.7220 -0.1513
  130OSM   C18S14039   6.359   0.827   5.826  0.7753  0.3536  0.3898
  130OSM   H18S14040   6.396   0.877   5.734  0.3605 -0.6353 -0.3300
  130OSM   H18T14041   6.326   0.900   5.903  1.1610  0.4431  0.4745
  130OSM   H18U14042   6.274   0.762   5.798 -1.5828  3.0419  0.8748
  130OSM    C1F14043   6.613   0.606   7.624  0.4483  0.2767 -0.4821
  130OSM     OF14044   6.512   0.552   7.663 -0.1522 -0.0083  0.1868
  130OSM    C2F14045   6.745   0.536   7.620  0.5200  0.6615  0.5708
  130OSM    H2F14046   6.776   0.498   7.719 -1.0665 -1.6238  0.2649
  130OSM    H2G14047   6.828   0.604   7.591  1.4869 -0.7065  0.0325
  130OSM    C3F14048   6.746   0.410   7.525 -0.1714  0.1596 -0.2476
  130OSM    H3F14049   6.666   0.341   7.559 -0.2986 -0.5705 -1.9303
  130OSM    H3G14050   6.840   0.352   7.538 -1.1566 -1.0012  2.2235
  130OSM    C4F14051   6.733   0.439   7.376  0.3011 -0.1118 -0.7662
  130OSM    H4F14052   6.824   0.481   7.327  0.4933  0.8991  0.4083
  130OSM    H4G14053   6.642   0.500   7.358 -0.3857 -1.0374 -0.5307
  130OSM    C5F14054   6.694   0.308   7.298  0.0403  0.0991 -0.1130
  130OSM    H5F14055   6.604   0.262   7.345 -0.0135  0.9566  0.6601
  130OSM    H5G14056   6.777   0.234   7.306  0.0450  0.0768 -0.3765
  130OSM    C6F14057   6.659   0.334   7.149  0.3656  0.2784  0.7401
  130OSM    H6F14058   6.725   0.419   7.121  0.3128 -0.2745 -1.1685
  130OSM    H6G14059   6.552   0.359   7.137  0.1191 -0.6345  0.9441
  130OSM    C7F14060   6.693   0.218   7.054  0.0038  0.2798 -0.0016
  130OSM    H7F14061   6.624   0.132   7.071  0.0624 -0.4379 -2.8460
  130OSM    H7G14062   6.801   0.195   7.071  0.7126  0.7374 -3.1077
  130OSM    C8F14063   6.672   0.242   6.910  0.7138 -0.9203  0.0870
  130OSM    H8F14064   6.563   0.257   6.894  0.8637 -0.4268 -0.5164
  130OSM    H8G14065   6.711   0.146   6.870  0.6005 -0.4191 -1.2816
  130OSM    C9F14066   6.751   0.363   6.847 -0.1217 -0.3624 -0.0169
  130OSM    H9F14067   6.772   0.442   6.921  0.6812 -1.2302  0.7026
  130OSM   C10F14068   6.802   0.368   6.722  0.2448  0.7449  0.6830
  130OSM   H10F14069   6.861   0.453   6.685  2.5198 -0.5715  1.1419
  130OSM   C11F14070   6.793   0.256   6.624 -0.1027  0.1144  0.4703
  130OSM   H11F14071   6.756   0.157   6.658  2.0570 -1.2391 -0.8970
  130OSM   H11G14072   6.891   0.232   6.577 -0.1693  2.0974 -0.8136
  130OSM   C12F14073   6.717   0.301   6.502  0.3453  0.1557 -0.3107
  130OSM   H12F14074   6.614   0.327   6.534  0.5415  0.1132  0.3709
  130OSM   H12G14075   6.719   0.220   6.425  0.0490  0.7196 -0.9258
  130OSM   C13F14076   6.787   0.424   6.434 -0.2490  0.1220 -0.6000
  130OSM   H13F14077   6.897   0.413   6.444 -0.3256  1.0871  2.8723
  130OSM   H13G14078   6.756   0.512   6.494 -1.3905  0.2197 -1.3077
  130OSM   C14F14079   6.764   0.447   6.284 -0.0575  0.1334  0.2015
  130OSM   H14F14080   6.653   0.450   6.278 -0.1351  2.6928  1.6634
  130OSM   H14G14081   6.801   0.370   6.212 -0.4173  1.3803 -1.3724
  130OSM   C15F14082   6.818   0.582   6.243 -0.7343 -0.0940 -0.2427
  130OSM   H15F14083   6.926   0.582   6.269 -0.8223 -0.2799  0.1342
  130OSM   H15G14084   6.777   0.660   6.311 -2.7448 -0.4730 -0.9439
  130OSM   C16F14085   6.821   0.622   6.096  0.5935  0.3353  0.4883
  130OSM   H16F14086   6.712   0.622   6.074  0.6108  0.9519  0.3994
  130OSM   H16G14087   6.856   0.537   6.033  0.3233 -0.0769  0.8896
  130OSM   C17F14088   6.881   0.756   6.053  0.5124  0.5683 -0.3207
  130OSM   H17F14089   6.988   0.738   6.075  0.3956 -1.5490 -1.1977
  130OSM   H17G14090   6.831   0.816   6.132  0.0398  0.7048 -0.7190
  130OSM   C18F14091   6.863   0.812   5.915 -0.0408 -0.4080  0.5023
  130OSM   H18F14092   6.959   0.857   5.880 -0.3445 -1.1569 -1.3794
  130OSM   H18G14093   6.787   0.892   5.916  1.0427  0.6524  1.3019
  130OSM   H18H14094   6.840   0.731   5.843  1.2416 -0.6317  0.3100
  131OSM      N14095   0.245   2.961   8.210 -0.4821 -0.1878  0.1851
  131OSM    C1514096   0.268   3.102   8.259  0.4599  0.5713  0.0714
  131OSM   H15A14097   0.324   3.103   8.351 -1.1239 -0.0341  1.0894
  131OSM   H15B14098   0.171   3.145   8.279 -0.7431 -2.0272  0.2616
  131OSM   H15C14099   0.315   3.160   8.180  2.4113  0.4802  1.1059
  131OSM    C1414100   0.381   2.910   8.186 -0.3678  0.3155  0.1541
  131OSM   H14A14101   0.446   2.924   8.271  1.5334  1.9894 -1.4821
  131OSM   H14B14102   0.423   2.944   8.093  0.1939 -1.4819 -0.2953
  131OSM   H14C14103   0.374   2.803   8.173 -0.2971  0.3615 -0.2851
  131OSM    C1314104   0.191   2.879   8.324  0.0478  0.1299 -0.0406
  131OSM   H13A14105   0.089   2.903   8.351 -0.0478 -1.4154  1.1478
  131OSM   H13B14106   0.247   2.894   8.415 -2.2341 -0.8460  1.6241
  131OSM   H13C14107   0.197   2.776   8.292 -0.8958  0.7550 -2.4176
  131OSM    C1214108   0.166   2.958   8.082  0.6414 -0.3315 -0.0251
  131OSM   H12A14109   0.155   2.857   8.047 -0.4243  0.4047 -1.9236
  131OSM   H12B14110   0.214   3.002   7.996 -1.2352 -1.2422 -1.6006
  131OSM    C1114111   0.026   3.035   8.077 -0.4980 -0.1158 -0.5264
  131OSM   H11A14112  -0.032   2.989   8.161  1.3522  2.2458  2.2207
  131OSM   H11B14113  -0.021   2.996   7.984 -2.5946  0.9544  0.0071
  131OSM      P14114   0.045   3.263   7.982 -0.5958  0.0260  0.2844
  131OSM    O1314115   0.047   3.406   8.028  0.2517  0.2600  0.8154
  131OSM    O1414116   0.173   3.226   7.911  0.0122  0.5105  0.2025
  131OSM    O1114117  -0.085   3.233   7.894  0.1046  0.2368  0.1674
  131OSM    O1214118   0.028   3.170   8.099  0.3586 -0.5898 -0.7278
  131OSM    C1S14119  -0.137   3.324   7.788 -0.3595  0.0898  0.0849
  131OSM    H1S14120  -0.095   3.426   7.798  0.2420 -0.3298  2.5782
  131OSM    H1T14121  -0.247   3.327   7.805 -0.2449 -2.7403  2.1568
  131OSM     NF14122  -0.134   3.393   7.546 -0.1099  0.4311  0.0248
  131OSM    HNF14123  -0.223   3.397   7.501 -0.6100  2.7444  1.0936
  131OSM    C2S14124  -0.119   3.277   7.638 -0.4071 -0.1664  0.0261
  131OSM    H2S14125  -0.013   3.247   7.628  0.0612  0.0416  3.2551
  131OSM    C3S14126  -0.204   3.151   7.612  0.3884  0.0649  0.0735
  131OSM    H3S14127  -0.310   3.180   7.622  0.8702  1.4802  1.6067
  131OSM     O314128  -0.186   3.039   7.697 -0.5167 -0.4709  0.2193
  131OSM    HO314129  -0.138   3.075   7.772 -0.0885 -0.8863  0.1539
  131OSM    C4S14130  -0.179   3.110   7.468  0.5207  0.2866 -0.2934
  131OSM    H4S14131  -0.072   3.097   7.447  0.2225 -1.0769 -1.1440
  131OSM    C5S14132  -0.269   3.109   7.366  0.7327  0.6148 -0.1849
  131OSM    H5S14133  -0.374   3.137   7.382  0.8702  0.9337  0.1997
  131OSM    C6S14134  -0.232   3.078   7.225 -0.8300 -0.5179  0.5874
  131OSM    H6S14135  -0.232   3.173   7.167  2.1500  1.1735  3.0795
  131OSM    H6T14136  -0.305   3.009   7.177 -1.4763  1.0838 -0.8580
  131OSM    C7S14137  -0.086   3.023   7.197 -0.2707 -0.0610 -0.5255
  131OSM    H7S14138  -0.075   2.922   7.242  0.5772 -0.5515 -1.7642
  131OSM    H7T14139  -0.006   3.083   7.246  1.3417 -0.1877 -2.8024
  131OSM    C8S14140  -0.046   3.029   7.052  0.1391 -1.0152  0.6447
  131OSM    H8S14141   0.063   3.009   7.050  0.2027 -0.6554 -0.4699
  131OSM    H8T14142  -0.052   3.135   7.017 -1.9721 -0.2586  2.9683
  131OSM    C9S14143  -0.121   2.956   6.950 -0.1767  0.2297 -0.0989
  131OSM    H9S14144  -0.226   2.991   6.936 -0.4366  0.0052  1.1636
  131OSM    H9T14145  -0.124   2.850   6.984  3.7409 -0.3177 -1.0401
  131OSM   C10S14146  -0.048   2.956   6.816  0.3581  0.2050  0.4291
  131OSM   H10S14147   0.059   2.931   6.835  1.0757  1.0955 -2.0090
  131OSM   H10T14148  -0.037   3.058   6.773  0.8709 -0.2066 -0.4528
  131OSM   C11S14149  -0.118   2.863   6.720 -0.1611  0.4316 -0.3521
  131OSM   H11S14150  -0.229   2.871   6.726 -0.2804 -0.0043 -1.7058
  131OSM   H11T14151  -0.079   2.759   6.730 -1.4360 -0.0214  0.1643
  131OSM   C12S14152  -0.078   2.902   6.581  0.7412 -0.4757  0.1071
  131OSM   H12S14153   0.031   2.878   6.575  1.1937  0.9562  1.7306
  131OSM   H12T14154  -0.096   3.007   6.552 -0.6856 -1.3953 -2.6289
  131OSM   C13S14155  -0.146   2.823   6.465 -0.6638  0.0897 -0.6143
  131OSM   H13S14156  -0.100   2.869   6.375  0.3347 -0.8931 -0.6331
  131OSM   H13T14157  -0.256   2.837   6.474 -1.0760 -1.4837 -2.4207
  131OSM   C14S14158  -0.124   2.673   6.467  0.7438  0.7369 -0.4189
  131OSM   H14S14159  -0.160   2.624   6.560 -2.5608  0.4733 -1.6824
  131OSM   H14T14160  -0.015   2.653   6.465  0.6673  0.0629  0.8842
  131OSM   C15S14161  -0.182   2.586   6.355  0.4855 -0.6113 -0.9538
  131OSM   H15S14162  -0.289   2.572   6.377  0.8555  2.4149  4.3470
  131OSM   H15T14163  -0.121   2.493   6.357  2.8606  0.8445 -0.5933
  131OSM   C16S14164  -0.159   2.667   6.227  0.0500  0.3528 -0.1522
  131OSM   H16S14165  -0.057   2.709   6.224  0.2719 -0.2121 -0.8780
  131OSM   H16T14166  -0.230   2.753   6.228 -2.1149 -1.2225 -2.9281
  131OSM   C17S14167  -0.177   2.590   6.094 -0.3853  0.3820 -0.0443
  131OSM   H17S14168  -0.274   2.535   6.089  0.9838 -2.2414  0.4546
  131OSM   H17T14169  -0.098   2.514   6.078  1.2827  2.1726 -0.7010
  131OSM   C18S14170  -0.174   2.680   5.964 -0.3853 -0.3869 -0.1992
  131OSM   H18S14171  -0.265   2.744   5.961  1.0945  1.8505  0.5591
  131OSM   H18T14172  -0.170   2.615   5.875 -0.7513 -2.1600  1.0274
  131OSM   H18U14173  -0.083   2.743   5.969 -1.7413  1.6228  0.7676
  131OSM    C1F14174  -0.045   3.496   7.546 -0.0848  0.0939 -0.1675
  131OSM     OF14175   0.037   3.510   7.639  0.2659 -0.1016 -0.0861
  131OSM    C2F14176  -0.070   3.587   7.426 -0.1810  0.0383 -0.1845
  131OSM    H2F14177  -0.150   3.660   7.451  0.0759 -0.8282  3.9025
  131OSM    H2G14178  -0.090   3.518   7.342 -0.2098 -1.3702  0.9378
  131OSM    C3F14179   0.062   3.673   7.392  0.3157  0.0756  0.1897
  131OSM    H3F14180   0.145   3.600   7.394  1.7896  1.5539 -2.2081
  131OSM    H3G14181   0.074   3.746   7.474 -0.6606 -0.6679  1.0214
  131OSM    C4F14182   0.057   3.753   7.261 -0.1604  0.6251 -0.1491
  131OSM    H4F14183   0.146   3.819   7.251 -0.4271  0.9980 -0.0742
  131OSM    H4G14184  -0.036   3.814   7.263 -1.6860 -1.5752 -0.3811
  131OSM    C5F14185   0.063   3.663   7.139 -0.8858  0.1996 -0.3375
  131OSM    H5F14186  -0.012   3.585   7.162 -0.2665 -0.4510 -0.4800
  131OSM    H5G14187   0.163   3.621   7.115 -0.7078 -0.2440  1.0755
  131OSM    C6F14188   0.025   3.729   7.007  0.9680 -0.5465 -0.5537
  131OSM    H6F14189   0.083   3.823   6.997  0.1578  0.5440  3.2896
  131OSM    H6G14190  -0.082   3.760   7.012  2.0923  3.7692 -0.0186
  131OSM    C7F14191   0.040   3.631   6.890  0.0480  0.4060  0.5118
  131OSM    H7F14192   0.143   3.590   6.889 -0.5399 -1.1967 -1.9223
  131OSM    H7G14193   0.019   3.677   6.791  0.5431  1.8303  1.0357
  131OSM    C8F14194  -0.049   3.502   6.900  0.0453  0.1326 -0.1551
  131OSM    H8F14195  -0.155   3.525   6.877  0.3105  0.8069 -0.7733
  131OSM    H8G14196  -0.041   3.463   7.004  0.5859 -1.2416 -0.6888
  131OSM    C9F14197  -0.006   3.393   6.812  0.3655  0.6816 -0.1659
  131OSM    H9F14198   0.039   3.305   6.859 -0.6361 -1.7832 -3.4411
  131OSM   C10F14199  -0.053   3.380   6.682  0.0406 -0.0668 -0.0873
  131OSM   H10F14200  -0.031   3.286   6.629  0.0659 -1.8820  2.8803
  131OSM   C11F14201  -0.136   3.486   6.613  0.2130  0.7805 -0.7239
  131OSM   H11F14202  -0.151   3.580   6.670 -0.0330  0.7480 -0.7330
  131OSM   H11G14203  -0.231   3.447   6.569  0.1622 -0.7315  0.6182
  131OSM   C12F14204  -0.052   3.542   6.490 -0.3687  0.8942 -0.0261
  131OSM   H12F14205  -0.043   3.459   6.417 -0.1647  1.1660 -0.3110
  131OSM   H12G14206   0.048   3.579   6.522 -0.7908  2.2219 -0.1590
  131OSM   C13F14207  -0.112   3.660   6.420 -0.0540 -0.0709  0.0237
  131OSM   H13F14208  -0.092   3.749   6.483 -1.4770  0.0762  0.3109
  131OSM   H13G14209  -0.222   3.657   6.403 -0.5423  1.8982  2.1635
  131OSM   C14F14210  -0.048   3.699   6.286  0.0175 -0.4017 -0.8514
  131OSM   H14F14211   0.062   3.705   6.295  0.3252 -2.6737 -2.2858
  131OSM   H14G14212  -0.089   3.793   6.243  1.0884 -0.3078 -1.6995
  131OSM   C15F14213  -0.070   3.602   6.168  0.1580 -0.1036  0.3440
  131OSM   H15F14214  -0.049   3.495   6.188  1.3718 -0.1046 -0.7787
  131OSM   H15G14215   0.005   3.636   6.093  1.5398 -1.4106  1.0727
  131OSM   C16F14216  -0.213   3.615   6.110 -0.3610  0.1974  0.2204
  131OSM   H16F14217  -0.220   3.722   6.081  1.8080  0.4743  0.5132
  131OSM   H16G14218  -0.289   3.594   6.188 -1.1205 -0.3040 -0.6305
  131OSM   C17F14219  -0.211   3.528   5.982 -0.3145 -0.3679  0.2887
  131OSM   H17F14220  -0.193   3.424   6.017 -1.5752 -0.9959 -0.8465
  131OSM   H17G14221  -0.132   3.554   5.907  0.1804  0.0970  0.9582
  131OSM   C18F14222  -0.342   3.511   5.910 -0.2378  0.0820  0.3824
  131OSM   H18F14223  -0.367   3.600   5.848  3.4896  2.3233  1.7418
  131OSM   H18G14224  -0.422   3.486   5.982 -0.4907 -1.4199 -0.3774
  131OSM   H18H14225  -0.331   3.423   5.842 -2.7161 -0.6542  0.8408
  132OSM      N14226   3.288   0.212   7.874  0.1108  0.2620  0.5718
  132OSM    C1514227   3.336   0.349   7.927 -0.4399 -0.2952 -0.8982
  132OSM   H15A14228   3.258   0.410   7.971 -0.9596 -0.5823 -1.3957
  132OSM   H15B14229   3.387   0.401   7.846  1.2842 -2.4493 -1.2820
  132OSM   H15C14230   3.405   0.330   8.007  0.9916 -1.4679 -2.3559
  132OSM    C1414231   3.414   0.138   7.832  0.3183 -1.0600 -0.0522
  132OSM   H14A14232   3.479   0.126   7.918 -0.9621  1.5899  1.4083
  132OSM   H14B14233   3.468   0.195   7.759 -0.9673  1.2210  0.6714
  132OSM   H14C14234   3.390   0.040   7.794  0.2511 -1.8156  1.8073
  132OSM    C1314235   3.214   0.128   7.981 -0.0914  0.0333  0.2648
  132OSM   H13A14236   3.273   0.127   8.071  2.1318 -1.6480 -1.1087
  132OSM   H13B14237   3.201   0.026   7.948 -0.9465 -0.0966  0.9572
  132OSM   H13C14238   3.115   0.166   8.000 -1.1862 -2.1082 -0.7381
  132OSM    C1214239   3.207   0.229   7.749  1.0978  0.3311  1.0867
  132OSM   H12A14240   3.251   0.304   7.685  2.9382 -1.5808 -0.0273
  132OSM   H12B14241   3.116   0.269   7.791  0.9484  1.4344 -0.1977
  132OSM    C1114242   3.167   0.099   7.669 -0.0288 -1.0214  0.6836
  132OSM   H11A14243   3.259   0.067   7.615  0.1022  0.5602 -0.0948
  132OSM   H11B14244   3.096   0.135   7.591 -0.4867 -1.9428  0.6690
  132OSM      P14245   2.960  -0.023   7.780 -0.1431  0.0344  0.1933
  132OSM    O1314246   2.948  -0.141   7.865 -0.3072 -0.4740 -0.1551
  132OSM    O1414247   2.905   0.104   7.829  0.4119 -0.2114  0.6041
  132OSM    O1114248   2.885  -0.058   7.645  0.5922 -0.5191 -0.3635
  132OSM    O1214249   3.118  -0.010   7.744  0.3785  0.8992  0.6563
  132OSM    C1S14250   2.937  -0.152   7.557 -0.3521 -0.2042 -0.0058
  132OSM    H1S14251   2.929  -0.256   7.597 -1.5102 -0.8478 -1.7781
  132OSM    H1T14252   3.045  -0.130   7.540 -0.1462  1.4907  2.9367
  132OSM     NF14253   2.877  -0.275   7.352 -0.2693  0.4707  0.2200
  132OSM    HNF14254   2.954  -0.283   7.288 -1.2177 -1.3609 -0.7758
  132OSM    C2S14255   2.861  -0.144   7.422  0.3724  0.6107  0.9978
  132OSM    H2S14256   2.752  -0.128   7.436  0.0360  1.0132 -1.6280
  132OSM    C3S14257   2.901  -0.020   7.331 -0.2190 -0.3936 -0.4233
  132OSM    H3S14258   3.009  -0.024   7.307 -0.1673  1.3065 -0.5985
  132OSM     O314259   2.881   0.106   7.405  0.0398 -0.0927  0.0075
  132OSM    HO314260   2.877   0.079   7.497  0.1930 -2.2789 -0.5549
  132OSM    C4S14261   2.826  -0.010   7.207 -0.5813  0.6273  0.7138
  132OSM    H4S14262   2.850  -0.097   7.145 -2.3246 -0.8290  1.9697
  132OSM    C5S14263   2.729   0.078   7.170 -0.3361  0.1056  0.2645
  132OSM    H5S14264   2.699   0.157   7.241  0.2214  2.2844 -1.7617
  132OSM    C6S14265   2.648   0.072   7.043 -0.1610 -0.4235  0.5821
  132OSM    H6S14266   2.579   0.157   7.023  0.2770 -0.3909 -0.9008
  132OSM    H6T14267   2.577  -0.013   7.047  0.5549 -1.0047  1.3160
  132OSM    C7S14268   2.730   0.049   6.909 -0.1702 -0.3090 -0.0785
  132OSM    H7S14269   2.759  -0.056   6.884  0.8203 -0.4929  1.6738
  132OSM    H7T14270   2.830   0.094   6.928  0.2701 -1.2840 -0.0214
  132OSM    C8S14271   2.655   0.093   6.782 -0.3390 -0.1703 -0.0900
  132OSM    H8S14272   2.733   0.122   6.709 -1.7244  2.5617 -0.6212
  132OSM    H8T14273   2.584   0.173   6.815  0.5896 -0.3615  2.6563
  132OSM    C9S14274   2.568  -0.022   6.731  0.1645  0.0581  0.5585
  132OSM    H9S14275   2.499  -0.057   6.811 -0.7506  2.1532  0.7490
  132OSM    H9T14276   2.639  -0.102   6.700  0.2561  0.9362 -1.7169
  132OSM   C10S14277   2.465   0.014   6.623  0.0227 -0.5353  0.1179
  132OSM   H10S14278   2.415   0.110   6.650 -1.0395 -1.2513  0.7212
  132OSM   H10T14279   2.396  -0.072   6.616  0.5684 -0.9298 -0.5962
  132OSM   C11S14280   2.514   0.021   6.477 -0.4831  0.7738  1.0170
  132OSM   H11S14281   2.606   0.081   6.457 -1.3967  1.5255 -1.1601
  132OSM   H11T14282   2.429   0.059   6.417  0.3942  0.3980 -0.5195
  132OSM   C12S14283   2.534  -0.122   6.422  0.1807  0.5128 -0.2062
  132OSM   H12S14284   2.444  -0.184   6.442  1.0199 -0.3870  0.8777
  132OSM   H12T14285   2.621  -0.148   6.485  1.2007  3.0435 -0.4332
  132OSM   C13S14286   2.576  -0.128   6.274  0.3567 -0.4207  1.0704
  132OSM   H13S14287   2.677  -0.086   6.260 -0.0092  1.0604  2.5186
  132OSM   H13T14288   2.520  -0.056   6.210  1.8243 -1.4805 -1.5231
  132OSM   C14S14289   2.577  -0.274   6.212  0.5486  0.8322 -0.3571
  132OSM   H14S14290   2.482  -0.332   6.214  0.6370  0.6872 -0.3653
  132OSM   H14T14291   2.643  -0.332   6.280  1.8118  1.9355 -0.5975
  132OSM   C15S14292   2.645  -0.285   6.076  0.4691 -0.1669 -0.1169
  132OSM   H15S14293   2.592  -0.231   5.996 -1.8398 -1.7555  0.2590
  132OSM   H15T14294   2.634  -0.393   6.056 -1.7624 -0.0538  0.2227
  132OSM   C16S14295   2.801  -0.249   6.073  0.7243 -0.4319 -0.0922
  132OSM   H16S14296   2.850  -0.302   6.157  1.0635  1.8064  1.2062
  132OSM   H16T14297   2.820  -0.140   6.084  0.4381 -0.0746 -2.5317
  132OSM   C17S14298   2.846  -0.311   5.941  0.0837 -0.0820  0.0248
  132OSM   H17S14299   2.808  -0.256   5.852 -1.0434 -0.8641 -0.0076
  132OSM   H17T14300   2.797  -0.411   5.934  2.3492 -1.2145 -0.2856
  132OSM   C18S14301   2.997  -0.334   5.929 -0.1430  0.1052  0.3578
  132OSM   H18S14302   3.042  -0.409   5.997 -1.8290 -0.5339  0.8219
  132OSM   H18T14303   3.050  -0.237   5.945 -2.5653  1.2817  1.9595
  132OSM   H18U14304   3.016  -0.375   5.827 -0.7957  0.8765 -0.0945
  132OSM    C1F14305   2.828  -0.385   7.398  0.1693  0.4532 -0.4573
  132OSM     OF14306   2.744  -0.384   7.489  0.4331 -0.3833 -0.0409
  132OSM    C2F14307   2.875  -0.514   7.336 -0.2435 -0.5032  0.1364
  132OSM    H2F14308   2.823  -0.604   7.376 -0.3077 -1.2179 -1.4685
  132OSM    H2G14309   2.980  -0.535   7.365 -0.6212 -0.8869  1.2686
  132OSM    C3F14310   2.863  -0.513   7.177 -1.0357 -0.2692  0.2788
  132OSM    H3F14311   2.906  -0.610   7.146 -0.1226 -0.0054  0.6965
  132OSM    H3G14312   2.921  -0.429   7.133 -0.3621 -0.3320  1.0275
  132OSM    C4F14313   2.723  -0.501   7.123 -0.7181  0.8070 -0.4327
  132OSM    H4F14314   2.679  -0.415   7.177 -0.0504  0.2585  1.0358
  132OSM    H4G14315   2.660  -0.586   7.156  1.1872 -2.1606 -3.7039
  132OSM    C5F14316   2.722  -0.487   6.970  0.4100 -0.9350  0.3092
  132OSM    H5F14317   2.767  -0.584   6.941  1.1129 -0.8262  0.9922
  132OSM    H5G14318   2.791  -0.402   6.951 -1.3168  0.4354 -0.0956
  132OSM    C6F14319   2.582  -0.466   6.910  0.4271 -0.3026 -0.1916
  132OSM    H6F14320   2.532  -0.372   6.942 -1.1653 -0.3871 -2.1979
  132OSM    H6G14321   2.514  -0.548   6.942 -0.2732  0.0486 -0.7503
  132OSM    C7F14322   2.577  -0.473   6.756  0.4171  0.2958  0.7735
  132OSM    H7F14323   2.646  -0.553   6.725  0.1498  0.1509  0.5462
  132OSM    H7G14324   2.626  -0.385   6.710  3.3213 -2.6498 -2.3240
  132OSM    C8F14325   2.437  -0.492   6.693 -0.2673 -0.2823 -0.0456
  132OSM    H8F14326   2.425  -0.433   6.600  0.0815 -0.5964 -0.2940
  132OSM    H8G14327   2.373  -0.429   6.760 -1.0176  0.4405 -1.4108
  132OSM    C9F14328   2.388  -0.638   6.672  0.0820 -0.2767  0.0502
  132OSM    H9F14329   2.346  -0.680   6.765  1.6021 -0.8563  0.5086
  132OSM   C10F14330   2.399  -0.721   6.564 -0.8661 -0.2527  0.4394
  132OSM   H10F14331   2.352  -0.820   6.557 -0.6401 -0.3569  0.3934
  132OSM   C11F14332   2.460  -0.688   6.429  0.4000 -0.0335 -0.4935
  132OSM   H11F14333   2.564  -0.728   6.419  0.1934 -0.2661 -1.9411
  132OSM   H11G14334   2.448  -0.578   6.427 -2.5807 -0.2912 -0.0961
  132OSM   C12F14335   2.370  -0.738   6.314  0.1420 -0.2160 -0.1026
  132OSM   H12F14336   2.264  -0.707   6.324  0.5540  1.3520 -0.2868
  132OSM   H12G14337   2.376  -0.849   6.308 -0.0747 -0.1833 -1.0315
  132OSM   C13F14338   2.419  -0.670   6.183 -0.6756  0.2179 -0.1210
  132OSM   H13F14339   2.525  -0.696   6.167 -0.6000  1.5712 -2.2938
  132OSM   H13G14340   2.408  -0.560   6.196  1.9097  0.8010 -2.0820
  132OSM   C14F14341   2.323  -0.702   6.063  0.4365  0.4414  0.3891
  132OSM   H14F14342   2.223  -0.659   6.086  1.5887  2.3496  2.1841
  132OSM   H14G14343   2.309  -0.811   6.051  0.0310  0.5623 -0.3065
  132OSM   C15F14344   2.375  -0.636   5.932  0.0534 -0.3322  0.3153
  132OSM   H15F14345   2.422  -0.535   5.940 -2.0228  0.8323 -1.0488
  132OSM   H15G14346   2.289  -0.623   5.863 -0.1869  0.3269  0.7214
  132OSM   C16F14347   2.482  -0.723   5.870 -0.6139 -0.1440  0.3614
  132OSM   H16F14348   2.429  -0.819   5.856  1.1131 -1.1977  0.8124
  132OSM   H16G14349   2.567  -0.733   5.941 -1.3743  1.2342  1.5287
  132OSM   C17F14350   2.536  -0.664   5.740 -0.0191 -0.1257 -0.3474
  132OSM   H17F14351   2.565  -0.560   5.765  0.0218  0.0155 -0.9725
  132OSM   H17G14352   2.465  -0.672   5.656 -0.5209  2.2744 -0.2221
  132OSM   C18F14353   2.662  -0.737   5.704  0.0642 -0.0675  0.6967
  132OSM   H18F14354   2.724  -0.677   5.634  1.2261 -2.1470 -0.1638
  132OSM   H18G14355   2.641  -0.838   5.662 -3.0251  0.4670  0.7197
  132OSM   H18H14356   2.723  -0.741   5.796  1.2498  0.6505 -0.0340
  133OSM      N14357   5.724   6.679   7.885  0.0012 -0.1625  0.7859
  133OSM    C1514358   5.721   6.539   7.936 -0.1616  0.7152 -0.1016
  133OSM   H15A14359   5.721   6.528   8.043  3.4058  0.3672 -0.0162
  133OSM   H15B14360   5.806   6.485   7.896 -1.7836 -0.3213 -2.3407
  133OSM   H15C14361   5.625   6.506   7.901 -0.2088 -0.5575  1.1446
  133OSM    C1414362   5.605   6.756   7.924 -0.4911 -0.1805  0.3560
  133OSM   H14A14363   5.599   6.853   7.877  1.0044 -0.2108  0.0748
  133OSM   H14B14364   5.600   6.767   8.031  0.4526 -0.3512  0.4235
  133OSM   H14C14365   5.517   6.705   7.887 -0.3078  0.1953 -0.6388
  133OSM    C1314366   5.841   6.752   7.942 -0.5684  0.0084 -0.0591
  133OSM   H13A14367   5.840   6.854   7.906  3.4442  0.5152  0.7802
  133OSM   H13B14368   5.936   6.706   7.919  0.8220  1.6504  2.0466
  133OSM   H13C14369   5.836   6.768   8.049  2.1630  4.1320 -0.3463
  133OSM    C1214370   5.740   6.678   7.728  0.5865 -0.4294  0.1049
  133OSM   H12A14371   5.698   6.770   7.689 -1.1223 -0.8469  0.8664
  133OSM   H12B14372   5.676   6.601   7.689 -1.3542  1.3067 -0.3841
  133OSM    C1114373   5.876   6.661   7.666  0.4495  0.5816  0.4412
  133OSM   H11A14374   5.940   6.742   7.707  1.3587  0.4863 -0.7556
  133OSM   H11B14375   5.875   6.675   7.556 -0.3586 -3.2740 -0.1884
  133OSM      P14376   6.065   6.496   7.741 -0.2162  0.2663  0.3286
  133OSM    O1314377   6.109   6.574   7.848 -0.1695  0.0845 -0.6706
  133OSM    O1414378   6.088   6.353   7.746  0.4000  0.0503  0.1451
  133OSM    O1114379   6.137   6.557   7.607  0.5027 -0.1142 -0.3740
  133OSM    O1214380   5.921   6.534   7.704  0.0071  0.2748 -0.7636
  133OSM    C1S14381   6.256   6.491   7.553  0.2335 -0.0034 -0.5340
  133OSM    H1S14382   6.259   6.383   7.579 -1.4356  0.4958  2.1402
  133OSM    H1T14383   6.344   6.539   7.602 -0.3147  0.2320  0.2373
  133OSM     NF14384   6.401   6.443   7.364  0.0992  0.4197  0.1455
  133OSM    HNF14385   6.479   6.496   7.332  0.5219 -0.7213 -0.8126
  133OSM    C2S14386   6.278   6.515   7.403  0.0463  0.1415 -0.4421
  133OSM    H2S14387   6.191   6.468   7.353 -2.4172 -0.3389  3.7915
  133OSM    C3S14388   6.272   6.666   7.355 -0.2843 -0.0577 -0.0420
  133OSM    H3S14389   6.355   6.730   7.389 -0.2037  0.9460 -1.9986
  133OSM     O314390   6.152   6.732   7.403  0.2158 -0.1238  0.1141
  133OSM    HO314391   6.125   6.671   7.472  3.4547  2.2859  4.0105
  133OSM    C4S14392   6.269   6.682   7.201 -0.1575 -0.7098  0.0605
  133OSM    H4S14393   6.167   6.661   7.168 -0.6092 -0.8431  1.4790
  133OSM    C5S14394   6.367   6.714   7.113  0.3901 -0.0572  0.2145
  133OSM    H5S14395   6.472   6.723   7.146  1.6710  3.3229 -3.9108
  133OSM    C6S14396   6.349   6.717   6.966  0.1482 -0.4366 -0.6645
  133OSM    H6S14397   6.255   6.667   6.935 -1.0561  1.1894  0.2439
  133OSM    H6T14398   6.446   6.679   6.925  0.6030  0.7117 -0.6850
  133OSM    C7S14399   6.341   6.859   6.920 -0.6149 -0.7064 -0.1593
  133OSM    H7S14400   6.395   6.935   6.981 -2.5281 -0.1146  0.8652
  133OSM    H7T14401   6.236   6.893   6.927 -1.3050 -2.9576  1.5290
  133OSM    C8S14402   6.390   6.873   6.771  0.0102 -0.3549  0.5909
  133OSM    H8S14403   6.333   6.794   6.717 -4.1002  1.8792  1.2421
  133OSM    H8T14404   6.499   6.855   6.767 -0.5621 -4.3777 -1.7783
  133OSM    C9S14405   6.347   7.003   6.694 -0.1510 -0.8881 -0.3541
  133OSM    H9S14406   6.410   7.090   6.724  2.7315 -3.3262  1.2050
  133OSM    H9T14407   6.245   7.036   6.725  1.5583  3.9791  1.1337
  133OSM   C10S14408   6.351   6.990   6.547  0.4064 -0.9385  0.0919
  133OSM   H10S14409   6.285   6.905   6.521 -0.8358  0.3385 -1.0684
  133OSM   H10T14410   6.457   6.965   6.527  0.0117 -1.6505 -1.2029
  133OSM   C11S14411   6.314   7.123   6.468  0.3198  0.6010 -0.3338
  133OSM   H11S14412   6.405   7.182   6.494  0.2002  0.1391  1.2527
  133OSM   H11T14413   6.222   7.162   6.514  0.4821 -0.6608  1.1554
  133OSM   C12S14414   6.291   7.104   6.320  0.0915 -0.1415  0.0805
  133OSM   H12S14415   6.302   7.202   6.269  1.1292 -1.2613 -1.9597
  133OSM   H12T14416   6.191   7.071   6.287  0.3979 -2.1584  0.9658
  133OSM   C13S14417   6.400   7.016   6.252 -0.1670  0.5301 -0.3602
  133OSM   H13S14418   6.394   6.909   6.280  2.1046  0.4382 -0.0602
  133OSM   H13T14419   6.497   7.049   6.295 -1.0757  0.2803  2.0335
  133OSM   C14S14420   6.394   7.025   6.100 -0.1295 -0.4797 -0.2695
  133OSM   H14S14421   6.389   7.130   6.066  0.0938  0.3634  2.1336
  133OSM   H14T14422   6.303   6.976   6.058 -0.0178  0.5964 -1.8788
  133OSM   C15S14423   6.525   6.969   6.043  0.0124 -1.0404 -0.0862
  133OSM   H15S14424   6.532   6.863   6.074 -0.2644 -1.5746 -1.7752
  133OSM   H15T14425   6.602   7.033   6.093 -1.8667  0.6911  0.7422
  133OSM   C16S14426   6.538   6.965   5.892  0.2619 -0.5344  0.5590
  133OSM   H16S14427   6.455   6.912   5.840  0.5317  0.5297 -1.0148
  133OSM   H16T14428   6.629   6.904   5.878  2.1640  2.0907  0.8169
  133OSM   C17S14429   6.571   7.088   5.808 -0.0747 -0.2918  0.5692
  133OSM   H17S14430   6.489   7.162   5.818 -0.0546 -0.2213  0.2071
  133OSM   H17T14431   6.576   7.055   5.702  0.5740  1.6782 -0.0592
  133OSM   C18S14432   6.705   7.163   5.833  0.6735 -0.1705 -0.3785
  133OSM   H18S14433   6.699   7.216   5.931  1.8069  0.5608 -0.6924
  133OSM   H18T14434   6.711   7.243   5.757  1.1005  0.2366  0.0771
  133OSM   H18U14435   6.796   7.100   5.833  0.6227 -0.2776  0.7888
  133OSM    C1F14436   6.399   6.309   7.350 -0.5032  0.3030  0.2675
  133OSM     OF14437   6.296   6.242   7.356  0.0619  0.1178  0.0577
  133OSM    C2F14438   6.534   6.249   7.314 -0.7124  0.1974 -0.5276
  133OSM    H2F14439   6.548   6.180   7.400  1.6157 -1.2838 -1.9680
  133OSM    H2G14440   6.613   6.327   7.308  0.2945 -0.6667  0.9401
  133OSM    C3F14441   6.535   6.169   7.180  0.6751 -0.3398 -0.6246
  133OSM    H3F14442   6.495   6.233   7.098  0.7002 -0.9122 -1.0910
  133OSM    H3G14443   6.464   6.083   7.178 -0.0341  0.2441 -1.0613
  133OSM    C4F14444   6.675   6.127   7.127  0.0780 -0.1572  0.2509
  133OSM    H4F14445   6.717   6.053   7.198  0.9583  0.2973  0.2124
  133OSM    H4G14446   6.744   6.214   7.117 -0.2769  0.6346  3.4679
  133OSM    C5F14447   6.666   6.046   6.991  0.2563  0.1132 -0.6561
  133OSM    H5F14448   6.603   6.105   6.921 -1.7397 -1.7438 -0.5284
  133OSM    H5G14449   6.611   5.952   7.012  1.3542 -0.6578 -1.1539
  133OSM    C6F14450   6.798   6.023   6.917  0.9483  0.2306 -0.3886
  133OSM    H6F14451   6.869   5.994   6.998 -1.7116 -3.0096  1.0485
  133OSM    H6G14452   6.822   6.120   6.870 -0.2934  0.3624 -0.7772
  133OSM    C7F14453   6.793   5.916   6.809 -0.0144 -0.8612  0.6073
  133OSM    H7F14454   6.793   5.816   6.857 -0.2471 -1.7475 -1.1449
  133OSM    H7G14455   6.892   5.927   6.759 -0.9853  0.0341 -1.2039
  133OSM    C8F14456   6.678   5.923   6.704 -0.4269 -0.0003 -0.7028
  133OSM    H8F14457   6.574   5.895   6.732 -0.1200 -0.0983  0.4178
  133OSM    H8G14458   6.700   5.843   6.630 -1.5417  0.2470 -1.3253
  133OSM    C9F14459   6.660   6.055   6.639 -0.7228 -0.2635  0.1649
  133OSM    H9F14460   6.625   6.136   6.704  1.0389 -0.6285  1.6744
  133OSM   C10F14461   6.678   6.088   6.513  0.3291  0.1450  0.8411
  133OSM   H10F14462   6.671   6.195   6.489  2.9973 -0.1659 -1.8537
  133OSM   C11F14463   6.715   6.013   6.388  0.5062  0.5061  0.5111
  133OSM   H11F14464   6.645   6.021   6.302  2.0177  2.3367 -0.6368
  133OSM   H11G14465   6.724   5.906   6.419  1.0393  0.6951  1.0484
  133OSM   C12F14466   6.850   6.060   6.328 -0.5064  0.0540  0.4349
  133OSM   H12F14467   6.937   6.068   6.396  1.0779 -0.3654 -1.4598
  133OSM   H12G14468   6.820   6.159   6.288 -0.6544  0.1331  0.7353
  133OSM   C13F14469   6.883   5.962   6.216 -0.3781  0.3033 -0.3888
  133OSM   H13F14470   6.894   5.863   6.265 -0.6818  1.0322  1.2044
  133OSM   H13G14471   6.983   5.994   6.179 -1.2430  6.2918  1.5175
  133OSM   C14F14472   6.782   5.938   6.099  0.0624  0.4988  0.0527
  133OSM   H14F14473   6.738   6.039   6.091  1.1191  0.9007 -1.0217
  133OSM   H14G14474   6.703   5.870   6.137 -0.5900  0.5409 -1.1869
  133OSM   C15F14475   6.836   5.873   5.977  0.3316  0.3869  0.8193
  133OSM   H15F14476   6.855   5.765   5.994  2.5703  0.2479 -1.7123
  133OSM   H15G14477   6.927   5.921   5.934  0.2651 -0.6416 -0.5392
  133OSM   C16F14478   6.730   5.860   5.865  0.7119 -0.0013  0.7032
  133OSM   H16F14479   6.678   5.955   5.840 -1.6666 -1.9637 -2.5955
  133OSM   H16G14480   6.659   5.781   5.898  1.4806  0.1498  2.8760
  133OSM   C17F14481   6.787   5.818   5.731 -0.1981  0.2160 -0.5498
  133OSM   H17F14482   6.859   5.734   5.745  1.7177  1.6456 -1.4084
  133OSM   H17G14483   6.848   5.898   5.685 -0.1384  0.4238 -0.1120
  133OSM   C18F14484   6.677   5.770   5.633  0.3732  0.1713 -0.4023
  133OSM   H18F14485   6.709   5.737   5.532  1.2381 -3.7481  0.9505
  133OSM   H18G14486   6.600   5.849   5.618  0.4005 -0.0923 -2.1402
  133OSM   H18H14487   6.626   5.677   5.667 -0.2892  0.1303 -1.4868
  134OSM      N14488   4.072   4.715   7.474 -0.0865 -0.5915  0.4994
  134OSM    C1514489   4.022   4.582   7.431  1.4426 -0.2084 -0.0341
  134OSM   H15A14490   4.106   4.516   7.413  2.1517  1.0927 -1.7605
  134OSM   H15B14491   3.954   4.597   7.349  2.0177 -0.4640 -0.5679
  134OSM   H15C14492   3.958   4.543   7.509  0.5738  1.2261 -0.0108
  134OSM    C1414493   3.953   4.787   7.529  0.0641 -0.0369  0.3145
  134OSM   H14A14494   3.915   4.720   7.605 -0.0796 -0.3822 -0.0626
  134OSM   H14B14495   3.877   4.795   7.454  1.1268 -1.4265 -0.9646
  134OSM   H14C14496   3.984   4.881   7.573  0.3979 -0.2566  0.5564
  134OSM    C1314497   4.176   4.703   7.584  0.4627 -0.6639 -0.0378
  134OSM   H13A14498   4.131   4.658   7.671 -0.5651 -0.0458 -0.2237
  134OSM   H13B14499   4.216   4.799   7.612 -0.9465  0.7896 -2.5581
  134OSM   H13C14500   4.255   4.639   7.548  0.3174 -0.9199  0.0975
  134OSM    C1214501   4.137   4.788   7.349 -0.3399  0.3525  0.3578
  134OSM   H12A14502   4.060   4.808   7.276  1.6950  2.3330 -1.3951
  134OSM   H12B14503   4.207   4.715   7.312 -1.1427 -1.3982  2.1282
  134OSM    C1114504   4.218   4.917   7.368 -0.0604  0.3653  0.6410
  134OSM   H11A14505   4.259   4.948   7.269  2.0270 -2.7107  0.3879
  134OSM   H11B14506   4.306   4.887   7.429 -0.3289  0.1965  0.9444
  134OSM      P14507   4.208   5.120   7.521 -0.5809 -0.2955  0.2139
  134OSM    O1314508   4.098   5.186   7.603  0.2377  0.1845 -0.5465
  134OSM    O1414509   4.315   5.055   7.598  0.4558 -0.0604  0.6251
  134OSM    O1114510   4.265   5.228   7.414  0.8904 -0.7784 -0.8325
  134OSM    O1214511   4.140   5.014   7.428 -0.4354  0.2981  0.0452
  134OSM    C1S14512   4.167   5.292   7.330  0.4584 -0.7164 -0.1550
  134OSM    H1S14513   4.135   5.386   7.379  2.7551  0.8290 -1.4588
  134OSM    H1T14514   4.084   5.226   7.296  0.3099 -0.8459  0.4498
  134OSM     NF14515   4.144   5.458   7.147  0.1255 -0.0459 -0.5676
  134OSM    HNF14516   4.058   5.438   7.099 -0.2518  0.0594  0.0544
  134OSM    C2S14517   4.230   5.358   7.206  0.2444  0.7108  0.2257
  134OSM    H2S14518   4.329   5.399   7.234  2.1202 -2.6438 -1.0122
  134OSM    C3S14519   4.273   5.241   7.106 -0.5225 -0.0967  0.2463
  134OSM    H3S14520   4.180   5.184   7.086  0.9190 -2.0587 -1.2370
  134OSM     O314521   4.361   5.147   7.170 -0.6832 -0.1698 -0.3830
  134OSM    HO314522   4.370   5.182   7.259 -3.1616  1.6662 -0.7490
  134OSM    C4S14523   4.346   5.295   6.989  0.0365  0.1840 -0.5942
  134OSM    H4S14524   4.406   5.382   7.021  0.5959  0.0057 -1.1574
  134OSM    C5S14525   4.348   5.261   6.857  0.4419  0.3201 -0.1661
  134OSM    H5S14526   4.291   5.169   6.833  1.4333 -0.8868  1.8136
  134OSM    C6S14527   4.415   5.337   6.746  0.4043 -0.4569  0.0079
  134OSM    H6S14528   4.519   5.298   6.746  0.4329 -0.3839  0.7178
  134OSM    H6T14529   4.420   5.445   6.771 -0.1115  0.3288 -2.9123
  134OSM    C7S14530   4.364   5.312   6.599 -0.2306 -0.5948  0.7106
  134OSM    H7S14531   4.253   5.316   6.592 -0.2091 -1.7052 -1.2015
  134OSM    H7T14532   4.388   5.209   6.565 -0.8582 -0.6627  0.4577
  134OSM    C8S14533   4.416   5.420   6.501 -0.1043  0.4865 -0.7553
  134OSM    H8S14534   4.513   5.449   6.547  0.2911 -2.8898  0.8346
  134OSM    H8T14535   4.348   5.508   6.505 -2.3301 -1.1614  1.0817
  134OSM    C9S14536   4.415   5.370   6.364 -0.7708  0.2127  0.6059
  134OSM    H9S14537   4.307   5.365   6.340 -1.0838  1.6554  1.6104
  134OSM    H9T14538   4.450   5.265   6.360  0.2817  0.5575  0.4418
  134OSM   C10S14539   4.498   5.463   6.276 -0.1223 -0.1255  0.5060
  134OSM   H10S14540   4.562   5.519   6.348 -0.1157 -0.2825  0.6213
  134OSM   H10T14541   4.430   5.544   6.240  0.0363  0.2413  1.0107
  134OSM   C11S14542   4.593   5.401   6.170  0.4283  0.7385  0.2740
  134OSM   H11S14543   4.534   5.331   6.106 -2.0433  3.0560 -0.1537
  134OSM   H11T14544   4.670   5.341   6.224 -1.3659 -0.2317  1.8762
  134OSM   C12S14545   4.651   5.508   6.087 -0.5618 -0.0957  0.8421
  134OSM   H12S14546   4.735   5.558   6.140 -1.0394  2.0758 -0.3132
  134OSM   H12T14547   4.573   5.584   6.063 -0.8733 -0.4745  0.6369
  134OSM   C13S14548   4.720   5.453   5.964 -0.7610 -0.0978  0.0010
  134OSM   H13S14549   4.657   5.384   5.905  1.4145 -3.5053  1.3620
  134OSM   H13T14550   4.812   5.399   5.997  1.3685  3.7248  1.0261
  134OSM   C14S14551   4.762   5.566   5.870 -0.7888 -0.3927 -0.4567
  134OSM   H14S14552   4.817   5.648   5.919 -1.4230 -0.2790  0.0844
  134OSM   H14T14553   4.678   5.625   5.826 -0.4044  0.2823 -0.3016
  134OSM   C15S14554   4.851   5.514   5.753 -0.0163 -0.2865  1.1116
  134OSM   H15S14555   4.800   5.424   5.714  1.6463 -0.0053 -1.9572
  134OSM   H15T14556   4.953   5.487   5.789  0.1585 -1.2714 -0.0754
  134OSM   C16S14557   4.877   5.620   5.648 -0.0708 -0.2275 -0.0678
  134OSM   H16S14558   4.927   5.710   5.690  2.3917 -1.7730  0.4982
  134OSM   H16T14559   4.780   5.645   5.599 -0.1496 -1.2954 -0.4954
  134OSM   C17S14560   4.973   5.570   5.537  0.3020 -0.2754  0.9774
  134OSM   H17S14561   5.043   5.490   5.568  0.3849 -1.5346 -2.1111
  134OSM   H17T14562   5.032   5.657   5.500 -0.4414  0.5267  1.6238
  134OSM   C18S14563   4.894   5.519   5.416 -0.0657 -0.3031 -0.2007
  134OSM   H18S14564   4.970   5.465   5.355 -1.3746 -2.3209 -0.1407
  134OSM   H18T14565   4.847   5.600   5.357 -1.0961 -0.1829  0.7622
  134OSM   H18U14566   4.820   5.443   5.448 -0.2392 -0.2001 -0.3612
  134OSM    C1F14567   4.169   5.584   7.172 -0.1342  0.4917  0.0261
  134OSM     OF14568   4.243   5.621   7.261  0.0045  0.6149 -0.0823
  134OSM    C2F14569   4.096   5.684   7.083  0.1459  0.5235 -0.3999
  134OSM    H2F14570   4.045   5.751   7.155 -1.2566  0.6798 -1.4860
  134OSM    H2G14571   4.028   5.625   7.017  0.1030 -0.9268  0.8782
  134OSM    C3F14572   4.190   5.779   7.007 -0.0447 -0.2426 -0.5287
  134OSM    H3F14573   4.231   5.843   7.088 -1.2748 -0.4582  0.2882
  134OSM    H3G14574   4.126   5.849   6.949 -4.3979 -1.9621  1.6863
  134OSM    C4F14575   4.293   5.706   6.923  0.2536  0.1604  0.0989
  134OSM    H4F14576   4.237   5.652   6.845  0.2784 -0.3697  0.4424
  134OSM    H4G14577   4.357   5.629   6.972 -0.1155  0.9712  1.9484
  134OSM    C5F14578   4.400   5.798   6.859 -0.2102  0.4594 -0.3490
  134OSM    H5F14579   4.459   5.851   6.937 -0.3234  1.6327 -1.0436
  134OSM    H5G14580   4.339   5.880   6.815  0.3156  1.3200  0.4960
  134OSM    C6F14581   4.479   5.739   6.742  0.1457  0.6063 -0.0755
  134OSM    H6F14582   4.410   5.712   6.660  1.9380 -1.1089 -1.1073
  134OSM    H6G14583   4.524   5.641   6.768 -1.1304  0.3672  1.3450
  134OSM    C7F14584   4.574   5.834   6.674  0.3123 -0.2134 -0.1278
  134OSM    H7F14585   4.638   5.895   6.741  0.0571 -0.4013  0.2874
  134OSM    H7G14586   4.515   5.903   6.611 -0.2649  2.0241  2.6695
  134OSM    C8F14587   4.658   5.758   6.568  0.4651  0.3504 -0.3442
  134OSM    H8F14588   4.588   5.741   6.484 -0.2920  0.1171  0.3281
  134OSM    H8G14589   4.699   5.663   6.609 -0.8276 -0.8103 -1.6493
  134OSM    C9F14590   4.768   5.851   6.515 -0.3258 -0.4113  0.3924
  134OSM    H9F14591   4.857   5.860   6.579  0.1391  0.7749 -0.4018
  134OSM   C10F14592   4.763   5.928   6.401 -0.6165 -0.1394 -0.3454
  134OSM   H10F14593   4.858   5.982   6.385 -0.7215  0.0134 -0.4563
  134OSM   C11F14594   4.664   5.935   6.295 -0.5752  0.3726  0.3669
  134OSM   H11F14595   4.607   6.029   6.311  1.4171  2.4590 -3.3370
  134OSM   H11G14596   4.591   5.852   6.300  1.3981 -1.3997  1.4888
  134OSM   C12F14597   4.725   5.939   6.157  0.1564  0.0747  0.5760
  134OSM   H12F14598   4.776   5.843   6.133  1.6382  1.2906 -1.5170
  134OSM   H12G14599   4.796   6.024   6.143  0.4781 -0.3276 -0.3534
  134OSM   C13F14600   4.614   5.950   6.051  0.1453 -0.2835 -0.0661
  134OSM   H13F14601   4.552   6.037   6.083 -1.8876 -1.4714 -0.6649
  134OSM   H13G14602   4.551   5.859   6.055  0.0924 -0.2560 -0.3173
  134OSM   C14F14603   4.664   5.960   5.907  0.3674 -0.2631 -0.8138
  134OSM   H14F14604   4.737   5.878   5.887 -2.1567 -2.2162 -2.7346
  134OSM   H14G14605   4.707   6.063   5.901 -0.7751  0.3382  0.7656
  134OSM   C15F14606   4.553   5.944   5.803  0.5389  0.1463 -0.2814
  134OSM   H15F14607   4.505   5.844   5.813 -2.0770  1.4606  1.4128
  134OSM   H15G14608   4.601   5.947   5.703 -0.0789 -0.9890 -0.6335
  134OSM   C16F14609   4.459   6.061   5.804 -0.0074 -0.7541 -0.3883
  134OSM   H16F14610   4.521   6.153   5.792 -1.6873  0.3929 -0.5739
  134OSM   H16G14611   4.408   6.058   5.903  1.1423 -0.1833  0.2417
  134OSM   C17F14612   4.349   6.076   5.699  0.0236  0.6879  0.1179
  134OSM   H17F14613   4.293   5.983   5.675  0.5209  0.1113  1.1019
  134OSM   H17G14614   4.400   6.093   5.602  1.7594  0.9237  1.0372
  134OSM   C18F14615   4.268   6.202   5.727 -0.0234  0.0409 -0.4715
  134OSM   H18F14616   4.338   6.280   5.692 -0.2800  0.7445  0.5314
  134OSM   H18G14617   4.249   6.218   5.836 -0.3621  1.2574 -0.6946
  134OSM   H18H14618   4.175   6.211   5.666 -1.0200  2.1618  1.2464
  135OSM      N14619   3.848   3.658   7.456  0.2680  0.1760  0.4943
  135OSM    C1514620   3.961   3.721   7.537  0.3854 -0.1789 -0.0532
  135OSM   H15A14621   3.930   3.741   7.638 -0.4869 -0.4357 -0.2588
  135OSM   H15B14622   3.992   3.812   7.488  0.2797 -0.8555 -1.4500
  135OSM   H15C14623   4.037   3.647   7.555 -0.3614 -0.3982  2.5212
  135OSM    C1414624   3.911   3.618   7.326  0.3010 -0.4090  0.1226
  135OSM   H14A14625   3.832   3.582   7.262  0.8968 -0.1146 -0.7943
  135OSM   H14B14626   3.990   3.547   7.347  1.3784 -0.1641 -2.7162
  135OSM   H14C14627   3.956   3.699   7.271 -0.2395  0.3087  0.7136
  135OSM    C1314628   3.796   3.537   7.516  0.1232  0.1257 -0.3270
  135OSM   H13A14629   3.725   3.490   7.449  0.1882  1.1956 -1.1630
  135OSM   H13B14630   3.754   3.547   7.615 -1.6387 -1.0837 -0.9072
  135OSM   H13C14631   3.879   3.471   7.535  0.5490  0.4871 -0.9105
  135OSM    C1214632   3.728   3.752   7.431 -0.7856 -0.4382 -0.5028
  135OSM   H12A14633   3.682   3.785   7.523  0.5544  3.6785 -1.0838
  135OSM   H12B14634   3.652   3.701   7.375 -1.4548 -1.1574  1.0117
  135OSM    C1114635   3.763   3.882   7.348 -0.2361 -0.2183 -0.5681
  135OSM   H11A14636   3.671   3.943   7.335 -0.0832  0.0077 -0.5707
  135OSM   H11B14637   3.792   3.855   7.245 -0.4146  2.6681 -1.4426
  135OSM      P14638   3.975   4.048   7.391  0.1364  0.0815  0.5072
  135OSM    O1314639   3.945   4.190   7.416 -0.3527 -0.8393 -0.2232
  135OSM    O1414640   4.099   3.987   7.445 -0.0094  0.1350 -0.4085
  135OSM    O1114641   3.966   4.031   7.234 -0.3068 -0.1410 -0.8080
  135OSM    O1214642   3.851   3.958   7.427 -0.1005  0.2194  0.0192
  135OSM    C1S14643   4.082   4.059   7.157 -0.0554  0.9202  0.4101
  135OSM    H1S14644   4.171   4.003   7.193  0.1442 -0.0884 -1.5248
  135OSM    H1T14645   4.110   4.167   7.158  3.1164  0.2159  2.5294
  135OSM     NF14646   4.184   4.033   6.940 -0.2307  0.0005  0.1171
  135OSM    HNF14647   4.194   4.115   6.885 -0.6323  0.3205  0.5113
  135OSM    C2S14648   4.061   4.011   7.012 -0.1435 -0.6278 -0.1121
  135OSM    H2S14649   4.046   3.901   7.011  0.3704 -0.7026 -0.0300
  135OSM    C3S14650   3.931   4.081   6.947  0.3131 -0.1735 -0.1029
  135OSM    H3S14651   3.958   4.189   6.949  1.9359 -0.5550  0.9644
  135OSM     O314652   3.811   4.060   7.024 -0.8099 -0.0492  0.1694
  135OSM    HO314653   3.832   4.034   7.114  0.4700 -1.1745 -0.4161
  135OSM    C4S14654   3.924   4.038   6.804  0.2372 -0.5351  0.0274
  135OSM    H4S14655   3.987   4.096   6.735 -0.7269 -0.2343 -0.6147
  135OSM    C5S14656   3.841   3.947   6.745 -0.5440  0.0187 -0.2886
  135OSM    H5S14657   3.774   3.895   6.816 -0.4068  0.7612  0.3892
  135OSM    C6S14658   3.829   3.918   6.602 -0.1767 -0.3493  0.4392
  135OSM    H6S14659   3.730   3.947   6.560 -0.0075  0.3188  0.4782
  135OSM    H6T14660   3.835   3.808   6.604  0.3162 -0.3247  0.4755
  135OSM    C7S14661   3.935   3.974   6.514  0.0573 -0.7660  0.6206
  135OSM    H7S14662   4.032   3.966   6.568  0.7260  2.4166  0.0920
  135OSM    H7T14663   3.922   4.085   6.508 -1.3069 -0.7419  2.7054
  135OSM    C8S14664   3.956   3.909   6.375 -0.0758  0.1962 -0.2245
  135OSM    H8S14665   3.862   3.916   6.316 -0.0751 -1.5124 -0.4826
  135OSM    H8T14666   3.980   3.800   6.380 -0.0447  0.1719 -0.7867
  135OSM    C9S14667   4.062   3.973   6.288 -0.0669 -0.1821  0.4891
  135OSM    H9S14668   4.156   3.965   6.346  0.3506 -0.6569 -0.2277
  135OSM    H9T14669   4.044   4.082   6.283  1.4688  0.2664  2.9641
  135OSM   C10S14670   4.068   3.913   6.150 -0.0145 -0.3334  0.0654
  135OSM   H10S14671   3.968   3.922   6.102 -0.3419 -0.3440  0.7374
  135OSM   H10T14672   4.106   3.809   6.160 -0.7145 -0.5241  0.8636
  135OSM   C11S14673   4.158   4.003   6.061  0.2792  0.5203 -0.5051
  135OSM   H11S14674   4.191   3.942   5.975 -0.5066 -2.1819  0.9921
  135OSM   H11T14675   4.242   4.019   6.132 -0.8011 -1.2767  1.2961
  135OSM   C12S14676   4.086   4.128   6.012  0.5331  0.0320  0.1385
  135OSM   H12S14677   4.160   4.207   5.987 -0.0329  1.4180  2.5110
  135OSM   H12T14678   4.034   4.169   6.102  1.8034 -0.5877  1.1898
  135OSM   C13S14679   3.994   4.100   5.891 -0.2606  0.2782  0.2090
  135OSM   H13S14680   3.926   4.188   5.879  1.5557  1.5906 -1.0001
  135OSM   H13T14681   3.948   4.000   5.907  0.3818  0.1867  1.6676
  135OSM   C14S14682   4.079   4.101   5.764 -0.0037 -1.0526  0.0540
  135OSM   H14S14683   4.163   4.029   5.766  0.0171 -1.1743 -2.2698
  135OSM   H14T14684   4.126   4.201   5.754  1.1879 -1.3524  2.0786
  135OSM   C15S14685   4.006   4.073   5.628  0.6697  0.4031 -0.3563
  135OSM   H15S14686   4.003   3.962   5.621 -0.6436  0.3412  0.6491
  135OSM   H15T14687   4.072   4.105   5.545  0.1849 -0.5959 -1.1508
  135OSM   C16S14688   3.865   4.141   5.604 -0.2350 -0.6593  0.0504
  135OSM   H16S14689   3.877   4.251   5.592 -1.7567 -0.4558  0.1666
  135OSM   H16T14690   3.819   4.135   5.705  2.5117  0.1632  1.4700
  135OSM   C17S14691   3.789   4.089   5.483 -0.7306  0.1939 -0.1664
  135OSM   H17S14692   3.686   4.129   5.474 -0.9176  0.3192  1.9954
  135OSM   H17T14693   3.785   3.980   5.502 -1.4219  0.2609  0.0705
  135OSM   C18S14694   3.854   4.116   5.349 -0.2312  0.2938  0.0098
  135OSM   H18S14695   3.829   4.047   5.266  1.1170 -1.6667  1.1388
  135OSM   H18T14696   3.964   4.107   5.354 -0.1668 -3.5836 -3.2827
  135OSM   H18U14697   3.828   4.216   5.308  0.4274  0.3046 -0.3894
  135OSM    C1F14698   4.294   3.965   6.954  0.0461 -0.8129 -0.3838
  135OSM     OF14699   4.297   3.864   7.018 -0.0290  0.1155 -0.0594
  135OSM    C2F14700   4.410   4.029   6.898  0.4433 -0.3127 -0.2983
  135OSM    H2F14701   4.493   4.052   6.969  0.5836  0.4201 -0.6885
  135OSM    H2G14702   4.384   4.130   6.859  3.4912  0.3962 -0.8152
  135OSM    C3F14703   4.474   3.947   6.779  0.0818 -0.0492 -0.2757
  135OSM    H3F14704   4.392   3.894   6.726 -1.1307  1.6084 -0.1374
  135OSM    H3G14705   4.553   3.880   6.818 -0.0475 -0.4467 -0.6859
  135OSM    C4F14706   4.551   4.032   6.674 -0.8578  0.6121 -0.1780
  135OSM    H4F14707   4.485   4.101   6.617 -1.2951  1.8183  1.6983
  135OSM    H4G14708   4.626   4.097   6.725  2.0551 -1.2620 -1.7857
  135OSM    C5F14709   4.626   3.947   6.572  0.5666 -0.2387  0.5259
  135OSM    H5F14710   4.549   3.898   6.510  0.6199  0.8086 -0.3891
  135OSM    H5G14711   4.689   3.865   6.612 -0.3878 -1.6915 -0.8624
  135OSM    C6F14712   4.710   4.033   6.478 -0.1722 -0.2087  0.2181
  135OSM    H6F14713   4.787   4.098   6.524  1.1213 -0.1800 -1.8423
  135OSM    H6G14714   4.653   4.117   6.432  0.6171 -0.5455 -1.4793
  135OSM    C7F14715   4.770   3.954   6.356 -0.0864 -0.5279  1.1691
  135OSM    H7F14716   4.826   3.876   6.412  0.3914 -1.5819 -0.6902
  135OSM    H7G14717   4.841   4.013   6.295  0.0551 -1.9354 -0.0859
  135OSM    C8F14718   4.668   3.881   6.268  0.2743 -0.2395 -0.0009
  135OSM    H8F14719   4.623   3.799   6.328 -1.4420 -0.0626 -0.9585
  135OSM    H8G14720   4.723   3.824   6.190 -0.4144 -0.2173 -0.5233
  135OSM    C9F14721   4.554   3.962   6.208 -0.4655  0.8736  0.3227
  135OSM    H9F14722   4.515   4.038   6.277 -1.2448  0.2388  0.5883
  135OSM   C10F14723   4.511   3.980   6.085  0.1734 -0.0931  0.4117
  135OSM   H10F14724   4.435   4.058   6.069 -0.4369 -0.2499  2.3605
  135OSM   C11F14725   4.559   3.905   5.960 -0.4321 -0.7246 -0.0222
  135OSM   H11F14726   4.477   3.840   5.922 -1.2749 -0.1877  0.8399
  135OSM   H11G14727   4.640   3.834   5.986  2.1383  1.8886 -0.4399
  135OSM   C12F14728   4.596   3.986   5.831  0.5992 -0.1636 -0.5730
  135OSM   H12F14729   4.636   3.911   5.759  0.7533  0.2513 -0.9196
  135OSM   H12G14730   4.673   4.064   5.850 -0.0408  0.0648  1.3153
  135OSM   C13F14731   4.483   4.066   5.774  0.5325 -0.0223 -0.6487
  135OSM   H13F14732   4.451   4.151   5.838  0.8553 -0.0613 -0.4327
  135OSM   H13G14733   4.388   4.010   5.758  0.3528  0.4220 -1.1437
  135OSM   C14F14734   4.537   4.116   5.645 -0.0299 -0.6878  0.0139
  135OSM   H14F14735   4.563   4.036   5.574 -1.1055 -1.6649  0.6893
  135OSM   H14G14736   4.630   4.172   5.668  0.2325 -0.9173 -0.4899
  135OSM   C15F14737   4.440   4.215   5.569 -0.1235  0.0843  0.0365
  135OSM   H15F14738   4.384   4.272   5.647 -2.2771 -2.8455  0.8188
  135OSM   H15G14739   4.358   4.161   5.517 -1.0718  1.1882  0.3442
  135OSM   C16F14740   4.520   4.307   5.478 -0.0946  0.7260  0.5240
  135OSM   H16F14741   4.615   4.258   5.450 -0.7950 -0.4811  0.1996
  135OSM   H16G14742   4.540   4.399   5.537 -0.3097  1.2321 -0.1676
  135OSM   C17F14743   4.443   4.347   5.345  0.6343  0.1316  0.0804
  135OSM   H17F14744   4.498   4.416   5.277  1.8899 -1.6936 -0.8501
  135OSM   H17G14745   4.352   4.404   5.375 -0.5292 -1.5179 -0.1775
  135OSM   C18F14746   4.393   4.235   5.251  0.0428 -0.5585  0.0076
  135OSM   H18F14747   4.335   4.278   5.167  0.9991  0.2553 -0.2560
  135OSM   H18G14748   4.333   4.162   5.308 -2.2905 -1.1259 -2.8925
  135OSM   H18H14749   4.489   4.187   5.221 -0.8988 -2.3141 -0.3176
  136OSM      N14750   0.736   4.743   8.203 -0.2012 -0.4726  0.5757
  136OSM    C1514751   0.582   4.741   8.201 -0.6318  0.4718 -0.0813
  136OSM   H15A14752   0.547   4.726   8.099 -0.3645  2.4997 -0.4999
  136OSM   H15B14753   0.539   4.832   8.239  0.5091  0.1490  2.0967
  136OSM   H15C14754   0.545   4.655   8.256 -0.4261 -0.7295 -1.7131
  136OSM    C1414755   0.782   4.849   8.103  0.2198  0.0578 -1.1657
  136OSM   H14A14756   0.890   4.858   8.105  0.1878  0.5314 -1.2959
  136OSM   H14B14757   0.735   4.945   8.120  0.1999 -0.0460 -0.6138
  136OSM   H14C14758   0.758   4.819   8.002 -0.8358 -0.6134 -0.7272
  136OSM    C1314759   0.781   4.797   8.339  0.6288 -0.1711  0.5774
  136OSM   H13A14760   0.886   4.822   8.344  0.7196 -0.7364  1.9347
  136OSM   H13B14761   0.773   4.726   8.420  1.2141 -0.5042  0.3463
  136OSM   H13C14762   0.724   4.886   8.359 -1.4015 -0.8788 -1.6116
  136OSM    C1214763   0.796   4.614   8.175 -0.3045  0.4388  0.1889
  136OSM   H12A14764   0.770   4.545   8.254 -0.3091  0.8489  0.5538
  136OSM   H12B14765   0.899   4.635   8.200 -0.1434 -0.6678  0.5074
  136OSM    C1114766   0.767   4.549   8.042  0.1960  0.0223 -0.1333
  136OSM   H11A14767   0.657   4.550   8.026 -0.0281 -1.0896  1.2354
  136OSM   H11B14768   0.794   4.442   8.051 -0.1079  0.1328  3.4154
  136OSM      P14769   0.981   4.575   7.880  0.2130 -0.0161 -0.0356
  136OSM    O1314770   1.072   4.692   7.898 -0.9429  0.8875  0.1644
  136OSM    O1414771   1.027   4.448   7.941  0.3101  0.2395  0.0421
  136OSM    O1114772   0.951   4.545   7.726 -0.0626 -0.0245  0.1083
  136OSM    O1214773   0.832   4.612   7.932 -0.0663 -0.4735 -0.1522
  136OSM    C1S14774   0.883   4.627   7.632 -0.7904  0.4219  0.4027
  136OSM    H1S14775   0.868   4.729   7.673  0.6115 -0.0966  2.3288
  136OSM    H1T14776   0.785   4.577   7.620  1.1346 -3.3483 -1.6424
  136OSM     NF14777   0.918   4.723   7.404  0.5530  0.2602  0.3947
  136OSM    HNF14778   0.863   4.690   7.327 -0.3129  0.1123  1.0607
  136OSM    C2S14779   0.963   4.619   7.491 -0.6318 -0.2476  0.9847
  136OSM    H2S14780   1.066   4.650   7.516  0.3978 -2.6509 -0.0351
  136OSM    C3S14781   0.981   4.480   7.426 -0.0066  0.4218  0.2000
  136OSM    H3S14782   0.886   4.445   7.380 -0.2804 -1.9880  2.3792
  136OSM     O314783   1.016   4.378   7.515 -0.1227 -0.2110 -0.1530
  136OSM    HO314784   0.992   4.416   7.600  0.4156 -0.9931  0.3561
  136OSM    C4S14785   1.087   4.504   7.318 -0.0205  0.0765 -0.0764
  136OSM    H4S14786   1.186   4.536   7.354  1.4135 -2.8813 -0.9743
  136OSM    C5S14787   1.062   4.497   7.190  0.0701  0.3713 -0.8523
  136OSM    H5S14788   0.961   4.464   7.163  0.5988 -2.4945  0.3462
  136OSM    C6S14789   1.153   4.516   7.071  0.3986 -0.3411 -1.1065
  136OSM    H6S14790   1.253   4.469   7.081  0.6434  0.3300 -0.2287
  136OSM    H6T14791   1.186   4.622   7.069 -0.3528 -0.0082  1.0634
  136OSM    C7S14792   1.075   4.471   6.950 -0.2746  0.1665 -0.5204
  136OSM    H7S14793   0.986   4.531   6.925  0.2436 -0.0343 -3.1808
  136OSM    H7T14794   1.047   4.363   6.947  1.0551 -0.1837 -1.5818
  136OSM    C8S14795   1.168   4.474   6.829 -0.7387 -0.0879 -0.2561
  136OSM    H8S14796   1.263   4.422   6.853 -1.1963 -1.5674 -1.5082
  136OSM    H8T14797   1.207   4.578   6.820 -0.2818 -0.1492  0.8145
  136OSM    C9S14798   1.111   4.436   6.694 -0.8187  0.2323 -0.1652
  136OSM    H9S14799   1.038   4.516   6.669  1.1728  1.7115 -1.5604
  136OSM    H9T14800   1.066   4.336   6.712  1.7492 -1.0692 -0.4710
  136OSM   C10S14801   1.216   4.423   6.579 -0.2344 -0.1721 -0.7303
  136OSM   H10S14802   1.295   4.355   6.616 -0.4361  0.2217  0.4708
  136OSM   H10T14803   1.250   4.527   6.560 -1.5320  0.9590  2.4966
  136OSM   C11S14804   1.140   4.388   6.450 -0.0982  0.3669  1.0341
  136OSM   H11S14805   1.051   4.453   6.440 -0.8854 -0.4889  2.1758
  136OSM   H11T14806   1.103   4.283   6.459  2.9351 -1.0074 -1.0468
  136OSM   C12S14807   1.211   4.409   6.317  0.3751 -0.0488 -0.1094
  136OSM   H12S14808   1.316   4.379   6.338  0.1952  0.0581  0.9807
  136OSM   H12T14809   1.217   4.517   6.292  2.6583 -0.2272 -0.5966
  136OSM   C13S14810   1.146   4.326   6.202  0.0967  0.1378 -0.1310
  136OSM   H13S14811   1.040   4.354   6.183  0.3070  0.3142 -1.1082
  136OSM   H13T14812   1.158   4.217   6.220 -0.8071 -0.1139 -0.9755
  136OSM   C14S14813   1.215   4.352   6.069 -0.1251  0.5639 -0.5558
  136OSM   H14S14814   1.312   4.299   6.071  0.1508  1.0190 -1.4620
  136OSM   H14T14815   1.235   4.461   6.062 -2.8822  1.2238  0.5081
  136OSM   C15S14816   1.140   4.306   5.946 -0.2116 -0.2844  0.5749
  136OSM   H15S14817   1.077   4.395   5.921  0.0589  0.2764  1.8066
  136OSM   H15T14818   1.078   4.217   5.970  0.5721 -1.7490 -2.3806
  136OSM   C16S14819   1.242   4.287   5.830 -0.1030  0.1141  0.6319
  136OSM   H16S14820   1.290   4.192   5.863  1.3944 -0.3403 -2.4737
  136OSM   H16T14821   1.319   4.367   5.822  0.5286 -0.4573  0.8810
  136OSM   C17S14822   1.157   4.271   5.701 -0.5246 -0.1411 -0.0797
  136OSM   H17S14823   1.107   4.367   5.677 -0.1372  0.4866  1.5191
  136OSM   H17T14824   1.079   4.197   5.727 -0.7361  0.7108  1.8467
  136OSM   C18S14825   1.240   4.214   5.581 -0.4855  0.6827  0.0803
  136OSM   H18S14826   1.281   4.118   5.618 -1.7911  0.6631  1.6073
  136OSM   H18T14827   1.316   4.286   5.546  1.0302  0.1903  2.1920
  136OSM   H18U14828   1.169   4.182   5.501 -0.1904  0.0495  0.0654
  136OSM    C1F14829   0.916   4.850   7.428  0.3774  0.3418  0.4543
  136OSM     OF14830   0.981   4.901   7.522  0.3933  0.1451  0.3710
  136OSM    C2F14831   0.830   4.931   7.333 -1.0243 -0.1379  0.4992
  136OSM    H2F14832   0.725   4.941   7.370 -1.0182 -0.3562  0.5763
  136OSM    H2G14833   0.834   4.875   7.237  0.9187 -0.7455  0.9035
  136OSM    C3F14834   0.889   5.077   7.313  0.7606  0.3669 -0.1776
  136OSM    H3F14835   0.879   5.133   7.409 -2.1889 -1.2582  0.5779
  136OSM    H3G14836   0.818   5.133   7.250 -0.2624 -0.5126  0.1689
  136OSM    C4F14837   1.026   5.095   7.249  0.1650  0.3946  0.5180
  136OSM    H4F14838   1.113   5.082   7.317  1.5746  2.1581 -0.8528
  136OSM    H4G14839   1.032   5.196   7.204 -1.2087  0.1179 -0.3575
  136OSM    C5F14840   1.059   4.992   7.134  0.1704  0.0952  0.0601
  136OSM    H5F14841   1.065   4.894   7.187  1.8995 -0.6609 -1.4142
  136OSM    H5G14842   1.162   5.021   7.105  0.4677 -0.4092  0.5926
  136OSM    C6F14843   0.973   5.000   7.008  0.2370 -0.4521 -0.2920
  136OSM    H6F14844   0.971   5.104   6.967  0.1237 -0.4248 -0.2170
  136OSM    H6G14845   0.870   4.960   7.016  0.2510 -0.5366 -0.5297
  136OSM    C7F14846   1.037   4.905   6.908  0.5297 -0.2896 -0.2537
  136OSM    H7F14847   1.061   4.808   6.957  0.4265 -0.3800 -0.3807
  136OSM    H7G14848   1.135   4.953   6.888  0.0396  1.0021  0.3558
  136OSM    C8F14849   0.958   4.866   6.780 -0.7962  0.3597 -0.4598
  136OSM    H8F14850   0.858   4.831   6.814 -0.0833 -0.3698  0.9483
  136OSM    H8G14851   1.016   4.780   6.739  1.2770 -0.0646  3.0270
  136OSM    C9F14852   0.915   4.970   6.684 -0.2382  0.4211 -0.1975
  136OSM    H9F14853   0.860   5.051   6.733  0.0312  0.9516 -0.7674
  136OSM   C10F14854   0.922   4.967   6.548  0.3971 -0.2234 -1.1308
  136OSM   H10F14855   0.887   5.058   6.497  1.6078  1.1058  0.2778
  136OSM   C11F14856   0.978   4.864   6.457  0.3469  0.0699 -1.0435
  136OSM   H11F14857   0.905   4.782   6.440 -1.3787  1.1606  0.6518
  136OSM   H11G14858   1.070   4.826   6.507 -0.8295 -1.8483 -0.2197
  136OSM   C12F14859   0.998   4.920   6.317  0.1602  0.2680  0.2397
  136OSM   H12F14860   1.080   4.994   6.315 -0.2942  0.7997  0.7373
  136OSM   H12G14861   0.909   4.970   6.273  1.1488 -0.4863 -2.8385
  136OSM   C13F14862   1.031   4.814   6.205  0.3616  0.4280 -0.4246
  136OSM   H13F14863   0.961   4.728   6.201 -0.9330  1.4761 -0.8859
  136OSM   H13G14864   1.127   4.765   6.231 -0.6756 -0.6533  1.5990
  136OSM   C14F14865   1.043   4.871   6.068  0.6281 -0.4383 -0.2635
  136OSM   H14F14866   1.123   4.948   6.066  1.4514 -1.1722 -3.8594
  136OSM   H14G14867   0.948   4.917   6.033  0.4167  0.3367  1.2835
  136OSM   C15F14868   1.068   4.762   5.959  0.0810  1.0174 -0.3455
  136OSM   H15F14869   0.986   4.688   5.953  0.2396  0.7288  0.8589
  136OSM   H15G14870   1.156   4.703   5.992 -0.0297  0.9935 -0.0944
  136OSM   C16F14871   1.099   4.816   5.814  0.1908 -0.6401  0.3494
  136OSM   H16F14872   1.184   4.888   5.815 -0.9079  0.7235 -0.7671
  136OSM   H16G14873   1.012   4.881   5.793  1.6145  1.3683  0.3000
  136OSM   C17F14874   1.113   4.708   5.706  0.1372  0.1409 -0.2084
  136OSM   H17F14875   1.043   4.738   5.625 -0.8734 -0.6285  0.3516
  136OSM   H17G14876   1.084   4.613   5.758 -3.5348 -0.2342 -2.5728
  136OSM   C18F14877   1.254   4.690   5.653  0.4837  0.1967 -0.2060
  136OSM   H18F14878   1.291   4.778   5.596  1.3481  0.7224  1.1315
  136OSM   H18G14879   1.260   4.592   5.602  0.4961 -1.5173  2.8253
  136OSM   H18H14880   1.321   4.690   5.742  2.9964  1.0357 -2.0004
  137OSM      N14881   4.358   3.278   7.809 -0.4292  0.1408  0.2448
  137OSM    C1514882   4.453   3.166   7.846  0.7028  0.7261 -0.5761
  137OSM   H15A14883   4.553   3.180   7.807  0.4220 -1.0902 -2.1318
  137OSM   H15B14884   4.407   3.078   7.804 -0.3546  0.3599  1.2657
  137OSM   H15C14885   4.451   3.140   7.951 -1.2163  0.2135 -0.6982
  137OSM    C1414886   4.223   3.253   7.872 -0.1176  0.5906 -0.3420
  137OSM   H14A14887   4.185   3.156   7.845  1.0031 -0.0899  0.4209
  137OSM   H14B14888   4.151   3.330   7.846 -0.7216  0.7405  1.5845
  137OSM   H14C14889   4.236   3.250   7.980 -1.3282  0.2042 -0.1970
  137OSM    C1314890   4.406   3.400   7.875 -0.8822  0.0701 -0.1320
  137OSM   H13A14891   4.360   3.494   7.847 -0.2635 -0.0159 -1.5108
  137OSM   H13B14892   4.509   3.426   7.854 -0.3907 -0.6575  1.2391
  137OSM   H13C14893   4.387   3.390   7.981 -0.4205 -1.6380 -0.1824
  137OSM    C1214894   4.348   3.291   7.656  0.2147 -0.0316 -0.5565
  137OSM   H12A14895   4.443   3.317   7.611  0.0354  1.8460  0.0647
  137OSM   H12B14896   4.289   3.379   7.634 -0.5844 -0.7031 -1.1761
  137OSM    C1114897   4.293   3.172   7.577 -0.3633  0.6655  0.3767
  137OSM   H11A14898   4.351   3.084   7.612 -2.1664 -0.1304  1.4778
  137OSM   H11B14899   4.318   3.183   7.469 -2.9635 -1.6515 -0.5853
  137OSM      P14900   4.065   3.251   7.504 -0.0780 -0.4187 -0.2676
  137OSM    O1314901   3.923   3.253   7.545  0.2368  0.5132 -0.1803
  137OSM    O1414902   4.128   3.389   7.497  0.3101 -0.5693 -0.1672
  137OSM    O1114903   4.086   3.191   7.362 -0.1601 -0.1451  0.8020
  137OSM    O1214904   4.154   3.155   7.585  0.2981  0.1664  0.0670
  137OSM    C1S14905   4.004   3.226   7.249 -0.0058 -0.1782 -0.1465
  137OSM    H1S14906   3.977   3.334   7.251  1.9463  0.3342  0.6047
  137OSM    H1T14907   3.916   3.159   7.236  1.5263 -2.3438  0.2686
  137OSM     NF14908   4.028   3.279   7.015 -0.1396  0.0224 -0.2617
  137OSM    HNF14909   3.979   3.227   6.944  1.2094  0.5438 -1.6301
  137OSM    C2S14910   4.099   3.214   7.122  0.8111 -0.5375 -0.3658
  137OSM    H2S14911   4.191   3.272   7.148  0.6266  0.0230 -0.9301
  137OSM    C3S14912   4.147   3.069   7.098 -0.4593  0.0863 -0.1738
  137OSM    H3S14913   4.053   3.010   7.093 -0.5625  0.2138  0.1984
  137OSM     O314914   4.235   3.019   7.201  0.4072  0.5799  0.0558
  137OSM    HO314915   4.228   3.086   7.269  0.5852  1.2926 -0.6251
  137OSM    C4S14916   4.201   3.056   6.954 -0.1836  0.3369 -0.6982
  137OSM    H4S14917   4.128   3.011   6.885 -0.5087 -1.0741  0.4977
  137OSM    C5S14918   4.324   3.076   6.901 -0.4016  0.7326  0.2042
  137OSM    H5S14919   4.407   3.117   6.961 -0.4843  2.1943 -0.6328
  137OSM    C6S14920   4.359   3.051   6.751 -0.1754 -0.2803 -0.5252
  137OSM    H6S14921   4.406   2.950   6.756  0.3388 -0.0599 -0.8247
  137OSM    H6T14922   4.443   3.115   6.715 -0.4359 -1.7897 -4.1847
  137OSM    C7S14923   4.257   3.012   6.641  0.5846 -0.3980 -0.6433
  137OSM    H7S14924   4.187   3.098   6.636 -0.2863 -0.9429  1.2222
  137OSM    H7T14925   4.206   2.927   6.691  3.6355 -1.3539  1.1552
  137OSM    C8S14926   4.323   2.985   6.503 -0.2483 -0.5194 -0.6413
  137OSM    H8S14927   4.411   2.917   6.516  1.3157  1.4787 -0.3530
  137OSM    H8T14928   4.375   3.081   6.483 -0.4597  0.5588  3.2169
  137OSM    C9S14929   4.228   2.945   6.384  0.3902 -0.3204  0.8222
  137OSM    H9S14930   4.137   3.008   6.389  1.6455  1.7455 -0.5699
  137OSM    H9T14931   4.198   2.840   6.402 -0.9864  0.1062  1.1372
  137OSM   C10S14932   4.302   2.968   6.251 -0.1854  0.0734 -0.3631
  137OSM   H10S14933   4.412   2.957   6.269 -0.5059 -1.4752  0.8680
  137OSM   H10T14934   4.281   3.068   6.206 -1.6444 -0.4066 -0.7826
  137OSM   C11S14935   4.268   2.857   6.148  0.3483  0.0076 -0.1880
  137OSM   H11S14936   4.307   2.759   6.186 -0.7596  0.4745  2.3505
  137OSM   H11T14937   4.332   2.871   6.058  0.5497 -0.6384 -0.1507
  137OSM   C12S14938   4.124   2.868   6.109 -0.4929 -0.2435 -0.4847
  137OSM   H12S14939   4.094   2.971   6.082 -0.9001 -0.2536 -0.0858
  137OSM   H12T14940   4.060   2.824   6.188 -1.1337 -1.9981 -1.9039
  137OSM   C13S14941   4.095   2.762   5.996  0.5693  0.2185 -0.3723
  137OSM   H13S14942   4.140   2.668   6.033  1.2587  0.8705  0.5010
  137OSM   H13T14943   4.141   2.790   5.899 -0.5258 -1.6044 -1.4632
  137OSM   C14S14944   3.942   2.743   5.964 -0.1549 -0.5943  0.7149
  137OSM   H14S14945   3.885   2.837   5.945  0.8343 -0.3649 -1.4437
  137OSM   H14T14946   3.905   2.680   6.048  0.0022  1.3246  2.2800
  137OSM   C15S14947   3.923   2.662   5.832  0.3553 -0.0020  0.0638
  137OSM   H15S14948   3.832   2.600   5.815 -0.5673  1.5454 -0.8322
  137OSM   H15T14949   4.008   2.591   5.816  0.4904  0.7257 -2.9348
  137OSM   C16S14950   3.932   2.753   5.706 -0.4011 -0.2626  0.7031
  137OSM   H16S14951   4.035   2.792   5.708 -0.7889  0.7562  2.5063
  137OSM   H16T14952   3.857   2.833   5.724  0.5246  1.2211 -1.5822
  137OSM   C17S14953   3.933   2.677   5.570  0.2508 -0.0523  0.3420
  137OSM   H17S14954   3.897   2.743   5.488  1.9947 -0.5749 -0.9143
  137OSM   H17T14955   3.861   2.593   5.569 -0.0711  0.2252 -0.0422
  137OSM   C18S14956   4.067   2.618   5.523  0.3295  0.3462  0.6990
  137OSM   H18S14957   4.153   2.689   5.525 -0.2114  1.1151 -1.0654
  137OSM   H18T14958   4.059   2.587   5.416  2.1081 -0.9801  0.8982
  137OSM   H18U14959   4.099   2.532   5.586  0.3011 -0.5426 -0.4606
  137OSM    C1F14960   4.013   3.413   7.012  0.1222  0.5674  0.1398
  137OSM     OF14961   4.077   3.476   7.094 -0.1408  0.0277  0.1703
  137OSM    C2F14962   3.919   3.468   6.915  0.2405  0.2934 -0.5361
  137OSM    H2F14963   3.821   3.461   6.966  0.7233 -2.7768  0.1918
  137OSM    H2G14964   3.923   3.393   6.833  0.3432  0.0395 -0.3006
  137OSM    C3F14965   3.946   3.615   6.865  0.1441 -0.0849 -0.5785
  137OSM    H3F14966   3.920   3.678   6.953  2.3694 -0.7603  0.6425
  137OSM    H3G14967   3.882   3.645   6.780  0.5182 -0.1285 -0.8823
  137OSM    C4F14968   4.099   3.648   6.826 -0.3367 -0.1932 -0.2831
  137OSM    H4F14969   4.168   3.616   6.907  1.7499  2.2989 -0.9836
  137OSM    H4G14970   4.099   3.759   6.824  1.6822 -0.1026  1.4006
  137OSM    C5F14971   4.137   3.607   6.678  0.2069  0.2301  0.2808
  137OSM    H5F14972   4.216   3.677   6.641  1.6179 -0.7317  1.3333
  137OSM    H5G14973   4.052   3.625   6.609  0.1930  1.2096  0.5261
  137OSM    C6F14974   4.188   3.459   6.675  0.1075  0.0858 -0.3653
  137OSM    H6F14975   4.104   3.396   6.713  2.9485 -2.4590  2.3107
  137OSM    H6G14976   4.268   3.462   6.752 -0.0495 -0.7689 -0.1589
  137OSM    C7F14977   4.245   3.407   6.545 -0.8367  0.1231 -0.7859
  137OSM    H7F14978   4.171   3.409   6.462  0.9954 -1.8092 -2.5960
  137OSM    H7G14979   4.275   3.300   6.553  1.7423  0.6872 -1.7834
  137OSM    C8F14980   4.383   3.479   6.512  0.7777 -0.2836 -0.2458
  137OSM    H8F14981   4.448   3.486   6.601  2.0946 -1.1031 -1.1115
  137OSM    H8G14982   4.373   3.586   6.482  1.5025 -0.9065 -2.9743
  137OSM    C9F14983   4.472   3.421   6.404  0.1164 -0.0340 -0.0596
  137OSM    H9F14984   4.550   3.359   6.449 -0.3524 -0.4802  0.1410
  137OSM   C10F14985   4.464   3.443   6.274  0.2621 -0.4520 -0.5326
  137OSM   H10F14986   4.539   3.398   6.207  0.6737 -2.8226  1.3604
  137OSM   C11F14987   4.359   3.528   6.209  0.4724 -0.6460  0.3026
  137OSM   H11F14988   4.403   3.623   6.172 -3.4261  1.8073  1.4071
  137OSM   H11G14989   4.274   3.552   6.277 -1.0901 -0.1088 -1.7610
  137OSM   C12F14990   4.287   3.462   6.093  0.0362  0.4649 -0.2877
  137OSM   H12F14991   4.254   3.363   6.131  3.8940 -0.3599  1.3846
  137OSM   H12G14992   4.341   3.434   6.000 -1.1734 -3.0792 -0.0806
  137OSM   C13F14993   4.158   3.534   6.057  0.0657  0.3834 -0.2219
  137OSM   H13F14994   4.104   3.571   6.147 -3.0453 -0.6375 -1.5258
  137OSM   H13G14995   4.091   3.459   6.010 -2.2414  0.8628  2.0090
  137OSM   C14F14996   4.186   3.651   5.961 -0.2412  0.0942  0.2551
  137OSM   H14F14997   4.251   3.733   5.998 -1.4328  2.4663 -2.5400
  137OSM   H14G14998   4.093   3.707   5.939  0.7026  1.4265 -0.4922
  137OSM   C15F14999   4.226   3.605   5.819  0.2285 -0.0475  0.1770
  137OSM   H15F15000   4.155   3.530   5.777 -0.2748  0.7995 -0.5007
  137OSM   H15G15001   4.322   3.547   5.823 -0.0362 -0.4828  0.3731
  137OSM   C16F15002   4.271   3.716   5.718 -0.0665  0.1650 -0.6846
  137OSM   H16F15003   4.338   3.787   5.770 -1.4589 -0.4287  2.0832
  137OSM   H16G15004   4.174   3.762   5.688 -1.6458 -1.7071  1.2751
  137OSM   C17F15005   4.339   3.658   5.591 -0.0398 -0.3904 -0.4336
  137OSM   H17F15006   4.261   3.614   5.524  1.0198 -1.1430 -1.1946
  137OSM   H17G15007   4.408   3.578   5.624  0.1133  0.2613  0.8794
  137OSM   C18F15008   4.411   3.769   5.513 -0.5358 -0.3210  0.5110
  137OSM   H18F15009   4.349   3.858   5.490 -0.9160  0.2896  3.4961
  137OSM   H18G15010   4.466   3.729   5.425 -1.4291 -0.8215  0.1593
  137OSM   H18H15011   4.485   3.802   5.589 -0.4576 -0.6498  0.5760
  138OSM      N15012   6.487   4.171   7.361 -0.1054  0.0999 -0.4754
  138OSM    C1515013   6.507   4.234   7.226  0.5514  0.3563  0.5578
  138OSM   H15A15014   6.498   4.165   7.143 -1.0711 -2.1864  2.6999
  138OSM   H15B15015   6.603   4.282   7.210  2.1648 -3.0769 -1.1031
  138OSM   H15C15016   6.435   4.312   7.208 -0.2016 -0.6402 -0.9636
  138OSM    C1415017   6.517   4.272   7.465 -0.0662  0.2875  0.6644
  138OSM   H14A15018   6.463   4.364   7.448 -0.2455 -0.3498 -2.8504
  138OSM   H14B15019   6.620   4.305   7.465 -0.1922  0.7723 -1.2859
  138OSM   H14C15020   6.493   4.240   7.565  3.1282  0.3647  1.5893
  138OSM    C1315021   6.348   4.125   7.387 -0.2543  0.5054 -0.7340
  138OSM   H13A15022   6.313   4.062   7.307  0.0700 -1.2928  0.4803
  138OSM   H13B15023   6.293   4.218   7.385  0.6015  1.0987  0.9771
  138OSM   H13C15024   6.334   4.077   7.482 -0.3752 -1.1877 -1.5789
  138OSM    C1215025   6.576   4.049   7.356 -0.2832  0.5059 -0.6045
  138OSM   H12A15026   6.671   4.098   7.343  0.2280 -0.8278 -2.4237
  138OSM   H12B15027   6.555   3.987   7.269  0.5455  0.2307 -0.6154
  138OSM    C1115028   6.575   3.960   7.478  0.0874  0.1109  0.8329
  138OSM   H11A15029   6.576   4.033   7.562 -0.5221  2.3264 -0.9704
  138OSM   H11B15030   6.666   3.898   7.490 -1.5259 -2.3444  1.0893
  138OSM      P15031   6.399   3.838   7.632  0.0892 -0.5478  0.1170
  138OSM    O1315032   6.504   3.806   7.735  0.2586 -0.1042  0.2949
  138OSM    O1415033   6.310   3.951   7.667 -0.1807 -0.2598  0.5118
  138OSM    O1115034   6.310   3.716   7.619  0.4510  0.2471  0.6086
  138OSM    O1215035   6.463   3.874   7.489 -0.3867 -0.1000 -0.0924
  138OSM    C1S15036   6.181   3.722   7.548 -0.0076  0.2993 -0.4592
  138OSM    H1S15037   6.146   3.826   7.538  1.3065  0.9162  0.9045
  138OSM    H1T15038   6.104   3.658   7.596  0.4452 -0.1740 -0.3461
  138OSM     NF15039   6.059   3.668   7.340  0.1929 -0.2106 -0.5026
  138OSM    HNF15040   5.999   3.591   7.357  1.8771 -1.3765  0.3687
  138OSM    C2S15041   6.186   3.661   7.406  0.2149  0.4387 -0.2159
  138OSM    H2S15042   6.253   3.724   7.344  0.4930 -1.5472 -2.0536
  138OSM    C3S15043   6.237   3.512   7.415  0.4764 -0.0238 -0.5750
  138OSM    H3S15044   6.158   3.450   7.462  0.6333 -0.1316 -0.4558
  138OSM     O315045   6.349   3.485   7.497 -0.2381  0.2372 -0.2017
  138OSM    HO315046   6.346   3.558   7.559  0.2897  0.0905  0.0086
  138OSM    C4S15047   6.258   3.455   7.278  0.9058 -0.1104  0.2618
  138OSM    H4S15048   6.183   3.386   7.237  0.6344  1.4658 -2.1110
  138OSM    C5S15049   6.362   3.482   7.206  0.0855  0.3135 -0.3396
  138OSM    H5S15050   6.436   3.550   7.251  0.9573 -0.5384 -0.4466
  138OSM    C6S15051   6.407   3.420   7.078  0.2190  0.4700  0.1400
  138OSM    H6S15052   6.505   3.373   7.105 -0.0801  1.7204  3.9987
  138OSM    H6T15053   6.419   3.495   6.997 -0.4176  1.3251  0.8288
  138OSM    C7S15054   6.319   3.306   7.026  0.2748  0.5124  0.3920
  138OSM    H7S15055   6.216   3.346   7.012  0.0107 -0.5575 -0.9783
  138OSM    H7T15056   6.309   3.227   7.104 -1.2870  0.7066  0.4095
  138OSM    C8S15057   6.377   3.255   6.892 -0.2687  0.7847 -0.4371
  138OSM    H8S15058   6.465   3.187   6.898  1.3044  2.6927 -1.0288
  138OSM    H8T15059   6.422   3.337   6.834  0.9594  0.3319 -0.1512
  138OSM    C9S15060   6.287   3.189   6.799 -0.4596 -0.3406 -0.4980
  138OSM    H9S15061   6.207   3.259   6.764  0.7925  0.5351 -1.7149
  138OSM    H9T15062   6.228   3.104   6.838  1.1613 -0.6862  1.3410
  138OSM   C10S15063   6.357   3.154   6.659  0.2819  0.3149  0.0594
  138OSM   H10S15064   6.441   3.084   6.679 -0.8473 -1.5140 -1.2698
  138OSM   H10T15065   6.400   3.244   6.610 -0.1787 -0.5174 -1.9932
  138OSM   C11S15066   6.251   3.103   6.563  0.2192 -0.3770  0.8463
  138OSM   H11S15067   6.180   3.187   6.552  0.2363 -0.2144  1.8278
  138OSM   H11T15068   6.185   3.022   6.602 -0.7263  0.3330  0.7478
  138OSM   C12S15069   6.307   3.064   6.418 -0.0238 -0.0889 -0.4202
  138OSM   H12S15070   6.260   2.972   6.378 -0.7285  0.5455 -1.0788
  138OSM   H12T15071   6.414   3.038   6.438  0.1448  0.3420 -0.7491
  138OSM   C13S15072   6.312   3.184   6.320 -0.5661  0.6003 -0.3252
  138OSM   H13S15073   6.383   3.261   6.357 -3.7854  2.7876  1.8731
  138OSM   H13T15074   6.215   3.239   6.322 -0.4828  0.7147  0.6995
  138OSM   C14S15075   6.356   3.141   6.180 -0.2310 -0.3338 -0.4845
  138OSM   H14S15076   6.341   3.234   6.120  0.5196 -1.3007 -2.2282
  138OSM   H14T15077   6.275   3.074   6.145 -0.1673 -1.3260  1.1757
  138OSM   C15S15078   6.501   3.082   6.168  0.3557  0.1061 -0.2428
  138OSM   H15S15079   6.515   3.019   6.077 -0.5528 -0.9493  0.3340
  138OSM   H15T15080   6.515   3.010   6.251  0.5880 -1.2816 -1.4381
  138OSM   C16S15081   6.608   3.186   6.186 -0.2401 -0.6612 -0.4674
  138OSM   H16S15082   6.617   3.214   6.293  0.8066  0.7761 -0.9005
  138OSM   H16T15083   6.565   3.277   6.139  0.9817  2.8659  4.4629
  138OSM   C17S15084   6.743   3.141   6.134 -0.8839  0.0008  0.0092
  138OSM   H17S15085   6.730   3.129   6.025 -2.2147 -0.5440  0.2056
  138OSM   H17T15086   6.778   3.047   6.182  2.3694  0.7064 -0.7877
  138OSM   C18S15087   6.848   3.246   6.138 -0.2436 -0.8524  0.1847
  138OSM   H18S15088   6.945   3.195   6.119 -0.1435  0.0043 -1.8321
  138OSM   H18T15089   6.852   3.295   6.238 -1.4292 -1.5670  0.6069
  138OSM   H18U15090   6.844   3.324   6.059  0.1060  1.5217  2.3672
  138OSM    C1F15091   5.995   3.775   7.296 -0.4356 -0.2736 -0.6297
  138OSM     OF15092   6.048   3.884   7.312  0.0827  0.1517  0.6490
  138OSM    C2F15093   5.865   3.749   7.221  0.3814 -0.0237  0.1922
  138OSM    H2F15094   5.836   3.842   7.169 -2.3322 -0.8853  0.0025
  138OSM    H2G15095   5.788   3.717   7.295  1.3354 -2.1485  0.3517
  138OSM    C3F15096   5.888   3.634   7.120  0.5429 -0.0756  0.0795
  138OSM    H3F15097   5.793   3.591   7.081 -0.2687  1.0684  0.7270
  138OSM    H3G15098   5.927   3.544   7.173  0.6830  0.3171  0.6511
  138OSM    C4F15099   5.977   3.683   7.008 -0.0988 -0.3986 -0.3174
  138OSM    H4F15100   6.072   3.716   7.054  1.0425 -1.0418 -2.0719
  138OSM    H4G15101   5.943   3.780   6.966  1.7051  0.9334  1.1816
  138OSM    C5F15102   6.005   3.589   6.896 -0.7004  0.1291  0.9212
  138OSM    H5F15103   5.917   3.534   6.855  1.0735 -4.0124  2.0718
  138OSM    H5G15104   6.081   3.517   6.933 -0.3264 -1.0343 -1.8095
  138OSM    C6F15105   6.069   3.664   6.780  0.1345  0.4813 -0.0193
  138OSM    H6F15106   6.163   3.719   6.805  0.7733 -0.8636  0.6811
  138OSM    H6G15107   5.989   3.728   6.737 -0.0385 -0.1919 -0.6980
  138OSM    C7F15108   6.115   3.568   6.671 -0.2132  0.0265  0.2486
  138OSM    H7F15109   6.027   3.504   6.653 -0.3970  0.1501  0.6841
  138OSM    H7G15110   6.194   3.508   6.721  0.1199  0.8534  0.7540
  138OSM    C8F15111   6.156   3.640   6.544  0.1720  0.6723 -0.5467
  138OSM    H8F15112   6.235   3.710   6.580  0.2145  0.5173 -0.3331
  138OSM    H8G15113   6.067   3.702   6.521  0.3254  1.5540  1.0612
  138OSM    C9F15114   6.196   3.563   6.423  0.0282  0.3886  0.2826
  138OSM    H9F15115   6.272   3.484   6.433 -0.6683 -1.3247 -4.9115
  138OSM   C10F15116   6.159   3.597   6.300  0.0017 -0.6456  0.2139
  138OSM   H10F15117   6.200   3.539   6.216  0.5773  1.7015 -1.2188
  138OSM   C11F15118   6.082   3.717   6.254  0.4899 -0.2764 -0.1458
  138OSM   H11F15119   6.066   3.797   6.330 -0.1437  0.1525 -0.7187
  138OSM   H11G15120   5.983   3.679   6.223  0.3378 -1.7447  1.9888
  138OSM   C12F15121   6.156   3.788   6.138  0.3331  0.1609  0.3788
  138OSM   H12F15122   6.262   3.799   6.166  0.0227 -0.2298  1.7441
  138OSM   H12G15123   6.110   3.889   6.124  2.0743  0.8071 -1.1952
  138OSM   C13F15124   6.153   3.722   5.996  0.9807 -0.1911  0.5189
  138OSM   H13F15125   6.211   3.628   6.005  1.9187  0.3732  0.5477
  138OSM   H13G15126   6.186   3.800   5.923 -0.0230  0.8514  1.1544
  138OSM   C14F15127   6.011   3.694   5.958  0.3553  0.8113  0.3034
  138OSM   H14F15128   5.950   3.782   5.988 -3.6473 -1.5004 -0.2305
  138OSM   H14G15129   5.976   3.607   6.018  4.2681 -0.6328  0.8043
  138OSM   C15F15130   5.983   3.677   5.802 -0.7159  0.3731  1.2498
  138OSM   H15F15131   6.010   3.776   5.759  1.7900 -0.9654 -0.4810
  138OSM   H15G15132   5.874   3.670   5.779 -0.7916  1.2534  1.3034
  138OSM   C16F15133   6.069   3.575   5.724 -0.1240 -0.0560 -0.0739
  138OSM   H16F15134   6.074   3.476   5.775 -1.5186 -1.3751 -2.3230
  138OSM   H16G15135   6.170   3.617   5.706  0.0297 -0.1830  0.4733
  138OSM   C17F15136   6.010   3.555   5.578  0.5337 -0.1786  0.5529
  138OSM   H17F15137   6.036   3.648   5.523  1.4132  1.3359  3.3027
  138OSM   H17G15138   5.901   3.540   5.568  0.5139 -0.5125  1.2170
  138OSM   C18F15139   6.081   3.444   5.504 -0.0443  0.4886 -0.1387
  138OSM   H18F15140   6.058   3.348   5.555  1.2536  0.8034  1.0992
  138OSM   H18G15141   6.189   3.460   5.522 -0.0211 -0.7838  1.0549
  138OSM   H18H15142   6.057   3.446   5.396 -1.1607  0.7761  0.0986
  139OSM      N15143   3.785   0.558   7.416 -0.1758 -0.8773  0.3991
  139OSM    C1515144   3.797   0.638   7.288 -0.3393 -0.2270  0.0062
  139OSM   H15A15145   3.893   0.681   7.264 -0.1781 -1.8161 -2.6386
  139OSM   H15B15146   3.742   0.731   7.282  1.7908  1.0205 -2.0117
  139OSM   H15C15147   3.774   0.570   7.207 -0.8981  1.0339 -0.9172
  139OSM    C1415148   3.864   0.431   7.396 -0.1520  0.4891 -0.0665
  139OSM   H14A15149   3.956   0.447   7.340 -0.2975 -0.4049 -0.5747
  139OSM   H14B15150   3.808   0.353   7.348 -2.3217  0.8851  1.7099
  139OSM   H14C15151   3.901   0.392   7.489  1.8372  1.3020 -0.4496
  139OSM    C1315152   3.855   0.629   7.530  0.3854 -0.2689  0.0354
  139OSM   H13A15153   3.961   0.626   7.513  0.5094  3.6892 -0.8541
  139OSM   H13B15154   3.826   0.586   7.625  0.9553 -0.8374 -0.0397
  139OSM   H13C15155   3.822   0.732   7.534 -1.5427 -0.7179 -2.1104
  139OSM    C1215156   3.643   0.536   7.454  0.5013  0.0797  0.0006
  139OSM   H12A15157   3.599   0.634   7.463  1.4245  0.3091  3.2725
  139OSM   H12B15158   3.632   0.488   7.550 -0.8291  2.1697  0.9530
  139OSM    C1115159   3.544   0.462   7.359  0.0096 -0.5109  0.3283
  139OSM   H11A15160   3.563   0.514   7.263 -0.4767  2.1302  1.5686
  139OSM   H11B15161   3.443   0.489   7.398 -0.3589  2.5817 -2.4082
  139OSM      P15162   3.502   0.225   7.439 -0.0576 -0.5608  0.2179
  139OSM    O1315163   3.534   0.086   7.409  0.0998  0.3313  0.5799
  139OSM    O1415164   3.518   0.274   7.577  0.7441  0.6534 -0.0641
  139OSM    O1115165   3.348   0.240   7.395 -0.0682  0.0725 -0.4843
  139OSM    O1215166   3.574   0.322   7.339 -0.0424  0.4175 -0.6778
  139OSM    C1S15167   3.320   0.218   7.255 -0.2987 -0.2517  0.3650
  139OSM    H1S15168   3.360   0.122   7.215 -1.0178  0.5014 -2.4202
  139OSM    H1T15169   3.363   0.295   7.187  0.7748 -0.6922  0.5298
  139OSM     NF15170   3.150   0.200   7.071 -0.9008  0.5706  0.2077
  139OSM    HNF15171   3.091   0.255   7.013 -1.3404 -1.6938 -1.6353
  139OSM    C2S15172   3.168   0.226   7.218  0.1259 -0.4977  0.3033
  139OSM    H2S15173   3.118   0.149   7.279 -0.9855  1.6725  2.3037
  139OSM    C3S15174   3.115   0.368   7.251  0.4974  0.6860 -0.2305
  139OSM    H3S15175   3.179   0.445   7.203  0.3475  2.2973  1.9992
  139OSM     O315176   3.125   0.410   7.386  0.2227 -0.7323  0.0396
  139OSM    HO315177   3.204   0.368   7.420 -0.9096 -2.1684  0.9890
  139OSM    C4S15178   2.976   0.397   7.209 -0.3346 -0.5279 -0.3513
  139OSM    H4S15179   2.899   0.330   7.249 -2.1187  0.7959 -1.4078
  139OSM    C5S15180   2.933   0.502   7.132 -0.0733  0.1630 -0.0717
  139OSM    H5S15181   3.008   0.578   7.105  0.7681 -0.4629  0.4752
  139OSM    C6S15182   2.793   0.531   7.078 -0.0089  0.2787 -0.1888
  139OSM    H6S15183   2.765   0.637   7.095 -0.0592  0.3622 -0.7829
  139OSM    H6T15184   2.709   0.480   7.131 -0.6803 -0.1761 -1.6472
  139OSM    C7S15185   2.771   0.518   6.923 -0.2140  0.0311 -0.0941
  139OSM    H7S15186   2.747   0.414   6.892  0.7285 -0.1019 -0.4239
  139OSM    H7T15187   2.844   0.571   6.859 -0.2111  1.2572  0.8992
  139OSM    C8S15188   2.643   0.590   6.887  0.2091 -0.6092  0.9357
  139OSM    H8S15189   2.654   0.689   6.937  0.3273  1.4304 -2.7754
  139OSM    H8T15190   2.561   0.539   6.941  0.4860 -1.4280  0.5890
  139OSM    C9S15191   2.640   0.623   6.734  0.1300  0.0752  0.2452
  139OSM    H9S15192   2.738   0.651   6.690  1.8859 -0.9791  3.1608
  139OSM    H9T15193   2.575   0.712   6.727 -0.2098 -0.1950 -0.1051
  139OSM   C10S15194   2.576   0.507   6.659  0.3310 -0.0613 -1.3185
  139OSM   H10S15195   2.495   0.468   6.724  0.7731 -1.2680 -1.4612
  139OSM   H10T15196   2.649   0.424   6.646 -0.5531 -1.3242  1.1507
  139OSM   C11S15197   2.524   0.566   6.520  0.8848 -0.2538  0.6215
  139OSM   H11S15198   2.600   0.635   6.477  1.7665 -2.1093 -0.9659
  139OSM   H11T15199   2.432   0.617   6.554  0.3950 -1.4133  1.0674
  139OSM   C12S15200   2.489   0.467   6.411  0.9656 -0.1344  0.1889
  139OSM   H12S15201   2.438   0.523   6.329  1.7107 -0.5148 -0.5553
  139OSM   H12T15202   2.408   0.407   6.456  0.6924  2.0398  2.8718
  139OSM   C13S15203   2.603   0.387   6.348  0.0845  0.4054 -0.1100
  139OSM   H13S15204   2.645   0.311   6.416  0.3081  1.0728  0.5159
  139OSM   H13T15205   2.684   0.462   6.332  0.4052  0.2948  0.9102
  139OSM   C14S15206   2.570   0.335   6.204  0.9036 -0.4727 -0.0420
  139OSM   H14S15207   2.526   0.421   6.149 -0.3619 -0.3507  1.0831
  139OSM   H14T15208   2.484   0.267   6.221  0.7946 -0.5378 -0.8269
  139OSM   C15S15209   2.687   0.279   6.127 -0.2132  0.1548 -0.1831
  139OSM   H15S15210   2.743   0.202   6.184  1.0566  1.0099 -0.2361
  139OSM   H15T15211   2.760   0.362   6.115 -0.3144  0.2166 -0.3809
  139OSM   C16S15212   2.655   0.236   5.982 -0.3605  0.3848 -0.2416
  139OSM   H16S15213   2.744   0.243   5.916 -1.1228  0.9278 -1.2477
  139OSM   H16T15214   2.575   0.302   5.942 -1.0856  0.0663  0.6467
  139OSM   C17S15215   2.598   0.093   5.966 -0.3427  0.2527  0.4145
  139OSM   H17S15216   2.515   0.086   6.040 -1.7300 -2.3495 -1.2241
  139OSM   H17T15217   2.672   0.011   5.979 -0.2151  0.6618  2.6957
  139OSM   C18S15218   2.513   0.078   5.840 -0.6196  0.2080  0.7060
  139OSM   H18S15219   2.562   0.139   5.762 -0.1968 -1.1141 -0.1042
  139OSM   H18T15220   2.406   0.106   5.840 -0.7569 -0.2622 -0.4026
  139OSM   H18U15221   2.508  -0.027   5.803  0.6689  0.6055 -0.7157
  139OSM    C1F15222   3.185   0.079   7.012  0.8725  0.1160  0.5325
  139OSM     OF15223   3.228  -0.009   7.085 -0.6224  0.0616 -0.3871
  139OSM    C2F15224   3.154   0.072   6.866 -0.2247 -0.7569  0.1653
  139OSM    H2F15225   3.102  -0.024   6.846 -0.6298 -0.2027 -1.5909
  139OSM    H2G15226   3.252   0.064   6.814 -1.0360 -1.6894 -1.2764
  139OSM    C3F15227   3.079   0.194   6.798  0.2069  0.4913  0.0540
  139OSM    H3F15228   3.134   0.289   6.813 -1.3580  1.5623 -0.7680
  139OSM    H3G15229   2.978   0.209   6.842  0.9037 -0.1110  1.9359
  139OSM    C4F15230   3.057   0.185   6.643 -0.5492  0.4270  0.0719
  139OSM    H4F15231   2.984   0.260   6.606 -0.7731 -0.2634 -0.9260
  139OSM    H4G15232   3.015   0.086   6.612 -1.8751  0.9123  0.2641
  139OSM    C5F15233   3.180   0.216   6.553  0.2618 -0.4692 -0.5891
  139OSM    H5F15234   3.259   0.139   6.565 -0.2967 -1.6435 -3.4526
  139OSM    H5G15235   3.229   0.313   6.573  0.1120  0.1399 -2.8685
  139OSM    C6F15236   3.144   0.211   6.403 -0.0527 -0.8901 -0.7965
  139OSM    H6F15237   3.241   0.242   6.359  0.9502  2.5365  3.1648
  139OSM    H6G15238   3.054   0.271   6.381  0.0361 -1.7349 -3.9176
  139OSM    C7F15239   3.112   0.063   6.361  0.6726  0.2443  0.1496
  139OSM    H7F15240   3.021   0.024   6.411  1.9530 -1.8120  0.9870
  139OSM    H7G15241   3.201  -0.003   6.370  0.9681  0.7362  0.9981
  139OSM    C8F15242   3.073   0.055   6.210 -0.2775 -0.4280  0.6311
  139OSM    H8F15243   2.981   0.114   6.192  0.2081 -0.3423 -1.9589
  139OSM    H8G15244   3.028  -0.043   6.184  1.8289 -0.6787 -2.7032
  139OSM    C9F15245   3.194   0.067   6.119  0.6248  0.1819  0.2902
  139OSM    H9F15246   3.265  -0.016   6.123  0.2843 -0.3373 -2.4837
  139OSM   C10F15247   3.220   0.176   6.044  0.2280 -0.9647 -0.3250
  139OSM   H10F15248   3.302   0.172   5.970  1.4550 -1.3505  1.0123
  139OSM   C11F15249   3.121   0.287   6.026  0.8597 -1.0831  0.4409
  139OSM   H11F15250   3.069   0.309   6.122 -2.1997 -1.3729 -1.0425
  139OSM   H11G15251   3.045   0.260   5.949  1.7628  1.2184 -1.3797
  139OSM   C12F15252   3.195   0.412   5.972  0.6370  0.3401  0.2517
  139OSM   H12F15253   3.115   0.488   5.959  0.4722  0.5896  2.3124
  139OSM   H12G15254   3.243   0.395   5.873 -0.7300  2.3127 -0.8293
  139OSM   C13F15255   3.284   0.483   6.071  0.2793 -0.0877  0.1482
  139OSM   H13F15256   3.372   0.418   6.088  0.6215  0.1921 -0.5133
  139OSM   H13G15257   3.242   0.490   6.173 -1.0687 -1.3598 -0.2653
  139OSM   C14F15258   3.322   0.623   6.015 -0.4275 -0.1655  0.4034
  139OSM   H14F15259   3.255   0.694   6.067  2.0768  0.3025  3.2905
  139OSM   H14G15260   3.336   0.621   5.904  0.4453  0.4620  0.4882
  139OSM   C15F15261   3.462   0.667   6.068  0.2735  0.8279  0.1985
  139OSM   H15F15262   3.539   0.608   6.013 -0.9531 -1.0096  0.3822
  139OSM   H15G15263   3.480   0.653   6.177 -0.3792 -0.9190  0.0953
  139OSM   C16F15264   3.498   0.814   6.043 -0.2033  0.0239 -0.4892
  139OSM   H16F15265   3.607   0.829   6.052 -0.2468 -0.0102  0.1299
  139OSM   H16G15266   3.461   0.892   6.114 -0.4965 -0.1625 -0.4344
  139OSM   C17F15267   3.461   0.864   5.899  0.1830 -1.1797  0.1491
  139OSM   H17F15268   3.350   0.872   5.899  0.2117 -0.7138 -0.3021
  139OSM   H17G15269   3.486   0.788   5.823 -1.7328 -0.7517 -0.9852
  139OSM   C18F15270   3.540   0.989   5.853  0.4178 -0.1370  0.2019
  139OSM   H18F15271   3.649   0.966   5.847  0.7596  0.7739  2.0942
  139OSM   H18G15272   3.511   1.071   5.923 -1.0133 -0.8728  0.4926
  139OSM   H18H15273   3.511   1.026   5.753 -1.6292  1.9878  1.4735
  140OSM      N15274   3.144   3.079   7.476 -0.3813  0.1704 -0.2997
  140OSM    C1515275   3.161   2.938   7.539 -0.3937 -0.1599  0.1295
  140OSM   H15A15276   3.067   2.885   7.536  0.0308 -0.9088 -0.6171
  140OSM   H15B15277   3.205   2.934   7.637  0.0151 -1.1483 -0.0739
  140OSM   H15C15278   3.226   2.868   7.488 -0.3264 -1.9226  2.4878
  140OSM    C1415279   3.272   3.155   7.468  0.6618 -0.3003 -0.6937
  140OSM   H14A15280   3.328   3.142   7.559 -0.5046 -1.0513 -0.0496
  140OSM   H14B15281   3.257   3.260   7.448  1.7377  0.2420  1.1118
  140OSM   H14C15282   3.326   3.119   7.382 -1.0021 -2.7544 -0.8151
  140OSM    C1315283   3.088   3.062   7.344  0.0256 -0.1992 -0.3078
  140OSM   H13A15284   2.999   3.001   7.355  0.3479 -0.2247  2.9492
  140OSM   H13B15285   3.145   3.000   7.276 -0.8848  0.7000 -1.9394
  140OSM   H13C15286   3.070   3.151   7.285 -1.9289  0.1632  0.7343
  140OSM    C1215287   3.043   3.162   7.558  0.5396  1.1044 -0.4713
  140OSM   H12A15288   3.076   3.157   7.661  1.9883  1.2443 -0.9028
  140OSM   H12B15289   2.947   3.118   7.536  0.6656  0.5493  0.0354
  140OSM    C1115290   3.014   3.312   7.525 -0.3629 -0.1927 -0.2851
  140OSM   H11A15291   2.925   3.349   7.580 -0.8391  0.9233 -1.7356
  140OSM   H11B15292   2.990   3.326   7.418  1.0058  1.8695 -0.3732
  140OSM      P15293   3.134   3.540   7.511 -0.1313  0.1280  0.2232
  140OSM    O1315294   3.032   3.598   7.596 -0.1932  0.0224  0.4866
  140OSM    O1415295   3.271   3.596   7.513  0.0977 -0.2416  0.6236
  140OSM    O1115296   3.077   3.549   7.364 -0.4901 -0.2758  0.1421
  140OSM    O1215297   3.134   3.386   7.556 -0.2729 -0.6911  0.5037
  140OSM    C1S15298   3.158   3.491   7.259 -0.4537 -0.1720  0.0519
  140OSM    H1S15299   3.167   3.383   7.280 -0.9263  0.0601  1.5179
  140OSM    H1T15300   3.259   3.536   7.255  0.4408 -2.1573 -1.3838
  140OSM     NF15301   3.162   3.422   7.014  0.2997  0.5071 -0.0825
  140OSM    HNF15302   3.242   3.462   6.969  1.8610  0.3186  2.2932
  140OSM    C2S15303   3.095   3.509   7.115  0.2927 -0.6224 -0.4903
  140OSM    H2S15304   2.994   3.466   7.131 -0.0570 -0.8444 -2.9336
  140OSM    C3S15305   3.085   3.651   7.074 -0.3441 -0.2879 -0.1043
  140OSM    H3S15306   3.187   3.694   7.061  0.1508 -1.6318 -0.8714
  140OSM     O315307   3.021   3.730   7.179 -0.0250  0.0452 -0.4560
  140OSM    HO315308   3.018   3.673   7.255  0.6214 -1.5192 -1.5532
  140OSM    C4S15309   2.999   3.673   6.953 -0.6577  0.0202  0.0611
  140OSM    H4S15310   2.898   3.630   6.959 -0.2392 -1.5764 -2.7121
  140OSM    C5S15311   3.037   3.744   6.854  0.1504 -0.3698  0.4715
  140OSM    H5S15312   3.126   3.808   6.864 -0.8535  0.8421  2.3934
  140OSM    C6S15313   2.949   3.765   6.731  0.2312  0.1595 -0.1136
  140OSM    H6S15314   2.892   3.859   6.746  2.0532  1.2582  0.2241
  140OSM    H6T15315   2.868   3.689   6.727 -1.0357  1.4979 -1.0586
  140OSM    C7S15316   3.025   3.753   6.604  0.1364 -0.0491 -0.1326
  140OSM    H7S15317   3.064   3.650   6.591 -3.3277 -1.4677 -0.2803
  140OSM    H7T15318   3.113   3.820   6.606 -0.3104  0.5339  0.4781
  140OSM    C8S15319   2.936   3.796   6.488  0.0719  0.4682 -0.3493
  140OSM    H8S15320   2.893   3.897   6.506 -1.3507 -0.4571  2.0079
  140OSM    H8T15321   2.844   3.733   6.487  1.2013 -1.3448  1.2422
  140OSM    C9S15322   3.019   3.782   6.359 -0.0471 -0.4890  0.3800
  140OSM    H9S15323   3.054   3.677   6.351  0.2519 -0.5757  2.3995
  140OSM    H9T15324   3.110   3.844   6.346  0.9070 -1.4019  2.3675
  140OSM   C10S15325   2.931   3.808   6.234 -0.0399  0.0169  0.3887
  140OSM   H10S15326   2.881   3.907   6.245  0.0695 -0.1662  3.6457
  140OSM   H10T15327   2.849   3.733   6.228  1.3762 -1.6905  1.3739
  140OSM   C11S15328   3.000   3.806   6.098  0.3965 -0.3465  1.0074
  140OSM   H11S15329   3.048   3.709   6.075  0.4675  0.2616 -1.6542
  140OSM   H11T15330   3.080   3.883   6.104  0.6303 -0.4511 -0.3928
  140OSM   C12S15331   2.906   3.842   5.987  0.5133 -0.1587 -0.9204
  140OSM   H12S15332   2.860   3.941   6.010  1.8133  0.6218 -1.5179
  140OSM   H12T15333   2.822   3.770   5.985 -1.0136  1.5227 -0.1550
  140OSM   C13S15334   2.977   3.856   5.852 -0.5013 -0.2945  0.4124
  140OSM   H13S15335   3.032   3.766   5.817  1.8908  0.7982  1.1362
  140OSM   H13T15336   3.051   3.939   5.854  0.0622 -0.7892  0.4280
  140OSM   C14S15337   2.882   3.897   5.735  0.7830 -0.1315 -0.1408
  140OSM   H14S15338   2.942   3.913   5.642  1.5533  1.4952  0.5939
  140OSM   H14T15339   2.831   3.994   5.755 -1.0059 -1.1767  0.5847
  140OSM   C15S15340   2.778   3.790   5.704 -0.0500 -0.1753 -0.9290
  140OSM   H15S15341   2.705   3.838   5.636 -3.8762 -1.9930  1.5272
  140OSM   H15T15342   2.717   3.785   5.797 -0.1765 -0.1875 -1.0115
  140OSM   C16S15343   2.829   3.655   5.652 -0.1540  0.0421  0.1490
  140OSM   H16S15344   2.848   3.579   5.730 -1.1431 -1.5080 -1.0393
  140OSM   H16T15345   2.916   3.674   5.586 -0.2526  0.2861  0.0861
  140OSM   C17S15346   2.714   3.586   5.576  0.2467 -0.2475 -0.1707
  140OSM   H17S15347   2.661   3.670   5.525  0.2099  1.0720  1.9084
  140OSM   H17T15348   2.644   3.540   5.649 -0.1037  0.5234 -0.0078
  140OSM   C18S15349   2.773   3.483   5.477  0.3438 -0.3907 -0.5334
  140OSM   H18S15350   2.856   3.424   5.522 -1.4311 -1.1266  1.9892
  140OSM   H18T15351   2.806   3.527   5.381  0.7263  0.4474 -0.0258
  140OSM   H18U15352   2.701   3.402   5.452 -1.1677  0.5666  0.5546
  140OSM    C1F15353   3.157   3.290   7.024 -0.3234  1.0238  0.9863
  140OSM     OF15354   3.058   3.233   7.073 -0.2912 -0.5067  0.1384
  140OSM    C2F15355   3.283   3.219   6.989 -0.4190  0.3658  0.0418
  140OSM    H2F15356   3.348   3.218   7.080  0.3132 -1.9610 -0.4240
  140OSM    H2G15357   3.350   3.264   6.912 -1.8309  0.4970 -1.1540
  140OSM    C3F15358   3.262   3.075   6.935 -0.5096  0.1658 -0.0553
  140OSM    H3F15359   3.192   3.069   6.849 -0.0036 -1.0982 -0.4035
  140OSM    H3G15360   3.224   3.022   7.026  0.9932  1.3644  1.3153
  140OSM    C4F15361   3.401   3.021   6.887  0.3942  0.2749  0.0849
  140OSM    H4F15362   3.475   3.024   6.969 -0.1817 -2.0415  0.7640
  140OSM    H4G15363   3.445   3.071   6.798 -1.5437 -0.5869 -1.4477
  140OSM    C5F15364   3.385   2.871   6.852 -0.4902 -0.4378 -0.1608
  140OSM    H5F15365   3.311   2.823   6.921 -0.1677 -0.3575  0.2451
  140OSM    H5G15366   3.483   2.821   6.869  1.5540  3.9206  2.5890
  140OSM    C6F15367   3.339   2.852   6.705 -0.1271 -0.0992  0.0975
  140OSM    H6F15368   3.410   2.895   6.631 -0.9044 -1.2205 -1.3544
  140OSM    H6G15369   3.250   2.918   6.702  0.2791  0.6393  2.5087
  140OSM    C7F15370   3.296   2.711   6.674  0.3114 -0.2987  0.5357
  140OSM    H7F15371   3.220   2.672   6.744  0.6781 -0.2437  0.9715
  140OSM    H7G15372   3.390   2.653   6.685  0.5349 -0.1454 -0.4567
  140OSM    C8F15373   3.243   2.691   6.532 -0.4162  0.6339 -0.1703
  140OSM    H8F15374   3.240   2.582   6.513  1.2620  0.6720 -0.7476
  140OSM    H8G15375   3.317   2.735   6.463  2.1041  0.7122  2.3726
  140OSM    C9F15376   3.105   2.742   6.502  0.6243 -0.2413  0.5008
  140OSM    H9F15377   3.079   2.821   6.574 -0.9992  0.8826 -1.2131
  140OSM   C10F15378   3.045   2.758   6.384  0.4492  0.0617 -0.0313
  140OSM   H10F15379   2.944   2.801   6.383 -0.4552 -1.9109  0.7028
  140OSM   C11F15380   3.096   2.698   6.251 -0.3934 -0.3262 -0.1187
  140OSM   H11F15381   3.181   2.627   6.256 -1.9524 -2.3475 -0.9257
  140OSM   H11G15382   3.130   2.788   6.195 -1.0849 -0.0624 -0.1202
  140OSM   C12F15383   2.984   2.627   6.179 -0.1955  0.5995 -0.6147
  140OSM   H12F15384   2.906   2.704   6.159 -0.0684  1.2859  1.2392
  140OSM   H12G15385   2.938   2.551   6.247  0.5703  0.6325 -0.0435
  140OSM   C13F15386   3.020   2.551   6.048 -0.4766 -0.9796 -0.2563
  140OSM   H13F15387   2.926   2.513   6.002  0.2643 -1.5572 -1.3340
  140OSM   H13G15388   3.085   2.464   6.073  1.9738 -0.3013 -3.5664
  140OSM   C14F15389   3.092   2.639   5.949 -0.4640 -0.6063  0.2444
  140OSM   H14F15390   3.173   2.692   6.003 -0.9115  1.3625 -0.9098
  140OSM   H14G15391   3.021   2.710   5.901 -2.0610 -2.6032 -0.5270
  140OSM   C15F15392   3.145   2.558   5.830  0.0206  0.1389 -0.3354
  140OSM   H15F15393   3.062   2.508   5.776 -0.2976 -0.6236  0.8066
  140OSM   H15G15394   3.219   2.482   5.864  0.3085  1.0401  1.1445
  140OSM   C16F15395   3.223   2.652   5.745 -0.3459 -0.1754  0.0772
  140OSM   H16F15396   3.302   2.697   5.808 -1.7158  0.6692  1.2611
  140OSM   H16G15397   3.170   2.745   5.715  1.9012  0.9462 -0.6676
  140OSM   C17F15398   3.300   2.598   5.619  0.1405  0.6940  0.8443
  140OSM   H17F15399   3.222   2.566   5.546 -0.0453  0.2199  1.2433
  140OSM   H17G15400   3.357   2.509   5.653 -2.2754 -1.2344  0.1893
  140OSM   C18F15401   3.396   2.700   5.553 -0.1509  0.7545  0.1250
  140OSM   H18F15402   3.474   2.732   5.625 -0.1307 -2.2001  1.5386
  140OSM   H18G15403   3.345   2.794   5.523  1.8247  1.7600 -0.3248
  140OSM   H18H15404   3.441   2.656   5.461 -0.8076  0.6117 -0.1355
  141OSM      N15405   2.166   3.195   7.604 -0.0758  0.1266 -0.0847
  141OSM    C1515406   2.086   3.102   7.512  0.3616  0.3826 -0.4420
  141OSM   H15A15407   2.047   3.016   7.566  1.7812  0.8260  1.4287
  141OSM   H15B15408   2.150   3.070   7.431 -1.1496 -3.4664 -0.3589
  141OSM   H15C15409   1.995   3.150   7.482 -0.1904 -0.5299 -0.2727
  141OSM    C1415410   2.141   3.339   7.569 -0.2992 -0.4749  0.3935
  141OSM   H14A15411   2.181   3.410   7.640  1.1519 -0.8476 -0.0157
  141OSM   H14B15412   2.033   3.351   7.570 -0.4251 -0.9264 -2.2542
  141OSM   H14C15413   2.170   3.367   7.469 -0.9480 -1.2586 -0.0325
  141OSM    C1315414   2.112   3.182   7.745 -0.0314 -0.0389 -0.6605
  141OSM   H13A15415   2.136   3.267   7.807  1.0036 -1.4800  1.0050
  141OSM   H13B15416   2.125   3.086   7.792 -2.2146  0.2771  0.6976
  141OSM   H13C15417   2.005   3.192   7.741 -0.0642 -0.2679 -0.3895
  141OSM    C1215418   2.312   3.161   7.623  0.5325 -0.3417 -0.0042
  141OSM   H12A15419   2.314   3.060   7.661 -2.0772 -0.6262 -0.4275
  141OSM   H12B15420   2.357   3.227   7.696  2.5745 -1.8419  0.1984
  141OSM    C1115421   2.388   3.176   7.489 -0.0433 -0.4886  0.2352
  141OSM   H11A15422   2.400   3.286   7.476  0.2758 -0.5563 -0.0587
  141OSM   H11B15423   2.320   3.146   7.406  0.5825  0.3604 -0.6164
  141OSM      P15424   2.645   3.170   7.508 -0.1762  0.3096 -0.0800
  141OSM    O1315425   2.643   3.244   7.633  0.7587  0.1977  0.0798
  141OSM    O1415426   2.750   3.066   7.499  0.8494 -0.7719  0.1736
  141OSM    O1115427   2.666   3.272   7.386  0.3620  0.2480 -1.0422
  141OSM    O1215428   2.505   3.099   7.484  0.0476 -0.7743 -0.8943
  141OSM    C1S15429   2.675   3.208   7.259  0.2395  0.3549  0.3132
  141OSM    H1S15430   2.610   3.119   7.252 -0.8840  1.1372  0.5684
  141OSM    H1T15431   2.780   3.181   7.234 -0.2304 -0.0971 -1.2544
  141OSM     NF15432   2.594   3.235   7.023 -0.0642  0.5161 -0.2337
  141OSM    HNF15433   2.655   3.243   6.944 -0.3990 -3.4475 -1.0936
  141OSM    C2S15434   2.625   3.303   7.153  0.4480  0.2058  0.3696
  141OSM    H2S15435   2.527   3.334   7.194  0.2808  0.8587 -0.4907
  141OSM    C3S15436   2.704   3.439   7.144  0.0289 -0.0498 -0.2193
  141OSM    H3S15437   2.806   3.414   7.107 -0.5931 -2.2544 -0.6007
  141OSM     O315438   2.736   3.493   7.268 -0.5823 -0.6141 -0.1817
  141OSM    HO315439   2.724   3.414   7.321 -0.2617 -0.5740 -0.0435
  141OSM    C4S15440   2.638   3.531   7.047 -0.4103 -0.1321  0.3593
  141OSM    H4S15441   2.691   3.529   6.951 -2.0915 -0.4017 -0.6052
  141OSM    C5S15442   2.534   3.615   7.064  0.7565  0.1992  0.8320
  141OSM    H5S15443   2.492   3.618   7.166 -0.8221  1.2414  0.1986
  141OSM    C6S15444   2.477   3.711   6.956  0.6004  0.3597  0.1670
  141OSM    H6S15445   2.485   3.814   6.996  2.0410  0.0651  0.7207
  141OSM    H6T15446   2.367   3.701   6.963  0.6256  0.5485  0.9830
  141OSM    C7S15447   2.530   3.724   6.808  0.2408  0.5501 -0.3719
  141OSM    H7S15448   2.635   3.758   6.805 -0.0195  1.3956 -0.0927
  141OSM    H7T15449   2.482   3.808   6.753 -1.7775 -0.8682 -0.9108
  141OSM    C8S15450   2.509   3.608   6.713 -0.1265  0.4756  0.0730
  141OSM    H8S15451   2.406   3.621   6.672  0.1929 -2.4090 -1.9633
  141OSM    H8T15452   2.512   3.509   6.763  0.1395 -0.9524 -2.5943
  141OSM    C9S15453   2.597   3.601   6.588  0.1259  0.6802  0.0895
  141OSM    H9S15454   2.684   3.537   6.616  0.1502 -0.1346 -1.6876
  141OSM    H9T15455   2.645   3.701   6.585 -0.2692  0.8447 -1.3528
  141OSM   C10S15456   2.548   3.563   6.448 -0.5849 -0.1451  0.1256
  141OSM   H10S15457   2.507   3.650   6.393 -0.7215 -0.0529  0.3734
  141OSM   H10T15458   2.466   3.487   6.446  0.1612 -0.9755  0.3424
  141OSM   C11S15459   2.654   3.502   6.365 -0.2482 -0.4628 -0.1473
  141OSM   H11S15460   2.663   3.394   6.388  1.4671 -0.2503  0.3057
  141OSM   H11T15461   2.755   3.539   6.395  0.2378 -0.7371 -1.3895
  141OSM   C12S15462   2.644   3.522   6.213 -0.7654 -0.1757 -0.8358
  141OSM   H12S15463   2.745   3.517   6.167  0.3626  1.9054  1.2069
  141OSM   H12T15464   2.606   3.623   6.185  0.3363  2.0721  4.4543
  141OSM   C13S15465   2.551   3.415   6.161  0.0042  0.7265 -0.3272
  141OSM   H13S15466   2.455   3.440   6.210 -0.3726 -0.5204 -0.3856
  141OSM   H13T15467   2.588   3.316   6.196  0.4713  2.0702  3.3271
  141OSM   C14S15468   2.536   3.428   6.006  0.1654 -0.1013  0.1011
  141OSM   H14S15469   2.624   3.385   5.955  0.4571 -0.8568  1.1986
  141OSM   H14T15470   2.530   3.538   5.992 -1.4688 -0.2571 -0.6069
  141OSM   C15S15471   2.410   3.352   5.954 -0.0145  0.6934 -0.8013
  141OSM   H15S15472   2.325   3.416   5.985 -0.2700  0.0993 -0.2686
  141OSM   H15T15473   2.385   3.256   6.003  0.4597  1.6732  1.4873
  141OSM   C16S15474   2.388   3.342   5.807 -0.1706 -0.4525 -0.3963
  141OSM   H16S15475   2.396   3.447   5.773 -1.6269  0.7763  2.6802
  141OSM   H16T15476   2.288   3.299   5.786 -0.6006  0.6800 -0.7508
  141OSM   C17S15477   2.488   3.250   5.735  0.5747 -1.0193  0.5066
  141OSM   H17S15478   2.587   3.293   5.758  0.8139 -1.2503 -0.0607
  141OSM   H17T15479   2.478   3.259   5.624  1.7860 -1.3471  0.3623
  141OSM   C18S15480   2.475   3.093   5.763 -0.1749  0.5812 -0.7018
  141OSM   H18S15481   2.379   3.049   5.728 -3.1517  4.7009  1.4296
  141OSM   H18T15482   2.483   3.078   5.873 -0.5397 -1.4895 -0.9198
  141OSM   H18U15483   2.564   3.048   5.714  0.2692 -0.4637  0.9934
  141OSM    C1F15484   2.505   3.134   7.011 -0.3945 -0.2745  0.8008
  141OSM     OF15485   2.429   3.109   7.103  0.3819 -0.4803 -0.2511
  141OSM    C2F15486   2.508   3.049   6.886 -0.5881  0.3264 -0.5050
  141OSM    H2F15487   2.545   2.948   6.913 -3.0010 -0.6784 -0.6706
  141OSM    H2G15488   2.570   3.094   6.805  3.7529 -1.4384  1.5075
  141OSM    C3F15489   2.364   3.008   6.833  0.1852 -0.3122 -0.2263
  141OSM    H3F15490   2.317   3.107   6.813  1.4667  0.0593 -1.6052
  141OSM    H3G15491   2.306   2.963   6.916  1.6945  1.2318  1.7529
  141OSM    C4F15492   2.379   2.926   6.707  0.1100  0.0582  0.1167
  141OSM    H4F15493   2.402   2.822   6.737 -0.5324  0.2271  1.2281
  141OSM    H4G15494   2.461   2.973   6.648  1.4789 -2.6956 -0.2916
  141OSM    C5F15495   2.260   2.924   6.623 -0.1023 -0.3885 -0.2915
  141OSM    H5F15496   2.181   2.990   6.664 -1.1805 -3.1130  2.2919
  141OSM    H5G15497   2.211   2.829   6.652 -2.4987  0.8154 -0.1583
  141OSM    C6F15498   2.280   2.926   6.468 -0.4937  0.4204 -0.0935
  141OSM    H6F15499   2.176   2.910   6.433 -0.1179 -0.9191 -0.6637
  141OSM    H6G15500   2.343   2.842   6.433  1.4417  1.2451  1.2404
  141OSM    C7F15501   2.324   3.059   6.402  0.7100 -0.2349 -0.6948
  141OSM    H7F15502   2.430   3.077   6.430  0.0298  3.1393  0.1577
  141OSM    H7G15503   2.268   3.141   6.452  2.8179 -0.6589  2.6597
  141OSM    C8F15504   2.302   3.062   6.245 -0.2851 -0.5304  0.0467
  141OSM    H8F15505   2.349   2.972   6.201  0.3596 -1.1150  1.8611
  141OSM    H8G15506   2.353   3.151   6.203 -1.6606 -0.6756 -2.0919
  141OSM    C9F15507   2.161   3.070   6.202  0.5277 -0.1274  0.1115
  141OSM    H9F15508   2.093   3.148   6.240 -2.3166 -1.1228 -2.4554
  141OSM   C10F15509   2.096   2.995   6.106  0.1775 -0.1783 -0.2786
  141OSM   H10F15510   1.992   3.025   6.089  0.3280  1.6200  1.5317
  141OSM   C11F15511   2.165   2.890   6.020 -0.2140  0.1813  0.0294
  141OSM   H11F15512   2.208   2.809   6.083  2.0977  1.0113 -0.3599
  141OSM   H11G15513   2.242   2.939   5.957 -2.3772  0.4620 -2.5641
  141OSM   C12F15514   2.069   2.819   5.923 -0.0377  0.4990  0.2283
  141OSM   H12F15515   2.033   2.897   5.853  0.5047 -0.9730 -1.8021
  141OSM   H12G15516   1.987   2.762   5.971  1.3606 -0.7395  1.2558
  141OSM   C13F15517   2.148   2.711   5.838  0.1526  0.0687 -0.2768
  141OSM   H13F15518   2.193   2.631   5.901 -0.5792 -1.2520 -1.3532
  141OSM   H13G15519   2.236   2.764   5.796  0.9875 -0.6655  0.4965
  141OSM   C14F15520   2.053   2.638   5.738 -0.3484 -0.5946 -0.2184
  141OSM   H14F15521   2.108   2.586   5.657  0.5646  2.3246 -1.5988
  141OSM   H14G15522   1.975   2.703   5.693 -1.6966 -0.8009  1.6973
  141OSM   C15F15523   1.957   2.532   5.806 -0.1868  1.0668  0.6375
  141OSM   H15F15524   1.883   2.577   5.876 -1.4539 -2.2947  1.6816
  141OSM   H15G15525   2.009   2.453   5.864 -2.4029 -1.7053 -0.8813
  141OSM   C16F15526   1.890   2.430   5.709  0.7170  0.6720 -0.9353
  141OSM   H16F15527   1.963   2.359   5.665 -0.2937 -1.0734  0.0763
  141OSM   H16G15528   1.841   2.478   5.621 -0.3768  0.1385 -0.6451
  141OSM   C17F15529   1.783   2.335   5.774  0.1564  0.8179  0.2211
  141OSM   H17F15530   1.712   2.389   5.840  1.4362 -0.2636  2.6117
  141OSM   H17G15531   1.821   2.258   5.844 -3.0840  0.2174  1.4914
  141OSM   C18F15532   1.719   2.239   5.678 -0.0628  0.1340  0.7533
  141OSM   H18F15533   1.801   2.175   5.638  0.8773  0.4030  2.1873
  141OSM   H18G15534   1.682   2.294   5.588 -0.0009  0.5187  0.9591
  141OSM   H18H15535   1.635   2.178   5.717 -1.6985  1.5749 -0.3824
  142OSM      N15536   2.314   2.082   7.864 -0.1346  0.3427  0.2799
  142OSM    C1515537   2.325   1.946   7.801  0.5864  0.6884  0.0414
  142OSM   H15A15538   2.229   1.906   7.770 -0.2014  0.1615  2.8679
  142OSM   H15B15539   2.373   1.868   7.857 -1.4309 -0.5553  0.1598
  142OSM   H15C15540   2.373   1.953   7.704  1.4418 -5.3489 -0.3607
  142OSM    C1415541   2.208   2.074   7.975  0.5498  0.0661 -0.0050
  142OSM   H14A15542   2.115   2.096   7.923 -0.2324 -0.2572  1.2169
  142OSM   H14B15543   2.228   2.143   8.056  0.2853  1.2570 -0.9273
  142OSM   H14C15544   2.185   1.979   8.021 -1.4922  0.2041 -0.6435
  142OSM    C1315545   2.444   2.111   7.928  0.4792  0.0247 -0.2655
  142OSM   H13A15546   2.472   2.040   8.004 -2.3686 -1.4790 -0.4918
  142OSM   H13B15547   2.440   2.208   7.975 -0.7515 -0.5461  0.8717
  142OSM   H13C15548   2.520   2.111   7.851  0.6187  1.4322 -0.1505
  142OSM    C1215549   2.272   2.187   7.761 -0.1547  0.6431 -0.2001
  142OSM   H12A15550   2.356   2.199   7.695 -0.0566  1.6828  0.1001
  142OSM   H12B15551   2.256   2.280   7.814  2.3424  1.4290 -0.7202
  142OSM    C1115552   2.146   2.157   7.670 -0.1060 -0.8932  0.5717
  142OSM   H11A15553   2.181   2.063   7.622  1.0662 -0.7642  1.1283
  142OSM   H11B15554   2.139   2.228   7.586 -1.6643 -1.6575  0.0248
  142OSM      P15555   1.954   2.278   7.785  0.0702  0.2503 -0.1281
  142OSM    O1315556   1.848   2.242   7.883  0.5141 -0.0486  0.0280
  142OSM    O1415557   2.041   2.385   7.834 -0.4026 -0.9940 -0.0882
  142OSM    O1115558   1.883   2.329   7.653  0.4176 -0.1863  0.5163
  142OSM    O1215559   2.029   2.148   7.753  0.0733 -0.0272  0.0257
  142OSM    C1S15560   1.833   2.217   7.571  0.0744 -0.2090  0.5346
  142OSM    H1S15561   1.736   2.178   7.609 -1.1813  1.5245 -0.7377
  142OSM    H1T15562   1.904   2.133   7.554 -1.2246 -0.6906 -3.4698
  142OSM     NF15563   1.753   2.163   7.337 -0.6403 -0.0183  0.0371
  142OSM    HNF15564   1.816   2.147   7.261 -0.6368  1.4481 -0.2994
  142OSM    C2S15565   1.802   2.266   7.425  0.6592 -0.3666  0.4958
  142OSM    H2S15566   1.713   2.332   7.435  0.3415 -0.6971 -0.1372
  142OSM    C3S15567   1.901   2.363   7.360 -1.2660 -0.0673 -0.4298
  142OSM    H3S15568   1.996   2.307   7.344 -1.8956 -0.7728 -1.9552
  142OSM     O315569   1.936   2.472   7.449 -0.4153 -0.0050 -0.1518
  142OSM    HO315570   1.913   2.429   7.532  0.6649  0.7116  0.5362
  142OSM    C4S15571   1.867   2.422   7.227  0.1295 -0.4279 -0.0411
  142OSM    H4S15572   1.909   2.356   7.151  1.3504  1.7349 -1.3481
  142OSM    C5S15573   1.797   2.535   7.196  0.3020  0.0407  0.6737
  142OSM    H5S15574   1.759   2.588   7.284 -2.0311 -0.9496  0.3319
  142OSM    C6S15575   1.779   2.583   7.049  0.0151 -0.7229  0.4076
  142OSM    H6S15576   1.831   2.681   7.035 -0.0641 -0.9678 -1.9431
  142OSM    H6T15577   1.673   2.597   7.019  1.1425 -0.1573 -4.0039
  142OSM    C7S15578   1.821   2.478   6.941  0.4848  0.1573 -0.0235
  142OSM    H7S15579   1.764   2.383   6.952 -0.1681  0.8316  3.4767
  142OSM    H7T15580   1.930   2.454   6.947  0.4352  0.2113  1.2114
  142OSM    C8S15581   1.817   2.526   6.787 -0.1469 -1.0537 -0.6246
  142OSM    H8S15582   1.891   2.604   6.760 -1.9770  2.0422  2.4364
  142OSM    H8T15583   1.716   2.562   6.757  0.4626  0.6360 -0.7444
  142OSM    C9S15584   1.845   2.413   6.695  0.0089  0.0300 -0.1005
  142OSM    H9S15585   1.761   2.341   6.707 -0.6553  0.8694  0.4807
  142OSM    H9T15586   1.934   2.358   6.732 -0.3406 -0.5862 -0.1606
  142OSM   C10S15587   1.873   2.458   6.550  0.1682 -0.0771  0.0391
  142OSM   H10S15588   1.953   2.535   6.540 -0.8806  1.1362  0.6364
  142OSM   H10T15589   1.782   2.509   6.512 -0.0169 -0.7771 -0.4581
  142OSM   C11S15590   1.927   2.340   6.464 -0.1247  0.1762 -0.1211
  142OSM   H11S15591   1.858   2.254   6.475  1.4470 -1.8477 -4.0617
  142OSM   H11T15592   2.018   2.307   6.518 -0.0669  1.7368  0.7848
  142OSM   C12S15593   1.935   2.357   6.311 -0.3701  1.2859  0.8195
  142OSM   H12S15594   2.004   2.441   6.286  0.9907  0.4254  1.5841
  142OSM   H12T15595   1.831   2.376   6.278 -0.1582  1.0455 -0.0218
  142OSM   C13S15596   1.995   2.237   6.246  0.4040  0.5164  0.1084
  142OSM   H13S15597   1.916   2.160   6.254  1.0294 -0.3582 -1.7312
  142OSM   H13T15598   2.082   2.196   6.302  0.5090 -2.8810 -2.2502
  142OSM   C14S15599   2.029   2.258   6.094 -0.4782  0.3448  0.5730
  142OSM   H14S15600   2.099   2.343   6.082  1.5150 -1.5054 -2.0781
  142OSM   H14T15601   1.935   2.284   6.042  0.8139 -1.0447 -2.6901
  142OSM   C15S15602   2.085   2.140   6.020  0.4349  0.0570  0.0031
  142OSM   H15S15603   2.171   2.107   6.082 -0.3745 -1.4619  0.3724
  142OSM   H15T15604   2.119   2.161   5.917  0.9445 -1.6863 -0.2157
  142OSM   C16S15605   1.989   2.018   6.017  0.0599  0.1408 -0.1799
  142OSM   H16S15606   1.885   2.049   5.996  0.5919  2.4727  0.4388
  142OSM   H16T15607   1.990   1.971   6.118 -0.9655  0.9723  0.2361
  142OSM   C17S15608   2.027   1.902   5.927 -0.4753  0.1232  0.1140
  142OSM   H17S15609   1.973   1.806   5.942 -1.0742  0.0706 -2.0679
  142OSM   H17T15610   2.136   1.881   5.942  0.0055  1.5034 -1.2402
  142OSM   C18S15611   2.028   1.933   5.778  1.0427 -0.2452  0.4634
  142OSM   H18S15612   1.928   1.980   5.760  1.0133 -1.0075 -1.6167
  142OSM   H18T15613   2.024   1.840   5.717 -0.7961 -0.2316  0.4953
  142OSM   H18U15614   2.105   2.006   5.747  1.8923 -0.8080  1.2219
  142OSM    C1F15615   1.650   2.087   7.366  0.2701 -0.5455 -0.0682
  142OSM     OF15616   1.554   2.132   7.437  0.2541  0.1071  0.0813
  142OSM    C2F15617   1.635   1.943   7.316 -0.3980 -0.7318 -0.1794
  142OSM    H2F15618   1.593   1.888   7.403 -0.8373  0.1153  0.1523
  142OSM    H2G15619   1.735   1.904   7.285  0.6601  1.0329  0.8882
  142OSM    C3F15620   1.530   1.939   7.205 -0.1392 -0.1972  0.4673
  142OSM    H3F15621   1.430   1.981   7.229 -0.1103 -0.2992  0.7607
  142OSM    H3G15622   1.513   1.831   7.186 -0.4676 -0.5189  2.4022
  142OSM    C4F15623   1.585   2.005   7.072 -0.0721  0.1449 -0.2602
  142OSM    H4F15624   1.691   1.978   7.050  0.2158  1.5108 -0.6687
  142OSM    H4G15625   1.590   2.115   7.090 -0.4668  0.3453 -1.2881
  142OSM    C5F15626   1.497   1.959   6.955  0.5300  0.9246  0.3436
  142OSM    H5F15627   1.398   2.009   6.959  1.3129  2.4954  0.6448
  142OSM    H5G15628   1.489   1.848   6.945  0.6469  0.9298  0.1980
  142OSM    C6F15629   1.539   2.001   6.814 -0.1766  0.7405 -0.5084
  142OSM    H6F15630   1.642   1.959   6.807 -2.0163 -4.4122 -0.9483
  142OSM    H6G15631   1.526   2.109   6.795 -0.9246  0.3719 -2.3219
  142OSM    C7F15632   1.450   1.940   6.708 -0.0803  0.4763  0.8074
  142OSM    H7F15633   1.342   1.931   6.732 -0.4228  1.1241 -0.4166
  142OSM    H7G15634   1.484   1.835   6.699 -1.8079 -0.1344  0.9392
  142OSM    C8F15635   1.466   2.024   6.578  1.0483  0.1920 -0.2315
  142OSM    H8F15636   1.436   2.131   6.580 -0.4983  0.0671 -4.7628
  142OSM    H8G15637   1.396   1.967   6.513 -0.5657  0.3334  1.2864
  142OSM    C9F15638   1.600   2.014   6.503 -0.3262  0.1721  0.2086
  142OSM    H9F15639   1.672   2.067   6.568  0.6452 -0.6547 -0.1717
  142OSM   C10F15640   1.624   1.958   6.377 -0.2651  0.0358  0.2428
  142OSM   H10F15641   1.728   1.953   6.341 -0.6505 -0.5026 -0.8444
  142OSM   C11F15642   1.528   1.881   6.290  0.7628  0.8048  0.2334
  142OSM   H11F15643   1.450   1.835   6.354  1.6837 -0.0285  0.7640
  142OSM   H11G15644   1.564   1.804   6.218 -4.2852 -0.6251 -1.2336
  142OSM   C12F15645   1.455   1.981   6.199  0.4098 -0.1714 -0.0677
  142OSM   H12F15646   1.421   2.068   6.259 -1.2537 -0.4073 -0.6200
  142OSM   H12G15647   1.365   1.937   6.152  0.1111  0.7866 -0.4143
  142OSM   C13F15648   1.545   2.045   6.091 -0.2176  0.2536  0.2933
  142OSM   H13F15649   1.570   1.956   6.029  1.3525  1.1341 -0.4056
  142OSM   H13G15650   1.631   2.091   6.144 -0.5930 -0.0331  1.1686
  142OSM   C14F15651   1.483   2.151   5.996  0.8114 -0.0914  0.0252
  142OSM   H14F15652   1.568   2.203   5.947  1.4178 -1.2039 -0.1211
  142OSM   H14G15653   1.434   2.229   6.058 -1.3960 -1.5567  0.2585
  142OSM   C15F15654   1.382   2.096   5.897 -0.2051 -0.0787  0.6703
  142OSM   H15F15655   1.281   2.066   5.933 -0.8498 -0.3531 -1.2310
  142OSM   H15G15656   1.426   2.012   5.840  0.3032  0.4560  0.2704
  142OSM   C16F15657   1.351   2.202   5.786 -1.0032  0.1306 -0.9029
  142OSM   H16F15658   1.447   2.253   5.762 -0.8471  2.3744  3.5148
  142OSM   H16G15659   1.275   2.272   5.825 -2.0103 -0.2286 -2.1421
  142OSM   C17F15660   1.297   2.139   5.660  0.6005 -0.6077 -0.5721
  142OSM   H17F15661   1.360   2.055   5.624 -0.2256 -0.8544 -1.4878
  142OSM   H17G15662   1.289   2.220   5.584 -0.9867  1.2109  1.3953
  142OSM   C18F15663   1.151   2.096   5.661  1.0345 -0.5563 -0.4043
  142OSM   H18F15664   1.079   2.180   5.671  2.3320  0.5854 -0.3098
  142OSM   H18G15665   1.137   2.028   5.748 -0.1453  0.7782  0.5035
  142OSM   H18H15666   1.119   2.056   5.563 -0.7096  1.3390 -0.6750
  143OSM      N15667   3.509   0.977   8.102 -0.1989  0.2814 -0.3559
  143OSM    C1515668   3.430   0.852   8.088  0.1026 -0.2734 -0.7524
  143OSM   H15A15669   3.460   0.774   8.156 -1.7000 -0.0883  0.3262
  143OSM   H15B15670   3.432   0.820   7.985  0.1793 -3.4678  0.1603
  143OSM   H15C15671   3.327   0.876   8.109  0.8570  1.3962  1.4458
  143OSM    C1415672   3.542   1.002   8.249  0.1013  0.6087  0.6691
  143OSM   H14A15673   3.602   1.091   8.264  0.2089  0.6448  0.0495
  143OSM   H14B15674   3.585   0.914   8.295  0.6711  0.4350 -0.1837
  143OSM   H14C15675   3.447   1.013   8.299 -1.0500 -2.4125 -0.6137
  143OSM    C1315676   3.628   0.967   8.014 -0.0886  0.1887 -0.6059
  143OSM   H13A15677   3.601   0.942   7.913  0.6594  0.9120 -0.9954
  143OSM   H13B15678   3.695   0.891   8.051 -0.1492  1.2788  2.0020
  143OSM   H13C15679   3.683   1.060   8.007  1.1280 -0.6335 -3.1586
  143OSM    C1215680   3.423   1.095   8.050  0.4864  0.2284  0.1440
  143OSM   H12A15681   3.389   1.078   7.950  1.5279  3.1930 -0.8497
  143OSM   H12B15682   3.473   1.188   8.024  0.1804 -0.5114 -3.5522
  143OSM    C1115683   3.298   1.134   8.131  0.0909  0.3862  0.9850
  143OSM   H11A15684   3.282   1.240   8.101  3.8596  0.9636  0.5031
  143OSM   H11B15685   3.315   1.131   8.240 -1.3837 -1.5513  1.2000
  143OSM      P15686   3.102   1.064   7.969 -0.4526 -0.4474  0.4395
  143OSM    O1315687   3.058   0.932   7.910 -0.0766 -0.8820 -0.3087
  143OSM    O1415688   3.006   1.168   8.003 -0.0046  0.1487 -0.3888
  143OSM    O1115689   3.203   1.136   7.876 -0.4021 -0.4579  0.3680
  143OSM    O1215690   3.186   1.044   8.105 -0.3489  0.0776  0.1379
  143OSM    C1S15691   3.217   1.113   7.734 -0.6523  0.4735  0.0022
  143OSM    H1S15692   3.174   1.016   7.700 -1.1669  0.2930  1.1567
  143OSM    H1T15693   3.326   1.108   7.712 -1.0191 -0.3890 -1.8845
  143OSM     NF15694   3.127   1.189   7.510  0.1067 -1.0567  0.2455
  143OSM    HNF15695   3.202   1.215   7.450 -1.3467  3.4227 -0.0549
  143OSM    C2S15696   3.151   1.225   7.648  0.9482 -0.0641  0.4806
  143OSM    H2S15697   3.052   1.256   7.687  0.8744  0.1291  0.1467
  143OSM    C3S15698   3.233   1.351   7.670 -0.3408  0.1473  0.1774
  143OSM    H3S15699   3.341   1.332   7.654 -0.6506 -2.2307  0.6076
  143OSM     O315700   3.232   1.404   7.803 -0.3844 -0.0580 -0.3046
  143OSM    HO315701   3.225   1.327   7.861 -0.7121  0.7858  0.8148
  143OSM    C4S15702   3.179   1.465   7.582 -0.2127  0.2689 -0.4256
  143OSM    H4S15703   3.073   1.490   7.599 -0.6941 -0.5128 -2.0018
  143OSM    C5S15704   3.246   1.539   7.492 -0.0740 -0.3094  0.0418
  143OSM    H5S15705   3.347   1.504   7.466 -1.4585 -3.2930 -1.9916
  143OSM    C6S15706   3.184   1.641   7.401 -0.1627  0.6534  1.0309
  143OSM    H6S15707   3.201   1.746   7.437 -1.4410  0.8412  1.1221
  143OSM    H6T15708   3.073   1.642   7.396 -0.1477  0.3716  0.6904
  143OSM    C7S15709   3.234   1.621   7.257  0.0945  0.5446  0.0028
  143OSM    H7S15710   3.212   1.521   7.214  0.4455  0.1605  0.6983
  143OSM    H7T15711   3.342   1.646   7.266 -0.1709  1.0758  2.3218
  143OSM    C8S15712   3.165   1.727   7.166 -0.0438 -0.5590  0.2056
  143OSM    H8S15713   3.193   1.826   7.209 -1.7772 -0.1880  0.5480
  143OSM    H8T15714   3.055   1.721   7.174  0.0147 -1.8469  0.2701
  143OSM    C9S15715   3.212   1.720   7.020  0.1147 -0.2259  0.2472
  143OSM    H9S15716   3.200   1.614   6.992  0.4741  0.0605 -1.0776
  143OSM    H9T15717   3.319   1.749   7.014 -0.0037  0.2805  0.4956
  143OSM   C10S15718   3.129   1.796   6.918 -0.4603 -0.9927  0.5538
  143OSM   H10S15719   3.137   1.903   6.947 -0.1474 -0.8991  0.1222
  143OSM   H10T15720   3.022   1.773   6.939 -0.6171  0.1335  1.0568
  143OSM   C11S15721   3.177   1.774   6.779  0.4637 -0.5265  0.7004
  143OSM   H11S15722   3.285   1.798   6.769  0.1043  1.0503  0.2328
  143OSM   H11T15723   3.125   1.847   6.713  1.0825 -1.1809 -0.5498
  143OSM   C12S15724   3.141   1.641   6.724  0.6475 -0.3570 -0.2507
  143OSM   H12S15725   3.035   1.632   6.692 -0.4305  3.3247  1.6302
  143OSM   H12T15726   3.162   1.562   6.799  1.8550  0.8906  0.7819
  143OSM   C13S15727   3.227   1.615   6.602  0.1482 -0.3435 -0.4077
  143OSM   H13S15728   3.329   1.638   6.638 -1.0001  3.4916  0.9037
  143OSM   H13T15729   3.209   1.685   6.518 -2.7887 -1.6318 -0.9972
  143OSM   C14S15730   3.220   1.466   6.559  0.0152  1.0040 -0.2448
  143OSM   H14S15731   3.215   1.400   6.648 -0.6687 -0.1314 -1.0985
  143OSM   H14T15732   3.317   1.436   6.513  1.2546  0.5933  2.4489
  143OSM   C15S15733   3.091   1.431   6.479  0.3308  0.3892  0.4919
  143OSM   H15S15734   3.085   1.501   6.393  1.2772  0.1896  0.2430
  143OSM   H15T15735   2.998   1.433   6.539  0.4817 -1.2391  0.8455
  143OSM   C16S15736   3.118   1.290   6.426 -0.7035 -0.7134  0.0938
  143OSM   H16S15737   3.136   1.226   6.514  0.6642  2.3789  2.2606
  143OSM   H16T15738   3.214   1.299   6.369  1.5138 -0.0514  3.6457
  143OSM   C17S15739   3.003   1.247   6.343 -0.4399  0.0469 -0.2711
  143OSM   H17S15740   3.001   1.293   6.242 -1.4386  0.4785 -0.0676
  143OSM   H17T15741   2.910   1.283   6.392 -0.2092 -0.7865  0.8110
  143OSM   C18S15742   3.003   1.094   6.322 -0.3906 -0.2949  0.6971
  143OSM   H18S15743   3.042   1.043   6.412  0.9879 -0.9844 -0.2567
  143OSM   H18T15744   3.072   1.061   6.242 -1.8366 -0.5272 -0.5147
  143OSM   H18U15745   2.901   1.062   6.291  0.2319 -1.2239 -0.4566
  143OSM    C1F15746   3.034   1.101   7.480  0.2843  0.3643 -0.6519
  143OSM     OF15747   2.980   1.034   7.569 -0.0175 -0.4750 -0.3075
  143OSM    C2F15748   3.004   1.086   7.335  0.0350 -0.5023 -0.3465
  143OSM    H2F15749   3.104   1.070   7.290  0.0641 -2.6608  0.3742
  143OSM    H2G15750   2.953   1.178   7.298 -2.9747 -2.0110 -0.2377
  143OSM    C3F15751   2.908   0.970   7.305 -0.3076  0.6125 -0.2448
  143OSM    H3F15752   2.814   0.998   7.358 -0.8448 -0.7397 -0.4351
  143OSM    H3G15753   2.933   0.865   7.335 -2.4250 -0.0221 -0.5144
  143OSM    C4F15754   2.885   0.960   7.159  0.2900 -0.1079  0.1122
  143OSM    H4F15755   2.857   1.054   7.106 -0.4485 -0.7593 -0.7040
  143OSM    H4G15756   2.792   0.900   7.151 -0.3982  0.6654  1.9455
  143OSM    C5F15757   2.994   0.890   7.081  0.9965  0.1378 -0.2119
  143OSM    H5F15758   3.021   0.790   7.121 -1.7670 -0.2356  0.9673
  143OSM    H5G15759   3.085   0.947   7.110  1.4882 -0.9910  0.5360
  143OSM    C6F15760   2.972   0.900   6.936  0.3407  0.3487 -0.1928
  143OSM    H6F15761   2.959   1.005   6.903 -0.3599  1.1153  2.2952
  143OSM    H6G15762   2.889   0.838   6.894  1.5888  0.2009 -2.5684
  143OSM    C7F15763   3.084   0.847   6.848 -0.2357 -0.6996 -0.0649
  143OSM    H7F15764   3.109   0.739   6.860  2.0118 -0.3826 -1.4963
  143OSM    H7G15765   3.172   0.908   6.876  0.2349 -0.6983 -1.4495
  143OSM    C8F15766   3.054   0.868   6.700  0.4327 -0.8891 -0.2511
  143OSM    H8F15767   3.051   0.978   6.685 -0.7514 -0.5888  1.7773
  143OSM    H8G15768   2.951   0.828   6.683  0.5649 -1.3994  0.1411
  143OSM    C9F15769   3.154   0.793   6.623  0.4658 -1.0708  0.2545
  143OSM    H9F15770   3.252   0.843   6.625  0.5898 -1.3101  0.1544
  143OSM   C10F15771   3.143   0.688   6.541 -0.1200 -0.2411 -0.0602
  143OSM   H10F15772   3.233   0.651   6.490  2.1807  2.2489  1.8921
  143OSM   C11F15773   3.020   0.606   6.519  0.6402 -0.3751 -1.4137
  143OSM   H11F15774   2.971   0.587   6.617  0.7338  0.9417 -1.0917
  143OSM   H11G15775   3.032   0.507   6.469 -2.5254 -1.9585  0.5800
  143OSM   C12F15776   2.909   0.678   6.435 -0.5016 -0.3045 -0.3905
  143OSM   H12F15777   2.896   0.788   6.446  1.5636 -0.0505 -0.1319
  143OSM   H12G15778   2.813   0.627   6.458 -0.7774 -0.9402 -2.6310
  143OSM   C13F15779   2.922   0.647   6.285 -0.0127 -0.7478 -0.0058
  143OSM   H13F15780   2.920   0.539   6.259 -2.0561 -0.8628  0.4238
  143OSM   H13G15781   3.019   0.689   6.252 -1.3113  2.3452 -0.2289
  143OSM   C14F15782   2.810   0.709   6.198  0.4765  0.9516  0.7255
  143OSM   H14F15783   2.806   0.819   6.213  1.7610  1.3306 -1.2566
  143OSM   H14G15784   2.714   0.662   6.228  0.9214 -1.0386 -0.6735
  143OSM   C15F15785   2.830   0.698   6.046  0.3661 -0.3025  0.1881
  143OSM   H15F15786   2.745   0.751   5.997 -0.2858 -0.6929  0.8673
  143OSM   H15G15787   2.818   0.592   6.014 -1.2520 -0.2197  0.4100
  143OSM   C16F15788   2.957   0.760   5.991 -0.2992 -0.0070  0.5515
  143OSM   H16F15789   3.035   0.682   6.000  0.2002 -0.1649 -3.4229
  143OSM   H16G15790   2.991   0.840   6.061  1.8860  0.2309 -0.7241
  143OSM   C17F15791   2.969   0.812   5.847 -0.2081  0.6655  0.4916
  143OSM   H17F15792   3.055   0.882   5.856  0.9710 -0.7596  0.6398
  143OSM   H17G15793   2.899   0.889   5.809  1.6007  2.6854  1.0589
  143OSM   C18F15794   2.991   0.705   5.745  0.0260  1.1206 -0.3910
  143OSM   H18F15795   2.898   0.646   5.728 -2.4013  4.7089 -0.5561
  143OSM   H18G15796   3.082   0.642   5.757 -1.9345 -1.8680 -0.1744
  143OSM   H18H15797   3.007   0.762   5.651  1.9081  2.2606  0.5648
  144OSM      N15798   2.414   5.135   7.473  0.7474  0.4325  0.0742
  144OSM    C1515799   2.460   5.182   7.336  0.9100 -0.2926 -0.3795
  144OSM   H15A15800   2.568   5.186   7.325  1.0049 -1.7331 -0.1517
  144OSM   H15B15801   2.432   5.286   7.323 -2.2062 -1.2162 -2.0429
  144OSM   H15C15802   2.412   5.126   7.258  1.1855 -0.9449 -0.0861
  144OSM    C1415803   2.275   5.186   7.494 -0.1872 -0.2131 -0.3833
  144OSM   H14A15804   2.275   5.290   7.522 -2.2426 -0.8643  2.5750
  144OSM   H14B15805   2.238   5.143   7.586 -1.2059  1.5869  0.1034
  144OSM   H14C15806   2.211   5.172   7.408  3.1214 -0.1735 -3.0429
  144OSM    C1315807   2.424   4.988   7.482  0.2069  0.3424  0.1226
  144OSM   H13A15808   2.399   4.942   7.576  0.4416  0.5526  0.2905
  144OSM   H13B15809   2.529   4.968   7.463  0.3586 -0.3063  1.5587
  144OSM   H13C15810   2.376   4.934   7.402  1.5029 -0.1299 -0.3608
  144OSM    C1215811   2.496   5.199   7.587  0.2554 -0.8410  0.0636
  144OSM   H12A15812   2.457   5.160   7.680  0.4095 -2.3885 -0.4781
  144OSM   H12B15813   2.486   5.306   7.592  0.6577 -0.8067  0.2247
  144OSM    C1115814   2.648   5.176   7.593 -0.4201  0.4863 -0.6936
  144OSM   H11A15815   2.663   5.067   7.603  4.7637  1.0630  0.7763
  144OSM   H11B15816   2.694   5.208   7.689 -0.9617  1.3585 -0.7077
  144OSM      P15817   2.755   5.366   7.457  0.0008 -0.2019  0.0638
  144OSM    O1315818   2.673   5.419   7.348 -0.2109 -0.7060 -0.3499
  144OSM    O1415819   2.752   5.438   7.585 -0.1124  0.1931  0.0736
  144OSM    O1115820   2.900   5.343   7.403  0.1735  0.0857  0.1069
  144OSM    O1215821   2.717   5.212   7.479  0.0314  0.4623  0.2267
  144OSM    C1S15822   2.932   5.284   7.278  0.1113 -0.3879  0.4854
  144OSM    H1S15823   2.852   5.213   7.248  0.6233  0.0979 -2.3107
  144OSM    H1T15824   3.026   5.225   7.288 -1.1269 -2.9578 -1.6895
  144OSM     NF15825   2.962   5.332   7.034  0.3964 -0.2423 -0.5578
  144OSM    HNF15826   3.055   5.325   6.998  0.6686 -1.9760  0.3847
  144OSM    C2S15827   2.951   5.395   7.166 -0.8747 -0.2473  0.0991
  144OSM    H2S15828   2.873   5.475   7.172  0.5053  1.2940 -1.4767
  144OSM    C3S15829   3.084   5.476   7.199  0.5281  0.1784 -0.1702
  144OSM    H3S15830   3.162   5.398   7.215  0.9742  0.4588 -0.8856
  144OSM     O315831   3.090   5.537   7.329 -0.3534  0.0476  0.2875
  144OSM    HO315832   3.017   5.497   7.377 -1.7174  1.5503 -0.4368
  144OSM    C4S15833   3.125   5.572   7.095 -0.1808 -0.3167 -0.2870
  144OSM    H4S15834   3.185   5.522   7.017 -2.9841 -0.7841 -2.3317
  144OSM    C5S15835   3.089   5.704   7.084 -0.6295 -0.4200 -0.1430
  144OSM    H5S15836   3.022   5.751   7.157 -0.0211 -1.0294  0.8324
  144OSM    C6S15837   3.126   5.788   6.963  0.1405 -0.3950 -0.2693
  144OSM    H6S15838   3.187   5.728   6.892  1.6613 -0.4320  0.9875
  144OSM    H6T15839   3.193   5.867   7.005 -1.6833  0.7333  0.6308
  144OSM    C7S15840   3.003   5.852   6.891 -0.0640  0.7185 -0.2315
  144OSM    H7S15841   2.953   5.914   6.969  1.4623  0.8020  0.7204
  144OSM    H7T15842   2.934   5.769   6.865 -0.0226  0.3060  0.9271
  144OSM    C8S15843   3.050   5.939   6.774  0.3440  0.3271 -1.2885
  144OSM    H8S15844   3.105   5.882   6.696 -0.5353 -2.4213 -0.0144
  144OSM    H8T15845   3.126   6.007   6.820  2.5020 -2.0960 -1.0101
  144OSM    C9S15846   2.936   6.015   6.716  0.0036 -0.3081 -0.3075
  144OSM    H9S15847   2.909   6.096   6.787  0.1995  0.2273 -0.8375
  144OSM    H9T15848   2.840   5.960   6.701 -0.3034 -0.1171  0.8453
  144OSM   C10S15849   2.973   6.088   6.582  0.3541 -0.8217  0.1468
  144OSM   H10S15850   3.016   6.004   6.524  1.4200 -0.6592  0.6748
  144OSM   H10T15851   3.059   6.156   6.596  0.6170 -0.7546 -1.6036
  144OSM   C11S15852   2.869   6.169   6.511  0.4753 -0.5222  0.2056
  144OSM   H11S15853   2.859   6.263   6.569 -1.4482  0.0103 -0.9241
  144OSM   H11T15854   2.777   6.106   6.515 -0.4831  0.8271  0.0271
  144OSM   C12S15855   2.919   6.201   6.372  0.1808 -0.5912  0.1019
  144OSM   H12S15856   3.024   6.234   6.377  0.2391 -0.3392 -1.9083
  144OSM   H12T15857   2.868   6.289   6.327  1.5313  0.1795  0.0467
  144OSM   C13S15858   2.916   6.084   6.269 -0.0694  0.0554  0.1827
  144OSM   H13S15859   2.810   6.055   6.256  0.7259 -2.0492 -2.3515
  144OSM   H13T15860   2.965   6.002   6.325  1.4310  0.1877 -0.8881
  144OSM   C14S15861   2.984   6.112   6.132 -0.8532 -0.1193 -0.1235
  144OSM   H14S15862   3.094   6.105   6.150 -1.0048 -1.2426  0.4613
  144OSM   H14T15863   2.960   6.214   6.097 -1.2879 -0.7546 -1.8005
  144OSM   C15S15864   2.938   6.011   6.029  0.3282  0.3350  0.3108
  144OSM   H15S15865   2.830   6.033   6.012 -0.1625 -0.1455  2.4728
  144OSM   H15T15866   2.939   5.909   6.073  0.1238  0.4721  0.6424
  144OSM   C16S15867   3.008   6.020   5.890 -0.2975  0.0036 -0.0874
  144OSM   H16S15868   2.974   6.113   5.840  3.3247  0.4455 -2.0535
  144OSM   H16T15869   2.989   5.928   5.831  0.5416 -0.0824 -0.2398
  144OSM   C17S15870   3.161   6.043   5.886 -0.6168 -0.1886 -0.4981
  144OSM   H17S15871   3.202   5.959   5.946  1.6990  0.0892 -1.5958
  144OSM   H17T15872   3.181   6.138   5.941  0.2160 -1.3082  1.2232
  144OSM   C18S15873   3.234   6.044   5.750  0.4473  0.1229 -0.7382
  144OSM   H18S15874   3.213   6.123   5.675  0.2759 -1.0085 -1.9059
  144OSM   H18T15875   3.225   5.945   5.701  2.0427 -0.2826 -0.2694
  144OSM   H18U15876   3.344   6.042   5.764  0.4357  1.2085 -0.4016
  144OSM    C1F15877   2.863   5.268   6.981 -0.3376 -0.7562 -0.3536
  144OSM     OF15878   2.753   5.277   7.034  0.4449  0.3236 -0.3398
  144OSM    C2F15879   2.886   5.200   6.847 -0.0772 -0.2408  0.0705
  144OSM    H2F15880   2.935   5.103   6.869 -1.9994 -1.2988 -0.0332
  144OSM    H2G15881   2.943   5.266   6.778 -0.6009 -0.5939 -0.7277
  144OSM    C3F15882   2.764   5.142   6.772  0.1556  0.2993 -0.3078
  144OSM    H3F15883   2.684   5.218   6.760 -0.2193  0.1993  1.3545
  144OSM    H3G15884   2.724   5.064   6.841 -1.1125 -0.4881 -1.8803
  144OSM    C4F15885   2.795   5.072   6.633 -0.1389 -0.6187 -0.4012
  144OSM    H4F15886   2.701   5.042   6.582 -1.5411  1.0600  1.0642
  144OSM    H4G15887   2.864   4.989   6.659  1.0150  0.9286  1.7698
  144OSM    C5F15888   2.878   5.158   6.541  0.4236 -0.1902 -0.9032
  144OSM    H5F15889   2.953   5.218   6.598  1.3758 -2.0950 -0.0723
  144OSM    H5G15890   2.803   5.221   6.488 -1.2042 -0.9903  0.3689
  144OSM    C6F15891   2.949   5.069   6.435  0.1201 -0.2868 -0.7635
  144OSM    H6F15892   2.865   5.042   6.368 -0.6482 -1.9691  0.8161
  144OSM    H6G15893   3.001   4.978   6.471  1.3514  1.0306  0.9520
  144OSM    C7F15894   3.049   5.149   6.349  0.2399  0.4353 -0.3912
  144OSM    H7F15895   3.133   5.180   6.414 -0.2472  2.0705 -0.4998
  144OSM    H7G15896   3.000   5.241   6.311 -1.7930 -0.7439 -0.8039
  144OSM    C8F15897   3.106   5.075   6.232 -0.3671 -0.2545 -0.2935
  144OSM    H8F15898   3.145   4.974   6.258 -0.2409 -0.7381 -2.1694
  144OSM    H8G15899   3.194   5.126   6.188  1.1943 -0.8415  1.9895
  144OSM    C9F15900   3.002   5.050   6.132  0.6355 -0.6019  1.2463
  144OSM    H9F15901   2.915   4.987   6.155  0.0372 -0.1776  0.2271
  144OSM   C10F15902   3.002   5.099   6.006  0.1695 -0.0476 -0.0796
  144OSM   H10F15903   2.926   5.057   5.939  0.6214 -4.6663  1.9664
  144OSM   C11F15904   3.115   5.175   5.938  0.4916  0.4090  0.4965
  144OSM   H11F15905   3.212   5.178   5.993  1.5383 -0.7825 -1.1820
  144OSM   H11G15906   3.094   5.283   5.923  0.1303 -0.1354 -4.6795
  144OSM   C12F15907   3.139   5.122   5.790  0.0009 -0.1104  0.2347
  144OSM   H12F15908   3.045   5.133   5.732 -0.1641  0.0777  0.5329
  144OSM   H12G15909   3.169   5.016   5.788 -1.3868 -0.5097 -0.8028
  144OSM   C13F15910   3.242   5.210   5.721 -0.9486 -0.6402 -0.3994
  144OSM   H13F15911   3.341   5.209   5.771 -1.5293 -0.2212  0.7766
  144OSM   H13G15912   3.214   5.317   5.735  0.5616 -0.5460  2.8268
  144OSM   C14F15913   3.273   5.168   5.578 -0.2134  0.0351 -0.5415
  144OSM   H14F15914   3.179   5.181   5.520 -0.6735  2.5417  0.6146
  144OSM   H14G15915   3.314   5.065   5.583  1.0158  0.5311 -0.0176
  144OSM   C15F15916   3.380   5.251   5.510 -0.6545 -0.4645 -0.1740
  144OSM   H15F15917   3.458   5.246   5.589 -1.7135  1.4194  1.0462
  144OSM   H15G15918   3.355   5.359   5.507  1.2574  0.0248 -2.8812
  144OSM   C16F15919   3.441   5.198   5.377  0.4394  0.3181 -0.4458
  144OSM   H16F15920   3.362   5.177   5.302  0.3176 -2.0056  0.2731
  144OSM   H16G15921   3.489   5.104   5.410 -1.8665 -1.2983 -1.4586
  144OSM   C17F15922   3.548   5.297   5.316 -0.5406  0.1339 -0.7575
  144OSM   H17F15923   3.622   5.330   5.392 -1.3495 -0.4766  0.3014
  144OSM   H17G15924   3.488   5.387   5.289 -0.1329  0.6972  0.1724
  144OSM   C18F15925   3.631   5.247   5.200 -0.4462 -0.3858  0.6806
  144OSM   H18F15926   3.698   5.166   5.237 -0.1849 -0.5804 -0.2116
  144OSM   H18G15927   3.697   5.324   5.155  0.0408  1.0427  3.6189
  144OSM   H18H15928   3.567   5.206   5.119  0.3065  4.0393 -2.5302
  145OSM      N15929   5.057   1.497   7.696 -0.0160 -0.0806  0.0602
  145OSM    C1515930   5.136   1.558   7.587 -0.2742  0.3026  0.0179
  145OSM   H15A15931   5.180   1.654   7.610 -1.3870  0.3456  2.3504
  145OSM   H15B15932   5.084   1.571   7.494  1.1890  2.1909 -0.5758
  145OSM   H15C15933   5.216   1.487   7.572 -1.7147 -1.5243  0.4829
  145OSM    C1415934   5.137   1.518   7.823  0.2100  0.0692 -0.3810
  145OSM   H14A15935   5.236   1.483   7.799  0.0134  0.5027 -1.9061
  145OSM   H14B15936   5.092   1.470   7.909  1.6235 -1.4751 -0.4483
  145OSM   H14C15937   5.133   1.621   7.853 -2.4536  0.0889 -0.5194
  145OSM    C1315938   4.923   1.566   7.705 -0.0083 -0.0020  0.0271
  145OSM   H13A15939   4.871   1.552   7.612  1.3734  1.9531 -1.1276
  145OSM   H13B15940   4.930   1.673   7.720  0.0517  0.3231 -2.0829
  145OSM   H13C15941   4.865   1.526   7.787  0.6073 -1.5820 -0.2686
  145OSM    C1215942   5.036   1.347   7.671  0.1675 -0.1846  0.3732
  145OSM   H12A15943   4.989   1.312   7.762  2.6879 -3.3029  0.6403
  145OSM   H12B15944   5.132   1.297   7.672  0.3451  0.1557  1.0764
  145OSM    C1115945   4.959   1.308   7.541  0.0673 -0.4614 -0.1109
  145OSM   H11A15946   4.952   1.198   7.532 -3.3258 -0.2083 -2.5412
  145OSM   H11B15947   5.010   1.353   7.453 -0.6867  1.2206  0.2603
  145OSM      P15948   4.712   1.299   7.618 -0.2703  0.5560  0.3746
  145OSM    O1315949   4.759   1.238   7.745 -0.2279 -0.1643 -0.1163
  145OSM    O1415950   4.601   1.397   7.625 -0.1308  0.2610 -0.3021
  145OSM    O1115951   4.667   1.176   7.526 -0.3477  0.2927 -0.7148
  145OSM    O1215952   4.823   1.362   7.528 -0.9893  0.0418 -0.0878
  145OSM    C1S15953   4.619   1.198   7.395  1.0622 -0.0161 -0.4061
  145OSM    H1S15954   4.598   1.303   7.369  0.5583 -0.5154 -2.1350
  145OSM    H1T15955   4.522   1.145   7.384  1.0404 -0.6165  1.9573
  145OSM     NF15956   4.671   1.189   7.145  0.3748  0.1306  0.6496
  145OSM    HNF15957   4.657   1.122   7.072  1.0084 -0.0360  0.6697
  145OSM    C2S15958   4.721   1.156   7.275  0.5643  0.0400  0.1652
  145OSM    H2S15959   4.811   1.219   7.295 -1.4732  3.1582  0.1257
  145OSM    C3S15960   4.769   1.009   7.304 -0.8706 -0.2396  0.4220
  145OSM    H3S15961   4.677   0.947   7.294 -0.2806 -1.2544  1.1471
  145OSM     O315962   4.820   0.987   7.437 -0.5364  0.1654 -0.0043
  145OSM    HO315963   4.793   1.066   7.485  1.8670 -0.0439  1.9070
  145OSM    C4S15964   4.877   0.971   7.205  0.4334  0.7714  0.2989
  145OSM    H4S15965   4.968   1.033   7.211 -0.5316  2.5034 -1.5748
  145OSM    C5S15966   4.855   0.877   7.105 -0.6022  0.4280  0.5654
  145OSM    H5S15967   4.756   0.830   7.096 -2.2138  3.3106  1.9913
  145OSM    C6S15968   4.955   0.823   7.004 -0.3608 -0.4560  0.1438
  145OSM    H6S15969   4.943   0.712   7.000 -0.6204 -0.4058 -2.9377
  145OSM    H6T15970   5.061   0.839   7.033 -0.2265 -2.2755  0.8404
  145OSM    C7S15971   4.915   0.878   6.868 -0.1828 -0.2443 -0.3226
  145OSM    H7S15972   4.806   0.862   6.857  0.0171 -2.6038  0.6090
  145OSM    H7T15973   4.983   0.816   6.806 -0.0943 -0.6390  0.1685
  145OSM    C8S15974   4.933   1.032   6.846 -0.9421  0.2781 -0.3243
  145OSM    H8S15975   5.033   1.068   6.878 -0.1240  1.1356 -3.4701
  145OSM    H8T15976   4.852   1.087   6.899 -0.0987 -1.0787  2.5376
  145OSM    C9S15977   4.914   1.060   6.697  0.4692 -0.5920 -0.2057
  145OSM    H9S15978   4.895   1.168   6.684 -2.4227 -1.1609 -1.5335
  145OSM    H9T15979   4.826   1.008   6.653 -0.2226  1.2644 -1.1185
  145OSM   C10S15980   5.031   1.035   6.601 -0.4478 -0.1790  0.3624
  145OSM   H10S15981   5.049   0.926   6.605  0.8622  0.0095 -0.1393
  145OSM   H10T15982   5.117   1.099   6.631 -2.0077  1.2338  2.0657
  145OSM   C11S15983   4.998   1.086   6.462  0.4307  0.4648 -0.2186
  145OSM   H11S15984   4.987   1.196   6.464  0.4113  0.4585 -0.0062
  145OSM   H11T15985   4.907   1.036   6.423  0.2920  0.1947  0.4428
  145OSM   C12S15986   5.117   1.038   6.364  0.1167 -0.1971 -0.2969
  145OSM   H12S15987   5.112   0.928   6.376 -2.1056 -0.0088  0.9639
  145OSM   H12T15988   5.217   1.071   6.401  0.2267 -0.3186 -0.4834
  145OSM   C13S15989   5.105   1.094   6.220 -0.0466 -0.1404  0.0003
  145OSM   H13S15990   5.000   1.084   6.187 -0.3260 -2.6017  1.3836
  145OSM   H13T15991   5.174   1.045   6.148  1.1470  2.4261 -0.6926
  145OSM   C14S15992   5.158   1.244   6.214 -0.2464 -0.3134 -0.5975
  145OSM   H14S15993   5.161   1.281   6.318 -1.4847  0.1297 -0.7001
  145OSM   H14T15994   5.083   1.308   6.162 -0.0659  1.1218  0.8495
  145OSM   C15S15995   5.295   1.255   6.146  0.9472 -0.1546 -0.6668
  145OSM   H15S15996   5.301   1.211   6.044  1.1395 -2.3369  0.2424
  145OSM   H15T15997   5.359   1.190   6.208  1.4116  0.6327 -0.3049
  145OSM   C16S15998   5.343   1.399   6.133  0.9202 -0.4539 -0.1742
  145OSM   H16S15999   5.367   1.435   6.235 -0.2870 -0.0368 -0.0187
  145OSM   H16T16000   5.247   1.446   6.101 -0.4260 -2.5243  0.5403
  145OSM   C17S16001   5.456   1.429   6.032  0.4834  0.1224 -0.3470
  145OSM   H17S16002   5.480   1.537   6.043 -0.5851  0.3068  0.3353
  145OSM   H17T16003   5.414   1.413   5.931  2.4804 -3.9174 -0.7120
  145OSM   C18S16004   5.581   1.349   6.047 -0.3403 -0.4688 -0.2065
  145OSM   H18S16005   5.647   1.347   5.958 -0.8603  2.9098 -0.7710
  145OSM   H18T16006   5.565   1.247   6.089  0.8952 -0.1354  1.1326
  145OSM   H18U16007   5.644   1.401   6.122  0.2321  0.2736 -1.1807
  145OSM    C1F16008   4.643   1.307   7.099  0.9971 -0.2964  0.1183
  145OSM     OF16009   4.664   1.407   7.174  0.1261 -0.2355  0.2309
  145OSM    C2F16010   4.594   1.313   6.955  0.2852  0.2011 -0.0081
  145OSM    H2F16011   4.490   1.344   6.932  0.5258  0.1796 -1.2144
  145OSM    H2G16012   4.615   1.216   6.905 -0.2018  0.0464  0.0905
  145OSM    C3F16013   4.683   1.415   6.875  0.2193  0.5267 -0.3400
  145OSM    H3F16014   4.789   1.393   6.898  0.1626 -0.4705 -1.0089
  145OSM    H3G16015   4.670   1.517   6.917  0.9114  0.1750  0.7760
  145OSM    C4F16016   4.658   1.392   6.724  0.1122 -0.3469 -0.0541
  145OSM    H4F16017   4.549   1.412   6.722  0.4529  2.0508  1.7220
  145OSM    H4G16018   4.672   1.289   6.684 -1.3210  0.0054 -1.5574
  145OSM    C5F16019   4.744   1.492   6.635  0.5150 -0.0278  0.0528
  145OSM    H5F16020   4.849   1.476   6.664  0.4047  0.2946  0.6361
  145OSM    H5G16021   4.697   1.589   6.663 -1.6676 -0.8530 -0.5095
  145OSM    C6F16022   4.733   1.472   6.481  0.8334  0.4650 -0.0641
  145OSM    H6F16023   4.635   1.512   6.446 -0.3756 -2.1830  0.0324
  145OSM    H6G16024   4.743   1.362   6.466 -0.4155  0.5234 -1.6803
  145OSM    C7F16025   4.847   1.547   6.404 -0.0384  0.2660 -0.2114
  145OSM    H7F16026   4.938   1.541   6.468  0.3420 -0.4007 -0.7964
  145OSM    H7G16027   4.828   1.655   6.391  0.7300  0.2357 -1.7751
  145OSM    C8F16028   4.883   1.482   6.265 -0.0813  0.7188  0.2918
  145OSM    H8F16029   4.923   1.381   6.288  1.8200  1.2900 -0.2497
  145OSM    H8G16030   4.971   1.533   6.220 -0.0208 -0.3309 -0.8262
  145OSM    C9F16031   4.768   1.479   6.167 -0.1597 -0.0614 -0.0660
  145OSM    H9F16032   4.668   1.463   6.210 -0.6458  0.5985 -0.9207
  145OSM   C10F16033   4.775   1.509   6.034 -0.6487 -0.2863  0.5514
  145OSM   H10F16034   4.677   1.509   5.984 -0.1848  3.5916 -0.6884
  145OSM   C11F16035   4.906   1.525   5.964  0.0869 -0.1958  0.4692
  145OSM   H11F16036   4.988   1.474   6.018  0.1187 -0.7705 -0.1060
  145OSM   H11G16037   4.929   1.632   5.943  1.3184 -0.7394 -1.2012
  145OSM   C12F16038   4.914   1.441   5.832  0.4918 -0.5057  0.3173
  145OSM   H12F16039   4.821   1.466   5.778 -1.1086  0.8335  3.4318
  145OSM   H12G16040   4.905   1.331   5.843  0.1526 -0.6667 -1.3971
  145OSM   C13F16041   5.042   1.466   5.747 -0.3056 -0.0705  1.3194
  145OSM   H13F16042   5.062   1.575   5.747  0.6114 -0.2027 -0.4843
  145OSM   H13G16043   5.021   1.450   5.639 -1.0787  2.7833  0.9859
  145OSM   C14F16044   5.170   1.403   5.787  0.3941  0.3387 -0.6368
  145OSM   H14F16045   5.190   1.431   5.893  0.1876  0.1521 -0.5462
  145OSM   H14G16046   5.257   1.453   5.741 -0.6479  2.1319 -0.7554
  145OSM   C15F16047   5.169   1.250   5.789  0.1351 -0.2965  0.2105
  145OSM   H15F16048   5.083   1.217   5.852  0.2667  2.0810  1.7670
  145OSM   H15G16049   5.268   1.222   5.831  0.0224 -0.1413  0.5803
  145OSM   C16F16050   5.148   1.186   5.654 -0.1737  0.4921  0.4446
  145OSM   H16F16051   5.225   1.230   5.588 -0.3137 -0.0285 -0.0726
  145OSM   H16G16052   5.050   1.200   5.602 -0.9730 -1.2748  1.3884
  145OSM   C17F16053   5.162   1.035   5.665 -0.1637  0.0225  0.3156
  145OSM   H17F16054   5.075   0.987   5.717  1.7681 -3.0153  1.0334
  145OSM   H17G16055   5.248   1.022   5.734 -0.0517  1.3434  0.4435
  145OSM   C18F16056   5.191   0.952   5.543 -0.3823 -0.2084 -0.0633
  145OSM   H18F16057   5.265   1.010   5.484 -0.2605 -0.2221  0.0737
  145OSM   H18G16058   5.100   0.926   5.485  1.2998 -1.1615 -2.4422
  145OSM   H18H16059   5.229   0.853   5.577  0.1324  0.5722  1.7656
  146OSM      N16060   0.973   0.687   8.272 -0.4293 -0.5164 -0.9547
  146OSM    C1516061   0.846   0.706   8.190 -0.4970 -0.3615 -1.0804
  146OSM   H15A16062   0.844   0.810   8.161 -0.4579 -0.1058 -0.1989
  146OSM   H15B16063   0.766   0.680   8.258 -0.4488  2.0493  0.0054
  146OSM   H15C16064   0.858   0.640   8.105  2.3609 -0.8499 -0.4037
  146OSM    C1416065   0.995   0.786   8.382 -0.4834  0.2798 -0.6912
  146OSM   H14A16066   0.907   0.793   8.445  0.1553 -0.9517  0.3748
  146OSM   H14B16067   1.025   0.884   8.350 -1.3698  0.8163  0.0633
  146OSM   H14C16068   1.062   0.753   8.459  0.1251 -2.1237 -2.1261
  146OSM    C1316069   0.962   0.549   8.338  0.2250  0.6013 -0.8789
  146OSM   H13A16070   0.873   0.539   8.398  0.7539 -1.5384 -0.4046
  146OSM   H13B16071   1.052   0.526   8.393  1.9076  0.8146 -3.3431
  146OSM   H13C16072   0.945   0.468   8.269 -0.1122  1.2498 -1.5735
  146OSM    C1216073   1.090   0.688   8.181 -0.4452 -0.2645  0.4509
  146OSM   H12A16074   1.088   0.597   8.123 -1.2015  0.1106 -0.1347
  146OSM   H12B16075   1.179   0.676   8.240 -1.7171 -0.2222  2.4709
  146OSM    C1116076   1.098   0.808   8.084 -0.0657 -0.7311  0.1256
  146OSM   H11A16077   1.086   0.906   8.136  1.6416 -0.4396  0.0141
  146OSM   H11B16078   1.017   0.796   8.009 -0.9402  1.6718  0.5930
  146OSM      P16079   1.352   0.857   8.090  0.4011  0.0175  0.0604
  146OSM    O1316080   1.329   0.888   8.235 -0.6151 -0.1482 -0.5997
  146OSM    O1416081   1.462   0.767   8.063  0.4359  0.2524  0.5212
  146OSM    O1116082   1.371   0.987   8.014 -0.9487 -0.2712  0.7705
  146OSM    O1216083   1.224   0.800   8.025  0.0075  0.6332  0.2481
  146OSM    C1S16084   1.363   0.992   7.870  0.1205  0.4321  0.3260
  146OSM    H1S16085   1.355   0.892   7.821 -4.0283  0.7843 -0.1202
  146OSM    H1T16086   1.448   1.044   7.821  0.1505  1.5642  1.5441
  146OSM     NF16087   1.241   1.075   7.683 -0.6093  1.1690 -0.0206
  146OSM    HNF16088   1.281   1.163   7.659  1.2281  0.7732  1.4417
  146OSM    C2S16089   1.237   1.061   7.826 -0.2267 -0.1910 -0.8194
  146OSM    H2S16090   1.143   1.006   7.845  0.3418 -1.0455 -0.3778
  146OSM    C3S16091   1.218   1.201   7.898 -0.8732  0.2305  0.0965
  146OSM    H3S16092   1.302   1.266   7.863  0.6011 -0.8998  1.4236
  146OSM     O316093   1.216   1.194   8.045  0.1058 -0.0461 -0.2572
  146OSM    HO316094   1.260   1.109   8.053  0.1835 -0.3555 -2.8485
  146OSM    C4S16095   1.090   1.258   7.836  0.0236 -0.3118 -0.8930
  146OSM    H4S16096   0.998   1.200   7.852 -1.8312  2.6989  0.4237
  146OSM    C5S16097   1.070   1.379   7.783 -0.3139  1.0819  0.3263
  146OSM    H5S16098   1.151   1.454   7.779  1.4389 -0.7417 -0.2769
  146OSM    C6S16099   0.933   1.423   7.736 -0.8071  0.5307  0.5272
  146OSM    H6S16100   0.893   1.512   7.788  1.5624  1.7062  0.4903
  146OSM    H6T16101   0.861   1.340   7.755 -0.3959 -0.2403 -1.0776
  146OSM    C7S16102   0.914   1.464   7.590 -0.4407 -0.4363  0.1880
  146OSM    H7S16103   0.926   1.375   7.525  2.5886 -0.5572  0.7942
  146OSM    H7T16104   0.995   1.536   7.567  0.4103 -0.5869  2.4523
  146OSM    C8S16105   0.770   1.522   7.567  0.2812 -0.2057  0.1988
  146OSM    H8S16106   0.758   1.597   7.648 -0.9095 -3.5689  3.4086
  146OSM    H8T16107   0.696   1.445   7.597 -0.1312  0.2201  0.2822
  146OSM    C9S16108   0.746   1.577   7.424 -0.4162 -0.0670 -0.7674
  146OSM    H9S16109   0.781   1.682   7.430 -2.9301  0.7503  0.8863
  146OSM    H9T16110   0.635   1.572   7.413 -0.3063 -1.6263 -1.4475
  146OSM   C10S16111   0.815   1.505   7.302  0.0534 -0.8677  0.3181
  146OSM   H10S16112   0.799   1.397   7.318 -1.6925 -0.9107 -1.2939
  146OSM   H10T16113   0.923   1.530   7.307 -0.3995  1.4213 -0.0600
  146OSM   C11S16114   0.768   1.564   7.169 -0.0345 -0.0566  0.4675
  146OSM   H11S16115   0.785   1.674   7.168  2.8463 -0.4086  0.7640
  146OSM   H11T16116   0.662   1.539   7.149  0.2844 -1.5000  0.4534
  146OSM   C12S16117   0.836   1.489   7.045 -0.4046 -0.2463  0.0126
  146OSM   H12S16118   0.822   1.380   7.062  0.0881 -0.3667 -0.3304
  146OSM   H12T16119   0.945   1.508   7.054 -0.4438  0.0998 -0.2551
  146OSM   C13S16120   0.775   1.529   6.907  0.0340  0.0739  0.0819
  146OSM   H13S16121   0.848   1.494   6.831  1.7644 -1.0118  2.1499
  146OSM   H13T16122   0.760   1.639   6.910 -1.9996 -0.0987 -1.5199
  146OSM   C14S16123   0.645   1.451   6.884 -0.0625  0.2074 -0.1720
  146OSM   H14S16124   0.573   1.479   6.964  1.2000 -0.0764  1.0864
  146OSM   H14T16125   0.669   1.346   6.908  1.6447  0.1404 -1.8921
  146OSM   C15S16126   0.597   1.454   6.741  0.9894 -0.9166  0.2023
  146OSM   H15S16127   0.644   1.377   6.676 -0.2127  0.1999 -2.1109
  146OSM   H15T16128   0.619   1.551   6.693  1.7325 -1.5895 -0.8539
  146OSM   C16S16129   0.443   1.427   6.729 -0.2242  0.1064  0.0377
  146OSM   H16S16130   0.402   1.511   6.789  0.5730  0.4292  0.1498
  146OSM   H16T16131   0.421   1.335   6.786  0.6167 -0.6581 -0.8353
  146OSM   C17S16132   0.392   1.418   6.584  0.1996  0.0789  0.0073
  146OSM   H17S16133   0.430   1.513   6.540 -1.1181  0.7762  0.3194
  146OSM   H17T16134   0.282   1.426   6.593  0.3983  1.6058  1.8382
  146OSM   C18S16135   0.436   1.301   6.505 -0.1727 -0.0563  0.4242
  146OSM   H18S16136   0.415   1.320   6.397  0.6829  1.1886  0.4576
  146OSM   H18T16137   0.380   1.210   6.536  0.9279 -0.7188  0.4836
  146OSM   H18U16138   0.543   1.278   6.518 -0.4885 -1.6427  0.4208
  146OSM    C1F16139   1.198   0.979   7.597 -0.2032 -0.4042  0.5925
  146OSM     OF16140   1.181   0.868   7.638 -0.2984  0.1449  0.3878
  146OSM    C2F16141   1.178   1.006   7.456 -0.3538 -0.2694  0.3022
  146OSM    H2F16142   1.089   0.954   7.416  0.7219 -2.8508  1.0748
  146OSM    H2G16143   1.262   0.963   7.396 -1.1027  0.0698 -1.0355
  146OSM    C3F16144   1.147   1.156   7.413 -0.4718 -0.0269 -0.3421
  146OSM    H3F16145   1.222   1.224   7.459 -1.4124  0.6313  0.2706
  146OSM    H3G16146   1.049   1.191   7.453 -0.6154 -1.4180  0.5959
  146OSM    C4F16147   1.154   1.193   7.263  0.3815 -0.9481 -0.1283
  146OSM    H4F16148   1.256   1.169   7.226  0.3816 -0.6768 -0.3101
  146OSM    H4G16149   1.140   1.300   7.236 -1.3725 -0.2157  3.1835
  146OSM    C5F16150   1.055   1.130   7.164  0.0924  0.2388 -0.1636
  146OSM    H5F16151   0.956   1.180   7.169  0.0977  0.2442 -0.1158
  146OSM    H5G16152   1.044   1.022   7.186  0.7215  0.4584  1.3212
  146OSM    C6F16153   1.107   1.144   7.019 -0.0266 -0.0815  0.0530
  146OSM    H6F16154   1.195   1.076   7.016  0.4221  0.4906 -0.1423
  146OSM    H6G16155   1.148   1.247   7.006  1.2625 -0.4959  0.6405
  146OSM    C7F16156   1.005   1.101   6.913 -0.8084 -0.2844  0.6163
  146OSM    H7F16157   0.918   1.170   6.910 -0.3762  0.3359  1.6967
  146OSM    H7G16158   0.963   1.002   6.939 -2.0627 -0.1325 -0.6710
  146OSM    C8F16159   1.070   1.089   6.779  0.6919 -0.1718 -0.2918
  146OSM    H8F16160   0.992   1.034   6.722 -0.2071  0.4164  0.3474
  146OSM    H8G16161   1.169   1.039   6.793 -0.1331 -1.2282  2.2595
  146OSM    C9F16162   1.094   1.221   6.706 -0.0781  0.5872  0.3502
  146OSM    H9F16163   1.139   1.296   6.772  2.2264 -1.1317  0.8746
  146OSM   C10F16164   1.062   1.258   6.579 -0.3026 -0.2163 -0.8511
  146OSM   H10F16165   1.086   1.361   6.548 -1.1110  0.0641 -0.5651
  146OSM   C11F16166   1.006   1.173   6.463 -0.4176  0.2072  0.8279
  146OSM   H11F16167   1.027   1.066   6.484  1.3108  0.4143  0.3418
  146OSM   H11G16168   1.056   1.206   6.369 -0.0270 -2.7654 -0.0893
  146OSM   C12F16169   0.854   1.188   6.450  0.6931 -0.1330  0.1091
  146OSM   H12F16170   0.809   1.192   6.552  2.4288  0.2038  0.9227
  146OSM   H12G16171   0.812   1.095   6.408  1.0998  0.3657 -1.4645
  146OSM   C13F16172   0.806   1.307   6.364 -0.2336  0.2384 -0.6352
  146OSM   H13F16173   0.836   1.403   6.410 -1.3694 -0.9203  2.8113
  146OSM   H13G16174   0.695   1.311   6.368 -0.2199  0.9063 -0.8486
  146OSM   C14F16175   0.852   1.306   6.217  0.1264 -0.5621 -0.5147
  146OSM   H14F16176   0.957   1.339   6.203 -1.3223  4.1735 -2.4341
  146OSM   H14G16177   0.830   1.208   6.170 -1.9093 -1.3508  1.8742
  146OSM   C15F16178   0.758   1.407   6.141  0.3397  0.2331 -0.7332
  146OSM   H15F16179   0.783   1.506   6.185  1.2045 -0.1523 -0.3269
  146OSM   H15G16180   0.655   1.369   6.153  0.7067 -0.9188 -1.1150
  146OSM   C16F16181   0.771   1.423   5.988 -0.3918 -0.7874 -0.2976
  146OSM   H16F16182   0.731   1.335   5.933  1.4347 -1.5452 -0.5152
  146OSM   H16G16183   0.878   1.432   5.959 -0.2184 -2.3432 -0.2123
  146OSM   C17F16184   0.708   1.562   5.944 -0.6976  0.3980  0.4630
  146OSM   H17F16185   0.753   1.650   5.995 -0.3139 -0.1789  1.1354
  146OSM   H17G16186   0.602   1.553   5.973 -0.7342  1.2122  0.6084
  146OSM   C18F16187   0.711   1.584   5.794 -0.9945  0.1122 -0.0720
  146OSM   H18F16188   0.672   1.504   5.728 -0.0433  0.2137 -0.7805
  146OSM   H18G16189   0.817   1.601   5.766 -1.2371 -2.3719 -2.9831
  146OSM   H18H16190   0.651   1.672   5.765  0.0753  0.9404  0.1632
  147OSM      N16191   5.108   5.484   2.667 -0.4492  0.2334  0.2535
  147OSM    C1516192   5.252   5.493   2.622  0.4277  0.5519 -0.4529
  147OSM   H15A16193   5.295   5.585   2.659  0.8424  0.5102 -0.8312
  147OSM   H15B16194   5.268   5.497   2.516 -0.2930  2.7805 -0.5271
  147OSM   H15C16195   5.305   5.416   2.676  0.7529  1.0959  0.0108
  147OSM    C1416196   5.026   5.589   2.608  0.2989  0.9591  0.2695
  147OSM   H14A16197   5.017   5.574   2.501  0.7754 -0.0252  0.3512
  147OSM   H14B16198   5.057   5.691   2.625 -0.0467  0.9106  1.2391
  147OSM   H14C16199   4.929   5.571   2.652  0.4834 -2.7540 -0.5550
  147OSM    C1316200   5.047   5.350   2.619  0.0586  0.4799 -0.0443
  147OSM   H13A16201   5.110   5.267   2.648  0.8969  1.4323  0.9257
  147OSM   H13B16202   5.033   5.366   2.513  0.3817 -2.1981 -0.5750
  147OSM   H13C16203   4.947   5.343   2.660 -0.5978  1.6734 -1.3672
  147OSM    C1216204   5.108   5.485   2.820 -0.0523  0.0332 -0.1490
  147OSM   H12A16205   5.007   5.484   2.859 -0.7131 -0.4807 -1.8008
  147OSM   H12B16206   5.129   5.584   2.860  1.6307  0.9417 -2.9762
  147OSM    C1116207   5.191   5.384   2.890  0.8499  0.3718 -0.1477
  147OSM   H11A16208   5.153   5.285   2.857 -2.1482  0.3388  2.8817
  147OSM   H11B16209   5.151   5.369   2.992 -2.9611 -1.8440 -1.7154
  147OSM      P16210   5.403   5.498   2.976 -0.0684 -0.6463  0.0582
  147OSM    O1316211   5.545   5.495   2.940 -0.4927 -0.1813 -0.6790
  147OSM    O1416212   5.326   5.623   2.978  0.4464 -0.2121 -0.3755
  147OSM    O1116213   5.394   5.441   3.120 -0.0356 -0.2212  0.2379
  147OSM    O1216214   5.335   5.394   2.881 -0.1807  1.2289  0.0371
  147OSM    C1S16215   5.387   5.303   3.151 -0.0223  0.2610 -0.3248
  147OSM    H1S16216   5.480   5.247   3.128 -1.6476 -2.6173 -0.3463
  147OSM    H1T16217   5.313   5.242   3.096 -1.0785 -0.5580  1.8823
  147OSM     NF16218   5.380   5.138   3.332  0.3848 -0.3983 -0.0712
  147OSM    HNF16219   5.305   5.073   3.326 -0.3563  0.3493  0.7455
  147OSM    C2S16220   5.352   5.275   3.296 -0.7297  0.3184 -0.1500
  147OSM    H2S16221   5.408   5.338   3.368 -1.1001 -0.1030  0.5117
  147OSM    C3S16222   5.203   5.315   3.312 -0.1767 -0.3984 -0.1994
  147OSM    H3S16223   5.150   5.241   3.248  3.1463 -2.4165 -0.9248
  147OSM     O316224   5.162   5.436   3.250  0.9695  0.6270 -1.2937
  147OSM    HO316225   5.240   5.465   3.203  1.8029  1.4060  0.4853
  147OSM    C4S16226   5.147   5.310   3.454 -0.0373  0.0554  0.2064
  147OSM    H4S16227   5.216   5.345   3.532 -1.0944 -0.7151  1.5123
  147OSM    C5S16228   5.021   5.285   3.477  0.4504  0.6251 -0.4803
  147OSM    H5S16229   4.958   5.261   3.389 -2.0126 -1.3495  1.6438
  147OSM    C6S16230   4.951   5.293   3.608 -0.4008  1.4835 -0.0742
  147OSM    H6S16231   4.927   5.190   3.643 -0.5919  1.9986  1.3640
  147OSM    H6T16232   4.851   5.341   3.593 -1.3941 -0.6596 -0.7789
  147OSM    C7S16233   5.029   5.347   3.731 -0.3326  0.2624  0.6142
  147OSM    H7S16234   5.045   5.454   3.707 -1.1265  0.5852  1.4545
  147OSM    H7T16235   5.125   5.296   3.756 -0.7317 -0.0366  1.5640
  147OSM    C8S16236   4.943   5.334   3.850 -0.1121 -0.1674  0.4742
  147OSM    H8S16237   4.905   5.230   3.847 -0.0904 -0.1801 -2.4561
  147OSM    H8T16238   4.860   5.407   3.837 -0.8850 -0.9386  1.0096
  147OSM    C9S16239   5.018   5.358   3.986 -0.1413 -0.3039  0.1188
  147OSM    H9S16240   5.068   5.457   3.988 -0.2076 -0.2495 -0.6929
  147OSM    H9T16241   5.093   5.278   4.003  2.0726  1.1485 -2.1233
  147OSM   C10S16242   4.910   5.345   4.101  0.2149 -0.2261 -0.6117
  147OSM   H10S16243   4.878   5.239   4.108 -0.3635  0.0036  0.7355
  147OSM   H10T16244   4.822   5.409   4.076 -0.4377 -0.4220  1.0252
  147OSM   C11S16245   4.957   5.377   4.242  0.7258 -0.3525 -0.2907
  147OSM   H11S16246   4.983   5.483   4.262 -0.1002 -0.6340  2.6527
  147OSM   H11T16247   5.050   5.318   4.258  1.1399 -0.2440 -2.0368
  147OSM   C12S16248   4.860   5.328   4.356  0.1623 -0.3012  0.5075
  147OSM   H12S16249   4.872   5.218   4.356 -0.2772 -0.3565  1.3605
  147OSM   H12T16250   4.755   5.351   4.325  0.2182 -2.5615 -1.6678
  147OSM   C13S16251   4.902   5.381   4.495 -0.0385 -1.0310 -0.2180
  147OSM   H13S16252   4.884   5.490   4.498  0.7791 -0.9009  0.3598
  147OSM   H13T16253   5.012   5.365   4.502  0.2627  1.3109  1.4122
  147OSM   C14S16254   4.820   5.327   4.608 -0.3245  0.2806 -0.3728
  147OSM   H14S16255   4.848   5.219   4.612 -1.3266 -0.0343 -1.3194
  147OSM   H14T16256   4.712   5.335   4.585 -0.7883 -2.5299  0.3549
  147OSM   C15S16257   4.843   5.405   4.745  0.3972  0.2129  0.1790
  147OSM   H15S16258   4.825   5.514   4.731  1.3008  0.3200 -0.2352
  147OSM   H15T16259   4.948   5.399   4.781  0.9440  0.8542 -1.2362
  147OSM   C16S16260   4.759   5.355   4.862 -0.1502  0.2759 -0.0154
  147OSM   H16S16261   4.780   5.248   4.886 -1.1770 -0.3250 -1.6316
  147OSM   H16T16262   4.653   5.360   4.829 -0.1430 -1.4254 -0.4279
  147OSM   C17S16263   4.769   5.435   4.985  0.2084  0.4892 -0.4351
  147OSM   H17S16264   4.780   5.543   4.958 -1.0994  1.8062  3.6474
  147OSM   H17T16265   4.864   5.408   5.036  0.7589 -0.4761 -1.8984
  147OSM   C18S16266   4.647   5.418   5.083  0.6474 -0.3202  0.6878
  147OSM   H18S16267   4.562   5.479   5.046 -1.4833 -2.8159  1.1651
  147OSM   H18T16268   4.677   5.449   5.186 -0.2825 -0.0649  0.8933
  147OSM   H18U16269   4.600   5.318   5.084  0.1586 -0.1000  0.3327
  147OSM    C1F16270   5.502   5.093   3.354 -0.7111  0.4302  0.6497
  147OSM     OF16271   5.604   5.162   3.363  0.1594 -0.5434  0.2562
  147OSM    C2F16272   5.517   4.938   3.353  0.3911  0.3056  1.1029
  147OSM    H2F16273   5.531   4.896   3.251 -0.5015 -1.5352  1.7090
  147OSM    H2G16274   5.418   4.898   3.384  0.7811 -0.2580  1.6368
  147OSM    C3F16275   5.620   4.887   3.455  0.5850  0.2663 -0.0244
  147OSM    H3F16276   5.591   4.921   3.556  3.0118 -1.6379  1.4220
  147OSM    H3G16277   5.716   4.932   3.422 -0.5089  3.6007  0.9868
  147OSM    C4F16278   5.620   4.725   3.476  0.2146  0.1578  0.1748
  147OSM    H4F16279   5.669   4.684   3.385  0.7760  1.9229 -0.3720
  147OSM    H4G16280   5.512   4.700   3.479  0.0995  0.3916 -1.0955
  147OSM    C5F16281   5.692   4.673   3.604  0.4147  0.3867  0.4872
  147OSM    H5F16282   5.644   4.714   3.696 -0.7369 -0.4121  0.2633
  147OSM    H5G16283   5.798   4.702   3.589  0.6748 -1.2963 -1.4556
  147OSM    C6F16284   5.681   4.519   3.603  0.3226  0.6993 -0.7503
  147OSM    H6F16285   5.728   4.485   3.508 -1.0492 -1.3221 -0.7706
  147OSM    H6G16286   5.576   4.486   3.594  0.8082 -0.6817 -1.6825
  147OSM    C7F16287   5.725   4.439   3.731  0.2002 -0.3303 -0.2498
  147OSM    H7F16288   5.821   4.489   3.754 -1.0519  2.4489 -0.7172
  147OSM    H7G16289   5.733   4.330   3.711 -0.2383 -0.2909 -0.6589
  147OSM    C8F16290   5.614   4.465   3.842  0.3893  0.0269  0.4693
  147OSM    H8F16291   5.515   4.421   3.817 -0.3643  1.3940  0.9204
  147OSM    H8G16292   5.610   4.576   3.846 -0.8391  0.0842 -1.2250
  147OSM    C9F16293   5.663   4.407   3.973  0.4423  0.5468  0.2426
  147OSM    H9F16294   5.665   4.297   3.961 -1.5903  0.6269 -1.4212
  147OSM   C10F16295   5.695   4.465   4.086 -0.0636  0.8935 -0.3441
  147OSM   H10F16296   5.729   4.404   4.170 -3.7155 -0.3152  0.4412
  147OSM   C11F16297   5.701   4.608   4.109  0.6595 -0.2385 -0.0297
  147OSM   H11F16298   5.711   4.669   4.017 -1.5943 -1.9835 -1.5335
  147OSM   H11G16299   5.794   4.622   4.169  1.0547 -0.6400 -0.5397
  147OSM   C12F16300   5.592   4.664   4.213 -0.2188 -0.3135 -0.2639
  147OSM   H12F16301   5.498   4.651   4.154  0.1463  0.5454 -1.0792
  147OSM   H12G16302   5.616   4.773   4.209 -2.2549  0.1954 -0.0588
  147OSM   C13F16303   5.599   4.619   4.361  0.0828 -0.0572 -0.2999
  147OSM   H13F16304   5.702   4.648   4.389 -0.0164  1.0361 -1.0102
  147OSM   H13G16305   5.579   4.511   4.378 -2.8066  0.5413  0.7046
  147OSM   C14F16306   5.493   4.691   4.442  0.9100 -0.0503 -0.3016
  147OSM   H14F16307   5.387   4.669   4.415  0.6680  2.2484 -1.5150
  147OSM   H14G16308   5.493   4.802   4.435  0.0682  0.1785  2.1778
  147OSM   C15F16309   5.501   4.662   4.584 -0.8787 -0.0694 -0.2875
  147OSM   H15F16310   5.512   4.551   4.588 -0.3035  0.0204  0.9992
  147OSM   H15G16311   5.403   4.676   4.635 -0.4404  2.2364  0.0126
  147OSM   C16F16312   5.614   4.725   4.665  0.1999  0.3017 -0.0467
  147OSM   H16F16313   5.604   4.834   4.647  0.9997  0.3069 -0.4773
  147OSM   H16G16314   5.710   4.691   4.622  1.2444  1.4736  1.2773
  147OSM   C17F16315   5.609   4.694   4.812 -0.0208  0.6821  0.0668
  147OSM   H17F16316   5.612   4.583   4.820 -1.5555  0.6292  0.2648
  147OSM   H17G16317   5.512   4.733   4.852 -1.3266  0.5037 -2.6991
  147OSM   C18F16318   5.727   4.762   4.886 -0.5390  0.2429  0.4764
  147OSM   H18F16319   5.825   4.728   4.846 -0.5369  1.0076 -0.1775
  147OSM   H18G16320   5.719   4.744   4.995  0.0491  1.0062  0.6544
  147OSM   H18H16321   5.719   4.871   4.869 -0.8848  0.0867 -0.4495
  148OSM      N16322   5.526   5.027   2.685  0.1190 -0.5883 -0.5845
  148OSM    C1516323   5.482   4.893   2.635 -0.2662 -0.1166 -0.0564
  148OSM   H15A16324   5.501   4.891   2.529  1.7942  0.5953  0.2493
  148OSM   H15B16325   5.377   4.878   2.656 -0.6083  2.3668  0.3647
  148OSM   H15C16326   5.546   4.818   2.678  2.3106  1.6912 -0.4900
  148OSM    C1416327   5.669   5.043   2.641 -0.2919 -0.7716  0.0377
  148OSM   H14A16328   5.732   4.966   2.685 -0.0858 -0.2637  0.6481
  148OSM   H14B16329   5.698   5.141   2.675  1.2704 -1.3654  0.5347
  148OSM   H14C16330   5.673   5.019   2.536 -0.0644  0.0558 -0.1475
  148OSM    C1316331   5.450   5.144   2.632  0.3060  0.3208  0.5980
  148OSM   H13A16332   5.355   5.160   2.681 -0.6840  0.0581 -1.1564
  148OSM   H13B16333   5.421   5.116   2.532  2.0025 -0.6241  0.3401
  148OSM   H13C16334   5.507   5.236   2.635  0.6259  0.1354  0.2268
  148OSM    C1216335   5.525   5.016   2.838 -0.4178  0.9062  0.1453
  148OSM   H12A16336   5.585   5.101   2.867 -0.0345  1.6544 -2.5522
  148OSM   H12B16337   5.572   4.925   2.874 -0.8854  0.4770 -0.3047
  148OSM    C1116338   5.393   5.037   2.911  0.3547  0.3784 -0.4135
  148OSM   H11A16339   5.352   5.135   2.877 -0.1528 -0.2282 -1.6132
  148OSM   H11B16340   5.407   5.034   3.021 -1.3119  0.8105 -0.1490
  148OSM      P16341   5.167   4.951   2.820 -0.2134  0.1832  0.3242
  148OSM    O1316342   5.181   5.046   2.710  0.4447  0.4068  0.3372
  148OSM    O1416343   5.101   4.818   2.784 -0.3359 -0.1702 -0.1867
  148OSM    O1116344   5.081   5.008   2.939 -0.3635  0.2536 -0.2651
  148OSM    O1216345   5.310   4.927   2.877 -0.3357  0.0535  0.0634
  148OSM    C1S16346   5.079   4.936   3.064  0.1382  0.2860 -0.2819
  148OSM    H1S16347   5.160   4.978   3.127 -2.8792  2.7644  2.2795
  148OSM    H1T16348   5.084   4.825   3.054 -0.8276 -0.0018  1.8261
  148OSM     NF16349   4.964   4.887   3.278  0.3060 -0.1464 -0.3081
  148OSM    HNF16350   4.906   4.806   3.272  2.3223 -1.8419  1.6933
  148OSM    C2S16351   4.950   4.969   3.152  0.2746  0.4978 -0.0961
  148OSM    H2S16352   4.958   5.077   3.174 -2.6465  1.1722 -1.8958
  148OSM    C3S16353   4.813   4.956   3.084  0.3251  0.4265 -0.2303
  148OSM    H3S16354   4.804   4.848   3.062 -1.0321  0.5407 -0.3061
  148OSM     O316355   4.805   5.027   2.956  0.3869 -0.3803 -0.3974
  148OSM    HO316356   4.897   5.039   2.932  0.5882 -0.3564  0.3713
  148OSM    C4S16357   4.694   4.991   3.172  0.5594  0.1457  0.3792
  148OSM    H4S16358   4.646   4.903   3.216 -0.8077 -1.0937 -3.2578
  148OSM    C5S16359   4.642   5.110   3.189  0.1640 -0.0958  0.6422
  148OSM    H5S16360   4.690   5.193   3.135  0.7709 -1.2543 -0.6915
  148OSM    C6S16361   4.514   5.132   3.257  0.2877 -0.5894 -0.4704
  148OSM    H6S16362   4.471   5.035   3.291 -1.0758  0.2241  0.2080
  148OSM    H6T16363   4.439   5.182   3.191 -0.5381  0.8402  1.4659
  148OSM    C7S16364   4.543   5.221   3.378  0.2833  0.0883  0.2135
  148OSM    H7S16365   4.587   5.314   3.335 -0.7127  0.9386  0.9921
  148OSM    H7T16366   4.617   5.167   3.440  0.3328 -1.2911 -0.9860
  148OSM    C8S16367   4.407   5.235   3.446  0.2966 -0.0655 -0.5300
  148OSM    H8S16368   4.370   5.130   3.452  2.9186 -0.9760  1.4827
  148OSM    H8T16369   4.328   5.279   3.381  1.1115  0.9684 -0.8578
  148OSM    C9S16370   4.396   5.303   3.578  0.3705 -0.2148  0.2681
  148OSM    H9S16371   4.290   5.322   3.603  0.4408  2.5475 -1.1500
  148OSM    H9T16372   4.439   5.405   3.575 -0.5396  0.1514 -1.0207
  148OSM   C10S16373   4.462   5.221   3.684  0.0466 -0.4094 -0.7460
  148OSM   H10S16374   4.570   5.245   3.682 -0.4083  2.2851  1.5107
  148OSM   H10T16375   4.435   5.114   3.667 -0.4560 -0.3124 -0.5948
  148OSM   C11S16376   4.422   5.263   3.828 -0.4133  0.4456  0.2173
  148OSM   H11S16377   4.318   5.241   3.859  0.0556 -1.5949  0.5160
  148OSM   H11T16378   4.430   5.373   3.842 -0.3677  0.2079  2.2972
  148OSM   C12S16379   4.514   5.202   3.940 -0.2819 -0.2637 -0.5454
  148OSM   H12S16380   4.620   5.228   3.923 -1.0880  2.8414 -1.4869
  148OSM   H12T16381   4.513   5.090   3.938 -1.4200 -0.2777  0.0246
  148OSM   C13S16382   4.469   5.228   4.081  0.1979  0.2223  0.1473
  148OSM   H13S16383   4.360   5.212   4.095  0.2285 -2.7248 -2.1030
  148OSM   H13T16384   4.483   5.335   4.106  0.3519  0.0939  0.6301
  148OSM   C14S16385   4.540   5.151   4.193  0.2070  0.0329 -0.2943
  148OSM   H14S16386   4.648   5.174   4.196  0.1503  0.3832 -0.8219
  148OSM   H14T16387   4.512   5.044   4.186 -1.4630 -0.2005  5.1292
  148OSM   C15S16388   4.484   5.179   4.335  0.2799  0.3022 -0.0542
  148OSM   H15S16389   4.377   5.150   4.342  0.5501 -0.5219  1.0120
  148OSM   H15T16390   4.482   5.288   4.357 -0.7567  0.0622  1.1805
  148OSM   C16S16391   4.557   5.114   4.449 -0.7627 -0.3644 -1.5404
  148OSM   H16S16392   4.665   5.131   4.429 -0.8205  0.7980 -0.9541
  148OSM   H16T16393   4.535   5.006   4.433 -1.7154 -0.0324 -2.5896
  148OSM   C17S16394   4.492   5.148   4.579 -0.1619  0.0800  0.1075
  148OSM   H17S16395   4.384   5.122   4.573  0.5057 -2.7733 -0.9347
  148OSM   H17T16396   4.491   5.251   4.620  2.5847 -0.4839  1.8443
  148OSM   C18S16397   4.560   5.073   4.696 -0.8429 -0.3922  0.6885
  148OSM   H18S16398   4.632   5.140   4.748  0.6837 -1.5375  0.1090
  148OSM   H18T16399   4.612   4.980   4.668 -1.9392 -0.5112 -1.1064
  148OSM   H18U16400   4.490   5.038   4.776 -1.5225 -2.0674 -0.5945
  148OSM    C1F16401   5.065   4.895   3.359 -0.1043  0.2588 -0.0165
  148OSM     OF16402   5.156   4.983   3.343  0.2852  0.0105  0.9169
  148OSM    C2F16403   5.062   4.786   3.468 -0.5932  0.0068  0.0131
  148OSM    H2F16404   5.081   4.685   3.424 -2.4342 -0.0207 -0.7990
  148OSM    H2G16405   4.967   4.784   3.526  0.0650 -3.2362  1.1795
  148OSM    C3F16406   5.175   4.809   3.574 -0.1077 -0.1086  0.3364
  148OSM    H3F16407   5.184   4.918   3.594  0.5101  0.5263 -2.9416
  148OSM    H3G16408   5.272   4.789   3.524 -0.9972 -0.2607 -1.3726
  148OSM    C4F16409   5.150   4.727   3.702  0.6478  0.4647 -0.5926
  148OSM    H4F16410   5.116   4.625   3.673  2.3654  0.0743 -1.3850
  148OSM    H4G16411   5.071   4.768   3.769  0.8385 -1.0568  0.6309
  148OSM    C5F16412   5.281   4.707   3.776 -0.2009  0.0399  0.5461
  148OSM    H5F16413   5.340   4.799   3.796  1.2560 -0.1603 -2.2913
  148OSM    H5G16414   5.354   4.654   3.711  0.1737 -0.6750  1.5348
  148OSM    C6F16415   5.275   4.619   3.903 -0.4597 -0.8419  0.8068
  148OSM    H6F16416   5.381   4.611   3.937  0.1872  1.6174 -0.3392
  148OSM    H6G16417   5.235   4.520   3.874 -1.5888 -0.0343 -0.4818
  148OSM    C7F16418   5.191   4.681   4.018 -0.3745  0.1712  0.4650
  148OSM    H7F16419   5.109   4.739   3.972  0.9003  0.1559 -1.9503
  148OSM    H7G16420   5.244   4.759   4.077 -0.2309  0.0830  0.4545
  148OSM    C8F16421   5.128   4.572   4.100  0.8513  0.3470 -0.1003
  148OSM    H8F16422   5.065   4.517   4.027  0.2041  0.0162  0.6993
  148OSM    H8G16423   5.060   4.618   4.175 -0.7515  0.3156 -1.4927
  148OSM    C9F16424   5.224   4.476   4.156  0.5368 -0.0669 -1.1901
  148OSM    H9F16425   5.294   4.435   4.082  2.3282  0.6772  0.0342
  148OSM   C10F16426   5.224   4.440   4.290 -1.1618 -0.1720  0.4433
  148OSM   H10F16427   5.311   4.378   4.315 -1.3053 -0.6393 -0.1793
  148OSM   C11F16428   5.137   4.490   4.402 -0.2413 -0.3386  0.0807
  148OSM   H11F16429   5.088   4.587   4.380 -1.1444 -1.3028 -2.5405
  148OSM   H11G16430   5.197   4.505   4.494 -1.2396  0.3037  0.6492
  148OSM   C12F16431   5.027   4.381   4.417 -0.3255 -0.3866  0.9092
  148OSM   H12F16432   5.065   4.292   4.471  1.6584 -0.8243 -1.0726
  148OSM   H12G16433   5.012   4.332   4.319  3.4752  0.0950 -0.0345
  148OSM   C13F16434   4.906   4.435   4.483 -0.5347  0.4152  0.6206
  148OSM   H13F16435   4.841   4.354   4.521 -0.2141  0.3185  0.9749
  148OSM   H13G16436   4.847   4.491   4.408 -1.6011 -1.0606  0.3442
  148OSM   C14F16437   4.930   4.528   4.605  0.3179  0.3086 -0.2752
  148OSM   H14F16438   4.978   4.624   4.575  1.1389  0.0281  0.1184
  148OSM   H14G16439   4.994   4.471   4.675 -1.5775 -1.0757  0.4006
  148OSM   C15F16440   4.798   4.565   4.688  0.0397  0.4122 -0.0327
  148OSM   H15F16441   4.731   4.477   4.688  0.6948 -0.0975 -0.2166
  148OSM   H15G16442   4.740   4.636   4.625 -0.7229  0.8360  1.1121
  148OSM   C16F16443   4.832   4.635   4.815  0.1610  0.0294 -0.4043
  148OSM   H16F16444   4.927   4.593   4.855 -0.6007 -1.1650  0.2000
  148OSM   H16G16445   4.759   4.607   4.894  0.7035 -0.4603 -0.0597
  148OSM   C17F16446   4.844   4.792   4.820 -0.4392  0.1270  0.2463
  148OSM   H17F16447   4.842   4.833   4.924  1.3583  1.4434 -0.1876
  148OSM   H17G16448   4.750   4.825   4.770 -1.2540 -1.0303  0.9451
  148OSM   C18F16449   4.969   4.833   4.749  0.4143  0.5203 -0.5946
  148OSM   H18F16450   4.980   4.941   4.773  3.4623 -0.2176  2.0542
  148OSM   H18G16451   4.955   4.814   4.641 -0.9470  1.5801 -0.6340
  148OSM   H18H16452   5.065   4.788   4.782  2.6622  3.9077 -2.0517
  149OSM      N16453   4.831   3.805   2.727  0.6080  0.0688 -0.4727
  149OSM    C1516454   4.749   3.689   2.697 -0.2418 -0.1617 -0.2651
  149OSM   H15A16455   4.648   3.706   2.731 -0.6764  0.2550 -1.6601
  149OSM   H15B16456   4.799   3.601   2.734  0.8527  0.5394 -0.0601
  149OSM   H15C16457   4.735   3.684   2.590  0.2269  1.4520 -0.4249
  149OSM    C1416458   4.763   3.922   2.671  0.5488  0.2368 -0.0839
  149OSM   H14A16459   4.720   3.892   2.577  0.7869 -0.5109  0.0360
  149OSM   H14B16460   4.833   4.004   2.663 -1.2433  1.6751 -1.7968
  149OSM   H14C16461   4.674   3.960   2.720  0.4236  2.1138 -1.6783
  149OSM    C1316462   4.840   3.815   2.878 -0.2564  0.0472  0.0926
  149OSM   H13A16463   4.890   3.904   2.914  1.3610 -0.8875  0.2391
  149OSM   H13B16464   4.904   3.734   2.910  1.3023  0.3036 -2.1724
  149OSM   H13C16465   4.746   3.806   2.931 -1.1595  2.0941 -1.0420
  149OSM    C1216466   4.976   3.790   2.661  0.2175 -0.6082 -0.6663
  149OSM   H12A16467   5.037   3.877   2.679  1.3853 -1.4193 -0.5844
  149OSM   H12B16468   4.941   3.777   2.560 -1.7427 -0.6099 -0.0277
  149OSM    C1116469   5.063   3.668   2.699 -0.8617  0.0853 -0.8254
  149OSM   H11A16470   5.153   3.658   2.636  0.7393 -1.3104  1.5460
  149OSM   H11B16471   4.992   3.584   2.681  0.1947 -1.1943  0.7120
  149OSM      P16472   5.107   3.557   2.919 -0.1194 -0.2668 -0.0371
  149OSM    O1316473   4.968   3.515   2.934  0.0206 -0.3222  0.1759
  149OSM    O1416474   5.194   3.460   2.847 -0.2706 -0.0744  0.0889
  149OSM    O1116475   5.167   3.604   3.051  0.5418  0.2657 -0.1094
  149OSM    O1216476   5.107   3.692   2.835  0.1269  0.3232  0.1610
  149OSM    C1S16477   5.094   3.694   3.130  0.1484 -0.4756  0.0154
  149OSM    H1S16478   4.984   3.676   3.134  0.2361 -0.8466  1.3075
  149OSM    H1T16479   5.111   3.799   3.098 -0.3174 -0.8796 -1.6570
  149OSM     NF16480   5.054   3.758   3.369  0.5605  0.7643  0.2341
  149OSM    HNF16481   5.083   3.848   3.401  1.2411 -0.4348  3.3629
  149OSM    C2S16482   5.141   3.682   3.282  0.0063  0.4117  0.0255
  149OSM    H2S16483   5.128   3.577   3.317 -0.3041 -0.3432 -2.2268
  149OSM    C3S16484   5.292   3.725   3.286 -0.2632  0.0326  0.4110
  149OSM    H3S16485   5.296   3.833   3.261 -0.7119  0.0989  0.6064
  149OSM     O316486   5.383   3.668   3.192 -0.0614 -0.2392 -0.6670
  149OSM    HO316487   5.333   3.633   3.118  1.0154 -2.7762 -0.2861
  149OSM    C4S16488   5.352   3.690   3.410  0.1601 -0.4208 -0.5228
  149OSM    H4S16489   5.361   3.583   3.434  0.5627  0.0211  1.5648
  149OSM    C5S16490   5.389   3.773   3.504 -0.8234  0.5600 -0.2915
  149OSM    H5S16491   5.365   3.880   3.490 -1.6293  0.3904 -0.2267
  149OSM    C6S16492   5.464   3.737   3.630  0.2327 -0.5901  0.0537
  149OSM    H6S16493   5.555   3.801   3.629  0.2151 -0.4409  2.5916
  149OSM    H6T16494   5.503   3.633   3.623 -2.4202 -1.6191 -0.8461
  149OSM    C7S16495   5.364   3.717   3.748  0.4897 -0.3800 -0.0158
  149OSM    H7S16496   5.296   3.633   3.720 -1.1316  0.8629  0.0654
  149OSM    H7T16497   5.301   3.808   3.749  1.8876  0.6410 -1.2650
  149OSM    C8S16498   5.436   3.692   3.877  0.0742 -0.3599  0.0959
  149OSM    H8S16499   5.524   3.759   3.872 -0.7971  0.8581  0.4761
  149OSM    H8T16500   5.475   3.588   3.870 -1.6714 -1.3691  3.2843
  149OSM    C9S16501   5.344   3.699   3.999 -0.3819  0.7629  0.3091
  149OSM    H9S16502   5.275   3.613   4.007  0.9254 -0.2925  0.6603
  149OSM    H9T16503   5.275   3.786   4.003 -1.2434  0.0305  2.4219
  149OSM   C10S16504   5.418   3.684   4.133 -0.0456 -0.4164  0.0842
  149OSM   H10S16505   5.488   3.769   4.149  1.1419 -1.0048 -1.7148
  149OSM   H10T16506   5.472   3.587   4.124  0.2929 -0.2327  0.1180
  149OSM   C11S16507   5.324   3.688   4.258  0.1811  0.0293 -0.1288
  149OSM   H11S16508   5.385   3.644   4.340  0.9598 -1.8238 -1.6272
  149OSM   H11T16509   5.232   3.627   4.247 -0.5490  1.0973 -0.0671
  149OSM   C12S16510   5.270   3.823   4.282  0.1927 -0.7165 -0.0710
  149OSM   H12S16511   5.203   3.843   4.196  0.1951 -2.1094 -0.4208
  149OSM   H12T16512   5.342   3.908   4.281 -0.9964  0.3230 -0.4192
  149OSM   C13S16513   5.194   3.814   4.420 -0.5620 -0.1040  0.5767
  149OSM   H13S16514   5.260   3.765   4.495  0.9141  1.2366  0.2000
  149OSM   H13T16515   5.124   3.731   4.396  1.6803 -1.2770 -2.4446
  149OSM   C14S16516   5.135   3.944   4.468  0.8911 -0.0025  0.5387
  149OSM   H14S16517   5.065   3.984   4.392  1.1427 -0.3573  0.1102
  149OSM   H14T16518   5.217   4.019   4.467 -0.9420  2.1690 -2.4186
  149OSM   C15S16519   5.069   3.944   4.606  0.4059  0.7172  0.0321
  149OSM   H15S16520   4.980   3.878   4.599  1.6894 -1.0894  0.3185
  149OSM   H15T16521   5.023   4.044   4.622  0.8367  0.7435  1.1850
  149OSM   C16S16522   5.156   3.917   4.736 -0.0401 -0.3395  1.1944
  149OSM   H16S16523   5.246   3.981   4.741 -0.2414  0.0128  0.3933
  149OSM   H16T16524   5.195   3.813   4.727  1.7621  0.4453 -1.0097
  149OSM   C17S16525   5.081   3.916   4.866  0.1082 -0.6659 -0.6518
  149OSM   H17S16526   5.008   3.832   4.875 -0.5013  0.0387  1.5009
  149OSM   H17T16527   5.035   4.016   4.880 -1.0151 -0.9007 -2.4251
  149OSM   C18S16528   5.180   3.900   4.986  0.8893  0.0119  0.6175
  149OSM   H18S16529   5.116   3.906   5.076 -0.2555 -0.4474 -0.1424
  149OSM   H18T16530   5.269   3.967   4.986  1.3553 -0.5643 -0.8889
  149OSM   H18U16531   5.221   3.797   4.980 -2.1978 -1.3594  1.3988
  149OSM    C1F16532   4.931   3.718   3.395  0.0382  0.1873  0.0678
  149OSM     OF16533   4.891   3.609   3.344  0.5560 -0.0561 -0.1760
  149OSM    C2F16534   4.847   3.809   3.484  0.5070 -0.1559  0.3985
  149OSM    H2F16535   4.743   3.809   3.444 -0.1710 -1.0685  2.0338
  149OSM    H2G16536   4.892   3.910   3.472  1.3988 -0.5593  0.3107
  149OSM    C3F16537   4.852   3.780   3.636  0.3847 -0.3493  0.2845
  149OSM    H3F16538   4.790   3.690   3.655 -0.3208  0.3216  1.2819
  149OSM    H3G16539   4.793   3.871   3.662 -0.0581 -0.6476  0.3363
  149OSM    C4F16540   4.987   3.787   3.709  0.3604 -0.5087 -0.0228
  149OSM    H4F16541   5.050   3.876   3.694 -1.1640  0.7181  0.5657
  149OSM    H4G16542   5.035   3.699   3.661 -1.9058 -0.7875 -2.0158
  149OSM    C5F16543   4.972   3.772   3.864 -0.7415 -0.0896 -0.2777
  149OSM    H5F16544   5.078   3.756   3.894 -1.3550 -3.0008  0.6330
  149OSM    H5G16545   4.912   3.682   3.887 -2.6400  1.3402  0.6899
  149OSM    C6F16546   4.909   3.893   3.930 -0.2637  0.3616  0.5190
  149OSM    H6F16547   4.804   3.908   3.899  0.6309 -0.1808 -3.3786
  149OSM    H6G16548   4.966   3.983   3.898  0.3133  0.2376  1.1708
  149OSM    C7F16549   4.923   3.899   4.085  0.2050  0.1254 -0.2516
  149OSM    H7F16550   5.026   3.886   4.125  0.8603  0.3184 -1.8261
  149OSM    H7G16551   4.872   3.809   4.126  0.5628 -0.1496 -0.3948
  149OSM    C8F16552   4.861   4.019   4.149  0.2418  0.5032 -0.1708
  149OSM    H8F16553   4.867   3.997   4.258 -3.0215 -2.6536 -0.4452
  149OSM    H8G16554   4.754   4.029   4.123  0.6517  0.5482 -1.9790
  149OSM    C9F16555   4.945   4.132   4.115 -0.3630 -0.9622 -0.7431
  149OSM    H9F16556   5.051   4.111   4.092  0.4690 -1.8633  3.1589
  149OSM   C10F16557   4.893   4.250   4.098 -0.2648 -0.5059 -0.3553
  149OSM   H10F16558   4.967   4.327   4.072 -0.5991 -0.0152  0.1496
  149OSM   C11F16559   4.746   4.301   4.107 -0.4302  1.1619 -0.0029
  149OSM   H11F16560   4.736   4.374   4.190 -0.3523  1.3242 -0.1360
  149OSM   H11G16561   4.678   4.222   4.145 -2.1677  2.4949 -0.1928
  149OSM   C12F16562   4.687   4.355   3.977 -0.2272  0.2195 -0.5089
  149OSM   H12F16563   4.577   4.362   3.991 -0.0745 -0.7720  1.5983
  149OSM   H12G16564   4.706   4.285   3.893 -1.3048  0.3919 -0.9187
  149OSM   C13F16565   4.738   4.495   3.942 -0.2253  0.7775 -0.6409
  149OSM   H13F16566   4.847   4.484   3.925  0.0462 -2.5740  2.1425
  149OSM   H13G16567   4.725   4.550   4.037  2.3710 -4.3691  3.2154
  149OSM   C14F16568   4.655   4.569   3.833  0.3602 -0.6745  0.1533
  149OSM   H14F16569   4.550   4.595   3.857  0.6248 -1.1353  2.0321
  149OSM   H14G16570   4.654   4.514   3.737  1.8053 -0.6014  0.0754
  149OSM   C15F16571   4.734   4.697   3.805 -0.6258  0.5003  0.3452
  149OSM   H15F16572   4.685   4.746   3.717  2.2917  1.0195 -1.1075
  149OSM   H15G16573   4.830   4.672   3.754 -0.8132  1.6766 -0.6387
  149OSM   C16F16574   4.758   4.798   3.917 -0.5547 -0.1215  0.9417
  149OSM   H16F16575   4.821   4.759   4.000  0.1001 -0.5411  0.2673
  149OSM   H16G16576   4.659   4.807   3.967 -0.8625  0.0810  0.3026
  149OSM   C17F16577   4.821   4.940   3.876 -0.5846  0.1114  0.3275
  149OSM   H17F16578   4.931   4.931   3.868 -0.7084 -0.6751 -0.7855
  149OSM   H17G16579   4.792   5.010   3.957  1.2412  2.3977 -0.8907
  149OSM   C18F16580   4.764   4.992   3.744  0.1114  0.0658 -0.0341
  149OSM   H18F16581   4.661   4.953   3.739  0.8141 -1.7988 -0.7128
  149OSM   H18G16582   4.817   4.953   3.655 -0.5342  1.8764 -1.2833
  149OSM   H18H16583   4.745   5.101   3.728 -1.6433 -0.1422  0.4170
  150OSM      N16584   2.626   6.698   2.800  0.2217  0.3677  0.0652
  150OSM    C1516585   2.557   6.642   2.678 -0.3140 -0.5248  0.2761
  150OSM   H15A16586   2.463   6.688   2.654  0.0581 -0.9524 -2.2405
  150OSM   H15B16587   2.550   6.534   2.681 -0.3821 -0.4987  1.9525
  150OSM   H15C16588   2.620   6.650   2.591 -0.3834  0.3485  0.2929
  150OSM    C1416589   2.754   6.631   2.822 -0.4859 -0.0794 -0.3621
  150OSM   H14A16590   2.743   6.526   2.845  1.1926  0.0009  0.9974
  150OSM   H14B16591   2.803   6.676   2.907  1.2714 -1.5806 -0.5211
  150OSM   H14C16592   2.826   6.637   2.741  1.1451 -2.0999  0.8243
  150OSM    C1316593   2.660   6.846   2.766 -0.2424 -0.4783  0.0326
  150OSM   H13A16594   2.735   6.891   2.829  0.0709  0.6544 -1.0992
  150OSM   H13B16595   2.568   6.901   2.752  0.0677 -0.2012 -0.9589
  150OSM   H13C16596   2.706   6.847   2.668  1.0460 -1.0882  0.6076
  150OSM    C1216597   2.536   6.697   2.921 -0.4979  0.9092  0.2889
  150OSM   H12A16598   2.440   6.738   2.895 -1.1138  2.0891  3.8361
  150OSM   H12B16599   2.596   6.753   2.991  0.9247  1.9988 -1.7104
  150OSM    C1116600   2.518   6.556   2.989 -0.5335 -0.0858 -0.1098
  150OSM   H11A16601   2.452   6.559   3.078  0.9934  0.6001  1.0223
  150OSM   H11B16602   2.621   6.530   3.021  0.5392  1.5753 -2.0029
  150OSM      P16603   2.519   6.307   2.902 -0.0751  0.1065  0.0555
  150OSM    O1316604   2.451   6.227   2.790 -0.4167 -0.2983  0.5406
  150OSM    O1416605   2.663   6.301   2.906 -0.0525 -0.1676 -0.3935
  150OSM    O1116606   2.450   6.272   3.040  0.2854  0.8577 -0.5194
  150OSM    O1216607   2.482   6.463   2.890 -0.2692 -0.6044  0.8949
  150OSM    C1S16608   2.478   6.147   3.111  0.2246  0.1007  0.3651
  150OSM    H1S16609   2.584   6.115   3.118  0.3658  0.0614 -1.5625
  150OSM    H1T16610   2.429   6.066   3.053  1.4322  0.4328 -1.1749
  150OSM     NF16611   2.475   6.042   3.335  0.4720  0.4215 -0.2853
  150OSM    HNF16612   2.424   5.956   3.343 -1.1299  1.1959 -1.6209
  150OSM    C2S16613   2.411   6.147   3.250  0.1589 -0.2636  0.3217
  150OSM    H2S16614   2.438   6.245   3.296 -0.8392  0.7124 -1.1107
  150OSM    C3S16615   2.254   6.152   3.239  0.1091  0.4874 -0.3633
  150OSM    H3S16616   2.213   6.059   3.194 -0.6442  0.6102  0.0676
  150OSM     O316617   2.212   6.251   3.146 -0.3246  0.2771  0.5681
  150OSM    HO316618   2.292   6.276   3.100 -1.4847  0.8385 -1.2826
  150OSM    C4S16619   2.174   6.167   3.365 -0.0425  0.4808 -0.5339
  150OSM    H4S16620   2.170   6.267   3.411 -0.5410 -0.6866  2.1709
  150OSM    C5S16621   2.127   6.069   3.440  0.6105  0.4001  0.1043
  150OSM    H5S16622   2.132   5.963   3.411  0.1443  0.1576  0.8862
  150OSM    C6S16623   2.064   6.090   3.575 -0.1872  0.6223 -0.0447
  150OSM    H6S16624   2.002   5.999   3.589  0.7392 -0.0954 -0.5049
  150OSM    H6T16625   2.013   6.189   3.580  0.4555  0.9209  1.0924
  150OSM    C7S16626   2.181   6.100   3.683 -0.0572  0.6378  0.6690
  150OSM    H7S16627   2.238   6.192   3.658 -1.0040  0.8147 -0.9805
  150OSM    H7T16628   2.250   6.013   3.675 -3.6246 -2.3119 -1.8457
  150OSM    C8S16629   2.127   6.098   3.827  0.2820  0.0035  0.2374
  150OSM    H8S16630   2.065   6.006   3.838  0.2009 -0.1443 -1.3436
  150OSM    H8T16631   2.059   6.186   3.828  0.8986  0.7124 -3.8100
  150OSM    C9S16632   2.245   6.099   3.918 -0.1398  0.2856  0.2947
  150OSM    H9S16633   2.296   6.197   3.899 -0.5513  0.4238 -0.1152
  150OSM    H9T16634   2.318   6.022   3.886  1.3216  1.8801 -0.3989
  150OSM   C10S16635   2.230   6.075   4.063  0.5770  0.5869 -0.8051
  150OSM   H10S16636   2.186   5.973   4.071  0.3428  0.7828  0.9769
  150OSM   H10T16637   2.148   6.136   4.108  1.2819  0.2110  1.1051
  150OSM   C11S16638   2.350   6.073   4.149 -0.4877 -0.2750 -0.2510
  150OSM   H11S16639   2.377   6.180   4.164 -2.5947  0.2166  0.3960
  150OSM   H11T16640   2.425   6.013   4.094  0.0334  0.2652 -0.1345
  150OSM   C12S16641   2.344   6.005   4.285 -0.2844 -0.0142  0.6101
  150OSM   H12S16642   2.443   5.997   4.334  2.1142  2.1256 -3.3863
  150OSM   H12T16643   2.311   5.899   4.274 -2.2986  0.4534  1.6133
  150OSM   C13S16644   2.260   6.081   4.385 -0.4023 -0.1488  0.8690
  150OSM   H13S16645   2.155   6.104   4.359 -0.3248  2.1252  2.3006
  150OSM   H13T16646   2.312   6.179   4.391  0.5918 -0.4729 -1.5295
  150OSM   C14S16647   2.266   6.014   4.525 -0.2673  0.2969 -0.4351
  150OSM   H14S16648   2.203   6.072   4.595 -1.4907 -0.3698 -0.9516
  150OSM   H14T16649   2.373   6.017   4.553 -0.7238  0.5640  1.4216
  150OSM   C15S16650   2.195   5.879   4.532 -0.0101  0.0894  0.4593
  150OSM   H15S16651   2.253   5.810   4.467  0.2903  0.9068 -0.1630
  150OSM   H15T16652   2.095   5.898   4.488  0.8828  3.6684 -0.4200
  150OSM   C16S16653   2.173   5.829   4.679 -0.7764  0.3104 -0.6513
  150OSM   H16S16654   2.143   5.722   4.685 -0.4559  0.2106 -0.8179
  150OSM   H16T16655   2.093   5.895   4.719  1.0968  1.1652  2.0137
  150OSM   C17S16656   2.287   5.841   4.777  1.1067 -0.0236  0.7222
  150OSM   H17S16657   2.300   5.945   4.814  2.4336  0.4381 -0.9022
  150OSM   H17T16658   2.382   5.815   4.726  1.0877 -1.3007  1.3122
  150OSM   C18S16659   2.283   5.737   4.893  0.2932  0.0329  0.4066
  150OSM   H18S16660   2.195   5.755   4.959  1.8077  1.6592  2.1452
  150OSM   H18T16661   2.369   5.774   4.955 -0.2142 -0.2758  1.3112
  150OSM   H18U16662   2.280   5.638   4.843 -1.0264 -0.2619  1.0342
  150OSM    C1F16663   2.595   6.060   3.388  0.4543 -0.7736  0.1245
  150OSM     OF16664   2.670   6.154   3.354 -0.0595  0.7794 -0.2034
  150OSM    C2F16665   2.644   5.963   3.488 -0.2882  0.6118 -0.1780
  150OSM    H2F16666   2.754   5.964   3.477 -0.1608 -0.6518  0.6980
  150OSM    H2G16667   2.601   5.860   3.486  1.9504 -0.3901 -2.6145
  150OSM    C3F16668   2.625   6.017   3.643  0.1320  0.5124 -0.0694
  150OSM    H3F16669   2.516   6.025   3.663 -0.2246  2.1601 -2.2821
  150OSM    H3G16670   2.675   6.116   3.653 -0.0504  0.4105  2.6473
  150OSM    C4F16671   2.685   5.929   3.755  0.2580 -0.1943 -0.1512
  150OSM    H4F16672   2.789   5.900   3.727  0.9286  0.7562  1.2586
  150OSM    H4G16673   2.628   5.835   3.765 -0.5228  0.2767 -0.1089
  150OSM    C5F16674   2.687   5.999   3.896  0.4287  0.1642  0.7623
  150OSM    H5F16675   2.591   6.048   3.922  0.1206 -0.1909  0.2923
  150OSM    H5G16676   2.755   6.085   3.882 -0.9555  1.0595 -0.6753
  150OSM    C6F16677   2.736   5.910   4.020 -0.3916 -0.0040  0.3194
  150OSM    H6F16678   2.837   5.870   3.996  0.6536  1.9016  1.3164
  150OSM    H6G16679   2.661   5.828   4.030 -0.2086 -0.2970 -0.6297
  150OSM    C7F16680   2.768   5.990   4.144 -0.1088 -0.2363  0.9776
  150OSM    H7F16681   2.674   6.049   4.157 -0.1758 -0.1246  0.0489
  150OSM    H7G16682   2.839   6.072   4.119  0.2526 -0.6820  0.5396
  150OSM    C8F16683   2.818   5.911   4.261 -0.1571 -0.5381 -0.3872
  150OSM    H8F16684   2.862   5.976   4.339  1.4804 -3.6309  1.4688
  150OSM    H8G16685   2.901   5.844   4.231 -1.0925 -1.6450 -0.5683
  150OSM    C9F16686   2.712   5.820   4.319 -0.0655  0.0398  0.1695
  150OSM    H9F16687   2.688   5.734   4.255 -0.3733  0.2389  0.0147
  150OSM   C10F16688   2.658   5.828   4.441  0.1623 -1.1257  0.2309
  150OSM   H10F16689   2.580   5.755   4.467 -0.2361 -1.0361 -0.6462
  150OSM   C11F16690   2.685   5.932   4.551  0.1648 -0.1189  1.0632
  150OSM   H11F16691   2.597   5.970   4.606 -0.7208 -0.3450 -0.1578
  150OSM   H11G16692   2.739   6.019   4.509  0.0701 -1.0863 -1.2312
  150OSM   C12F16693   2.779   5.874   4.658  0.2805  0.3223 -0.2649
  150OSM   H12F16694   2.876   5.865   4.605  0.4839 -2.0588  0.4028
  150OSM   H12G16695   2.749   5.771   4.688 -0.1263  0.7377  0.7758
  150OSM   C13F16696   2.809   5.965   4.781  0.2184  0.7388 -0.0806
  150OSM   H13F16697   2.710   5.987   4.825 -1.7511 -2.2783 -2.4935
  150OSM   H13G16698   2.855   6.051   4.728 -0.4551 -0.0104 -1.9759
  150OSM   C14F16699   2.906   5.903   4.873 -0.1152 -0.5910 -0.4551
  150OSM   H14F16700   3.006   5.914   4.826 -0.1359  2.9912  0.0680
  150OSM   H14G16701   2.896   5.793   4.891  0.9177 -0.5064  0.7848
  150OSM   C15F16702   2.906   5.969   5.015 -0.2620  0.2905  0.2932
  150OSM   H15F16703   2.812   5.944   5.068 -0.3724 -1.1640 -0.5343
  150OSM   H15G16704   2.922   6.079   5.002  1.2169  0.0717 -0.0004
  150OSM   C16F16705   3.012   5.902   5.106 -0.1566 -0.0660  0.3997
  150OSM   H16F16706   3.112   5.950   5.097  1.1603 -2.6293  0.4739
  150OSM   H16G16707   3.024   5.804   5.055  0.1413  1.1733 -2.0726
  150OSM   C17F16708   2.979   5.883   5.248  0.1165  0.4609 -0.2403
  150OSM   H17F16709   2.877   5.840   5.247 -0.7020  2.3230 -1.0755
  150OSM   H17G16710   2.958   5.980   5.298 -0.0451  1.2704 -1.8210
  150OSM   C18F16711   3.085   5.815   5.327  0.2133 -0.3130  0.2412
  150OSM   H18F16712   3.179   5.873   5.316 -0.6319  1.0617 -0.1309
  150OSM   H18G16713   3.103   5.709   5.302  0.7894  0.1622 -1.5953
  150OSM   H18H16714   3.052   5.813   5.433  2.9483 -2.4787  1.1661
  151OSM      N16715   2.796   5.369   2.893 -0.2075 -0.4273 -1.1135
  151OSM    C1516716   2.840   5.278   2.785  0.2054 -0.0851  0.4393
  151OSM   H15A16717   2.778   5.272   2.697 -0.5050  2.8888  0.6396
  151OSM   H15B16718   2.839   5.179   2.827 -1.7692 -0.9815 -1.5593
  151OSM   H15C16719   2.939   5.295   2.746 -0.3084  1.0937 -0.3881
  151OSM    C1416720   2.648   5.326   2.927 -0.1210 -0.1009 -0.1536
  151OSM   H14A16721   2.665   5.284   3.025  1.3595 -0.9640 -0.7455
  151OSM   H14B16722   2.597   5.253   2.866 -0.2753 -1.3448  1.4136
  151OSM   H14C16723   2.579   5.407   2.944  1.5025  1.2495  0.2386
  151OSM    C1316724   2.877   5.366   3.015 -1.0178  0.3860  0.2562
  151OSM   H13A16725   2.982   5.372   2.992 -0.8779  0.9435  1.0239
  151OSM   H13B16726   2.864   5.276   3.075 -1.9343  0.5047  0.2551
  151OSM   H13C16727   2.871   5.452   3.080  2.6738  0.8394  0.2063
  151OSM    C1216728   2.792   5.503   2.836  0.5139  0.0186 -0.0464
  151OSM   H12A16729   2.731   5.506   2.747 -1.8006  3.3024  1.4234
  151OSM   H12B16730   2.894   5.534   2.818  0.9405 -1.7107 -0.8034
  151OSM    C1116731   2.738   5.623   2.923  0.0263  0.6571  0.3258
  151OSM   H11A16732   2.764   5.714   2.864 -1.7495  1.0671  0.1346
  151OSM   H11B16733   2.791   5.624   3.021 -0.3540 -0.0156  0.5418
  151OSM      P16734   2.543   5.763   3.013 -0.0659  0.1088 -0.3315
  151OSM    O1316735   2.654   5.856   3.040 -0.6454  0.1755 -0.4017
  151OSM    O1416736   2.428   5.816   2.944 -0.1608  0.0868 -0.2701
  151OSM    O1116737   2.502   5.704   3.151 -0.9969 -0.1807  0.1609
  151OSM    O1216738   2.601   5.631   2.944  0.3786 -0.2946  0.3006
  151OSM    C1S16739   2.437   5.579   3.163 -0.4758 -0.5839  0.9220
  151OSM    H1S16740   2.503   5.497   3.127 -1.5978 -2.2965  2.5668
  151OSM    H1T16741   2.346   5.578   3.099  0.9989  1.7454 -1.3949
  151OSM     NF16742   2.379   5.388   3.314  0.6819 -0.3180 -0.1212
  151OSM    HNF16743   2.284   5.377   3.339  1.0516  0.2311  1.6653
  151OSM    C2S16744   2.416   5.534   3.307 -0.2613 -0.2212 -0.8247
  151OSM    H2S16745   2.520   5.545   3.344 -0.3957  1.0470 -0.7564
  151OSM    C3S16746   2.325   5.642   3.372  0.5823 -0.4915  0.1530
  151OSM    H3S16747   2.225   5.635   3.323  1.5846 -0.6591 -1.9575
  151OSM     O316748   2.369   5.777   3.358 -0.2773 -0.8730  0.0219
  151OSM    HO316749   2.443   5.773   3.297 -0.6801 -0.4572 -0.5053
  151OSM    C4S16750   2.295   5.613   3.517  0.3021 -0.1878 -0.2321
  151OSM    H4S16751   2.240   5.519   3.527  0.9667 -0.8298 -2.0702
  151OSM    C5S16752   2.329   5.678   3.633 -0.6366 -0.2080 -1.0077
  151OSM    H5S16753   2.384   5.774   3.635 -0.9544 -0.0283  0.8655
  151OSM    C6S16754   2.292   5.636   3.767 -0.6988  0.1795  0.2039
  151OSM    H6S16755   2.250   5.533   3.769  0.8246 -0.4564  1.7531
  151OSM    H6T16756   2.212   5.702   3.807 -1.1935 -1.4714  2.0969
  151OSM    C7S16757   2.407   5.637   3.867 -1.1755  0.0409  0.3668
  151OSM    H7S16758   2.453   5.738   3.858  1.6915 -1.2459 -0.4963
  151OSM    H7T16759   2.486   5.562   3.845 -0.8933  0.8284 -1.5077
  151OSM    C8S16760   2.351   5.608   4.007  0.0725  0.6641  0.2517
  151OSM    H8S16761   2.251   5.559   4.001  0.0151  0.8174 -0.1125
  151OSM    H8T16762   2.332   5.707   4.054 -0.8987  0.9340 -0.6525
  151OSM    C9S16763   2.436   5.528   4.097 -0.4508 -0.4849 -0.3805
  151OSM    H9S16764   2.533   5.579   4.115  0.5088 -2.3769  0.1870
  151OSM    H9T16765   2.455   5.434   4.041  0.2556 -0.0144 -0.9405
  151OSM   C10S16766   2.362   5.510   4.231 -0.8523 -0.1596  0.1701
  151OSM   H10S16767   2.264   5.462   4.215 -0.4638 -0.3259 -2.0699
  151OSM   H10T16768   2.348   5.614   4.269 -1.2407 -0.5886  1.2262
  151OSM   C11S16769   2.438   5.438   4.338  0.3047  0.2072 -0.0389
  151OSM   H11S16770   2.534   5.483   4.371  0.1632  1.5344 -1.3423
  151OSM   H11T16771   2.465   5.336   4.301 -0.3607  0.3579 -0.9808
  151OSM   C12S16772   2.346   5.410   4.464 -0.4618  1.6900  0.1294
  151OSM   H12S16773   2.278   5.326   4.440  1.1596  0.4810 -0.3953
  151OSM   H12T16774   2.292   5.506   4.480  0.0747  2.5903 -2.9325
  151OSM   C13S16775   2.421   5.358   4.587  0.3273 -0.0196  0.5132
  151OSM   H13S16776   2.475   5.437   4.645  2.2732 -0.9141  0.0130
  151OSM   H13T16777   2.480   5.270   4.554 -1.6238  0.0503 -3.7897
  151OSM   C14S16778   2.321   5.305   4.700  0.3865 -0.7601  0.0557
  151OSM   H14S16779   2.254   5.234   4.648  0.7855 -0.3995 -0.9766
  151OSM   H14T16780   2.251   5.387   4.727 -3.1247 -2.5343 -2.7876
  151OSM   C15S16781   2.385   5.257   4.825  0.6737 -0.8837 -0.0838
  151OSM   H15S16782   2.456   5.336   4.858  0.5919 -0.4498 -0.9093
  151OSM   H15T16783   2.442   5.163   4.807 -1.4511 -2.2250 -0.0735
  151OSM   C16S16784   2.294   5.231   4.948  0.4853  0.0764 -0.1592
  151OSM   H16S16785   2.357   5.216   5.038  1.6772 -0.6365 -1.0806
  151OSM   H16T16786   2.238   5.136   4.937 -0.8916  1.1126 -3.1602
  151OSM   C17S16787   2.209   5.349   4.979 -0.2407  0.2154 -0.4671
  151OSM   H17S16788   2.114   5.348   4.922  0.5639 -1.9287 -1.8737
  151OSM   H17T16789   2.264   5.440   4.945  0.0509 -0.4408 -1.7821
  151OSM   C18S16790   2.167   5.369   5.128  0.8047  0.2647  0.5272
  151OSM   H18S16791   2.099   5.289   5.163 -0.8545  1.5591  0.4069
  151OSM   H18T16792   2.107   5.462   5.136 -1.0065 -0.9337  1.7118
  151OSM   H18U16793   2.251   5.364   5.201  0.4803  0.6934  0.9356
  151OSM    C1F16794   2.464   5.286   3.286  0.3706 -0.2991  0.5695
  151OSM     OF16795   2.577   5.304   3.242  0.2305 -0.5708 -0.1472
  151OSM    C2F16796   2.421   5.142   3.308  0.0643 -0.0265  0.0383
  151OSM    H2F16797   2.408   5.094   3.209 -2.4559 -0.1534  0.3474
  151OSM    H2G16798   2.319   5.154   3.352  0.5462  0.4483  1.0610
  151OSM    C3F16799   2.519   5.077   3.411  0.8003  0.1041  0.0129
  151OSM    H3F16800   2.623   5.093   3.375  1.0575  1.7006  1.3329
  151OSM    H3G16801   2.506   4.966   3.413  0.6175  0.1308  0.4803
  151OSM    C4F16802   2.507   5.125   3.553  0.6198  0.1741 -0.5407
  151OSM    H4F16803   2.400   5.136   3.580  0.7409 -2.4174  1.2626
  151OSM    H4G16804   2.558   5.224   3.555 -0.8975  0.9749 -0.3251
  151OSM    C5F16805   2.570   5.029   3.658 -0.1846  0.1308  0.0900
  151OSM    H5F16806   2.679   5.021   3.639 -0.2974  0.1760 -0.6297
  151OSM    H5G16807   2.530   4.926   3.648  1.3562 -0.5552  0.7602
  151OSM    C6F16808   2.565   5.085   3.801 -0.0048  0.9509  0.2528
  151OSM    H6F16809   2.461   5.121   3.811 -0.7338 -0.6724 -0.9634
  151OSM    H6G16810   2.638   5.169   3.796  0.9526  0.0680 -2.1630
  151OSM    C7F16811   2.609   4.988   3.916 -0.2122  0.8302 -0.1915
  151OSM    H7F16812   2.716   4.960   3.903 -0.2674 -0.3881  1.5886
  151OSM    H7G16813   2.554   4.893   3.902  1.9083 -0.3011 -1.2684
  151OSM    C8F16814   2.597   5.052   4.059  0.3688  0.9743 -1.0507
  151OSM    H8F16815   2.665   5.140   4.056 -0.0486  1.3562  0.3195
  151OSM    H8G16816   2.635   4.968   4.122 -0.1035  1.1503 -0.5274
  151OSM    C9F16817   2.464   5.107   4.098  0.5524  0.7932  0.6863
  151OSM    H9F16818   2.417   5.188   4.040 -2.3191 -0.3654  1.2109
  151OSM   C10F16819   2.400   5.075   4.216 -0.1113  0.0380  0.9909
  151OSM   H10F16820   2.302   5.120   4.237 -0.9982 -1.7372  0.8270
  151OSM   C11F16821   2.457   4.982   4.321  0.7161 -0.5767  0.1142
  151OSM   H11F16822   2.563   5.002   4.348  0.6763  1.4474 -0.9910
  151OSM   H11G16823   2.445   4.876   4.293 -0.4978  0.0838 -2.0493
  151OSM   C12F16824   2.364   4.994   4.442  0.3794 -0.7261  0.2618
  151OSM   H12F16825   2.261   4.978   4.406  0.9598 -2.9694 -0.5212
  151OSM   H12G16826   2.355   5.095   4.487  3.0829  1.6340 -3.8361
  151OSM   C13F16827   2.397   4.891   4.555 -1.0210 -1.3880  0.1592
  151OSM   H13F16828   2.496   4.913   4.602 -0.6713  0.6136 -1.3928
  151OSM   H13G16829   2.408   4.793   4.505  0.4196 -0.3509 -1.7041
  151OSM   C14F16830   2.289   4.881   4.663 -0.6182  0.4074 -0.0500
  151OSM   H14F16831   2.194   4.853   4.613 -1.2641  1.6319  0.4473
  151OSM   H14G16832   2.289   4.979   4.715 -0.6263  0.0456  0.6410
  151OSM   C15F16833   2.330   4.771   4.759 -0.1009  0.0656  0.3051
  151OSM   H15F16834   2.430   4.804   4.795  0.2350  1.2392 -1.5807
  151OSM   H15G16835   2.345   4.675   4.705  1.5040  1.4763 -1.9299
  151OSM   C16F16836   2.235   4.753   4.881  0.0797  0.0350  0.6415
  151OSM   H16F16837   2.136   4.713   4.849  0.5099 -0.1706 -0.4842
  151OSM   H16G16838   2.210   4.848   4.932 -1.4203  1.3800 -2.3888
  151OSM   C17F16839   2.293   4.649   4.980  0.7082 -0.2158 -0.0239
  151OSM   H17F16840   2.379   4.688   5.038  0.4580 -2.9017  2.4191
  151OSM   H17G16841   2.319   4.549   4.939 -1.4558 -0.3102 -1.2924
  151OSM   C18F16842   2.180   4.612   5.078 -0.0302  0.7172  0.6587
  151OSM   H18F16843   2.139   4.707   5.120  1.0748  1.5783 -0.1383
  151OSM   H18G16844   2.222   4.548   5.158  0.6396 -1.2164 -1.1371
  151OSM   H18H16845   2.102   4.551   5.028 -0.1437 -0.7914  2.5805
  152OSM      N16846   3.366   0.130   3.145  0.4229  1.0589 -0.6007
  152OSM    C1516847   3.246   0.113   3.229 -0.4776  0.0695 -0.4356
  152OSM   H15A16848   3.158   0.145   3.175  0.9461 -0.1990 -3.0861
  152OSM   H15B16849   3.251   0.167   3.323  0.9693  1.2454 -1.1521
  152OSM   H15C16850   3.240   0.008   3.253  0.6626 -0.0653 -0.6530
  152OSM    C1416851   3.363   0.051   3.021  0.3926 -0.0407  0.2222
  152OSM   H14A16852   3.266   0.030   2.978  0.2891 -1.1260  0.9261
  152OSM   H14B16853   3.416  -0.041   3.038  2.3801  1.3419  1.9223
  152OSM   H14C16854   3.426   0.107   2.954  0.3384  1.5681  1.4445
  152OSM    C1316855   3.375   0.276   3.110 -0.4700  0.1812  0.5893
  152OSM   H13A16856   3.398   0.316   3.207  0.9001  0.7347  0.0700
  152OSM   H13B16857   3.280   0.316   3.080 -0.4509 -0.1381  0.0751
  152OSM   H13C16858   3.454   0.307   3.043 -1.4274 -0.1744 -0.7426
  152OSM    C1216859   3.483   0.093   3.228 -0.8257  1.0229 -0.5075
  152OSM   H12A16860   3.570   0.093   3.165  1.3979 -1.2736  2.2287
  152OSM   H12B16861   3.471  -0.011   3.255  0.0513  1.4287  1.6543
  152OSM    C1116862   3.488   0.164   3.367 -0.0351 -0.8300 -0.2154
  152OSM   H11A16863   3.563   0.107   3.426 -0.4069 -0.2052  0.8963
  152OSM   H11B16864   3.396   0.153   3.429 -0.6070  2.3193 -0.3561
  152OSM      P16865   3.651   0.359   3.326 -0.1767 -0.2384 -0.0954
  152OSM    O1316866   3.767   0.265   3.344  0.5210 -0.5738  0.3441
  152OSM    O1416867   3.637   0.425   3.196 -0.0609 -0.0109 -0.1019
  152OSM    O1116868   3.669   0.473   3.438  0.8948  0.0372  0.0404
  152OSM    O1216869   3.515   0.300   3.369 -0.4556  0.3119 -0.1545
  152OSM    C1S16870   3.603   0.455   3.567 -0.4898 -0.6555 -0.0246
  152OSM    H1S16871   3.667   0.391   3.631  0.7979 -0.0678 -0.6960
  152OSM    H1T16872   3.496   0.426   3.559 -0.2160 -2.0071  0.9018
  152OSM     NF16873   3.561   0.580   3.779 -0.4176  1.2532 -0.4424
  152OSM    HNF16874   3.464   0.582   3.804  0.1721 -2.0058  2.9686
  152OSM    C2S16875   3.601   0.597   3.641  0.6505 -0.0314  0.2140
  152OSM    H2S16876   3.706   0.632   3.631  0.4285  0.4410 -0.5108
  152OSM    C3S16877   3.511   0.699   3.565 -0.0681 -1.5092 -0.1560
  152OSM    H3S16878   3.411   0.650   3.566  0.0860 -1.8963  2.4373
  152OSM     O316879   3.540   0.714   3.425 -0.2315  0.8510 -0.2391
  152OSM    HO316880   3.590   0.633   3.411 -0.0692  1.0722 -0.9804
  152OSM    C4S16881   3.505   0.834   3.636  0.4372 -0.1117  0.3878
  152OSM    H4S16882   3.406   0.849   3.682 -0.6446 -0.3083 -1.7804
  152OSM    C5S16883   3.583   0.941   3.626 -0.3930  0.3742 -0.1472
  152OSM    H5S16884   3.664   0.946   3.551  0.7982  0.5252  1.0904
  152OSM    C6S16885   3.554   1.071   3.685 -1.0348  0.0621 -0.1449
  152OSM    H6S16886   3.448   1.078   3.718  0.0165  1.2058  3.5035
  152OSM    H6T16887   3.571   1.160   3.620  1.1851  2.0889  2.9321
  152OSM    C7S16888   3.632   1.102   3.818  0.1112  0.1442  0.2975
  152OSM    H7S16889   3.740   1.077   3.813 -0.0978 -0.7909  0.3364
  152OSM    H7T16890   3.582   1.043   3.898 -1.1911 -0.5087 -0.9456
  152OSM    C8S16891   3.614   1.245   3.859 -0.0807 -0.2600  0.2247
  152OSM    H8S16892   3.508   1.275   3.873  0.0817  0.7884 -0.6198
  152OSM    H8T16893   3.649   1.316   3.781 -1.2427 -0.1787 -0.2507
  152OSM    C9S16894   3.687   1.288   3.989  0.0123 -0.1092  0.2285
  152OSM    H9S16895   3.691   1.399   3.999 -1.4163 -0.1740  1.8559
  152OSM    H9T16896   3.788   1.245   3.974 -0.5555 -1.4825  0.2117
  152OSM   C10S16897   3.623   1.221   4.120 -0.2130  0.6435  0.8673
  152OSM   H10S16898   3.630   1.111   4.104  1.2624  0.7408  0.7676
  152OSM   H10T16899   3.518   1.257   4.126 -0.6365  0.0636 -1.7205
  152OSM   C11S16900   3.701   1.257   4.243 -1.0716  0.8634  0.1211
  152OSM   H11S16901   3.802   1.214   4.223 -0.1536  2.7477  0.4859
  152OSM   H11T16902   3.662   1.219   4.339  1.0623 -1.9625 -0.0134
  152OSM   C12S16903   3.735   1.400   4.269 -0.1719  0.0464 -0.1116
  152OSM   H12S16904   3.633   1.444   4.267 -0.4299 -0.3085 -4.2636
  152OSM   H12T16905   3.790   1.448   4.186  1.4412 -0.0410  0.8743
  152OSM   C13S16906   3.809   1.439   4.395 -0.5395 -0.3494 -0.8198
  152OSM   H13S16907   3.830   1.548   4.389  0.3679 -0.4561 -0.0082
  152OSM   H13T16908   3.909   1.391   4.408 -0.3118  0.4763  0.7284
  152OSM   C14S16909   3.735   1.408   4.528 -0.4096 -0.0233  0.4163
  152OSM   H14S16910   3.642   1.353   4.501 -1.4887  1.3354  1.2578
  152OSM   H14T16911   3.709   1.500   4.584 -1.7606  0.4169 -0.8879
  152OSM   C15S16912   3.808   1.331   4.634  0.7904 -0.1304 -0.1496
  152OSM   H15S16913   3.903   1.388   4.642 -0.9465  3.2933 -1.7578
  152OSM   H15T16914   3.830   1.233   4.585 -1.2393 -2.6485  3.5259
  152OSM   C16S16915   3.731   1.327   4.762  0.3792  0.4088 -0.4328
  152OSM   H16S16916   3.647   1.259   4.738  0.7101 -0.2444  0.2330
  152OSM   H16T16917   3.690   1.428   4.783  1.2883  0.7650 -0.3189
  152OSM   C17S16918   3.802   1.274   4.886 -0.6533 -0.1328  1.3153
  152OSM   H17S16919   3.893   1.338   4.893 -0.2480 -0.6951  1.1962
  152OSM   H17T16920   3.841   1.171   4.872  0.2172  0.4217 -0.7067
  152OSM   C18S16921   3.724   1.284   5.015  0.0833  0.1860 -0.3599
  152OSM   H18S16922   3.656   1.199   5.030 -0.6629  0.6979 -0.7710
  152OSM   H18T16923   3.665   1.378   5.021  0.5315  0.7257 -3.1674
  152OSM   H18U16924   3.797   1.284   5.099 -0.8402  0.8609  0.4719
  152OSM    C1F16925   3.644   0.526   3.866 -0.2880  0.0979 -0.5698
  152OSM     OF16926   3.761   0.508   3.848 -0.0921  0.6032 -0.4761
  152OSM    C2F16927   3.583   0.492   4.003 -0.6871 -0.7159 -0.3577
  152OSM    H2F16928   3.528   0.396   4.000  0.8665 -1.7015  1.1611
  152OSM    H2G16929   3.509   0.573   4.022  1.0063  0.7899  0.0612
  152OSM    C3F16930   3.683   0.493   4.121 -0.3250  0.0964  0.0055
  152OSM    H3F16931   3.732   0.593   4.116  0.3390 -0.2817 -1.6101
  152OSM    H3G16932   3.766   0.420   4.114 -0.0132  0.3543  0.8507
  152OSM    C4F16933   3.620   0.473   4.258  0.0475 -0.1076  0.2531
  152OSM    H4F16934   3.572   0.373   4.267  2.8564 -1.6087 -0.2439
  152OSM    H4G16935   3.540   0.549   4.270  0.7812  0.3561  2.9700
  152OSM    C5F16936   3.718   0.497   4.372 -0.6569  0.6266  0.5798
  152OSM    H5F16937   3.746   0.604   4.371  2.8328 -0.1593  0.9563
  152OSM    H5G16938   3.801   0.428   4.344 -3.9053 -3.3873 -0.2027
  152OSM    C6F16939   3.664   0.458   4.507 -0.0345  0.2781  0.6324
  152OSM    H6F16940   3.653   0.348   4.499  1.2240  0.2051 -0.5782
  152OSM    H6G16941   3.572   0.516   4.529 -1.0109 -1.5578  1.5382
  152OSM    C7F16942   3.774   0.492   4.608 -0.1568 -0.1940 -0.0129
  152OSM    H7F16943   3.774   0.603   4.609  1.1962 -0.1026 -2.5828
  152OSM    H7G16944   3.873   0.455   4.574 -0.5949  1.1186 -3.0233
  152OSM    C8F16945   3.743   0.429   4.742 -0.0186 -0.2549  0.1467
  152OSM    H8F16946   3.644   0.462   4.778 -0.4791  0.2185 -1.4748
  152OSM    H8G16947   3.814   0.467   4.819  0.0288 -0.8576  0.4085
  152OSM    C9F16948   3.750   0.278   4.747 -0.3674 -0.8407  0.2367
  152OSM    H9F16949   3.821   0.240   4.672  0.6304  1.7989 -0.2603
  152OSM   C10F16950   3.682   0.202   4.834  1.1927 -0.3415  0.0293
  152OSM   H10F16951   3.687   0.092   4.839  2.2796 -0.3019 -0.1006
  152OSM   C11F16952   3.585   0.251   4.936 -0.4945 -0.0217 -0.1595
  152OSM   H11F16953   3.508   0.171   4.940 -1.3093  0.6058 -1.9336
  152OSM   H11G16954   3.547   0.354   4.914  1.7814  1.0920  0.8432
  152OSM   C12F16955   3.661   0.276   5.071  0.2456  0.6003 -0.0225
  152OSM   H12F16956   3.759   0.328   5.061  1.4608 -1.6142 -0.3419
  152OSM   H12G16957   3.685   0.180   5.122 -0.5283  0.4842  0.1336
  152OSM   C13F16958   3.565   0.338   5.179 -0.4419 -0.5969 -0.5131
  152OSM   H13F16959   3.473   0.276   5.186  0.9885 -2.7501  0.3409
  152OSM   H13G16960   3.542   0.445   5.158  0.9890  0.1112  1.3103
  152OSM   C14F16961   3.636   0.334   5.315  0.6394  1.0302  0.0171
  152OSM   H14F16962   3.600   0.413   5.384  2.3965  1.7074  0.1948
  152OSM   H14G16963   3.741   0.344   5.281 -0.0330  0.2617 -2.5004
  152OSM   C15F16964   3.624   0.200   5.395  0.4353 -0.4033 -0.2400
  152OSM   H15F16965   3.673   0.212   5.494  3.6310 -0.9740 -1.6229
  152OSM   H15G16966   3.694   0.130   5.344  0.7806  0.7625 -1.4288
  152OSM   C16F16967   3.485   0.151   5.432 -0.3920 -0.2848  0.6018
  152OSM   H16F16968   3.418   0.113   5.351  1.9493 -1.4573 -0.8879
  152OSM   H16G16969   3.441   0.232   5.495  1.7653  2.3108 -1.0251
  152OSM   C17F16970   3.494   0.032   5.531 -0.2954 -0.2223 -0.1534
  152OSM   H17F16971   3.567   0.062   5.609 -0.2945  3.6379 -1.4221
  152OSM   H17G16972   3.540  -0.056   5.480 -2.4778 -2.1651  1.0506
  152OSM   C18F16973   3.361  -0.019   5.591  0.7208  0.2649  0.5358
  152OSM   H18F16974   3.380  -0.100   5.665  1.0687  0.4106  0.6081
  152OSM   H18G16975   3.294  -0.047   5.507  1.1623  0.9583 -0.0592
  152OSM   H18H16976   3.306   0.068   5.633  2.6800  1.7919  0.0842
  153OSM      N16977   3.354   0.981   3.131  0.4791  0.8113  0.8312
  153OSM    C1516978   3.305   1.116   3.123  0.2426  0.4960 -0.3133
  153OSM   H15A16979   3.357   1.189   3.182  0.5050  0.7279 -0.8256
  153OSM   H15B16980   3.203   1.119   3.158  0.2898  0.2306 -0.1520
  153OSM   H15C16981   3.290   1.163   3.027 -0.6569 -1.0255 -0.9654
  153OSM    C1416982   3.260   0.888   3.059  0.1851  0.1833 -0.2822
  153OSM   H14A16983   3.298   0.787   3.067 -1.0758 -0.6138 -3.1748
  153OSM   H14B16984   3.247   0.917   2.956 -0.3833  1.2505  0.0819
  153OSM   H14C16985   3.164   0.904   3.104  0.0133 -0.0364 -0.5677
  153OSM    C1316986   3.485   0.976   3.053 -0.2523  0.1155 -0.3443
  153OSM   H13A16987   3.475   1.026   2.957 -0.4497 -2.1043 -1.5487
  153OSM   H13B16988   3.515   0.873   3.050  0.2599  0.2875 -1.4983
  153OSM   H13C16989   3.559   1.025   3.114  1.4256 -1.6767 -0.8521
  153OSM    C1216990   3.369   0.938   3.273  0.9342 -0.4061  0.2948
  153OSM   H12A16991   3.444   1.003   3.316  1.1696  1.0387 -2.1228
  153OSM   H12B16992   3.405   0.837   3.287  0.8906 -0.6127 -0.9891
  153OSM    C1116993   3.251   0.958   3.380 -0.7890 -0.1220  0.3948
  153OSM   H11A16994   3.230   1.062   3.410 -2.9172 -0.6567  0.9441
  153OSM   H11B16995   3.275   0.897   3.469  0.7870 -0.5353 -0.2699
  153OSM      P16996   2.990   0.907   3.385  0.2868 -0.2460  0.4630
  153OSM    O1316997   2.924   1.033   3.366  0.3173  0.3464  0.0715
  153OSM    O1416998   2.912   0.797   3.323 -0.4021 -1.2617  0.4384
  153OSM    O1116999   3.009   0.875   3.540  0.0696 -0.0278  0.1707
  153OSM    O1217000   3.133   0.913   3.325 -0.0815 -0.3469  0.5534
  153OSM    C1S17001   3.047   0.737   3.575 -0.2342  0.4177  0.3539
  153OSM    H1S17002   3.155   0.735   3.600 -0.7671  1.4618  3.1192
  153OSM    H1T17003   3.018   0.664   3.497 -2.7703  1.2997  0.3831
  153OSM     NF17004   3.042   0.573   3.764 -0.5909 -0.0884  0.4140
  153OSM    HNF17005   2.979   0.496   3.758 -0.9175  0.2284 -0.5691
  153OSM    C2S17006   2.984   0.698   3.709 -0.2531  0.0412 -0.7939
  153OSM    H2S17007   3.013   0.772   3.787  0.0600  0.4403 -1.2827
  153OSM    C3S17008   2.830   0.709   3.708  0.1082  0.0346 -0.6478
  153OSM    H3S17009   2.787   0.634   3.638  1.2187 -0.1985 -1.0985
  153OSM     O317010   2.783   0.830   3.647  0.2117 -0.0051 -0.0814
  153OSM    HO317011   2.853   0.857   3.587  0.6411 -0.2955  0.2833
  153OSM    C4S17012   2.769   0.698   3.846 -0.2074  1.4119  0.6426
  153OSM    H4S17013   2.712   0.606   3.864  1.0128 -0.0816 -2.2968
  153OSM    C5S17014   2.762   0.794   3.939 -0.6596  0.5883  0.1961
  153OSM    H5S17015   2.809   0.891   3.916  0.3190 -0.6198 -3.7144
  153OSM    C6S17016   2.692   0.774   4.071 -0.7414 -0.0190 -0.0607
  153OSM    H6S17017   2.639   0.676   4.069 -1.5381  0.3710  0.9635
  153OSM    H6T17018   2.617   0.854   4.087 -3.3608 -2.7609  2.8136
  153OSM    C7S17019   2.794   0.771   4.185  0.6917 -0.5101  0.2875
  153OSM    H7S17020   2.841   0.866   4.218  0.4797 -0.3757  0.2035
  153OSM    H7T17021   2.864   0.688   4.162  0.5482 -0.6725  0.4336
  153OSM    C8S17022   2.725   0.726   4.320 -0.5679  0.2386 -0.4075
  153OSM    H8S17023   2.640   0.665   4.283  1.0278 -0.4755 -3.1757
  153OSM    H8T17024   2.677   0.815   4.367  1.2058 -0.6377  3.4485
  153OSM    C9S17025   2.819   0.651   4.416  0.3700 -0.1638 -0.5177
  153OSM    H9S17026   2.897   0.724   4.446 -1.0188  0.9001  0.6560
  153OSM    H9T17027   2.861   0.563   4.363 -0.7940 -0.8915 -0.2570
  153OSM   C10S17028   2.752   0.596   4.544  0.4310 -0.2340  0.0287
  153OSM   H10S17029   2.726   0.490   4.524  0.0916 -0.0419 -0.5991
  153OSM   H10T17030   2.656   0.650   4.554 -0.6413 -1.8479 -1.0946
  153OSM   C11S17031   2.832   0.628   4.668 -0.2554 -0.2047  0.7167
  153OSM   H11S17032   2.844   0.739   4.666 -1.3537 -0.0743 -1.8095
  153OSM   H11T17033   2.933   0.581   4.663 -1.2282 -2.4773  1.1350
  153OSM   C12S17034   2.749   0.598   4.796  0.2908 -0.5139 -0.3506
  153OSM   H12S17035   2.715   0.492   4.786 -1.3797 -0.2194  1.5685
  153OSM   H12T17036   2.658   0.661   4.784  0.7285  0.1982  0.0728
  153OSM   C13S17037   2.805   0.628   4.936 -0.1051  0.5633 -1.0301
  153OSM   H13S17038   2.840   0.733   4.943  2.9504 -0.4196  0.3982
  153OSM   H13T17039   2.889   0.558   4.954 -0.1606  0.6723 -0.3389
  153OSM   C14S17040   2.712   0.597   5.054  0.6719  0.4817  0.3423
  153OSM   H14S17041   2.668   0.498   5.028 -0.3624  1.0227  0.0007
  153OSM   H14T17042   2.629   0.670   5.056 -1.8828 -2.1616 -1.2099
  153OSM   C15S17043   2.790   0.592   5.179  0.9668  0.4911 -0.0942
  153OSM   H15S17044   2.839   0.688   5.205  1.4487 -0.4250  2.7733
  153OSM   H15T17045   2.857   0.504   5.179 -1.5276 -1.5412 -0.9710
  153OSM   C16S17046   2.694   0.561   5.295 -0.4306 -0.2661  0.3091
  153OSM   H16S17047   2.618   0.486   5.264 -0.9032  0.1923  0.3335
  153OSM   H16T17048   2.635   0.653   5.317 -1.9001 -0.3729 -2.7201
  153OSM   C17S17049   2.766   0.498   5.414 -0.3751  0.0113  0.0829
  153OSM   H17S17050   2.845   0.568   5.451  0.1945  0.6823 -2.2384
  153OSM   H17T17051   2.807   0.402   5.376  0.1503 -0.0441  0.7534
  153OSM   C18S17052   2.658   0.474   5.521 -0.5422  0.2577 -0.1837
  153OSM   H18S17053   2.620   0.567   5.570  1.8175 -0.4538  3.3832
  153OSM   H18T17054   2.699   0.406   5.598  3.9908 -0.4972 -2.8890
  153OSM   H18U17055   2.575   0.418   5.474  0.8590 -0.7710 -1.5465
  153OSM    C1F17056   3.171   0.552   3.799 -0.2748 -0.2358  0.1898
  153OSM     OF17057   3.251   0.641   3.808 -0.8406 -0.7346 -0.1520
  153OSM    C2F17058   3.213   0.407   3.811  0.5815 -0.3512  0.2979
  153OSM    H2F17059   3.315   0.392   3.771 -0.1284 -3.2509 -0.6566
  153OSM    H2G17060   3.148   0.353   3.739  0.6123  1.2769 -1.0048
  153OSM    C3F17061   3.219   0.346   3.953  0.0072 -0.3035 -0.6743
  153OSM    H3F17062   3.286   0.407   4.018  0.2972 -0.4267 -0.8515
  153OSM    H3G17063   3.275   0.250   3.949  1.4979  0.5545 -1.2390
  153OSM    C4F17064   3.089   0.335   4.034  0.3231  0.0170  0.4850
  153OSM    H4F17065   3.019   0.271   3.976 -0.0442 -1.0609  2.0495
  153OSM    H4G17066   3.040   0.431   4.061 -1.9645 -0.8432 -0.3651
  153OSM    C5F17067   3.112   0.270   4.173  0.1539  0.7132 -0.0893
  153OSM    H5F17068   3.182   0.185   4.162  1.1944  1.5189  0.1870
  153OSM    H5G17069   3.017   0.223   4.209  0.0383  0.4551 -0.7143
  153OSM    C6F17070   3.161   0.356   4.283 -0.0472  0.6150 -0.3092
  153OSM    H6F17071   3.092   0.436   4.317  0.2795  0.0928  1.6700
  153OSM    H6G17072   3.252   0.407   4.246  1.2787 -1.3268  0.0941
  153OSM    C7F17073   3.192   0.292   4.422  0.6428  0.8919 -0.4112
  153OSM    H7F17074   3.257   0.202   4.417  2.2109  1.9162  0.5037
  153OSM    H7G17075   3.101   0.258   4.475  2.3491 -0.9611  1.5078
  153OSM    C8F17076   3.274   0.396   4.501 -0.2869 -0.0252 -0.4858
  153OSM    H8F17077   3.205   0.480   4.524  0.8174  0.8186 -0.1526
  153OSM    H8G17078   3.358   0.440   4.444  0.0857 -0.2957 -0.1510
  153OSM    C9F17079   3.332   0.350   4.637  0.0903 -0.0867 -0.4450
  153OSM    H9F17080   3.436   0.314   4.635  0.2318  0.1958  1.1135
  153OSM   C10F17081   3.262   0.350   4.753 -0.1744 -0.5644 -0.3706
  153OSM   H10F17082   3.305   0.327   4.851 -0.0429  0.4129 -0.1921
  153OSM   C11F17083   3.112   0.376   4.777  0.1516  0.4604 -0.9592
  153OSM   H11F17084   3.057   0.346   4.686  0.9644  0.2058 -1.3756
  153OSM   H11G17085   3.098   0.483   4.802 -1.0131  0.0508  0.3257
  153OSM   C12F17086   3.063   0.310   4.905 -0.0455  0.2053 -0.8319
  153OSM   H12F17087   3.071   0.200   4.920  1.8844  0.8384  6.1331
  153OSM   H12G17088   2.957   0.343   4.908 -0.4187 -0.7877 -1.8610
  153OSM   C13F17089   3.132   0.359   5.037  0.3976  0.6505 -0.0282
  153OSM   H13F17090   3.080   0.450   5.074  1.2694  0.6063  1.4069
  153OSM   H13G17091   3.237   0.394   5.026  0.2173  0.6002 -2.1902
  153OSM   C14F17092   3.138   0.244   5.139  0.1596  0.0161  0.2778
  153OSM   H14F17093   3.219   0.174   5.114 -0.0923 -1.2700  2.6874
  153OSM   H14G17094   3.048   0.180   5.155 -0.0862  0.3753  0.3627
  153OSM   C15F17095   3.175   0.281   5.281 -0.5199 -0.5720  0.4835
  153OSM   H15F17096   3.277   0.324   5.292 -0.0690 -1.4389 -0.1551
  153OSM   H15G17097   3.191   0.185   5.335 -2.0279 -0.2589  1.5662
  153OSM   C16F17098   3.078   0.364   5.359  0.0070 -0.0952 -0.7637
  153OSM   H16F17099   2.982   0.311   5.349 -0.8031  1.0978  0.3519
  153OSM   H16G17100   3.065   0.465   5.315  0.7356  0.3441 -0.0177
  153OSM   C17F17101   3.120   0.388   5.505  0.2441 -0.4529 -0.2842
  153OSM   H17F17102   3.088   0.489   5.538 -0.5424 -0.6696 -0.3417
  153OSM   H17G17103   3.229   0.370   5.502  0.3899  0.2520  0.5215
  153OSM   C18F17104   3.060   0.276   5.605 -0.2461  0.3036 -0.3473
  153OSM   H18F17105   3.073   0.299   5.713 -2.0549  1.4921 -0.3491
  153OSM   H18G17106   3.083   0.168   5.596  1.6573  0.4108  2.0595
  153OSM   H18H17107   2.950   0.283   5.590 -0.1182  2.7409 -0.6038
  154OSM      N17108   2.034   5.711   2.989 -0.0183  0.0258  0.0362
  154OSM    C1517109   2.165   5.672   2.917  0.2994 -0.1502 -0.4155
  154OSM   H15A17110   2.249   5.700   2.979 -1.2224  0.9976  1.2475
  154OSM   H15B17111   2.147   5.705   2.816 -4.4025 -0.2531  0.1562
  154OSM   H15C17112   2.160   5.564   2.907 -0.4346 -0.0754 -0.8708
  154OSM    C1417113   2.039   5.676   3.136 -0.3316 -0.1532  0.3729
  154OSM   H14A17114   2.120   5.734   3.178 -0.6352 -0.0596  0.8354
  154OSM   H14B17115   2.057   5.570   3.147 -1.3124 -0.4406 -0.7199
  154OSM   H14C17116   1.952   5.707   3.192 -1.5690 -0.5362 -1.2886
  154OSM    C1317117   2.015   5.864   2.966 -0.2404  0.1025 -0.8837
  154OSM   H13A17118   1.933   5.906   3.023  0.8755 -1.0458  1.7565
  154OSM   H13B17119   2.001   5.897   2.865 -0.0728  0.3194 -0.8374
  154OSM   H13C17120   2.112   5.906   2.991  0.3492 -0.6942 -1.7800
  154OSM    C1217121   1.930   5.632   2.924 -0.0642  1.2929 -0.8404
  154OSM   H12A17122   1.949   5.652   2.819  1.9678  1.5233 -0.4734
  154OSM   H12B17123   1.834   5.677   2.945  0.0275  0.5680  1.4337
  154OSM    C1117124   1.926   5.475   2.959  0.4955  0.4215 -0.2231
  154OSM   H11A17125   1.847   5.413   2.911  0.0111  0.3002  0.7057
  154OSM   H11B17126   1.908   5.464   3.068 -2.9123  1.1084 -0.6061
  154OSM      P17127   2.077   5.251   2.945  0.4352  0.0501  0.2907
  154OSM    O1317128   1.982   5.171   2.870  0.6648 -0.7542  0.0359
  154OSM    O1417129   2.216   5.227   2.910 -0.3077 -0.0359 -0.1017
  154OSM    O1117130   2.062   5.227   3.099 -0.1126  0.1915 -0.4847
  154OSM    O1217131   2.049   5.411   2.926 -0.0293  0.4051 -0.7068
  154OSM    C1S17132   1.942   5.160   3.143 -0.1180  0.0465 -0.5299
  154OSM    H1S17133   1.939   5.063   3.090 -0.4231 -1.7377  2.5409
  154OSM    H1T17134   1.854   5.225   3.125  0.8099  0.7506 -3.0225
  154OSM     NF17135   1.828   5.076   3.359  0.2758  0.2742  0.6642
  154OSM    HNF17136   1.775   5.128   3.425  0.4676 -2.1303  2.8548
  154OSM    C2S17137   1.948   5.144   3.301  0.9921  0.1589 -0.0835
  154OSM    H2S17138   2.032   5.077   3.330  0.5079  0.1450  1.4197
  154OSM    C3S17139   1.967   5.278   3.378  0.0733 -0.0955 -0.6267
  154OSM    H3S17140   1.871   5.333   3.368  0.9183  1.8395  1.0647
  154OSM     O317141   2.072   5.365   3.322  0.3966  0.2110  0.2473
  154OSM    HO317142   2.094   5.319   3.240  1.5403 -0.6148  0.9968
  154OSM    C4S17143   1.996   5.247   3.525  0.1882 -0.8560 -0.2848
  154OSM    H4S17144   1.911   5.242   3.595  2.0171  2.3699  2.4435
  154OSM    C5S17145   2.113   5.223   3.581 -0.0206 -0.4074  0.1131
  154OSM    H5S17146   2.199   5.201   3.516 -0.6786 -3.7528  0.1801
  154OSM    C6S17147   2.143   5.198   3.730  0.0617 -0.1960 -0.0709
  154OSM    H6S17148   2.242   5.247   3.742  0.0999 -0.6012  1.4693
  154OSM    H6T17149   2.152   5.090   3.751  1.4430  0.3279  2.3911
  154OSM    C7S17150   2.046   5.265   3.829 -0.5325  0.4635 -0.9219
  154OSM    H7S17151   1.945   5.223   3.808 -0.2047 -1.5135  1.0586
  154OSM    H7T17152   2.041   5.375   3.817 -1.3063  0.4604 -0.6855
  154OSM    C8S17153   2.098   5.256   3.974  0.5205 -0.4864 -0.8301
  154OSM    H8S17154   2.188   5.321   3.981  1.0386 -1.1404 -1.2389
  154OSM    H8T17155   2.132   5.152   3.993 -0.1849 -0.4656  0.6605
  154OSM    C9S17156   1.984   5.294   4.072  0.3965  0.1401 -0.5864
  154OSM    H9S17157   1.892   5.244   4.035  0.5925  0.3382 -1.3625
  154OSM    H9T17158   1.973   5.403   4.092 -1.0716  0.0384 -0.6953
  154OSM   C10S17159   2.016   5.226   4.209 -0.3315 -0.1692 -0.2355
  154OSM   H10S17160   2.113   5.263   4.247 -0.1595 -0.4082 -0.4379
  154OSM   H10T17161   2.022   5.115   4.195  0.3614 -0.1866  0.1848
  154OSM   C11S17162   1.914   5.249   4.325 -0.3913 -0.0392 -0.0860
  154OSM   H11S17163   1.812   5.238   4.284 -0.0913  0.9040 -1.1220
  154OSM   H11T17164   1.933   5.355   4.350  1.0428 -0.2166 -0.3285
  154OSM   C12S17165   1.952   5.160   4.447  0.0904 -0.4091  0.1191
  154OSM   H12S17166   2.063   5.165   4.456  0.0848  0.9016 -0.3551
  154OSM   H12T17167   1.920   5.054   4.434 -0.1737 -0.4328  0.9139
  154OSM   C13S17168   1.899   5.204   4.579  0.7049  0.1927 -0.1169
  154OSM   H13S17169   1.791   5.183   4.587  0.7473 -0.3238 -0.8131
  154OSM   H13T17170   1.914   5.313   4.595  0.4893  0.2084 -0.0199
  154OSM   C14S17171   1.963   5.120   4.689 -0.3475 -0.4098  0.0578
  154OSM   H14S17172   2.054   5.164   4.736 -1.1599  0.4688  0.8635
  154OSM   H14T17173   1.983   5.018   4.651  0.4649 -0.9165  1.7467
  154OSM   C15S17174   1.867   5.115   4.808 -0.3466 -0.9733  0.2833
  154OSM   H15S17175   1.784   5.047   4.777 -1.4944  0.3238  0.4236
  154OSM   H15T17176   1.829   5.217   4.828  0.3273 -0.9352  1.4258
  154OSM   C16S17177   1.927   5.060   4.928 -0.6964  0.1067 -0.2449
  154OSM   H16S17178   2.010   5.126   4.963  0.6370 -1.7945  0.3388
  154OSM   H16T17179   1.954   4.953   4.913 -0.1630  0.3106 -0.7752
  154OSM   C17S17180   1.821   5.053   5.045 -0.3708 -0.5988 -0.0211
  154OSM   H17S17181   1.727   4.998   5.022 -2.5354  2.8303 -0.0491
  154OSM   H17T17182   1.788   5.150   5.086 -0.8513 -1.0834  0.7612
  154OSM   C18S17183   1.883   4.986   5.173 -0.0655 -0.7101 -0.1953
  154OSM   H18S17184   1.820   4.986   5.264  1.2285  0.1484  0.7388
  154OSM   H18T17185   1.969   5.046   5.210  0.0710 -2.1744  2.0632
  154OSM   H18U17186   1.905   4.879   5.151 -0.6756 -0.9268  0.2197
  154OSM    C1F17187   1.799   4.946   3.331 -0.4146  0.3086 -0.3805
  154OSM     OF17188   1.889   4.877   3.286  0.2101 -0.5989 -0.1316
  154OSM    C2F17189   1.660   4.893   3.365  0.2142  0.7424 -0.3911
  154OSM    H2F17190   1.608   4.893   3.267  1.4533  2.1266 -1.0831
  154OSM    H2G17191   1.599   4.952   3.438 -1.0829 -1.5548  0.4907
  154OSM    C3F17192   1.669   4.748   3.436 -0.5561 -0.2386 -0.2160
  154OSM    H3F17193   1.733   4.688   3.367  0.5153  2.8894 -2.1740
  154OSM    H3G17194   1.565   4.712   3.451  0.0877 -0.9142  3.7888
  154OSM    C4F17195   1.737   4.732   3.573  0.1612  0.0086  0.0898
  154OSM    H4F17196   1.688   4.796   3.649  0.8342 -0.0184  0.5540
  154OSM    H4G17197   1.843   4.764   3.568  0.2079 -0.1481  0.0666
  154OSM    C5F17198   1.737   4.578   3.611 -0.3746  0.1596 -0.7679
  154OSM    H5F17199   1.758   4.521   3.518 -0.8910  2.5969 -2.4803
  154OSM    H5G17200   1.641   4.535   3.648  1.1482 -1.6310  1.3678
  154OSM    C6F17201   1.843   4.555   3.718  0.2128  0.4964 -0.0176
  154OSM    H6F17202   1.829   4.628   3.801  0.8986  1.5607 -0.8033
  154OSM    H6G17203   1.939   4.586   3.672  1.9044 -1.1006  2.2464
  154OSM    C7F17204   1.861   4.412   3.768 -0.1534 -0.2345  0.0089
  154OSM    H7F17205   1.893   4.351   3.681 -0.3736  1.4741 -1.3235
  154OSM    H7G17206   1.769   4.354   3.790  1.9680 -4.2434 -0.8094
  154OSM    C8F17207   1.963   4.387   3.875 -0.4727 -0.3747 -0.5853
  154OSM    H8F17208   1.932   4.450   3.960  1.5829  1.0295 -0.8132
  154OSM    H8G17209   2.064   4.418   3.841 -1.0621  0.6852 -1.4252
  154OSM    C9F17210   1.967   4.246   3.908  0.2785 -0.1380 -0.4200
  154OSM    H9F17211   1.977   4.182   3.820 -0.6466 -0.1027 -0.5613
  154OSM   C10F17212   1.962   4.186   4.033 -0.1838  0.7866 -0.4922
  154OSM   H10F17213   1.967   4.076   4.041 -1.4325  0.7238 -0.4226
  154OSM   C11F17214   1.942   4.247   4.165 -0.7228  0.4193  0.1329
  154OSM   H11F17215   1.931   4.357   4.150 -0.4250  0.4588  0.1886
  154OSM   H11G17216   2.036   4.235   4.224 -1.8097 -1.3771  1.6025
  154OSM   C12F17217   1.811   4.205   4.236 -0.3032  1.2104 -0.1414
  154OSM   H12F17218   1.812   4.096   4.256 -0.7051  1.3032  0.4306
  154OSM   H12G17219   1.721   4.242   4.181  0.8636  2.4238 -1.3134
  154OSM   C13F17220   1.783   4.274   4.377  0.0855  0.6495  0.7669
  154OSM   H13F17221   1.801   4.383   4.362 -2.3953  0.7436 -2.9029
  154OSM   H13G17222   1.858   4.237   4.450  1.2459  2.9650  0.8366
  154OSM   C14F17223   1.650   4.235   4.434  0.0439  0.0367 -0.1612
  154OSM   H14F17224   1.623   4.130   4.411 -2.2191  0.9826 -2.1532
  154OSM   H14G17225   1.574   4.293   4.377  0.0569 -0.0959 -0.3123
  154OSM   C15F17226   1.627   4.265   4.581  0.0376 -0.0427 -0.0422
  154OSM   H15F17227   1.670   4.363   4.611  0.7915 -0.2703 -0.3604
  154OSM   H15G17228   1.689   4.193   4.639  2.5809  1.1636 -1.0945
  154OSM   C16F17229   1.478   4.243   4.629 -0.3394  0.2478 -0.0721
  154OSM   H16F17230   1.439   4.155   4.574 -1.4080 -0.9698  2.4479
  154OSM   H16G17231   1.417   4.331   4.599 -0.1133  0.2490 -0.5390
  154OSM   C17F17232   1.471   4.215   4.771  0.1711  0.6435 -0.4493
  154OSM   H17F17233   1.502   4.306   4.826  1.1946  0.2354 -0.3132
  154OSM   H17G17234   1.552   4.142   4.794 -0.3013  0.1038 -0.4549
  154OSM   C18F17235   1.337   4.166   4.815  0.2313 -0.2760 -0.4346
  154OSM   H18F17236   1.344   4.142   4.923  0.6644 -0.9694 -0.6076
  154OSM   H18G17237   1.301   4.080   4.756 -1.9824 -0.0574  0.5152
  154OSM   H18H17238   1.254   4.240   4.809  0.6190  0.3760  1.3495
  155OSM      N17239   2.498   1.880   3.143  0.7808  0.1140 -0.8772
  155OSM    C1517240   2.450   2.020   3.158  0.2525  0.6011 -0.3634
  155OSM   H15A17241   2.519   2.079   3.216  1.9734 -0.3681 -1.3454
  155OSM   H15B17242   2.358   2.037   3.212  0.7461 -2.1407  1.6127
  155OSM   H15C17243   2.445   2.068   3.062  1.2717 -0.2852 -0.8816
  155OSM    C1417244   2.393   1.803   3.070 -0.2673 -0.2246  0.0931
  155OSM   H14A17245   2.423   1.700   3.083  0.0274 -0.2979 -1.0091
  155OSM   H14B17246   2.398   1.829   2.965  1.4284  2.2267  0.6782
  155OSM   H14C17247   2.292   1.817   3.104  0.3433 -0.0143  1.9118
  155OSM    C1317248   2.629   1.875   3.069 -0.3507 -0.4688  0.0097
  155OSM   H13A17249   2.698   1.940   3.121 -1.7553  0.0776  1.2558
  155OSM   H13B17250   2.629   1.909   2.967 -1.5940 -0.0121  0.1444
  155OSM   H13C17251   2.674   1.777   3.072 -0.9946 -0.7452  1.4802
  155OSM    C1217252   2.505   1.812   3.275  1.0400  0.3651  0.3938
  155OSM   H12A17253   2.549   1.713   3.275  0.1695 -0.0586 -1.7746
  155OSM   H12B17254   2.408   1.795   3.318  2.2082  0.3316  3.2586
  155OSM    C1117255   2.574   1.887   3.387 -0.6265 -0.0939  0.1543
  155OSM   H11A17256   2.570   1.835   3.485 -4.3557  0.3280  0.3394
  155OSM   H11B17257   2.523   1.983   3.409  0.3082  0.5435 -0.3685
  155OSM      P17258   2.781   2.050   3.395 -0.2687 -0.5800  0.6536
  155OSM    O1317259   2.931   2.037   3.410 -0.2335  0.0529 -0.5050
  155OSM    O1417260   2.740   2.163   3.307  0.7349  0.2592  0.5096
  155OSM    O1117261   2.724   2.093   3.534  0.3768  0.2602 -0.2984
  155OSM    O1217262   2.716   1.912   3.349  0.0058 -0.5843  0.4024
  155OSM    C1S17263   2.767   2.039   3.658  0.0293  1.2217 -0.4387
  155OSM    H1S17264   2.877   2.027   3.651 -0.1197  0.2378 -1.6392
  155OSM    H1T17265   2.714   1.943   3.674 -0.2751  1.1562 -1.6771
  155OSM     NF17266   2.814   2.090   3.885 -0.1209 -0.4209  0.0989
  155OSM    HNF17267   2.760   2.046   3.956  0.8530  0.6376  1.5448
  155OSM    C2S17268   2.744   2.146   3.767 -0.4882  0.4522 -0.1092
  155OSM    H2S17269   2.789   2.244   3.741 -0.8883  0.8921  0.8056
  155OSM    C3S17270   2.593   2.167   3.789 -0.6675 -0.5375 -0.3479
  155OSM    H3S17271   2.545   2.075   3.829  3.0935 -1.3272  3.1147
  155OSM     O317272   2.524   2.205   3.672 -0.1425 -0.2635  0.0977
  155OSM    HO317273   2.571   2.165   3.598 -1.0732 -2.2750  0.5007
  155OSM    C4S17274   2.575   2.280   3.890  0.1227  0.1689  0.4392
  155OSM    H4S17275   2.573   2.379   3.842  0.1594 -1.0306 -2.2474
  155OSM    C5S17276   2.550   2.273   4.023  0.0289  0.5144 -0.3344
  155OSM    H5S17277   2.548   2.177   4.077  1.1089 -0.4308 -1.9056
  155OSM    C6S17278   2.522   2.395   4.104  0.2209 -0.0303  0.0286
  155OSM    H6S17279   2.414   2.391   4.131  0.4487  1.0640  1.1725
  155OSM    H6T17280   2.534   2.483   4.037 -2.1976  2.1401  2.2042
  155OSM    C7S17281   2.605   2.420   4.226  0.0311  0.4775  0.2943
  155OSM    H7S17282   2.626   2.522   4.265  0.6108 -0.0995  1.5529
  155OSM    H7T17283   2.707   2.378   4.214  0.4667  1.6198 -0.1487
  155OSM    C8S17284   2.536   2.340   4.345  0.2115 -0.8961 -0.5215
  155OSM    H8S17285   2.537   2.230   4.334 -1.5456 -1.2021  1.5648
  155OSM    H8T17286   2.430   2.372   4.355  0.9901  1.2538  2.0477
  155OSM    C9S17287   2.621   2.367   4.471 -0.0463 -0.2386 -0.3803
  155OSM    H9S17288   2.629   2.477   4.484  1.0297 -0.4605  1.1261
  155OSM    H9T17289   2.724   2.324   4.466  0.0260 -0.0814 -0.2866
  155OSM   C10S17290   2.558   2.321   4.601  0.6065 -0.3104  0.7104
  155OSM   H10S17291   2.526   2.214   4.603  0.0861 -0.1516  1.3755
  155OSM   H10T17292   2.466   2.382   4.614  0.9256  0.3606 -0.1152
  155OSM   C11S17293   2.649   2.350   4.725  0.0607 -0.2618 -0.4757
  155OSM   H11S17294   2.655   2.461   4.730  0.7968 -0.2869 -0.8030
  155OSM   H11T17295   2.746   2.309   4.693  1.6362  3.6247 -1.2602
  155OSM   C12S17296   2.599   2.284   4.855 -0.8037 -0.4274  0.1418
  155OSM   H12S17297   2.569   2.179   4.837  0.7771 -0.7709 -0.7046
  155OSM   H12T17298   2.512   2.343   4.891 -2.2420  0.5383 -4.2495
  155OSM   C13S17299   2.715   2.269   4.952 -0.1468  0.0688  0.0172
  155OSM   H13S17300   2.753   2.373   4.961 -0.7250  0.5676 -2.5717
  155OSM   H13T17301   2.794   2.210   4.901 -0.6811  0.1693 -0.9430
  155OSM   C14S17302   2.673   2.207   5.092 -0.1732  0.0157 -0.4251
  155OSM   H14S17303   2.625   2.110   5.067 -2.8473  1.1567 -0.1039
  155OSM   H14T17304   2.601   2.262   5.156 -0.4230 -0.4332 -0.3094
  155OSM   C15S17305   2.785   2.170   5.197  0.9456 -0.1359 -0.2277
  155OSM   H15S17306   2.871   2.119   5.148  2.2176 -1.3545  2.9764
  155OSM   H15T17307   2.742   2.100   5.272  1.8346  0.3762  0.7881
  155OSM   C16S17308   2.851   2.286   5.278  0.0331 -1.2208 -0.7533
  155OSM   H16S17309   2.892   2.363   5.210  0.6053 -0.8505  0.0014
  155OSM   H16T17310   2.938   2.239   5.329 -0.5264 -1.6251 -0.1476
  155OSM   C17S17311   2.748   2.355   5.374  0.0183 -0.6345  0.5108
  155OSM   H17S17312   2.690   2.275   5.424  2.3494 -2.1484  0.9497
  155OSM   H17T17313   2.679   2.422   5.319  2.7975  0.1013 -2.3706
  155OSM   C18S17314   2.821   2.439   5.473 -0.0523  0.6726  0.5357
  155OSM   H18S17315   2.743   2.490   5.533 -0.2134  0.5366  0.4451
  155OSM   H18T17316   2.892   2.507   5.422  0.2185 -1.0806 -1.5850
  155OSM   H18U17317   2.874   2.366   5.538 -0.6403 -2.3683 -2.0978
  155OSM    C1F17318   2.945   2.096   3.901 -0.5343  0.3611  0.7440
  155OSM     OF17319   3.012   2.162   3.820 -0.2987  0.0683 -0.4296
  155OSM    C2F17320   3.005   2.020   4.014  0.3799  0.1110  0.3072
  155OSM    H2F17321   3.099   1.971   3.978 -0.5788 -1.7561  0.2011
  155OSM    H2G17322   2.932   1.944   4.049 -0.9840  0.6578 -1.2108
  155OSM    C3F17323   3.006   2.117   4.136 -0.0753  0.3350 -0.5990
  155OSM    H3F17324   2.903   2.127   4.177  0.5358  1.9213  0.6594
  155OSM    H3G17325   3.052   2.216   4.116  3.1089 -1.1711 -1.3161
  155OSM    C4F17326   3.093   2.062   4.247 -0.6948  0.0683  0.6255
  155OSM    H4F17327   3.190   2.045   4.195 -0.4758  1.6884  0.4474
  155OSM    H4G17328   3.058   1.965   4.287  0.9220 -0.4539  0.8349
  155OSM    C5F17329   3.109   2.157   4.365 -0.4486  0.0650  0.1503
  155OSM    H5F17330   3.007   2.151   4.409 -0.8473 -1.8065 -0.9193
  155OSM    H5G17331   3.138   2.258   4.330 -0.8102 -0.2309 -1.0288
  155OSM    C6F17332   3.216   2.098   4.466 -0.3334  0.0835  0.3931
  155OSM    H6F17333   3.320   2.108   4.427  0.2352 -2.2185  1.1905
  155OSM    H6G17334   3.185   1.993   4.485  0.4817  0.2559  3.0682
  155OSM    C7F17335   3.210   2.160   4.607 -0.4452  0.0211  0.2564
  155OSM    H7F17336   3.242   2.267   4.608  4.2129 -1.1195  1.9789
  155OSM    H7G17337   3.277   2.101   4.673  0.2550  0.2404 -0.2448
  155OSM    C8F17338   3.074   2.158   4.688 -0.1170 -0.0306  0.1636
  155OSM    H8F17339   3.027   2.058   4.679 -0.6334  0.3343 -1.7641
  155OSM    H8G17340   3.013   2.232   4.632 -0.6454  0.4096  1.2909
  155OSM    C9F17341   3.102   2.211   4.828  0.1742  0.3681  1.0860
  155OSM    H9F17342   3.098   2.321   4.840  1.8440  0.8097 -1.5237
  155OSM   C10F17343   3.128   2.134   4.939 -0.2096 -0.3542  0.1349
  155OSM   H10F17344   3.148   2.197   5.028  3.1003  2.0627 -2.0803
  155OSM   C11F17345   3.140   1.980   4.955  0.0672 -0.1934  0.1355
  155OSM   H11F17346   3.243   1.970   4.994  0.4471  1.3477 -0.4115
  155OSM   H11G17347   3.124   1.925   4.859 -0.3751  0.5278 -0.2124
  155OSM   C12F17348   3.048   1.931   5.070 -0.1188  0.1934  0.5007
  155OSM   H12F17349   3.052   1.820   5.070  0.1937  0.2009  1.0045
  155OSM   H12G17350   2.947   1.967   5.041 -0.0683 -2.2270 -3.3358
  155OSM   C13F17351   3.093   1.976   5.215  0.2481 -0.2529 -0.7766
  155OSM   H13F17352   3.068   2.084   5.224 -2.0558 -0.8721  1.3710
  155OSM   H13G17353   3.200   1.958   5.239 -0.5173 -1.5709  2.0625
  155OSM   C14F17354   3.020   1.897   5.328 -0.1451  0.7968  0.2907
  155OSM   H14F17355   2.913   1.926   5.319  0.0973  1.9890  0.9836
  155OSM   H14G17356   3.045   1.932   5.430 -0.8529 -2.0827  1.5457
  155OSM   C15F17357   3.026   1.746   5.320  0.4207 -0.6966  0.0741
  155OSM   H15F17358   3.134   1.720   5.316  0.9814  0.2676  4.0235
  155OSM   H15G17359   2.995   1.703   5.223  0.8967  0.7832 -0.7566
  155OSM   C16F17360   2.960   1.669   5.436  0.7016  0.6089 -0.0823
  155OSM   H16F17361   2.855   1.700   5.452  0.3706 -0.3273 -0.3513
  155OSM   H16G17362   3.010   1.712   5.526 -0.7612 -1.2420  1.7255
  155OSM   C17F17363   2.984   1.520   5.424 -0.1690  0.5722 -0.4796
  155OSM   H17F17364   3.095   1.508   5.426 -0.3796 -2.3677 -1.2464
  155OSM   H17G17365   2.959   1.466   5.330  1.8189 -0.8808 -0.2631
  155OSM   C18F17366   2.927   1.433   5.538 -0.1841 -0.2369 -0.5076
  155OSM   H18F17367   2.951   1.491   5.629  1.0675  1.1689 -1.6708
  155OSM   H18G17368   2.970   1.331   5.536 -0.6010 -0.4352  0.1914
  155OSM   H18H17369   2.818   1.422   5.517 -0.1044 -0.7266 -0.6745
  156OSM      N17370   6.409   0.397   2.981  0.3097 -0.1922  0.2172
  156OSM    C1517371   6.540   0.369   2.904  0.4684  0.3437  0.1765
  156OSM   H15A17372   6.518   0.323   2.809 -0.3177 -1.2506  1.0876
  156OSM   H15B17373   6.601   0.301   2.962 -2.4334 -2.3765  0.3439
  156OSM   H15C17374   6.589   0.464   2.886 -0.3085  0.8291  0.5331
  156OSM    C1417375   6.328   0.271   2.994 -0.0352  1.1323  0.4101
  156OSM   H14A17376   6.288   0.251   2.896  0.1636 -3.3060  1.0247
  156OSM   H14B17377   6.248   0.285   3.066 -0.9519 -1.0598 -0.0781
  156OSM   H14C17378   6.392   0.194   3.034 -1.9624 -0.6780  0.1733
  156OSM    C1317379   6.450   0.425   3.124  0.0356 -0.2343  0.3379
  156OSM   H13A17380   6.520   0.507   3.122 -1.0188  0.7317  1.2889
  156OSM   H13B17381   6.490   0.349   3.190 -0.5192 -0.8248  0.0068
  156OSM   H13C17382   6.366   0.470   3.176 -0.1287 -0.3477  0.1692
  156OSM    C1217383   6.326   0.506   2.914 -0.4118  0.0382 -0.3140
  156OSM   H12A17384   6.322   0.481   2.809  2.9289 -0.4426 -0.4514
  156OSM   H12B17385   6.382   0.599   2.915  1.5777 -1.0970  0.9772
  156OSM    C1117386   6.187   0.537   2.977 -0.5399  0.2478 -0.0676
  156OSM   H11A17387   6.130   0.442   2.984 -1.8606  0.9246 -1.2037
  156OSM   H11B17388   6.129   0.595   2.903  1.3073 -0.0626 -1.8536
  156OSM      P17389   6.066   0.650   3.167 -0.1421  0.3021 -0.0438
  156OSM    O1317390   6.014   0.778   3.124 -0.2975  0.0452  0.1717
  156OSM    O1417391   5.985   0.527   3.157 -0.1498 -0.1461 -0.3868
  156OSM    O1117392   6.106   0.662   3.320  0.3521 -0.1820  0.3179
  156OSM    O1217393   6.205   0.620   3.094  0.2046 -0.0636 -0.1899
  156OSM    C1S17394   6.226   0.738   3.350  0.1905  0.2536 -0.6792
  156OSM    H1S17395   6.205   0.847   3.353 -0.8273  0.0902 -1.4075
  156OSM    H1T17396   6.311   0.723   3.279  0.4101  0.5275 -0.4739
  156OSM     NF17397   6.359   0.795   3.556 -1.0211  0.5278  0.0713
  156OSM    HNF17398   6.459   0.792   3.553 -1.0756 -1.5955 -1.7644
  156OSM    C2S17399   6.283   0.692   3.489 -0.6201  0.1089  0.1576
  156OSM    H2S17400   6.196   0.657   3.549 -0.5461  1.1096  0.8710
  156OSM    C3S17401   6.369   0.561   3.464 -0.1711  0.1032 -0.5266
  156OSM    H3S17402   6.455   0.592   3.400 -0.0555 -0.3545 -0.5965
  156OSM     O317403   6.306   0.464   3.383 -0.3721  0.2542  0.1086
  156OSM    HO317404   6.237   0.518   3.345 -2.4759 -1.2284  1.6367
  156OSM    C4S17405   6.430   0.504   3.595 -0.4418  0.4395 -0.7570
  156OSM    H4S17406   6.537   0.525   3.611 -0.6571 -0.2573  2.2285
  156OSM    C5S17407   6.376   0.403   3.668  0.3679 -0.4918 -0.6403
  156OSM    H5S17408   6.292   0.341   3.631  1.5192 -1.7964 -1.1701
  156OSM    C6S17409   6.447   0.330   3.779  0.0792  0.0326  0.6652
  156OSM    H6S17410   6.558   0.336   3.780  0.0065  2.5067  0.8596
  156OSM    H6T17411   6.413   0.226   3.763 -0.9251  0.5308 -0.6098
  156OSM    C7S17412   6.404   0.387   3.915 -0.2343 -0.8887 -0.2357
  156OSM    H7S17413   6.297   0.362   3.930 -1.0193  1.0683 -2.1242
  156OSM    H7T17414   6.426   0.496   3.918  0.2401 -0.9711 -0.6782
  156OSM    C8S17415   6.491   0.335   4.035  0.1434 -0.4220  0.5136
  156OSM    H8S17416   6.565   0.416   4.053 -0.1606  0.0797 -0.4043
  156OSM    H8T17417   6.552   0.246   4.008 -0.7871 -0.6265 -1.1026
  156OSM    C9S17418   6.399   0.308   4.155 -0.3441 -0.1630  0.6465
  156OSM    H9S17419   6.318   0.237   4.128 -2.0211  0.4525  3.6117
  156OSM    H9T17420   6.340   0.401   4.174 -0.0953  0.7719 -2.6039
  156OSM   C10S17421   6.461   0.258   4.283 -0.4231  0.8220 -0.0169
  156OSM   H10S17422   6.550   0.315   4.315  0.2991  0.9520 -2.1233
  156OSM   H10T17423   6.503   0.158   4.260  0.4687  1.7533 -2.7157
  156OSM   C11S17424   6.359   0.235   4.396  0.1772 -0.2272 -0.2253
  156OSM   H11S17425   6.285   0.155   4.371 -0.8282  0.0667  1.5823
  156OSM   H11T17426   6.308   0.333   4.404  1.1413  0.5276 -2.6300
  156OSM   C12S17427   6.419   0.196   4.528 -0.2978  0.4670 -0.3240
  156OSM   H12S17428   6.497   0.268   4.561  0.5558 -1.2417  1.6253
  156OSM   H12T17429   6.475   0.101   4.517 -1.5932 -0.2732 -0.8076
  156OSM   C13S17430   6.313   0.169   4.641 -0.4683 -0.0030  0.1556
  156OSM   H13S17431   6.236   0.102   4.596 -0.0641 -0.7328  0.5228
  156OSM   H13T17432   6.284   0.268   4.680  0.1677  0.1621  0.2226
  156OSM   C14S17433   6.372   0.100   4.767  0.1824  0.0273 -0.0992
  156OSM   H14S17434   6.446   0.167   4.815 -3.8187  2.2607  3.6108
  156OSM   H14T17435   6.419   0.004   4.737  0.0078 -1.1482  3.0015
  156OSM   C15S17436   6.274   0.065   4.877  1.2716 -0.1495 -0.5815
  156OSM   H15S17437   6.193   0.140   4.893  0.0601 -1.8191  1.5053
  156OSM   H15T17438   6.316   0.059   4.979 -0.0291 -0.4265 -0.0380
  156OSM   C16S17439   6.194  -0.066   4.855 -0.6114 -0.1271 -0.5286
  156OSM   H16S17440   6.266  -0.149   4.837 -0.3018 -0.1811  0.8447
  156OSM   H16T17441   6.126  -0.059   4.767 -0.4439  0.5512 -0.6144
  156OSM   C17S17442   6.117  -0.107   4.979  0.0664  0.2755  0.2134
  156OSM   H17S17443   6.031  -0.038   4.991 -1.7599 -2.0104  1.0425
  156OSM   H17T17444   6.181  -0.093   5.069 -0.7479 -2.0540  1.2477
  156OSM   C18S17445   6.070  -0.253   4.960 -0.4849  0.2008  0.2812
  156OSM   H18S17446   6.000  -0.293   5.036 -1.4812 -0.0854 -0.7557
  156OSM   H18T17447   6.156  -0.323   4.957 -0.2066  0.5649 -1.2650
  156OSM   H18U17448   6.034  -0.278   4.857  0.2240 -2.7710  0.6448
  156OSM    C1F17449   6.291   0.897   3.612 -0.8983 -0.4850  0.6508
  156OSM     OF17450   6.170   0.902   3.613  0.8868  0.7900  0.6453
  156OSM    C2F17451   6.373   0.993   3.694  0.5120  1.3772  0.1508
  156OSM    H2F17452   6.478   0.990   3.658 -0.2682  1.8508 -2.4428
  156OSM    H2G17453   6.371   0.947   3.795  0.5160 -0.9671 -0.8512
  156OSM    C3F17454   6.325   1.141   3.706 -0.2398 -0.5779 -0.2947
  156OSM    H3F17455   6.322   1.174   3.600 -0.5758  0.7315  0.0987
  156OSM    H3G17456   6.401   1.210   3.748  0.2617  0.0263 -2.1067
  156OSM    C4F17457   6.189   1.163   3.779  0.0561  0.1257  0.7578
  156OSM    H4F17458   6.111   1.095   3.738 -1.0869  2.1747 -0.6686
  156OSM    H4G17459   6.161   1.264   3.742  3.9597  0.9027 -0.5215
  156OSM    C5F17460   6.217   1.152   3.925 -0.4346 -0.1587  0.3858
  156OSM    H5F17461   6.312   1.205   3.948 -0.8632  1.5701 -1.5512
  156OSM    H5G17462   6.251   1.051   3.957 -0.0202 -0.0090  0.4323
  156OSM    C6F17463   6.103   1.205   4.014  0.2213  0.5241  1.3016
  156OSM    H6F17464   6.007   1.156   3.989 -0.2320  1.6801  0.6987
  156OSM    H6G17465   6.091   1.314   3.996  1.5770  0.5054  0.1330
  156OSM    C7F17466   6.138   1.197   4.161  0.6415  0.8479  1.1698
  156OSM    H7F17467   6.236   1.243   4.185  0.9360 -0.3466  2.4098
  156OSM    H7G17468   6.154   1.090   4.185  1.2000  0.6372 -0.0794
  156OSM    C8F17469   6.028   1.255   4.259 -0.4960 -0.0754 -0.7998
  156OSM    H8F17470   6.051   1.221   4.363 -1.3853  2.4672  0.3234
  156OSM    H8G17471   5.933   1.207   4.230  1.1549 -3.6206 -0.8403
  156OSM    C9F17472   6.022   1.405   4.260  0.6819 -0.2592  0.6462
  156OSM    H9F17473   5.996   1.459   4.168 -2.1313 -0.1777  1.3806
  156OSM   C10F17474   6.051   1.469   4.368 -0.4956 -0.5494  0.4536
  156OSM   H10F17475   6.032   1.577   4.372 -0.0025 -0.4736  0.8106
  156OSM   C11F17476   6.079   1.410   4.505 -0.2955  0.0060 -0.3530
  156OSM   H11F17477   6.140   1.480   4.567 -0.2444 -2.3513  2.5056
  156OSM   H11G17478   6.147   1.322   4.499 -1.8137 -1.1706 -0.8969
  156OSM   C12F17479   5.961   1.367   4.588  0.7051 -0.8149  0.9775
  156OSM   H12F17480   5.941   1.269   4.541 -0.6718 -0.2739  0.3886
  156OSM   H12G17481   5.881   1.440   4.563 -1.1375 -2.3668  2.0699
  156OSM   C13F17482   5.990   1.340   4.731 -0.4525 -0.7459  0.0745
  156OSM   H13F17483   5.895   1.310   4.780 -0.7228 -0.8756 -0.5254
  156OSM   H13G17484   6.020   1.440   4.769 -2.1819  0.8174 -2.3679
  156OSM   C14F17485   6.101   1.239   4.751 -0.0997  0.6353  0.1549
  156OSM   H14F17486   6.192   1.246   4.688  0.0897 -1.9086  0.0079
  156OSM   H14G17487   6.067   1.136   4.726  1.0098  0.5299 -1.0491
  156OSM   C15F17488   6.162   1.263   4.887 -0.3155  0.0105  0.0605
  156OSM   H15F17489   6.084   1.261   4.967 -0.4529  0.3300 -0.0602
  156OSM   H15G17490   6.223   1.356   4.889  1.4480 -1.0937 -0.9952
  156OSM   C16F17491   6.262   1.156   4.914  0.2735  0.2185 -0.1666
  156OSM   H16F17492   6.338   1.157   4.832 -1.6490 -1.4039 -2.0770
  156OSM   H16G17493   6.200   1.066   4.897 -0.6882  0.6837  0.7634
  156OSM   C17F17494   6.322   1.165   5.056 -0.7920  1.0008  0.7761
  156OSM   H17F17495   6.260   1.203   5.140 -2.6737 -1.3065  0.5642
  156OSM   H17G17496   6.397   1.247   5.057  1.6359 -1.0799 -0.3342
  156OSM   C18F17497   6.386   1.034   5.093 -0.2942  0.2044 -0.1096
  156OSM   H18F17498   6.431   0.996   4.999 -1.2451 -1.8405  0.2036
  156OSM   H18G17499   6.318   0.950   5.119 -0.6205  0.1881 -0.9733
  156OSM   H18H17500   6.468   1.053   5.165 -0.8243  0.1927  0.4976
  157OSM      N17501   5.657   0.820   3.406  0.6019 -0.4146 -0.5748
  157OSM    C1517502   5.799   0.775   3.391 -0.3142  1.0148 -1.0714
  157OSM   H15A17503   5.874   0.844   3.427  0.3771  0.0823 -0.6728
  157OSM   H15B17504   5.827   0.753   3.289 -3.4508  0.8572 -1.9967
  157OSM   H15C17505   5.805   0.682   3.444  0.6861  0.5476 -1.9540
  157OSM    C1417506   5.644   0.955   3.337 -0.1810 -0.1023 -0.3790
  157OSM   H14A17507   5.719   1.022   3.377  1.2935 -0.3491 -2.5156
  157OSM   H14B17508   5.546   0.995   3.357 -0.9842 -2.3948  0.6703
  157OSM   H14C17509   5.654   0.946   3.229  2.3782  1.5671 -0.3682
  157OSM    C1317510   5.563   0.728   3.338 -0.0080  0.0808 -0.4877
  157OSM   H13A17511   5.599   0.712   3.237  1.7223 -0.4897  0.1693
  157OSM   H13B17512   5.459   0.755   3.334  0.2431  0.9807 -2.9392
  157OSM   H13C17513   5.561   0.639   3.399  1.1392  2.3489  3.2449
  157OSM    C1217514   5.626   0.829   3.557 -0.0738 -0.4708 -0.1707
  157OSM   H12A17515   5.667   0.746   3.612  1.0808  1.8930  2.8923
  157OSM   H12B17516   5.521   0.822   3.577 -0.4151  1.6057 -0.9537
  157OSM    C1117517   5.674   0.962   3.626  0.3593 -0.5127  0.2378
  157OSM   H11A17518   5.783   0.981   3.617  0.0511  1.1134 -0.3072
  157OSM   H11B17519   5.671   0.941   3.735  0.8109  0.9283  0.5507
  157OSM      P17520   5.447   1.093   3.653  0.2446  0.2243 -0.1976
  157OSM    O1317521   5.374   1.205   3.593 -0.1694  0.0228 -0.1731
  157OSM    O1417522   5.377   0.963   3.656  0.1361  0.6827 -0.0808
  157OSM    O1117523   5.476   1.141   3.795  1.0197 -0.1920  0.0726
  157OSM    O1217524   5.593   1.079   3.596 -0.4623  0.5057  0.3491
  157OSM    C1S17525   5.554   1.262   3.816 -0.0134  0.9233 -0.2051
  157OSM    H1S17526   5.524   1.348   3.751 -1.3441  0.7596  0.1610
  157OSM    H1T17527   5.658   1.234   3.788 -0.1154  1.5263 -1.2660
  157OSM     NF17528   5.573   1.454   3.970  0.1438  0.1843  0.4908
  157OSM    HNF17529   5.662   1.480   4.006  0.0101 -0.4986  1.3474
  157OSM    C2S17530   5.562   1.311   3.964  0.1161 -0.4685 -0.0493
  157OSM    H2S17531   5.459   1.294   4.004 -0.7863 -0.3503 -2.1508
  157OSM    C3S17532   5.670   1.239   4.049  0.4149  0.2584  0.2332
  157OSM    H3S17533   5.765   1.289   4.020  1.1023 -0.8338  0.5331
  157OSM     O317534   5.681   1.099   4.024 -0.2796 -0.1158  0.4814
  157OSM    HO317535   5.620   1.084   3.952 -0.5704 -1.4335  0.9659
  157OSM    C4S17536   5.665   1.266   4.191 -0.0159 -0.1886 -0.5099
  157OSM    H4S17537   5.736   1.347   4.215 -0.1556 -0.3224  0.4096
  157OSM    C5S17538   5.588   1.216   4.290 -0.6375 -0.0790  0.2543
  157OSM    H5S17539   5.537   1.119   4.277  1.3042 -1.6904  3.4555
  157OSM    C6S17540   5.612   1.250   4.437  1.0255 -0.5484  0.6254
  157OSM    H6S17541   5.511   1.284   4.468  1.3783  2.0454 -0.7267
  157OSM    H6T17542   5.668   1.345   4.451  2.2403 -1.3736  1.5314
  157OSM    C7S17543   5.662   1.135   4.521 -0.5504 -0.6273  0.4862
  157OSM    H7S17544   5.763   1.109   4.483 -0.2729  0.8206  0.1673
  157OSM    H7T17545   5.605   1.040   4.509  1.8379 -1.9265 -1.3430
  157OSM    C8S17546   5.652   1.184   4.664 -0.4476  1.1898  0.3291
  157OSM    H8S17547   5.547   1.182   4.701 -0.0018 -0.4438  1.6437
  157OSM    H8T17548   5.694   1.286   4.683 -0.1346  0.9025  1.2010
  157OSM    C9S17549   5.709   1.091   4.762 -0.4011 -0.7833  0.6243
  157OSM    H9S17550   5.817   1.085   4.738 -0.8871 -0.2742 -2.0281
  157OSM    H9T17551   5.664   0.991   4.753 -0.6586 -0.6200  0.0831
  157OSM   C10S17552   5.689   1.138   4.911  0.1343  0.2303 -0.5608
  157OSM   H10S17553   5.584   1.138   4.948  0.4929  0.9269  0.5107
  157OSM   H10T17554   5.729   1.241   4.923 -0.7758  0.4270  1.1185
  157OSM   C11S17555   5.774   1.050   5.010 -0.0035 -0.5137 -0.7505
  157OSM   H11S17556   5.880   1.046   4.977  0.0379  1.4167 -0.9741
  157OSM   H11T17557   5.732   0.948   5.022  2.6771 -1.6307  0.0072
  157OSM   C12S17558   5.759   1.108   5.147  0.7402  0.2527  0.2488
  157OSM   H12S17559   5.659   1.081   5.187 -0.1702  3.4559  0.3994
  157OSM   H12T17560   5.770   1.218   5.139 -0.8111  0.3311 -1.6824
  157OSM   C13S17561   5.857   1.043   5.257  1.0869 -0.1683  0.4065
  157OSM   H13S17562   5.948   0.999   5.211  0.8698 -0.0674 -0.1296
  157OSM   H13T17563   5.808   0.950   5.293  2.1182  0.2259  3.0621
  157OSM   C14S17564   5.887   1.144   5.370  0.0420  0.6109 -0.1302
  157OSM   H14S17565   5.795   1.157   5.431  0.4083 -3.6131  1.6599
  157OSM   H14T17566   5.925   1.237   5.322  1.1872  0.2422  0.0262
  157OSM   C15S17567   6.001   1.102   5.473 -0.0829  0.3769 -0.2454
  157OSM   H15S17568   5.969   1.020   5.541  0.7681  1.0110  0.9494
  157OSM   H15T17569   6.011   1.197   5.529 -0.4299  0.3233 -0.0904
  157OSM   C16S17570   6.132   1.046   5.403  0.5707 -0.8254  0.0456
  157OSM   H16S17571   6.171   1.134   5.347  2.2035 -2.3906 -1.4276
  157OSM   H16T17572   6.101   0.979   5.320 -1.2221 -1.4245  1.1516
  157OSM   C17S17573   6.231   0.990   5.505 -0.6550  0.1055  0.1505
  157OSM   H17S17574   6.191   0.902   5.559  0.5473  1.0175  2.6528
  157OSM   H17T17575   6.259   1.064   5.583 -0.3560  0.1884 -0.0335
  157OSM   C18S17576   6.362   0.935   5.437  0.0928 -0.5584 -0.2407
  157OSM   H18S17577   6.333   0.862   5.359 -0.2268 -1.5095  0.7486
  157OSM   H18T17578   6.429   0.891   5.513  0.4668  1.4381  0.6543
  157OSM   H18U17579   6.412   1.017   5.381 -0.7662  0.5009  0.4844
  157OSM    C1F17580   5.479   1.543   3.948  0.2619 -0.0424 -0.7380
  157OSM     OF17581   5.365   1.502   3.930  0.1721  0.3228  0.3592
  157OSM    C2F17582   5.494   1.691   3.951 -0.5564 -0.1488 -0.0734
  157OSM    H2F17583   5.499   1.727   3.846 -0.0926  1.3279  0.4369
  157OSM    H2G17584   5.588   1.725   4.000 -2.4869  0.6463  3.3525
  157OSM    C3F17585   5.381   1.765   4.032 -0.2195 -0.2481  0.1916
  157OSM    H3F17586   5.383   1.736   4.139 -0.6554 -1.0109  0.0047
  157OSM    H3G17587   5.288   1.747   3.974 -0.9408 -1.7461  1.7238
  157OSM    C4F17588   5.414   1.915   4.036  0.0846 -0.2187  0.4352
  157OSM    H4F17589   5.423   1.948   3.930 -1.6121 -0.8343  0.0658
  157OSM    H4G17590   5.513   1.919   4.085 -0.5327  2.9136  1.6572
  157OSM    C5F17591   5.314   1.998   4.118  0.1284 -0.1090  0.8394
  157OSM    H5F17592   5.212   1.960   4.097  0.8370 -0.5101 -2.4414
  157OSM    H5G17593   5.300   2.102   4.081  0.8548 -1.2368 -3.0504
  157OSM    C6F17594   5.345   1.992   4.263  0.3572 -0.1699 -0.5457
  157OSM    H6F17595   5.452   2.002   4.288  0.8299  0.1526 -2.5219
  157OSM    H6G17596   5.310   1.891   4.294  0.8822  0.0244  0.7643
  157OSM    C7F17597   5.259   2.088   4.346 -0.0831 -0.7554  0.9007
  157OSM    H7F17598   5.149   2.073   4.339 -0.6150  1.1950  3.5564
  157OSM    H7G17599   5.276   2.193   4.315  0.7439 -1.3790 -0.9726
  157OSM    C8F17600   5.300   2.082   4.495 -0.8654 -0.3054 -0.4188
  157OSM    H8F17601   5.398   2.133   4.507 -0.3435 -1.6635  1.4241
  157OSM    H8G17602   5.313   1.974   4.518 -2.4939 -0.4937 -0.2808
  157OSM    C9F17603   5.213   2.166   4.591  0.4842  0.0905 -0.1285
  157OSM    H9F17604   5.188   2.269   4.562  0.7577  0.6520  1.5109
  157OSM   C10F17605   5.165   2.124   4.712 -0.2270  0.1972 -0.4185
  157OSM   H10F17606   5.107   2.194   4.774  0.2565 -0.2871  0.6191
  157OSM   C11F17607   5.182   1.989   4.782 -0.1173 -0.9212  0.2200
  157OSM   H11F17608   5.211   2.008   4.888  0.0068 -1.8553  0.3585
  157OSM   H11G17609   5.249   1.921   4.726 -1.2970 -0.9372 -1.2255
  157OSM   C12F17610   5.041   1.930   4.794 -0.6254 -0.1867 -0.0553
  157OSM   H12F17611   5.046   1.824   4.828 -0.6075  0.1161  0.9264
  157OSM   H12G17612   4.989   1.927   4.696 -0.3816 -0.5309 -0.1739
  157OSM   C13F17613   4.956   1.999   4.897  0.6633 -0.2086  0.8537
  157OSM   H13F17614   4.927   2.103   4.870  0.7862 -0.6848 -1.2932
  157OSM   H13G17615   5.008   2.013   4.994  0.8737  2.4492  0.4419
  157OSM   C14F17616   4.823   1.916   4.931 -0.5550 -0.1988  0.0648
  157OSM   H14F17617   4.779   1.905   4.829 -0.3998  1.6958 -0.2346
  157OSM   H14G17618   4.743   1.977   4.978 -0.5961  0.2919 -0.6262
  157OSM   C15F17619   4.839   1.780   4.995 -0.2523  0.0120  0.0116
  157OSM   H15F17620   4.932   1.768   5.055 -0.2225 -0.3071 -0.0990
  157OSM   H15G17621   4.850   1.705   4.913 -2.0544  0.0231 -0.2805
  157OSM   C16F17622   4.717   1.741   5.076 -0.1593 -0.6499  0.3982
  157OSM   H16F17623   4.632   1.764   5.009  0.4478  1.7841  0.3697
  157OSM   H16G17624   4.711   1.814   5.160 -0.5840 -1.5766  1.1947
  157OSM   C17F17625   4.715   1.588   5.109 -0.5495 -0.1576  0.6851
  157OSM   H17F17626   4.815   1.555   5.145  0.4494  1.1894 -0.7058
  157OSM   H17G17627   4.719   1.527   5.017  1.0549  2.5001 -1.1497
  157OSM   C18F17628   4.592   1.531   5.178 -0.6703  0.2667  0.6359
  157OSM   H18F17629   4.557   1.599   5.259  1.2218  1.2744  0.6732
  157OSM   H18G17630   4.608   1.435   5.230  0.0134  0.6757  1.2097
  157OSM   H18H17631   4.507   1.524   5.106  1.5808 -3.3945 -2.0437
  158OSM      N17632   2.874   1.408   3.535  0.2136  0.2251 -0.9901
  158OSM    C1517633   2.814   1.319   3.431 -0.1515  0.1768  0.1493
  158OSM   H15A17634   2.880   1.243   3.392 -0.5947 -0.9674  1.5538
  158OSM   H15B17635   2.784   1.377   3.344  0.5316 -1.7612 -1.4487
  158OSM   H15C17636   2.723   1.273   3.465  0.6567 -1.5025  0.1468
  158OSM    C1417637   2.930   1.311   3.640 -0.3199  0.3379 -0.3776
  158OSM   H14A17638   2.998   1.236   3.601 -0.2335 -0.8368  1.8414
  158OSM   H14B17639   2.852   1.244   3.674  0.3422 -0.2009  0.1165
  158OSM   H14C17640   2.972   1.362   3.726  1.1213  0.6559 -1.2387
  158OSM    C1317641   2.975   1.499   3.474  0.0034 -0.2904 -0.2226
  158OSM   H13A17642   3.057   1.444   3.429 -0.0220 -0.3959 -0.1390
  158OSM   H13B17643   3.011   1.567   3.550 -3.0649  0.1208  1.0040
  158OSM   H13C17644   2.939   1.559   3.392 -0.5291  1.1144  0.9881
  158OSM    C1217645   2.758   1.487   3.603 -0.9739 -0.4703 -0.1887
  158OSM   H12A17646   2.793   1.539   3.691 -1.2842 -1.9959  0.8799
  158OSM   H12B17647   2.676   1.426   3.637 -2.3420  1.3800 -0.0504
  158OSM    C1117648   2.685   1.592   3.512 -0.0523 -1.0700 -0.8592
  158OSM   H11A17649   2.752   1.664   3.461 -1.0196 -0.2038 -0.9271
  158OSM   H11B17650   2.620   1.653   3.578  1.7815  0.3870 -0.3215
  158OSM      P17651   2.477   1.448   3.447 -0.0298 -0.3914 -0.0199
  158OSM    O1317652   2.405   1.444   3.321 -0.2513 -0.6069 -0.0860
  158OSM    O1417653   2.505   1.314   3.510 -0.0763 -0.4428 -0.2931
  158OSM    O1117654   2.408   1.544   3.555  0.3339 -0.0109  0.1390
  158OSM    O1217655   2.608   1.528   3.414 -0.0767 -0.3019  0.2386
  158OSM    C1S17656   2.308   1.493   3.639  0.2725  0.4035  0.1447
  158OSM    H1S17657   2.231   1.424   3.599 -0.9057  1.8733 -0.2042
  158OSM    H1T17658   2.251   1.583   3.671  1.0734  1.2689 -0.7965
  158OSM     NF17659   2.258   1.372   3.852  0.1557  0.2363  0.0114
  158OSM    HNF17660   2.219   1.415   3.933 -0.9318 -1.6316  0.5447
  158OSM    C2S17661   2.366   1.430   3.771 -0.0793  0.0493  0.2508
  158OSM    H2S17662   2.434   1.346   3.744 -0.4831  0.5059 -2.4487
  158OSM    C3S17663   2.439   1.537   3.853 -0.1957  0.4982 -0.2436
  158OSM    H3S17664   2.364   1.607   3.894 -0.4392  0.5408 -0.7583
  158OSM     O317665   2.536   1.608   3.779  0.5166 -0.4452 -0.4047
  158OSM    HO317666   2.509   1.603   3.687 -0.6358 -0.6170 -0.0672
  158OSM    C4S17667   2.509   1.465   3.972 -0.5826 -0.5467 -0.5080
  158OSM    H4S17668   2.465   1.494   4.069 -1.9295 -1.0987 -0.9276
  158OSM    C5S17669   2.587   1.356   3.961  0.4259 -0.1627 -0.8786
  158OSM    H5S17670   2.607   1.307   3.865 -0.6974  0.0403 -1.2412
  158OSM    C6S17671   2.635   1.273   4.078 -0.4685 -0.2374  1.0466
  158OSM    H6S17672   2.739   1.262   4.041 -1.2909  1.0556 -1.9518
  158OSM    H6T17673   2.587   1.173   4.078 -1.9081  0.4161 -0.0507
  158OSM    C7S17674   2.647   1.332   4.218 -0.2148 -0.1196  0.7492
  158OSM    H7S17675   2.545   1.372   4.239 -0.0775  0.5982  0.1112
  158OSM    H7T17676   2.716   1.419   4.214 -0.1846 -0.1935 -1.3868
  158OSM    C8S17677   2.694   1.229   4.321 -0.2104 -0.6841  0.3524
  158OSM    H8S17678   2.632   1.137   4.312  1.4949 -2.1926  2.8231
  158OSM    H8T17679   2.653   1.259   4.420 -1.6182 -1.0952 -0.0833
  158OSM    C9S17680   2.848   1.198   4.309  0.3528  0.2083 -1.2309
  158OSM    H9S17681   2.898   1.297   4.320 -0.0460  0.5843 -2.5505
  158OSM    H9T17682   2.884   1.150   4.216 -1.6575 -1.5508 -1.1655
  158OSM   C10S17683   2.906   1.108   4.424  0.6554  0.0752  0.3971
  158OSM   H10S17684   3.017   1.111   4.426  0.7663 -0.3169 -2.1247
  158OSM   H10T17685   2.879   1.002   4.410 -0.7620  0.7341 -2.8689
  158OSM   C11S17686   2.840   1.155   4.558  0.1251  0.2497  0.0572
  158OSM   H11S17687   2.734   1.125   4.568  0.2240  0.2634  1.4189
  158OSM   H11T17688   2.868   1.259   4.585  1.3294 -0.5795  2.3059
  158OSM   C12S17689   2.913   1.090   4.677  0.1094 -0.0330 -0.4211
  158OSM   H12S17690   3.021   1.102   4.656 -0.2552  0.8982 -1.9109
  158OSM   H12T17691   2.893   0.981   4.682  0.4976 -0.1628 -1.4102
  158OSM   C13S17692   2.886   1.142   4.820  0.3456  0.5368 -0.3415
  158OSM   H13S17693   2.777   1.133   4.842  0.3426  1.8006  0.2653
  158OSM   H13T17694   2.923   1.246   4.822  0.7929  0.3972 -1.2553
  158OSM   C14S17695   2.971   1.071   4.923  0.2042 -0.1558  0.0215
  158OSM   H14S17696   3.077   1.095   4.899  0.9266 -1.2412  1.8635
  158OSM   H14T17697   2.937   0.965   4.916 -0.6423  0.0662  0.5503
  158OSM   C15S17698   2.941   1.116   5.069  0.1974  0.0628  0.0903
  158OSM   H15S17699   2.831   1.122   5.079 -0.0402 -1.0351 -1.5111
  158OSM   H15T17700   2.990   1.215   5.084  1.0611 -0.2446 -0.6003
  158OSM   C16S17701   2.971   1.007   5.178 -1.0462 -0.6979 -0.0295
  158OSM   H16S17702   3.077   0.973   5.175 -0.6294  0.4901  0.4392
  158OSM   H16T17703   2.897   0.927   5.158 -2.6648  0.8104 -0.3360
  158OSM   C17S17704   2.938   1.037   5.326  0.2832  0.6818  0.2423
  158OSM   H17S17705   2.847   1.100   5.313 -0.1194  0.0954  0.1631
  158OSM   H17T17706   3.013   1.108   5.368  1.6857 -0.3511 -0.4510
  158OSM   C18S17707   2.903   0.928   5.428 -0.5874 -0.3895 -0.5156
  158OSM   H18S17708   2.835   0.848   5.393 -0.8043  0.0929 -1.2120
  158OSM   H18T17709   2.851   0.979   5.511 -0.3143  1.0977 -1.2361
  158OSM   H18U17710   2.989   0.882   5.481  0.4865  0.2086 -1.6747
  158OSM    C1F17711   2.194   1.261   3.829 -0.1256  0.4836 -0.5279
  158OSM     OF17712   2.236   1.183   3.746 -0.0356 -0.7311 -0.7297
  158OSM    C2F17713   2.067   1.227   3.897  0.5187 -0.2150  0.1756
  158OSM    H2F17714   1.996   1.219   3.812 -0.4504  2.1217  0.6875
  158OSM    H2G17715   2.033   1.312   3.960 -0.4578  0.7518 -1.5934
  158OSM    C3F17716   2.090   1.094   3.972 -0.0275 -0.6444 -0.1421
  158OSM    H3F17717   2.135   1.022   3.901  3.0019  1.7837 -0.8818
  158OSM    H3G17718   1.993   1.054   4.010  0.3906 -1.4555  0.0958
  158OSM    C4F17719   2.190   1.095   4.086 -0.1625  0.6354  0.2390
  158OSM    H4F17720   2.135   1.133   4.175  1.1720  0.7310  1.0549
  158OSM    H4G17721   2.271   1.169   4.069 -0.1152  1.3038  2.8756
  158OSM    C5F17722   2.254   0.964   4.122  0.1836 -0.0025  0.0798
  158OSM    H5F17723   2.298   0.926   4.027 -2.6613  1.3528 -1.9333
  158OSM    H5G17724   2.179   0.889   4.155  0.5510 -0.8729 -0.9904
  158OSM    C6F17725   2.362   0.969   4.229 -0.8303  0.2120 -0.2637
  158OSM    H6F17726   2.423   1.059   4.204 -3.5543  1.9735 -1.0048
  158OSM    H6G17727   2.434   0.884   4.217  0.4820  1.5355 -2.6524
  158OSM    C7F17728   2.311   0.980   4.366 -0.0196 -0.0263  1.0997
  158OSM    H7F17729   2.265   0.885   4.401 -0.5079 -0.3572 -0.3757
  158OSM    H7G17730   2.229   1.056   4.359 -0.9476 -1.0998  0.0208
  158OSM    C8F17731   2.414   1.010   4.477 -0.0586 -0.8649 -0.4036
  158OSM    H8F17732   2.481   1.090   4.438  0.9671 -1.2938  0.4278
  158OSM    H8G17733   2.473   0.917   4.490  0.3810 -0.7666 -1.5852
  158OSM    C9F17734   2.350   1.066   4.606  0.4009 -0.4266  0.4898
  158OSM    H9F17735   2.291   1.157   4.590  0.8235  0.2174  2.3811
  158OSM   C10F17736   2.355   1.016   4.733  0.1000 -0.0756 -0.0316
  158OSM   H10F17737   2.296   1.061   4.814 -0.7978 -0.0757 -0.6696
  158OSM   C11F17738   2.433   0.889   4.773  0.8604  0.3637 -0.2139
  158OSM   H11F17739   2.502   0.841   4.700 -0.8459 -1.5337 -0.6892
  158OSM   H11G17740   2.359   0.809   4.795  0.9581  0.7443  1.6615
  158OSM   C12F17741   2.512   0.905   4.904 -0.7460  0.1430  0.2884
  158OSM   H12F17742   2.567   1.002   4.897  1.2535 -0.9689 -0.2944
  158OSM   H12G17743   2.585   0.823   4.922  0.2456  0.7427 -0.8251
  158OSM   C13F17744   2.426   0.920   5.026 -0.3103  0.1079 -0.2005
  158OSM   H13F17745   2.370   0.828   5.050 -0.4316  0.5696  1.3840
  158OSM   H13G17746   2.359   1.008   5.031  1.5483  1.5150  2.7549
  158OSM   C14F17747   2.515   0.945   5.149  0.6549 -0.0863  0.2163
  158OSM   H14F17748   2.561   1.045   5.132  1.2176 -0.2244  0.8741
  158OSM   H14G17749   2.606   0.881   5.155  1.1821  0.3912 -1.9197
  158OSM   C15F17750   2.433   0.943   5.283 -0.3447 -0.3059  0.0431
  158OSM   H15F17751   2.415   0.837   5.312 -2.2870  0.2789  1.1456
  158OSM   H15G17752   2.332   0.986   5.267 -0.7235 -1.7323 -1.7949
  158OSM   C16F17753   2.499   1.026   5.398 -0.5111 -0.6354 -0.1503
  158OSM   H16F17754   2.516   1.131   5.365 -0.1864 -0.6689 -0.0891
  158OSM   H16G17755   2.589   0.979   5.442 -0.6544 -1.3999 -0.6482
  158OSM   C17F17756   2.401   1.050   5.516 -0.3668 -0.6884 -0.0173
  158OSM   H17F17757   2.315   1.111   5.483 -1.0774 -1.3221  0.6412
  158OSM   H17G17758   2.457   1.107   5.594  0.8580  1.6243 -2.4070
  158OSM   C18F17759   2.348   0.916   5.567  0.6886  0.4262 -0.3025
  158OSM   H18F17760   2.277   0.874   5.491 -0.1119  1.1279  0.0402
  158OSM   H18G17761   2.294   0.936   5.662 -0.5769 -0.5708 -0.7804
  158OSM   H18H17762   2.427   0.839   5.577 -0.5664 -0.8873 -0.0495
  159OSM      N17763   4.795   1.670   2.972 -0.5489  0.4418 -0.3160
  159OSM    C1517764   4.672   1.729   3.044 -0.0380 -0.0968  0.3371
  159OSM   H15A17765   4.634   1.660   3.117 -2.4145 -1.1247 -1.7131
  159OSM   H15B17766   4.599   1.740   2.965 -0.2708  2.3304  0.8301
  159OSM   H15C17767   4.687   1.831   3.074 -1.0049  1.0029 -2.5429
  159OSM    C1417768   4.765   1.552   2.886 -0.6994  0.2871  0.6084
  159OSM   H14A17769   4.856   1.520   2.835 -1.6486  0.2124 -1.1295
  159OSM   H14B17770   4.702   1.575   2.801  1.4696  3.4789 -0.3234
  159OSM   H14C17771   4.719   1.465   2.930  1.9974 -2.6207 -1.7391
  159OSM    C1317772   4.859   1.772   2.895  0.7588 -0.4337  0.5688
  159OSM   H13A17773   4.923   1.728   2.820 -1.1500 -0.9393 -0.8418
  159OSM   H13B17774   4.925   1.830   2.958  1.6620  0.7438 -1.3530
  159OSM   H13C17775   4.800   1.846   2.843  1.7431 -0.0676 -0.0637
  159OSM    C1217776   4.892   1.624   3.085 -0.3016 -0.6148 -0.1057
  159OSM   H12A17777   4.980   1.580   3.040  1.7859  1.7889  1.3758
  159OSM   H12B17778   4.842   1.551   3.148 -0.3085 -1.5969 -1.2094
  159OSM    C1117779   4.938   1.740   3.177 -0.1830  0.5021  0.1243
  159OSM   H11A17780   4.968   1.699   3.275  0.8801 -0.2181 -0.4878
  159OSM   H11B17781   4.852   1.808   3.196  1.4372  1.7726  3.7879
  159OSM      P17782   5.189   1.771   3.113  0.3470  0.1951  0.0761
  159OSM    O1317783   5.200   1.646   3.046 -0.0617  0.5310  0.0080
  159OSM    O1417784   5.278   1.870   3.055 -0.9188 -0.6917 -0.0557
  159OSM    O1117785   5.218   1.745   3.271 -0.2351 -0.3356  0.0879
  159OSM    O1217786   5.040   1.817   3.111  0.1738  0.4851 -0.4677
  159OSM    C1S17787   5.251   1.865   3.349  0.4566  0.1756 -0.1562
  159OSM    H1S17788   5.243   1.963   3.297  0.0582  0.9567  1.3121
  159OSM    H1T17789   5.357   1.867   3.382  1.0608 -2.7545 -1.6055
  159OSM     NF17790   5.175   2.002   3.539  0.3471 -0.3466  0.2226
  159OSM    HNF17791   5.255   2.026   3.594  1.2048 -0.1184 -1.0779
  159OSM    C2S17792   5.161   1.871   3.478 -0.2135  0.0446  0.1189
  159OSM    H2S17793   5.062   1.847   3.433  0.6969 -2.2887 -0.8494
  159OSM    C3S17794   5.214   1.759   3.573 -0.0843 -0.2734  0.2610
  159OSM    H3S17795   5.315   1.789   3.607 -0.1422 -2.2926  2.5454
  159OSM     O317796   5.227   1.637   3.500  0.0018  0.5391 -0.5077
  159OSM    HO317797   5.197   1.666   3.413 -2.0183 -0.7711 -0.3260
  159OSM    C4S17798   5.151   1.747   3.708 -0.0174 -0.5936 -0.1461
  159OSM    H4S17799   5.199   1.818   3.777 -2.1790  2.8401 -1.8798
  159OSM    C5S17800   5.035   1.690   3.747  0.0224 -0.3152 -0.0999
  159OSM    H5S17801   4.965   1.643   3.676 -0.8512  0.5269  0.1712
  159OSM    C6S17802   4.989   1.692   3.887  0.0357  0.0855 -0.1480
  159OSM    H6S17803   4.880   1.713   3.883  0.2333  0.9745 -1.0299
  159OSM    H6T17804   5.051   1.767   3.941  1.4118 -0.6944 -0.5833
  159OSM    C7S17805   5.003   1.559   3.959 -0.2485  0.2433  0.0597
  159OSM    H7S17806   5.106   1.522   3.940 -0.2571  0.2744 -0.0488
  159OSM    H7T17807   4.930   1.491   3.911 -0.3695  1.9546 -2.3792
  159OSM    C8S17808   4.986   1.572   4.107 -0.0697 -0.3402 -0.0960
  159OSM    H8S17809   4.946   1.477   4.149 -1.3989  0.4676  0.5431
  159OSM    H8T17810   4.893   1.633   4.115 -0.9625 -1.2309 -2.5645
  159OSM    C9S17811   5.112   1.620   4.182  0.0334  0.6197  0.0941
  159OSM    H9S17812   5.134   1.726   4.160 -2.6377  0.7143 -2.9426
  159OSM    H9T17813   5.200   1.562   4.145  0.9462  0.9453  1.6620
  159OSM   C10S17814   5.098   1.623   4.337 -0.5532 -0.6893  0.1900
  159OSM   H10S17815   5.025   1.697   4.378 -2.1779 -1.6389 -0.8484
  159OSM   H10T17816   5.194   1.668   4.368 -0.9063  1.2567 -1.3159
  159OSM   C11S17817   5.087   1.489   4.404  0.2930 -0.1997  0.4318
  159OSM   H11S17818   5.156   1.422   4.350  2.2864  2.0582 -0.0078
  159OSM   H11T17819   4.982   1.462   4.378  0.8955 -1.0580 -1.2544
  159OSM   C12S17820   5.092   1.501   4.554 -0.0114 -0.1539 -0.5366
  159OSM   H12S17821   5.051   1.408   4.597  0.6023 -0.4267 -0.5380
  159OSM   H12T17822   5.034   1.589   4.590 -1.4913 -0.7926 -1.2801
  159OSM   C13S17823   5.238   1.519   4.604  1.2754 -0.0722  0.2552
  159OSM   H13S17824   5.286   1.606   4.554 -0.0850  0.6210  0.1098
  159OSM   H13T17825   5.291   1.425   4.578 -0.4496 -1.2031  0.6493
  159OSM   C14S17826   5.227   1.533   4.756  0.5392 -0.0171 -0.2776
  159OSM   H14S17827   5.146   1.466   4.792  1.1963 -0.3178  0.6874
  159OSM   H14T17828   5.204   1.641   4.769  1.8926  0.3184 -0.5248
  159OSM   C15S17829   5.356   1.502   4.832  0.4361 -0.3481  0.4614
  159OSM   H15S17830   5.423   1.438   4.771  1.6224  0.7553  0.5755
  159OSM   H15T17831   5.332   1.446   4.924  0.0907  0.1887  0.7050
  159OSM   C16S17832   5.436   1.622   4.882  0.2322 -0.3811  0.2131
  159OSM   H16S17833   5.382   1.689   4.952 -0.0366  0.1351 -0.4662
  159OSM   H16T17834   5.443   1.689   4.793 -0.1001 -1.0837 -0.3522
  159OSM   C17S17835   5.575   1.615   4.953  0.4233 -0.3108  0.1508
  159OSM   H17S17836   5.565   1.576   5.056 -3.3388 -1.9790 -0.6827
  159OSM   H17T17837   5.615   1.719   4.944 -0.1784 -0.1500 -0.9502
  159OSM   C18S17838   5.672   1.520   4.880 -0.6236 -0.4054 -0.1656
  159OSM   H18S17839   5.708   1.541   4.777  1.4523 -1.3219  0.3101
  159OSM   H18T17840   5.619   1.422   4.868  0.5281 -0.8639 -1.8428
  159OSM   H18U17841   5.766   1.501   4.937 -2.8901 -0.9442  3.7733
  159OSM    C1F17842   5.117   2.107   3.487 -0.1136 -0.5065 -0.3655
  159OSM     OF17843   5.026   2.095   3.405  0.1708 -0.1617 -0.3419
  159OSM    C2F17844   5.161   2.242   3.540 -0.5780  0.1144  0.1131
  159OSM    H2F17845   5.110   2.325   3.487  1.3021  1.1111 -0.2198
  159OSM    H2G17846   5.271   2.240   3.525 -0.8296 -1.7785 -1.9473
  159OSM    C3F17847   5.140   2.246   3.695 -0.1461  0.0368 -0.3743
  159OSM    H3F17848   5.170   2.149   3.740  2.1142  0.4220 -0.9368
  159OSM    H3G17849   5.030   2.255   3.708 -0.0453  1.3394 -0.3043
  159OSM    C4F17850   5.199   2.372   3.764 -0.5849  0.4653 -0.5102
  159OSM    H4F17851   5.190   2.462   3.699 -0.5305  0.1156 -1.0062
  159OSM    H4G17852   5.308   2.354   3.772 -0.9154 -0.8123  1.9763
  159OSM    C5F17853   5.144   2.385   3.904  0.4608  0.4075  0.1138
  159OSM    H5F17854   5.192   2.314   3.975 -1.4410  0.1355  1.2119
  159OSM    H5G17855   5.035   2.362   3.906  0.3917  0.7670  1.1961
  159OSM    C6F17856   5.154   2.522   3.967 -0.1199 -0.0178  0.4400
  159OSM    H6F17857   5.136   2.603   3.894 -1.9161  0.6563  1.5715
  159OSM    H6G17858   5.260   2.536   3.999 -0.1555 -2.8062  2.1365
  159OSM    C7F17859   5.055   2.548   4.082  0.5332 -0.1491  0.5382
  159OSM    H7F17860   4.957   2.528   4.033  0.7247  3.1285 -1.4988
  159OSM    H7G17861   5.051   2.655   4.112  0.4787  0.2914 -0.9294
  159OSM    C8F17862   5.075   2.469   4.212 -0.1090 -0.6803  0.0688
  159OSM    H8F17863   5.067   2.359   4.203 -0.1959 -0.7914  1.3839
  159OSM    H8G17864   4.978   2.498   4.257 -1.8256 -4.2802 -0.9605
  159OSM    C9F17865   5.200   2.494   4.283 -1.0512  0.0972  0.2390
  159OSM    H9F17866   5.286   2.443   4.237 -0.9779  1.5485 -1.3217
  159OSM   C10F17867   5.215   2.569   4.395  0.4268  0.6350  0.3029
  159OSM   H10F17868   5.313   2.602   4.433  0.0452  1.2839  0.7383
  159OSM   C11F17869   5.104   2.632   4.475 -0.5492  0.1624  0.7511
  159OSM   H11F17870   5.033   2.678   4.403 -0.2683 -1.3373 -0.5492
  159OSM   H11G17871   5.151   2.712   4.535 -0.9459 -0.1289  1.4601
  159OSM   C12F17872   5.038   2.544   4.566  0.2897 -0.0928  0.4655
  159OSM   H12F17873   5.110   2.492   4.633  0.4405 -0.9153 -0.3185
  159OSM   H12G17874   4.985   2.470   4.503  2.0791 -1.1244  0.1054
  159OSM   C13F17875   4.931   2.632   4.640  0.2406 -0.3318  0.8134
  159OSM   H13F17876   4.855   2.679   4.574 -0.2695 -1.6214  0.4602
  159OSM   H13G17877   4.989   2.715   4.686  0.4206 -0.8258  1.4921
  159OSM   C14F17878   4.851   2.551   4.738 -0.3347  0.3459 -0.0868
  159OSM   H14F17879   4.927   2.526   4.814 -1.5447  4.0114  2.6532
  159OSM   H14G17880   4.800   2.464   4.691  1.8929 -2.4139  2.2380
  159OSM   C15F17881   4.733   2.634   4.806  0.0017  0.0981  0.6510
  159OSM   H15F17882   4.754   2.735   4.847 -0.9841  0.4520  0.2897
  159OSM   H15G17883   4.691   2.568   4.885  0.4887  0.8449  1.5580
  159OSM   C16F17884   4.618   2.673   4.713  0.1023 -0.1999  0.3066
  159OSM   H16F17885   4.587   2.585   4.653 -0.3712  1.2398 -1.6639
  159OSM   H16G17886   4.652   2.748   4.638  0.2228  0.5976  1.1434
  159OSM   C17F17887   4.507   2.742   4.789 -0.1018  0.0950  0.1846
  159OSM   H17F17888   4.471   2.835   4.739 -1.2906  1.1126  2.7511
  159OSM   H17G17889   4.549   2.778   4.885 -2.6907 -2.2218  2.3355
  159OSM   C18F17890   4.394   2.650   4.814  0.0776  0.9621  0.5745
  159OSM   H18F17891   4.367   2.602   4.717 -0.4756  1.5196  0.4462
  159OSM   H18G17892   4.295   2.691   4.843 -0.7158 -0.2290 -0.3222
  159OSM   H18H17893   4.427   2.582   4.896 -2.9469 -1.3764  0.0576
  160OSM      N17894   1.844   2.549   2.947  0.3986 -0.4496 -0.1037
  160OSM    C1517895   1.725   2.545   2.858 -0.6678 -0.1107  0.4656
  160OSM   H15A17896   1.729   2.451   2.805  0.8984  1.2411 -1.9973
  160OSM   H15B17897   1.732   2.632   2.794  2.4787  1.7027  2.9480
  160OSM   H15C17898   1.630   2.552   2.909 -0.6777 -1.9284  0.7565
  160OSM    C1417899   1.967   2.529   2.869 -0.0647  0.0897  0.5739
  160OSM   H14A17900   2.049   2.505   2.935  0.3906  1.1006  0.3953
  160OSM   H14B17901   2.011   2.617   2.824 -0.4577 -0.9074 -1.9173
  160OSM   H14C17902   1.953   2.458   2.789 -3.5384 -0.3414  1.4157
  160OSM    C1317903   1.847   2.676   3.020  0.3738 -0.7670 -0.6698
  160OSM   H13A17904   1.752   2.691   3.069  0.1684 -3.4404 -0.0686
  160OSM   H13B17905   1.874   2.761   2.959  1.6685 -1.0512 -0.5181
  160OSM   H13C17906   1.914   2.669   3.104  1.7034 -0.1100 -1.6288
  160OSM    C1217907   1.834   2.427   3.046 -0.4321  0.0718 -1.0423
  160OSM   H12A17908   1.851   2.334   2.994 -1.0550 -1.9902  2.2011
  160OSM   H12B17909   1.736   2.432   3.091  0.0951 -0.3860  0.1707
  160OSM    C1117910   1.930   2.427   3.164 -0.8345  0.4880  0.6953
  160OSM   H11A17911   1.901   2.344   3.233 -2.7410  0.1179 -0.4786
  160OSM   H11B17912   1.928   2.523   3.220 -3.0138  0.7738  0.2110
  160OSM      P17913   2.117   2.257   3.094 -0.3428  0.2876  0.2306
  160OSM    O1317914   2.027   2.172   3.007 -0.1444 -0.1686 -0.0066
  160OSM    O1417915   2.254   2.250   3.043  0.3922 -0.2802 -0.3991
  160OSM    O1117916   2.122   2.208   3.238 -0.4719  0.3359  0.1489
  160OSM    O1217917   2.066   2.404   3.113  0.6676 -0.3450 -0.2717
  160OSM    C1S17918   2.194   2.269   3.349  0.4987 -0.3798  1.4660
  160OSM    H1S17919   2.176   2.378   3.348 -0.6352 -0.5538  0.2232
  160OSM    H1T17920   2.303   2.263   3.329  0.2026 -0.5209 -0.3467
  160OSM     NF17921   2.250   2.308   3.580 -0.1133 -0.1790 -0.4860
  160OSM    HNF17922   2.339   2.289   3.621 -0.2724  0.9718  0.4652
  160OSM    C2S17923   2.180   2.214   3.491  0.0950 -0.1911  0.4675
  160OSM    H2S17924   2.072   2.202   3.516 -0.0718 -0.6514 -0.4076
  160OSM    C3S17925   2.238   2.068   3.499 -0.5443 -0.1357  0.1628
  160OSM    H3S17926   2.348   2.085   3.502 -0.3433 -1.3870  0.6786
  160OSM     O317927   2.206   1.990   3.385 -0.2184  0.1586 -0.1769
  160OSM    HO317928   2.157   2.042   3.322 -0.0494  0.8835  0.2806
  160OSM    C4S17929   2.191   2.009   3.627 -0.2698 -0.4376  0.0861
  160OSM    H4S17930   2.081   2.001   3.636 -0.1105 -1.6648  1.1761
  160OSM    C5S17931   2.276   1.969   3.726 -0.2139  0.0364  1.0452
  160OSM    H5S17932   2.383   1.972   3.704 -0.1338 -1.5745  1.0678
  160OSM    C6S17933   2.243   1.895   3.852  0.2018  0.5607  0.1270
  160OSM    H6S17934   2.321   1.816   3.861  1.0118  1.3673  0.4118
  160OSM    H6T17935   2.141   1.852   3.852  1.5722 -3.0676  1.2599
  160OSM    C7S17936   2.259   1.993   3.967  0.7943  0.0664 -0.0631
  160OSM    H7S17937   2.199   2.086   3.953  0.5736 -0.3552 -2.2701
  160OSM    H7T17938   2.362   2.032   3.976  0.8530 -0.0506 -0.2228
  160OSM    C8S17939   2.225   1.925   4.099 -0.0022 -0.4937 -0.5073
  160OSM    H8S17940   2.273   1.825   4.102  0.6958 -0.1390  1.5294
  160OSM    H8T17941   2.115   1.914   4.107 -0.5459  3.6220 -0.3270
  160OSM    C9S17942   2.266   2.013   4.219  0.1487  0.1707  0.1580
  160OSM    H9S17943   2.226   2.115   4.197  1.4573  0.2165 -2.3332
  160OSM    H9T17944   2.375   2.022   4.235 -0.0575 -0.9372  2.7056
  160OSM   C10S17945   2.210   1.952   4.348  0.7501 -1.0364  0.6920
  160OSM   H10S17946   2.235   1.844   4.359  0.3452 -1.2065 -0.0069
  160OSM   H10T17947   2.099   1.943   4.348  0.6594 -0.8061 -1.7411
  160OSM   C11S17948   2.271   2.022   4.475  0.0925 -0.0283  0.6907
  160OSM   H11S17949   2.228   2.125   4.469 -1.5632 -0.7497 -0.9841
  160OSM   H11T17950   2.380   2.018   4.455 -0.3506 -1.1632 -2.0721
  160OSM   C12S17951   2.229   1.952   4.599  0.1752 -0.2587  0.3494
  160OSM   H12S17952   2.289   1.859   4.596  1.1354  0.3474  0.2044
  160OSM   H12T17953   2.124   1.915   4.599  0.6746 -1.7588  1.3406
  160OSM   C13S17954   2.271   2.032   4.725  0.1742 -0.0974  0.0997
  160OSM   H13S17955   2.211   2.124   4.735  1.2224  0.5304  0.9304
  160OSM   H13T17956   2.379   2.059   4.715 -0.0398 -0.0592 -3.2669
  160OSM   C14S17957   2.248   1.947   4.851 -0.1457  0.1442  0.6725
  160OSM   H14S17958   2.315   1.858   4.846 -0.7555 -0.2904  0.1772
  160OSM   H14T17959   2.141   1.918   4.848  0.2476 -1.3080 -0.3931
  160OSM   C15S17960   2.276   2.025   4.981  0.0976  0.6239 -0.2033
  160OSM   H15S17961   2.192   2.098   4.981  1.2143  1.9500 -0.2684
  160OSM   H15T17962   2.379   2.064   4.998 -0.1845  0.8183  1.2542
  160OSM   C16S17963   2.271   1.916   5.092 -0.4145  0.1970  0.6916
  160OSM   H16S17964   2.367   1.860   5.092 -0.8170 -0.5851 -1.6752
  160OSM   H16T17965   2.187   1.845   5.075  0.6243 -0.8823 -0.1219
  160OSM   C17S17966   2.250   1.983   5.229 -0.0371  0.0517  0.0064
  160OSM   H17S17967   2.157   2.043   5.218  0.7021  1.4273  0.9504
  160OSM   H17T17968   2.338   2.049   5.245 -1.6880  2.5428 -0.5841
  160OSM   C18S17969   2.229   1.873   5.339 -0.1338  0.3178 -0.4270
  160OSM   H18S17970   2.125   1.885   5.376  0.1691 -0.4122  0.7264
  160OSM   H18T17971   2.296   1.888   5.427 -2.1400 -0.4980  1.3442
  160OSM   H18U17972   2.236   1.771   5.295  1.8196  0.4557 -0.5337
  160OSM    C1F17973   2.187   2.418   3.621  0.5296  0.8834 -0.8264
  160OSM     OF17974   2.062   2.422   3.609  0.3535 -0.3164  0.3233
  160OSM    C2F17975   2.273   2.535   3.671  0.1159 -0.0406  0.1465
  160OSM    H2F17976   2.248   2.636   3.632 -0.1954 -0.2964 -0.3293
  160OSM    H2G17977   2.380   2.522   3.642 -0.2106  1.5378 -2.0674
  160OSM    C3F17978   2.289   2.552   3.819  0.4684 -0.1305 -0.4932
  160OSM    H3F17979   2.343   2.464   3.861 -0.0416 -0.3686 -0.3216
  160OSM    H3G17980   2.190   2.554   3.869  0.9548  2.0188  0.5019
  160OSM    C4F17981   2.359   2.680   3.864 -0.3102  0.2003  0.3457
  160OSM    H4F17982   2.325   2.761   3.797 -0.7955  1.0191  1.5502
  160OSM    H4G17983   2.469   2.666   3.853 -0.6965 -1.2474 -3.0605
  160OSM    C5F17984   2.333   2.719   4.010 -0.5037 -0.1611  0.0526
  160OSM    H5F17985   2.380   2.645   4.079 -0.9985 -1.0837 -0.5716
  160OSM    H5G17986   2.223   2.705   4.025 -0.1838 -1.3144  1.6633
  160OSM    C6F17987   2.351   2.862   4.054  0.5293 -0.8082 -0.1366
  160OSM    H6F17988   2.276   2.916   3.992 -0.4488 -1.4949  0.4199
  160OSM    H6G17989   2.451   2.899   4.021 -0.2831  3.6417  1.6833
  160OSM    C7F17990   2.322   2.885   4.202  0.0255  0.1026 -0.5769
  160OSM    H7F17991   2.235   2.820   4.224  1.6553 -2.2163 -0.7239
  160OSM    H7G17992   2.290   2.990   4.219  1.7367  0.4661  0.6868
  160OSM    C8F17993   2.439   2.859   4.294  0.8942 -0.3878  0.7355
  160OSM    H8F17994   2.520   2.935   4.289 -0.2004  0.7856  0.4395
  160OSM    H8G17995   2.490   2.764   4.266  1.5033  0.1337  0.0254
  160OSM    C9F17996   2.389   2.854   4.436 -0.9818  0.0657  0.3918
  160OSM    H9F17997   2.341   2.756   4.450 -0.0488 -0.7055 -1.5275
  160OSM   C10F17998   2.387   2.947   4.532  0.3435 -0.0164 -0.0822
  160OSM   H10F17999   2.348   2.927   4.633 -0.4836  0.8673 -0.2152
  160OSM   C11F18000   2.421   3.092   4.518  0.5688 -0.4301  0.6593
  160OSM   H11F18001   2.335   3.150   4.478  1.2189 -0.7146 -1.2567
  160OSM   H11G18002   2.501   3.107   4.442  0.4681  3.3448  1.1373
  160OSM   C12F18003   2.466   3.156   4.647 -0.5837  0.5294  0.7127
  160OSM   H12F18004   2.505   3.257   4.622 -0.5961  0.6248  1.0703
  160OSM   H12G18005   2.552   3.101   4.690  0.4434  0.5841 -1.1735
  160OSM   C13F18006   2.362   3.182   4.748  0.6169 -0.5250  0.1201
  160OSM   H13F18007   2.323   3.085   4.784  0.9117 -0.8903 -0.5314
  160OSM   H13G18008   2.286   3.235   4.687  0.5349 -1.6049 -0.7364
  160OSM   C14F18009   2.409   3.279   4.862 -0.4524  0.0141  0.0586
  160OSM   H14F18010   2.415   3.385   4.827 -0.3617 -0.6904 -2.1812
  160OSM   H14G18011   2.511   3.247   4.890 -0.8851 -3.9483 -2.2595
  160OSM   C15F18012   2.324   3.261   4.989  0.3049 -0.7615  0.1588
  160OSM   H15F18013   2.310   3.155   5.020 -2.6865 -0.5374 -0.1823
  160OSM   H15G18014   2.224   3.297   4.956 -0.8160 -1.2076  2.7576
  160OSM   C16F18015   2.377   3.355   5.105  0.1809 -0.7358 -0.0037
  160OSM   H16F18016   2.363   3.462   5.075  3.8646  0.5980  2.3142
  160OSM   H16G18017   2.488   3.347   5.107  0.2934  0.5297  0.0032
  160OSM   C17F18018   2.309   3.333   5.238  0.2743  0.8862  1.4844
  160OSM   H17F18019   2.324   3.224   5.252 -3.1146 -0.1323 -1.3083
  160OSM   H17G18020   2.198   3.341   5.235  0.1960  0.1437 -1.8777
  160OSM   C18F18021   2.363   3.424   5.352 -0.1980  0.4110  0.0066
  160OSM   H18F18022   2.302   3.401   5.442  0.6767  2.8717  1.3060
  160OSM   H18G18023   2.357   3.531   5.323  1.5386  0.2213 -1.2458
  160OSM   H18H18024   2.467   3.394   5.379 -0.5148 -2.8230 -1.7797
  161OSM      N18025   6.695   1.271   3.348 -0.6941  0.8812  0.6585
  161OSM    C1518026   6.634   1.316   3.478 -0.0691  0.3036  0.5243
  161OSM   H15A18027   6.616   1.235   3.547  0.7193 -1.0006 -0.7645
  161OSM   H15B18028   6.543   1.373   3.463 -0.5293 -0.0892  1.6551
  161OSM   H15C18029   6.693   1.386   3.535  0.0340 -0.2856  1.1631
  161OSM    C1418030   6.596   1.180   3.274 -0.1871 -0.3651  0.2462
  161OSM   H14A18031   6.496   1.217   3.284 -0.1457 -0.6830  2.1531
  161OSM   H14B18032   6.592   1.080   3.313 -0.5084 -0.0886  0.9295
  161OSM   H14C18033   6.629   1.163   3.173  1.0231 -0.8297  0.6924
  161OSM    C1318034   6.714   1.387   3.264 -0.7917  0.3443 -0.0941
  161OSM   H13A18035   6.741   1.364   3.161 -1.6146 -2.0633  0.1651
  161OSM   H13B18036   6.794   1.446   3.307  1.2917 -1.4625 -1.2614
  161OSM   H13C18037   6.626   1.450   3.268 -1.6905 -0.7518 -1.6027
  161OSM    C1218038   6.832   1.204   3.376 -0.5411 -0.4081  0.4183
  161OSM   H12A18039   6.808   1.119   3.438 -0.1163 -0.8796 -0.0486
  161OSM   H12B18040   6.900   1.269   3.430  1.3208 -2.1395  0.3139
  161OSM    C1118041   6.912   1.143   3.261 -0.1507 -0.1884  0.0366
  161OSM   H11A18042   7.012   1.117   3.301  0.0236  0.3747 -0.0205
  161OSM   H11B18043   6.939   1.210   3.177 -1.5973  0.3413 -0.0368
  161OSM      P18044   6.872   0.884   3.286  0.3001  0.1845  0.5397
  161OSM    O1318045   6.772   0.791   3.230  0.5937 -0.2402 -0.5998
  161OSM    O1418046   7.009   0.839   3.268 -0.3545  0.4732 -0.2204
  161OSM    O1118047   6.844   0.908   3.443 -0.2589  0.6857 -0.0216
  161OSM    O1218048   6.844   1.025   3.219 -0.1343  0.3291  0.1265
  161OSM    C1S18049   6.936   0.854   3.538  0.1823 -0.2425  1.3186
  161OSM    H1S18050   7.035   0.904   3.535  0.3721 -0.5436  2.1162
  161OSM    H1T18051   6.970   0.752   3.509  1.2877  0.5805 -0.4303
  161OSM     NF18052   6.984   0.799   3.775 -0.5639  0.3060 -0.4028
  161OSM    HNF18053   6.964   0.712   3.820  0.3296  0.6583  0.7277
  161OSM    C2S18054   6.883   0.854   3.678 -0.6966  0.5358 -0.8147
  161OSM    H2S18055   6.858   0.958   3.708 -1.8963  0.0150  0.0438
  161OSM    C3S18056   6.749   0.776   3.690 -0.7972 -0.3181 -0.1502
  161OSM    H3S18057   6.785   0.672   3.673  2.2354  0.4318  1.0881
  161OSM     O318058   6.651   0.805   3.589 -0.8189  0.4390 -0.0774
  161OSM    HO318059   6.704   0.859   3.530 -3.2034  0.4138 -2.4190
  161OSM    C4S18060   6.691   0.800   3.828  0.3501 -0.5256 -0.2198
  161OSM    H4S18061   6.633   0.893   3.833 -0.5364 -1.0648 -0.2958
  161OSM    C5S18062   6.692   0.719   3.932 -0.1661 -0.6559 -0.1445
  161OSM    H5S18063   6.754   0.631   3.913  1.3932  0.5474 -0.8727
  161OSM    C6S18064   6.623   0.744   4.063  0.4073  0.0185  0.1509
  161OSM    H6S18065   6.524   0.694   4.069 -0.2253  1.3814  2.2878
  161OSM    H6T18066   6.589   0.848   4.084 -2.7991 -1.2447  1.8373
  161OSM    C7S18067   6.706   0.694   4.180  0.0828  0.4970 -1.0291
  161OSM    H7S18068   6.794   0.761   4.195  0.6048 -0.6908  2.0314
  161OSM    H7T18069   6.748   0.592   4.165  0.8117  0.6538 -0.1684
  161OSM    C8S18070   6.622   0.691   4.316 -0.1186  0.1690 -0.4085
  161OSM    H8S18071   6.545   0.612   4.306  0.2829 -0.7017  2.5361
  161OSM    H8T18072   6.570   0.787   4.338  0.2189  0.4027 -0.6185
  161OSM    C9S18073   6.702   0.626   4.434  0.1972  0.7740  0.9484
  161OSM    H9S18074   6.776   0.698   4.477  1.4052 -0.7471  1.4964
  161OSM    H9T18075   6.760   0.537   4.400  1.9188  1.8108  1.0300
  161OSM   C10S18076   6.600   0.576   4.539  0.1272  0.3326 -0.0726
  161OSM   H10S18077   6.560   0.480   4.500  1.7286 -0.4362  0.0891
  161OSM   H10T18078   6.518   0.649   4.551  0.3410  0.7259 -0.8759
  161OSM   C11S18079   6.668   0.545   4.676  0.0355 -0.2638  0.2277
  161OSM   H11S18080   6.748   0.617   4.705  2.0564 -1.5233 -1.9765
  161OSM   H11T18081   6.715   0.445   4.665  0.7668  0.0792  0.1817
  161OSM   C12S18082   6.553   0.559   4.782  0.6772 -0.2988 -0.9742
  161OSM   H12S18083   6.466   0.495   4.754 -0.3822  0.7226 -0.1203
  161OSM   H12T18084   6.523   0.666   4.785  1.5271 -0.0768  0.7314
  161OSM   C13S18085   6.604   0.515   4.924 -0.5113 -0.0398  0.1168
  161OSM   H13S18086   6.693   0.580   4.939 -0.0654  0.1955 -2.9418
  161OSM   H13T18087   6.647   0.412   4.919  0.7587  0.4150  1.0716
  161OSM   C14S18088   6.493   0.529   5.041 -0.2465 -0.2675  0.4456
  161OSM   H14S18089   6.403   0.467   5.019  0.3613 -0.5966 -1.2980
  161OSM   H14T18090   6.475   0.638   5.047  0.1866 -0.1536 -0.1850
  161OSM   C15S18091   6.547   0.486   5.174 -0.5666  0.4415  0.4482
  161OSM   H15S18092   6.641   0.543   5.191 -1.1137  2.2347 -2.0323
  161OSM   H15T18093   6.569   0.377   5.172 -1.8479  0.1737 -0.5249
  161OSM   C16S18094   6.448   0.510   5.290 -0.2380  0.1158 -0.0706
  161OSM   H16S18095   6.363   0.440   5.273 -0.7316  1.0927 -1.9312
  161OSM   H16T18096   6.403   0.610   5.274  0.5735  0.4876 -0.0722
  161OSM   C17S18097   6.519   0.501   5.424 -1.2728 -0.3123 -0.1981
  161OSM   H17S18098   6.610   0.565   5.427 -0.6683 -1.1763  0.2178
  161OSM   H17T18099   6.572   0.404   5.435 -0.8322  0.1389  2.1963
  161OSM   C18S18100   6.435   0.530   5.551  0.4208 -0.2191 -0.0622
  161OSM   H18S18101   6.364   0.610   5.523  1.2834  1.3203  1.8265
  161OSM   H18T18102   6.497   0.571   5.634 -1.2669  1.2398  0.5314
  161OSM   H18U18103   6.391   0.433   5.584 -0.7324  0.1305 -0.5301
  161OSM    C1F18104   7.107   0.859   3.794  0.2036  0.1259 -0.0963
  161OSM     OF18105   7.131   0.969   3.752 -0.4077 -0.1282 -0.5797
  161OSM    C2F18106   7.208   0.775   3.864  1.0236 -0.5599 -0.1829
  161OSM    H2F18107   7.302   0.783   3.805  2.2159 -0.3660  1.6609
  161OSM    H2G18108   7.171   0.670   3.864 -0.9633  0.0915 -1.3886
  161OSM    C3F18109   7.235   0.825   4.005  0.7578  0.2084 -0.0528
  161OSM    H3F18110   7.259   0.931   4.028 -1.9088  1.0746 -0.8575
  161OSM    H3G18111   7.320   0.763   4.041  0.5177  0.1617  0.4381
  161OSM    C4F18112   7.118   0.793   4.104 -0.3357 -0.1925 -0.5580
  161OSM    H4F18113   7.093   0.690   4.073  0.9909 -0.8905  0.5965
  161OSM    H4G18114   7.029   0.859   4.089  0.9985  1.7221 -0.4448
  161OSM    C5F18115   7.167   0.796   4.249  0.1015  0.4289 -0.1663
  161OSM    H5F18116   7.198   0.898   4.281 -1.4778  0.1435  2.5664
  161OSM    H5G18117   7.246   0.719   4.264 -1.3415 -0.7559  1.7601
  161OSM    C6F18118   7.052   0.764   4.346 -0.3011  0.0699 -0.3294
  161OSM    H6F18119   7.022   0.663   4.311 -0.7023  0.7472 -1.9954
  161OSM    H6G18120   6.968   0.835   4.333 -0.6885  0.4374  3.1568
  161OSM    C7F18121   7.082   0.764   4.496  0.1618  0.1683  0.5842
  161OSM    H7F18122   6.985   0.761   4.550 -1.2024  1.9345 -1.5750
  161OSM    H7G18123   7.121   0.864   4.526  0.1832  0.1288  0.6888
  161OSM    C8F18124   7.196   0.671   4.553  0.3831 -0.6100 -0.0738
  161OSM    H8F18125   7.222   0.703   4.656  0.7521  0.7664 -0.5726
  161OSM    H8G18126   7.287   0.697   4.495  1.0950  0.1118  1.3144
  161OSM    C9F18127   7.166   0.523   4.544 -0.0646 -0.1346 -0.7336
  161OSM    H9F18128   7.153   0.487   4.441  1.2681  1.6013 -1.5630
  161OSM   C10F18129   7.151   0.447   4.647  0.3507  0.5718  0.2993
  161OSM   H10F18130   7.141   0.341   4.618 -0.0984  1.7378 -4.5852
  161OSM   C11F18131   7.158   0.470   4.792  0.0298  0.1685 -0.7081
  161OSM   H11F18132   7.228   0.552   4.820  2.1641 -1.9500  0.5635
  161OSM   H11G18133   7.196   0.385   4.853  0.5417 -1.8598 -3.6076
  161OSM   C12F18134   7.013   0.497   4.842  0.1881  0.2862 -0.0110
  161OSM   H12F18135   6.938   0.416   4.844 -0.5982  0.9113  3.7316
  161OSM   H12G18136   6.958   0.569   4.777 -0.6907 -0.8136 -0.5376
  161OSM   C13F18137   6.997   0.547   4.985  0.3572  0.2508  0.2249
  161OSM   H13F18138   6.888   0.564   4.997  0.1329  1.2604 -2.5689
  161OSM   H13G18139   7.070   0.627   5.013  1.3008 -0.8605  1.0717
  161OSM   C14F18140   7.029   0.441   5.097 -0.3363 -0.1466  0.4156
  161OSM   H14F18141   7.124   0.390   5.070 -1.5085 -2.7119  0.8870
  161OSM   H14G18142   6.948   0.365   5.095 -0.2166 -0.2603 -0.5602
  161OSM   C15F18143   7.048   0.502   5.238  0.1239  0.2922  0.4482
  161OSM   H15F18144   6.957   0.564   5.258 -0.3039  0.2679 -1.2317
  161OSM   H15G18145   7.139   0.564   5.228 -0.1303  0.4308 -1.2679
  161OSM   C16F18146   7.058   0.400   5.351  0.4461  0.6848  0.6830
  161OSM   H16F18147   7.098   0.449   5.442 -0.0753  1.8306  0.3211
  161OSM   H16G18148   7.120   0.311   5.326 -2.2805 -0.4542 -2.9356
  161OSM   C17F18149   6.917   0.352   5.388  0.0159  0.1008 -0.3245
  161OSM   H17F18150   6.864   0.308   5.300 -1.5319  1.1216  0.0446
  161OSM   H17G18151   6.862   0.444   5.418 -1.0486 -1.9225  4.9564
  161OSM   C18F18152   6.916   0.256   5.508  0.2703 -0.1509  0.3072
  161OSM   H18F18153   6.941   0.299   5.607  1.5523  1.4613 -0.6687
  161OSM   H18G18154   6.988   0.177   5.477  1.8774  0.9236  1.1858
  161OSM   H18H18155   6.814   0.212   5.499 -0.4495  1.6608 -0.9462
  162OSM      N18156   0.871   1.786   2.972  0.7579  0.9832  0.0153
  162OSM    C1518157   0.987   1.879   3.006 -0.2153  0.4292 -0.2419
  162OSM   H15A18158   1.019   1.879   3.109  4.2858 -0.7138 -1.4141
  162OSM   H15B18159   0.964   1.982   2.979  0.8891  0.3670 -1.5076
  162OSM   H15C18160   1.074   1.865   2.944 -0.4088  0.6561 -0.5740
  162OSM    C1418161   0.849   1.789   2.820  0.3080 -0.1224  0.0826
  162OSM   H14A18162   0.825   1.888   2.783 -0.1370 -0.8622 -1.7235
  162OSM   H14B18163   0.767   1.726   2.790  2.7565 -2.4978 -2.2943
  162OSM   H14C18164   0.937   1.752   2.769 -0.1765 -2.0318  0.5649
  162OSM    C1318165   0.896   1.644   3.013 -0.4944  0.2869  0.0389
  162OSM   H13A18166   0.827   1.573   2.971  0.1867 -0.2705 -0.1686
  162OSM   H13B18167   0.895   1.634   3.121 -0.6659 -0.4880 -0.0297
  162OSM   H13C18168   0.998   1.614   2.990 -1.3242 -0.4896 -3.0103
  162OSM    C1218169   0.749   1.836   3.047  0.2861  0.0051  0.1158
  162OSM   H12A18170   0.663   1.772   3.035 -0.4023  0.9229  0.0718
  162OSM   H12B18171   0.712   1.929   3.008 -0.1409 -0.1682  0.0991
  162OSM    C1118172   0.762   1.852   3.197 -0.3578  0.6180  0.1076
  162OSM   H11A18173   0.673   1.907   3.234 -3.2843 -3.9640  0.6384
  162OSM   H11B18174   0.849   1.914   3.228  0.9693 -0.9124 -0.4409
  162OSM      P18175   0.652   1.637   3.305 -0.4360 -0.0202 -0.5831
  162OSM    O1318176   0.521   1.707   3.303 -0.0479  0.9781 -0.1001
  162OSM    O1418177   0.657   1.512   3.234  0.0839  0.0005 -0.2816
  162OSM    O1118178   0.686   1.613   3.457  0.3726  1.0452 -0.0788
  162OSM    O1218179   0.774   1.725   3.258 -0.2178 -0.2858  0.1831
  162OSM    C1S18180   0.761   1.707   3.529 -0.1054 -0.1688  0.1056
  162OSM    H1S18181   0.690   1.788   3.555  0.7707  0.0469  1.9431
  162OSM    H1T18182   0.841   1.760   3.472 -1.5971  2.2337  0.1206
  162OSM     NF18183   0.884   1.774   3.726  0.7802  0.1435 -0.3791
  162OSM    HNF18184   0.976   1.809   3.707  1.8485 -0.3969  3.0187
  162OSM    C2S18185   0.838   1.654   3.655 -0.0159 -0.1430  0.0130
  162OSM    H2S18186   0.757   1.601   3.711 -0.0269  1.7043  1.8813
  162OSM    C3S18187   0.951   1.553   3.612 -0.3343 -0.2815 -0.2973
  162OSM    H3S18188   1.029   1.608   3.554 -0.1372 -1.9287 -1.6675
  162OSM     O318189   0.905   1.452   3.523  0.7586  0.7613  0.3357
  162OSM    HO318190   0.820   1.485   3.494  1.4896  0.4368 -2.4726
  162OSM    C4S18191   1.016   1.485   3.735 -0.2894  1.2088  0.1500
  162OSM    H4S18192   1.124   1.497   3.748 -0.0498 -1.7391  1.6339
  162OSM    C5S18193   0.955   1.409   3.830  0.0665  0.9339  0.6846
  162OSM    H5S18194   0.846   1.393   3.833  0.3529 -2.0108 -1.0559
  162OSM    C6S18195   1.024   1.342   3.953  0.5913 -0.3453  0.1818
  162OSM    H6S18196   1.134   1.355   3.946  0.6091 -1.0943 -1.4452
  162OSM    H6T18197   0.987   1.237   3.959 -3.2722  0.8956  0.8579
  162OSM    C7S18198   0.980   1.404   4.093 -0.8116  0.3473  0.5441
  162OSM    H7S18199   0.872   1.378   4.098  0.1169 -4.2459  1.2500
  162OSM    H7T18200   0.994   1.514   4.091 -0.1099  0.2742 -1.8567
  162OSM    C8S18201   1.046   1.344   4.228  0.4172 -0.3853 -0.7695
  162OSM    H8S18202   1.152   1.377   4.237  0.7036 -1.0756 -1.4765
  162OSM    H8T18203   1.035   1.233   4.234 -1.3602 -0.1770  0.7320
  162OSM    C9S18204   0.984   1.415   4.357 -0.4617 -0.1369 -0.1504
  162OSM    H9S18205   0.876   1.388   4.358 -0.5919  0.3872  0.5932
  162OSM    H9T18206   0.999   1.524   4.343  1.0998  0.0280  2.2038
  162OSM   C10S18207   1.057   1.360   4.478 -0.3571  0.6917 -0.5759
  162OSM   H10S18208   1.161   1.398   4.483 -0.0257 -0.2153 -0.2087
  162OSM   H10T18209   1.076   1.250   4.486 -0.5227  0.8015  3.0610
  162OSM   C11S18210   0.976   1.385   4.606  0.1991  0.0494 -0.7005
  162OSM   H11S18211   0.870   1.364   4.580  0.2855  0.6016 -1.5444
  162OSM   H11T18212   0.979   1.492   4.635  0.8569 -0.1433 -0.0323
  162OSM   C12S18213   1.026   1.303   4.721 -0.4669  0.2760 -0.2218
  162OSM   H12S18214   1.137   1.301   4.721 -0.4683 -1.6060 -0.7123
  162OSM   H12T18215   0.991   1.198   4.712  2.3511 -0.7953  0.4764
  162OSM   C13S18216   0.977   1.359   4.852 -0.2679 -0.2546  0.2462
  162OSM   H13S18217   0.867   1.360   4.838 -0.2492  1.6199 -0.1144
  162OSM   H13T18218   1.004   1.467   4.863  0.9740 -0.6919  1.9573
  162OSM   C14S18219   1.014   1.273   4.977  0.0912  0.5962  0.0596
  162OSM   H14S18220   1.120   1.244   4.993 -0.3348 -0.4479  1.1779
  162OSM   H14T18221   0.951   1.188   4.942  1.1039 -1.4221  2.7922
  162OSM   C15S18222   0.952   1.328   5.094  0.7416  0.3051 -0.8461
  162OSM   H15S18223   0.848   1.354   5.067  0.1315 -0.4381  0.6494
  162OSM   H15T18224   1.008   1.421   5.115  0.0077  0.6244 -0.2685
  162OSM   C16S18225   0.954   1.235   5.216  0.3886 -0.2704  1.0236
  162OSM   H16S18226   0.892   1.281   5.296 -0.6681  0.5850 -0.2437
  162OSM   H16T18227   1.058   1.227   5.253  0.4282  0.1472  1.0127
  162OSM   C17S18228   0.890   1.095   5.191  0.6683 -0.3428 -0.6795
  162OSM   H17S18229   0.941   1.032   5.116  0.0765 -0.0386 -1.3522
  162OSM   H17T18230   0.786   1.107   5.155  1.1637 -0.4634 -2.1902
  162OSM   C18S18231   0.882   1.013   5.321  0.2321 -0.8783  0.3003
  162OSM   H18S18232   0.794   1.059   5.371 -0.1221 -0.1733 -0.9103
  162OSM   H18T18233   0.977   1.029   5.376  0.7760 -2.3169 -0.1633
  162OSM   H18U18234   0.867   0.905   5.301  0.1228 -0.7806 -0.1761
  162OSM    C1F18235   0.799   1.853   3.796 -0.2460 -0.5990  0.1514
  162OSM     OF18236   0.688   1.821   3.818  0.0631 -0.1769 -0.2194
  162OSM    C2F18237   0.851   1.984   3.850  0.2969 -0.1821  0.1364
  162OSM    H2F18238   0.764   2.053   3.861 -2.2386 -3.1937  0.5223
  162OSM    H2G18239   0.926   2.033   3.784  0.2626 -1.6571 -1.0685
  162OSM    C3F18240   0.924   1.973   3.985 -0.4847  0.7363 -0.2058
  162OSM    H3F18241   0.962   2.073   4.015  0.9619  0.6362 -1.5634
  162OSM    H3G18242   1.016   1.921   3.951 -0.3733  0.0287  1.1160
  162OSM    C4F18243   0.846   1.906   4.097 -0.0526 -0.1259  0.1223
  162OSM    H4F18244   0.757   1.847   4.065  1.7971 -2.2676 -1.3249
  162OSM    H4G18245   0.816   1.992   4.163  0.5392 -0.3914  0.7475
  162OSM    C5F18246   0.927   1.814   4.188 -0.0510 -0.0431  0.3546
  162OSM    H5F18247   0.955   1.725   4.127 -3.8618  0.3845 -2.3837
  162OSM    H5G18248   0.863   1.768   4.266 -1.8406 -0.6225 -1.3581
  162OSM    C6F18249   1.052   1.883   4.252  0.3935  0.6704 -0.2382
  162OSM    H6F18250   1.023   1.961   4.326  0.7436  0.0401  0.5867
  162OSM    H6G18251   1.115   1.925   4.171  0.4549 -1.6436 -1.4841
  162OSM    C7F18252   1.137   1.774   4.324  1.1926 -0.6040  0.5160
  162OSM    H7F18253   1.161   1.690   4.255 -1.5143 -1.8979  1.0016
  162OSM    H7G18254   1.076   1.733   4.408  0.1144  0.4136  0.2566
  162OSM    C8F18255   1.284   1.826   4.354 -0.0358  0.0094  0.6092
  162OSM    H8F18256   1.269   1.924   4.404 -0.2252  0.6030 -0.5844
  162OSM    H8G18257   1.325   1.845   4.253  0.1983 -0.8461  0.5309
  162OSM    C9F18258   1.346   1.727   4.444 -0.6535  0.3957  0.5697
  162OSM    H9F18259   1.383   1.640   4.387  3.3647  2.3858 -0.2195
  162OSM   C10F18260   1.377   1.746   4.575 -0.6036 -0.4318 -0.4780
  162OSM   H10F18261   1.398   1.660   4.640 -2.1794  0.3523  1.1668
  162OSM   C11F18262   1.335   1.868   4.659  0.3234 -0.1077  0.0430
  162OSM   H11F18263   1.345   1.966   4.607  1.2003 -0.1131  0.1929
  162OSM   H11G18264   1.401   1.881   4.748 -0.4789  3.6110  0.2551
  162OSM   C12F18265   1.185   1.858   4.704  1.3738 -0.2555  0.0447
  162OSM   H12F18266   1.136   1.858   4.604  0.4385  1.8518  0.4631
  162OSM   H12G18267   1.152   1.951   4.754  0.6965 -1.3651  1.7511
  162OSM   C13F18268   1.150   1.741   4.798 -0.2153 -0.2598  0.2892
  162OSM   H13F18269   1.196   1.647   4.761  0.6245 -0.3006  1.4016
  162OSM   H13G18270   1.040   1.728   4.808 -0.2984  0.7877  0.8669
  162OSM   C14F18271   1.210   1.773   4.944  0.8393 -0.4011 -0.2762
  162OSM   H14F18272   1.178   1.875   4.973  0.8065  0.2355 -2.3923
  162OSM   H14G18273   1.320   1.769   4.930  0.9920 -0.6341  0.9481
  162OSM   C15F18274   1.161   1.661   5.036  0.0217 -0.1675 -0.2014
  162OSM   H15F18275   1.191   1.562   4.995  0.2566  0.1754 -0.8780
  162OSM   H15G18276   1.051   1.668   5.042  0.1007  1.5978 -0.1641
  162OSM   C16F18277   1.217   1.684   5.177 -0.5146  1.3513 -0.4724
  162OSM   H16F18278   1.323   1.659   5.158 -0.7393 -1.1016  1.0094
  162OSM   H16G18279   1.172   1.611   5.247 -0.2660  1.9329  0.3006
  162OSM   C17F18280   1.217   1.826   5.232 -0.1568 -0.6096 -0.9172
  162OSM   H17F18281   1.116   1.859   5.264  0.7840  0.8003  0.7545
  162OSM   H17G18282   1.258   1.895   5.155 -1.4886  0.7096 -0.4803
  162OSM   C18F18283   1.306   1.842   5.359 -0.5609  0.2489 -0.1095
  162OSM   H18F18284   1.413   1.819   5.336  0.2510  1.1823  2.3980
  162OSM   H18G18285   1.260   1.782   5.440 -1.1442  0.1200 -0.5356
  162OSM   H18H18286   1.315   1.945   5.400  0.2801  0.7761 -1.5291
  163OSM      N18287   5.510   1.461   3.315  0.4281  0.1042 -0.3401
  163OSM    C1518288   5.552   1.322   3.314 -0.1108 -1.1881 -0.1783
  163OSM   H15A18289   5.565   1.287   3.213  3.8112 -1.9128  0.3992
  163OSM   H15B18290   5.483   1.262   3.370 -1.2137 -0.8521 -1.1455
  163OSM   H15C18291   5.650   1.305   3.355  0.8472 -0.6627 -2.0996
  163OSM    C1418292   5.610   1.556   3.255  0.1623  0.0171 -0.0111
  163OSM   H14A18293   5.699   1.589   3.306 -1.5888  1.1274  2.5229
  163OSM   H14B18294   5.572   1.648   3.214 -0.0686 -0.3879 -0.7393
  163OSM   H14C18295   5.649   1.504   3.168  0.0373 -0.2741  0.1061
  163OSM    C1318296   5.377   1.463   3.256  0.4610  0.5846  0.1714
  163OSM   H13A18297   5.319   1.392   3.314 -0.5668  1.7422  0.6028
  163OSM   H13B18298   5.379   1.438   3.151 -0.4528 -0.2387  0.3325
  163OSM   H13C18299   5.330   1.559   3.268  0.2046  0.5438 -0.4857
  163OSM    C1218300   5.478   1.504   3.455 -0.2916 -0.3889 -0.3926
  163OSM   H12A18301   5.400   1.447   3.504  3.5725 -2.7510  3.8345
  163OSM   H12B18302   5.444   1.607   3.457 -1.1561 -0.6546 -0.9079
  163OSM    C1118303   5.600   1.498   3.559  0.6491 -0.3695  0.0986
  163OSM   H11A18304   5.637   1.395   3.576 -0.0320 -0.5802  0.3361
  163OSM   H11B18305   5.549   1.532   3.652 -1.1480 -1.0371 -0.5990
  163OSM      P18306   5.855   1.566   3.522 -0.3101  0.7580 -0.1326
  163OSM    O1318307   5.866   1.456   3.426  0.3000 -0.0380  0.4318
  163OSM    O1418308   5.919   1.692   3.471 -0.2788 -0.0971 -0.1264
  163OSM    O1118309   5.913   1.526   3.672  0.1515 -0.2350 -0.0211
  163OSM    O1218310   5.706   1.595   3.533 -0.0521 -0.4888 -0.2568
  163OSM    C1S18311   5.871   1.612   3.776  0.1468  0.1165  0.5316
  163OSM    H1S18312   5.771   1.578   3.809 -1.8973  3.0665 -2.1057
  163OSM    H1T18313   5.850   1.714   3.739 -1.3301 -0.7502 -1.1456
  163OSM     NF18314   5.930   1.725   3.994  0.4138 -0.1959  0.6423
  163OSM    HNF18315   5.978   1.812   4.007  0.3057 -0.2028  1.0873
  163OSM    C2S18316   5.980   1.625   3.898  1.4769  0.1354 -0.5162
  163OSM    H2S18317   5.972   1.524   3.943  1.7702  0.3922  0.1199
  163OSM    C3S18318   6.119   1.647   3.844 -0.6734 -0.7174  0.1362
  163OSM    H3S18319   6.120   1.746   3.794  0.7681 -1.1360 -0.7312
  163OSM     O318320   6.162   1.548   3.749  0.5850  0.1846 -0.4727
  163OSM    HO318321   6.086   1.492   3.733  0.8651 -0.5856  0.8254
  163OSM    C4S18322   6.219   1.649   3.965 -0.3086 -0.1801 -0.2882
  163OSM    H4S18323   6.230   1.748   4.012  4.4710  0.7879 -2.7315
  163OSM    C5S18324   6.292   1.545   4.020  0.4324  0.3463  0.1523
  163OSM    H5S18325   6.285   1.449   3.966 -1.0163  1.0952 -1.0576
  163OSM    C6S18326   6.379   1.545   4.148  0.0555  0.7666  0.1805
  163OSM    H6S18327   6.485   1.534   4.118  0.4711  1.6040  1.3031
  163OSM    H6T18328   6.364   1.456   4.212 -0.3926  1.0504  0.4813
  163OSM    C7S18329   6.375   1.672   4.232  0.2879 -0.4663 -0.3862
  163OSM    H7S18330   6.270   1.692   4.261  0.2812 -0.2323 -0.5622
  163OSM    H7T18331   6.410   1.761   4.175  0.4615 -1.5370 -2.0139
  163OSM    C8S18332   6.472   1.657   4.349 -0.8560 -0.8408 -0.3335
  163OSM    H8S18333   6.492   1.754   4.400  2.1941 -3.1115  3.2799
  163OSM    H8T18334   6.569   1.628   4.303 -2.2189 -1.7362 -2.8761
  163OSM    C9S18335   6.441   1.559   4.457  0.1634 -0.4109  0.4474
  163OSM    H9S18336   6.432   1.451   4.431 -0.2698 -0.4482  0.7562
  163OSM    H9T18337   6.352   1.591   4.514  0.3879  0.9375  0.0653
  163OSM   C10S18338   6.545   1.568   4.570  0.6242  0.3419  0.2659
  163OSM   H10S18339   6.538   1.669   4.616  2.5668  0.0815  1.2077
  163OSM   H10T18340   6.647   1.553   4.530 -0.1038  0.2991 -1.6957
  163OSM   C11S18341   6.506   1.473   4.685 -0.0797 -0.0242 -0.0206
  163OSM   H11S18342   6.524   1.373   4.639 -0.7335  1.1708 -3.1466
  163OSM   H11T18343   6.397   1.476   4.705 -0.1857  0.9509 -0.6603
  163OSM   C12S18344   6.592   1.502   4.804  0.3835  0.3683 -0.8103
  163OSM   H12S18345   6.582   1.608   4.839  0.8689  0.7879 -1.9175
  163OSM   H12T18346   6.696   1.473   4.781  1.1169  1.2789  1.0882
  163OSM   C13S18347   6.571   1.411   4.936  0.4727 -0.3338  0.8116
  163OSM   H13S18348   6.590   1.304   4.909  0.1967 -0.5633  1.5109
  163OSM   H13T18349   6.464   1.433   4.954  0.3094  0.5319 -0.9958
  163OSM   C14S18350   6.661   1.449   5.050 -0.5872 -0.2252 -0.6142
  163OSM   H14S18351   6.684   1.556   5.032  0.5486  0.1110  2.3365
  163OSM   H14T18352   6.763   1.405   5.051 -0.4432  0.0426  1.9817
  163OSM   C15S18353   6.601   1.412   5.190 -0.2130 -0.0303 -0.2194
  163OSM   H15S18354   6.608   1.302   5.175 -2.5015 -0.3579  0.7426
  163OSM   H15T18355   6.500   1.450   5.215 -0.2249  0.4044 -0.8878
  163OSM   C16S18356   6.689   1.459   5.304  0.4056  0.0063 -0.5751
  163OSM   H16S18357   6.793   1.425   5.283  0.4894 -0.1622  0.0889
  163OSM   H16T18358   6.653   1.414   5.400 -0.0310  0.0872 -0.6965
  163OSM   C17S18359   6.680   1.611   5.327 -0.0064  0.0090 -0.1388
  163OSM   H17S18360   6.572   1.638   5.336  0.0786  0.4970 -0.5919
  163OSM   H17T18361   6.727   1.670   5.246  0.7054  1.9583  1.6014
  163OSM   C18S18362   6.754   1.645   5.449  0.0303 -0.3247  0.0219
  163OSM   H18S18363   6.712   1.607   5.544  1.4706 -1.4863  0.2231
  163OSM   H18T18364   6.763   1.755   5.467 -1.7094 -0.1184 -0.2175
  163OSM   H18U18365   6.861   1.616   5.440 -0.3436 -1.1618 -2.5314
  163OSM    C1F18366   5.840   1.690   4.085 -0.2784  0.6693  0.0661
  163OSM     OF18367   5.794   1.577   4.082 -0.2710 -0.1663  0.0464
  163OSM    C2F18368   5.810   1.781   4.201 -0.4009 -0.2579 -0.3430
  163OSM    H2F18369   5.783   1.883   4.166  0.9307  0.5070  0.7584
  163OSM    H2G18370   5.908   1.791   4.253  0.0002  1.6648 -1.3845
  163OSM    C3F18371   5.721   1.710   4.302  0.2701 -0.3924  0.1588
  163OSM    H3F18372   5.773   1.614   4.321  0.5384 -0.0541  1.2027
  163OSM    H3G18373   5.614   1.699   4.272 -0.7276 -2.1486  3.7869
  163OSM    C4F18374   5.723   1.771   4.445 -0.7128 -0.2615 -0.5368
  163OSM    H4F18375   5.829   1.753   4.470 -1.5392 -0.0914  3.9690
  163OSM    H4G18376   5.671   1.700   4.514  1.1418 -3.0439 -1.8207
  163OSM    C5F18377   5.703   1.920   4.448  0.0323 -0.7820  0.6079
  163OSM    H5F18378   5.603   1.952   4.413  0.9653  1.1185 -0.4723
  163OSM    H5G18379   5.779   1.973   4.386 -2.2645  0.9042 -0.9547
  163OSM    C6F18380   5.724   1.981   4.587 -0.0237  0.5599  0.5765
  163OSM    H6F18381   5.704   2.090   4.582  1.5625  0.9025  1.0549
  163OSM    H6G18382   5.833   1.965   4.603  0.2946  1.9879 -0.0565
  163OSM    C7F18383   5.650   1.917   4.702 -0.1311 -0.7443 -0.6345
  163OSM    H7F18384   5.682   1.811   4.718 -1.9317 -1.4219 -1.2992
  163OSM    H7G18385   5.541   1.900   4.695  0.0826 -2.5783 -0.2423
  163OSM    C8F18386   5.676   2.004   4.836 -0.3717  0.8234  0.9721
  163OSM    H8F18387   5.764   2.071   4.833  1.0492 -1.0014 -0.1007
  163OSM    H8G18388   5.702   1.930   4.915 -2.7394 -0.5219  0.5882
  163OSM    C9F18389   5.559   2.088   4.879  0.1150  0.1564  0.3999
  163OSM    H9F18390   5.509   2.144   4.798  0.1305 -0.4812 -0.0582
  163OSM   C10F18391   5.495   2.080   4.993 -0.7593  0.2311  0.0368
  163OSM   H10F18392   5.410   2.147   5.013  0.8737  2.2616  0.5429
  163OSM   C11F18393   5.554   1.994   5.110  0.6117 -0.2138 -0.4677
  163OSM   H11F18394   5.582   1.888   5.095  3.2196 -0.0909  2.4181
  163OSM   H11G18395   5.487   1.992   5.199  0.3729  0.6311 -0.6202
  163OSM   C12F18396   5.683   2.068   5.169 -0.2410  0.0017  0.5759
  163OSM   H12F18397   5.771   2.070   5.101 -0.2183  1.3209  0.6231
  163OSM   H12G18398   5.706   1.998   5.251 -2.3670 -0.2253  1.0412
  163OSM   C13F18399   5.662   2.208   5.229  0.3282  0.5822  0.4553
  163OSM   H13F18400   5.591   2.204   5.314 -1.0220  0.3638 -0.6416
  163OSM   H13G18401   5.607   2.266   5.152 -0.9189  0.6999  1.4029
  163OSM   C14F18402   5.791   2.283   5.258  0.2012  0.2850 -0.3850
  163OSM   H14F18403   5.757   2.387   5.274 -1.5087 -0.0051 -1.8228
  163OSM   H14G18404   5.852   2.286   5.165  0.1481 -2.6317 -0.6293
  163OSM   C15F18405   5.864   2.235   5.384  0.8880 -0.5576 -0.0030
  163OSM   H15F18406   5.945   2.310   5.392 -0.2944  0.9717 -1.5754
  163OSM   H15G18407   5.918   2.139   5.371  0.5882 -1.0023  1.7271
  163OSM   C16F18408   5.791   2.233   5.517  0.3024  0.0733  0.8741
  163OSM   H16F18409   5.841   2.175   5.598  0.2301 -1.2179  0.0227
  163OSM   H16G18410   5.694   2.183   5.498  0.7303 -0.4360 -0.0415
  163OSM   C17F18411   5.764   2.375   5.573  0.0457 -1.2114  0.3844
  163OSM   H17F18412   5.670   2.377   5.633  1.2129 -0.8988  2.2928
  163OSM   H17G18413   5.735   2.449   5.496 -0.8406 -2.0180 -0.0726
  163OSM   C18F18414   5.874   2.443   5.649 -0.2303  0.5274 -0.1966
  163OSM   H18F18415   5.903   2.378   5.734 -1.3712 -0.8697 -0.8369
  163OSM   H18G18416   5.857   2.548   5.682 -2.0143  0.3358 -0.3894
  163OSM   H18H18417   5.967   2.448   5.588  1.0780 -1.6849  1.4864
  164OSM      N18418   1.778   1.844   3.090 -0.3364  0.4878 -0.6939
  164OSM    C1518419   1.668   1.938   3.060  1.1309  0.0515 -0.2177
  164OSM   H15A18420   1.668   1.977   2.959 -0.0711 -0.3517 -0.3893
  164OSM   H15B18421   1.670   2.018   3.132 -0.8738 -0.6197  0.6295
  164OSM   H15C18422   1.569   1.897   3.071  1.9606 -1.8389  0.6896
  164OSM    C1418423   1.767   1.718   3.012  0.7181  1.1117 -0.3696
  164OSM   H14A18424   1.843   1.643   3.028 -1.6452 -1.8807 -2.0518
  164OSM   H14B18425   1.783   1.742   2.908  1.3932 -1.1862 -0.8652
  164OSM   H14C18426   1.677   1.663   3.038  2.2389 -0.3808  2.2209
  164OSM    C1318427   1.901   1.911   3.066 -0.1880 -0.2114 -0.1968
  164OSM   H13A18428   1.986   1.862   3.110  1.1857  1.5341 -0.7715
  164OSM   H13B18429   1.894   2.012   3.103 -1.8748 -0.2441 -0.3698
  164OSM   H13C18430   1.934   1.908   2.963 -0.8618  0.3069 -0.4342
  164OSM    C1218431   1.768   1.815   3.248 -0.0400 -0.2655  0.1367
  164OSM   H12A18432   1.832   1.732   3.271 -0.2160 -0.4094  0.1067
  164OSM   H12B18433   1.672   1.768   3.261  0.1269 -0.2095  1.7996
  164OSM    C1118434   1.776   1.940   3.341 -0.1723  0.0043  0.0416
  164OSM   H11A18435   1.877   1.984   3.324  0.4233 -1.3690 -0.1647
  164OSM   H11B18436   1.772   1.907   3.447  0.1799 -0.9132 -0.2178
  164OSM      P18437   1.544   2.028   3.412  0.0833  0.2751  0.2439
  164OSM    O1318438   1.436   2.107   3.352  0.2132  0.1802  0.7041
  164OSM    O1418439   1.514   1.882   3.437  0.3988  0.5153 -0.0761
  164OSM    O1118440   1.595   2.099   3.542 -0.7430 -0.4293  0.0886
  164OSM    O1218441   1.672   2.029   3.319  0.8797 -0.0112  0.2123
  164OSM    C1S18442   1.655   2.230   3.531  0.7489 -0.1803  0.0915
  164OSM    H1S18443   1.575   2.295   3.491  0.7112 -2.1321 -3.4091
  164OSM    H1T18444   1.740   2.216   3.460  0.8998 -1.0109  0.4219
  164OSM     NF18445   1.777   2.422   3.622 -0.3300 -0.8488 -0.3226
  164OSM    HNF18446   1.876   2.428   3.614 -0.2961 -2.1582 -1.3388
  164OSM    C2S18447   1.719   2.293   3.654 -1.3097  0.1626 -0.5659
  164OSM    H2S18448   1.648   2.313   3.736 -0.9157 -0.1797 -0.1349
  164OSM    C3S18449   1.822   2.191   3.711  0.5699  0.0235 -0.7172
  164OSM    H3S18450   1.891   2.158   3.630 -0.0846  1.3905 -1.8983
  164OSM     O318451   1.758   2.076   3.756 -0.3703  0.2825  0.1106
  164OSM    HO318452   1.683   2.070   3.696  0.4704 -2.6080 -0.8204
  164OSM    C4S18453   1.916   2.247   3.822 -0.3008  0.8796 -0.0598
  164OSM    H4S18454   2.004   2.288   3.772  0.3522  1.1654  1.2941
  164OSM    C5S18455   1.920   2.250   3.958  0.0622 -0.2684  0.0550
  164OSM    H5S18456   1.834   2.213   4.015  1.5645 -1.7082  1.5210
  164OSM    C6S18457   2.025   2.321   4.040 -0.0444  0.2311 -0.0195
  164OSM    H6S18458   2.060   2.399   3.969  0.9819 -1.0010 -0.9106
  164OSM    H6T18459   2.107   2.248   4.056  0.9514  0.6075 -2.8358
  164OSM    C7S18460   1.985   2.388   4.173  0.0506  0.9733  0.9154
  164OSM    H7S18461   1.944   2.316   4.248 -0.1811  1.8732  1.6750
  164OSM    H7T18462   1.905   2.464   4.158 -1.2287 -0.6204 -0.7193
  164OSM    C8S18463   2.112   2.456   4.228  0.1449  0.2601  0.1687
  164OSM    H8S18464   2.144   2.537   4.158 -0.1148 -0.1920 -0.4876
  164OSM    H8T18465   2.199   2.390   4.251 -1.0025  0.1666  5.6045
  164OSM    C9S18466   2.077   2.530   4.357  0.0477  0.6456  0.3965
  164OSM    H9S18467   1.979   2.581   4.346  0.4011  0.9248 -2.2176
  164OSM    H9T18468   2.159   2.603   4.371  0.3152  0.6632 -1.0608
  164OSM   C10S18469   2.052   2.445   4.484  0.5992  0.3740 -0.6487
  164OSM   H10S18470   2.012   2.347   4.451 -1.2011  0.0713  2.1373
  164OSM   H10T18471   1.972   2.495   4.543  0.3069  0.8591 -1.4308
  164OSM   C11S18472   2.180   2.424   4.572 -0.0509  0.4479  0.4300
  164OSM   H11S18473   2.268   2.402   4.508 -0.8524  0.4097 -0.6889
  164OSM   H11T18474   2.164   2.339   4.642 -2.1423  1.5019  1.3330
  164OSM   C12S18475   2.196   2.545   4.671 -0.3852  0.2760  0.0518
  164OSM   H12S18476   2.091   2.560   4.703 -0.9895 -1.5679 -0.8858
  164OSM   H12T18477   2.247   2.626   4.615  1.6588 -0.5137  0.6895
  164OSM   C13S18478   2.279   2.513   4.795 -0.2904 -0.6747 -0.8573
  164OSM   H13S18479   2.386   2.485   4.782  0.3423  2.2238 -2.7399
  164OSM   H13T18480   2.240   2.416   4.835  1.3286 -0.3942  1.5636
  164OSM   C14S18481   2.273   2.625   4.905  0.1073  0.1824  0.0397
  164OSM   H14S18482   2.177   2.650   4.955  0.3991  2.7260 -0.5261
  164OSM   H14T18483   2.316   2.710   4.848  1.3930  0.5688  1.5266
  164OSM   C15S18484   2.379   2.601   5.027  0.4899 -0.1782  0.1899
  164OSM   H15S18485   2.475   2.580   4.976  0.4667 -1.3272  0.6112
  164OSM   H15T18486   2.361   2.506   5.081  0.8699 -0.3014  0.1012
  164OSM   C16S18487   2.413   2.716   5.126  0.3106 -0.0787  0.4815
  164OSM   H16S18488   2.370   2.799   5.066 -0.0257 -0.2470  0.4909
  164OSM   H16T18489   2.524   2.723   5.113  0.1993 -1.9673 -2.2295
  164OSM   C17S18490   2.372   2.701   5.273 -0.2452  0.1886 -1.0597
  164OSM   H17S18491   2.419   2.606   5.307 -0.0520  1.0958  1.3929
  164OSM   H17T18492   2.261   2.699   5.275 -0.3120  1.7749 -1.5940
  164OSM   C18S18493   2.435   2.805   5.373  0.1360 -0.4146 -0.0821
  164OSM   H18S18494   2.389   2.905   5.365 -0.3320 -0.5922  0.2992
  164OSM   H18T18495   2.546   2.810   5.366  0.1527 -0.2504  0.2510
  164OSM   H18U18496   2.431   2.780   5.482  2.5883  1.6508  0.5681
  164OSM    C1F18497   1.706   2.529   3.597 -0.5962 -0.4616 -0.7842
  164OSM     OF18498   1.586   2.530   3.584  0.3837 -0.4892 -0.0887
  164OSM    C2F18499   1.776   2.661   3.594 -0.1955  0.0650  0.1445
  164OSM    H2F18500   1.770   2.702   3.491  2.1636  0.6589  0.1692
  164OSM    H2G18501   1.883   2.641   3.618 -0.3913 -1.1658  0.0732
  164OSM    C3F18502   1.717   2.769   3.685  0.0239  0.0630 -0.0183
  164OSM    H3F18503   1.607   2.779   3.671 -0.0259 -1.0566 -0.5285
  164OSM    H3G18504   1.766   2.863   3.648  2.1819 -0.7190  0.7154
  164OSM    C4F18505   1.733   2.750   3.832  0.4229 -1.1147  0.1110
  164OSM    H4F18506   1.667   2.666   3.862  0.9942 -1.0398  1.6659
  164OSM    H4G18507   1.704   2.849   3.872  0.1453 -0.8648 -0.6846
  164OSM    C5F18508   1.876   2.726   3.884  0.1922  0.2553  0.5063
  164OSM    H5F18509   1.949   2.787   3.827  2.0207 -2.4900 -0.2717
  164OSM    H5G18510   1.907   2.620   3.872 -0.0888  0.3515 -1.4699
  164OSM    C6F18511   1.896   2.763   4.035 -0.2699 -0.0448  0.1182
  164OSM    H6F18512   1.999   2.751   4.075  0.6908  1.7606 -1.6125
  164OSM    H6G18513   1.815   2.705   4.084  1.1489 -3.5480 -1.3942
  164OSM    C7F18514   1.866   2.909   4.075  0.5776  0.0991 -0.1932
  164OSM    H7F18515   1.761   2.939   4.050  0.0644 -0.5709  1.0600
  164OSM    H7G18516   1.933   2.963   4.005  1.5425 -0.4905  0.2524
  164OSM    C8F18517   1.914   2.961   4.213 -0.1726  0.0062  0.7055
  164OSM    H8F18518   1.860   3.052   4.246 -1.6881 -0.1499 -1.2220
  164OSM    H8G18519   2.021   2.991   4.203 -0.0673 -1.1291 -4.1211
  164OSM    C9F18520   1.909   2.858   4.320 -0.0962 -0.2145 -0.1277
  164OSM    H9F18521   1.864   2.765   4.284  1.8519 -0.8658 -0.9734
  164OSM   C10F18522   1.942   2.869   4.453  0.7845  0.1224  0.0924
  164OSM   H10F18523   1.932   2.784   4.521 -0.8908 -1.1145 -1.6004
  164OSM   C11F18524   1.997   2.996   4.511  0.3517  0.3626 -0.9451
  164OSM   H11F18525   1.967   3.094   4.469  2.6834  1.4508 -0.2001
  164OSM   H11G18526   2.107   2.984   4.505  0.8515  2.7152  1.4566
  164OSM   C12F18527   1.968   3.029   4.659 -0.6120 -0.1340 -0.2570
  164OSM   H12F18528   1.857   3.031   4.661 -0.6808 -1.8650  1.6428
  164OSM   H12G18529   2.005   3.133   4.662  0.7212 -0.6008  0.3950
  164OSM   C13F18530   2.014   2.944   4.777 -0.6426 -0.2010 -0.1488
  164OSM   H13F18531   2.120   2.917   4.760  0.0496  2.1796  0.0792
  164OSM   H13G18532   1.953   2.851   4.786  0.7742 -1.2301 -0.7858
  164OSM   C14F18533   1.995   3.024   4.911  0.1474 -0.1183  0.4315
  164OSM   H14F18534   1.888   3.041   4.937 -0.1596 -0.7608 -0.3721
  164OSM   H14G18535   2.056   3.116   4.899  1.6099 -0.8602  1.9378
  164OSM   C15F18536   2.058   2.953   5.026 -0.5889 -0.0516  0.2842
  164OSM   H15F18537   2.165   2.967   4.999 -0.2087 -2.1722  0.5397
  164OSM   H15G18538   2.047   2.843   5.036  2.0791 -0.3519  0.7058
  164OSM   C16F18539   2.035   3.013   5.156 -0.4802  0.3366 -0.7275
  164OSM   H16F18540   1.931   2.988   5.188 -0.6241  0.5964 -0.9822
  164OSM   H16G18541   2.035   3.124   5.155 -0.9759  0.3524  0.1982
  164OSM   C17F18542   2.118   2.959   5.274 -0.1758  0.3564  0.1304
  164OSM   H17F18543   2.226   2.978   5.256  0.4670 -1.3529  1.8621
  164OSM   H17G18544   2.104   2.849   5.281 -1.8226  0.5902  1.0577
  164OSM   C18F18545   2.092   3.021   5.414  0.3794 -0.2420  0.9719
  164OSM   H18F18546   2.178   3.010   5.483  0.3467  2.3500  1.5142
  164OSM   H18G18547   2.004   2.983   5.469 -1.2700 -0.5132 -1.6445
  164OSM   H18H18548   2.076   3.130   5.403 -0.5158 -0.4681 -0.1685
  165SAPS     N18549   2.283   5.974   7.733  0.4394 -0.1799  0.6349
  165SAPS   HN118550   2.378   5.977   7.693  0.9706 -1.1859  1.7555
  165SAPS   HN218551   2.256   5.873   7.729 -1.8083  0.3981 -1.8855
  165SAPS   HN318552   2.212   6.021   7.674  3.0349  0.9649 -1.7920
  165SAPS   C1218553   2.276   6.031   7.875 -0.7129 -0.5035  0.0327
  165SAPS  H12A18554   2.348   5.966   7.923 -0.0943 -2.8765 -3.6825
  165SAPS   C1318555   2.323   6.179   7.895  0.2594 -0.0144  0.0618
  165SAPS  O13A18556   2.345   6.248   7.796 -0.0663 -0.1332  0.3202
  165SAPS  O13B18557   2.320   6.227   8.011 -0.0547 -0.0297 -0.0438
  165SAPS   C1118558   2.127   6.012   7.928  0.3696  0.4900 -0.0135
  165SAPS  H11A18559   2.058   6.082   7.877  0.4105 -0.2401 -1.1126
  165SAPS  H11B18560   2.137   6.049   8.032 -1.6578  1.0757  0.0149
  165SAPS     P18561   1.951   5.818   7.983 -0.1164  0.2813  0.3216
  165SAPS   O1318562   1.962   5.690   8.051 -0.1550  0.8363  0.7122
  165SAPS   O1418563   1.883   5.928   8.058  0.3328  0.2570  0.2447
  165SAPS   O1218564   2.095   5.870   7.935 -0.2299  0.0832 -0.2507
  165SAPS   O1118565   1.868   5.802   7.844 -0.3783 -0.1810  0.0360
  165SAPS    C118566   1.940   5.725   7.738 -0.1824  0.3745 -0.3568
  165SAPS    HA18567   2.001   5.795   7.677 -1.9633  0.5556 -2.0405
  165SAPS    HB18568   2.007   5.648   7.782 -0.2504  0.4360 -0.1467
  165SAPS    C218569   1.849   5.651   7.646 -0.0693 -0.1361 -0.3390
  165SAPS    HS18570   1.902   5.566   7.600 -0.4215 -0.6842  0.2429
  165SAPS   O2118571   1.798   5.745   7.547  0.3470 -1.0447 -0.3599
  165SAPS   C2118572   1.878   5.784   7.445 -0.6412  0.0885  0.4022
  165SAPS   O2218573   1.987   5.735   7.414  0.7165 -0.2465  0.2721
  165SAPS   C2218574   1.807   5.892   7.369  0.0217  0.3446 -0.2939
  165SAPS   H2R18575   1.701   5.881   7.401 -0.3299  3.9202  0.1616
  165SAPS   H2S18576   1.831   5.996   7.401  0.9191  0.3846 -1.0611
  165SAPS    C318577   1.724   5.586   7.723 -0.5256  0.5198 -0.0231
  165SAPS    HX18578   1.658   5.663   7.767 -2.3573 -1.6108  1.1621
  165SAPS    HY18579   1.770   5.526   7.804 -2.3118  0.6099  1.0996
  165SAPS   O3118580   1.664   5.492   7.625  0.3403  0.4244  0.2337
  165SAPS   C3118581   1.547   5.525   7.562 -0.4030  0.2789 -0.5008
  165SAPS   O3218582   1.496   5.631   7.581 -0.2433 -0.5571 -0.1165
  165SAPS   C3218583   1.507   5.417   7.467  0.3762 -0.7438 -0.2343
  165SAPS   H2X18584   1.455   5.338   7.526  1.6039 -0.7507  0.8847
  165SAPS   H2Y18585   1.600   5.369   7.431  1.2243 -0.7263  1.7968
  165SAPS   C2318586   1.825   5.886   7.219  0.3018  0.1431 -0.7719
  165SAPS   H3R18587   1.929   5.905   7.184  0.1468 -0.7184 -1.7696
  165SAPS   H3S18588   1.768   5.969   7.172 -0.8806  0.7175  1.5586
  165SAPS   C2418589   1.783   5.759   7.147  0.3964  0.5574 -0.6396
  165SAPS   H4R18590   1.837   5.670   7.186 -0.4536  0.4603  0.3803
  165SAPS   H4S18591   1.817   5.776   7.043  0.0320 -1.3854 -1.1264
  165SAPS   C2518592   1.634   5.742   7.165 -0.4077  0.2341  0.0214
  165SAPS   H5R18593   1.606   5.706   7.265 -0.1082 -0.4040 -0.1206
  165SAPS   C2618594   1.552   5.759   7.060 -0.0554 -0.1862 -0.0113
  165SAPS   H6R18595   1.444   5.767   7.078 -0.2438 -1.0065 -0.7138
  165SAPS   C2718596   1.586   5.793   6.915  0.1454  0.3871  0.3850
  165SAPS   H7R18597   1.651   5.882   6.906  2.4630 -1.2382  0.1661
  165SAPS   H7S18598   1.485   5.818   6.874  0.7153 -1.6806 -2.5840
  165SAPS   C2818599   1.648   5.672   6.852 -0.1878  0.0498  0.7178
  165SAPS   H8R18600   1.681   5.601   6.929  0.4312 -2.3671 -1.6148
  165SAPS   C2918601   1.681   5.648   6.717 -0.5311  0.0285 -0.2501
  165SAPS   H9R18602   1.745   5.564   6.687 -0.3493  0.6105 -1.5571
  165SAPS  C21018603   1.652   5.746   6.606 -0.1189  0.1927  0.5530
  165SAPS  H10R18604   1.746   5.744   6.548 -0.3625  0.3526  0.1531
  165SAPS  H10S18605   1.631   5.847   6.647  0.9896 -1.0426  4.6400
  165SAPS  C21118606   1.533   5.713   6.517 -0.0261 -0.8200  0.1380
  165SAPS  H11R18607   1.454   5.660   6.572  0.1598 -0.3769  0.8491
  165SAPS  C21218608   1.534   5.759   6.387  0.0485  0.3472 -0.6994
  165SAPS  H12R18609   1.454   5.736   6.316 -3.7655  1.2184  2.9147
  165SAPS  C21318610   1.644   5.835   6.326 -0.2012 -0.5033  0.4089
  165SAPS  H13R18611   1.721   5.875   6.396  0.4767  0.9433 -1.0916
  165SAPS  H13S18612   1.593   5.925   6.286  0.7790  0.0451  0.3620
  165SAPS  C21418613   1.712   5.747   6.222  0.3915 -0.2556  0.1386
  165SAPS  H14R18614   1.771   5.669   6.272 -0.3356 -0.2300  1.0677
  165SAPS  C21518615   1.665   5.720   6.095  0.0721 -0.2392 -0.0015
  165SAPS  H15R18616   1.723   5.653   6.030 -0.5564  0.2597 -1.0981
  165SAPS  C21618617   1.560   5.799   6.032 -0.0890  0.2064 -0.1517
  165SAPS  H16R18618   1.544   5.897   6.083 -2.6236  0.4249 -1.1983
  165SAPS  H16S18619   1.467   5.739   6.045 -0.7796  1.3284  0.2755
  165SAPS  C21718620   1.577   5.836   5.883 -0.1406  0.7132  0.7954
  165SAPS  H17R18621   1.491   5.891   5.840 -1.0456  0.0393  1.6878
  165SAPS  H17S18622   1.565   5.740   5.829 -1.4015  0.8226  0.8405
  165SAPS  C21818623   1.705   5.914   5.833 -0.5462  0.3244 -0.0086
  165SAPS  H18R18624   1.743   5.967   5.923 -0.2382 -1.0434  0.6802
  165SAPS  H18S18625   1.671   5.981   5.751  0.0143  2.3095  1.3046
  165SAPS  C21918626   1.817   5.832   5.777 -0.3238  0.2152  0.2346
  165SAPS  H19R18627   1.828   5.737   5.834 -1.6416  0.1596  0.4463
  165SAPS  H19S18628   1.910   5.891   5.783 -0.9750  1.6376 -2.4127
  165SAPS  C22018629   1.806   5.783   5.636  0.6231  0.0910  0.5380
  165SAPS  H20R18630   1.813   5.865   5.562 -0.9210 -0.0606  0.1938
  165SAPS  H20S18631   1.709   5.735   5.610  0.6028  0.0509  0.6894
  165SAPS  H20T18632   1.888   5.708   5.633  1.5659  0.9729  2.5005
  165SAPS   C3318633   1.419   5.468   7.350 -0.3797  0.2205  1.0363
  165SAPS   H3X18634   1.482   5.528   7.281  1.1407  0.5371  2.6356
  165SAPS   H3Y18635   1.332   5.524   7.392 -0.8911  0.2937 -0.0652
  165SAPS   C3418636   1.356   5.344   7.271 -0.0119 -0.2998 -0.7430
  165SAPS   H4X18637   1.295   5.288   7.345  0.7188  0.5397  0.5621
  165SAPS   H4Y18638   1.440   5.277   7.243 -0.9221 -1.4279 -0.8110
  165SAPS   C3518639   1.260   5.373   7.154  0.1924  0.1521  0.5906
  165SAPS   H5X18640   1.184   5.448   7.184  1.3692  1.4426  0.4385
  165SAPS   H5Y18641   1.212   5.275   7.131  0.1439  0.4148 -0.4534
  165SAPS   C3618642   1.330   5.418   7.028  0.1052 -1.0285 -0.1935
  165SAPS   H6X18643   1.425   5.363   7.018 -0.0697 -1.4662  0.5015
  165SAPS   H6Y18644   1.345   5.528   7.033  0.1323 -1.0847  1.7373
  165SAPS   C3718645   1.245   5.397   6.907 -0.4773  0.1147  0.7212
  165SAPS   H7X18646   1.302   5.458   6.834 -1.1453 -1.9275 -1.6705
  165SAPS   H7Y18647   1.142   5.437   6.911  0.2065  2.2215 -1.0110
  165SAPS   C3818648   1.251   5.251   6.846  0.0040 -0.1587  0.2029
  165SAPS   H8X18649   1.182   5.200   6.917  0.1359  1.3053  1.4121
  165SAPS   H8Y18650   1.358   5.224   6.855  0.6340  1.9545 -0.3362
  165SAPS   C3918651   1.202   5.240   6.703  0.4908  0.3378  0.3169
  165SAPS   H9X18652   1.102   5.285   6.685  2.0964  3.0751 -2.8602
  165SAPS   H9Y18653   1.181   5.134   6.677 -1.2918  0.1458  2.2316
  165SAPS  C31018654   1.297   5.290   6.594  0.2269 -0.3420  0.3643
  165SAPS  H10X18655   1.390   5.230   6.606  0.7589  0.2497 -0.6711
  165SAPS  H10Y18656   1.341   5.388   6.624 -0.0661 -0.4460  1.1527
  165SAPS  C31118657   1.253   5.291   6.451 -0.8607  1.0738 -0.0165
  165SAPS  H11X18658   1.172   5.364   6.434 -1.7893 -0.6320 -4.2892
  165SAPS  H11Y18659   1.211   5.190   6.431  1.3276 -0.2612  1.6262
  165SAPS  C31218660   1.366   5.304   6.344  0.3308 -0.1414 -0.1321
  165SAPS  H12X18661   1.434   5.216   6.345  0.5192 -0.0541  2.5200
  165SAPS  H12Y18662   1.423   5.398   6.361 -0.8288  0.4900  0.3996
  165SAPS  C31318663   1.315   5.312   6.201  0.2888  0.1826 -0.1714
  165SAPS  H13X18664   1.223   5.371   6.183 -0.5865 -1.0874  0.0002
  165SAPS  H13Y18665   1.291   5.217   6.150 -1.3010  0.1131  0.6471
  165SAPS  C31418666   1.428   5.366   6.108 -0.1862  0.9169  0.3573
  165SAPS  H14X18667   1.520   5.306   6.125 -0.1874  0.7982 -0.0374
  165SAPS  H14Y18668   1.448   5.474   6.124  3.3133  0.2483  1.3651
  165SAPS  C31518669   1.377   5.360   5.955 -0.4146  0.2704 -0.1366
  165SAPS  H15X18670   1.279   5.413   5.950 -0.9344 -0.7341 -1.4363
  165SAPS  H15Y18671   1.364   5.259   5.910 -3.1551  0.5121 -0.0926
  165SAPS  C31618672   1.468   5.450   5.869 -0.2284  0.5535  0.2818
  165SAPS  H16X18673   1.576   5.430   5.888 -0.3849 -1.3451 -0.5297
  165SAPS  H16Y18674   1.446   5.552   5.908  3.0105  2.2611 -1.9024
  165SAPS  C31718675   1.442   5.440   5.721  0.3695  0.5764 -0.2593
  165SAPS  H17X18676   1.332   5.449   5.705  0.3552  0.0824 -0.4548
  165SAPS  H17Y18677   1.476   5.339   5.690  2.4693  0.7965  1.1306
  165SAPS  C31818678   1.504   5.546   5.634 -0.0238 -0.1520 -0.1100
  165SAPS  H18X18679   1.613   5.557   5.656 -0.1518  1.3669 -0.0783
  165SAPS  H18Y18680   1.458   5.647   5.645  2.3314  1.2157 -1.8305
  165SAPS  H18Z18681   1.502   5.515   5.528 -0.3298 -0.9147  0.1111
  166SAPS     N18682   3.473   4.726   7.438  0.3512 -0.7545  0.8458
  166SAPS   HN118683   3.399   4.781   7.389  2.1721  1.7552  0.7358
  166SAPS   HN218684   3.544   4.713   7.363 -0.7519 -0.6325 -0.2682
  166SAPS   HN318685   3.439   4.630   7.460  0.5292 -1.2204 -0.7366
  166SAPS   C1218686   3.517   4.786   7.570  0.3983 -0.2075 -0.2490
  166SAPS  H12A18687   3.427   4.769   7.627  0.0023  0.5506 -0.6379
  166SAPS   C1318688   3.637   4.712   7.640 -0.7162  0.1726 -0.0728
  166SAPS  O13A18689   3.705   4.621   7.588  0.0070 -0.0160  0.5199
  166SAPS  O13B18690   3.655   4.746   7.760 -0.3263 -0.0461  0.9829
  166SAPS   C1118691   3.529   4.943   7.558  0.2497 -0.0403  0.0272
  166SAPS  H11A18692   3.626   4.967   7.508  0.7639  0.1126  1.0587
  166SAPS  H11B18693   3.543   4.965   7.666  3.1139  0.1438 -0.3041
  166SAPS     P18694   3.416   5.157   7.483 -0.2134 -0.3703 -0.6624
  166SAPS   O1318695   3.289   5.219   7.432 -0.0423 -0.0145 -0.5253
  166SAPS   O1418696   3.461   5.208   7.615 -0.2913 -0.4293  1.1558
  166SAPS   O1218697   3.418   4.996   7.486 -0.0041 -0.3264  0.1029
  166SAPS   O1118698   3.535   5.180   7.377 -0.0301  0.1820  0.5385
  166SAPS    C118699   3.514   5.130   7.245  0.4162  0.0661 -0.1828
  166SAPS    HA18700   3.609   5.106   7.193 -0.3772 -1.6109 -0.9344
  166SAPS    HB18701   3.462   5.032   7.239 -0.0137  0.3509 -1.6308
  166SAPS    C218702   3.439   5.230   7.151 -0.1212  0.5023 -1.0741
  166SAPS    HS18703   3.335   5.236   7.190  0.5251  0.3053  0.7684
  166SAPS   O2118704   3.460   5.209   7.008 -0.1450 -0.2812 -0.9098
  166SAPS   C2118705   3.361   5.234   6.932 -0.2883 -0.0868  0.9431
  166SAPS   O2218706   3.249   5.272   6.972 -0.0970 -0.3594  0.6150
  166SAPS   C2218707   3.401   5.205   6.787 -0.0564 -0.3976  0.1087
  166SAPS   H2R18708   3.512   5.210   6.782  0.2436  0.1812  4.2289
  166SAPS   H2S18709   3.358   5.111   6.747  1.2633  0.4237 -3.6593
  166SAPS    C318710   3.501   5.368   7.181 -0.2177  0.5623 -0.5056
  166SAPS    HX18711   3.609   5.362   7.155  0.3805 -1.1281  1.9890
  166SAPS    HY18712   3.506   5.384   7.291  1.5838  0.3881 -0.5299
  166SAPS   O3118713   3.431   5.478   7.114 -0.4700 -0.0642 -0.1247
  166SAPS   C3118714   3.507   5.592   7.126  0.1849 -0.1240  1.0172
  166SAPS   O3218715   3.583   5.611   7.219 -0.1989  0.5116 -0.4757
  166SAPS   C3218716   3.469   5.698   7.012 -0.1926  0.3790 -0.1189
  166SAPS   H2X18717   3.403   5.769   7.066 -1.1149  0.8817 -1.8499
  166SAPS   H2Y18718   3.406   5.641   6.941 -0.0881  0.8903 -0.6279
  166SAPS   C2318719   3.333   5.304   6.700 -0.4677 -0.2806  0.6458
  166SAPS   H3R18720   3.228   5.316   6.734 -0.9402 -0.1560 -0.7887
  166SAPS   H3S18721   3.315   5.273   6.595 -1.2027  0.0557  0.6668
  166SAPS   C2418722   3.406   5.443   6.699 -1.4540 -0.4108 -0.6250
  166SAPS   H4R18723   3.496   5.422   6.639 -0.8305  0.8820 -0.1762
  166SAPS   H4S18724   3.447   5.468   6.799  1.2751 -2.0192 -1.2583
  166SAPS   C2518725   3.327   5.559   6.646  0.5441  0.3607 -0.8616
  166SAPS   H5R18726   3.266   5.594   6.730  0.4064 -2.2323  0.2105
  166SAPS   C2618727   3.320   5.609   6.520 -0.6004 -0.9074 -0.3286
  166SAPS   H6R18728   3.255   5.696   6.505  0.3578 -0.0794  0.1933
  166SAPS   C2718729   3.396   5.561   6.399  0.1216 -0.7445  0.2370
  166SAPS   H7R18730   3.493   5.517   6.431 -1.1557 -1.4205  3.5005
  166SAPS   H7S18731   3.417   5.655   6.345  0.0513 -1.2112 -0.6314
  166SAPS   C2818732   3.307   5.473   6.317 -0.2163  0.4954 -0.3169
  166SAPS   H8R18733   3.268   5.384   6.369  0.3976  0.1645 -0.4119
  166SAPS   C2918734   3.276   5.491   6.189  0.8582 -0.0652 -0.4484
  166SAPS   H9R18735   3.228   5.405   6.141  0.9020 -1.1798  1.3772
  166SAPS  C21018736   3.324   5.600   6.092 -0.1903  0.1926  0.4340
  166SAPS  H10R18737   3.395   5.561   6.015  1.5686  1.9297  1.0915
  166SAPS  H10S18738   3.367   5.678   6.158 -2.6996 -0.8711  3.6105
  166SAPS  C21118739   3.211   5.659   6.010 -0.3274 -0.8851  0.0617
  166SAPS  H11R18740   3.132   5.705   6.071  0.6167  1.0481 -0.1014
  166SAPS  C21218741   3.202   5.667   5.876  0.1446 -0.1679 -1.0060
  166SAPS  H12R18742   3.120   5.729   5.836 -1.4431 -1.3320  0.3177
  166SAPS  C21318743   3.301   5.630   5.773 -0.3359  0.0320 -0.0965
  166SAPS  H13R18744   3.247   5.608   5.678 -0.0967  1.6512 -0.6430
  166SAPS  H13S18745   3.351   5.533   5.796  3.0401  1.8864  0.9871
  166SAPS  C21418746   3.416   5.732   5.759  0.0980  0.3122  0.0360
  166SAPS  H14R18747   3.438   5.787   5.852 -2.1333 -2.1674  2.1829
  166SAPS  C21518748   3.485   5.759   5.645  0.7205 -0.0536  0.1542
  166SAPS  H15R18749   3.569   5.827   5.662  1.4248 -1.2311  1.6092
  166SAPS  C21618750   3.467   5.704   5.499 -0.3505  0.4519 -0.2531
  166SAPS  H16R18751   3.394   5.763   5.438 -2.3881 -1.7897 -0.1461
  166SAPS  H16S18752   3.414   5.606   5.495  0.8845 -0.2110 -1.3083
  166SAPS  C21718753   3.602   5.693   5.419 -0.1799 -0.1379  0.5646
  166SAPS  H17R18754   3.667   5.616   5.465  0.1644 -0.0614  0.2143
  166SAPS  H17S18755   3.656   5.790   5.424 -0.5281  0.1455 -0.7439
  166SAPS  C21818756   3.583   5.662   5.269 -0.0599 -0.2937  0.1096
  166SAPS  H18R18757   3.547   5.743   5.203 -0.9028 -2.0831 -1.7308
  166SAPS  H18S18758   3.516   5.574   5.262  0.8973 -0.9169 -2.3562
  166SAPS  C21918759   3.716   5.624   5.212 -0.0229 -0.4365 -0.1651
  166SAPS  H19R18760   3.752   5.527   5.253  1.9706  0.8282  1.2931
  166SAPS  H19S18761   3.783   5.705   5.251  0.1049 -0.0114 -1.2510
  166SAPS  C22018762   3.711   5.613   5.058 -0.1032 -0.0685 -0.2565
  166SAPS  H20R18763   3.809   5.620   5.005 -0.6537  0.1644 -1.2780
  166SAPS  H20S18764   3.639   5.686   5.015  0.5816  0.7253 -0.0856
  166SAPS  H20T18765   3.677   5.508   5.041  4.1487 -2.1376  2.1867
  166SAPS   C3318766   3.599   5.769   6.964  0.2687 -0.5531  0.8332
  166SAPS   H3X18767   3.655   5.694   6.904 -1.5925 -0.9411 -0.5047
  166SAPS   H3Y18768   3.670   5.794   7.045  2.5706 -0.4318 -1.1205
  166SAPS   C3418769   3.570   5.891   6.876  0.1460  0.0592 -1.3139
  166SAPS   H4X18770   3.653   5.955   6.839  0.2248  0.9324  0.2756
  166SAPS   H4Y18771   3.522   5.961   6.948  3.1710 -0.5195  1.5190
  166SAPS   C3518772   3.478   5.860   6.762 -0.4890  0.6555 -0.1286
  166SAPS   H5X18773   3.394   5.799   6.802 -0.2233 -0.5627 -1.3664
  166SAPS   H5Y18774   3.520   5.797   6.681  0.4948 -0.3953  1.1635
  166SAPS   C3618775   3.393   5.978   6.695 -0.7671 -0.1979  0.6060
  166SAPS   H6X18776   3.364   6.049   6.775  0.5653  1.3037 -0.1772
  166SAPS   H6Y18777   3.297   5.942   6.651 -1.6145  0.5231  1.8085
  166SAPS   C3718778   3.461   6.054   6.569 -0.4310 -0.1384 -0.1156
  166SAPS   H7X18779   3.569   6.072   6.585 -0.8755  0.0513  3.6211
  166SAPS   H7Y18780   3.409   6.149   6.544 -2.0283  0.0503  3.2573
  166SAPS   C3818781   3.457   5.968   6.442 -0.5036  0.1031  0.3249
  166SAPS   H8X18782   3.354   5.978   6.403 -1.0294  0.2030  1.6806
  166SAPS   H8Y18783   3.488   5.863   6.461  2.3120  1.1857  2.5440
  166SAPS   C3918784   3.549   6.030   6.338 -0.1898  0.2204  0.2476
  166SAPS   H9X18785   3.655   6.012   6.367 -0.6987 -0.1124  2.0497
  166SAPS   H9Y18786   3.538   6.141   6.345 -2.9633 -0.0515  1.6572
  166SAPS  C31018787   3.526   5.981   6.199  0.2422  0.3768  0.4176
  166SAPS  H10X18788   3.418   5.987   6.173  0.0264 -0.3401  1.1003
  166SAPS  H10Y18789   3.543   5.871   6.211  0.1305  0.4724  1.5498
  166SAPS  C31118790   3.612   6.049   6.097 -0.1661 -0.0650 -0.5892
  166SAPS  H11X18791   3.715   6.065   6.134  0.1311 -0.4096 -1.2510
  166SAPS  H11Y18792   3.559   6.145   6.082 -1.9257 -0.7656  0.6980
  166SAPS  C31218793   3.612   5.957   5.969 -0.3224 -0.3521  0.2269
  166SAPS  H12X18794   3.513   5.954   5.918  0.0808  0.2423 -0.6091
  166SAPS  H12Y18795   3.650   5.858   6.000  3.1997  1.5538  2.6672
  166SAPS  C31318796   3.704   6.016   5.859  0.3980 -0.1354 -0.5855
  166SAPS  H13X18797   3.694   6.126   5.872  1.0034 -0.2448  1.0543
  166SAPS  H13Y18798   3.665   5.988   5.759 -1.5461 -1.7780  0.5532
  166SAPS  C31418799   3.855   5.974   5.872 -0.3166  0.0595 -0.5018
  166SAPS  H14X18800   3.844   5.864   5.863 -1.1459  0.1356 -0.5233
  166SAPS  H14Y18801   3.878   5.992   5.979  0.7004  2.0154 -1.0006
  166SAPS  C31518802   3.961   6.024   5.770  0.9273 -0.5134  0.1189
  166SAPS  H15X18803   4.059   5.990   5.810  0.7717  0.0850  1.0358
  166SAPS  H15Y18804   3.972   6.134   5.775 -1.0434 -0.2780  0.0217
  166SAPS  C31618805   3.931   5.956   5.636 -0.3257 -0.4574  0.1981
  166SAPS  H16X18806   3.997   6.005   5.562  0.4442 -2.1779 -0.3256
  166SAPS  H16Y18807   3.828   5.967   5.598  0.2028 -2.6581 -2.1859
  166SAPS  C31718808   3.975   5.805   5.632  0.5574 -0.4075  0.5439
  166SAPS  H17X18809   3.899   5.746   5.687 -1.4261  1.1109 -0.4306
  166SAPS  H17Y18810   4.069   5.808   5.691  0.6120 -2.6442  0.6626
  166SAPS  C31818811   3.995   5.750   5.488  0.6208 -1.6762  0.7125
  166SAPS  H18X18812   4.031   5.645   5.485 -3.3174 -3.1944 -0.9424
  166SAPS  H18Y18813   4.079   5.803   5.440 -0.1773 -2.0344 -1.1584
  166SAPS  H18Z18814   3.905   5.770   5.426 -0.5315 -1.1247  2.4847
  167SAPS     N18815   1.840   6.193   8.055  0.3940  0.7811 -0.0536
  167SAPS   HN118816   1.848   6.089   8.062 -2.3093  0.5344  0.6572
  167SAPS   HN218817   1.798   6.210   7.962  0.7943 -1.7140 -0.7617
  167SAPS   HN318818   1.937   6.231   8.062  0.7587 -0.1005 -0.1351
  167SAPS   C1218819   1.750   6.238   8.161 -0.2576  0.1664 -0.7229
  167SAPS  H12A18820   1.657   6.184   8.156  0.1192 -0.4451 -1.5108
  167SAPS   C1318821   1.799   6.212   8.303  0.5660  0.8659  0.3690
  167SAPS  O13A18822   1.874   6.107   8.314 -0.3253  0.2056  0.2580
  167SAPS  O13B18823   1.708   6.236   8.394 -0.2265 -0.0153  0.1607
  167SAPS   C1118824   1.719   6.392   8.149  0.1635  0.0384  0.0468
  167SAPS  H11A18825   1.814   6.450   8.144  0.3513 -0.3212 -0.7981
  167SAPS  H11B18826   1.674   6.421   8.246  0.0614  0.9193 -0.2484
  167SAPS     P18827   1.488   6.481   8.044 -0.0626  0.0739 -0.2025
  167SAPS   O1318828   1.421   6.427   8.166 -0.1187 -0.3030  0.2635
  167SAPS   O1418829   1.482   6.629   8.035  0.2053  0.1462  0.2484
  167SAPS   O1218830   1.635   6.430   8.040 -0.0381 -0.7797  0.3530
  167SAPS   O1118831   1.410   6.425   7.918  0.3544  0.1094  0.9034
  167SAPS    C118832   1.413   6.281   7.890 -0.0534 -0.1650  0.3891
  167SAPS    HA18833   1.515   6.245   7.865  0.0987 -1.0799  2.1753
  167SAPS    HB18834   1.373   6.215   7.971  0.4453 -0.3995  0.4524
  167SAPS    C218835   1.321   6.250   7.765 -0.2798 -1.0945 -0.4199
  167SAPS    HS18836   1.323   6.140   7.748 -0.9842 -0.8497 -2.2465
  167SAPS   O2118837   1.382   6.310   7.649  0.2584  0.9152  0.1629
  167SAPS   C2118838   1.478   6.235   7.590 -0.0594 -0.2853 -0.5227
  167SAPS   O2218839   1.535   6.139   7.639 -0.8122 -0.3880  0.0951
  167SAPS   C2218840   1.509   6.297   7.457  0.1596 -0.4349 -0.3006
  167SAPS   H2R18841   1.413   6.326   7.410 -0.5723  0.0680  1.4277
  167SAPS   H2S18842   1.563   6.392   7.476 -1.6466  0.1046  2.6560
  167SAPS    C318843   1.177   6.302   7.799  0.1011 -0.2887 -0.0414
  167SAPS    HX18844   1.177   6.413   7.796 -2.1022 -0.2640 -0.2188
  167SAPS    HY18845   1.156   6.259   7.899  2.2339  0.9733  1.0126
  167SAPS   O3118846   1.083   6.257   7.696 -0.4966  0.2254  0.7018
  167SAPS   C3118847   0.990   6.338   7.643  0.0936  0.1067  0.8132
  167SAPS   O3218848   0.934   6.429   7.705  0.0998 -0.0085  0.8075
  167SAPS   C3218849   0.950   6.286   7.509  0.7807  0.8267 -0.4098
  167SAPS   H2X18850   0.847   6.326   7.497  1.7557  2.5887 -6.0171
  167SAPS   H2Y18851   0.957   6.175   7.508  1.5116  0.8691 -1.0022
  167SAPS   C2318852   1.577   6.204   7.346 -0.5085 -0.7281 -0.3892
  167SAPS   H3R18853   1.504   6.123   7.329 -0.0750 -1.4466  1.0192
  167SAPS   H3S18854   1.660   6.147   7.393 -1.7548 -0.7013  1.9599
  167SAPS   C2418855   1.615   6.268   7.209  0.1962 -0.2390 -0.7117
  167SAPS   H4R18856   1.691   6.195   7.174  1.4139 -0.7048  2.5006
  167SAPS   H4S18857   1.663   6.362   7.242  2.2609 -1.7385  0.8356
  167SAPS   C2518858   1.504   6.300   7.108 -0.1318  0.5014 -0.4825
  167SAPS   H5R18859   1.422   6.355   7.156  1.7548  1.1466  2.2607
  167SAPS   C2618860   1.508   6.267   6.977  0.0896  0.6393  0.1050
  167SAPS   H6R18861   1.417   6.292   6.920 -1.2791  1.4137  2.4942
  167SAPS   C2718862   1.609   6.186   6.899 -0.5806 -0.6066  0.1646
  167SAPS   H7R18863   1.557   6.139   6.813 -2.8804 -0.6328  1.4807
  167SAPS   H7S18864   1.649   6.097   6.953 -0.1614 -0.5388 -0.0315
  167SAPS   C2818865   1.724   6.261   6.843  0.6373 -0.6913 -0.5931
  167SAPS   H8R18866   1.753   6.347   6.905 -1.5222 -0.2790 -0.0619
  167SAPS   C2918867   1.799   6.239   6.729 -0.6219  0.1420 -0.5145
  167SAPS   H9R18868   1.886   6.302   6.708  2.4192 -2.6119  2.7087
  167SAPS  C21018869   1.784   6.125   6.634  0.2881 -0.3629 -0.8109
  167SAPS  H10R18870   1.720   6.044   6.676  1.2350 -0.1600  1.1632
  167SAPS  H10S18871   1.885   6.080   6.629  0.8053  0.8957 -2.3761
  167SAPS  C21118872   1.730   6.166   6.500 -0.1085 -0.2510 -0.4724
  167SAPS  H11R18873   1.622   6.186   6.501  0.3071  2.3063  0.2864
  167SAPS  C21218874   1.790   6.178   6.385 -0.0484 -0.4199  0.1801
  167SAPS  H12R18875   1.738   6.220   6.298  0.9243  2.3628  0.8342
  167SAPS  C21318876   1.937   6.154   6.364 -0.2316  0.4748  0.2604
  167SAPS  H13R18877   1.983   6.115   6.457 -0.5204 -2.1851 -0.6299
  167SAPS  H13S18878   1.983   6.254   6.346 -2.5485  1.0369 -3.5191
  167SAPS  C21418879   1.954   6.083   6.237 -0.0574  0.2488 -0.2049
  167SAPS  H14R18880   1.945   5.974   6.253 -0.6634  0.5550  1.9468
  167SAPS  C21518881   1.959   6.135   6.111  0.7270  0.3058 -0.6132
  167SAPS  H15R18882   1.988   6.060   6.036  0.9193 -0.2781  0.0423
  167SAPS  C21618883   1.943   6.287   6.067 -0.3241 -0.4884 -0.3032
  167SAPS  H16R18884   1.956   6.358   6.151 -0.9029  0.5630 -1.0890
  167SAPS  H16S18885   1.844   6.311   6.024 -0.5479 -0.5335  0.1768
  167SAPS  C21718886   2.042   6.324   5.964 -0.3240  0.1975  0.2707
  167SAPS  H17R18887   2.039   6.255   5.876  0.8943  1.7403 -1.0675
  167SAPS  H17S18888   2.146   6.321   6.002 -0.4390  1.3811  0.7204
  167SAPS  C21818889   2.034   6.464   5.909 -0.1979  0.5295 -0.3880
  167SAPS  H18R18890   2.051   6.542   5.986 -1.0606 -0.5662  0.9707
  167SAPS  H18S18891   1.930   6.490   5.882 -1.6106 -1.3403  2.6736
  167SAPS  C21918892   2.123   6.493   5.782 -0.7463 -0.2083 -0.1087
  167SAPS  H19R18893   2.081   6.577   5.722  0.7220 -0.1631 -1.1089
  167SAPS  H19S18894   2.113   6.412   5.707  0.2990 -0.5584  0.1224
  167SAPS  C22018895   2.265   6.531   5.813  0.0080 -0.1805  0.6909
  167SAPS  H20R18896   2.337   6.457   5.854 -0.1852 -2.5295 -2.8025
  167SAPS  H20S18897   2.274   6.609   5.892  0.9564 -0.7058  1.1236
  167SAPS  H20T18898   2.319   6.589   5.735  0.1628 -1.0712  0.1285
  167SAPS   C3318899   1.044   6.355   7.397  0.1279 -0.2799 -0.1831
  167SAPS   H3X18900   1.151   6.334   7.420 -0.2581 -2.3301 -0.0481
  167SAPS   H3Y18901   1.026   6.464   7.392 -0.3033 -0.3857 -1.3423
  167SAPS   C3418902   1.015   6.307   7.256 -0.2614  0.5512  0.4137
  167SAPS   H4X18903   0.906   6.306   7.234 -0.3145 -1.2277  0.5843
  167SAPS   H4Y18904   1.043   6.201   7.238  1.3578  1.3136 -2.0414
  167SAPS   C3518905   1.078   6.402   7.149  0.4257  0.1915  0.4159
  167SAPS   H5X18906   1.187   6.416   7.169  0.4246 -1.1198  1.5018
  167SAPS   H5Y18907   1.006   6.486   7.144  0.4685  0.2239  0.3428
  167SAPS   C3618908   1.078   6.335   7.013  0.1477 -0.1862  0.9144
  167SAPS   H6X18909   0.978   6.289   6.999  0.2138 -0.5429  1.5694
  167SAPS   H6Y18910   1.143   6.244   7.011 -0.4019 -0.5817  0.6705
  167SAPS   C3718911   1.124   6.420   6.894 -0.2236  0.0406 -0.8340
  167SAPS   H7X18912   1.220   6.471   6.918  0.2703 -0.6474 -1.3093
  167SAPS   H7Y18913   1.053   6.501   6.864  1.8514  1.9667 -0.7754
  167SAPS   C3818914   1.128   6.329   6.768 -0.1190 -0.5720 -0.4681
  167SAPS   H8X18915   1.029   6.317   6.720 -1.4030  2.9362  0.9379
  167SAPS   H8Y18916   1.181   6.234   6.790  1.2618 -0.0914 -1.6090
  167SAPS   C3918917   1.222   6.396   6.664 -0.1580  0.0404  0.3756
  167SAPS   H9X18918   1.326   6.383   6.701  0.0861 -2.5603 -0.9599
  167SAPS   H9Y18919   1.191   6.502   6.653 -0.4873 -0.1311 -0.4282
  167SAPS  C31018920   1.214   6.332   6.528  0.1809  0.0967 -0.3967
  167SAPS  H10X18921   1.131   6.384   6.476 -1.6500 -1.7940  0.4573
  167SAPS  H10Y18922   1.176   6.227   6.531  2.1640 -0.6388  0.0756
  167SAPS  C31118923   1.339   6.352   6.439 -0.8819 -0.0575  0.1064
  167SAPS  H11X18924   1.423   6.310   6.497 -0.5335  1.4989  0.7741
  167SAPS  H11Y18925   1.355   6.460   6.419 -1.2769 -0.6851 -4.7695
  167SAPS  C31218926   1.314   6.280   6.310  0.2660  0.1881  1.1732
  167SAPS  H12X18927   1.236   6.335   6.252 -0.2833 -0.4812  1.2609
  167SAPS  H12Y18928   1.274   6.178   6.327 -0.2415  0.3221  0.7982
  167SAPS  C31318929   1.439   6.248   6.227 -0.1452  0.1205  0.9027
  167SAPS  H13X18930   1.500   6.182   6.293 -1.0528  0.5337  2.1896
  167SAPS  H13Y18931   1.501   6.334   6.193 -1.7719  0.6495 -0.8570
  167SAPS  C31418932   1.411   6.169   6.096  0.7995  0.3350 -0.5673
  167SAPS  H14X18933   1.340   6.087   6.121 -1.4230  2.5651  0.8346
  167SAPS  H14Y18934   1.499   6.121   6.046 -0.8027 -1.0620 -2.1773
  167SAPS  C31518935   1.351   6.261   5.988  0.2682 -0.0981  0.1724
  167SAPS  H15X18936   1.417   6.349   5.996  2.6054 -1.8846  2.3963
  167SAPS  H15Y18937   1.244   6.283   6.009  0.2661 -0.1036  0.1669
  167SAPS  C31618938   1.359   6.207   5.849  0.3259 -0.1263  0.2956
  167SAPS  H16X18939   1.282   6.127   5.848 -0.7620  0.8919  0.7545
  167SAPS  H16Y18940   1.463   6.170   5.833  0.6113  1.1775 -1.1301
  167SAPS  C31718941   1.306   6.303   5.748 -0.3612 -0.4022  0.4821
  167SAPS  H17X18942   1.354   6.403   5.760 -0.6450 -0.3092  0.8358
  167SAPS  H17Y18943   1.199   6.325   5.765 -0.6542 -1.6376  0.3702
  167SAPS  C31818944   1.317   6.238   5.603 -0.7852 -0.1184 -0.4523
  167SAPS  H18X18945   1.425   6.238   5.575 -0.0899  2.3293  1.8085
  167SAPS  H18Y18946   1.247   6.290   5.535  0.4914  2.2450 -0.0438
  167SAPS  H18Z18947   1.278   6.135   5.622 -3.5359  0.7016 -1.2579
  168SAPS     N18948   5.631   0.368   8.007 -0.7418 -0.1156  0.1685
  168SAPS   HN118949   5.643   0.291   8.075  1.4174  0.1119  0.1129
  168SAPS   HN218950   5.553   0.430   8.037 -0.2985  0.3130  0.4548
  168SAPS   HN318951   5.605   0.317   7.920 -2.7206 -2.0448  1.7793
  168SAPS   C1218952   5.761   0.443   7.984  0.6515 -0.6820 -0.0763
  168SAPS  H12A18953   5.741   0.498   7.893 -0.1147  0.0454  0.5135
  168SAPS   C1318954   5.797   0.534   8.110 -0.0447  0.6795  0.1788
  168SAPS  O13A18955   5.712   0.549   8.199 -0.4194 -0.1847 -0.8053
  168SAPS  O13B18956   5.882   0.624   8.084 -0.3078  0.2041 -0.1103
  168SAPS   C1118957   5.864   0.346   7.952 -0.3041  0.6286 -0.5487
  168SAPS  H11A18958   5.870   0.278   8.039  1.6473  0.3893 -0.8268
  168SAPS  H11B18959   5.963   0.394   7.941  0.6503 -1.3365 -0.9464
  168SAPS     P18960   5.890   0.288   7.691  0.1197 -0.2344 -0.0104
  168SAPS   O1318961   6.034   0.251   7.689 -0.1373  0.0748  0.0244
  168SAPS   O1418962   5.802   0.222   7.592  0.0802 -0.2197 -0.5814
  168SAPS   O1218963   5.835   0.260   7.839 -0.1606  0.8755  0.2490
  168SAPS   O1118964   5.878   0.446   7.679 -0.0584 -0.0964  0.2211
  168SAPS    C118965   5.987   0.540   7.712 -0.5644  0.2378  0.2719
  168SAPS    HA18966   5.956   0.601   7.800 -1.1570  0.7924 -0.3125
  168SAPS    HB18967   6.083   0.485   7.724 -1.7369 -1.7583  0.9107
  168SAPS    C218968   5.994   0.637   7.595  0.8827  0.2617  0.0317
  168SAPS    HS18969   5.902   0.699   7.607  0.1922 -0.6190 -0.5126
  168SAPS   O2118970   6.005   0.567   7.463  1.0481 -0.5635 -0.5015
  168SAPS   C2118971   5.884   0.543   7.416 -0.9316 -0.7636  1.0156
  168SAPS   O2218972   5.773   0.581   7.451 -0.1759  0.5738  0.0735
  168SAPS   C2218973   5.903   0.438   7.303  0.0377 -0.1107  1.0452
  168SAPS   H2R18974   5.964   0.350   7.334 -0.3592 -0.3073  1.2797
  168SAPS   H2S18975   5.802   0.406   7.271  0.8128  1.3343 -3.5231
  168SAPS    C318976   6.113   0.735   7.612  0.2516  0.5624 -0.0141
  168SAPS    HX18977   6.200   0.666   7.616 -0.9769 -1.1808 -1.6539
  168SAPS    HY18978   6.104   0.780   7.713 -1.2372 -0.5092  0.3585
  168SAPS   O3118979   6.119   0.819   7.494 -0.6702 -0.0959  0.2875
  168SAPS   C3118980   6.019   0.906   7.469  0.0911  0.1701 -0.2116
  168SAPS   O3218981   5.929   0.930   7.550 -0.3962  0.1043  0.3526
  168SAPS   C3218982   6.032   0.962   7.323 -0.5917 -0.2785 -0.7854
  168SAPS   H2X18983   6.122   1.024   7.341 -1.8359  0.7718  2.3314
  168SAPS   H2Y18984   5.943   1.027   7.311 -0.5070  0.0394  0.2605
  168SAPS   C2318985   5.955   0.509   7.169  0.4764  0.0993 -0.0100
  168SAPS   H3R18986   6.047   0.556   7.210 -0.8706  2.0263  0.9284
  168SAPS   H3S18987   5.881   0.585   7.139 -0.9115 -1.1288  0.1703
  168SAPS   C2418988   6.000   0.418   7.057  0.4325  0.5056  0.8254
  168SAPS   H4R18989   6.088   0.356   7.084 -0.2268 -0.7388  0.2041
  168SAPS   H4S18990   6.040   0.471   6.967 -0.6804  0.7809  0.4762
  168SAPS   C2518991   5.897   0.307   7.028  0.4708 -0.2538  0.0998
  168SAPS   H5R18992   5.855   0.247   7.110 -0.8450 -2.6186 -2.1460
  168SAPS   C2618993   5.871   0.251   6.909 -0.3643  0.3275  0.3790
  168SAPS   H6R18994   5.793   0.174   6.902 -0.8867  0.7816  1.0514
  168SAPS   C2718995   5.920   0.300   6.774  0.0040 -0.7045  0.6545
  168SAPS   H7R18996   5.948   0.210   6.714  0.8039 -0.1406  0.1642
  168SAPS   H7S18997   6.016   0.356   6.781  0.7387 -1.8105 -0.1440
  168SAPS   C2818998   5.825   0.398   6.704 -0.3289 -0.2387  0.1819
  168SAPS   H8R18999   5.773   0.473   6.765  0.1985  0.9075 -0.7447
  168SAPS   C2919000   5.804   0.401   6.576 -0.1790  0.5739 -0.2651
  168SAPS   H9R19001   5.725   0.466   6.535 -0.0353  0.3093 -0.9751
  168SAPS  C21019002   5.880   0.312   6.472  0.0203  1.1496  0.0415
  168SAPS  H10R19003   5.828   0.216   6.494  1.1989  0.4144 -0.2913
  168SAPS  H10S19004   5.985   0.285   6.498 -0.2430  0.7400  0.7091
  168SAPS  C21119005   5.873   0.363   6.333  0.2281  0.0849 -0.3914
  168SAPS  H11R19006   5.960   0.419   6.296 -1.1063  0.5364 -3.1525
  168SAPS  C21219007   5.762   0.346   6.251 -0.2137  0.1956  0.1195
  168SAPS  H12R19008   5.772   0.394   6.152 -0.8590  1.5493  0.6922
  168SAPS  C21319009   5.642   0.269   6.271 -0.1163  0.1521 -0.0849
  168SAPS  H13R19010   5.561   0.345   6.282 -0.4718 -0.4308  1.6413
  168SAPS  H13S19011   5.646   0.207   6.363 -0.9000  2.0344  1.2905
  168SAPS  C21419012   5.607   0.180   6.155  0.0383 -0.1372  0.8198
  168SAPS  H14R19013   5.670   0.090   6.158  0.7305  0.1949 -1.6223
  168SAPS  C21519014   5.522   0.207   6.053  0.4519 -0.6638 -0.2072
  168SAPS  H15R19015   5.493   0.124   5.987  0.5338 -0.0236 -1.0654
  168SAPS  C21619016   5.420   0.326   6.062  0.2869  0.3486 -0.3900
  168SAPS  H16R19017   5.443   0.402   6.139  1.0497 -0.1785 -0.0917
  168SAPS  H16S19018   5.317   0.294   6.091  0.3132 -0.5154 -1.2065
  168SAPS  C21719019   5.418   0.412   5.931  0.6298 -0.6290 -0.1483
  168SAPS  H17R19020   5.515   0.466   5.928  0.0289  0.4394 -1.3993
  168SAPS  H17S19021   5.341   0.489   5.950 -0.4749 -1.5656 -0.7179
  168SAPS  C21819022   5.384   0.339   5.801 -0.4501 -0.4626 -0.5232
  168SAPS  H18R19023   5.282   0.303   5.826 -0.6811  1.3931  1.5012
  168SAPS  H18S19024   5.459   0.257   5.797  0.4280  0.3753 -3.0177
  168SAPS  C21919025   5.388   0.412   5.670 -0.1035 -0.9070 -0.3306
  168SAPS  H19R19026   5.352   0.344   5.590 -0.4891 -0.9468 -0.1250
  168SAPS  H19S19027   5.495   0.437   5.654 -0.1561  0.0770  0.7051
  168SAPS  C22019028   5.305   0.541   5.665 -1.1273 -0.2766  0.3007
  168SAPS  H20R19029   5.320   0.583   5.563  1.8769  0.5616  0.9725
  168SAPS  H20S19030   5.338   0.619   5.737 -0.9012  0.0801 -0.1847
  168SAPS  H20T19031   5.202   0.509   5.691 -1.6962  1.2041 -0.0329
  168SAPS   C3319032   6.048   0.853   7.218 -0.2025 -0.3990 -0.5314
  168SAPS   H3X19033   5.953   0.795   7.209 -0.1158 -0.2276 -3.3214
  168SAPS   H3Y19034   6.127   0.782   7.249  1.0532  0.8346 -0.8352
  168SAPS   C3419035   6.074   0.909   7.079 -0.0375  1.2665 -0.6301
  168SAPS   H4X19036   6.171   0.962   7.073  1.6593 -1.5372  0.3288
  168SAPS   H4Y19037   5.992   0.982   7.062 -1.3359  0.0217  0.0159
  168SAPS   C3519038   6.052   0.804   6.962 -0.2243 -0.0300 -0.3562
  168SAPS   H5X19039   5.947   0.768   6.970 -0.7778  1.6085  0.2898
  168SAPS   H5Y19040   6.115   0.717   6.987 -0.7300 -0.0509  0.9741
  168SAPS   C3619041   6.083   0.857   6.820 -0.5160  0.0925 -0.2800
  168SAPS   H6X19042   6.192   0.877   6.814 -0.5374  1.4009  2.3456
  168SAPS   H6Y19043   6.028   0.953   6.803  0.5408  0.7442 -0.0899
  168SAPS   C3719044   6.040   0.757   6.706 -0.0425 -0.2384  0.0839
  168SAPS   H7X19045   5.932   0.738   6.718  0.1513 -1.1441  0.5186
  168SAPS   H7Y19046   6.091   0.659   6.723 -0.9035 -0.5098  1.2738
  168SAPS   C3819047   6.069   0.822   6.573  0.3463  0.3181 -0.2176
  168SAPS   H8X19048   6.179   0.820   6.559  0.4541  1.5837  0.2741
  168SAPS   H8Y19049   6.029   0.926   6.583 -1.6405 -0.4532  0.2479
  168SAPS   C3919050   6.006   0.745   6.457 -0.0019  0.1745  0.1715
  168SAPS   H9X19051   5.898   0.726   6.472  0.2406 -0.0987  1.7409
  168SAPS   H9Y19052   6.032   0.637   6.447  0.3679  0.1717  1.1029
  168SAPS  C31019053   6.030   0.814   6.318  0.0834 -0.6338 -0.6627
  168SAPS  H10X19054   6.139   0.833   6.315 -0.0042  0.3530  1.0611
  168SAPS  H10Y19055   5.980   0.912   6.306  1.3296  0.1559  0.2927
  168SAPS  C31119056   5.992   0.716   6.204 -0.1037 -0.5516  0.3419
  168SAPS  H11X19057   5.893   0.670   6.225  0.4935 -1.9622  0.1679
  168SAPS  H11Y19058   6.072   0.639   6.194  1.3743  0.8450  0.9909
  168SAPS  C31219059   5.986   0.797   6.072 -0.1434  0.1494 -0.3267
  168SAPS  H12X19060   6.087   0.843   6.067 -0.1418  0.0330 -2.4092
  168SAPS  H12Y19061   5.915   0.882   6.075  0.6069  0.7722  0.9425
  168SAPS  C31319062   5.982   0.710   5.942 -0.4512 -0.3164  0.6887
  168SAPS  H13X19063   6.079   0.656   5.947  0.4020  0.6640 -2.4932
  168SAPS  H13Y19064   5.989   0.776   5.852  2.2821  0.2618  1.2338
  168SAPS  C31419065   5.867   0.603   5.937  0.1483 -0.6225  0.2027
  168SAPS  H14X19066   5.777   0.666   5.952  0.9227  0.5887 -0.1272
  168SAPS  H14Y19067   5.873   0.534   6.025  1.5729 -0.0633  0.5743
  168SAPS  C31519068   5.855   0.522   5.815  0.5989 -0.3117  0.6913
  168SAPS  H15X19069   5.852   0.580   5.720  0.2459 -0.7723  0.4154
  168SAPS  H15Y19070   5.754   0.474   5.817  0.6156 -0.3376  0.8952
  168SAPS  C31619071   5.969   0.420   5.791 -0.0069 -0.8676 -0.6386
  168SAPS  H16X19072   6.072   0.452   5.815  0.1750 -1.9302  0.0879
  168SAPS  H16Y19073   5.971   0.385   5.686 -0.0943  1.8154 -1.5986
  168SAPS  C31719074   5.953   0.298   5.888 -1.0794  0.3868 -0.4238
  168SAPS  H17X19075   5.857   0.244   5.878 -1.8894  1.9214 -1.4478
  168SAPS  H17Y19076   5.955   0.333   5.993 -0.7158 -0.9814  0.0333
  168SAPS  C31819077   6.082   0.205   5.867  0.3764 -0.3266  0.6875
  168SAPS  H18X19078   6.086   0.182   5.759 -0.4932 -1.2642  0.8407
  168SAPS  H18Y19079   6.088   0.116   5.932  0.9080  0.1480  1.3035
  168SAPS  H18Z19080   6.165   0.276   5.887 -0.5128  1.1715 -0.6573
  169SAPS     N19081   0.320   3.132   7.684  0.0464 -0.7104  0.2681
  169SAPS   HN119082   0.293   3.172   7.775  0.5062 -0.5352  0.3312
  169SAPS   HN219083   0.307   3.209   7.615  0.2638 -1.0883 -0.2028
  169SAPS   HN319084   0.264   3.050   7.654 -1.0373 -0.0815  0.5537
  169SAPS   C1219085   0.456   3.083   7.695  0.2982 -0.2012  0.3152
  169SAPS  H12A19086   0.490   3.053   7.596 -2.4188 -2.3684 -0.1011
  169SAPS   C1319087   0.559   3.186   7.751  0.1859 -0.4456  0.2529
  169SAPS  O13A19088   0.526   3.296   7.801  0.4364 -0.0727  0.0975
  169SAPS  O13B19089   0.672   3.136   7.783  0.2721 -0.0473 -0.1014
  169SAPS   C1119090   0.469   2.946   7.773  0.5652 -0.2597  0.0079
  169SAPS  H11A19091   0.450   2.973   7.879  0.5744 -0.7813  0.1414
  169SAPS  H11B19092   0.573   2.911   7.755  0.5216 -0.6601  0.5447
  169SAPS     P19093   0.350   2.719   7.812  0.5881 -0.1679  0.4763
  169SAPS   O1319094   0.474   2.684   7.885  0.4320 -0.3820  0.4997
  169SAPS   O1419095   0.227   2.739   7.893 -0.2427  0.5658 -0.1581
  169SAPS   O1219096   0.370   2.851   7.729  0.1592 -0.1049  0.1080
  169SAPS   O1119097   0.320   2.616   7.701 -0.8093 -0.2739  0.0613
  169SAPS    C119098   0.239   2.627   7.588 -0.0922  0.0224  0.9748
  169SAPS    HA19099   0.188   2.529   7.574 -2.3387  1.3254 -0.6055
  169SAPS    HB19100   0.156   2.698   7.609  1.7248  2.2814  0.8362
  169SAPS    C219101   0.326   2.670   7.468 -0.0462 -0.3897 -0.2033
  169SAPS    HS19102   0.347   2.778   7.483  1.6599 -0.8669  1.2281
  169SAPS   O2119103   0.243   2.646   7.348 -0.7636  0.6315  0.3414
  169SAPS   C2119104   0.127   2.697   7.335 -0.7941 -0.4323  0.1604
  169SAPS   O2219105   0.093   2.802   7.393  0.1091  0.9690 -0.1784
  169SAPS   C2219106   0.054   2.613   7.235 -0.2204  0.2232  0.2941
  169SAPS   H2R19107  -0.024   2.551   7.284 -3.9398  2.7595 -1.8286
  169SAPS   H2S19108  -0.002   2.691   7.179  2.3113  1.1586 -1.0675
  169SAPS    C319109   0.463   2.607   7.452  0.5667 -0.6673  0.1737
  169SAPS    HX19110   0.448   2.500   7.428  0.2261 -0.2455 -1.6252
  169SAPS    HY19111   0.525   2.614   7.544  1.7694  2.4696 -0.7685
  169SAPS   O3119112   0.529   2.671   7.343 -0.2953  0.6104 -0.4123
  169SAPS   C3119113   0.591   2.786   7.353  0.1061 -0.1523  1.3472
  169SAPS   O3219114   0.587   2.864   7.447 -0.0758  0.2996  0.1205
  169SAPS   C3219115   0.677   2.807   7.223 -0.1986 -0.1937  0.6012
  169SAPS   H2X19116   0.603   2.837   7.145  0.0171 -0.0483  0.4511
  169SAPS   H2Y19117   0.727   2.713   7.191  0.8217  0.3402  0.5738
  169SAPS   C2319118   0.142   2.522   7.139  0.6355 -0.3523  0.1583
  169SAPS   H3R19119   0.075   2.441   7.104 -1.7752  0.7326  1.9467
  169SAPS   H3S19120   0.209   2.459   7.201 -0.8808 -2.8195 -0.5733
  169SAPS   C2419121   0.213   2.602   7.026 -0.3737  0.0233  0.0396
  169SAPS   H4R19122   0.312   2.555   7.012 -0.2751 -0.5423  2.3148
  169SAPS   H4S19123   0.242   2.697   7.076 -0.8687  0.2704 -0.1365
  169SAPS   C2519124   0.124   2.630   6.908  0.5276  0.1916  0.2781
  169SAPS   H5R19125   0.055   2.715   6.926 -0.3488 -0.3582 -0.3648
  169SAPS   C2619126   0.126   2.579   6.778 -0.6859 -0.1521 -0.8427
  169SAPS   H6R19127   0.051   2.609   6.705 -1.3162 -0.6215 -0.3969
  169SAPS   C2719128   0.225   2.480   6.724  0.3554  0.0691  0.7260
  169SAPS   H7R19129   0.303   2.458   6.800  0.3027  0.0394  0.7715
  169SAPS   H7S19130   0.284   2.516   6.637  0.6897 -2.9319 -0.4040
  169SAPS   C2819131   0.158   2.348   6.691 -0.0277  0.1480  0.3535
  169SAPS   H8R19132   0.131   2.286   6.779 -0.1208 -0.1040  0.1498
  169SAPS   C2919133   0.111   2.303   6.577 -0.0736 -0.0792  0.2744
  169SAPS   H9R19134   0.079   2.197   6.580 -0.9455  0.1826  0.6600
  169SAPS  C21019135   0.109   2.365   6.445 -0.4458  0.2149 -0.3600
  169SAPS  H10R19136   0.058   2.461   6.467 -0.3602  0.3134 -0.5891
  169SAPS  H10S19137   0.048   2.304   6.375 -2.3388  2.0421 -0.3963
  169SAPS  C21119138   0.245   2.383   6.386 -0.4432  0.4964  0.1498
  169SAPS  H11R19139   0.316   2.393   6.470 -1.4973  2.6464  0.8498
  169SAPS  C21219140   0.281   2.375   6.258 -0.9571  0.3691  0.2158
  169SAPS  H12R19141   0.387   2.391   6.232 -0.7112 -0.4396  0.6953
  169SAPS  C21319142   0.196   2.358   6.136  0.0593  1.0840  1.0315
  169SAPS  H13R19143   0.245   2.401   6.046  2.9472 -0.2442  1.8287
  169SAPS  H13S19144   0.100   2.409   6.158 -1.5065 -1.2944  0.0814
  169SAPS  C21419145   0.169   2.213   6.093  0.7152 -0.5737  0.1079
  169SAPS  H14R19146   0.061   2.192   6.092  0.3966  0.9001 -1.8506
  169SAPS  C21519147   0.258   2.121   6.063  0.4957 -0.4194  0.1657
  169SAPS  H15R19148   0.221   2.017   6.054  0.1363 -0.1533 -1.8077
  169SAPS  C21619149   0.402   2.131   6.046  0.4561  0.4522 -0.1503
  169SAPS  H16R19150   0.453   2.094   6.137 -1.0670 -1.8641 -0.1518
  169SAPS  H16S19151   0.425   2.240   6.041  1.7983  0.1304 -2.0354
  169SAPS  C21719152   0.447   2.062   5.912  0.1587 -0.2373 -0.4139
  169SAPS  H17R19153   0.387   2.089   5.823  1.7913  0.2832 -1.4085
  169SAPS  H17S19154   0.428   1.954   5.926 -1.9694  0.3341  1.8864
  169SAPS  C21819155   0.597   2.101   5.881  0.0518 -0.4492 -0.0155
  169SAPS  H18R19156   0.654   2.078   5.974 -1.4527 -2.0939  0.5471
  169SAPS  H18S19157   0.613   2.210   5.868  0.7866 -0.5098  0.3259
  169SAPS  C21919158   0.661   2.030   5.762 -0.1187 -0.2940  0.4818
  169SAPS  H19R19159   0.661   2.088   5.667  1.2892 -2.8837 -1.2512
  169SAPS  H19S19160   0.604   1.937   5.738  2.3316 -1.7242 -0.2976
  169SAPS  C22019161   0.802   1.975   5.777 -0.4962 -0.6785  0.0332
  169SAPS  H20R19162   0.812   1.904   5.862  0.5532 -0.3915  0.1603
  169SAPS  H20S19163   0.874   2.058   5.798 -2.4596  1.1902 -0.2396
  169SAPS  H20T19164   0.837   1.931   5.682  0.7109  0.2736  0.0055
  169SAPS   C3319165   0.777   2.923   7.222  0.1040  0.1489  0.9853
  169SAPS   H3X19166   0.855   2.894   7.296  2.1308  0.6765 -0.8347
  169SAPS   H3Y19167   0.730   3.021   7.246  0.9404  0.9718 -0.5535
  169SAPS   C3419168   0.848   2.954   7.087  0.1976  0.4470 -0.4905
  169SAPS   H4X19169   0.932   3.025   7.105  0.8446 -0.3092 -0.5087
  169SAPS   H4Y19170   0.778   2.997   7.012  1.5799  1.5520 -1.1878
  169SAPS   C3519171   0.921   2.828   7.029  0.6271 -0.6874 -0.0744
  169SAPS   H5X19172   0.843   2.754   7.002 -0.0870 -0.0644  0.2695
  169SAPS   H5Y19173   0.978   2.774   7.109 -3.0909 -2.2966  1.7226
  169SAPS   C3619174   1.017   2.851   6.910  0.1056 -0.3336  0.0416
  169SAPS   H6X19175   1.055   2.751   6.880 -0.1210 -1.3209  2.7166
  169SAPS   H6Y19176   1.094   2.921   6.949 -0.0669 -0.4101  0.5272
  169SAPS   C3719177   0.951   2.925   6.788 -0.5537 -0.3055 -0.2271
  169SAPS   H7X19178   0.929   3.032   6.807 -0.1392 -0.1678 -0.5169
  169SAPS   H7Y19179   0.856   2.869   6.773 -1.1981 -0.3211  3.0991
  169SAPS   C3819180   1.039   2.925   6.663  0.4520 -0.3213  0.0212
  169SAPS   H8X19181   1.082   2.825   6.640 -0.0455 -0.2801 -1.1479
  169SAPS   H8Y19182   1.130   2.979   6.697 -0.6059  0.9612  0.9301
  169SAPS   C3919183   0.981   2.991   6.537 -0.5594 -0.4940 -0.2066
  169SAPS   H9X19184   0.957   3.099   6.540 -1.4837 -0.6095 -1.9135
  169SAPS   H9Y19185   0.887   2.932   6.524 -1.8213  0.6048  2.8650
  169SAPS  C31019186   1.078   2.972   6.417  0.1974 -0.0222  1.0954
  169SAPS  H10X19187   1.085   2.863   6.395 -0.1683  0.0407  0.6536
  169SAPS  H10Y19188   1.180   3.009   6.442  0.1224  2.1586 -1.3714
  169SAPS  C31119189   1.031   3.045   6.283 -0.3083 -0.4075  0.1602
  169SAPS  H11X19190   1.104   3.022   6.203  0.2430 -3.2517  1.3692
  169SAPS  H11Y19191   1.034   3.155   6.297 -0.1361 -0.3352 -0.4226
  169SAPS  C31219192   0.885   3.006   6.241 -0.2648 -0.5725 -0.6681
  169SAPS  H12X19193   0.821   2.996   6.331  1.3116 -1.6234  0.3807
  169SAPS  H12Y19194   0.891   2.906   6.193  2.6275  0.1618 -2.0698
  169SAPS  C31319195   0.834   3.100   6.132  0.0099 -0.1278  0.1608
  169SAPS  H13X19196   0.922   3.150   6.086 -0.9361  2.0388  0.5762
  169SAPS  H13Y19197   0.783   3.189   6.175 -0.7178 -0.5620  0.2170
  169SAPS  C31419198   0.747   3.038   6.025  0.5048 -0.0050 -0.3108
  169SAPS  H14X19199   0.649   3.002   6.063  1.0439 -0.7961  0.3615
  169SAPS  H14Y19200   0.805   2.953   5.982 -0.9145  0.0479 -2.5257
  169SAPS  C31519201   0.710   3.129   5.897  0.0671  0.1173  0.2020
  169SAPS  H15X19202   0.798   3.163   5.838 -0.5784  0.1731 -0.7406
  169SAPS  H15Y19203   0.655   3.217   5.936  0.0402  0.8455 -1.4093
  169SAPS  C31619204   0.615   3.053   5.799  0.2987 -0.2058  0.0782
  169SAPS  H16X19205   0.524   3.015   5.850  1.1097 -1.8375  0.3722
  169SAPS  H16Y19206   0.664   2.964   5.755 -2.3358 -1.7255  0.0124
  169SAPS  C31719207   0.563   3.149   5.686 -1.0497 -1.0359 -0.3130
  169SAPS  H17X19208   0.654   3.189   5.637 -1.1767 -0.7537 -0.3264
  169SAPS  H17Y19209   0.514   3.236   5.736  0.3464 -0.6799  0.5070
  169SAPS  C31819210   0.469   3.079   5.590 -0.4042  0.4614  0.0780
  169SAPS  H18X19211   0.378   3.054   5.650 -0.3427  1.7092  0.7192
  169SAPS  H18Y19212   0.518   2.990   5.544  0.0190  1.2453 -1.0114
  169SAPS  H18Z19213   0.437   3.151   5.512 -2.0170  1.8850  1.9367
  170SAPS     N19214   2.428   1.010   7.894 -0.1775 -0.1054 -0.3106
  170SAPS   HN119215   2.447   1.091   7.956 -2.7386 -1.1037  2.0132
  170SAPS   HN219216   2.505   0.980   7.832 -0.4535 -2.2011  0.2773
  170SAPS   HN319217   2.339   1.024   7.841 -0.0992  0.2885 -0.3393
  170SAPS   C1219218   2.413   0.896   7.990  0.1373 -0.1644  0.2044
  170SAPS  H12A19219   2.471   0.930   8.075  3.2309 -1.6029 -1.1649
  170SAPS   C1319220   2.265   0.875   8.038 -0.4009  0.1022 -0.4309
  170SAPS  O13A19221   2.171   0.948   7.990  0.5402 -0.1498 -0.2478
  170SAPS  O13B19222   2.241   0.789   8.122 -1.0312 -0.2792 -0.4048
  170SAPS   C1119223   2.465   0.765   7.916  0.2943  0.1117 -0.2562
  170SAPS  H11A19224   2.387   0.753   7.838 -1.9775  0.3676  1.8537
  170SAPS  H11B19225   2.465   0.682   7.989  0.5605  0.5438  0.2465
  170SAPS     P19226   2.640   0.673   7.752 -0.5586  0.1152  0.2836
  170SAPS   O1319227   2.773   0.722   7.705 -0.1779  0.4634  0.0862
  170SAPS   O1419228   2.631   0.538   7.807 -0.1542 -0.2397 -0.5500
  170SAPS   O1219229   2.592   0.781   7.862 -0.8114 -0.4575  0.2154
  170SAPS   O1119230   2.536   0.701   7.639  0.1740 -0.1471 -1.0057
  170SAPS    C119231   2.511   0.597   7.540  0.0861 -0.8301 -0.1693
  170SAPS    HA19232   2.595   0.527   7.522 -1.1395 -2.3079 -0.3526
  170SAPS    HB19233   2.430   0.530   7.576 -2.7498  2.4708  0.0707
  170SAPS    C219234   2.482   0.659   7.402  0.1627 -0.1687  0.4835
  170SAPS    HS19235   2.387   0.715   7.397 -0.3291 -1.0831 -1.3995
  170SAPS   O2119236   2.484   0.549   7.309  0.1510 -0.1563  0.4212
  170SAPS   C2119237   2.363   0.495   7.280  0.2164 -0.0588 -1.0460
  170SAPS   O2219238   2.261   0.514   7.343 -0.3344  0.1181 -0.1181
  170SAPS   C2219239   2.376   0.405   7.154 -0.2096 -0.1212 -0.6244
  170SAPS   H2R19240   2.411   0.460   7.063  0.0462 -0.8870 -0.9951
  170SAPS   H2S19241   2.455   0.335   7.188  0.5851  1.8339  1.8264
  170SAPS    C319242   2.602   0.758   7.368  0.6721  0.2603 -0.2216
  170SAPS    HX19243   2.692   0.694   7.357  0.3207 -0.0734 -1.2936
  170SAPS    HY19244   2.604   0.836   7.447 -1.2987  0.7276 -0.5630
  170SAPS   O3119245   2.583   0.820   7.238 -0.0270 -0.0441  0.2794
  170SAPS   C3119246   2.489   0.908   7.230  1.0293 -0.1215 -0.6331
  170SAPS   O3219247   2.413   0.939   7.316 -0.1626 -0.2863 -0.1450
  170SAPS   C3219248   2.493   0.971   7.087 -0.0230  0.2066 -0.6157
  170SAPS   H2X19249   2.527   0.890   7.018 -0.1244 -2.3639  2.1110
  170SAPS   H2Y19250   2.578   1.043   7.088 -0.5025  0.7822  0.9360
  170SAPS   C2319251   2.240   0.343   7.117  0.4110 -0.7850 -0.1917
  170SAPS   H3R19252   2.169   0.419   7.077 -0.4231 -0.9812  0.8597
  170SAPS   H3S19253   2.187   0.304   7.207  0.6372 -2.1966 -0.6520
  170SAPS   C2419254   2.245   0.226   7.023  0.5569 -0.1853 -0.1403
  170SAPS   H4R19255   2.156   0.161   7.040 -0.6628  1.0269 -1.5788
  170SAPS   H4S19256   2.331   0.165   7.056  0.9534  1.3932  1.9130
  170SAPS   C2519257   2.250   0.276   6.881  0.2781  0.6828  1.0475
  170SAPS   H5R19258   2.356   0.276   6.851  0.1001 -0.5222  0.3804
  170SAPS   C2619259   2.155   0.257   6.787  0.6452 -0.1521 -0.0187
  170SAPS   H6R19260   2.172   0.300   6.687  0.6500 -0.1289 -0.0079
  170SAPS   C2719261   2.017   0.204   6.815  0.8813  0.0429 -0.2889
  170SAPS   H7R19262   1.948   0.290   6.804 -0.2756 -0.9261 -0.7658
  170SAPS   H7S19263   2.006   0.177   6.923 -3.3033 -1.7613 -0.9834
  170SAPS   C2819264   1.977   0.093   6.726 -0.1867 -0.1914  0.6272
  170SAPS   H8R19265   1.973  -0.006   6.774 -0.5359  0.7304  2.5816
  170SAPS   C2919266   1.955   0.106   6.595  0.0623  0.1102 -0.1635
  170SAPS   H9R19267   1.927   0.012   6.545 -3.4234  1.1879 -0.4772
  170SAPS  C21019268   1.965   0.234   6.510 -0.3371  0.6419  0.5368
  170SAPS  H10R19269   1.915   0.217   6.412 -0.8071  1.5581  0.6076
  170SAPS  H10S19270   2.072   0.242   6.481  0.1546 -1.3568  1.5949
  170SAPS  C21119271   1.909   0.372   6.562 -0.4184 -0.4786  0.3104
  170SAPS  H11R19272   1.825   0.361   6.632  1.7800  0.7226  3.3866
  170SAPS  C21219273   1.950   0.497   6.525 -0.0716  0.7015  1.1106
  170SAPS  H12R19274   1.899   0.588   6.561 -0.7594  0.0410  1.8309
  170SAPS  C21319275   2.065   0.519   6.428 -0.3815 -0.9872 -0.1098
  170SAPS  H13R19276   2.048   0.462   6.335  1.1962 -1.2334 -0.2776
  170SAPS  H13S19277   2.158   0.468   6.461 -0.5191  0.3031  2.6194
  170SAPS  C21419278   2.104   0.664   6.394  0.3489  0.3633  1.0342
  170SAPS  H14R19279   2.115   0.718   6.489  0.3608 -0.9090  1.7840
  170SAPS  C21519280   2.137   0.722   6.273 -0.2408 -0.1975 -0.6159
  170SAPS  H15R19281   2.141   0.832   6.271  2.2730 -0.2324 -0.7522
  170SAPS  C21619282   2.141   0.666   6.135 -0.0471  0.0983  0.8295
  170SAPS  H16R19283   2.066   0.712   6.068 -1.1421 -2.1505  0.4159
  170SAPS  H16S19284   2.115   0.558   6.135  1.6297 -0.3832 -1.7874
  170SAPS  C21719285   2.282   0.667   6.066 -0.8864 -0.4478  0.4296
  170SAPS  H17R19286   2.358   0.612   6.126 -0.8439 -0.5683  0.2667
  170SAPS  H17S19287   2.319   0.772   6.063  1.9838 -1.3860  0.0538
  170SAPS  C21819288   2.282   0.608   5.926 -0.2008 -0.6948 -0.2711
  170SAPS  H18R19289   2.223   0.669   5.854  1.6034  1.7144  0.1501
  170SAPS  H18S19290   2.232   0.509   5.932  0.0088 -0.7933 -0.0959
  170SAPS  C21919291   2.420   0.591   5.862 -0.0825  0.2239 -0.6541
  170SAPS  H19R19292   2.408   0.545   5.762 -0.5628 -1.2130  0.0386
  170SAPS  H19S19293   2.488   0.519   5.912  0.1726  0.2357 -0.9792
  170SAPS  C22019294   2.490   0.720   5.856  0.4256 -0.3903  0.3431
  170SAPS  H20R19295   2.541   0.732   5.953  2.0641  1.3229 -0.6528
  170SAPS  H20S19296   2.422   0.807   5.840  0.1058 -0.7028 -0.0379
  170SAPS  H20T19297   2.567   0.720   5.776 -0.2815 -2.3340 -0.4117
  170SAPS   C3319298   2.363   1.027   7.032 -0.0984 -0.6694  0.7176
  170SAPS   H3X19299   2.277   0.960   7.054 -1.5840  0.6615 -0.7384
  170SAPS   H3Y19300   2.368   1.037   6.921 -1.1529  0.1950  0.7305
  170SAPS   C3419301   2.335   1.169   7.088  0.0091  0.6602  0.4877
  170SAPS   H4X19302   2.415   1.244   7.069  1.0006 -0.4118  0.2942
  170SAPS   H4Y19303   2.316   1.162   7.197 -2.3112  0.6170  0.1396
  170SAPS   C3519304   2.195   1.221   7.043  0.4367  0.2386 -0.3234
  170SAPS   H5X19305   2.205   1.244   6.935  2.4872  0.3519 -0.1493
  170SAPS   H5Y19306   2.176   1.324   7.079 -3.9284 -0.2513 -0.7109
  170SAPS   C3619307   2.072   1.141   7.089  0.2439 -0.7123  0.6468
  170SAPS   H6X19308   2.073   1.131   7.199  0.8746 -0.1267  0.6989
  170SAPS   H6Y19309   2.072   1.038   7.046 -0.4306 -0.1155 -0.8681
  170SAPS   C3719310   1.937   1.199   7.030 -0.4188 -0.4065 -0.0133
  170SAPS   H7X19311   1.956   1.220   6.923  0.7788 -1.6514 -0.0635
  170SAPS   H7Y19312   1.910   1.295   7.080 -3.9275 -0.6702 -1.1323
  170SAPS   C3819313   1.822   1.099   7.035 -0.5644  0.0162  0.2231
  170SAPS   H8X19314   1.804   1.082   7.144 -2.3368  2.1811  0.3441
  170SAPS   H8Y19315   1.846   1.006   6.980 -0.5115  0.7128 -0.9572
  170SAPS   C3919316   1.688   1.154   6.993  0.5990 -0.3951 -0.4220
  170SAPS   H9X19317   1.695   1.218   6.903  0.2809 -0.4002 -0.4530
  170SAPS   H9Y19318   1.638   1.211   7.075 -0.1459  0.5871 -1.5247
  170SAPS  C31019319   1.593   1.032   6.961 -0.2910 -0.4065 -0.0570
  170SAPS  H10X19320   1.593   0.952   7.038  0.8704  0.4393  0.8580
  170SAPS  H10Y19321   1.650   0.986   6.878  0.9272 -0.9883  1.0731
  170SAPS  C31119322   1.451   1.077   6.918  0.3696  0.3065  0.3286
  170SAPS  H11X19323   1.405   1.136   7.001 -0.9278  0.3513 -0.3941
  170SAPS  H11Y19324   1.388   0.987   6.905 -0.6441  1.2736 -1.9314
  170SAPS  C31219325   1.448   1.161   6.785 -0.6413 -0.0834 -0.4352
  170SAPS  H12X19326   1.540   1.222   6.778 -0.2272 -0.0522  3.5187
  170SAPS  H12Y19327   1.366   1.235   6.801 -0.2856  0.2008  0.0974
  170SAPS  C31319328   1.422   1.095   6.646 -0.8415  0.1406 -1.2579
  170SAPS  H13X19329   1.319   1.054   6.642 -1.3917  0.9020  2.2376
  170SAPS  H13Y19330   1.490   1.010   6.623 -1.3118 -1.2729  2.0358
  170SAPS  C31419331   1.435   1.197   6.528 -0.5090 -0.8499  0.3580
  170SAPS  H14X19332   1.543   1.209   6.507 -0.7453  3.5271  0.7749
  170SAPS  H14Y19333   1.398   1.295   6.566  0.6034 -1.3409  2.9097
  170SAPS  C31519334   1.369   1.145   6.403 -0.2636  0.8177  0.0495
  170SAPS  H15X19335   1.260   1.131   6.417 -0.3373 -2.0399 -2.3431
  170SAPS  H15Y19336   1.399   1.041   6.378 -2.1614  0.3982 -0.6932
  170SAPS  C31619337   1.384   1.243   6.286 -0.6489  0.0513 -0.4120
  170SAPS  H16X19338   1.493   1.256   6.270 -0.6382 -0.3237 -0.6470
  170SAPS  H16Y19339   1.345   1.342   6.317  2.3876  1.5600 -1.0360
  170SAPS  C31719340   1.320   1.191   6.155 -0.3989  0.7620 -0.4056
  170SAPS  H17X19341   1.218   1.152   6.177  0.3501 -1.6799 -0.8761
  170SAPS  H17Y19342   1.390   1.107   6.133  0.7761  1.6027  0.0008
  170SAPS  C31819343   1.327   1.280   6.033 -0.0475 -0.3913  0.1439
  170SAPS  H18X19344   1.278   1.225   5.949  0.4261 -1.9950  0.8686
  170SAPS  H18Y19345   1.434   1.298   6.011 -0.2953 -0.4815 -1.2303
  170SAPS  H18Z19346   1.276   1.378   6.039 -1.9634 -1.3718  0.7451
  171SAPS     N19347   3.631   1.793   7.821 -0.4186 -0.0915 -0.4101
  171SAPS   HN119348   3.539   1.784   7.774 -1.4842 -2.4559  1.8996
  171SAPS   HN219349   3.681   1.883   7.802  2.7082 -2.0282 -2.4647
  171SAPS   HN319350   3.700   1.725   7.783  1.4901  1.5515 -0.0428
  171SAPS   C1219351   3.598   1.767   7.967 -0.0796 -0.6059 -0.1139
  171SAPS  H12A19352   3.686   1.765   8.030 -0.1900 -2.4585  0.0311
  171SAPS   C1319353   3.506   1.882   8.018  0.8724  0.0258  0.4763
  171SAPS  O13A19354   3.483   1.990   7.949  0.2913 -0.4679  0.1541
  171SAPS  O13B19355   3.466   1.878   8.138  0.4572  0.0349 -0.1277
  171SAPS   C1119356   3.522   1.636   7.982  1.0129  0.6841  0.5025
  171SAPS  H11A19357   3.427   1.636   7.925 -1.6041  1.0543  4.5255
  171SAPS  H11B19358   3.489   1.632   8.088  1.5776 -2.5898  0.6702
  171SAPS     P19359   3.633   1.405   8.034  0.3036 -0.3057 -0.2871
  171SAPS   O1319360   3.533   1.396   8.138  0.0296  0.5686  0.4464
  171SAPS   O1419361   3.664   1.281   7.962  0.6710 -0.6647  0.5995
  171SAPS   O1219362   3.598   1.520   7.932  0.1318 -0.7866 -0.7679
  171SAPS   O1119363   3.765   1.461   8.103 -0.0685 -0.0715  0.8306
  171SAPS    C119364   3.896   1.419   8.065  0.2644  0.3633 -0.8395
  171SAPS    HA19365   3.958   1.446   8.153 -0.2290  0.4068 -0.5028
  171SAPS    HB19366   3.901   1.308   8.061 -2.0976  0.1142  0.9915
  171SAPS    C219367   3.939   1.504   7.948 -0.2288 -0.1904  0.5391
  171SAPS    HS19368   3.888   1.602   7.956 -1.5414 -0.6666 -1.4117
  171SAPS   O2119369   3.916   1.435   7.825 -0.1644 -0.5889  0.3285
  171SAPS   C2119370   3.859   1.504   7.721 -0.1711  1.1427 -0.3161
  171SAPS   O2219371   3.839   1.622   7.726  0.2025 -0.2375 -0.1333
  171SAPS   C2219372   3.800   1.401   7.622 -0.5717  0.2968 -0.4041
  171SAPS   H2R19373   3.877   1.372   7.547 -0.8736  1.1251 -1.0544
  171SAPS   H2S19374   3.775   1.314   7.686 -1.5116  0.0918 -1.0315
  171SAPS    C319375   4.091   1.551   7.954  0.3311 -0.3211 -0.8320
  171SAPS    HX19376   4.152   1.459   7.942  0.8030 -0.2038  0.5280
  171SAPS    HY19377   4.114   1.589   8.056 -0.2628  3.0196 -1.8170
  171SAPS   O3119378   4.114   1.658   7.865 -0.4835 -0.1079  0.3367
  171SAPS   C3119379   4.174   1.623   7.746  0.0031  0.1294 -0.6354
  171SAPS   O3219380   4.218   1.512   7.727 -0.0598 -0.1842  0.2022
  171SAPS   C3219381   4.192   1.745   7.651  0.1587  0.1625 -0.3232
  171SAPS   H2X19382   4.280   1.797   7.694  1.3243 -1.2250 -0.9363
  171SAPS   H2Y19383   4.094   1.796   7.665  0.2101  0.3029 -0.4767
  171SAPS   C2319384   3.672   1.444   7.544 -0.2230  0.3571  0.0176
  171SAPS   H3R19385   3.604   1.492   7.617 -0.9554 -2.7141  1.5297
  171SAPS   H3S19386   3.625   1.346   7.524 -1.4948  0.5793  1.6295
  171SAPS   C2419387   3.709   1.516   7.420 -0.0224 -1.1145  0.2820
  171SAPS   H4R19388   3.775   1.605   7.429  0.1869 -0.9627 -2.0566
  171SAPS   H4S19389   3.617   1.571   7.389  0.2809 -1.6611 -1.7200
  171SAPS   C2519390   3.758   1.435   7.306 -0.1586  0.4816  0.0494
  171SAPS   H5R19391   3.796   1.333   7.326 -1.5641 -0.2738 -0.9536
  171SAPS   C2619392   3.782   1.474   7.179 -0.3138  0.1510  0.1076
  171SAPS   H6R19393   3.824   1.411   7.099 -0.1062  0.8871 -0.3695
  171SAPS   C2719394   3.753   1.612   7.133 -0.5600 -0.0007 -0.7101
  171SAPS   H7R19395   3.845   1.641   7.078  1.0096  0.1862  1.8478
  171SAPS   H7S19396   3.764   1.684   7.216 -1.8469  1.7575 -1.9718
  171SAPS   C2819397   3.634   1.637   7.057 -0.4908 -0.6202  1.5946
  171SAPS   H8R19398   3.555   1.691   7.111 -0.1699  2.1721 -0.4403
  171SAPS   C2919399   3.611   1.606   6.924 -0.4383  0.1999  0.9240
  171SAPS   H9R19400   3.519   1.627   6.868 -1.9240 -3.3174  1.7719
  171SAPS  C21019401   3.716   1.543   6.832  0.1951 -0.3973  0.0917
  171SAPS  H10R19402   3.673   1.459   6.774  0.8012 -2.7329  2.8245
  171SAPS  H10S19403   3.795   1.493   6.892  0.7553  0.5469  0.1618
  171SAPS  C21119404   3.769   1.639   6.729  0.9983 -0.1252  0.3789
  171SAPS  H11R19405   3.808   1.731   6.773 -0.2223 -0.2688  1.8469
  171SAPS  C21219406   3.760   1.632   6.590  0.8737 -0.1332 -0.3317
  171SAPS  H12R19407   3.798   1.717   6.532  2.3619  0.1538  0.9782
  171SAPS  C21319408   3.697   1.531   6.500  0.3800  0.0537 -0.1861
  171SAPS  H13R19409   3.675   1.441   6.562 -0.6011 -0.8120 -1.7134
  171SAPS  H13S19410   3.778   1.492   6.435  1.2920 -1.3694  1.6861
  171SAPS  C21419411   3.575   1.569   6.428 -0.5107  0.2402 -0.0825
  171SAPS  H14R19412   3.521   1.657   6.466  0.4026  1.0282 -0.5786
  171SAPS  C21519413   3.521   1.513   6.321  0.3875  0.0739  0.3236
  171SAPS  H15R19414   3.423   1.550   6.286  0.0872 -2.9969 -2.5090
  171SAPS  C21619415   3.566   1.397   6.237 -0.2070  0.2837 -0.3358
  171SAPS  H16R19416   3.482   1.334   6.201 -1.2941  1.5358 -0.0645
  171SAPS  H16S19417   3.650   1.337   6.279 -2.2409  0.0697  3.9852
  171SAPS  C21719418   3.629   1.454   6.109  0.0463 -0.3614  0.2882
  171SAPS  H17R19419   3.720   1.516   6.124  3.3228 -4.3162 -1.3378
  171SAPS  H17S19420   3.567   1.512   6.037  2.9869 -0.2091 -2.3350
  171SAPS  C21819421   3.679   1.342   6.014 -0.4980  0.3569 -0.2607
  171SAPS  H18R19422   3.596   1.298   5.954  0.3098  1.1190 -1.9972
  171SAPS  H18S19423   3.725   1.261   6.074 -1.6281 -1.2891 -1.5111
  171SAPS  C21919424   3.781   1.403   5.908  0.5161  0.5823  0.2771
  171SAPS  H19R19425   3.851   1.472   5.961 -2.0635  4.2032 -0.6360
  171SAPS  H19S19426   3.717   1.470   5.847 -1.5505 -0.7185  0.9026
  171SAPS  C22019427   3.855   1.296   5.822 -0.2553 -0.7329 -0.1829
  171SAPS  H20R19428   3.780   1.225   5.781  1.0720 -1.7311 -0.9859
  171SAPS  H20S19429   3.919   1.243   5.896  0.7657  0.6718 -0.0137
  171SAPS  H20T19430   3.905   1.354   5.741 -3.2182 -0.7613 -2.1932
  171SAPS   C3319431   4.213   1.696   7.504 -0.0119 -0.0288  0.3903
  171SAPS   H3X19432   4.307   1.636   7.507  0.0511  0.0643  0.2631
  171SAPS   H3Y19433   4.210   1.791   7.447 -0.5924  0.3686  1.0715
  171SAPS   C3419434   4.101   1.598   7.460 -0.0081 -0.5825  0.6387
  171SAPS   H4X19435   4.004   1.652   7.461  0.6531  1.0788 -3.5110
  171SAPS   H4Y19436   4.090   1.512   7.530 -1.9169 -0.2508  0.8048
  171SAPS   C3519437   4.113   1.546   7.315  0.2356  0.4683 -0.5255
  171SAPS   H5X19438   4.045   1.459   7.301 -1.9023  1.7674  1.3187
  171SAPS   H5Y19439   4.217   1.514   7.290  0.4480  1.1385 -0.5027
  171SAPS   C3619440   4.074   1.651   7.215  0.4778  0.3042 -0.2534
  171SAPS   H6X19441   4.158   1.723   7.228  1.1618 -0.3912 -0.7440
  171SAPS   H6Y19442   3.982   1.712   7.229 -0.5603 -1.2066 -0.3668
  171SAPS   C3719443   4.105   1.610   7.067  0.1397 -0.3099 -0.6847
  171SAPS   H7X19444   4.030   1.536   7.031 -2.4797  1.9207 -0.1753
  171SAPS   H7Y19445   4.210   1.574   7.064  0.5289  0.8123 -2.6315
  171SAPS   C3819446   4.103   1.722   6.969 -0.0248 -0.9104  0.1652
  171SAPS   H8X19447   4.180   1.797   6.996 -1.7142  1.6487 -1.6180
  171SAPS   H8Y19448   4.003   1.772   6.965 -0.4166 -1.7315 -1.1179
  171SAPS   C3919449   4.119   1.684   6.818  0.2443  0.6464 -0.4666
  171SAPS   H9X19450   4.042   1.608   6.793 -0.2186  1.0222 -0.1839
  171SAPS   H9Y19451   4.217   1.632   6.827  0.5463  1.5535  3.5632
  171SAPS  C31019452   4.123   1.787   6.716  0.4156 -0.3388  0.0578
  171SAPS  H10X19453   4.214   1.850   6.728 -1.0494  1.9685 -0.2420
  171SAPS  H10Y19454   4.032   1.851   6.722  0.1472 -0.8145  1.1496
  171SAPS  C31119455   4.126   1.717   6.579  0.4949  0.8574  0.2421
  171SAPS  H11X19456   4.042   1.644   6.584  0.6672  0.7394  2.1175
  171SAPS  H11Y19457   4.223   1.669   6.552  0.3977  0.1080  1.1748
  171SAPS  C31219458   4.097   1.814   6.462  0.0802 -0.4125  0.2736
  171SAPS  H12X19459   4.177   1.888   6.442 -0.8605  0.3509 -0.8388
  171SAPS  H12Y19460   4.006   1.867   6.497  0.2515 -0.5838  0.9988
  171SAPS  C31319461   4.051   1.732   6.339  0.0522  0.3380 -0.1743
  171SAPS  H13X19462   3.953   1.688   6.365  1.5263 -2.2088  1.4946
  171SAPS  H13Y19463   4.121   1.652   6.307 -1.4649 -0.4919 -1.5792
  171SAPS  C31419464   4.026   1.833   6.225  0.1249  0.3251  0.5310
  171SAPS  H14X19465   4.119   1.888   6.199  0.0902  0.0473 -0.2078
  171SAPS  H14Y19466   3.964   1.913   6.269 -0.7746  1.6314 -2.7996
  171SAPS  C31519467   3.944   1.763   6.112  0.1201 -0.0712  0.3859
  171SAPS  H15X19468   3.871   1.689   6.149  1.5332 -1.9923 -0.5144
  171SAPS  H15Y19469   4.016   1.701   6.055  0.1872 -0.1042  0.5063
  171SAPS  C31619470   3.878   1.855   6.018 -0.6159  0.2116  0.7090
  171SAPS  H16X19471   3.950   1.902   5.948 -0.6736  0.0006  0.5043
  171SAPS  H16Y19472   3.837   1.939   6.078 -0.9532  2.4035 -2.3285
  171SAPS  C31719473   3.765   1.794   5.930  0.5177 -0.3957 -0.2880
  171SAPS  H17X19474   3.704   1.738   6.003 -0.5200  0.6690 -0.3050
  171SAPS  H17Y19475   3.811   1.721   5.860 -0.1390 -0.1292 -1.0221
  171SAPS  C31819476   3.678   1.905   5.864 -0.1415  0.4909 -0.3030
  171SAPS  H18X19477   3.584   1.854   5.833  0.1484  0.4128 -1.0787
  171SAPS  H18Y19478   3.721   1.961   5.778  0.1788  0.7577  0.0277
  171SAPS  H18Z19479   3.654   1.980   5.943  0.8065  0.0443  0.4180
  172SAPS     N19480   3.995   2.352   8.304  0.0046  0.0613 -0.3285
  172SAPS   HN119481   4.038   2.359   8.398  0.3236  2.9110 -0.5902
  172SAPS   HN219482   3.971   2.452   8.283  4.3374  1.1917 -0.8989
  172SAPS   HN319483   3.912   2.289   8.301  0.6895 -1.0484  2.1839
  172SAPS   C1219484   4.101   2.326   8.197  0.2866 -0.1053  0.1023
  172SAPS  H12A19485   4.132   2.415   8.144  0.7672  1.1817  2.4179
  172SAPS   C1319486   4.217   2.254   8.257 -0.6299  0.3840 -0.1110
  172SAPS  O13A19487   4.244   2.275   8.379 -0.0897  0.4066 -0.3471
  172SAPS  O13B19488   4.307   2.209   8.183  0.2178  0.3861 -0.3781
  172SAPS   C1119489   4.031   2.247   8.085  0.1223 -0.5347 -0.0817
  172SAPS  H11A19490   3.968   2.160   8.114 -1.9995  0.4965 -1.3147
  172SAPS  H11B19491   4.103   2.206   8.011  0.4151 -0.3183  0.0850
  172SAPS     P19492   3.889   2.327   7.887 -0.1009 -0.0814  0.0703
  172SAPS   O1319493   3.779   2.230   7.887 -0.0612 -0.2915 -0.1701
  172SAPS   O1419494   3.871   2.451   7.819  0.3439  0.2500  0.1020
  172SAPS   O1219495   3.953   2.350   8.031  0.3100 -0.5427  0.4322
  172SAPS   O1119496   4.009   2.251   7.821 -1.1896 -0.2654 -0.4246
  172SAPS    C119497   4.122   2.332   7.768 -0.3396  0.3854 -0.5208
  172SAPS    HA19498   4.094   2.427   7.717  1.3808  1.6339  0.7532
  172SAPS    HB19499   4.198   2.345   7.848 -1.2272  0.0199  0.4182
  172SAPS    C219500   4.201   2.250   7.660  1.1896  0.1110  0.4477
  172SAPS    HS19501   4.236   2.329   7.590 -0.5427  0.7006  0.2048
  172SAPS   O2119502   4.117   2.159   7.580 -0.4652 -0.5181 -0.0776
  172SAPS   C2119503   4.029   2.210   7.507 -0.4133 -0.4804  0.3875
  172SAPS   O2219504   3.998   2.329   7.486 -0.0977  0.8727 -0.0539
  172SAPS   C2219505   3.960   2.090   7.447  1.3248  0.3904  0.1679
  172SAPS   H2R19506   4.039   2.042   7.386  1.3379 -0.1252  0.5793
  172SAPS   H2S19507   3.924   2.021   7.527 -2.4315  0.7657 -1.0278
  172SAPS    C319508   4.321   2.174   7.719  0.1574 -0.2721 -0.1684
  172SAPS    HX19509   4.276   2.093   7.780 -0.7349  0.5625  0.3183
  172SAPS    HY19510   4.375   2.240   7.791 -2.1394  2.5993 -0.8987
  172SAPS   O3119511   4.405   2.139   7.604  0.2008 -0.0520 -0.3127
  172SAPS   C3119512   4.462   2.026   7.600 -0.9232  0.6403 -0.8987
  172SAPS   O3219513   4.463   1.954   7.701 -0.7233  0.2568 -0.1156
  172SAPS   C3219514   4.534   2.002   7.466 -0.2672 -0.2472  0.4973
  172SAPS   H2X19515   4.589   1.909   7.491  0.1629  0.0830  0.7983
  172SAPS   H2Y19516   4.597   2.091   7.443 -3.4668  1.7284 -1.4404
  172SAPS   C2319517   3.836   2.139   7.358  0.2597  0.7811 -0.1455
  172SAPS   H3R19518   3.881   2.207   7.283 -0.3407  0.2076 -1.0329
  172SAPS   H3S19519   3.753   2.188   7.413 -1.3672 -0.5802 -1.2829
  172SAPS   C2419520   3.774   2.018   7.280  0.8551 -0.5213  0.2228
  172SAPS   H4R19521   3.851   1.970   7.215 -0.3536 -0.4914 -1.2732
  172SAPS   H4S19522   3.699   2.052   7.206  1.9534  1.5119 -0.0073
  172SAPS   C2519523   3.715   1.914   7.373  0.7332 -0.8301  0.0231
  172SAPS   H5R19524   3.797   1.856   7.419  2.0984 -0.9281 -2.3560
  172SAPS   C2619525   3.581   1.877   7.374 -0.4036 -0.0648  0.0692
  172SAPS   H6R19526   3.547   1.812   7.456 -0.3750 -1.0444 -0.6834
  172SAPS   C2719527   3.464   1.927   7.296  0.1431 -0.0930  0.3665
  172SAPS   H7R19528   3.421   1.849   7.230 -1.7720  1.6249 -0.5280
  172SAPS   H7S19529   3.503   2.009   7.232  1.2620  1.0165  2.3565
  172SAPS   C2819530   3.355   1.996   7.379 -0.2054 -0.5766  0.4371
  172SAPS   H8R19531   3.342   1.954   7.479  0.0698 -0.9846  0.3067
  172SAPS   C2919532   3.291   2.116   7.353  0.3978  0.3995  0.3745
  172SAPS   H9R19533   3.215   2.150   7.424 -2.4696 -1.6573 -1.4892
  172SAPS  C21019534   3.294   2.203   7.227 -0.3936  0.0333  0.2188
  172SAPS  H10R19535   3.397   2.245   7.226 -0.9948  1.6771  1.5861
  172SAPS  H10S19536   3.216   2.275   7.257 -1.9436 -1.7447  0.6149
  172SAPS  C21119537   3.252   2.132   7.104  0.1040  0.3748  0.4069
  172SAPS  H11R19538   3.164   2.067   7.105  2.3886 -3.0565 -1.6265
  172SAPS  C21219539   3.323   2.112   6.987  0.3159 -0.3284 -0.1212
  172SAPS  H12R19540   3.267   2.066   6.905  1.8248 -1.5649 -0.5072
  172SAPS  C21319541   3.458   2.167   6.938  0.5610  1.0538  0.3298
  172SAPS  H13R19542   3.519   2.090   6.886 -0.9189 -2.5663  3.4434
  172SAPS  H13S19543   3.527   2.191   7.022 -0.0115 -3.8455  2.5936
  172SAPS  C21419544   3.429   2.300   6.873 -0.2997  0.1876  0.4990
  172SAPS  H14R19545   3.378   2.369   6.942 -3.7441  0.4557 -2.0425
  172SAPS  C21519546   3.450   2.323   6.743  0.3590 -0.1550 -0.1045
  172SAPS  H15R19547   3.433   2.425   6.708 -0.8816 -0.4446 -0.3869
  172SAPS  C21619548   3.512   2.224   6.647 -0.0293  0.1145 -0.4019
  172SAPS  H16R19549   3.578   2.151   6.699  0.5336  0.4043 -0.6936
  172SAPS  H16S19550   3.577   2.278   6.575  0.2512 -0.1958 -0.3849
  172SAPS  C21719551   3.402   2.148   6.564  0.4298 -0.0354  0.4714
  172SAPS  H17R19552   3.356   2.214   6.488  0.8923 -1.2385 -0.8929
  172SAPS  H17S19553   3.315   2.113   6.623 -0.3976 -2.9336 -2.2149
  172SAPS  C21819554   3.458   2.027   6.488  0.8479 -0.7073  0.1127
  172SAPS  H18R19555   3.374   1.992   6.425 -0.0758  1.3736  0.1080
  172SAPS  H18S19556   3.493   1.944   6.553 -1.2481 -0.8582  1.1177
  172SAPS  C21919557   3.580   2.044   6.402 -0.6233 -0.1392  0.1392
  172SAPS  H19R19558   3.663   2.098   6.454 -2.2590  2.0604  0.5977
  172SAPS  H19S19559   3.560   2.117   6.322 -2.5075  0.9604  1.5306
  172SAPS  C22019560   3.640   1.914   6.351  0.0445  0.4321  0.4480
  172SAPS  H20R19561   3.683   1.913   6.249 -0.1891 -0.5608  0.3487
  172SAPS  H20S19562   3.549   1.849   6.343  0.7054 -0.4932  0.2521
  172SAPS  H20T19563   3.709   1.869   6.425  1.3346  0.7461 -0.5313
  172SAPS   C3319564   4.433   1.971   7.343  0.4284  0.0726 -0.2233
  172SAPS   H3X19565   4.395   1.869   7.369 -0.3943  1.0068  2.6178
  172SAPS   H3Y19566   4.495   1.959   7.251  1.1154 -0.8527  0.3456
  172SAPS   C3419567   4.335   2.077   7.312 -0.0749 -0.7699 -0.3716
  172SAPS   H4X19568   4.391   2.172   7.297 -1.7396  0.2418 -0.4259
  172SAPS   H4Y19569   4.265   2.095   7.396 -1.3093 -0.6192 -1.4100
  172SAPS   C3519570   4.262   2.044   7.180  0.5552 -0.1272  0.4416
  172SAPS   H5X19571   4.198   1.958   7.208  0.7580  0.1163  1.7110
  172SAPS   H5Y19572   4.335   2.016   7.102 -0.9264 -0.8601 -0.7343
  172SAPS   C3619573   4.171   2.163   7.128  1.0770 -0.0979  0.0843
  172SAPS   H6X19574   4.217   2.253   7.083 -0.3709  0.7019  0.1492
  172SAPS   H6Y19575   4.104   2.203   7.207 -1.0483 -1.3002 -1.0248
  172SAPS   C3719576   4.083   2.116   7.006  0.1017 -0.5027 -0.3809
  172SAPS   H7X19577   3.979   2.087   7.032  0.3837 -0.4234  0.9222
  172SAPS   H7Y19578   4.117   2.017   6.970  0.2644 -1.3657  1.9577
  172SAPS   C3819579   4.082   2.211   6.883  0.0570  0.5906  0.2302
  172SAPS   H8X19580   4.187   2.235   6.856  0.4506 -2.1913 -1.0079
  172SAPS   H8Y19581   4.042   2.309   6.917  1.2618  1.4285 -0.6754
  172SAPS   C3919582   3.998   2.159   6.763 -0.4013 -0.3697 -0.6303
  172SAPS   H9X19583   3.887   2.158   6.772 -0.4118 -0.7747 -0.7823
  172SAPS   H9Y19584   4.027   2.054   6.741  0.8598  0.4054 -3.1314
  172SAPS  C31019585   4.043   2.244   6.640  0.7921  0.9108  0.1184
  172SAPS  H10X19586   4.154   2.240   6.634  0.9484  0.4190  2.3427
  172SAPS  H10Y19587   4.022   2.351   6.662  0.8642  0.5629  2.0527
  172SAPS  C31119588   3.965   2.210   6.512 -0.6379 -0.0682  0.2816
  172SAPS  H11X19589   3.865   2.258   6.513  0.1512  1.6551  0.3037
  172SAPS  H11Y19590   3.953   2.100   6.507 -0.6721 -0.2103  2.3869
  172SAPS  C31219591   4.046   2.262   6.390 -0.2786  0.0783  0.4725
  172SAPS  H12X19592   4.147   2.216   6.394 -0.1042  0.4887  1.0354
  172SAPS  H12Y19593   4.056   2.373   6.386 -1.7857  0.2031 -1.5824
  172SAPS  C31319594   3.964   2.235   6.260 -0.9178  0.2337 -0.2143
  172SAPS  H13X19595   3.868   2.291   6.258 -0.6829  0.6373 -1.9897
  172SAPS  H13Y19596   3.935   2.128   6.261 -1.5003  0.3191 -2.3777
  172SAPS  C31419597   4.050   2.277   6.136 -0.1238 -0.4841 -1.1469
  172SAPS  H14X19598   4.143   2.217   6.144 -1.2019 -2.1029 -0.2308
  172SAPS  H14Y19599   4.085   2.382   6.142 -0.8994 -0.2057 -1.3705
  172SAPS  C31519600   3.970   2.258   6.008  0.1882 -0.1600  0.4879
  172SAPS  H15X19601   3.957   2.362   5.972  1.3042 -0.1740  0.0238
  172SAPS  H15Y19602   3.873   2.207   6.025  0.1503  0.3033  1.8102
  172SAPS  C31619603   4.064   2.184   5.906 -0.3230 -0.1253 -0.0408
  172SAPS  H16X19604   4.165   2.230   5.903 -0.5285  0.2859 -1.8661
  172SAPS  H16Y19605   4.081   2.089   5.961  1.5799 -0.0937 -0.5014
  172SAPS  C31719606   4.000   2.162   5.770 -0.1155 -1.2251  0.3430
  172SAPS  H17X19607   3.983   2.261   5.723 -1.0566 -1.1860  0.7484
  172SAPS  H17Y19608   3.901   2.115   5.787 -0.3170 -1.1613 -0.5807
  172SAPS  C31819609   4.079   2.077   5.679  0.0419  0.5182 -0.1310
  172SAPS  H18X19610   4.045   2.090   5.574 -0.1278  0.9939 -0.0159
  172SAPS  H18Y19611   4.059   1.971   5.708  2.4241  0.5181  1.9152
  172SAPS  H18Z19612   4.190   2.085   5.687  0.2416 -2.4665  1.9708
  173SAPS     N19613   5.724   5.553   3.135 -0.4661 -0.0221  0.7729
  173SAPS   HN119614   5.676   5.640   3.165  0.9079  1.9395 -2.3042
  173SAPS   HN219615   5.669   5.510   3.058 -0.5882  0.0424  0.8226
  173SAPS   HN319616   5.737   5.482   3.210 -1.0153  2.1789  3.0770
  173SAPS   C1219617   5.857   5.590   3.082 -0.0842 -0.3670  0.4525
  173SAPS  H12A19618   5.907   5.656   3.152 -1.6421  1.3051  0.0535
  173SAPS   C1319619   5.938   5.459   3.032  0.6464  0.2258  0.1933
  173SAPS  O13A19620   5.917   5.345   3.078 -0.1243  0.1791 -0.1044
  173SAPS  O13B19621   6.041   5.490   2.966  0.0436 -0.2715 -0.5211
  173SAPS   C1119622   5.838   5.683   2.964  0.6232  0.2467  0.4357
  173SAPS  H11A19623   5.781   5.636   2.882 -0.4064  1.1483  0.6103
  173SAPS  H11B19624   5.935   5.713   2.920  0.0268 -0.6482 -1.5799
  173SAPS     P19625   5.713   5.913   2.908  0.0821 -0.3101  0.3526
  173SAPS   O1319626   5.826   5.992   2.854 -0.4032  0.5506 -0.1978
  173SAPS   O1419627   5.627   5.856   2.798 -0.3154  0.2725  0.2796
  173SAPS   O1219628   5.762   5.795   3.000  0.0350  0.7204 -0.0716
  173SAPS   O1119629   5.627   6.012   2.990 -0.1254 -0.4273  0.1963
  173SAPS    C119630   5.671   6.079   3.107  0.1755  0.8693 -0.0657
  173SAPS    HA19631   5.779   6.102   3.094 -0.2706  3.0978 -0.3455
  173SAPS    HB19632   5.608   6.171   3.115 -0.4177  0.4633  0.0264
  173SAPS    C219633   5.651   5.980   3.228  0.2013  0.2422 -0.1007
  173SAPS    HS19634   5.715   5.895   3.194 -1.0053 -0.7259 -0.0220
  173SAPS   O2119635   5.515   5.956   3.235 -0.4835 -0.3551  0.0125
  173SAPS   C2119636   5.480   5.830   3.256 -0.7681 -0.4284  0.3090
  173SAPS   O2219637   5.561   5.733   3.244  0.2894 -0.2297 -0.3620
  173SAPS   C2219638   5.331   5.814   3.299 -0.0334 -0.3041  0.2714
  173SAPS   H2R19639   5.291   5.913   3.330 -0.0970 -0.1079 -0.4116
  173SAPS   H2S19640   5.268   5.788   3.211  1.1095 -0.1111 -0.6352
  173SAPS    C319641   5.705   6.028   3.362  0.7022  0.5987  0.5050
  173SAPS    HX19642   5.647   6.120   3.386  0.6851  1.0397 -1.0927
  173SAPS    HY19643   5.809   6.068   3.364  0.9360 -0.0068  0.4559
  173SAPS   O3119644   5.692   5.926   3.461 -0.5622  0.3103 -0.3673
  173SAPS   C3119645   5.785   5.834   3.461 -0.2116 -0.8162 -0.4412
  173SAPS   O3219646   5.877   5.829   3.383 -0.0159  0.2882 -0.1928
  173SAPS   C3219647   5.773   5.759   3.591  0.2155 -0.2937  0.4696
  173SAPS   H2X19648   5.685   5.800   3.645 -1.5296 -0.1670 -2.2663
  173SAPS   H2Y19649   5.863   5.782   3.653  0.5884 -2.3543  0.7666
  173SAPS   C2319650   5.314   5.711   3.409  1.0665 -0.0079 -0.0975
  173SAPS   H3R19651   5.377   5.620   3.400 -1.2861 -1.7809  0.3529
  173SAPS   H3S19652   5.213   5.665   3.416  1.4464 -0.9978 -0.9234
  173SAPS   C2419653   5.356   5.776   3.545 -0.8903  0.0618  0.5840
  173SAPS   H4R19654   5.299   5.867   3.572 -0.2107  0.4904  0.5995
  173SAPS   H4S19655   5.462   5.807   3.539 -1.3400  1.6451  0.3573
  173SAPS   C2519656   5.351   5.665   3.657  0.1730  0.0563  0.4519
  173SAPS   H5R19657   5.423   5.585   3.635 -1.8972 -1.8403  0.2103
  173SAPS   C2619658   5.256   5.650   3.748 -0.1784 -0.9500 -0.0539
  173SAPS   H6R19659   5.261   5.565   3.818  2.6364  0.2301  1.3351
  173SAPS   C2719660   5.144   5.740   3.763  0.6558  0.0261 -0.4925
  173SAPS   H7R19661   5.069   5.676   3.814  1.4433 -0.5375 -0.0081
  173SAPS   H7S19662   5.101   5.766   3.664 -0.2571  0.4919  0.0161
  173SAPS   C2819663   5.179   5.861   3.846  0.1169 -0.1401 -0.0576
  173SAPS   H8R19664   5.232   5.947   3.801 -2.8042  2.2483  0.6963
  173SAPS   C2919665   5.155   5.867   3.982 -0.1648 -0.2420 -0.0855
  173SAPS   H9R19666   5.203   5.948   4.038  1.5218 -0.5188 -1.0369
  173SAPS  C21019667   5.086   5.771   4.073 -0.3974  0.1064 -0.2615
  173SAPS  H10R19668   5.107   5.670   4.034 -0.7752  0.6466 -1.9224
  173SAPS  H10S19669   4.977   5.788   4.057 -0.4381  0.7025  0.5953
  173SAPS  C21119670   5.121   5.789   4.225  0.4115 -0.5241 -0.1572
  173SAPS  H11R19671   5.051   5.853   4.281  1.9041  1.7808 -0.7743
  173SAPS  C21219672   5.215   5.718   4.286 -0.7928  0.3383  0.3151
  173SAPS  H12R19673   5.231   5.733   4.393 -1.0369 -3.1037  0.9460
  173SAPS  C21319674   5.322   5.629   4.228 -0.2465 -0.3092  0.5376
  173SAPS  H13R19675   5.406   5.688   4.188 -2.0085  0.9839 -1.4555
  173SAPS  H13S19676   5.280   5.569   4.145 -2.8398 -1.7900  2.7329
  173SAPS  C21419677   5.357   5.525   4.328 -0.2032  0.0494 -0.2914
  173SAPS  H14R19678   5.275   5.452   4.334 -0.6674  0.6604  1.3068
  173SAPS  C21519679   5.471   5.502   4.391  0.4562 -0.1587  0.5061
  173SAPS  H15R19680   5.490   5.411   4.450  1.7892 -1.2795 -1.5573
  173SAPS  C21619681   5.594   5.592   4.382 -0.2532  0.6442  0.3475
  173SAPS  H16R19682   5.601   5.665   4.299  4.7479  0.7858  0.5744
  173SAPS  H16S19683   5.677   5.520   4.362  0.4078  0.7049  2.5776
  173SAPS  C21719684   5.647   5.672   4.503 -0.6142  0.4654  0.1022
  173SAPS  H17R19685   5.575   5.753   4.527 -0.6193  0.0611  1.5700
  173SAPS  H17S19686   5.749   5.706   4.475  0.4299 -1.4867  1.3379
  173SAPS  C21819687   5.674   5.571   4.625 -0.4737  0.8921 -0.4193
  173SAPS  H18R19688   5.754   5.503   4.586 -1.5899 -1.7960  1.6317
  173SAPS  H18S19689   5.585   5.506   4.639 -0.0463  0.0613 -1.3933
  173SAPS  C21919690   5.711   5.628   4.766  0.5411  0.0861  0.6302
  173SAPS  H19R19691   5.634   5.704   4.793  0.6785  0.5599 -0.2786
  173SAPS  H19S19692   5.810   5.678   4.764  1.4879 -1.5779 -2.6111
  173SAPS  C22019693   5.703   5.524   4.880 -0.1241  0.4665  0.3837
  173SAPS  H20R19694   5.745   5.425   4.854 -0.6200 -0.2134  2.0411
  173SAPS  H20S19695   5.595   5.504   4.893  0.0253 -2.0285 -1.5490
  173SAPS  H20T19696   5.752   5.560   4.974  1.6757 -3.4466  1.1538
  173SAPS   C3319697   5.748   5.609   3.563  0.4462 -0.7530  0.1524
  173SAPS   H3X19698   5.842   5.568   3.521  2.1584  2.1131  0.9194
  173SAPS   H3Y19699   5.664   5.592   3.493 -0.3482 -1.3123  1.2030
  173SAPS   C3419700   5.714   5.537   3.691 -0.5214 -0.4262  0.3014
  173SAPS   H4X19701   5.613   5.547   3.738 -1.3251 -2.3675 -0.8674
  173SAPS   H4Y19702   5.791   5.570   3.764  0.5129 -0.2332 -0.8465
  173SAPS   C3519703   5.749   5.391   3.678  0.3667  0.5311  0.2285
  173SAPS   H5X19704   5.799   5.357   3.772 -0.3598 -0.6853  0.2042
  173SAPS   H5Y19705   5.832   5.381   3.605 -1.6088  1.8493 -2.3510
  173SAPS   C3619706   5.635   5.295   3.636  0.5227 -0.7234  0.4711
  173SAPS   H6X19707   5.685   5.201   3.605 -1.2322 -1.0220 -1.7040
  173SAPS   H6Y19708   5.570   5.324   3.551  0.3439 -2.3029  0.0347
  173SAPS   C3719709   5.549   5.260   3.760  0.6827  0.4805 -0.1730
  173SAPS   H7X19710   5.507   5.351   3.808 -0.6952 -0.9622  1.5086
  173SAPS   H7Y19711   5.614   5.222   3.841  1.1215  2.8395  0.6501
  173SAPS   C3819712   5.420   5.176   3.720 -0.3571 -0.3704  0.4450
  173SAPS   H8X19713   5.451   5.134   3.622 -0.1825  0.8938 -0.0582
  173SAPS   H8Y19714   5.335   5.244   3.700 -0.7060 -0.1123  2.5716
  173SAPS   C3919715   5.368   5.078   3.827  0.4626  0.0622  0.0801
  173SAPS   H9X19716   5.441   4.998   3.851  2.1085  1.5443  0.2358
  173SAPS   H9Y19717   5.275   5.030   3.791  0.5401 -0.2324  0.2701
  173SAPS  C31019718   5.349   5.142   3.972  0.0374  0.2176 -0.2350
  173SAPS  H10X19719   5.299   5.240   3.955  0.6907  1.0342  2.1665
  173SAPS  H10Y19720   5.449   5.154   4.018 -0.2405  0.1450  0.3949
  173SAPS  C31119721   5.256   5.054   4.060  0.1496  0.6698  0.3654
  173SAPS  H11X19722   5.302   4.953   4.069  0.3583  0.4366 -2.4450
  173SAPS  H11Y19723   5.160   5.036   4.007  0.4370  0.3110 -0.0427
  173SAPS  C31219724   5.240   5.100   4.200 -0.5982 -0.0735 -1.6312
  173SAPS  H12X19725   5.209   5.204   4.225 -1.7608 -1.1865  2.2012
  173SAPS  H12Y19726   5.340   5.095   4.246 -1.9515  0.5899  1.6215
  173SAPS  C31319727   5.155   5.004   4.286 -0.1184  0.5740  0.4771
  173SAPS  H13X19728   5.134   5.065   4.377  0.4277  1.3825  0.0762
  173SAPS  H13Y19729   5.208   4.910   4.314 -0.3338  0.6520  1.1759
  173SAPS  C31419730   5.021   4.964   4.234  0.3777 -0.7374  0.1514
  173SAPS  H14X19731   5.036   4.897   4.146 -0.2076 -0.2927 -0.2936
  173SAPS  H14Y19732   4.969   5.054   4.196  3.1234  0.8330 -0.1786
  173SAPS  C31519733   4.930   4.891   4.339  0.2690 -0.1667 -0.4613
  173SAPS  H15X19734   4.887   4.954   4.420  2.6597  0.1711  0.6249
  173SAPS  H15Y19735   4.983   4.816   4.402  1.2482  2.9581  2.7766
  173SAPS  C31619736   4.806   4.826   4.269  0.1171 -0.0107 -0.0417
  173SAPS  H16X19737   4.844   4.748   4.199  1.4796  1.6855 -1.2840
  173SAPS  H16Y19738   4.755   4.911   4.219 -0.2366  0.4824  1.1230
  173SAPS  C31719739   4.713   4.765   4.379  0.1137  0.3596  0.0655
  173SAPS  H17X19740   4.682   4.834   4.461 -0.0223 -0.8236  1.0345
  173SAPS  H17Y19741   4.774   4.679   4.414 -1.9168 -1.6396 -1.0379
  173SAPS  C31819742   4.592   4.700   4.314  0.9218  0.0397  0.4155
  173SAPS  H18X19743   4.628   4.626   4.239 -1.9009 -1.4240  0.3622
  173SAPS  H18Y19744   4.527   4.771   4.258 -0.5013 -0.7601  0.9889
  173SAPS  H18Z19745   4.525   4.642   4.382  0.6710 -0.3709 -0.1712
  174SAPS     N19746   0.643   3.277   3.239  0.1276  0.1270 -0.6296
  174SAPS   HN119747   0.556   3.251   3.188  0.6881 -1.2924 -0.9060
  174SAPS   HN219748   0.647   3.197   3.304  0.0859  0.2702 -0.4496
  174SAPS   HN319749   0.623   3.366   3.289 -1.1869 -0.8808  0.7212
  174SAPS   C1219750   0.756   3.292   3.152 -0.0516  0.0887 -0.1685
  174SAPS  H12A19751   0.732   3.232   3.065 -0.9989 -0.4453  0.4385
  174SAPS   C1319752   0.771   3.433   3.089  0.2315 -0.5925 -0.3531
  174SAPS  O13A19753   0.702   3.532   3.124 -0.1251  0.4647 -0.1963
  174SAPS  O13B19754   0.873   3.447   3.016  0.0996  0.6557  0.1127
  174SAPS   C1119755   0.882   3.242   3.226  0.1645 -0.4289 -0.1045
  174SAPS  H11A19756   0.976   3.263   3.171  1.0651  1.5021  2.0150
  174SAPS  H11B19757   0.871   3.133   3.244  1.5726 -1.0241 -2.3789
  174SAPS     P19758   1.035   3.330   3.421 -0.2735  0.3381 -0.1919
  174SAPS   O1319759   1.147   3.279   3.347 -0.1156 -0.1348  0.8625
  174SAPS   O1419760   1.053   3.472   3.451 -0.6233 -0.0562  0.0920
  174SAPS   O1219761   0.894   3.309   3.352 -0.1776 -0.7138  0.0308
  174SAPS   O1119762   1.023   3.246   3.554 -0.8671  0.4511 -0.5021
  174SAPS    C119763   0.889   3.228   3.607 -0.3985 -0.7075  0.3732
  174SAPS    HA19764   0.809   3.192   3.539 -0.7929  0.1495  0.3633
  174SAPS    HB19765   0.892   3.151   3.686 -0.3349 -0.1917  0.8775
  174SAPS    C219766   0.830   3.357   3.683 -0.1730 -0.7828 -0.5854
  174SAPS    HS19767   0.791   3.428   3.607 -0.1225 -0.2647 -0.1300
  174SAPS   O2119768   0.938   3.415   3.761  0.1793  0.5427 -1.0646
  174SAPS   C2119769   0.915   3.540   3.793 -0.9090 -0.7935  0.0742
  174SAPS   O2219770   0.831   3.610   3.742  0.3609 -0.1031  0.4089
  174SAPS   C2219771   1.023   3.600   3.888 -0.2236 -0.7098  0.0760
  174SAPS   H2R19772   1.115   3.539   3.875  0.3508  0.6568 -3.2750
  174SAPS   H2S19773   1.059   3.697   3.847 -0.4627 -0.8784 -0.5502
  174SAPS    C319774   0.718   3.304   3.785 -0.7228 -0.9427  0.9077
  174SAPS    HX19775   0.757   3.237   3.865 -1.1618 -1.5218  0.6382
  174SAPS    HY19776   0.647   3.243   3.726  1.2961 -2.4531 -0.0901
  174SAPS   O3119777   0.652   3.408   3.854  0.3948 -0.1973 -0.3851
  174SAPS   C3119778   0.548   3.464   3.803 -1.0178  0.3459  0.4072
  174SAPS   O3219779   0.513   3.458   3.683 -0.5165 -0.0098 -0.0088
  174SAPS   C3219780   0.475   3.524   3.913 -0.3392  0.1383 -0.0043
  174SAPS   H2X19781   0.410   3.446   3.959  1.2604 -0.6482  1.0146
  174SAPS   H2Y19782   0.410   3.605   3.873  1.7871  1.7298 -0.4302
  174SAPS   C2319783   0.975   3.611   4.032  0.3482 -0.4081  0.1557
  174SAPS   H3R19784   0.872   3.653   4.035 -0.1620 -1.6447  1.5421
  174SAPS   H3S19785   1.039   3.686   4.081  0.4105 -0.3922  0.0506
  174SAPS   C2419786   0.969   3.477   4.100 -0.0948  0.7368  0.4245
  174SAPS   H4R19787   1.073   3.440   4.087 -1.5250 -3.6544 -0.4253
  174SAPS   H4S19788   0.918   3.408   4.028  1.9036 -1.4238  0.9765
  174SAPS   C2519789   0.911   3.472   4.243  0.4515 -0.0514  0.0250
  174SAPS   H5R19790   0.803   3.453   4.242  0.7531 -1.9453  0.3534
  174SAPS   C2619791   0.979   3.445   4.358 -0.0893  0.3709 -0.1045
  174SAPS   H6R19792   0.922   3.471   4.448 -0.0059  0.5948 -0.1156
  174SAPS   C2719793   1.130   3.458   4.369 -0.3917 -0.0672  0.1433
  174SAPS   H7R19794   1.164   3.561   4.347 -3.0434  1.1724  1.4296
  174SAPS   H7S19795   1.178   3.393   4.292  1.7960  2.0535 -0.4169
  174SAPS   C2819796   1.174   3.416   4.507  0.4349 -0.3730 -0.7077
  174SAPS   H8R19797   1.139   3.315   4.533 -2.7812  1.0265  0.9086
  174SAPS   C2919798   1.248   3.478   4.600 -0.3203  0.8022 -0.1141
  174SAPS   H9R19799   1.268   3.423   4.693 -2.3875  1.6011  0.8687
  174SAPS  C21019800   1.315   3.609   4.598  0.0948  0.4552 -0.3886
  174SAPS  H10R19801   1.366   3.627   4.501  2.2191 -0.1544  0.5430
  174SAPS  H10S19802   1.392   3.602   4.677 -0.6303  0.5750  0.3376
  174SAPS  C21119803   1.231   3.722   4.642  0.4021 -0.2598 -1.0336
  174SAPS  H11R19804   1.207   3.794   4.562 -0.6368 -1.0371 -1.4587
  174SAPS  C21219805   1.177   3.745   4.765  0.4497 -0.0777  0.6989
  174SAPS  H12R19806   1.114   3.835   4.775  1.4118  0.5831  0.9779
  174SAPS  C21319807   1.180   3.656   4.885 -0.9281  0.4644 -0.4713
  174SAPS  H13R19808   1.222   3.560   4.847  1.3412  1.2662 -0.1432
  174SAPS  H13S19809   1.073   3.636   4.907 -0.6266 -0.2034  0.4302
  174SAPS  C21419810   1.265   3.719   4.997 -0.1098 -0.2432  0.0830
  174SAPS  H14R19811   1.246   3.824   5.024  0.8066 -0.0668  0.0671
  174SAPS  C21519812   1.343   3.654   5.077 -0.7865 -0.0269  0.8116
  174SAPS  H15R19813   1.387   3.706   5.164  0.4075  0.5975 -0.1472
  174SAPS  C21619814   1.380   3.509   5.068 -0.4886 -0.2807 -0.0523
  174SAPS  H16R19815   1.483   3.497   5.110 -0.1955 -0.4662 -0.8176
  174SAPS  H16S19816   1.375   3.469   4.965  0.0160  2.6525 -1.2955
  174SAPS  C21719817   1.289   3.418   5.158  0.3172  0.0377  0.5041
  174SAPS  H17R19818   1.338   3.318   5.156  1.7537  0.7304 -0.6211
  174SAPS  H17S19819   1.187   3.413   5.116  0.2014  2.5862  0.3414
  174SAPS  C21819820   1.284   3.469   5.300  0.5345 -0.0247 -0.2607
  174SAPS  H18R19821   1.227   3.565   5.292 -1.5373 -0.8546  2.6587
  174SAPS  H18S19822   1.390   3.486   5.329  0.3051 -2.1147  2.1855
  174SAPS  C21919823   1.222   3.375   5.402 -0.2766 -0.4225  0.2514
  174SAPS  H19R19824   1.288   3.289   5.429 -1.1591 -0.7453  1.4392
  174SAPS  H19S19825   1.143   3.320   5.347  0.4592  0.0995 -1.4057
  174SAPS  C22019826   1.175   3.443   5.531  0.1627  1.0154  0.4783
  174SAPS  H20R19827   1.257   3.487   5.593 -1.1564 -0.7087  3.6612
  174SAPS  H20S19828   1.114   3.371   5.589 -2.5430  1.1125 -2.0431
  174SAPS  H20T19829   1.110   3.525   5.495 -0.4487 -0.3305 -1.6476
  174SAPS   C3319830   0.575   3.573   4.028  0.1078 -0.4772 -0.7555
  174SAPS   H3X19831   0.652   3.645   3.993  0.4891 -1.0220 -1.0369
  174SAPS   H3Y19832   0.614   3.484   4.081  1.3173  0.9562  0.9016
  174SAPS   C3419833   0.496   3.653   4.139  0.1417 -0.1722 -0.1040
  174SAPS   H4X19834   0.413   3.592   4.179  0.6636  0.5122  2.1288
  174SAPS   H4Y19835   0.457   3.747   4.094  1.6615  0.9329  0.8161
  174SAPS   C3519836   0.588   3.682   4.255 -0.8636 -1.0375 -0.0761
  174SAPS   H5X19837   0.686   3.720   4.219 -0.6144 -1.6712 -0.0738
  174SAPS   H5Y19838   0.609   3.588   4.310 -0.5621 -0.4498  0.8329
  174SAPS   C3619839   0.538   3.789   4.353 -0.8793  0.6156 -0.6711
  174SAPS   H6X19840   0.477   3.870   4.307 -0.8525  0.1470 -1.5576
  174SAPS   H6Y19841   0.626   3.844   4.391 -0.0250  1.6777 -3.9092
  174SAPS   C3719842   0.447   3.735   4.459 -0.4916  0.5410 -0.4237
  174SAPS   H7X19843   0.488   3.644   4.507  0.0515  2.0769  2.1882
  174SAPS   H7Y19844   0.360   3.684   4.411 -0.4030 -0.0743  0.0649
  174SAPS   C3819845   0.392   3.846   4.560  0.0820  0.4442  0.2571
  174SAPS   H8X19846   0.300   3.799   4.598 -0.0761 -0.1179 -0.7797
  174SAPS   H8Y19847   0.359   3.937   4.505 -0.0263 -0.6993 -1.6514
  174SAPS   C3919848   0.480   3.868   4.681 -0.2306 -0.0891  0.1656
  174SAPS   H9X19849   0.580   3.892   4.639  0.8078 -1.2799  1.8630
  174SAPS   H9Y19850   0.487   3.767   4.727  1.9623 -0.9147 -1.7363
  174SAPS  C31019851   0.445   3.976   4.780 -0.0649 -0.0875  0.3481
  174SAPS  H10X19852   0.528   3.985   4.853 -0.8025 -1.2882  1.3804
  174SAPS  H10Y19853   0.360   3.933   4.838  1.2958 -3.5037  0.0295
  174SAPS  C31119854   0.402   4.113   4.724 -0.3570  0.3068  0.3062
  174SAPS  H11X19855   0.373   4.175   4.811 -0.2876 -0.9606  1.2631
  174SAPS  H11Y19856   0.309   4.094   4.666 -2.4699  0.5785  3.4095
  174SAPS  C31219857   0.518   4.185   4.650  0.0585  0.8061  0.8553
  174SAPS  H12X19858   0.488   4.276   4.594  1.7617  0.5109 -0.6078
  174SAPS  H12Y19859   0.557   4.116   4.572 -1.5589  1.1528 -0.3252
  174SAPS  C31319860   0.639   4.232   4.727  0.8337  0.1912 -0.5062
  174SAPS  H13X19861   0.731   4.211   4.669  2.3470 -1.1737  2.1975
  174SAPS  H13Y19862   0.647   4.168   4.818  1.8640 -0.9180 -1.3416
  174SAPS  C31419863   0.628   4.376   4.753  0.3993 -0.1547 -0.1637
  174SAPS  H14X19864   0.525   4.404   4.785 -0.7097 -0.0583 -3.4173
  174SAPS  H14Y19865   0.638   4.435   4.660 -0.1011 -1.1211 -0.8481
  174SAPS  C31519866   0.734   4.428   4.845 -0.1577 -0.3304 -0.2935
  174SAPS  H15X19867   0.826   4.379   4.807 -0.2962 -0.1432 -0.8760
  174SAPS  H15Y19868   0.731   4.386   4.948 -0.8182 -0.5428 -0.3936
  174SAPS  C31619869   0.745   4.586   4.852  0.1308  0.1100 -1.1021
  174SAPS  H16X19870   0.646   4.632   4.870  0.4158  0.5091 -0.5475
  174SAPS  H16Y19871   0.783   4.625   4.755 -0.7567  2.3407 -0.6022
  174SAPS  C31719872   0.827   4.641   4.968 -0.3800 -0.5794 -0.3106
  174SAPS  H17X19873   0.931   4.613   4.942 -0.7628 -0.0884 -2.5878
  174SAPS  H17Y19874   0.795   4.594   5.064 -1.8630  1.0173  0.0221
  174SAPS  C31819875   0.814   4.795   4.987  0.3551 -0.3030  0.5775
  174SAPS  H18X19876   0.866   4.817   5.082  0.7351 -0.5150  0.4207
  174SAPS  H18Y19877   0.709   4.825   5.003  0.5791  0.7148  0.2215
  174SAPS  H18Z19878   0.846   4.861   4.903 -1.6621  1.2654  0.9707
  175SAPS     N19879   6.124   2.873   3.135 -0.1536  0.0860  0.9395
  175SAPS   HN119880   6.081   2.910   3.048  0.0012 -0.0775  0.7899
  175SAPS   HN219881   6.100   2.771   3.141  1.0375 -0.5508 -2.6237
  175SAPS   HN319882   6.079   2.915   3.218 -1.7362 -1.8046  1.1255
  175SAPS   C1219883   6.270   2.889   3.115  0.5507  0.3118  0.0993
  175SAPS  H12A19884   6.308   2.852   3.209 -0.1115 -0.7498 -0.0352
  175SAPS   C1319885   6.333   2.794   3.007  0.1101 -0.2575  0.9963
  175SAPS  O13A19886   6.257   2.708   2.953  0.3438 -0.2792  0.6041
  175SAPS  O13B19887   6.449   2.818   2.967 -0.6533 -0.0930  0.1236
  175SAPS   C1119888   6.310   3.037   3.102  0.8390 -0.0113  0.5071
  175SAPS  H11A19889   6.248   3.083   3.022  2.2202 -1.3064 -1.4063
  175SAPS  H11B19890   6.405   3.056   3.048  0.7424 -0.4925  0.1585
  175SAPS     P19891   6.429   3.138   3.302 -0.0507 -0.1870  0.5879
  175SAPS   O1319892   6.529   3.030   3.284 -0.3888  0.1700  0.0924
  175SAPS   O1419893   6.473   3.278   3.275 -0.0908  0.1886  0.1984
  175SAPS   O1219894   6.295   3.111   3.221  0.3930 -0.3746  0.4365
  175SAPS   O1119895   6.400   3.143   3.455  0.1624  0.1760 -0.2586
  175SAPS    C119896   6.283   3.080   3.509 -0.1670 -0.5406 -0.2371
  175SAPS    HA19897   6.199   3.075   3.437  1.3320 -1.2192 -1.9941
  175SAPS    HB19898   6.305   2.984   3.561 -0.3674 -0.6000 -0.2592
  175SAPS    C219899   6.226   3.164   3.634  1.0907  0.1337  0.2177
  175SAPS    HS19900   6.232   3.271   3.604  1.8074 -0.2133 -0.9563
  175SAPS   O2119901   6.308   3.140   3.746 -0.3742  0.4104 -0.1292
  175SAPS   C2119902   6.332   3.247   3.833 -0.1599  0.3500 -0.4498
  175SAPS   O2219903   6.276   3.353   3.828  0.3668 -0.3824  0.0182
  175SAPS   C2219904   6.430   3.205   3.938  0.5237 -0.2813  0.5172
  175SAPS   H2R19905   6.389   3.111   3.981  0.0262  0.1115  0.9199
  175SAPS   H2S19906   6.520   3.186   3.877 -0.4147 -1.7709 -0.4812
  175SAPS    C319907   6.073   3.124   3.656 -0.4900 -0.0706  0.1881
  175SAPS    HX19908   6.067   3.014   3.670  0.2136 -0.2830 -1.0587
  175SAPS    HY19909   6.009   3.147   3.569  0.9204 -0.9930 -1.1539
  175SAPS   O3119910   6.028   3.190   3.773 -0.3023  0.1396  0.6328
  175SAPS   C3119911   5.997   3.320   3.745 -0.3715 -0.4588  0.4966
  175SAPS   O3219912   5.999   3.363   3.629  0.0066  0.7883  0.6574
  175SAPS   C3219913   5.960   3.392   3.873 -0.1487 -0.1588  0.6071
  175SAPS   H2X19914   6.034   3.378   3.954 -0.9558 -1.8960  1.1070
  175SAPS   H2Y19915   5.854   3.374   3.903 -1.2725  1.7124 -1.8637
  175SAPS   C2319916   6.461   3.309   4.047  1.0559  0.8590  0.5347
  175SAPS   H3R19917   6.510   3.395   3.997  2.2749 -0.3863 -0.5117
  175SAPS   H3S19918   6.535   3.257   4.111  2.0527 -1.6048 -2.3749
  175SAPS   C2419919   6.332   3.344   4.126  0.2204  0.3838  0.1841
  175SAPS   H4R19920   6.271   3.251   4.136 -0.8063  1.0125 -0.0527
  175SAPS   H4S19921   6.270   3.409   4.061  2.3380 -0.1412 -2.5148
  175SAPS   C2519922   6.361   3.407   4.255  0.2314 -0.8883 -0.4180
  175SAPS   H5R19923   6.432   3.352   4.318  0.6821  0.9154  0.7251
  175SAPS   C2619924   6.313   3.526   4.300  0.1637  0.2479  0.2425
  175SAPS   H6R19925   6.350   3.558   4.398 -0.1323  2.2429 -0.2528
  175SAPS   C2719926   6.226   3.628   4.240  0.2485 -0.0078  0.0934
  175SAPS   H7R19927   6.152   3.670   4.311 -1.2913 -1.4704 -0.6038
  175SAPS   H7S19928   6.170   3.595   4.151  0.3764  0.2794 -0.0981
  175SAPS   C2819929   6.321   3.737   4.203 -0.3670 -0.1213  0.2343
  175SAPS   H8R19930   6.368   3.723   4.104 -0.6628 -4.4783  0.5278
  175SAPS   C2919931   6.351   3.841   4.274 -0.5544 -0.3392  0.1969
  175SAPS   H9R19932   6.413   3.916   4.223 -1.8170  1.8221  1.6603
  175SAPS  C21019933   6.308   3.879   4.420  0.3044  0.1262 -0.1411
  175SAPS  H10R19934   6.200   3.864   4.441 -0.6952  2.9199 -2.5598
  175SAPS  H10S19935   6.307   3.990   4.430  2.2091  0.1459  0.1222
  175SAPS  C21119936   6.399   3.823   4.528  0.5004  0.7388  0.1312
  175SAPS  H11R19937   6.503   3.797   4.504 -0.2491 -0.1434 -2.4842
  175SAPS  C21219938   6.358   3.796   4.655 -0.2016 -0.0187 -0.2787
  175SAPS  H12R19939   6.438   3.758   4.720  0.4119 -0.6097 -1.3553
  175SAPS  C21319940   6.226   3.803   4.727 -0.4225  0.0015  0.1688
  175SAPS  H13R19941   6.155   3.860   4.664  0.2863  1.6272  0.7799
  175SAPS  H13S19942   6.242   3.877   4.809 -0.8498 -0.3217  0.5499
  175SAPS  C21419943   6.173   3.669   4.770 -0.2135 -0.1981 -0.0508
  175SAPS  H14R19944   6.145   3.601   4.688  0.4111 -0.8218  0.2414
  175SAPS  C21519945   6.131   3.627   4.891 -0.5709  0.1941 -0.1072
  175SAPS  H15R19946   6.085   3.528   4.900 -1.1329  0.4388 -0.2235
  175SAPS  C21619947   6.133   3.712   5.016 -0.3009 -0.0119 -0.2072
  175SAPS  H16R19948   6.030   3.744   5.041  0.1398  1.7496 -0.4999
  175SAPS  H16S19949   6.186   3.809   5.000 -2.5688  1.2553 -0.4883
  175SAPS  C21719950   6.204   3.636   5.135 -0.0367 -1.0215  0.1663
  175SAPS  H17R19951   6.311   3.630   5.107  0.3236 -3.0130  1.7501
  175SAPS  H17S19952   6.168   3.531   5.127  0.8095 -1.3273  0.2727
  175SAPS  C21819953   6.182   3.706   5.271 -0.0906  0.0376 -0.6914
  175SAPS  H18R19954   6.178   3.626   5.349  2.7668  1.4220  1.0423
  175SAPS  H18S19955   6.087   3.764   5.282  0.4857  0.7854  0.5581
  175SAPS  C21919956   6.297   3.800   5.309  0.2423  0.0954  0.0276
  175SAPS  H19R19957   6.266   3.894   5.259  0.1210 -1.0368 -2.1624
  175SAPS  H19S19958   6.391   3.772   5.255 -0.6512 -2.0209 -0.5467
  175SAPS  C22019959   6.315   3.821   5.460  0.6550  0.4447  0.0612
  175SAPS  H20R19960   6.403   3.885   5.483 -0.0464  1.4195  0.1123
  175SAPS  H20S19961   6.342   3.723   5.506 -0.9419 -1.3890 -2.6202
  175SAPS  H20T19962   6.232   3.865   5.518 -0.7733  0.2627 -1.7575
  175SAPS   C3319963   5.961   3.552   3.855 -0.0558  0.5442  0.0337
  175SAPS   H3X19964   5.923   3.570   3.753 -0.8334 -0.4485  0.1383
  175SAPS   H3Y19965   6.065   3.591   3.861  0.8969 -1.7402 -0.5583
  175SAPS   C3419966   5.881   3.626   3.956 -0.0231 -0.5160 -0.0788
  175SAPS   H4X19967   5.918   3.606   4.059 -2.9487 -1.0266  0.9531
  175SAPS   H4Y19968   5.777   3.587   3.950  0.2970 -1.1974 -1.5703
  175SAPS   C3519969   5.898   3.783   3.934 -0.8129  0.0886 -0.5439
  175SAPS   H5X19970   5.850   3.782   3.833  1.5018 -1.8829 -1.7383
  175SAPS   H5Y19971   6.008   3.792   3.931 -0.8267  0.7265  0.6535
  175SAPS   C3619972   5.841   3.873   4.045  0.1767  0.5300 -0.4992
  175SAPS   H6X19973   5.732   3.854   4.055  0.6218 -3.0196 -1.0153
  175SAPS   H6Y19974   5.864   3.978   4.017  1.1259  0.6249  0.5461
  175SAPS   C3719975   5.895   3.855   4.193 -0.4047 -0.2473  0.3910
  175SAPS   H7X19976   5.911   3.957   4.234  1.0922 -0.6855  0.9740
  175SAPS   H7Y19977   5.984   3.789   4.194 -1.7328 -2.1099  1.1061
  175SAPS   C3819978   5.798   3.774   4.285  0.2424  1.0135 -0.1196
  175SAPS   H8X19979   5.761   3.683   4.234  0.6840  0.1844  1.0006
  175SAPS   H8Y19980   5.704   3.830   4.307 -0.9924 -1.0903  0.2179
  175SAPS   C3919981   5.874   3.730   4.409  0.2560 -0.2425 -0.0707
  175SAPS   H9X19982   5.928   3.817   4.452 -1.1555 -0.2159  1.7443
  175SAPS   H9Y19983   5.950   3.659   4.370  0.8850  1.3509 -1.8871
  175SAPS  C31019984   5.797   3.679   4.530 -0.3051 -0.0566 -0.2391
  175SAPS  H10X19985   5.867   3.627   4.599  0.1262 -1.3759 -1.6233
  175SAPS  H10Y19986   5.724   3.602   4.497 -0.5431 -0.5294  1.2740
  175SAPS  C31119987   5.727   3.783   4.610  0.1439 -0.6581 -0.6282
  175SAPS  H11X19988   5.663   3.845   4.544  0.8275  0.3231 -0.3916
  175SAPS  H11Y19989   5.816   3.830   4.658  1.3755 -1.7491 -1.7501
  175SAPS  C31219990   5.648   3.719   4.729 -0.3422 -0.3484  0.4526
  175SAPS  H12X19991   5.576   3.653   4.676 -0.8934  0.5424  0.0568
  175SAPS  H12Y19992   5.588   3.789   4.791 -1.9584 -0.8115 -0.4966
  175SAPS  C31319993   5.729   3.635   4.827 -0.3477 -0.4899 -0.5896
  175SAPS  H13X19994   5.815   3.702   4.848 -0.4245 -0.9385  1.2655
  175SAPS  H13Y19995   5.759   3.539   4.778 -2.6843 -1.4800 -0.2279
  175SAPS  C31419996   5.653   3.602   4.955  0.1553 -0.1259  0.1539
  175SAPS  H14X19997   5.552   3.569   4.924  0.2788 -2.0746  1.6639
  175SAPS  H14Y19998   5.627   3.691   5.015 -0.5626 -0.9106  1.0207
  175SAPS  C31519999   5.715   3.506   5.060  0.2814  0.5605 -0.1278
  175SAPS  H15X20000   5.823   3.532   5.059 -0.2509  3.0421  0.4621
  175SAPS  H15Y20001   5.709   3.406   5.012 -2.9262  1.4390 -1.9155
  175SAPS  C31620002   5.654   3.506   5.196  0.7616  0.2836  0.0633
  175SAPS  H16X20003   5.562   3.444   5.189  0.1551  0.2264  4.9883
  175SAPS  H16Y20004   5.622   3.609   5.225 -3.6056 -0.7264 -0.3517
  175SAPS  C31720005   5.738   3.434   5.302 -0.0177  0.7898 -0.6157
  175SAPS  H17X20006   5.813   3.509   5.334 -1.7828  2.3856  0.0039
  175SAPS  H17Y20007   5.793   3.347   5.263 -1.0422 -0.3033  0.3023
  175SAPS  C31820008   5.661   3.394   5.432 -0.0819 -0.1986 -0.1613
  175SAPS  H18X20009   5.741   3.339   5.487  1.8368  1.1273 -1.4924
  175SAPS  H18Y20010   5.572   3.332   5.410 -0.2975  0.4718 -1.2541
  175SAPS  H18Z20011   5.623   3.481   5.489  3.4973 -0.0840  2.4521
  176SAPS     N20012   3.310   2.503   3.221  0.1236  0.3607  0.0384
  176SAPS   HN120013   3.387   2.545   3.166 -0.6086  0.2835 -1.0784
  176SAPS   HN220014   3.223   2.559   3.215 -0.4205 -0.4562  0.1292
  176SAPS   HN320015   3.330   2.502   3.323  0.5538 -0.5913 -0.0469
  176SAPS   C1220016   3.276   2.366   3.163 -0.4466 -0.2536  0.7132
  176SAPS  H12A20017   3.180   2.346   3.208 -1.1427  1.6976  0.1891
  176SAPS   C1320018   3.263   2.360   3.011  0.6652  0.2801 -0.3733
  176SAPS  O13A20019   3.274   2.465   2.943  0.4486 -0.5249  0.4252
  176SAPS  O13B20020   3.233   2.249   2.955  0.3079 -0.3070  0.3716
  176SAPS   C1120021   3.378   2.252   3.211  0.0175  0.3913 -0.2524
  176SAPS  H11A20022   3.342   2.158   3.164 -0.9733  1.3449 -1.4655
  176SAPS  H11B20023   3.377   2.238   3.321 -1.3532 -3.3809 -0.6033
  176SAPS     P20024   3.626   2.285   3.263 -0.0849  0.7513 -0.3534
  176SAPS   O1320025   3.663   2.145   3.289  0.2768  1.0202 -0.2623
  176SAPS   O1420026   3.732   2.368   3.201  0.3223 -0.1666  0.4671
  176SAPS   O1220027   3.511   2.277   3.164  0.5088  0.0076 -0.0741
  176SAPS   O1120028   3.569   2.358   3.386 -0.3287  0.0422  0.2767
  176SAPS    C120029   3.570   2.301   3.516  0.3620 -0.3964 -0.1921
  176SAPS    HA20030   3.467   2.296   3.555 -0.6796  2.6796 -2.1528
  176SAPS    HB20031   3.620   2.202   3.518 -0.4545 -0.8414  3.1692
  176SAPS    C220032   3.649   2.384   3.619  0.1277  0.1230  0.1882
  176SAPS    HS20033   3.632   2.327   3.713  0.2008  1.2521  0.9008
  176SAPS   O2120034   3.578   2.517   3.627 -0.4942  0.4555 -0.0040
  176SAPS   C2120035   3.585   2.575   3.749  0.4051  0.3813 -0.4175
  176SAPS   O2220036   3.646   2.531   3.846 -0.4302  0.4337  0.5701
  176SAPS   C2220037   3.502   2.698   3.742  0.4092 -0.2338  0.5891
  176SAPS   H2R20038   3.565   2.787   3.723  0.1806 -0.3217 -0.6439
  176SAPS   H2S20039   3.427   2.687   3.661  1.2763 -2.4771  0.0049
  176SAPS    C320040   3.797   2.394   3.576  0.4899 -0.6433  0.0214
  176SAPS    HX20041   3.801   2.479   3.505  0.8366 -0.7979 -0.1432
  176SAPS    HY20042   3.838   2.319   3.504  1.5493 -0.1522  0.1000
  176SAPS   O3120043   3.887   2.417   3.683 -0.4366 -0.4122 -0.6093
  176SAPS   C3120044   3.913   2.313   3.753  0.2351  0.1675 -0.1221
  176SAPS   O3220045   3.896   2.200   3.716  0.1701 -0.0274  0.1593
  176SAPS   C3220046   3.960   2.342   3.896  0.1836 -0.1560  0.0397
  176SAPS   H2X20047   3.896   2.406   3.959  1.7093 -0.2526  1.7802
  176SAPS   H2Y20048   4.049   2.407   3.878 -2.6122  3.3824 -2.3387
  176SAPS   C2320049   3.417   2.703   3.874 -0.3850 -0.2710 -0.2739
  176SAPS   H3R20050   3.479   2.691   3.966  0.9532 -0.4308 -1.1594
  176SAPS   H3S20051   3.345   2.619   3.870 -0.5297 -0.1271 -0.6750
  176SAPS   C2420052   3.346   2.834   3.893  0.2691 -0.3816 -0.7315
  176SAPS   H4R20053   3.276   2.813   3.977  1.1263  0.7554  0.3180
  176SAPS   H4S20054   3.283   2.844   3.802 -0.4025  2.0971 -0.0924
  176SAPS   C2520055   3.433   2.951   3.928  0.2464 -0.3843  0.0243
  176SAPS   H5R20056   3.478   2.995   3.838  3.4722 -1.3079  1.0641
  176SAPS   C2620057   3.431   3.020   4.047 -0.5391  0.6005  0.2075
  176SAPS   H6R20058   3.513   3.090   4.068 -0.4996  0.4949  0.4102
  176SAPS   C2720059   3.366   2.973   4.172  0.1543 -0.2462  0.4144
  176SAPS   H7R20060   3.444   2.949   4.248  1.1718  0.2822 -0.4294
  176SAPS   H7S20061   3.299   2.885   4.172 -1.4938  0.9744 -0.4434
  176SAPS   C2820062   3.275   3.085   4.226  0.3266  0.2782 -0.0759
  176SAPS   H8R20063   3.234   3.153   4.150 -0.0738 -0.0309 -0.1437
  176SAPS   C2920064   3.250   3.108   4.354 -1.0271 -0.3876 -0.6733
  176SAPS   H9R20065   3.193   3.198   4.380 -0.1279  0.1087 -0.3802
  176SAPS  C21020066   3.310   3.032   4.469 -0.1100 -0.1346 -0.0162
  176SAPS  H10R20067   3.419   3.049   4.457  0.1077 -1.0665  0.4916
  176SAPS  H10S20068   3.289   2.923   4.465  0.5484 -0.2313 -1.7594
  176SAPS  C21120069   3.277   3.090   4.604  0.0690 -0.0611  0.3023
  176SAPS  H11R20070   3.172   3.121   4.621  0.3679  0.4693  1.2708
  176SAPS  C21220071   3.362   3.121   4.702  0.3693 -0.1670 -0.0593
  176SAPS  H12R20072   3.319   3.153   4.799  1.2898  2.0500 -0.3182
  176SAPS  C21320073   3.507   3.100   4.700 -0.8607 -0.1133  0.2412
  176SAPS  H13R20074   3.561   3.171   4.634  0.0592 -1.1719 -0.1678
  176SAPS  H13S20075   3.528   2.993   4.678  0.8934 -0.0096  1.2697
  176SAPS  C21420076   3.555   3.114   4.847  0.1437  0.6000  0.1689
  176SAPS  H14R20077   3.560   3.026   4.913 -2.0353  0.4044  0.1589
  176SAPS  C21520078   3.575   3.231   4.915 -0.4378  0.1919  0.1685
  176SAPS  H15R20079   3.620   3.230   5.016  1.4382  0.1085 -0.6311
  176SAPS  C21620080   3.556   3.367   4.858 -0.3904 -0.3023  0.1141
  176SAPS  H16R20081   3.458   3.401   4.896 -0.3878  0.1849 -0.3012
  176SAPS  H16S20082   3.547   3.358   4.747 -0.3062  0.6775  0.0220
  176SAPS  C21720083   3.663   3.477   4.878 -0.2844 -0.1585  0.0386
  176SAPS  H17R20084   3.644   3.547   4.794  0.5876 -1.2697 -1.1295
  176SAPS  H17S20085   3.759   3.433   4.842 -0.0538 -1.9422  2.6178
  176SAPS  C21820086   3.673   3.539   5.011  0.1616  0.5311  0.2474
  176SAPS  H18R20087   3.703   3.465   5.088 -1.2420 -0.5006 -0.1634
  176SAPS  H18S20088   3.575   3.585   5.035  1.0522  1.6843  1.9472
  176SAPS  C21920089   3.769   3.662   5.015 -0.7029 -0.1676  0.5678
  176SAPS  H19R20090   3.784   3.690   5.121 -1.1937 -0.1802  0.6450
  176SAPS  H19S20091   3.717   3.749   4.968 -1.6001 -1.8390 -1.7490
  176SAPS  C22020092   3.901   3.632   4.943 -0.6632 -0.5815 -0.4157
  176SAPS  H20R20093   3.963   3.724   4.956 -0.7370 -0.6200  0.2900
  176SAPS  H20S20094   3.890   3.616   4.834 -2.3765 -1.6500 -0.1160
  176SAPS  H20T20095   3.953   3.546   4.989 -2.2420  0.5297  3.9650
  176SAPS   C3320096   4.004   2.221   3.977 -0.0295 -0.1331 -0.3368
  176SAPS   H3X20097   4.086   2.167   3.925 -0.1868 -0.1095 -0.6110
  176SAPS   H3Y20098   3.918   2.153   3.997 -0.3270  0.9067  2.4538
  176SAPS   C3420099   4.081   2.266   4.107  0.2380 -0.0549 -0.0915
  176SAPS   H4X20100   4.001   2.291   4.180  0.3341 -0.7099  0.2436
  176SAPS   H4Y20101   4.133   2.362   4.084 -1.0418  0.0393 -2.9971
  176SAPS   C3520102   4.188   2.179   4.164 -0.1714 -0.1721  0.2347
  176SAPS   H5X20103   4.246   2.243   4.235 -1.2900 -0.4277  1.4278
  176SAPS   H5Y20104   4.260   2.141   4.089 -0.2034 -1.1182  0.6652
  176SAPS   C3620105   4.126   2.065   4.246  0.3335  0.6624  0.2336
  176SAPS   H6X20106   4.061   2.001   4.182  0.5223 -1.0868  1.7151
  176SAPS   H6Y20107   4.069   2.106   4.332  1.6735 -0.7885  1.8864
  176SAPS   C3720108   4.233   1.969   4.309  0.3406 -0.1255 -0.0569
  176SAPS   H7X20109   4.299   2.015   4.386  0.7099 -3.8260  2.0974
  176SAPS   H7Y20110   4.299   1.928   4.229  0.8157  2.0312 -0.8478
  176SAPS   C3820111   4.177   1.858   4.396  0.0241 -0.4123  0.7526
  176SAPS   H8X20112   4.255   1.785   4.428 -0.1811 -0.5823  0.8693
  176SAPS   H8Y20113   4.098   1.803   4.341  0.1773  0.9589 -0.9184
  176SAPS   C3920114   4.115   1.894   4.526 -0.0936 -0.5074  0.7276
  176SAPS   H9X20115   4.036   1.971   4.516  1.2130  0.8994  0.6859
  176SAPS   H9Y20116   4.183   1.930   4.607 -1.4627 -1.6073  2.4267
  176SAPS  C31020117   4.050   1.771   4.588 -0.1714 -0.0527 -0.4180
  176SAPS  H10X20118   4.120   1.686   4.608 -0.0752 -0.0293 -0.6549
  176SAPS  H10Y20119   3.971   1.718   4.531  0.6135  0.4477 -2.0104
  176SAPS  C31120120   3.979   1.801   4.715 -0.1935 -0.0776 -0.2170
  176SAPS  H11X20121   3.905   1.882   4.698 -1.4329 -0.8491  1.2009
  176SAPS  H11Y20122   4.044   1.839   4.797 -0.4314 -0.6024  0.2233
  176SAPS  C31220123   3.903   1.677   4.767 -0.7133 -0.0029 -0.4947
  176SAPS  H12X20124   3.981   1.599   4.776 -1.5294 -0.7117  0.5490
  176SAPS  H12Y20125   3.823   1.650   4.695 -1.7816 -2.0009  1.3391
  176SAPS  C31320126   3.835   1.707   4.908  0.0404  0.6594 -0.6438
  176SAPS  H13X20127   3.743   1.645   4.918 -0.4126  1.4522  0.2644
  176SAPS  H13Y20128   3.791   1.809   4.909 -1.8009 -0.0883 -1.0435
  176SAPS  C31420129   3.922   1.682   5.039 -0.3342  0.0594 -0.1955
  176SAPS  H14X20130   4.019   1.736   5.047  0.2642 -1.1207  0.8199
  176SAPS  H14Y20131   3.956   1.576   5.041  3.0680  0.9583 -1.9641
  176SAPS  C31520132   3.845   1.713   5.168 -0.0972 -0.3136 -0.2017
  176SAPS  H15X20133   3.757   1.645   5.174 -0.0042 -0.3968  0.2304
  176SAPS  H15Y20134   3.792   1.810   5.171 -0.7608 -0.6692 -0.2967
  176SAPS  C31620135   3.917   1.702   5.302 -0.1686  0.0372  0.2866
  176SAPS  H16X20136   4.002   1.773   5.309 -1.5563  1.7850 -0.0823
  176SAPS  H16Y20137   3.947   1.598   5.327  0.4106  0.2619  0.5385
  176SAPS  C31720138   3.841   1.757   5.425 -0.1645  0.6480 -0.0491
  176SAPS  H17X20139   3.784   1.677   5.477  0.6133  1.7876  2.7351
  176SAPS  H17Y20140   3.762   1.829   5.394  0.1305  1.2724  0.6333
  176SAPS  C31820141   3.933   1.812   5.532  0.4184  0.1331 -0.8959
  176SAPS  H18X20142   3.997   1.889   5.486 -0.1828  0.5753 -1.0000
  176SAPS  H18Y20143   3.996   1.728   5.569 -1.1595 -0.3194  1.0004
  176SAPS  H18Z20144   3.875   1.845   5.622 -0.7481  0.1690 -1.6423
  177SAPS     N20145   1.071   3.356   2.876  0.4969 -0.0419  0.2014
  177SAPS   HN120146   1.083   3.409   2.787 -0.2833  1.9809  1.2356
  177SAPS   HN220147   1.041   3.259   2.857  0.5552 -0.2410  1.0984
  177SAPS   HN320148   0.997   3.412   2.923  0.9850 -0.4788  1.5370
  177SAPS   C1220149   1.199   3.370   2.944  0.2419  1.5463  0.4052
  177SAPS  H12A20150   1.164   3.348   3.044 -1.5496  1.5273 -0.1914
  177SAPS   C1320151   1.300   3.267   2.902  0.3926 -0.2113  0.4012
  177SAPS  O13A20152   1.269   3.165   2.841 -0.0117 -0.2949  0.0144
  177SAPS  O13B20153   1.420   3.278   2.945  0.8020  0.5724  0.3716
  177SAPS   C1120154   1.246   3.506   2.908  0.6002 -0.4334 -0.4598
  177SAPS  H11A20155   1.243   3.520   2.797  2.0917  1.8021 -0.3037
  177SAPS  H11B20156   1.353   3.525   2.931  0.0022  1.7087  0.9440
  177SAPS     P20157   1.206   3.678   3.097 -0.0945 -0.0587 -0.3351
  177SAPS   O1320158   1.080   3.722   3.156  0.2984 -0.6436  0.1895
  177SAPS   O1420159   1.291   3.594   3.180 -0.2638  0.5490 -0.5282
  177SAPS   O1220160   1.169   3.611   2.956 -0.4537  0.5779  0.2151
  177SAPS   O1120161   1.297   3.800   3.047  0.7270 -0.1489 -0.4992
  177SAPS    C120162   1.238   3.931   3.041 -0.1122 -0.3334 -0.0999
  177SAPS    HA20163   1.199   3.953   2.940  2.3107  2.3999 -0.5799
  177SAPS    HB20164   1.163   3.960   3.118 -0.3127  0.6546 -0.6536
  177SAPS    C220165   1.339   4.038   3.081 -0.1287 -0.2064 -0.9089
  177SAPS    HS20166   1.424   4.029   3.009  0.2551  0.4962 -0.5637
  177SAPS   O2120167   1.378   4.021   3.220 -0.5358 -0.0561 -0.0117
  177SAPS   C2120168   1.495   4.076   3.243 -0.7995  0.7261 -0.4115
  177SAPS   O2220169   1.563   4.144   3.164  0.7099 -0.1098 -0.1459
  177SAPS   C2220170   1.543   4.029   3.380  0.1632 -0.2402  0.6117
  177SAPS   H2R20171   1.463   4.059   3.451 -0.2268  1.7909 -0.6250
  177SAPS   H2S20172   1.559   3.919   3.380 -0.3740 -0.4119 -2.3719
  177SAPS    C320173   1.281   4.184   3.053  0.2226 -0.3240  0.0590
  177SAPS    HX20174   1.264   4.196   2.944 -1.7378  0.5892  0.4347
  177SAPS    HY20175   1.364   4.253   3.079  0.3798  0.0076 -1.2637
  177SAPS   O3120176   1.164   4.210   3.131  0.1576 -0.5569 -0.1366
  177SAPS   C3120177   1.046   4.213   3.070  0.0662 -0.3436  0.3835
  177SAPS   O3220178   1.037   4.180   2.952 -0.5764  0.1001  0.3253
  177SAPS   C3220179   0.932   4.279   3.159  0.1473  0.2792  0.6374
  177SAPS   H2X20180   0.849   4.234   3.101 -0.6705 -0.6956  2.4536
  177SAPS   H2Y20181   0.937   4.388   3.138 -0.0382  0.6810  2.5075
  177SAPS   C2320182   1.671   4.102   3.421 -0.4387  0.0680 -0.2390
  177SAPS   H3R20183   1.658   4.210   3.396 -0.1900  0.2437  0.3692
  177SAPS   H3S20184   1.753   4.067   3.355  0.4774 -0.0584  0.9385
  177SAPS   C2420185   1.702   4.110   3.574  0.2621  0.2366  0.3585
  177SAPS   H4R20186   1.607   4.139   3.624  0.0758  1.4882 -0.6684
  177SAPS   H4S20187   1.775   4.193   3.586  2.0863 -1.0367 -1.3096
  177SAPS   C2520188   1.761   3.984   3.634  0.0623 -0.1908 -0.2024
  177SAPS   H5R20189   1.842   3.947   3.570  0.4901  1.5818 -0.7573
  177SAPS   C2620190   1.717   3.919   3.746 -0.5425  0.0937 -0.2846
  177SAPS   H6R20191   1.782   3.839   3.785  1.1968  2.6153  2.4433
  177SAPS   C2720192   1.594   3.952   3.832 -0.0776  0.3999  0.0554
  177SAPS   H7R20193   1.530   3.862   3.831  0.8977 -0.3079 -0.0786
  177SAPS   H7S20194   1.530   4.031   3.787  0.5010  1.8643  1.7262
  177SAPS   C2820195   1.620   4.001   3.972  0.4290  0.1883 -0.1864
  177SAPS   H8R20196   1.706   4.070   3.977  1.5118 -1.1704  0.7680
  177SAPS   C2920197   1.567   3.957   4.088 -0.0614  0.3306  0.5910
  177SAPS   H9R20198   1.613   3.993   4.181 -0.2435 -1.3796  1.3699
  177SAPS  C21020199   1.461   3.849   4.110  0.1390 -0.0686  0.8527
  177SAPS  H10R20200   1.461   3.832   4.219 -0.2773 -2.3817  0.5451
  177SAPS  H10S20201   1.499   3.751   4.072  2.5277  1.3331 -0.6452
  177SAPS  C21120202   1.321   3.877   4.061 -0.0726  0.7597  0.1082
  177SAPS  H11R20203   1.303   3.879   3.952  2.7009 -0.0974 -0.4604
  177SAPS  C21220204   1.215   3.919   4.137  0.4626  0.9374  0.1464
  177SAPS  H12R20205   1.121   3.933   4.082  1.2645 -1.1354 -1.9142
  177SAPS  C21320206   1.204   3.933   4.291  0.3954  0.4287  0.2496
  177SAPS  H13R20207   1.211   4.039   4.324 -1.3449  0.3930  0.8119
  177SAPS  H13S20208   1.283   3.870   4.338 -0.3101 -0.6921 -0.0123
  177SAPS  C21420209   1.071   3.866   4.321 -0.2534  0.2302  0.5117
  177SAPS  H14R20210   1.019   3.796   4.254  1.8530 -1.3238  0.4065
  177SAPS  C21520211   0.995   3.908   4.424  0.2830 -0.3114 -0.1768
  177SAPS  H15R20212   0.895   3.866   4.444  0.4119  0.5794  2.6809
  177SAPS  C21620213   1.038   4.020   4.521 -0.3616  0.2320  0.1827
  177SAPS  H16R20214   1.146   4.038   4.538 -0.9695  2.3913  2.6101
  177SAPS  H16S20215   0.999   4.001   4.624  0.0746  0.9686  0.4927
  177SAPS  C21720216   0.967   4.159   4.476 -0.3753  0.3965 -0.1765
  177SAPS  H17R20217   0.857   4.142   4.483  0.0540 -4.0472 -0.9912
  177SAPS  H17S20218   0.979   4.172   4.366 -1.5975  1.0192 -0.2587
  177SAPS  C21820219   1.000   4.289   4.556 -0.7067 -0.1757  0.1552
  177SAPS  H18R20220   1.107   4.311   4.537 -0.8075  0.8323  0.6456
  177SAPS  H18S20221   0.978   4.267   4.662  1.1764 -0.5016  0.5193
  177SAPS  C21920222   0.924   4.415   4.516  0.4924  0.2666  0.0665
  177SAPS  H19R20223   0.968   4.496   4.578  0.9920 -2.3720  3.4351
  177SAPS  H19S20224   0.816   4.397   4.534  0.1777  2.4857  0.6215
  177SAPS  C22020225   0.928   4.442   4.365  0.4734  0.8707 -0.3395
  177SAPS  H20R20226   0.890   4.350   4.315  0.4482  1.2765 -1.0697
  177SAPS  H20S20227   1.027   4.468   4.324  1.0380 -2.6094 -1.5227
  177SAPS  H20T20228   0.856   4.525   4.347  0.4245  1.0493  0.6093
  177SAPS   C3320229   0.936   4.238   3.310 -0.1157  0.3669  0.6667
  177SAPS   H3X20230   1.029   4.262   3.367 -0.6767 -3.4822  3.6085
  177SAPS   H3Y20231   0.937   4.128   3.301 -1.0105  0.3180  1.1079
  177SAPS   C3420232   0.812   4.291   3.380  0.6901 -0.1843 -0.2735
  177SAPS   H4X20233   0.721   4.234   3.351  1.6506 -3.0713  1.9355
  177SAPS   H4Y20234   0.779   4.393   3.350 -0.5492  0.2334  2.2309
  177SAPS   C3520235   0.819   4.270   3.534 -0.4546 -0.8299  0.4147
  177SAPS   H5X20236   0.913   4.314   3.573 -0.8414  1.0627 -0.6352
  177SAPS   H5Y20237   0.805   4.167   3.573  1.3995 -1.0764  0.4820
  177SAPS   C3620238   0.724   4.364   3.606 -0.5096  0.1672 -0.6930
  177SAPS   H6X20239   0.623   4.337   3.569 -1.3281  0.7414  1.0099
  177SAPS   H6Y20240   0.738   4.473   3.587 -2.6611  0.6280  0.1183
  177SAPS   C3720241   0.726   4.342   3.754 -0.0414 -0.3084  0.3015
  177SAPS   H7X20242   0.832   4.344   3.787  0.1996 -1.3133 -0.3449
  177SAPS   H7Y20243   0.679   4.245   3.783  0.8264 -0.7089  0.4045
  177SAPS   C3820244   0.661   4.452   3.830 -0.0961 -0.6097 -0.0106
  177SAPS   H8X20245   0.688   4.556   3.801 -0.7283 -0.0075  1.4687
  177SAPS   H8Y20246   0.688   4.441   3.937  0.0214  2.3091  0.3189
  177SAPS   C3920247   0.509   4.429   3.836 -0.6254 -0.3215  0.2287
  177SAPS   H9X20248   0.482   4.334   3.886  0.7409 -1.2835 -0.7756
  177SAPS   H9Y20249   0.476   4.412   3.731 -1.2811  1.2011  0.1483
  177SAPS  C31020250   0.430   4.556   3.876  0.1986 -0.9451  0.0305
  177SAPS  H10X20251   0.324   4.529   3.895 -0.9601  0.6152 -3.5000
  177SAPS  H10Y20252   0.419   4.622   3.788  0.4219 -0.0573  0.6438
  177SAPS  C31120253   0.496   4.640   3.994 -0.4809 -0.2889 -0.4003
  177SAPS  H11X20254   0.594   4.676   3.957  1.4207 -3.5468  1.0715
  177SAPS  H11Y20255   0.524   4.575   4.080 -0.5353  0.0921 -0.0913
  177SAPS  C31220256   0.401   4.754   4.037  0.2832  0.2455 -0.4197
  177SAPS  H12X20257   0.402   4.817   3.945 -1.3189  0.0860 -0.5687
  177SAPS  H12Y20258   0.455   4.806   4.118 -0.2374 -1.4714  1.0838
  177SAPS  C31320259   0.252   4.732   4.075  0.2844 -0.4381 -0.4403
  177SAPS  H13X20260   0.190   4.733   3.982 -3.0706  3.1327  1.5328
  177SAPS  H13Y20261   0.215   4.825   4.124 -0.9291 -0.9720 -0.3008
  177SAPS  C31420262   0.223   4.614   4.168 -0.1080 -0.1484 -1.0919
  177SAPS  H14X20263   0.268   4.524   4.122  1.7436  0.1169  0.0854
  177SAPS  H14Y20264   0.113   4.602   4.174  0.0356 -0.9959  0.2880
  177SAPS  C31520265   0.283   4.621   4.305  0.4920 -1.0203 -0.7992
  177SAPS  H15X20266   0.263   4.723   4.344 -0.9684 -1.1858 -1.0692
  177SAPS  H15Y20267   0.392   4.606   4.286  0.7715 -2.6791  1.5938
  177SAPS  C31620268   0.247   4.506   4.398  0.0007  0.2462 -0.2633
  177SAPS  H16X20269   0.247   4.416   4.334  0.8663  1.0069 -1.3890
  177SAPS  H16Y20270   0.145   4.518   4.441 -0.1276  1.5641 -0.8749
  177SAPS  C31720271   0.350   4.490   4.512 -0.6846 -0.0220  0.2839
  177SAPS  H17X20272   0.436   4.436   4.467 -0.6446 -0.6847  1.1236
  177SAPS  H17Y20273   0.318   4.423   4.595  0.6689  0.2190  1.0275
  177SAPS  C31820274   0.386   4.626   4.581  0.4037  0.7763  0.4377
  177SAPS  H18X20275   0.296   4.690   4.586  0.8992  1.4114  2.1406
  177SAPS  H18Y20276   0.464   4.664   4.512 -1.0123  1.1383 -1.0043
  177SAPS  H18Z20277   0.435   4.609   4.680  0.4446  0.7744  0.4177
  178SAPS     N20278   6.572   6.535   2.805  0.3599  0.6906 -0.1521
  178SAPS   HN120279   6.561   6.602   2.884 -0.1978 -2.0450  2.2892
  178SAPS   HN220280   6.529   6.571   2.718  0.6894  0.2350 -0.5039
  178SAPS   HN320281   6.537   6.441   2.833  1.4512  0.9049  2.2094
  178SAPS   C1220282   6.725   6.526   2.788  0.7331 -0.3779  0.0834
  178SAPS  H12A20283   6.733   6.442   2.721  1.6984 -1.0285  0.9867
  178SAPS   C1320284   6.785   6.642   2.708 -0.1058  0.1424  0.4926
  178SAPS  O13A20285   6.708   6.734   2.666 -0.3314  0.3301  0.3085
  178SAPS  O13B20286   6.911   6.632   2.683 -0.3069  0.2550  0.2262
  178SAPS   C1120287   6.793   6.513   2.924 -0.1629 -0.6018 -0.4072
  178SAPS  H11A20288   6.900   6.505   2.895  0.3716  1.2140  0.8794
  178SAPS  H11B20289   6.755   6.423   2.977 -2.4960 -0.7874 -2.2355
  178SAPS     P20290   6.829   6.633   3.157 -0.2223  0.1886  0.8059
  178SAPS   O1320291   6.975   6.610   3.151 -0.4715 -0.4205  0.1219
  178SAPS   O1420292   6.781   6.754   3.221 -0.3750 -0.5506  0.3437
  178SAPS   O1220293   6.771   6.636   3.008 -0.4599 -0.0692  0.0441
  178SAPS   O1120294   6.757   6.520   3.218 -0.0068 -0.0467  0.5054
  178SAPS    C120295   6.610   6.516   3.233 -0.0585  0.1673  0.4418
  178SAPS    HA20296   6.562   6.566   3.146  1.4649 -0.2403 -0.6835
  178SAPS    HB20297   6.582   6.409   3.238  2.7702 -0.6253  1.0378
  178SAPS    C220298   6.559   6.576   3.368 -0.2782 -0.4301 -0.0716
  178SAPS    HS20299   6.577   6.685   3.359 -1.7387 -0.1668 -0.0815
  178SAPS   O2120300   6.639   6.528   3.475  0.1359  0.4631 -0.2412
  178SAPS   C2120301   6.673   6.611   3.568 -0.0187  0.3558 -0.0519
  178SAPS   O2220302   6.657   6.734   3.564  0.0359  0.2493 -0.2981
  178SAPS   C2220303   6.754   6.544   3.681 -0.1033  0.0567 -0.3300
  178SAPS   H2R20304   6.785   6.441   3.652  2.2137  0.3822  0.7844
  178SAPS   H2S20305   6.847   6.604   3.674 -0.0433  0.0166  0.1034
  178SAPS    C320306   6.406   6.554   3.401  0.2023  0.7175  0.2177
  178SAPS    HX20307   6.405   6.446   3.425 -1.7326  0.9932  1.5707
  178SAPS    HY20308   6.341   6.558   3.311  1.5941  0.4919 -0.8355
  178SAPS   O3120309   6.358   6.636   3.513  0.0156 -0.5647  0.4401
  178SAPS   C3120310   6.246   6.708   3.494 -0.8361  0.2254 -0.2439
  178SAPS   O3220311   6.176   6.710   3.392  0.4077 -0.3217  0.2006
  178SAPS   C3220312   6.223   6.803   3.618 -0.3631  0.3875 -0.0011
  178SAPS   H2X20313   6.298   6.884   3.612  0.3137 -0.1881  0.5717
  178SAPS   H2Y20314   6.257   6.740   3.703  3.3920 -0.4105 -1.9106
  178SAPS   C2320315   6.673   6.551   3.815  0.3352 -0.3087 -0.6095
  178SAPS   H3R20316   6.722   6.477   3.882  1.4723  1.1172  0.2115
  178SAPS   H3S20317   6.569   6.513   3.804  0.4869 -0.4576 -1.6130
  178SAPS   C2420318   6.672   6.681   3.903 -0.7745  0.3672  0.1783
  178SAPS   H4R20319   6.768   6.717   3.859  1.0327 -1.3384  2.4361
  178SAPS   H4S20320   6.695   6.645   4.005 -1.1086  0.7173  0.3771
  178SAPS   C2520321   6.558   6.768   3.876 -0.3997  0.8287 -0.5120
  178SAPS   H5R20322   6.570   6.842   3.795 -0.9557  1.5496  0.0573
  178SAPS   C2620323   6.456   6.768   3.956  0.5761 -1.0080 -0.4048
  178SAPS   H6R20324   6.374   6.841   3.955 -0.7523 -2.4423  0.3099
  178SAPS   C2720325   6.442   6.686   4.086 -0.1741  0.7465 -0.1201
  178SAPS   H7R20326   6.457   6.747   4.178 -0.6429 -2.0525  1.9373
  178SAPS   H7S20327   6.509   6.598   4.092 -2.4914 -1.2339 -1.4804
  178SAPS   C2820328   6.306   6.619   4.089 -0.1803 -0.4984 -0.8681
  178SAPS   H8R20329   6.253   6.635   3.994  2.0784 -1.9263 -2.5053
  178SAPS   C2920330   6.244   6.588   4.203  0.0490  0.2054 -0.6535
  178SAPS   H9R20331   6.143   6.546   4.204  0.2020 -0.1750  0.5531
  178SAPS  C21020332   6.309   6.580   4.340 -0.0193  0.0451 -0.0185
  178SAPS  H10R20333   6.388   6.655   4.361 -1.3105  1.6694 -0.7147
  178SAPS  H10S20334   6.362   6.483   4.329  0.5000  0.3984 -0.7261
  178SAPS  C21120335   6.207   6.593   4.452 -0.1132 -0.8864  0.0668
  178SAPS  H11R20336   6.191   6.694   4.494  1.3419 -0.7378  0.3288
  178SAPS  C21220337   6.144   6.491   4.506 -0.4789  0.0787 -0.3174
  178SAPS  H12R20338   6.076   6.508   4.591 -0.9467 -1.0708 -0.4567
  178SAPS  C21320339   6.145   6.347   4.473 -0.0928  0.4919  0.2511
  178SAPS  H13R20340   6.137   6.291   4.569  0.0211  3.1212  1.9196
  178SAPS  H13S20341   6.241   6.323   4.422 -0.7627 -0.0786 -0.7604
  178SAPS  C21420342   6.032   6.313   4.376 -0.2341 -0.0423  0.2634
  178SAPS  H14R20343   5.971   6.401   4.352 -0.5329  0.2821  2.0728
  178SAPS  C21520344   6.012   6.195   4.307  0.0238  0.4518 -0.7905
  178SAPS  H15R20345   5.922   6.182   4.246 -0.9589 -0.2698  0.7397
  178SAPS  C21620346   6.096   6.069   4.324  0.5029 -0.2255  0.6379
  178SAPS  H16R20347   6.188   6.091   4.381  1.6633 -2.4155 -0.2780
  178SAPS  H16S20348   6.118   6.016   4.229  0.0817  1.0210 -0.1776
  178SAPS  C21720349   6.019   5.977   4.408  0.7755 -0.3685 -0.4807
  178SAPS  H17R20350   5.926   5.953   4.352  1.4474 -2.0439 -0.9108
  178SAPS  H17S20351   5.991   6.016   4.508  1.8144 -1.0899  0.1094
  178SAPS  C21820352   6.095   5.851   4.439  0.1191  0.2950  0.1983
  178SAPS  H18R20353   6.137   5.808   4.346  1.3585 -1.7964  1.6360
  178SAPS  H18S20354   6.041   5.766   4.487 -0.7757 -0.6644 -2.3791
  178SAPS  C21920355   6.212   5.878   4.530  0.0298  0.7208 -0.3590
  178SAPS  H19R20356   6.188   5.930   4.625 -0.2477  1.9194 -1.0670
  178SAPS  H19S20357   6.281   5.952   4.484  2.7351 -1.6716 -0.4628
  178SAPS  C22020358   6.289   5.751   4.567 -0.4316  0.0809 -0.2866
  178SAPS  H20R20359   6.393   5.775   4.596 -0.1660  0.1822 -1.3254
  178SAPS  H20S20360   6.292   5.683   4.480 -2.1163 -1.4414  0.7586
  178SAPS  H20T20361   6.247   5.694   4.653  2.3623 -1.5975  0.0767
  178SAPS   C3320362   6.082   6.867   3.617 -0.9369  0.3173 -0.2007
  178SAPS   H3X20363   5.996   6.798   3.600 -2.7026  2.3811 -0.1413
  178SAPS   H3Y20364   6.081   6.951   3.545  0.4748  0.1448 -0.4498
  178SAPS   C3420365   6.053   6.921   3.759  0.3268  0.6410  0.4389
  178SAPS   H4X20366   5.966   6.989   3.746 -0.8708 -0.6880  1.2542
  178SAPS   H4Y20367   6.143   6.974   3.797  0.8050 -0.2482  0.5578
  178SAPS   C3520368   6.025   6.814   3.871  0.0527  0.1488  0.2807
  178SAPS   H5X20369   6.093   6.731   3.842 -0.3418 -0.6308  1.5154
  178SAPS   H5Y20370   5.924   6.772   3.854 -0.7978  1.7566  1.1181
  178SAPS   C3620371   6.032   6.858   4.018  0.2370 -0.6915 -0.3060
  178SAPS   H6X20372   6.140   6.880   4.034 -0.3020  1.9332  0.2592
  178SAPS   H6Y20373   6.008   6.784   4.096 -2.0203  0.5145  0.2259
  178SAPS   C3720374   5.967   6.987   4.054  0.2824 -1.1426  0.6620
  178SAPS   H7X20375   5.857   6.973   4.063  0.2799 -0.6597  1.5021
  178SAPS   H7Y20376   5.990   7.057   3.971  1.7707 -1.3068  0.9018
  178SAPS   C3820377   6.013   7.053   4.187  0.0393  0.2819  0.3617
  178SAPS   H8X20378   5.967   7.152   4.206 -1.9783 -0.5805  0.1878
  178SAPS   H8Y20379   6.122   7.076   4.184 -0.0652  0.7009 -0.4414
  178SAPS   C3920380   5.967   6.966   4.296 -0.6853  0.4096 -0.1657
  178SAPS   H9X20381   6.014   6.867   4.281 -0.2162  0.7150 -0.7471
  178SAPS   H9Y20382   5.858   6.946   4.284 -0.6112 -2.9437  3.1181
  178SAPS  C31020383   5.990   7.024   4.431  0.6257  0.2328  0.2354
  178SAPS  H10X20384   5.972   7.132   4.444 -0.9251  0.0484 -0.2272
  178SAPS  H10Y20385   6.100   7.017   4.445  0.4731  0.1985  1.5314
  178SAPS  C31120386   5.929   6.954   4.548  0.4843  0.1218  0.0785
  178SAPS  H11X20387   5.970   6.852   4.565 -1.8029 -0.6125  1.7296
  178SAPS  H11Y20388   5.821   6.933   4.535  0.8725 -3.0893  0.9887
  178SAPS  C31220389   5.954   7.025   4.683  0.3046 -0.5283  0.7827
  178SAPS  H12X20390   5.918   7.130   4.676  0.7428 -0.4667 -0.9326
  178SAPS  H12Y20391   6.061   7.037   4.707  0.1680  1.2789  0.6572
  178SAPS  C31320392   5.887   6.946   4.799 -0.1305  0.9080  0.6370
  178SAPS  H13X20393   5.936   6.846   4.804 -0.1680  0.5497 -3.1827
  178SAPS  H13Y20394   5.780   6.925   4.778 -0.2349 -0.1045  2.0929
  178SAPS  C31420395   5.898   7.016   4.931 -0.8458  0.0272 -0.5375
  178SAPS  H14X20396   5.874   7.124   4.923 -1.4709 -0.0109  0.6336
  178SAPS  H14Y20397   5.997   7.016   4.981 -1.8725  1.5314  1.6980
  178SAPS  C31520398   5.802   6.961   5.038  1.0707  0.2886  0.3187
  178SAPS  H15X20399   5.823   6.856   5.070 -2.4880 -0.1142  1.7713
  178SAPS  H15Y20400   5.693   6.954   5.019  1.0806 -1.7180  0.7424
  178SAPS  C31620401   5.806   7.038   5.172  0.9015 -0.1019  0.1954
  178SAPS  H16X20402   5.785   7.146   5.153 -0.5543 -0.3273  0.4216
  178SAPS  H16Y20403   5.904   7.018   5.219 -0.3267 -5.1348  1.1459
  178SAPS  C31720404   5.700   6.993   5.270 -0.3146  0.5259 -0.0604
  178SAPS  H17X20405   5.730   6.896   5.314 -1.2725  0.8550  1.4140
  178SAPS  H17Y20406   5.605   6.973   5.216  0.3827  1.3133 -1.6347
  178SAPS  C31820407   5.669   7.102   5.380  1.2070  0.2069  0.3415
  178SAPS  H18X20408   5.754   7.134   5.444  2.2009  2.1284 -1.7768
  178SAPS  H18Y20409   5.582   7.076   5.444  0.7372  1.5236  0.2656
  178SAPS  H18Z20410   5.631   7.193   5.329  0.4144 -0.3981 -0.1656
  179SAPS     N20411   0.085   2.220   3.090  0.0405  0.1283 -0.3048
  179SAPS   HN120412   0.081   2.117   3.099 -2.2471 -0.0442 -2.2324
  179SAPS   HN220413   0.158   2.246   3.020  0.3422  0.6318  0.1900
  179SAPS   HN320414   0.106   2.264   3.182 -0.0686 -2.1859  0.9008
  179SAPS   C1220415  -0.050   2.262   3.036  0.4777 -0.6018  0.7971
  179SAPS  H12A20416  -0.050   2.366   3.007 -0.7298 -0.7077  0.3828
  179SAPS   C1320417  -0.088   2.194   2.899 -0.2620 -0.1434 -0.4804
  179SAPS  O13A20418  -0.024   2.103   2.845  1.0045  0.2528  0.0966
  179SAPS  O13B20419  -0.186   2.243   2.838 -0.6850 -0.5113  0.0517
  179SAPS   C1120420  -0.168   2.238   3.133  0.1919  0.3325 -0.1549
  179SAPS  H11A20421  -0.180   2.131   3.159  1.9486  0.5562  1.8583
  179SAPS  H11B20422  -0.257   2.268   3.073  0.8202  1.3063 -0.6324
  179SAPS     P20423  -0.211   2.460   3.276  0.3604  0.4316  0.0423
  179SAPS   O1320424  -0.106   2.553   3.322 -0.2014  0.1162 -0.5488
  179SAPS   O1420425  -0.295   2.495   3.161  0.1837  0.5696  0.2723
  179SAPS   O1220426  -0.155   2.312   3.260  0.0550 -0.5043 -0.6807
  179SAPS   O1120427  -0.311   2.441   3.396 -0.0591 -0.2772  0.1599
  179SAPS    C120428  -0.256   2.384   3.514 -0.3341  0.2166  0.1599
  179SAPS    HA20429  -0.193   2.295   3.495 -2.0106 -1.2178  1.0124
  179SAPS    HB20430  -0.205   2.458   3.580  2.0748 -1.2124  0.0204
  179SAPS    C220431  -0.359   2.324   3.601  0.2654  0.5304 -0.4262
  179SAPS    HS20432  -0.429   2.270   3.534 -0.4307  1.9094 -0.8517
  179SAPS   O2120433  -0.431   2.426   3.674  0.2892 -0.6288  0.0439
  179SAPS   C2120434  -0.553   2.398   3.710  0.6179  0.3408  0.3275
  179SAPS   O2220435  -0.629   2.307   3.673 -0.4393 -0.1531 -0.2028
  179SAPS   C2220436  -0.593   2.495   3.822 -0.1476  0.3359 -0.8084
  179SAPS   H2R20437  -0.604   2.596   3.777 -0.8008  1.4893  1.7584
  179SAPS   H2S20438  -0.695   2.472   3.860  0.4300  0.3741  0.8166
  179SAPS    C320439  -0.303   2.212   3.697  0.5432 -0.1531  0.0170
  179SAPS    HX20440  -0.263   2.136   3.626 -2.0864 -0.6950 -0.9888
  179SAPS    HY20441  -0.376   2.153   3.756  1.3877 -2.3098 -0.9989
  179SAPS   O3120442  -0.197   2.268   3.779 -0.0415  0.6749 -0.0089
  179SAPS   C3120443  -0.209   2.270   3.916  0.2872  0.3543 -0.1750
  179SAPS   O3220444  -0.295   2.208   3.976 -0.4868  0.7737 -0.0935
  179SAPS   C3220445  -0.115   2.374   3.964  0.1752 -0.1566  0.2996
  179SAPS   H2X20446  -0.155   2.478   3.969  1.5677  0.4750 -0.9781
  179SAPS   H2Y20447  -0.035   2.381   3.888 -1.1411 -0.2398 -1.1371
  179SAPS   C2320448  -0.497   2.511   3.948  0.6564 -0.4061  0.4489
  179SAPS   H3R20449  -0.394   2.520   3.907  0.3230 -0.5065 -0.4279
  179SAPS   H3S20450  -0.516   2.419   4.007 -0.3327 -1.2884 -1.1637
  179SAPS   C2420451  -0.526   2.632   4.038 -0.3020 -0.0683 -0.1596
  179SAPS   H4R20452  -0.625   2.615   4.087 -0.4698  2.3492  0.4844
  179SAPS   H4S20453  -0.525   2.730   3.986  1.2254 -0.7700 -1.5056
  179SAPS   C2520454  -0.412   2.635   4.136 -0.3420 -0.0655 -0.8091
  179SAPS   H5R20455  -0.311   2.650   4.095 -0.0801 -0.9554 -0.5155
  179SAPS   C2620456  -0.425   2.604   4.267 -0.0867  0.2369 -0.0476
  179SAPS   H6R20457  -0.332   2.615   4.323 -0.1599  1.3952 -0.1219
  179SAPS   C2720458  -0.541   2.540   4.343  0.2651 -0.4016  0.3290
  179SAPS   H7R20459  -0.554   2.436   4.306  2.5471  0.3486 -2.9217
  179SAPS   H7S20460  -0.638   2.591   4.322 -0.5445 -2.0663 -0.1442
  179SAPS   C2820461  -0.520   2.535   4.489 -0.1184 -0.3331 -0.0346
  179SAPS   H8R20462  -0.600   2.586   4.546  0.8988  1.0456  0.1887
  179SAPS   C2920463  -0.422   2.485   4.564 -0.1273 -0.3554  0.3621
  179SAPS   H9R20464  -0.425   2.494   4.674 -0.8170 -2.3917  0.5562
  179SAPS  C21020465  -0.308   2.395   4.517  0.2630 -0.7917  0.5706
  179SAPS  H10R20466  -0.303   2.389   4.407  1.8850  1.4871  0.4569
  179SAPS  H10S20467  -0.303   2.290   4.555  2.3951 -1.3039 -0.9532
  179SAPS  C21120468  -0.177   2.469   4.556 -0.9855 -0.1191  0.5837
  179SAPS  H11R20469  -0.138   2.525   4.471  1.9326 -2.1517  0.4066
  179SAPS  C21220470  -0.104   2.478   4.672 -0.1181 -0.3214 -0.2314
  179SAPS  H12R20471  -0.009   2.533   4.672 -0.4224  0.2134  0.1382
  179SAPS  C21320472  -0.133   2.417   4.800  1.1284 -0.2633 -0.6323
  179SAPS  H13R20473  -0.041   2.430   4.860 -0.0770  1.9623  0.8935
  179SAPS  H13S20474  -0.176   2.314   4.796 -1.2802  0.6581 -0.5735
  179SAPS  C21420475  -0.224   2.499   4.890 -0.0423 -0.9829 -0.6694
  179SAPS  H14R20476  -0.181   2.600   4.901 -1.3706 -0.2481 -1.9552
  179SAPS  C21520477  -0.339   2.464   4.954 -0.5506  0.6639 -0.4377
  179SAPS  H15R20478  -0.391   2.536   5.019 -0.1626  1.7002 -1.2546
  179SAPS  C21620479  -0.407   2.332   4.935  0.4783 -0.2640  0.2102
  179SAPS  H16R20480  -0.366   2.264   4.856 -1.1358  0.3207 -1.2060
  179SAPS  H16S20481  -0.515   2.345   4.917  0.6670  0.7396 -0.2397
  179SAPS  C21720482  -0.392   2.244   5.063 -0.1816  0.5019 -0.4014
  179SAPS  H17R20483  -0.453   2.153   5.054  2.2181 -1.4068  1.2237
  179SAPS  H17S20484  -0.448   2.307   5.136 -2.0445 -1.6018  0.0636
  179SAPS  C21820485  -0.254   2.201   5.102 -0.0266 -0.0933 -0.4234
  179SAPS  H18R20486  -0.197   2.293   5.127  1.4596 -1.3068  0.8384
  179SAPS  H18S20487  -0.224   2.153   5.006 -0.6145 -0.1205 -0.5983
  179SAPS  C21920488  -0.247   2.096   5.205 -0.5560 -0.3134  0.2460
  179SAPS  H19R20489  -0.327   2.019   5.204  0.6970 -1.6709 -0.3988
  179SAPS  H19S20490  -0.236   2.149   5.302  1.1129  1.7685 -0.9832
  179SAPS  C22020491  -0.119   2.009   5.187 -0.2108  0.1795 -0.2849
  179SAPS  H20R20492  -0.110   1.928   5.262 -2.3053  0.8315  0.7585
  179SAPS  H20S20493  -0.034   2.080   5.177 -1.3985  1.4281 -2.3070
  179SAPS  H20T20494  -0.140   1.964   5.088 -0.3592  0.0959 -0.2154
  179SAPS   C3320495  -0.063   2.344   4.105  0.4639 -0.4002 -0.3758
  179SAPS   H3X20496  -0.034   2.237   4.110  2.3557  0.0864 -0.3611
  179SAPS   H3Y20497  -0.139   2.373   4.180 -0.8992  1.5218 -2.3640
  179SAPS   C3420498   0.058   2.431   4.130 -0.9762  0.2230  0.6774
  179SAPS   H4X20499   0.037   2.539   4.113 -2.8551  0.0795  1.8395
  179SAPS   H4Y20500   0.141   2.403   4.061  1.7921  1.9256  3.0882
  179SAPS   C3520501   0.103   2.414   4.273 -0.7192  0.4854  0.2393
  179SAPS   H5X20502   0.090   2.308   4.304 -1.6815 -0.1408 -2.0712
  179SAPS   H5Y20503   0.046   2.479   4.342  0.0588  1.1108  0.3029
  179SAPS   C3620504   0.239   2.469   4.312 -0.1634 -0.2312 -0.3137
  179SAPS   H6X20505   0.245   2.575   4.280  0.2782 -0.3230 -0.5379
  179SAPS   H6Y20506   0.329   2.414   4.277  1.2324  0.7777  1.4875
  179SAPS   C3720507   0.257   2.469   4.467 -0.1184  0.3499  0.4001
  179SAPS   H7X20508   0.181   2.533   4.517 -1.6268  0.4168 -1.8200
  179SAPS   H7Y20509   0.353   2.523   4.480 -0.4126  0.9598  0.0779
  179SAPS   C3820510   0.278   2.334   4.535 -0.3606  0.2305  0.5953
  179SAPS   H8X20511   0.347   2.282   4.466 -1.7195 -0.6866 -0.1176
  179SAPS   H8Y20512   0.183   2.278   4.547 -0.2888  0.0442  0.3058
  179SAPS   C3920513   0.357   2.347   4.673  0.1138  0.1940 -0.5275
  179SAPS   H9X20514   0.449   2.405   4.655 -1.0366  1.4766 -2.7766
  179SAPS   H9Y20515   0.383   2.243   4.701  0.3185  0.0402 -1.2666
  179SAPS  C31020516   0.267   2.411   4.783  0.0749  0.6072 -0.2890
  179SAPS  H10X20517   0.166   2.365   4.786  1.1487 -1.9957 -1.1097
  179SAPS  H10Y20518   0.246   2.516   4.753  2.3661  1.1218 -0.2835
  179SAPS  C31120519   0.344   2.412   4.922 -0.4051 -0.5088 -0.0072
  179SAPS  H11X20520   0.426   2.485   4.905 -1.4059  0.5355 -0.5097
  179SAPS  H11Y20521   0.389   2.312   4.937  1.0338 -0.2960 -2.3497
  179SAPS  C31220522   0.258   2.452   5.042  0.8753 -0.5868 -0.1158
  179SAPS  H12X20523   0.178   2.521   5.008  1.8657  0.1157 -1.0922
  179SAPS  H12Y20524   0.324   2.502   5.115 -1.3933  0.6287  1.1959
  179SAPS  C31320525   0.204   2.335   5.124  0.4605 -0.3695 -0.0119
  179SAPS  H13X20526   0.292   2.271   5.148  0.8412 -0.2685 -1.1010
  179SAPS  H13Y20527   0.126   2.272   5.078  2.1011 -1.5499 -1.3137
  179SAPS  C31420528   0.156   2.378   5.264 -1.1443  0.1055 -0.0663
  179SAPS  H14X20529   0.053   2.419   5.250 -1.8637 -1.7731 -0.5137
  179SAPS  H14Y20530   0.225   2.462   5.289  0.8062 -0.0425 -4.2038
  179SAPS  C31520531   0.155   2.272   5.370 -0.0524  0.5920  0.2849
  179SAPS  H15X20532   0.259   2.234   5.384 -1.1296 -1.5408  4.6296
  179SAPS  H15Y20533   0.088   2.187   5.343  2.1670 -1.8415  1.8319
  179SAPS  C31620534   0.116   2.312   5.508  0.3940  0.5914 -0.5946
  179SAPS  H16X20535   0.171   2.406   5.533  2.0287 -0.7511  1.2248
  179SAPS  H16Y20536   0.149   2.237   5.583  0.4181  1.7981  0.6517
  179SAPS  C31720537  -0.033   2.341   5.543  0.0546 -0.7320  0.0549
  179SAPS  H17X20538  -0.094   2.250   5.524  1.9096 -1.6455 -1.9454
  179SAPS  H17Y20539  -0.088   2.422   5.490 -1.9027  0.4973  3.6349
  179SAPS  C31820540  -0.057   2.395   5.686 -0.6412  0.2384 -0.6169
  179SAPS  H18X20541  -0.014   2.325   5.760 -2.2797  0.6549  0.7927
  179SAPS  H18Y20542  -0.165   2.385   5.712 -0.7252  0.9406 -0.6847
  179SAPS  H18Z20543  -0.016   2.497   5.703 -0.4423 -0.2480  2.1628
  180SAPS     N20544   0.347   1.831   3.156 -0.1741 -0.4517  0.4666
  180SAPS   HN120545   0.401   1.903   3.103  1.2463 -1.9816 -0.2519
  180SAPS   HN220546   0.276   1.885   3.209  0.3389  1.2685 -0.5000
  180SAPS   HN320547   0.410   1.777   3.219  0.1934  1.1576  1.5600
  180SAPS   C1220548   0.281   1.738   3.057  0.3424 -0.7826 -0.1043
  180SAPS  H12A20549   0.216   1.806   3.003 -1.0549 -2.6724 -0.9273
  180SAPS   C1320550   0.357   1.668   2.946 -0.3127 -0.0778  0.0422
  180SAPS  O13A20551   0.479   1.703   2.928  0.1405 -0.1755  0.0783
  180SAPS  O13B20552   0.307   1.578   2.877 -0.1072 -0.3713  0.5613
  180SAPS   C1120553   0.189   1.658   3.141  0.0385 -0.1185 -0.9669
  180SAPS  H11A20554   0.234   1.578   3.204 -0.9472 -1.1956 -1.5767
  180SAPS  H11B20555   0.114   1.603   3.080  1.7207 -0.6660 -2.6351
  180SAPS     P20556   0.005   1.846   3.201  0.2360 -0.0783 -0.2178
  180SAPS   O1320557   0.071   1.962   3.135 -0.5405 -0.2641  0.4274
  180SAPS   O1420558  -0.111   1.787   3.131  0.0037  0.2358 -0.4135
  180SAPS   O1220559   0.119   1.742   3.234  0.2573 -0.2017 -0.0122
  180SAPS   O1120560  -0.041   1.892   3.344 -0.6104 -0.6230  0.1809
  180SAPS    C120561   0.025   2.007   3.404  0.3331 -0.4340  0.8643
  180SAPS    HA20562   0.113   2.037   3.344 -1.0905 -2.6907 -2.7426
  180SAPS    HB20563  -0.046   2.093   3.396 -1.2117 -1.7806 -0.7157
  180SAPS    C220564   0.077   1.982   3.543 -0.8563  0.1837 -0.7911
  180SAPS    HS20565   0.138   1.890   3.528  0.7508  1.4362 -2.3992
  180SAPS   O2120566  -0.033   1.977   3.635  0.6496  0.4161 -0.2155
  180SAPS   C2120567  -0.057   1.857   3.694  0.7059  0.5312 -0.0475
  180SAPS   O2220568   0.021   1.763   3.679 -0.2204 -0.2037 -0.2080
  180SAPS   C2220569  -0.181   1.856   3.777 -0.2787  0.8326 -0.8005
  180SAPS   H2R20570  -0.218   1.960   3.790  0.0279  0.8980 -0.4296
  180SAPS   H2S20571  -0.256   1.792   3.726  0.1259 -1.6241  1.5115
  180SAPS    C320572   0.159   2.102   3.592 -0.6712  0.6779  0.6143
  180SAPS    HX20573   0.091   2.179   3.635 -1.4369 -0.4342  1.4527
  180SAPS    HY20574   0.204   2.153   3.504 -0.6799 -2.6405 -1.4528
  180SAPS   O3120575   0.269   2.061   3.676  0.5742  0.5298  0.1962
  180SAPS   C3120576   0.255   2.097   3.802  0.3704  0.3950 -0.4753
  180SAPS   O3220577   0.166   2.158   3.853  0.0310  0.3907  0.0688
  180SAPS   C3220578   0.388   2.046   3.866  0.1524  0.1463 -0.0032
  180SAPS   H2X20579   0.469   2.116   3.835  0.6759  0.2363  1.4762
  180SAPS   H2Y20580   0.406   1.944   3.825  0.1869  0.6049 -1.1944
  180SAPS   C2320581  -0.150   1.789   3.915 -0.2498 -0.3276  0.2646
  180SAPS   H3R20582  -0.107   1.690   3.890  0.3981 -0.6144  2.3280
  180SAPS   H3S20583  -0.244   1.782   3.973 -2.0461 -0.3340 -2.4572
  180SAPS   C2420584  -0.056   1.871   4.003  0.3207  0.0093 -0.5864
  180SAPS   H4R20585  -0.092   1.976   4.008  1.0466  0.2664 -0.6743
  180SAPS   H4S20586   0.041   1.882   3.951 -0.2652  0.5208 -1.6103
  180SAPS   C2520587  -0.049   1.809   4.144  0.1931 -0.2940 -0.7806
  180SAPS   H5R20588  -0.104   1.714   4.150 -2.2323  1.0525 -0.2320
  180SAPS   C2620589  -0.014   1.870   4.255 -0.8026  0.3849 -0.8336
  180SAPS   H6R20590  -0.016   1.822   4.354  1.1173  2.4309  0.3186
  180SAPS   C2720591   0.052   2.008   4.276 -0.0992  0.6870 -0.5000
  180SAPS   H7R20592   0.061   2.059   4.178 -2.1261 -0.7125 -1.4747
  180SAPS   H7S20593   0.152   1.995   4.325 -0.2218 -0.9495 -0.6043
  180SAPS   C2820594  -0.039   2.086   4.369 -0.4102 -0.5014 -0.4973
  180SAPS   H8R20595  -0.096   2.171   4.328 -0.7380 -0.5884 -0.2257
  180SAPS   C2920596  -0.034   2.076   4.506 -0.0826  0.1440 -0.1968
  180SAPS   H9R20597  -0.096   2.151   4.557 -2.2736 -0.8579 -1.2258
  180SAPS  C21020598   0.045   1.978   4.601  0.2647 -0.2563  0.4611
  180SAPS  H10R20599   0.132   2.034   4.641  0.4586  0.1858 -0.5368
  180SAPS  H10S20600   0.091   1.898   4.538  0.7234 -0.2848  0.8257
  180SAPS  C21120601  -0.050   1.920   4.705 -0.6792 -0.1367  0.2900
  180SAPS  H11R20602  -0.159   1.916   4.692 -0.7846  0.1599  1.0330
  180SAPS  C21220603  -0.008   1.854   4.818  1.2928  0.0328  0.4947
  180SAPS  H12R20604  -0.080   1.799   4.880  1.0447  1.8274  1.8854
  180SAPS  C21320605   0.133   1.841   4.864 -0.0067  0.1301 -0.1623
  180SAPS  H13R20606   0.203   1.827   4.779  3.1553 -1.9354  2.5422
  180SAPS  H13S20607   0.138   1.747   4.922 -0.9344  0.5671  0.6701
  180SAPS  C21420608   0.182   1.966   4.935 -0.0352 -0.0159  0.5453
  180SAPS  H14R20609   0.138   2.060   4.900  1.0827  1.1072  2.0670
  180SAPS  C21520610   0.272   1.964   5.040  0.7450 -0.1372 -0.0716
  180SAPS  H15R20611   0.306   2.060   5.081 -0.8749 -0.6445  2.7070
  180SAPS  C21620612   0.330   1.851   5.122 -0.6773  0.8371  0.3238
  180SAPS  H16R20613   0.438   1.874   5.132 -0.2149 -0.4394 -1.4019
  180SAPS  H16S20614   0.326   1.747   5.085  0.7584 -0.1355  2.6329
  180SAPS  C21720615   0.269   1.850   5.267 -0.6626 -0.5169  0.9187
  180SAPS  H17R20616   0.159   1.857   5.253 -0.3750  0.8784 -0.9219
  180SAPS  H17S20617   0.285   1.945   5.322 -2.2363 -0.4434  1.2930
  180SAPS  C21820618   0.316   1.740   5.366  0.3112 -0.1789 -0.2866
  180SAPS  H18R20619   0.294   1.636   5.333 -0.0252 -0.4078  0.6487
  180SAPS  H18S20620   0.260   1.769   5.457  0.7397  2.1219 -0.6900
  180SAPS  C21920621   0.467   1.751   5.410 -0.3394 -0.2522 -0.3089
  180SAPS  H19R20622   0.538   1.734   5.326  2.0256 -3.8181  2.1530
  180SAPS  H19S20623   0.488   1.670   5.483  1.9690  1.3379  0.9343
  180SAPS  C22020624   0.508   1.882   5.478  0.0615  0.2469 -1.0421
  180SAPS  H20R20625   0.493   1.974   5.418 -0.5754  0.3630 -0.7132
  180SAPS  H20S20626   0.440   1.894   5.565 -0.4865 -0.4924 -1.3512
  180SAPS  H20T20627   0.614   1.885   5.512 -0.0628 -0.6600 -0.5186
  180SAPS   C3320628   0.371   2.066   4.016  0.2875  0.3510  0.1211
  180SAPS   H3X20629   0.352   1.969   4.066 -0.5817  0.6754  0.4321
  180SAPS   H3Y20630   0.296   2.141   4.047 -0.2571 -0.5938  1.1425
  180SAPS   C3420631   0.500   2.131   4.073 -0.1126  0.3566 -0.5136
  180SAPS   H4X20632   0.501   2.237   4.037 -0.5108 -0.5457 -3.4451
  180SAPS   H4Y20633   0.584   2.080   4.021 -1.0537 -2.1186  0.2593
  180SAPS   C3520634   0.508   2.142   4.229  0.4446  0.0691  0.0982
  180SAPS   H5X20635   0.417   2.196   4.264 -0.0076 -2.1915  2.7226
  180SAPS   H5Y20636   0.605   2.188   4.256 -0.0001 -0.0187  1.9605
  180SAPS   C3620637   0.503   2.005   4.305 -0.8112 -0.7791 -0.0060
  180SAPS   H6X20638   0.555   1.922   4.254 -0.4586  0.2997 -1.4767
  180SAPS   H6Y20639   0.396   1.974   4.296 -0.7934 -0.3292 -2.4212
  180SAPS   C3720640   0.537   2.018   4.454 -0.0251  0.2979  0.1862
  180SAPS   H7X20641   0.503   1.920   4.495  0.9536 -0.3583 -0.5404
  180SAPS   H7Y20642   0.471   2.095   4.500 -1.0318  0.1470 -0.9701
  180SAPS   C3820643   0.687   2.034   4.479 -0.0991  0.4071 -0.2340
  180SAPS   H8X20644   0.709   2.140   4.504 -0.6310  0.0557  1.8906
  180SAPS   H8Y20645   0.742   2.022   4.383  1.8552 -1.4378  1.0198
  180SAPS   C3920646   0.755   1.953   4.583 -0.4459  0.2149 -0.4604
  180SAPS   H9X20647   0.863   1.979   4.584  0.3641 -2.7720  0.2818
  180SAPS   H9Y20648   0.753   1.851   4.540 -2.0772  0.6314 -1.4734
  180SAPS  C31020649   0.703   1.939   4.725  0.0291 -0.1286 -0.9555
  180SAPS  H10X20650   0.778   1.886   4.788  1.0302  1.5512 -0.6784
  180SAPS  H10Y20651   0.600   1.900   4.740 -0.4719  2.0214  2.2764
  180SAPS  C31120652   0.670   2.076   4.796 -0.1784 -0.2712  0.3274
  180SAPS  H11X20653   0.591   2.129   4.738 -1.0523 -0.2395  1.5005
  180SAPS  H11Y20654   0.756   2.145   4.800  1.1666 -1.9236  2.7241
  180SAPS  C31220655   0.615   2.053   4.940 -0.1802  0.8908  0.0323
  180SAPS  H12X20656   0.668   1.966   4.986 -1.4627 -0.7670 -1.5145
  180SAPS  H12Y20657   0.508   2.027   4.928 -0.3503  0.6520  1.7866
  180SAPS  C31320658   0.639   2.179   5.037 -0.1611  0.4620 -0.0283
  180SAPS  H13X20659   0.598   2.273   4.995  1.5665  1.5724  0.6480
  180SAPS  H13Y20660   0.750   2.184   5.048  0.0859  1.5248 -2.3066
  180SAPS  C31420661   0.591   2.166   5.184 -0.2408  0.3348 -1.2387
  180SAPS  H14X20662   0.659   2.102   5.245  1.2231  0.5282 -2.5954
  180SAPS  H14Y20663   0.488   2.125   5.194 -1.5037  3.3540 -0.8380
  180SAPS  C31520664   0.570   2.305   5.251 -0.2237  0.7623 -0.0077
  180SAPS  H15X20665   0.482   2.359   5.208  1.6573  1.8797 -2.7310
  180SAPS  H15Y20666   0.648   2.378   5.222 -1.8107  2.5979  0.0754
  180SAPS  C31620667   0.560   2.303   5.401 -0.0183 -0.7961 -0.0222
  180SAPS  H16X20668   0.652   2.259   5.444  0.3345 -1.1902 -1.1374
  180SAPS  H16Y20669   0.476   2.239   5.438  1.5514 -2.4305  0.8612
  180SAPS  C31720670   0.546   2.448   5.449 -0.1928 -0.3201  0.0929
  180SAPS  H17X20671   0.453   2.481   5.398 -0.1577 -1.4420 -0.7231
  180SAPS  H17Y20672   0.635   2.505   5.414  0.8728 -1.5886  0.6606
  180SAPS  C31820673   0.524   2.447   5.600  0.1861  1.0499  0.0288
  180SAPS  H18X20674   0.526   2.551   5.639  0.1379  0.7230  0.9181
  180SAPS  H18Y20675   0.611   2.403   5.653 -0.6870 -0.1197  0.5367
  180SAPS  H18Z20676   0.435   2.391   5.636 -0.4857  0.8683 -1.7983
  181POPC     N20677   0.450   3.920   7.982 -0.1268  0.0952 -0.0954
  181POPC   C1220678   0.452   3.918   7.833  0.7018  0.4523 -0.0845
  181POPC  H12A20679   0.505   3.830   7.799 -1.2619 -1.4281  1.4774
  181POPC  H12B20680   0.509   4.004   7.801 -0.8518  0.9305 -1.7185
  181POPC   C1320681   0.372   3.805   8.041 -0.1785 -0.1218  0.4706
  181POPC  H13A20682   0.278   3.789   7.990 -0.3648  0.1500  0.7277
  181POPC  H13B20683   0.435   3.718   8.028  0.1738  0.2527 -0.3919
  181POPC  H13C20684   0.348   3.823   8.145  0.3644  0.2517  0.5361
  181POPC   C1420685   0.592   3.916   8.043 -0.3494 -0.1743  0.5105
  181POPC  H14A20686   0.652   3.994   7.999 -1.3756  0.8583  0.8813
  181POPC  H14B20687   0.583   3.933   8.150  0.2238  0.6418  0.4386
  181POPC  H14C20688   0.647   3.825   8.022  0.0219  0.3073 -0.6678
  181POPC   C1520689   0.375   4.046   8.032 -0.8216  0.2629 -0.0830
  181POPC  H15A20690   0.367   4.036   8.139  0.0430  0.2085 -0.0185
  181POPC  H15B20691   0.284   4.052   7.974 -0.5569  3.1293 -0.3458
  181POPC  H15C20692   0.432   4.133   8.001 -1.4394  0.8527  0.3998
  181POPC   C1120693   0.317   3.919   7.760 -0.1136  0.4595  0.5143
  181POPC  H11A20694   0.248   3.843   7.801  0.4236 -0.7216 -0.6958
  181POPC  H11B20695   0.324   3.900   7.651  0.8929  3.0718  0.0425
  181POPC     P20696   0.301   4.182   7.717  0.2920 -0.0496 -0.0401
  181POPC   O1320697   0.342   4.272   7.825 -0.3803 -0.1306 -0.3600
  181POPC   O1420698   0.203   4.235   7.622  0.3371  0.1966 -0.0704
  181POPC   O1220699   0.261   4.043   7.772 -0.2844 -0.7759 -0.3015
  181POPC   O1120700   0.430   4.145   7.636 -0.2858 -0.9075 -0.0805
  181POPC    C120701   0.535   4.219   7.573 -0.5108 -0.2036  0.0173
  181POPC    HA20702   0.613   4.142   7.554 -1.3860 -1.1820  0.2752
  181POPC    HB20703   0.582   4.302   7.629  1.1295 -1.3713  0.4772
  181POPC    C220704   0.506   4.280   7.439 -0.1210 -0.0477  0.9863
  181POPC    HS20705   0.439   4.364   7.469 -2.4496 -2.0592  1.8127
  181POPC   O2120706   0.439   4.192   7.350  0.4311 -0.1400 -0.2019
  181POPC   C2120707   0.491   4.078   7.319  0.0294  0.0803  0.2418
  181POPC   O2220708   0.611   4.044   7.332  0.4939 -0.4891 -0.8179
  181POPC   C2220709   0.377   3.986   7.280 -0.3359 -0.3862 -0.1816
  181POPC   H2R20710   0.283   4.042   7.256 -1.1531 -1.4328  0.4930
  181POPC   H2S20711   0.338   3.938   7.372  0.9509 -1.9635 -0.4179
  181POPC    C320712   0.630   4.339   7.369  0.6942 -0.0782 -0.5128
  181POPC    HX20713   0.704   4.258   7.357 -1.6185 -2.4683  0.1756
  181POPC    HY20714   0.677   4.413   7.438  0.4998 -2.2890  2.1589
  181POPC   O3120715   0.577   4.388   7.242 -0.3559  0.0541  0.2052
  181POPC   C3120716   0.619   4.504   7.200  0.9470 -0.0545  0.1442
  181POPC   O3220717   0.670   4.591   7.272  0.2458 -0.5658 -0.2513
  181POPC   C3220718   0.603   4.514   7.039  0.1485  0.3117 -0.9115
  181POPC   H2X20719   0.494   4.498   7.024 -0.3597  2.8595 -0.4112
  181POPC   H2Y20720   0.663   4.434   6.991 -0.7873 -2.6833  2.4475
  181POPC   C2320721   0.423   3.876   7.180  0.0789 -0.3619  0.3346
  181POPC   H3R20722   0.362   3.782   7.179  1.1693 -1.0994  1.3143
  181POPC   H3S20723   0.527   3.847   7.206  0.3561 -0.7022 -1.0541
  181POPC   C2420724   0.412   3.932   7.041  0.0289 -0.3781 -0.3123
  181POPC   H4R20725   0.438   4.039   7.028  2.3401 -0.4609  2.7418
  181POPC   H4S20726   0.306   3.934   7.009 -0.3086  1.1147  0.8245
  181POPC   C2520727   0.494   3.860   6.936 -0.3281  0.0978  0.2460
  181POPC   H5R20728   0.601   3.863   6.968 -0.4173  0.2893  0.5359
  181POPC   H5S20729   0.484   3.914   6.839  0.2012  0.5974  0.4630
  181POPC   C2620730   0.442   3.716   6.914 -0.3454 -0.1958  0.3788
  181POPC   H6R20731   0.333   3.717   6.893 -0.2711  2.0241 -0.1120
  181POPC   H6S20732   0.459   3.652   7.004  3.2328  0.7848  0.5928
  181POPC   C2720733   0.531   3.638   6.803  0.1788 -0.4244  0.5002
  181POPC   H7R20734   0.511   3.529   6.795  1.4141 -0.6370 -0.0053
  181POPC   H7S20735   0.634   3.643   6.844  0.5207 -1.1249 -0.2412
  181POPC   C2820736   0.525   3.692   6.661  0.8315 -0.4491  0.1217
  181POPC   H8R20737   0.584   3.630   6.591  1.0003  0.4888 -0.5975
  181POPC   H8S20738   0.589   3.783   6.672 -3.4429  2.9182 -0.2527
  181POPC   C2920739   0.395   3.727   6.602 -0.5107  0.4449 -0.7405
  181POPC   H9120740   0.354   3.819   6.647 -1.0380 -0.6111  1.0536
  181POPC  C21020741   0.322   3.666   6.511 -0.7354 -0.7454  0.1491
  181POPC  H10120742   0.230   3.711   6.472 -0.5005  1.3915  1.9129
  181POPC  C21120743   0.359   3.541   6.435  0.1177 -0.0115  0.9066
  181POPC  H11R20744   0.277   3.467   6.437 -0.8440  1.0459  1.5217
  181POPC  H11S20745   0.453   3.492   6.469  0.1202 -3.4135 -3.2203
  181POPC  C21220746   0.376   3.575   6.284  0.3873 -0.9535 -0.5604
  181POPC  H12R20747   0.462   3.645   6.279 -0.4811  0.4311  1.9490
  181POPC  H12S20748   0.288   3.633   6.248  1.0251  0.0433 -0.5644
  181POPC  C21320749   0.396   3.465   6.181 -0.2479 -0.0074 -0.4820
  181POPC  H13R20750   0.311   3.394   6.183 -0.5022  0.3046 -0.1771
  181POPC  H13S20751   0.486   3.408   6.215  0.6115  0.2323 -2.2175
  181POPC  C21420752   0.428   3.511   6.040 -0.0975  0.0633  0.0215
  181POPC  H14R20753   0.456   3.419   5.985  1.1301  0.9785 -0.9387
  181POPC  H14S20754   0.517   3.577   6.030  0.1380 -0.6299 -3.5709
  181POPC  C21520755   0.315   3.575   5.958 -0.5204 -0.5048 -0.6542
  181POPC  H15R20756   0.276   3.665   6.009  2.4868  0.5068  0.0902
  181POPC  H15S20757   0.236   3.498   5.951  1.1340 -2.2223 -1.4269
  181POPC  C21620758   0.380   3.628   5.828  0.3038 -0.1906 -0.4959
  181POPC  H16R20759   0.467   3.694   5.845 -1.1264  2.1587 -1.7777
  181POPC  H16S20760   0.309   3.700   5.784 -0.3839 -0.2716  0.4438
  181POPC  C21720761   0.420   3.519   5.724 -0.8037 -0.3424 -0.1317
  181POPC  H17R20762   0.482   3.447   5.783 -1.1364 -1.1789 -0.7849
  181POPC  H17S20763   0.474   3.553   5.634 -1.0646  0.5641  0.0442
  181POPC  C21820764   0.304   3.448   5.655  0.1141 -0.5749 -0.5377
  181POPC  H18R20765   0.248   3.509   5.581 -1.1215  0.5135  1.2193
  181POPC  H18S20766   0.226   3.420   5.729  1.3157 -1.5759  0.3906
  181POPC  H18T20767   0.338   3.359   5.597  2.3940  0.5483 -1.0211
  181POPC   C3320768   0.641   4.651   6.989 -0.2509  0.6647 -0.6871
  181POPC   H3X20769   0.751   4.665   6.990 -0.3519  1.6240  1.0333
  181POPC   H3Y20770   0.598   4.719   7.066  1.4410 -0.8067  1.7128
  181POPC   C3420771   0.586   4.684   6.854 -0.0970  0.2773 -0.1553
  181POPC   H4X20772   0.630   4.783   6.831  3.0255 -0.7084  1.0903
  181POPC   H4Y20773   0.479   4.715   6.860  0.6358  3.6202 -1.9607
  181POPC   C3520774   0.602   4.581   6.741  0.3201  0.2444 -0.0742
  181POPC   H5X20775   0.531   4.496   6.754 -0.3023  0.8042  0.2712
  181POPC   H5Y20776   0.704   4.537   6.742  0.4341  0.4188 -1.6225
  181POPC   C3620777   0.575   4.649   6.607 -0.2489 -0.6127  0.6133
  181POPC   H6X20778   0.631   4.743   6.589  0.7028 -1.4749 -1.2778
  181POPC   H6Y20779   0.468   4.672   6.591 -0.4946  0.5874  3.3916
  181POPC   C3720780   0.628   4.559   6.491 -0.4706 -0.3168  0.5362
  181POPC   H7X20781   0.580   4.459   6.499 -0.7665 -0.1930  0.2860
  181POPC   H7Y20782   0.739   4.557   6.505 -0.5666 -1.7426  1.4058
  181POPC   C3820783   0.607   4.610   6.353  0.2581  0.0339 -0.1058
  181POPC   H8X20784   0.641   4.716   6.352  0.1299  0.0843  0.6470
  181POPC   H8Y20785   0.501   4.624   6.319  0.6233 -0.4681 -1.5546
  181POPC   C3920786   0.689   4.529   6.253  0.0447  0.3935  0.0961
  181POPC   H9X20787   0.673   4.419   6.254  2.3674 -0.1982 -4.1269
  181POPC   H9Y20788   0.798   4.549   6.251 -0.0218  0.8206  0.6383
  181POPC  C31020789   0.643   4.563   6.110  0.2026  0.0685  0.1292
  181POPC  H10X20790   0.652   4.671   6.085  2.8238 -0.1804 -0.2029
  181POPC  H10Y20791   0.534   4.539   6.115 -0.2735  2.2539  1.3698
  181POPC  C31120792   0.721   4.480   6.004 -0.4707  0.2891 -1.0998
  181POPC  H11X20793   0.757   4.388   6.055 -0.7052  2.0339  2.5298
  181POPC  H11Y20794   0.809   4.545   5.981 -0.8767  1.3355  0.1532
  181POPC  C31220795   0.637   4.448   5.880  0.4224 -0.2859 -0.2628
  181POPC  H12X20796   0.547   4.400   5.924  0.0089 -2.7273 -3.4793
  181POPC  H12Y20797   0.682   4.369   5.818  1.3978 -0.1774  0.2840
  181POPC  C31320798   0.622   4.576   5.786  0.6271 -0.2862 -0.5017
  181POPC  H13X20799   0.589   4.657   5.854 -1.5913 -0.4548 -1.3075
  181POPC  H13Y20800   0.539   4.550   5.717  0.4584  0.0481 -0.4243
  181POPC  C31420801   0.748   4.615   5.715 -0.0008  0.8768  0.0878
  181POPC  H14X20802   0.817   4.528   5.725  1.4951  1.5954 -2.9870
  181POPC  H14Y20803   0.787   4.712   5.752  2.6992 -0.2171  0.3545
  181POPC  C31520804   0.735   4.633   5.565 -0.5592 -0.7694  0.2785
  181POPC  H15X20805   0.829   4.665   5.516 -0.5339  0.8160  1.2832
  181POPC  H15Y20806   0.672   4.720   5.538  2.2511  0.3978 -3.3600
  181POPC  C31620807   0.684   4.505   5.489 -0.2161 -0.2984  0.0867
  181POPC  H16X20808   0.728   4.410   5.526 -0.5999  0.0446  1.5203
  181POPC  H16Y20809   0.702   4.516   5.380 -0.5397  0.1915  0.0829
  181POPC  H16Z20810   0.575   4.495   5.506 -0.6043  0.4182 -1.7476
  182POPC     N20811   5.052   2.662   7.854 -0.1525 -0.2613  0.2430
  182POPC   C1220812   4.945   2.762   7.854  0.7798  0.1945 -0.1705
  182POPC  H12A20813   4.980   2.851   7.903  1.2046 -0.7972  1.3797
  182POPC  H12B20814   4.865   2.729   7.919  1.1095  1.4829  0.9016
  182POPC   C1320815   5.085   2.630   7.991 -0.1884  0.1291 -0.1209
  182POPC  H13A20816   5.188   2.605   8.008  0.3358  2.1007 -0.1099
  182POPC  H13B20817   5.064   2.721   8.046  2.6114  0.9568 -0.2640
  182POPC  H13C20818   5.028   2.549   8.035  1.8838 -0.3551  1.8694
  182POPC   C1420819   5.010   2.542   7.785  0.1879 -0.1842 -0.0994
  182POPC  H14A20820   5.093   2.476   7.763 -0.6539 -0.6485 -2.0492
  182POPC  H14B20821   4.949   2.476   7.845  0.4375 -1.1043 -0.8231
  182POPC  H14C20822   4.950   2.565   7.698 -2.5061  1.2551  1.9883
  182POPC   C1520823   5.174   2.715   7.781 -0.3968  0.9687  0.4006
  182POPC  H15A20824   5.163   2.725   7.674  1.7211  1.7407  0.2151
  182POPC  H15B20825   5.260   2.649   7.789 -0.4259  0.8269 -0.3870
  182POPC  H15C20826   5.203   2.814   7.813 -0.2145  1.9732 -2.5269
  182POPC   C1120827   4.897   2.812   7.716 -0.4433 -0.0031 -0.0843
  182POPC  H11A20828   4.838   2.736   7.660  0.2326 -1.1693  0.7143
  182POPC  H11B20829   4.980   2.837   7.647 -0.3253  0.5243  0.2445
  182POPC     P20830   4.879   3.067   7.751 -0.1585  0.3276  0.1406
  182POPC   O1320831   4.976   3.057   7.858 -0.1687  0.1396 -0.4507
  182POPC   O1420832   4.771   3.174   7.772 -0.2603  0.7005  0.0784
  182POPC   O1220833   4.819   2.927   7.736  0.3077  0.0619 -0.2928
  182POPC   O1120834   4.953   3.076   7.602 -0.4326  0.3298  0.4848
  182POPC    C120835   4.938   3.186   7.516  0.8027 -0.5309  0.4262
  182POPC    HA20836   5.027   3.189   7.448 -0.5467  1.7793 -1.4053
  182POPC    HB20837   4.929   3.285   7.565 -3.0252  1.4851 -3.6388
  182POPC    C220838   4.809   3.173   7.425 -0.0378 -0.1615  0.3506
  182POPC    HS20839   4.720   3.157   7.488  0.6981 -0.9528  1.2223
  182POPC   O2120840   4.831   3.062   7.337 -0.6942 -0.4237 -0.3500
  182POPC   C2120841   4.752   2.968   7.345  0.2398  0.1126 -0.3199
  182POPC   O2220842   4.652   2.969   7.412 -0.3582  0.3441 -0.2402
  182POPC   C2220843   4.808   2.851   7.266 -0.3102 -1.1236  0.0085
  182POPC   H2R20844   4.814   2.760   7.328  1.9590 -1.2720 -0.3318
  182POPC   H2S20845   4.911   2.877   7.232 -0.9539  1.7821 -0.0295
  182POPC    C320846   4.798   3.306   7.346  0.3546  0.4293  0.4252
  182POPC    HX20847   4.895   3.319   7.293  1.0030 -0.6236  1.3067
  182POPC    HY20848   4.787   3.386   7.422 -0.8575  0.5856  0.1129
  182POPC   O3120849   4.688   3.302   7.253  0.2362  0.0903 -0.1130
  182POPC   C3120850   4.574   3.321   7.312  0.3329 -0.3216  0.1334
  182POPC   O3220851   4.559   3.352   7.431 -0.0562  0.0995  0.6835
  182POPC   C3220852   4.464   3.309   7.206  1.2153 -0.0543  0.0786
  182POPC   H2X20853   4.374   3.318   7.271  0.0290 -3.0624 -1.0072
  182POPC   H2Y20854   4.473   3.206   7.167  0.8038  0.3718 -1.1829
  182POPC   C2320855   4.731   2.823   7.139 -0.1775  0.3425  0.5538
  182POPC   H3R20856   4.699   2.914   7.084 -1.2971 -0.8571 -0.8647
  182POPC   H3S20857   4.640   2.765   7.166  0.2277 -1.3115 -1.4139
  182POPC   C2420858   4.814   2.755   7.029 -0.1014  0.0993 -0.2540
  182POPC   H4R20859   4.871   2.671   7.074 -1.5375  1.0812  3.7773
  182POPC   H4S20860   4.897   2.822   6.998  0.3018 -0.4934 -0.4711
  182POPC   C2520861   4.741   2.717   6.896 -0.6592  0.1765 -0.4356
  182POPC   H5R20862   4.668   2.797   6.876 -1.8355 -0.5364  0.8601
  182POPC   H5S20863   4.676   2.628   6.910  0.7714 -0.7008  0.9896
  182POPC   C2620864   4.831   2.688   6.777  0.2637  1.0098  0.7075
  182POPC   H6R20865   4.891   2.595   6.790 -1.9633 -0.7718 -0.9328
  182POPC   H6S20866   4.899   2.775   6.769 -0.0312  1.1042 -1.3306
  182POPC   C2720867   4.758   2.659   6.645  0.1728 -0.5897 -0.2800
  182POPC   H7R20868   4.671   2.728   6.636  0.5114  0.1603  1.6628
  182POPC   H7S20869   4.710   2.559   6.644  0.8795 -0.9314 -0.3089
  182POPC   C2820870   4.852   2.662   6.526  0.2101 -0.3764  0.2246
  182POPC   H8R20871   4.896   2.764   6.533 -0.4810 -0.2008  3.5058
  182POPC   H8S20872   4.806   2.674   6.426  2.3643  0.4951 -0.7193
  182POPC   C2920873   4.955   2.558   6.532 -0.1772  0.2884  0.2447
  182POPC   H9120874   5.033   2.573   6.609  1.0431  1.3654 -1.1526
  182POPC  C21020875   4.969   2.446   6.457  0.1350  0.2320  0.2222
  182POPC  H10120876   5.051   2.375   6.475 -0.3778 -0.3052  0.4493
  182POPC  C21120877   4.891   2.403   6.341 -0.7321 -0.5018  0.0817
  182POPC  H11R20878   4.795   2.458   6.339 -0.1735  0.4950 -0.9950
  182POPC  H11S20879   4.879   2.293   6.347 -0.2925 -0.5222  0.6579
  182POPC  C21220880   4.976   2.434   6.207  0.1997  0.1117 -0.1936
  182POPC  H12R20881   5.072   2.378   6.214 -0.9967 -2.0918 -0.4237
  182POPC  H12S20882   4.995   2.544   6.209  1.5102  0.1035 -4.2598
  182POPC  C21320883   4.905   2.393   6.078 -0.2514  0.1626  0.1083
  182POPC  H13R20884   4.806   2.442   6.087  0.3385  1.2776  0.6533
  182POPC  H13S20885   4.888   2.283   6.087  3.0558 -0.3647  0.9632
  182POPC  C21420886   4.966   2.434   5.947 -0.0668 -0.7512 -0.5171
  182POPC  H14R20887   5.063   2.380   5.939 -0.4145 -1.5717  0.5553
  182POPC  H14S20888   4.978   2.543   5.960  1.1720 -0.8626 -0.5574
  182POPC  C21520889   4.892   2.394   5.820 -0.0763  0.2079 -0.0218
  182POPC  H15R20890   4.790   2.438   5.813 -0.3035 -0.5081 -1.6273
  182POPC  H15S20891   4.879   2.284   5.814  3.7762 -0.3304 -2.5512
  182POPC  C21620892   4.969   2.416   5.690 -1.1446  0.3835  0.2071
  182POPC  H16R20893   5.074   2.381   5.699 -1.0720  0.3572 -0.6547
  182POPC  H16S20894   4.991   2.524   5.684  1.3311  0.0968  2.5952
  182POPC  C21720895   4.888   2.377   5.575  0.0852  0.2913 -0.0656
  182POPC  H17R20896   4.795   2.438   5.577 -1.1429 -1.5231 -0.4597
  182POPC  H17S20897   4.847   2.275   5.591  3.5707 -1.0182  1.6206
  182POPC  C21820898   4.965   2.395   5.450 -0.9675 -0.3089 -0.0527
  182POPC  H18R20899   4.905   2.352   5.367 -0.7099  1.9166 -1.4767
  182POPC  H18S20900   5.064   2.345   5.446 -1.0086 -0.4070  0.1738
  182POPC  H18T20901   4.985   2.500   5.420 -1.2057 -0.2401  0.0279
  182POPC   C3320902   4.449   3.415   7.089  0.7902  0.3110 -0.3261
  182POPC   H3X20903   4.452   3.519   7.128  1.2679  0.9734 -2.0473
  182POPC   H3Y20904   4.352   3.402   7.037 -0.4431  1.3236  1.5826
  182POPC   C3420905   4.561   3.399   6.980 -0.6080 -0.1055  0.1544
  182POPC   H4X20906   4.546   3.302   6.927 -0.5869  0.1824 -0.3862
  182POPC   H4Y20907   4.658   3.406   7.034  0.8072  3.0603 -2.4122
  182POPC   C3520908   4.553   3.507   6.869  0.8117  0.4558  0.2469
  182POPC   H5X20909   4.545   3.607   6.918  1.1109  0.5338  0.1407
  182POPC   H5Y20910   4.469   3.484   6.800  1.0268 -2.0562  0.7289
  182POPC   C3620911   4.678   3.490   6.781  0.1208 -0.6513 -0.0096
  182POPC   H6X20912   4.658   3.403   6.715 -3.4607  0.2642 -0.3856
  182POPC   H6Y20913   4.758   3.461   6.851 -2.2237 -1.2246  2.6274
  182POPC   C3720914   4.725   3.611   6.708  0.1825 -0.2001 -0.1424
  182POPC   H7X20915   4.723   3.698   6.777 -1.9432 -0.3407  0.0213
  182POPC   H7Y20916   4.644   3.632   6.636 -1.8631  0.8115  2.2995
  182POPC   C3820917   4.856   3.593   6.626  0.2083  0.3809  0.2398
  182POPC   H8X20918   4.937   3.551   6.690  1.7907  0.5147 -1.6069
  182POPC   H8Y20919   4.897   3.690   6.592 -1.0053  0.2905 -1.6064
  182POPC   C3920920   4.844   3.489   6.510  0.0058  0.5934 -0.0216
  182POPC   H9X20921   4.773   3.404   6.516 -0.0391  0.6098 -0.3015
  182POPC   H9Y20922   4.949   3.461   6.488 -0.5197 -0.7188 -0.9576
  182POPC  C31020923   4.813   3.565   6.379 -0.7649  0.1192  0.3847
  182POPC  H10X20924   4.884   3.649   6.363  0.9252 -0.8670  2.2620
  182POPC  H10Y20925   4.708   3.602   6.374 -1.0619 -0.7118  0.2339
  182POPC  C31120926   4.828   3.470   6.253 -1.2794 -0.0462 -0.7735
  182POPC  H11X20927   4.770   3.381   6.285 -0.4355  0.3725  2.2121
  182POPC  H11Y20928   4.937   3.453   6.243 -1.1194  0.2169  0.3619
  182POPC  C31220929   4.769   3.524   6.119  0.1929  0.2508 -0.3015
  182POPC  H12X20930   4.844   3.597   6.082  0.3149  0.9361  1.2330
  182POPC  H12Y20931   4.677   3.584   6.129  0.5233  0.9225 -1.1971
  182POPC  C31320932   4.756   3.417   6.017 -0.6009  0.5782 -0.3862
  182POPC  H13X20933   4.677   3.353   6.060 -0.7396  0.2726 -1.0733
  182POPC  H13Y20934   4.853   3.364   6.006  0.3344  2.3088 -1.0046
  182POPC  C31420935   4.707   3.466   5.883  0.5558  0.4236  0.6428
  182POPC  H14X20936   4.780   3.522   5.822 -1.0976  1.5962 -0.3623
  182POPC  H14Y20937   4.613   3.525   5.893  1.1986  1.1904  2.6305
  182POPC  C31520938   4.669   3.345   5.794  0.0735  0.7388  0.3795
  182POPC  H15X20939   4.764   3.287   5.792 -0.9346 -0.9663 -0.7982
  182POPC  H15Y20940   4.655   3.371   5.687 -0.6457 -1.2617 -0.0538
  182POPC  C31620941   4.556   3.246   5.833 -0.1253 -0.3612 -0.5799
  182POPC  H16X20942   4.540   3.175   5.749 -1.8801 -2.1863  1.1907
  182POPC  H16Y20943   4.470   3.316   5.844  0.4118 -0.0825  3.5413
  182POPC  H16Z20944   4.581   3.191   5.926  1.8248  1.8671  0.3375
  183POPC     N20945   5.575   0.909   7.763  0.4875 -0.4862 -0.3089
  183POPC   C1220946   5.525   0.967   7.629 -0.2905  0.3948  0.7126
  183POPC  H12A20947   5.417   0.974   7.638 -0.1898 -0.4720  3.1944
  183POPC  H12B20948   5.541   0.888   7.556  1.4369  0.8802  0.5230
  183POPC   C1320949   5.475   0.814   7.821  0.3512  0.6412 -0.8417
  183POPC  H13A20950   5.493   0.780   7.922  0.3229  0.6042 -0.8490
  183POPC  H13B20951   5.375   0.855   7.825 -0.3358 -1.0400  0.3751
  183POPC  H13C20952   5.477   0.724   7.761 -0.8568  0.1707 -0.2218
  183POPC   C1420953   5.707   0.841   7.748 -0.5908 -0.0571  0.4353
  183POPC  H14A20954   5.688   0.747   7.699 -0.2160  0.9227 -1.6896
  183POPC  H14B20955   5.776   0.903   7.691 -0.9512 -0.1996 -0.1598
  183POPC  H14C20956   5.754   0.813   7.841  2.1123 -0.6054 -0.9781
  183POPC   C1520957   5.583   1.026   7.857  0.0935 -0.2007 -0.2610
  183POPC  H15A20958   5.651   1.096   7.810  0.5951  0.3140  1.1793
  183POPC  H15B20959   5.628   1.007   7.953 -0.6384 -0.7154 -0.0151
  183POPC  H15C20960   5.495   1.088   7.863  1.3354  1.9749 -2.3843
  183POPC   C1120961   5.581   1.097   7.573 -0.3908  0.5810  0.2872
  183POPC  H11A20962   5.548   1.096   7.467 -1.1222 -0.9909  0.4894
  183POPC  H11B20963   5.692   1.095   7.570 -0.2037  1.0414  3.5108
  183POPC     P20964   5.384   1.269   7.621  0.3586  0.1543 -0.4517
  183POPC   O1320965   5.337   1.334   7.747 -0.1733 -0.1422  0.7853
  183POPC   O1420966   5.303   1.165   7.567 -0.2160 -0.2359  0.4837
  183POPC   O1220967   5.533   1.211   7.638  0.3871 -0.3765  0.0730
  183POPC   O1120968   5.389   1.380   7.515  0.4881 -0.6259  0.0700
  183POPC    C120969   5.461   1.507   7.527 -0.1451  0.0633  0.6939
  183POPC    HA20970   5.530   1.506   7.614 -0.7353  3.8715  1.3400
  183POPC    HB20971   5.393   1.593   7.545  0.1761  0.5665 -0.4252
  183POPC    C220972   5.550   1.538   7.397 -0.1588  0.0904  0.0867
  183POPC    HS20973   5.606   1.628   7.428 -2.9019  1.7292  0.6515
  183POPC   O2120974   5.461   1.565   7.287 -0.5121 -0.6511  0.6475
  183POPC   C2120975   5.392   1.680   7.300 -0.0371 -0.5109 -0.2316
  183POPC   O2220976   5.396   1.762   7.390  0.7863 -0.2303 -0.3107
  183POPC   C2220977   5.302   1.697   7.172  0.2581  0.2444  0.7236
  183POPC   H2R20978   5.228   1.614   7.171  0.0650  0.3327 -2.4884
  183POPC   H2S20979   5.365   1.691   7.081 -1.4314  0.6988 -0.5407
  183POPC    C320980   5.640   1.420   7.371  0.2437 -0.2179  0.6278
  183POPC    HX20981   5.575   1.331   7.352 -1.1501  1.2188 -1.7901
  183POPC    HY20982   5.696   1.403   7.466  1.8677 -2.0376 -0.5830
  183POPC   O3120983   5.719   1.442   7.255 -0.9129  0.2657 -1.2644
  183POPC   C3120984   5.829   1.359   7.243  0.1004  0.5164 -0.4265
  183POPC   O3220985   5.850   1.263   7.317 -0.3524 -0.0776  1.1402
  183POPC   C3220986   5.917   1.412   7.125  0.1758  0.5047  1.2564
  183POPC   H2X20987   5.952   1.517   7.135 -0.7576  0.9778 -0.1099
  183POPC   H2Y20988   5.844   1.409   7.041  0.6054 -0.0209  0.8912
  183POPC   C2320989   5.207   1.818   7.185  0.1352 -0.1068 -0.3984
  183POPC   H3R20990   5.268   1.909   7.203 -0.7367  0.3079  0.5532
  183POPC   H3S20991   5.140   1.803   7.272 -0.9761 -2.4073 -1.5461
  183POPC   C2420992   5.119   1.838   7.062 -0.2400  0.5914  0.3822
  183POPC   H4R20993   5.039   1.910   7.091 -0.7075  1.0311 -1.8794
  183POPC   H4S20994   5.070   1.743   7.034 -1.1605  0.7440  1.3813
  183POPC   C2520995   5.195   1.905   6.943  0.1957 -0.2112 -0.4807
  183POPC   H5R20996   5.268   1.826   6.917  0.3016 -0.6883  1.1143
  183POPC   H5S20997   5.253   1.995   6.974  3.3792 -1.1178 -3.1949
  183POPC   C2620998   5.104   1.935   6.820  0.2107 -1.0151 -0.8076
  183POPC   H6R20999   5.034   2.021   6.817 -0.3685 -1.4894 -1.4133
  183POPC   H6S21000   5.036   1.847   6.806 -2.3718  0.9180 -1.2158
  183POPC   C2721001   5.191   1.946   6.697 -0.5515 -0.8545 -0.3377
  183POPC   H7R21002   5.229   1.842   6.684 -0.6455 -0.9096 -0.1787
  183POPC   H7S21003   5.282   2.007   6.717  0.1123 -0.7411 -3.2440
  183POPC   C2821004   5.115   2.010   6.578 -0.7454 -0.5144 -0.9809
  183POPC   H8R21005   5.061   2.099   6.618 -3.2088 -1.6595 -1.5570
  183POPC   H8S21006   5.047   1.929   6.545 -1.2800  0.5186 -2.5344
  183POPC   C2921007   5.209   2.054   6.466 -0.4374 -0.0724  0.5284
  183POPC   H9121008   5.297   2.106   6.505 -0.7805  1.5131 -0.7180
  183POPC  C21021009   5.193   2.038   6.332  0.2479  0.2869 -0.1299
  183POPC  H10121010   5.281   2.049   6.267  2.8313 -2.8512  2.4651
  183POPC  C21121011   5.070   1.968   6.273 -0.4979  0.0321 -0.7917
  183POPC  H11R21012   5.009   2.048   6.226 -0.9245  0.3262  0.2316
  183POPC  H11S21013   4.995   1.922   6.341 -1.3370  2.8479  0.3292
  183POPC  C21221014   5.086   1.856   6.169  0.9419 -0.6306 -0.0407
  183POPC  H12R21015   4.983   1.850   6.129  0.0268  2.9813  1.3699
  183POPC  H12S21016   5.099   1.760   6.224 -1.9688 -0.4977  1.0353
  183POPC  C21321017   5.175   1.880   6.048  0.4415  0.3273 -0.1064
  183POPC  H13R21018   5.171   1.791   5.981 -1.7314 -0.4004  0.9002
  183POPC  H13S21019   5.279   1.892   6.085 -0.0682  1.8467  0.9182
  183POPC  C21421020   5.155   2.001   5.953  0.9786  0.2148 -0.4985
  183POPC  H14R21021   5.163   2.085   6.026  2.4724 -2.2865  2.4018
  183POPC  H14S21022   5.051   1.997   5.915  1.5400 -0.7671 -2.0224
  183POPC  C21521023   5.245   2.014   5.831 -0.4986  0.2944  0.1354
  183POPC  H15R21024   5.244   1.926   5.762 -1.3213  0.5679 -0.2106
  183POPC  H15S21025   5.346   2.039   5.870  0.2998  1.2060 -2.3506
  183POPC  C21621026   5.215   2.131   5.734  0.1832  0.4388  0.2462
  183POPC  H16R21027   5.237   2.224   5.791  2.1810 -0.1948  0.5748
  183POPC  H16S21028   5.109   2.136   5.700  0.2276  3.9231  0.2831
  183POPC  C21721029   5.300   2.130   5.607 -0.5311 -0.1591 -0.5319
  183POPC  H17R21030   5.408   2.116   5.629 -0.3097  1.9201 -0.0825
  183POPC  H17S21031   5.286   2.230   5.562 -0.9100 -0.9257 -2.1652
  183POPC  C21821032   5.272   2.027   5.497  0.1240 -0.0084  0.2231
  183POPC  H18R21033   5.315   1.928   5.525  2.5615  0.8567 -0.1909
  183POPC  H18S21034   5.306   2.059   5.396 -0.6318 -0.8138 -0.2992
  183POPC  H18T21035   5.162   2.015   5.487  0.4908 -1.6107 -4.2411
  183POPC   C3321036   6.038   1.320   7.089  0.3436  0.8302 -0.0203
  183POPC   H3X21037   6.009   1.214   7.110 -0.4903  1.3417  1.5402
  183POPC   H3Y21038   6.120   1.345   7.159  0.2006  0.7943  0.1609
  183POPC   C3421039   6.084   1.342   6.939 -0.1010 -0.1090 -0.2865
  183POPC   H4X21040   6.194   1.327   6.934  0.4609  1.7403  3.3765
  183POPC   H4Y21041   6.054   1.444   6.905 -0.4059 -0.5174 -1.2894
  183POPC   C3521042   6.025   1.228   6.852 -0.0589 -0.4762  0.3058
  183POPC   H5X21043   5.914   1.233   6.857 -0.0181  0.2593  0.6357
  183POPC   H5Y21044   6.069   1.138   6.900 -1.1287  0.4782  3.2901
  183POPC   C3621045   6.061   1.225   6.700  0.5111 -0.8333 -0.2084
  183POPC   H6X21046   6.015   1.135   6.655 -0.1158  1.0594 -3.6979
  183POPC   H6Y21047   6.172   1.224   6.692  0.5858  1.9216 -0.5854
  183POPC   C3721048   6.009   1.348   6.628 -0.5946  0.2933 -0.8426
  183POPC   H7X21049   6.061   1.438   6.668 -0.4835  0.1514 -0.6647
  183POPC   H7Y21050   5.903   1.353   6.659 -1.0708 -4.8792 -0.7654
  183POPC   C3821051   6.031   1.342   6.477  0.3944 -0.3656 -0.1199
  183POPC   H8X21052   6.136   1.324   6.446 -0.1277 -1.0016 -1.6102
  183POPC   H8Y21053   6.002   1.444   6.447  0.2299 -0.6532 -0.9632
  183POPC   C3921054   5.936   1.250   6.405  0.2296 -0.0171  0.0706
  183POPC   H9X21055   5.828   1.273   6.420 -0.4025 -1.4883 -1.7589
  183POPC   H9Y21056   5.966   1.146   6.429 -2.1865 -0.7479  0.1961
  183POPC  C31021057   5.941   1.268   6.256  0.5550 -0.1746  0.2017
  183POPC  H10X21058   5.977   1.368   6.227  2.9354 -1.1883 -0.5815
  183POPC  H10Y21059   5.848   1.238   6.204  0.4788 -1.2799  0.9387
  183POPC  C31121060   6.054   1.177   6.195  0.0645  0.0862 -0.2173
  183POPC  H11X21061   6.053   1.079   6.246  3.7234 -0.2891 -0.5783
  183POPC  H11Y21062   6.156   1.215   6.221  0.0941 -0.1592  0.0233
  183POPC  C31221063   6.037   1.157   6.051  0.0105 -0.0210  0.3535
  183POPC  H12X21064   5.943   1.104   6.025  0.4312  0.9959 -4.1711
  183POPC  H12Y21065   6.122   1.094   6.015  0.5958  0.4462  0.8972
  183POPC  C31321066   6.042   1.287   5.962  0.2885 -0.2499 -0.6085
  183POPC  H13X21067   6.129   1.346   5.998 -0.0285  0.3811 -0.8628
  183POPC  H13Y21068   5.957   1.356   5.983  1.7931  1.8538 -1.0990
  183POPC  C31421069   6.070   1.257   5.815 -0.0679 -0.1205  0.9332
  183POPC  H14X21070   5.986   1.197   5.776  0.3130  0.8797 -1.6304
  183POPC  H14Y21071   6.162   1.195   5.809  0.4723  0.6209  1.2687
  183POPC  C31521072   6.089   1.380   5.733 -0.0199 -0.4009 -0.1962
  183POPC  H15X21073   6.115   1.361   5.627  1.3106 -0.4582  0.1200
  183POPC  H15Y21074   6.175   1.435   5.778  0.7286 -0.1086 -1.9151
  183POPC  C31621075   5.957   1.463   5.732  0.2644 -0.2734  0.4718
  183POPC  H16X21076   5.928   1.503   5.831  1.1683  1.5953  0.0366
  183POPC  H16Y21077   5.871   1.394   5.716 -0.2415  0.1448  1.3170
  183POPC  H16Z21078   5.958   1.547   5.660  2.0338  2.1163  3.0813
  184POPC     N21079   5.826   2.208   7.846  0.2262 -0.1184  0.5316
  184POPC   C1221080   5.769   2.164   7.714 -0.4048 -0.4945  0.2376
  184POPC  H12A21081   5.735   2.243   7.649 -1.8593 -3.1556 -2.5090
  184POPC  H12B21082   5.678   2.114   7.744 -0.6876  0.6558  1.4180
  184POPC   C1321083   5.739   2.322   7.912 -0.4222 -0.6223  0.5528
  184POPC  H13A21084   5.634   2.308   7.892 -0.2193 -0.4705 -0.7421
  184POPC  H13B21085   5.763   2.335   8.016  1.8163 -0.5928  0.0917
  184POPC  H13C21086   5.755   2.414   7.857  0.0758 -1.4046 -0.6744
  184POPC   C1421087   5.822   2.087   7.937 -1.2316 -0.1672  0.6745
  184POPC  H14A21088   5.719   2.069   7.965 -1.6655  0.2339 -0.6135
  184POPC  H14B21089   5.865   2.004   7.884 -1.9366 -0.0836 -0.0483
  184POPC  H14C21090   5.890   2.114   8.017 -2.6487  4.5019  0.6013
  184POPC   C1521091   5.965   2.261   7.826  0.5586 -0.0123  0.6492
  184POPC  H15A21092   5.967   2.323   7.738  0.7738  1.2746  1.5422
  184POPC  H15B21093   6.032   2.179   7.803  0.3759 -0.6391  2.2070
  184POPC  H15C21094   6.011   2.305   7.913  0.9927 -1.0031  0.9437
  184POPC   C1121095   5.851   2.059   7.631  0.2535 -0.3469  1.4552
  184POPC  H11A21096   5.947   2.110   7.607  1.2053 -2.5589  0.1894
  184POPC  H11B21097   5.781   2.049   7.545 -0.2779 -1.3938  1.9866
  184POPC     P21098   5.766   1.817   7.708  0.0413  0.2817  0.0681
  184POPC   O1321099   5.642   1.889   7.733 -0.3840 -0.6054  0.1041
  184POPC   O1421100   5.814   1.725   7.813  0.0236 -0.3136 -0.0655
  184POPC   O1221101   5.874   1.936   7.695  0.0082  0.1871  0.6049
  184POPC   O1121102   5.770   1.746   7.569 -0.7480  0.1752  0.2266
  184POPC    C121103   5.885   1.657   7.540  0.3318 -0.1256 -0.3056
  184POPC    HA21104   5.849   1.597   7.454 -1.6247  1.2908 -0.5542
  184POPC    HB21105   5.918   1.596   7.627  1.5987 -0.4057 -0.9496
  184POPC    C221106   6.007   1.734   7.470  0.2413 -1.0587 -0.1168
  184POPC    HS21107   6.059   1.790   7.550  0.1324  1.5632 -1.7679
  184POPC   O2121108   5.954   1.817   7.366  0.3654  0.1212 -0.3118
  184POPC   C2121109   6.022   1.920   7.335  0.3894 -0.0049  0.7613
  184POPC   O2221110   6.129   1.956   7.379 -0.6271 -0.1887  0.2092
  184POPC   C2221111   5.940   1.987   7.213 -0.3960  0.5356  0.1363
  184POPC   H2R21112   5.849   1.927   7.197 -0.8726  1.3593 -0.2934
  184POPC   H2S21113   6.014   1.972   7.131  1.3062  0.8760  1.5449
  184POPC    C321114   6.108   1.627   7.408  0.2496  1.3328  0.0543
  184POPC    HX21115   6.060   1.570   7.326  0.7426 -1.2644  1.4686
  184POPC    HY21116   6.128   1.548   7.483 -0.7400  1.5696  0.5857
  184POPC   O3121117   6.237   1.686   7.373  0.2494 -0.5370 -0.4220
  184POPC   C3121118   6.255   1.718   7.246  0.1540 -0.0481 -0.3225
  184POPC   O3221119   6.171   1.714   7.156  0.7635  0.4903  0.5624
  184POPC   C3221120   6.399   1.780   7.231  0.6485  0.0242 -0.5048
  184POPC   H2X21121   6.469   1.703   7.268  2.5321  1.1634 -1.5186
  184POPC   H2Y21122   6.410   1.876   7.286  1.1825  0.1061 -0.7427
  184POPC   C2321123   5.918   2.143   7.222 -0.1274  0.2746 -0.5199
  184POPC   H3R21124   5.955   2.189   7.317 -1.0917  1.3527 -0.6408
  184POPC   H3S21125   5.807   2.141   7.226 -0.1740  2.0815  0.6009
  184POPC   C2421126   5.969   2.228   7.101  0.1234  0.3670  0.4689
  184POPC   H4R21127   6.078   2.250   7.104 -0.3182  2.8411  0.2277
  184POPC   H4S21128   5.925   2.327   7.125 -0.5349  0.3219 -0.5046
  184POPC   C2521129   5.913   2.170   6.964  0.1890 -0.0940 -0.0670
  184POPC   H5R21130   5.802   2.165   6.969 -0.0171  0.8248 -2.4270
  184POPC   H5S21131   5.954   2.069   6.945 -0.6000 -0.0719 -2.1533
  184POPC   C2621132   5.951   2.258   6.839  0.4908 -0.2765 -0.1463
  184POPC   H6R21133   6.043   2.313   6.869 -0.8409  0.7476  2.3397
  184POPC   H6S21134   5.871   2.330   6.812  0.3056 -0.8809 -1.2631
  184POPC   C2721135   5.984   2.171   6.717  0.4234  0.2007  0.2175
  184POPC   H7R21136   5.900   2.100   6.702 -0.8732  1.6885  0.2401
  184POPC   H7S21137   6.076   2.116   6.745  0.9116  0.3517 -1.0048
  184POPC   C2821138   6.010   2.267   6.599  0.4176  0.4160 -0.4822
  184POPC   H8R21139   5.918   2.314   6.558 -2.2788 -2.8373  1.2868
  184POPC   H8S21140   6.037   2.192   6.521  2.4509 -0.1301  0.6834
  184POPC   C2921141   6.126   2.356   6.611  0.2649 -0.4900 -0.3591
  184POPC   H9121142   6.168   2.365   6.712  1.0551 -0.4773 -0.6785
  184POPC  C21021143   6.197   2.402   6.505  0.5752  0.6338  0.7584
  184POPC  H10121144   6.284   2.468   6.514  0.3823  0.9187  0.5547
  184POPC  C21121145   6.164   2.384   6.358 -0.3477  0.1693 -0.4796
  184POPC  H11R21146   6.125   2.482   6.325 -0.5496  0.4658  0.5926
  184POPC  H11S21147   6.083   2.311   6.338 -0.5234  0.1697  0.1990
  184POPC  C21221148   6.288   2.332   6.278 -0.6895 -0.2073  0.3994
  184POPC  H12R21149   6.302   2.223   6.297 -0.5080  0.0339  1.8105
  184POPC  H12S21150   6.381   2.383   6.311  0.6382 -2.3581  0.1816
  184POPC  C21321151   6.281   2.358   6.123 -0.1579  0.0868  0.1682
  184POPC  H13R21152   6.383   2.332   6.087  0.1993  0.4763  0.8663
  184POPC  H13S21153   6.265   2.467   6.105  1.5789  0.6732  1.8360
  184POPC  C21421154   6.180   2.260   6.061 -0.1850 -1.4610 -0.0293
  184POPC  H14R21155   6.083   2.261   6.115 -1.0127 -1.5341 -1.4587
  184POPC  H14S21156   6.221   2.157   6.070  2.9554 -0.3033 -0.0252
  184POPC  C21521157   6.162   2.303   5.910 -0.0885 -0.2266 -0.4929
  184POPC  H15R21158   6.254   2.305   5.847 -0.6812  0.5837 -1.3578
  184POPC  H15S21159   6.108   2.399   5.906  2.6043  1.4140 -0.2153
  184POPC  C21621160   6.085   2.196   5.828 -0.1231 -0.4489 -0.4610
  184POPC  H16R21161   6.098   2.214   5.719  0.2243 -0.7566 -0.4735
  184POPC  H16S21162   5.979   2.192   5.860  0.4866 -1.6852  1.6600
  184POPC  C21721163   6.126   2.048   5.832  0.4934 -0.2691  0.0720
  184POPC  H17R21164   6.105   2.003   5.931  1.1866 -1.2373 -0.1997
  184POPC  H17S21165   6.236   2.044   5.817  0.4725  0.7561 -0.4384
  184POPC  C21821166   6.066   1.955   5.721 -0.5905 -0.1404  0.3969
  184POPC  H18R21167   6.122   1.859   5.720  0.6159  0.5617 -0.4149
  184POPC  H18S21168   6.053   2.005   5.623  3.4876 -1.8289 -1.2182
  184POPC  H18T21169   5.965   1.922   5.756 -0.4279 -2.5083 -1.1573
  184POPC   C3321170   6.439   1.819   7.097 -0.4412  0.3719  0.2583
  184POPC   H3X21171   6.546   1.848   7.095 -0.4144  0.2352 -0.9631
  184POPC   H3Y21172   6.369   1.901   7.071 -0.7484  0.2809  0.7958
  184POPC   C3421173   6.427   1.720   6.984  0.3116 -0.0646  0.1318
  184POPC   H4X21174   6.322   1.708   6.948  0.0096 -0.0065  0.9671
  184POPC   H4Y21175   6.465   1.619   7.012  0.1385  0.2682  1.6200
  184POPC   C3521176   6.512   1.761   6.864  0.8144 -0.7902  0.3765
  184POPC   H5X21177   6.618   1.760   6.897  0.0956  2.1595  3.3505
  184POPC   H5Y21178   6.491   1.867   6.839 -0.2620 -0.6769  1.6239
  184POPC   C3621179   6.507   1.656   6.751  0.7029 -0.1565  0.2272
  184POPC   H6X21180   6.400   1.632   6.731  0.4422  0.7312  0.5021
  184POPC   H6Y21181   6.577   1.578   6.787  1.2383 -0.6417 -1.7088
  184POPC   C3721182   6.572   1.718   6.628  0.9262  0.0147 -0.7047
  184POPC   H7X21183   6.653   1.776   6.677 -0.2775 -1.1356  2.9618
  184POPC   H7Y21184   6.501   1.782   6.571 -1.9286 -0.7565  1.6905
  184POPC   C3821185   6.647   1.618   6.535  0.8847  0.1489 -0.5929
  184POPC   H8X21186   6.571   1.582   6.463  0.8821 -0.4598 -0.2912
  184POPC   H8Y21187   6.682   1.524   6.582  0.1003  0.4350  0.6177
  184POPC   C3921188   6.761   1.675   6.455 -0.3651 -0.1565  0.2887
  184POPC   H9X21189   6.846   1.676   6.526 -0.1586  0.8374  0.0479
  184POPC   H9Y21190   6.743   1.783   6.434  1.2562  0.1695  0.4743
  184POPC  C31021191   6.793   1.603   6.326  0.2218 -0.2264  0.4277
  184POPC  H10X21192   6.707   1.623   6.259  1.2793  0.1316 -0.8598
  184POPC  H10Y21193   6.818   1.495   6.324 -1.2185 -0.6335 -3.4412
  184POPC  C31121194   6.921   1.666   6.274  0.0365  0.1691  0.1186
  184POPC  H11X21195   6.994   1.647   6.356  0.3779 -0.9724 -0.4359
  184POPC  H11Y21196   6.888   1.771   6.261 -1.9047 -0.5327 -1.0737
  184POPC  C31221197   6.976   1.614   6.140 -0.1059  0.1541 -0.9617
  184POPC  H12X21198   6.887   1.591   6.077 -1.1888 -0.1103  0.5887
  184POPC  H12Y21199   7.036   1.521   6.150 -0.5680 -0.0986 -0.4523
  184POPC  C31321200   7.065   1.719   6.068 -0.0006  0.3243 -0.1193
  184POPC  H13X21201   7.140   1.755   6.142  0.6794 -0.4052 -0.4411
  184POPC  H13Y21202   6.997   1.803   6.043 -1.9125 -0.6268  1.6035
  184POPC  C31421203   7.122   1.656   5.936  0.1124 -0.2281 -0.3552
  184POPC  H14X21204   7.158   1.551   5.943  1.6260 -0.0188 -3.2853
  184POPC  H14Y21205   7.208   1.710   5.890 -0.7782 -0.8115 -2.8564
  184POPC  C31521206   7.028   1.652   5.811  0.3016  0.6235 -0.4486
  184POPC  H15X21207   6.942   1.586   5.835  1.8587 -0.7409  1.7155
  184POPC  H15Y21208   7.081   1.611   5.722 -0.1328 -0.3498 -0.2762
  184POPC  C31621209   6.980   1.786   5.771  0.6203  0.1726 -0.3870
  184POPC  H16X21210   6.885   1.784   5.714 -0.3165 -2.3951  1.0933
  184POPC  H16Y21211   7.050   1.847   5.709 -3.0690  3.4662 -1.7562
  184POPC  H16Z21212   6.957   1.849   5.859  1.6539 -2.0542  1.5803
  185POPC     N21213   5.463   4.277   2.950  0.4430 -0.0706 -0.0995
  185POPC   C1221214   5.457   4.127   2.976 -0.2885  0.3184 -0.0879
  185POPC  H12A21215   5.542   4.093   3.034  0.4459 -1.1272 -1.8867
  185POPC  H12B21216   5.463   4.065   2.887  0.5673  0.6308 -0.2555
  185POPC   C1321217   5.603   4.313   2.925 -0.4247 -0.6872 -0.4970
  185POPC  H13A21218   5.664   4.315   3.014  0.0790  1.3085 -0.8457
  185POPC  H13B21219   5.653   4.255   2.848 -2.3666 -1.4599 -1.2477
  185POPC  H13C21220   5.608   4.415   2.891  3.4421 -0.6698 -0.3716
  185POPC   C1421221   5.373   4.315   2.839  0.1070  0.1144  0.0077
  185POPC  H14A21222   5.281   4.260   2.852  0.0511 -0.1513 -1.3349
  185POPC  H14B21223   5.352   4.420   2.824  0.3974  0.0513 -0.9035
  185POPC  H14C21224   5.419   4.273   2.750 -1.2353  0.1567 -0.7351
  185POPC   C1521225   5.417   4.360   3.067  0.2038  0.3299  0.9087
  185POPC  H15A21226   5.312   4.344   3.085 -0.2205  0.1562 -1.3681
  185POPC  H15B21227   5.420   4.464   3.038  0.3747  0.3144  0.8697
  185POPC  H15C21228   5.477   4.347   3.156 -0.1493 -2.4119  0.8386
  185POPC   C1121229   5.334   4.074   3.046 -0.0285 -0.5666  0.1832
  185POPC  H11A21230   5.313   4.116   3.146 -2.0951 -1.2392  0.0904
  185POPC  H11B21231   5.357   3.966   3.061 -1.4717 -1.1899 -1.5633
  185POPC     P21232   5.080   4.138   2.988  0.1367 -0.4034 -0.4652
  185POPC   O1321233   4.991   4.079   2.889  0.1196  0.0285 -0.5177
  185POPC   O1421234   5.084   4.289   3.000 -0.0030 -0.2251 -0.2847
  185POPC   O1221235   5.220   4.081   2.957 -0.3100  0.0314  0.6444
  185POPC   O1121236   5.043   4.082   3.127 -0.4507  0.4475 -0.3123
  185POPC    C121237   4.906   4.044   3.155  0.4363  0.4913 -0.5768
  185POPC    HA21238   4.910   3.948   3.211  0.9195 -0.2027 -1.7593
  185POPC    HB21239   4.852   4.022   3.061  0.6105 -1.7187 -0.2304
  185POPC    C221240   4.824   4.146   3.245  0.2296  0.2078 -0.4578
  185POPC    HS21241   4.798   4.230   3.177 -1.1627  1.1588  1.1616
  185POPC   O2121242   4.905   4.182   3.361 -0.1600 -0.4628 -0.6702
  185POPC   C2121243   4.896   4.298   3.408 -0.4373  0.0489  0.2021
  185POPC   O2221244   4.821   4.391   3.371 -0.0252 -0.2859  0.3448
  185POPC   C2221245   4.992   4.301   3.525 -0.4903 -0.3036  0.2279
  185POPC   H2R21246   4.983   4.399   3.577  0.3337 -0.6914  1.1392
  185POPC   H2S21247   5.098   4.304   3.491 -0.1696  1.0807  1.2214
  185POPC    C321248   4.690   4.087   3.279  0.2617  0.2839 -0.8918
  185POPC    HX21249   4.702   3.994   3.339 -3.2722  1.6014  2.3478
  185POPC    HY21250   4.644   4.059   3.182  1.2271 -0.2071 -1.2152
  185POPC   O3121251   4.609   4.173   3.365 -0.1149 -0.1416  0.1457
  185POPC   C3121252   4.543   4.264   3.293 -0.7506  0.0435 -0.0600
  185POPC   O3221253   4.558   4.301   3.176 -0.7199  0.4395 -0.0757
  185POPC   C3221254   4.447   4.337   3.389 -0.5885 -1.2020  0.6785
  185POPC   H2X21255   4.345   4.348   3.345 -0.7687  2.0143  1.6057
  185POPC   H2Y21256   4.481   4.443   3.392  0.9904 -1.6194 -0.7929
  185POPC   C2321257   4.970   4.213   3.648 -0.7148  0.5027  0.0957
  185POPC   H3R21258   4.998   4.106   3.636  1.1501  0.7573  1.7178
  185POPC   H3S21259   4.861   4.217   3.670 -0.7037  1.1081  0.0503
  185POPC   C2421260   5.044   4.259   3.768  0.3543 -0.3334 -0.6610
  185POPC   H4R21261   5.008   4.197   3.853 -0.0405 -1.4439 -1.6110
  185POPC   H4S21262   5.014   4.365   3.786 -1.9984 -1.0668  0.1519
  185POPC   C2521263   5.193   4.243   3.775 -0.9533  0.6942 -0.0197
  185POPC   H5R21264   5.227   4.296   3.867  2.8896  0.1669 -0.9829
  185POPC   H5S21265   5.249   4.289   3.691 -0.0269 -3.2304 -1.7412
  185POPC   C2621266   5.246   4.097   3.779 -0.0164 -0.1077  0.8833
  185POPC   H6R21267   5.260   4.053   3.678  0.1864  1.1803  0.3316
  185POPC   H6S21268   5.177   4.031   3.836  1.5836 -1.8687  0.8693
  185POPC   C2721269   5.390   4.084   3.837 -0.6092 -0.2127  0.6203
  185POPC   H7R21270   5.460   4.164   3.806  0.0056 -0.6842  0.7649
  185POPC   H7S21271   5.418   3.985   3.794 -1.1230 -0.0346 -0.1407
  185POPC   C2821272   5.386   4.081   3.996  0.3954  0.3757  0.1984
  185POPC   H8R21273   5.303   4.009   4.016 -0.1781  0.3091 -2.1519
  185POPC   H8S21274   5.353   4.176   4.043  1.8239  0.3058  1.4153
  185POPC   C2921275   5.513   4.036   4.069  0.0529 -0.6585 -0.1582
  185POPC   H9121276   5.567   3.972   3.998  1.0089  0.0106 -0.0663
  185POPC  C21021277   5.569   4.072   4.188 -0.0824  0.5028  0.5391
  185POPC  H10121278   5.671   4.034   4.207 -1.7325 -3.2810  3.2992
  185POPC  C21121279   5.518   4.165   4.299  0.6260 -0.2656 -0.2950
  185POPC  H11R21280   5.413   4.185   4.270  0.8156 -2.3763 -2.8676
  185POPC  H11S21281   5.578   4.258   4.293 -0.2367  0.4186  1.1765
  185POPC  C21221282   5.535   4.115   4.434 -0.0698  0.9354 -0.0959
  185POPC  H12R21283   5.640   4.080   4.448 -0.4287 -0.3155 -0.4450
  185POPC  H12S21284   5.471   4.026   4.449  0.6298  0.7572  2.2538
  185POPC  C21321285   5.485   4.214   4.546  0.1689  0.0803 -0.0912
  185POPC  H13R21286   5.380   4.244   4.528  0.0687  0.0187  0.3737
  185POPC  H13S21287   5.543   4.307   4.531 -3.4277  2.3150 -1.2605
  185POPC  C21421288   5.485   4.159   4.688  0.6260 -0.4754  0.0201
  185POPC  H14R21289   5.579   4.149   4.745  1.8082 -3.7621 -2.1993
  185POPC  H14S21290   5.453   4.053   4.687 -0.9035 -0.0931  2.1008
  185POPC  C21521291   5.386   4.224   4.777 -0.2803  0.4648  0.0806
  185POPC  H15R21292   5.359   4.144   4.849  0.1575 -0.2687 -0.5490
  185POPC  H15S21293   5.295   4.251   4.720  0.9456 -0.8457 -2.6963
  185POPC  C21621294   5.446   4.341   4.846  0.4261 -0.9447  0.0595
  185POPC  H16R21295   5.493   4.405   4.768 -0.5063  0.4526  0.6019
  185POPC  H16S21296   5.531   4.309   4.909  0.5422 -4.1095 -1.4832
  185POPC  C21721297   5.349   4.430   4.927  0.5307 -0.0706  0.2842
  185POPC  H17R21298   5.412   4.505   4.979 -0.5241  1.3869 -0.4786
  185POPC  H17S21299   5.292   4.378   5.007 -0.1734  0.5590  0.2000
  185POPC  C21821300   5.258   4.516   4.835 -0.6974  0.1183  0.0252
  185POPC  H18R21301   5.173   4.559   4.892 -1.9000 -2.5663  0.4189
  185POPC  H18S21302   5.219   4.450   4.754  1.9276 -2.5742  0.7903
  185POPC  H18T21303   5.322   4.597   4.794  1.9095 -2.3751 -1.1573
  185POPC   C3321304   4.436   4.287   3.530  0.4050  0.3856  0.0758
  185POPC   H3X21305   4.538   4.259   3.565  1.5156  1.2380 -2.2208
  185POPC   H3Y21306   4.372   4.197   3.536  2.6446 -1.6310 -3.0756
  185POPC   C3421307   4.369   4.393   3.622  0.5005  0.2010  0.3671
  185POPC   H4X21308   4.278   4.430   3.569  0.7133  1.6942  1.0046
  185POPC   H4Y21309   4.436   4.481   3.629  1.4215 -0.5912  1.9769
  185POPC   C3521310   4.323   4.334   3.763 -0.5037  0.1991  0.4262
  185POPC   H5X21311   4.422   4.297   3.799  1.1655  2.1022 -1.8684
  185POPC   H5Y21312   4.248   4.253   3.757  0.1070 -0.4429  1.1304
  185POPC   C3621313   4.271   4.448   3.862  0.0792  0.4926  0.3765
  185POPC   H6X21314   4.167   4.472   3.832 -0.1283 -0.6619  0.1433
  185POPC   H6Y21315   4.324   4.546   3.863 -2.8635  2.2167  1.1649
  185POPC   C3721316   4.264   4.386   4.000  0.1085 -0.2092  0.0700
  185POPC   H7X21317   4.362   4.343   4.028 -0.2233  0.1274  1.8445
  185POPC   H7Y21318   4.187   4.306   3.994 -0.2932  0.2387 -1.2422
  185POPC   C3821319   4.232   4.495   4.106  1.0361 -0.3137 -0.6474
  185POPC   H8X21320   4.128   4.534   4.099  1.1276  0.0965  0.0897
  185POPC   H8Y21321   4.305   4.579   4.099 -0.6135  1.1524 -0.9747
  185POPC   C3921322   4.245   4.439   4.251 -0.6211  0.2185 -0.1921
  185POPC   H9X21323   4.343   4.387   4.262  1.9435  4.8276  1.4694
  185POPC   H9Y21324   4.170   4.358   4.268  2.1742 -2.2458  1.3576
  185POPC  C31021325   4.222   4.542   4.360 -0.2600 -0.1418 -0.1673
  185POPC  H10X21326   4.117   4.579   4.361 -0.2329 -0.0464 -0.6234
  185POPC  H10Y21327   4.289   4.631   4.355  1.1749 -0.9863  2.3413
  185POPC  C31121328   4.245   4.477   4.497 -0.3371  0.2889 -0.9460
  185POPC  H11X21329   4.343   4.424   4.496  0.5853  1.5162  3.6254
  185POPC  H11Y21330   4.176   4.394   4.523  0.7521 -0.6235 -0.8750
  185POPC  C31221331   4.241   4.580   4.611 -0.4435  0.7110 -0.5180
  185POPC  H12X21332   4.154   4.649   4.601 -2.0676 -1.5174 -3.3094
  185POPC  H12Y21333   4.337   4.636   4.602  0.7063 -0.8955  1.0601
  185POPC  C31321334   4.249   4.515   4.747  0.5933 -0.7269 -0.4778
  185POPC  H13X21335   4.333   4.444   4.739  0.7075 -0.6875  0.2988
  185POPC  H13Y21336   4.154   4.462   4.769  0.3210  0.1721  0.6081
  185POPC  C31421337   4.282   4.615   4.854 -0.1892 -0.8991  0.6565
  185POPC  H14X21338   4.208   4.698   4.863 -1.4926 -1.8364 -0.8709
  185POPC  H14Y21339   4.373   4.655   4.804 -0.6475  0.1840  0.6579
  185POPC  C31521340   4.316   4.557   4.989 -0.9517  0.2689  0.7408
  185POPC  H15X21341   4.391   4.476   4.973 -1.0232  0.2401  0.5477
  185POPC  H15Y21342   4.230   4.503   5.034 -0.5584 -1.7445 -0.7735
  185POPC  C31621343   4.381   4.661   5.076 -0.1802  0.0785 -0.5544
  185POPC  H16X21344   4.411   4.609   5.169 -1.6181 -0.8435 -0.5758
  185POPC  H16Y21345   4.314   4.745   5.107  1.2328  0.0756  2.9408
  185POPC  H16Z21346   4.473   4.708   5.037  0.7847 -0.2174  1.2822
  186POPC     N21347   6.093   6.475   2.806  0.8118  0.1241 -0.4060
  186POPC   C1221348   6.134   6.475   2.956 -0.2719  0.1939  0.4517
  186POPC  H12A21349   6.080   6.550   3.012 -0.2016 -0.6556  1.6882
  186POPC  H12B21350   6.239   6.502   2.956  0.1631 -0.9223 -3.0538
  186POPC   C1321351   5.947   6.438   2.810  0.5031 -0.0625  0.5186
  186POPC  H13A21352   5.920   6.334   2.812  1.2169 -0.7298 -5.3912
  186POPC  H13B21353   5.893   6.486   2.891  1.2603  0.3671  0.7760
  186POPC  H13C21354   5.887   6.461   2.722  2.2811 -2.1599 -1.3814
  186POPC   C1421355   6.110   6.613   2.758  0.6513  0.7025 -0.0133
  186POPC  H14A21356   6.064   6.689   2.820 -0.1058 -0.1711  0.5101
  186POPC  H14B21357   6.217   6.630   2.749  1.0827 -1.0964  1.0550
  186POPC  H14C21358   6.070   6.613   2.658  1.4922  1.4828 -0.3711
  186POPC   C1521359   6.163   6.379   2.727  0.1905 -0.3417  0.2023
  186POPC  H15A21360   6.158   6.280   2.770  0.9488 -0.3624  0.2568
  186POPC  H15B21361   6.267   6.398   2.704 -0.1241  0.4671 -0.6194
  186POPC  H15C21362   6.119   6.376   2.629  1.5683 -0.7419 -0.4289
  186POPC   C1121363   6.118   6.341   3.035 -0.6352  0.2783 -0.3798
  186POPC  H11A21364   6.010   6.315   3.034 -1.0794  1.9051 -2.4371
  186POPC  H11B21365   6.141   6.360   3.142 -0.7094 -1.4885 -0.0329
  186POPC     P21366   6.340   6.203   2.996 -0.3043  0.7167 -0.1906
  186POPC   O1321367   6.412   6.326   2.954 -0.0574 -0.3966  0.4690
  186POPC   O1421368   6.385   6.086   2.923  0.2111 -0.3293  0.5057
  186POPC   O1221369   6.186   6.228   2.986  0.1331 -0.2739  0.3182
  186POPC   O1121370   6.358   6.178   3.144 -0.1803  0.0780 -0.6109
  186POPC    C121371   6.282   6.096   3.235 -0.3330 -0.5115  0.1836
  186POPC    HA21372   6.315   5.990   3.227 -0.6805 -0.5483 -1.0656
  186POPC    HB21373   6.174   6.110   3.215 -0.6018  0.0346  1.9022
  186POPC    C221374   6.303   6.138   3.376  0.2469  1.1723 -0.3438
  186POPC    HS21375   6.272   6.053   3.441 -1.6673  2.4384  0.4906
  186POPC   O2121376   6.216   6.252   3.407 -0.3927  0.3760  0.0324
  186POPC   C2121377   6.091   6.231   3.445 -0.2211  0.2197  0.0737
  186POPC   O2221378   6.047   6.127   3.487  0.0795  0.0247 -0.4001
  186POPC   C2221379   6.013   6.357   3.415  0.7545  0.3934 -0.7139
  186POPC   H2R21380   6.002   6.346   3.304  1.1285 -2.5431 -0.5525
  186POPC   H2S21381   6.071   6.450   3.427 -1.3026  1.4954  1.4624
  186POPC    C321382   6.452   6.163   3.395 -0.4535 -0.0916 -0.0940
  186POPC    HX21383   6.475   6.237   3.315 -2.2059 -0.7738 -1.3033
  186POPC    HY21384   6.518   6.076   3.370  0.5259  0.2258  1.2680
  186POPC   O3121385   6.485   6.217   3.525  0.0512  0.3603 -0.6655
  186POPC   C3121386   6.498   6.118   3.616 -0.5305  0.6529  0.5924
  186POPC   O3221387   6.485   5.998   3.586  0.3299 -0.1240 -0.0946
  186POPC   C3221388   6.533   6.169   3.747 -0.3908 -0.5501  0.4853
  186POPC   H2X21389   6.448   6.172   3.819  0.0723  1.7188  1.0122
  186POPC   H2Y21390   6.564   6.274   3.730  0.1769 -0.9838 -1.4725
  186POPC   C2321391   5.876   6.362   3.480  0.3900  0.0421  0.7473
  186POPC   H3R21392   5.834   6.261   3.499 -0.6821 -0.0472 -1.7487
  186POPC   H3S21393   5.805   6.424   3.422 -2.3706 -2.1823  1.5160
  186POPC   C2421394   5.891   6.413   3.623  0.0342  0.2840  0.9740
  186POPC   H4R21395   5.789   6.416   3.668 -0.4381 -0.5887 -0.0133
  186POPC   H4S21396   5.928   6.518   3.618  0.7698 -0.0199 -2.7400
  186POPC   C2521397   5.976   6.323   3.713 -0.4306  0.4821  0.2314
  186POPC   H5R21398   6.077   6.323   3.667 -0.7825  3.3239 -0.7647
  186POPC   H5S21399   5.954   6.215   3.728 -1.2186  0.5960 -0.0643
  186POPC   C2621400   5.990   6.384   3.855  0.0440 -0.1006 -0.0478
  186POPC   H6R21401   5.889   6.385   3.900 -0.7652 -0.9193 -1.7423
  186POPC   H6S21402   6.030   6.487   3.859  1.9384 -0.8122  0.5640
  186POPC   C2721403   6.065   6.291   3.945 -0.1425  0.1683  0.3123
  186POPC   H7R21404   6.009   6.195   3.947  0.1162 -0.0858 -1.7254
  186POPC   H7S21405   6.057   6.332   4.048 -2.7133 -0.7171  0.5342
  186POPC   C2821406   6.207   6.272   3.902  0.1362  0.2033 -0.1571
  186POPC   H8R21407   6.254   6.373   3.899  0.1274  0.2670  1.3493
  186POPC   H8S21408   6.224   6.220   3.805 -1.2202 -2.5210  0.9788
  186POPC   C2921409   6.269   6.192   4.017  0.2677 -0.4975 -0.4172
  186POPC   H9121410   6.306   6.251   4.102 -1.1076 -0.2355  0.0140
  186POPC  C21021411   6.298   6.056   4.013 -0.6884 -0.8905  0.6244
  186POPC  H10121412   6.343   6.011   4.102  3.3513  0.3497 -0.5700
  186POPC  C21121413   6.252   5.961   3.909 -0.4432 -0.0489  0.4414
  186POPC  H11R21414   6.338   5.915   3.857 -2.4663 -0.8579 -2.4597
  186POPC  H11S21415   6.198   6.012   3.826 -0.4812 -0.1860  0.3815
  186POPC  C21221416   6.167   5.849   3.962 -0.7791 -0.4605  0.0822
  186POPC  H12R21417   6.189   5.825   4.068  0.8160 -0.2794 -0.1881
  186POPC  H12S21418   6.188   5.756   3.905 -1.2007  0.1275 -1.0740
  186POPC  C21321419   6.011   5.864   3.936  1.1506  0.1752 -0.3525
  186POPC  H13R21420   6.004   5.882   3.827  0.1764 -1.8782 -0.6730
  186POPC  H13S21421   5.973   5.956   3.987 -1.1107 -1.0676  0.3863
  186POPC  C21421422   5.919   5.747   3.988 -0.7320 -1.4774  0.7473
  186POPC  H14R21423   5.946   5.653   3.935  1.1186 -1.6632  1.9149
  186POPC  H14S21424   5.816   5.780   3.965 -0.0544  1.2772  1.2084
  186POPC  C21521425   5.931   5.706   4.137 -0.9686 -0.2722  0.5379
  186POPC  H15R21426   5.860   5.764   4.199  0.3684  0.5383  1.3623
  186POPC  H15S21427   6.038   5.721   4.162 -0.9753 -1.4845  1.4136
  186POPC  C21621428   5.909   5.559   4.166  0.1158  0.6322  0.4891
  186POPC  H16R21429   5.960   5.498   4.087 -0.1852  0.8056  0.1580
  186POPC  H16S21430   5.803   5.530   4.149  0.6771 -2.1685  1.2497
  186POPC  C21721431   5.958   5.528   4.302  0.7213  0.0228 -0.1162
  186POPC  H17R21432   5.915   5.597   4.378  1.1801 -0.7058  0.8408
  186POPC  H17S21433   6.064   5.560   4.312  0.2944  1.6300 -0.5589
  186POPC  C21821434   5.945   5.379   4.338 -0.0920 -0.1343 -0.0692
  186POPC  H18R21435   5.987   5.328   4.248 -0.5104  1.8488 -1.4592
  186POPC  H18S21436   6.008   5.356   4.426  0.0974 -0.0070 -0.1707
  186POPC  H18T21437   5.848   5.339   4.375 -0.2852  2.5243  2.6175
  186POPC   C3321438   6.650   6.086   3.810 -0.1156 -0.1148  1.3351
  186POPC   H3X21439   6.712   6.052   3.725 -0.0692  3.5809 -0.3049
  186POPC   H3Y21440   6.610   5.995   3.861  0.7751 -1.5114 -0.3564
  186POPC   C3421441   6.738   6.168   3.899  0.0944  0.3566  0.3565
  186POPC   H4X21442   6.786   6.252   3.845  2.4726 -1.4100 -0.4448
  186POPC   H4Y21443   6.813   6.105   3.952  0.5232  2.6540  2.7031
  186POPC   C3521444   6.656   6.207   4.025 -0.7404 -0.5848  0.2162
  186POPC   H5X21445   6.615   6.110   4.060 -0.8123 -0.6137  0.0510
  186POPC   H5Y21446   6.572   6.272   3.992 -0.2086  1.3589  2.3442
  186POPC   C3621447   6.737   6.283   4.132  0.2003  0.4907 -0.3056
  186POPC   H6X21448   6.795   6.361   4.079  1.9119 -2.0781 -2.5473
  186POPC   H6Y21449   6.809   6.217   4.185 -0.4253 -0.5359 -0.7049
  186POPC   C3721450   6.639   6.330   4.248  0.4627 -0.3861  0.0618
  186POPC   H7X21451   6.544   6.372   4.208  0.2935 -3.2267 -2.9237
  186POPC   H7Y21452   6.685   6.402   4.319 -2.9337  1.2839  0.8172
  186POPC   C3821453   6.596   6.208   4.336  0.6239 -0.1159  0.5232
  186POPC   H8X21454   6.686   6.143   4.348 -0.1948 -1.1197  1.4813
  186POPC   H8Y21455   6.512   6.149   4.293 -0.5638  1.3737  0.7273
  186POPC   C3921456   6.553   6.239   4.473 -0.2840 -0.8152  0.3012
  186POPC   H9X21457   6.461   6.298   4.454  0.5065  0.0707 -0.8914
  186POPC   H9Y21458   6.628   6.296   4.533  1.6789 -3.3819  0.4905
  186POPC  C31021459   6.522   6.109   4.549  0.6103 -0.2761  0.1722
  186POPC  H10X21460   6.606   6.036   4.546  1.2139  0.2951  1.8674
  186POPC  H10Y21461   6.436   6.056   4.502  1.7867 -0.6772 -1.6323
  186POPC  C31121462   6.511   6.138   4.696  0.5999 -0.5086 -0.1803
  186POPC  H11X21463   6.605   6.191   4.720 -0.0319  0.5961 -0.1038
  186POPC  H11Y21464   6.502   6.041   4.750 -2.0108 -0.4406 -0.3798
  186POPC  C31221465   6.385   6.218   4.736 -0.3691  0.1970 -0.4225
  186POPC  H12X21466   6.289   6.167   4.714 -0.1883 -2.6573  4.0824
  186POPC  H12Y21467   6.366   6.309   4.676 -3.6793 -1.8788 -2.8550
  186POPC  C31321468   6.382   6.245   4.883 -0.4027 -0.0105 -0.1504
  186POPC  H13X21469   6.411   6.154   4.940 -1.6178  0.0129  0.5315
  186POPC  H13Y21470   6.280   6.264   4.922 -0.6654 -1.6730  0.0372
  186POPC  C31421471   6.475   6.359   4.919  0.0200  0.4582  0.9667
  186POPC  H14X21472   6.432   6.451   4.874 -0.1085  0.1995  0.5522
  186POPC  H14Y21473   6.572   6.343   4.867 -0.2309 -0.7773  0.8343
  186POPC  C31521474   6.484   6.371   5.063 -0.2070 -0.2859  0.0216
  186POPC  H15X21475   6.378   6.382   5.094 -0.9577  0.5530 -2.5545
  186POPC  H15Y21476   6.534   6.467   5.090 -0.3223  0.4256 -2.0866
  186POPC  C31621477   6.550   6.264   5.146 -0.6465  1.2987  0.1943
  186POPC  H16X21478   6.482   6.177   5.141 -0.5278  1.0284  2.3322
  186POPC  H16Y21479   6.560   6.287   5.254  2.1466  0.3609  0.2117
  186POPC  H16Z21480   6.639   6.243   5.082 -2.0787 -0.4293 -1.3231
  187POPC     N21481   3.848   5.718   2.799 -0.9027  0.5558 -0.0669
  187POPC   C1221482   3.857   5.584   2.866  0.9439 -0.1639 -0.7636
  187POPC  H12A21483   3.783   5.580   2.945  0.9605 -2.0387 -0.8214
  187POPC  H12B21484   3.955   5.575   2.910 -0.1636 -0.6292  1.8131
  187POPC   C1321485   3.720   5.747   2.727 -1.1343 -0.4700  0.8488
  187POPC  H13A21486   3.691   5.675   2.651 -3.3984  2.0287 -0.8123
  187POPC  H13B21487   3.639   5.730   2.797 -1.0409 -4.7239  0.1928
  187POPC  H13C21488   3.716   5.849   2.694  0.5241 -1.2481 -2.1659
  187POPC   C1421489   3.865   5.828   2.887  0.1793  0.4646  0.0012
  187POPC  H14A21490   3.774   5.833   2.944 -0.5624 -1.2175 -0.9671
  187POPC  H14B21491   3.945   5.811   2.958 -1.7923 -0.5411  2.0922
  187POPC  H14C21492   3.879   5.924   2.840  0.6590 -0.2150 -1.3056
  187POPC   C1521493   3.961   5.726   2.699  0.5734 -0.0172 -0.0414
  187POPC  H15A21494   3.958   5.815   2.637  1.9595 -0.1953 -0.4073
  187POPC  H15B21495   3.967   5.637   2.638  0.7205 -0.6183  0.8451
  187POPC  H15C21496   4.052   5.743   2.754  2.1798  1.4308 -2.9116
  187POPC   C1121497   3.833   5.456   2.778 -0.1555  0.7464 -0.9219
  187POPC  H11A21498   3.738   5.467   2.723 -0.1573 -0.6614 -1.2317
  187POPC  H11B21499   3.818   5.376   2.853 -0.9389  2.0863  0.3980
  187POPC     P21500   4.072   5.349   2.751 -0.2034  0.0539 -0.1002
  187POPC   O1321501   4.171   5.449   2.789  0.2899 -0.2050  0.0636
  187POPC   O1421502   4.116   5.243   2.658  0.3847  0.2786 -0.2270
  187POPC   O1221503   3.947   5.427   2.699 -0.4681  0.2006 -0.1783
  187POPC   O1121504   4.033   5.292   2.895 -0.3953  0.7168 -0.4322
  187POPC    C121505   3.985   5.160   2.900 -0.4154  0.1037  0.3649
  187POPC    HA21506   4.069   5.087   2.906 -0.3737  0.0573 -0.6163
  187POPC    HB21507   3.925   5.135   2.810 -1.4000 -0.3563  1.1388
  187POPC    C221508   3.894   5.133   3.020 -0.0253 -1.0259 -0.5083
  187POPC    HS21509   3.796   5.179   3.000 -1.4775 -1.5437  4.1872
  187POPC   O2121510   3.959   5.172   3.144  0.5013 -0.5162  0.0965
  187POPC   C2121511   3.885   5.237   3.232 -0.1828  0.0954 -0.3751
  187POPC   O2221512   3.770   5.276   3.222 -0.4380 -0.6317 -0.3624
  187POPC   C2221513   3.977   5.254   3.356  0.1756  0.0186  0.3412
  187POPC   H2R21514   4.062   5.324   3.342  0.6007 -0.0325  2.3748
  187POPC   H2S21515   4.012   5.151   3.378  0.2992  0.3383  1.7273
  187POPC    C321516   3.868   4.983   3.036  0.4300  0.8339  1.0848
  187POPC    HX21517   3.962   4.924   3.037 -1.4977 -2.4899  1.2961
  187POPC    HY21518   3.817   4.950   2.943  0.9434  0.7931  0.8124
  187POPC   O3121519   3.784   4.956   3.154 -0.3291 -0.3810 -0.3410
  187POPC   C3121520   3.661   4.957   3.143  0.5047 -0.4298  0.3102
  187POPC   O3221521   3.600   4.964   3.037  0.2684 -0.6356 -0.5072
  187POPC   C3221522   3.598   4.940   3.282  0.7215 -0.0234  0.0419
  187POPC   H2X21523   3.488   4.948   3.273  0.8397  1.7369 -0.1992
  187POPC   H2Y21524   3.618   5.020   3.356 -1.3685 -0.0010  0.6181
  187POPC   C2321525   3.896   5.329   3.465 -0.4347 -0.4123  0.3332
  187POPC   H3R21526   3.832   5.408   3.420 -2.3914 -1.8518  0.4389
  187POPC   H3S21527   3.971   5.380   3.529 -2.4401  0.5813  2.0215
  187POPC   C2421528   3.824   5.240   3.571  0.3687 -0.3096 -0.0626
  187POPC   H4R21529   3.878   5.144   3.589 -0.0125 -0.4553  0.3053
  187POPC   H4S21530   3.731   5.216   3.515  0.1113 -0.5223  0.4552
  187POPC   C2521531   3.783   5.299   3.709  0.0042 -0.3174 -0.3839
  187POPC   H5R21532   3.736   5.218   3.769  2.8759 -1.4049  0.5645
  187POPC   H5S21533   3.697   5.368   3.695 -1.2294 -1.5946  0.5977
  187POPC   C2621534   3.897   5.384   3.776  0.1778 -0.9144 -0.1569
  187POPC   H6R21535   3.924   5.464   3.704  1.2603 -1.2408 -0.1416
  187POPC   H6S21536   3.998   5.337   3.775  0.9400  0.6714 -0.8615
  187POPC   C2721537   3.850   5.457   3.899  0.2180  0.0344 -0.0194
  187POPC   H7R21538   3.855   5.376   3.975  2.3595 -0.5816 -0.7558
  187POPC   H7S21539   3.746   5.493   3.883  0.2607 -0.1255 -0.6703
  187POPC   C2821540   3.937   5.577   3.934 -0.0755 -1.0285 -0.1259
  187POPC   H8R21541   3.912   5.631   4.029 -0.7203 -0.3586 -0.6609
  187POPC   H8S21542   3.922   5.649   3.851  0.5473 -2.0790 -1.1739
  187POPC   C2921543   4.085   5.532   3.947 -0.5546 -0.2296 -0.3604
  187POPC   H9121544   4.154   5.554   3.864 -0.6646 -1.8477 -0.9281
  187POPC  C21021545   4.133   5.484   4.067  1.0160  1.1051  0.3886
  187POPC  H10121546   4.232   5.436   4.065 -0.0385 -1.2086  0.3627
  187POPC  C21121547   4.050   5.442   4.187  0.1195  0.1317 -0.3242
  187POPC  H11R21548   4.019   5.336   4.191  0.9784 -0.2157 -1.9801
  187POPC  H11S21549   3.954   5.498   4.188 -0.2119 -0.4296 -0.1652
  187POPC  C21221550   4.127   5.467   4.317 -0.2624 -0.0969  0.9887
  187POPC  H12R21551   4.217   5.402   4.308 -1.1761 -1.1727 -1.0090
  187POPC  H12S21552   4.057   5.428   4.395 -1.4264 -0.6718 -0.3057
  187POPC  C21321553   4.159   5.621   4.347  0.0790  0.0851  0.5922
  187POPC  H13R21554   4.074   5.689   4.325  1.0524  1.7273  1.6880
  187POPC  H13S21555   4.231   5.656   4.270 -2.1030 -1.0137 -2.1584
  187POPC  C21421556   4.197   5.648   4.493 -0.1535 -0.3879  0.1348
  187POPC  H14R21557   4.108   5.664   4.558 -0.0315  1.3803 -0.0784
  187POPC  H14S21558   4.260   5.739   4.489  0.3701 -0.7490  0.0832
  187POPC  C21521559   4.276   5.539   4.556  0.3123  0.2327 -0.9001
  187POPC  H15R21560   4.361   5.513   4.489  0.6792  0.4663 -0.5370
  187POPC  H15S21561   4.207   5.452   4.562 -0.3272  0.6459 -2.0662
  187POPC  C21621562   4.322   5.564   4.700 -0.2308  0.0125 -0.8261
  187POPC  H16R21563   4.329   5.465   4.751  1.2560  1.8482  2.9155
  187POPC  H16S21564   4.249   5.617   4.765 -0.0281 -0.0689 -0.5284
  187POPC  C21721565   4.454   5.634   4.700 -0.6009  0.0207  0.0938
  187POPC  H17R21566   4.457   5.690   4.604 -0.3623  0.9929  0.6453
  187POPC  H17S21567   4.541   5.565   4.708  1.4883  2.6677  2.2509
  187POPC  C21821568   4.476   5.737   4.814  0.5477  0.6502 -0.0976
  187POPC  H18R21569   4.521   5.689   4.904  0.2439  0.0808 -0.2406
  187POPC  H18S21570   4.374   5.767   4.845  0.1637 -1.3399  0.7431
  187POPC  H18T21571   4.549   5.817   4.790  2.2867 -0.2595  1.8001
  187POPC   C3321572   3.626   4.802   3.342  0.4838  0.2196  0.2124
  187POPC   H3X21573   3.734   4.793   3.367  1.3766  2.9499 -2.0975
  187POPC   H3Y21574   3.606   4.725   3.265  1.9329  0.8589 -0.8551
  187POPC   C3421575   3.546   4.768   3.468 -0.3698  0.1477  0.3764
  187POPC   H4X21576   3.558   4.657   3.470 -0.5011  0.0435 -1.8863
  187POPC   H4Y21577   3.441   4.795   3.443 -0.5947  0.3284  1.4473
  187POPC   C3521578   3.613   4.837   3.591 -0.3174 -1.0937 -0.5220
  187POPC   H5X21579   3.618   4.942   3.555 -2.9806 -1.3738 -2.0045
  187POPC   H5Y21580   3.718   4.804   3.605 -0.1106 -0.6754 -1.0260
  187POPC   C3621581   3.529   4.831   3.718 -0.4733 -0.0984 -0.0851
  187POPC   H6X21582   3.516   4.725   3.747  1.0647 -0.0092  1.0631
  187POPC   H6Y21583   3.431   4.866   3.679 -0.8223 -1.8360 -0.8581
  187POPC   C3721584   3.583   4.913   3.841 -0.1952  0.3313  0.2357
  187POPC   H7X21585   3.610   5.016   3.810  2.2579  0.2299  1.7599
  187POPC   H7Y21586   3.670   4.855   3.879 -0.5189 -1.7761 -2.0050
  187POPC   C3821587   3.484   4.930   3.954 -0.1534 -0.3986  0.5148
  187POPC   H8X21588   3.434   4.831   3.967 -1.8506  0.3907  0.3380
  187POPC   H8Y21589   3.402   4.995   3.917 -0.1226 -0.6336  0.0324
  187POPC   C3921590   3.550   4.965   4.089 -0.1207 -0.0403  0.1009
  187POPC   H9X21591   3.571   5.074   4.090 -0.8685  0.1373 -1.2769
  187POPC   H9Y21592   3.644   4.906   4.095 -0.5452 -0.6864  0.5236
  187POPC  C31021593   3.446   4.944   4.195 -0.5219 -0.1238  0.3025
  187POPC  H10X21594   3.421   4.837   4.213 -2.0739  0.3720  1.2467
  187POPC  H10Y21595   3.360   4.996   4.148 -1.1973 -0.8643  0.6926
  187POPC  C31121596   3.497   5.000   4.328 -0.7028 -0.3635 -1.4304
  187POPC  H11X21597   3.557   5.093   4.316  0.8174 -1.2102 -0.6513
  187POPC  H11Y21598   3.557   4.918   4.373 -1.7807  1.0557  3.2205
  187POPC  C31221599   3.397   5.034   4.434  0.7556  0.0013  0.1994
  187POPC  H12X21600   3.359   4.939   4.476 -2.1078 -0.1513 -2.3609
  187POPC  H12Y21601   3.299   5.074   4.398  0.5990 -0.2327  0.3586
  187POPC  C31321602   3.439   5.136   4.538  0.0632 -0.9954  0.0681
  187POPC  H13X21603   3.387   5.232   4.517  0.8756 -0.5462  0.0803
  187POPC  H13Y21604   3.545   5.160   4.518  0.5993 -2.7257  0.6201
  187POPC  C31421605   3.416   5.083   4.683  0.3392 -0.0011  0.1569
  187POPC  H14X21606   3.484   4.997   4.705  0.3123 -0.3195 -0.9530
  187POPC  H14Y21607   3.307   5.066   4.694 -0.2150  1.5377 -2.3340
  187POPC  C31521608   3.456   5.179   4.797  0.2498  0.5368  0.2403
  187POPC  H15X21609   3.390   5.162   4.885 -1.4839  0.5637 -1.0080
  187POPC  H15Y21610   3.429   5.279   4.756 -2.7656 -0.4973 -0.5046
  187POPC  C31621611   3.606   5.182   4.825  0.0788  0.0359  0.0258
  187POPC  H16X21612   3.640   5.271   4.883 -0.5165  1.1827 -1.3298
  187POPC  H16Y21613   3.666   5.189   4.732  0.3458  0.6877  0.2375
  187POPC  H16Z21614   3.640   5.092   4.880 -0.4262 -1.4184 -1.9400
  188POPC     N21615   1.365   5.945   2.789 -0.5938 -0.1015 -0.6647
  188POPC   C1221616   1.306   5.883   2.916  0.0726 -0.4700 -0.6632
  188POPC  H12A21617   1.387   5.864   2.984 -1.8037  3.1567  2.9891
  188POPC  H12B21618   1.268   5.788   2.881 -0.0335 -0.7843  0.2650
  188POPC   C1321619   1.464   5.847   2.738  0.1158 -0.4050  0.5371
  188POPC  H13A21620   1.516   5.801   2.821  2.7278  2.3145  0.5830
  188POPC  H13B21621   1.418   5.769   2.679  2.2349 -1.4534  0.1399
  188POPC  H13C21622   1.544   5.893   2.682  0.3678  0.2844  1.4401
  188POPC   C1421623   1.258   5.971   2.683 -0.3975  0.1190  0.1862
  188POPC  H14A21624   1.202   6.062   2.699  0.9667  1.4760 -2.1645
  188POPC  H14B21625   1.314   5.971   2.590  0.9004 -0.8772  0.9408
  188POPC  H14C21626   1.190   5.888   2.676  0.5481 -0.9237  2.6549
  188POPC   C1521627   1.441   6.069   2.813  0.3399  0.5282 -0.2360
  188POPC  H15A21628   1.387   6.135   2.879  0.0295 -0.2502  0.3053
  188POPC  H15B21629   1.460   6.111   2.715 -2.0844 -1.9351 -1.9184
  188POPC  H15C21630   1.536   6.054   2.861  1.0015 -0.3108 -1.7201
  188POPC   C1121631   1.200   5.960   3.002  0.7903 -0.5515 -0.2604
  188POPC  H11A21632   1.142   5.896   3.071 -2.3004  0.1262 -2.0664
  188POPC  H11B21633   1.131   6.003   2.927 -1.8905 -1.5451  1.5192
  188POPC     P21634   1.331   6.056   3.211 -0.5810 -0.2848  0.0134
  188POPC   O1321635   1.356   6.193   3.267  0.3793  0.4526 -0.5648
  188POPC   O1421636   1.446   5.966   3.191 -0.3854  0.2524  0.1179
  188POPC   O1221637   1.260   6.070   3.074 -0.3447 -0.3635  0.2090
  188POPC   O1121638   1.216   5.992   3.289 -0.0271  0.3649 -0.3260
  188POPC    C121639   1.202   6.014   3.428 -0.0278 -0.9460  0.4686
  188POPC    HA21640   1.095   6.003   3.456 -0.5458 -0.4631 -1.1921
  188POPC    HB21641   1.243   6.115   3.450 -0.3590 -0.1571 -2.1198
  188POPC    C221642   1.266   5.904   3.517 -0.3725  0.2333 -0.2588
  188POPC    HS21643   1.367   5.890   3.473 -0.7200 -2.0155 -0.4610
  188POPC   O2121644   1.202   5.780   3.481  0.2757  0.1791 -0.1620
  188POPC   C2121645   1.113   5.722   3.560  0.4179 -0.3960  0.3286
  188POPC   O2221646   1.055   5.772   3.652  0.1261  0.0296  0.0921
  188POPC   C2221647   1.115   5.572   3.518  0.2544 -0.1997  0.0120
  188POPC   H2R21648   1.220   5.536   3.517  0.6322  0.8453  0.2822
  188POPC   H2S21649   1.078   5.562   3.414 -1.3319 -1.0146  0.6196
  188POPC    C321650   1.284   5.934   3.667 -0.3144  0.2288 -0.2344
  188POPC    HX21651   1.182   5.962   3.699 -0.2458 -0.7711  0.9098
  188POPC    HY21652   1.362   6.013   3.677 -0.9105  0.5505  2.6285
  188POPC   O3121653   1.327   5.816   3.741  0.3636 -0.0547  0.3642
  188POPC   C3121654   1.326   5.844   3.869  0.0188 -0.1289  0.1615
  188POPC   O3221655   1.307   5.953   3.920 -0.0629  0.1025  0.9312
  188POPC   C3221656   1.342   5.722   3.956 -0.3774  0.4515  0.1847
  188POPC   H2X21657   1.388   5.631   3.911 -2.4963 -0.2277 -0.7489
  188POPC   H2Y21658   1.236   5.692   3.970 -0.0825 -1.0277 -0.5152
  188POPC   C2321659   1.022   5.484   3.599 -0.7287  0.3248  0.2762
  188POPC   H3R21660   1.036   5.386   3.549  0.3613 -0.3812  1.8668
  188POPC   H3S21661   0.916   5.511   3.583 -0.0652  1.8538 -2.0640
  188POPC   C2421662   1.067   5.473   3.749 -0.4128 -0.1135  0.8244
  188POPC   H4R21663   1.060   5.570   3.801  1.3086 -0.1909  1.2796
  188POPC   H4S21664   1.178   5.464   3.741 -0.3834  0.0867  1.0123
  188POPC   C2521665   1.020   5.340   3.822  0.5863 -0.1301 -0.1390
  188POPC   H5R21666   1.057   5.250   3.767  0.8915 -0.8789  1.2561
  188POPC   H5S21667   0.910   5.328   3.808  0.5589 -1.0643  0.7423
  188POPC   C2621668   1.047   5.337   3.973 -0.4619  0.4740  0.0136
  188POPC   H6R21669   1.152   5.317   4.001 -0.5422  0.4339  0.2937
  188POPC   H6S21670   0.996   5.241   3.993 -0.2042  0.5397  1.0466
  188POPC   C2721671   0.967   5.436   4.053 -0.2753 -0.3095  0.1066
  188POPC   H7R21672   0.861   5.424   4.022  0.0734 -0.6677 -1.0065
  188POPC   H7S21673   0.994   5.541   4.028  2.0091 -1.2154 -1.5837
  188POPC   C2821674   0.972   5.411   4.204  0.3681 -1.4484 -0.1515
  188POPC   H8R21675   1.075   5.426   4.243  0.0540 -0.2367  0.2497
  188POPC   H8S21676   0.944   5.307   4.233  0.0789 -1.7390 -1.4212
  188POPC   C2921677   0.868   5.507   4.266 -0.4693 -0.5399  0.2566
  188POPC   H9121678   0.772   5.529   4.217 -0.2671 -1.4975 -0.6212
  188POPC  C21021679   0.883   5.572   4.385  0.0136  0.4251 -0.2309
  188POPC  H10121680   0.793   5.624   4.420 -0.1274 -0.4811  0.8189
  188POPC  C21121681   1.001   5.566   4.473 -0.2622 -0.1397 -0.1467
  188POPC  H11R21682   1.008   5.659   4.534  0.4518 -0.0773 -0.3153
  188POPC  H11S21683   1.096   5.565   4.416  1.5303  3.8238  2.3231
  188POPC  C21221684   0.999   5.450   4.571  0.4850 -0.3057 -0.5364
  188POPC  H12R21685   1.103   5.425   4.602 -0.2243 -0.8203  1.5804
  188POPC  H12S21686   0.961   5.355   4.529 -1.3903 -0.3197  1.0539
  188POPC  C21321687   0.929   5.485   4.700 -0.2276 -0.1535 -0.6220
  188POPC  H13R21688   0.913   5.394   4.760 -1.4721  1.1122  1.0636
  188POPC  H13S21689   0.827   5.525   4.684  0.4382  1.6632 -0.6542
  188POPC  C21421690   1.018   5.575   4.786 -0.5353 -0.2706 -0.4604
  188POPC  H14R21691   1.017   5.681   4.751 -1.2056  0.1407  0.7376
  188POPC  H14S21692   1.128   5.556   4.782 -0.8725 -2.2028 -2.4028
  188POPC  C21521693   0.964   5.591   4.931  0.0192  0.2450 -0.0909
  188POPC  H15R21694   0.963   5.487   4.971 -0.4557  0.4300  0.3751
  188POPC  H15S21695   0.860   5.629   4.928  0.4105  1.3729  0.1423
  188POPC  C21621696   1.055   5.678   5.022 -0.3824  0.1748 -0.7670
  188POPC  H16R21697   1.059   5.783   4.988  2.5355  0.2124 -0.5720
  188POPC  H16S21698   1.161   5.642   5.016  0.0748  1.2835  0.3598
  188POPC  C21721699   1.017   5.659   5.167  0.5837  0.3250 -0.0715
  188POPC  H17R21700   1.004   5.551   5.188 -1.9450  0.1928 -1.8198
  188POPC  H17S21701   0.919   5.708   5.183  0.6109 -0.1782  1.7892
  188POPC  C21821702   1.117   5.703   5.273 -0.1073  0.1646 -0.3648
  188POPC  H18R21703   1.221   5.674   5.249  0.1782  1.6038 -0.9677
  188POPC  H18S21704   1.095   5.662   5.374  0.0641  1.8911  0.4076
  188POPC  H18T21705   1.129   5.813   5.279 -0.7314  0.1822  1.0303
  188POPC   C3321706   1.407   5.748   4.091  0.0025  0.1540  0.6755
  188POPC   H3X21707   1.415   5.857   4.109 -2.8127  0.4764  0.4565
  188POPC   H3Y21708   1.505   5.696   4.093 -0.0685 -0.0094  0.0830
  188POPC   C3421709   1.329   5.698   4.213 -0.5352  0.1707 -0.3097
  188POPC   H4X21710   1.321   5.587   4.208  1.3791 -0.0096 -0.2493
  188POPC   H4Y21711   1.225   5.738   4.218 -1.2692 -1.7371  0.8665
  188POPC   C3521712   1.398   5.752   4.341 -1.0170 -0.1480  0.0084
  188POPC   H5X21713   1.396   5.862   4.327 -0.9262 -0.1749 -0.2215
  188POPC   H5Y21714   1.504   5.722   4.346 -0.7488 -0.1723 -3.3233
  188POPC   C3621715   1.337   5.709   4.474  0.2648  0.3146  0.2676
  188POPC   H6X21716   1.329   5.600   4.489 -0.6247  0.3084 -0.1995
  188POPC   H6Y21717   1.236   5.756   4.471  0.0994 -0.0918 -0.8416
  188POPC   C3721718   1.414   5.768   4.592 -0.2891 -0.0435  0.2649
  188POPC   H7X21719   1.448   5.868   4.557  0.4087 -0.1843  0.5347
  188POPC   H7Y21720   1.507   5.717   4.626  0.8368  1.2010 -0.8333
  188POPC   C3821721   1.329   5.790   4.716  0.3928  0.2735  0.1584
  188POPC   H8X21722   1.281   5.701   4.762  1.2797  0.0215  0.6149
  188POPC   H8Y21723   1.258   5.872   4.689  0.8887  0.4252 -0.7335
  188POPC   C3921724   1.422   5.854   4.820  0.5971 -0.1490 -0.5913
  188POPC   H9X21725   1.502   5.919   4.778  1.9753 -0.4972  1.3728
  188POPC   H9Y21726   1.476   5.770   4.868 -0.8813 -1.4689 -1.1777
  188POPC  C31021727   1.346   5.950   4.922  0.7637  0.4603  0.0740
  188POPC  H10X21728   1.253   5.900   4.959 -0.7608  2.9263 -0.1945
  188POPC  H10Y21729   1.297   6.031   4.863 -1.3144 -0.3308  0.6094
  188POPC  C31121730   1.443   6.012   5.028 -0.1468  0.8168 -0.2182
  188POPC  H11X21731   1.526   6.066   4.976  0.6999  2.2925  2.5002
  188POPC  H11Y21732   1.493   5.929   5.083  0.3205  1.2048 -0.0505
  188POPC  C31221733   1.369   6.099   5.126 -0.5684  0.1461  0.2145
  188POPC  H12X21734   1.319   6.182   5.073 -1.6083 -1.5943 -1.6807
  188POPC  H12Y21735   1.448   6.131   5.197  0.1889 -2.4231  0.6269
  188POPC  C31321736   1.254   6.035   5.201  1.2976 -0.2660  0.1711
  188POPC  H13X21737   1.286   5.985   5.295 -3.6143 -2.5704  0.9829
  188POPC  H13Y21738   1.197   5.964   5.137 -0.0249  0.5273  0.4114
  188POPC  C31421739   1.144   6.143   5.237 -0.5144 -0.0702 -0.0073
  188POPC  H14X21740   1.120   6.191   5.140  0.0792  1.3944  0.5333
  188POPC  H14Y21741   1.188   6.215   5.310  3.1621 -0.4340 -1.6341
  188POPC  C31521742   1.022   6.071   5.295  0.3214  0.0312  0.5784
  188POPC  H15X21743   1.051   5.994   5.370 -1.6397  0.2721  1.6385
  188POPC  H15Y21744   0.966   6.030   5.208  1.0816  1.2713 -0.5289
  188POPC  C31621745   0.932   6.168   5.373  0.1471  0.2564  0.2898
  188POPC  H16X21746   0.908   6.241   5.293 -0.9276 -0.1296  0.2384
  188POPC  H16Y21747   0.975   6.205   5.468 -3.6850 -1.9621  3.1900
  188POPC  H16Z21748   0.832   6.129   5.403 -0.5097  2.5096  1.2099
  189SAPI   C1221749   5.045   4.144   7.793  0.1502  0.9560 -0.2857
  189SAPI    H221750   4.983   4.158   7.884 -0.0100  1.3201 -0.4515
  189SAPI    O221751   5.087   4.277   7.767 -0.3952  0.5753 -0.3421
  189SAPI   HO221752   5.026   4.320   7.707  0.0338  1.9487  0.1542
  189SAPI   C1321753   5.159   4.047   7.823  0.3170 -0.3210 -0.3652
  189SAPI    H321754   5.122   3.948   7.857  2.8210 -1.3275 -0.4055
  189SAPI    O321755   5.242   4.097   7.933 -0.4488 -0.0840 -0.5925
  189SAPI   HO321756   5.295   4.166   7.895 -0.0972  0.8797  1.5078
  189SAPI   C1421757   5.242   4.016   7.701  0.4738  0.7811  0.6717
  189SAPI    H421758   5.293   4.112   7.675 -0.6496  1.5024  1.0356
  189SAPI    O421759   5.344   3.924   7.723  0.2266 -0.7806  0.3558
  189SAPI   HO421760   5.320   3.832   7.732 -0.0943 -0.5336  2.9704
  189SAPI   C1521761   5.153   3.960   7.590  0.4593 -0.6787 -0.8591
  189SAPI    H521762   5.103   3.874   7.638 -2.2297  0.9343 -0.5683
  189SAPI    O521763   5.222   3.905   7.475 -0.0937 -0.6928 -0.0519
  189SAPI   HO521764   5.195   3.813   7.474  0.7158 -0.9390 -1.5999
  189SAPI   C1621765   5.034   4.057   7.562 -0.1059 -0.0947 -0.3397
  189SAPI    H621766   5.066   4.148   7.508 -2.4498  0.4937 -0.8367
  189SAPI    O621767   4.950   3.989   7.467  0.3320  0.4577 -0.6677
  189SAPI   HO621768   5.001   3.951   7.395  0.4027 -0.7633  0.0087
  189SAPI   C1121769   4.952   4.084   7.684 -0.2384 -0.3874 -0.0251
  189SAPI    H121770   4.925   3.984   7.724 -0.7367 -0.0970  0.3789
  189SAPI     P21771   4.798   4.290   7.589 -0.1905  0.3005  0.1305
  189SAPI   O1321772   4.909   4.385   7.608 -0.0417  0.0691 -0.6088
  189SAPI   O1421773   4.659   4.341   7.629  0.5708  0.1835 -0.1695
  189SAPI   O1221774   4.824   4.152   7.672  0.5261  0.0796 -0.4478
  189SAPI   O1121775   4.802   4.248   7.436 -0.0209 -0.0514  0.0194
  189SAPI    C121776   4.697   4.183   7.369  0.1718  0.2541 -0.4464
  189SAPI    HA21777   4.713   4.074   7.354 -1.3330  0.1958 -1.9706
  189SAPI    HB21778   4.596   4.194   7.415  1.4589 -0.3867  2.8514
  189SAPI    C221779   4.688   4.243   7.223 -0.5705  0.0813  0.0254
  189SAPI    HS21780   4.586   4.207   7.195 -0.4481  0.7367 -1.3132
  189SAPI   O2121781   4.796   4.196   7.134  0.1754 -0.0524  0.3005
  189SAPI   C2121782   4.769   4.073   7.084  0.1805 -0.8502  0.8116
  189SAPI   O2221783   4.682   3.999   7.118  0.0609 -0.3668 -0.2672
  189SAPI   C2221784   4.878   4.045   6.984  0.2920 -0.1616  0.0827
  189SAPI   H2R21785   4.854   4.102   6.892 -1.5529  0.0269  0.6506
  189SAPI   H2S21786   4.978   4.077   7.021  1.6262 -2.1461 -1.5455
  189SAPI    C321787   4.680   4.396   7.216  0.3854 -0.4697  0.0765
  189SAPI    HX21788   4.761   4.459   7.259 -1.0125  0.7620  1.0010
  189SAPI    HY21789   4.586   4.428   7.267  0.6235 -0.4567  0.5120
  189SAPI   O3121790   4.680   4.450   7.083 -0.1603 -0.3590 -0.1964
  189SAPI   C3121791   4.569   4.428   7.000 -0.4600 -0.0722 -0.2664
  189SAPI   O3221792   4.475   4.358   7.036 -0.1340 -0.0255 -0.0099
  189SAPI   C3221793   4.575   4.502   6.870  1.1476  0.0856  0.1209
  189SAPI   H2X21794   4.664   4.569   6.868  1.5231 -0.3223  1.5599
  189SAPI   H2Y21795   4.486   4.568   6.867  1.5198  0.5639 -0.8956
  189SAPI   C2321796   4.904   3.894   6.953 -0.2092 -0.1760  1.0508
  189SAPI   H3R21797   4.806   3.842   6.955  0.2130 -1.1400 -0.5551
  189SAPI   H3S21798   4.957   3.845   7.038  5.2712  1.9605 -0.6663
  189SAPI   C2421799   4.966   3.867   6.812 -0.1804 -0.9733 -0.1237
  189SAPI   H4R21800   4.901   3.883   6.723 -0.8724  0.9942  0.6739
  189SAPI   H4S21801   5.001   3.762   6.804  1.1210 -0.5142 -0.7539
  189SAPI   C2521802   5.087   3.948   6.795 -0.2098  0.0706  0.2305
  189SAPI   H5R21803   5.133   3.995   6.883 -0.3485  0.9055 -0.1312
  189SAPI   C2621804   5.147   3.986   6.679 -0.4290 -0.1391 -0.7817
  189SAPI   H6R21805   5.228   4.058   6.693 -1.6362  0.7694  2.2891
  189SAPI   C2721806   5.122   3.937   6.537  1.0027 -0.6464 -0.1632
  189SAPI   H7R21807   5.167   4.009   6.465 -0.3526 -2.1471 -2.6439
  189SAPI   H7S21808   5.013   3.931   6.516  0.2381 -2.6028  3.6074
  189SAPI   C2821809   5.193   3.803   6.505 -0.5796 -0.3100  0.3551
  189SAPI   H8R21810   5.253   3.762   6.588 -1.4611  1.1811  1.7839
  189SAPI   C2921811   5.207   3.757   6.378  0.3604 -0.3478 -0.2950
  189SAPI   H9R21812   5.254   3.659   6.361  1.3444  0.4697 -2.5962
  189SAPI  C21021813   5.150   3.823   6.258 -0.0963  0.4969  0.7505
  189SAPI  H10R21814   5.161   3.933   6.245 -0.8609  0.3678 -1.2899
  189SAPI  H10S21815   5.039   3.813   6.256  0.1329 -3.3071  0.3843
  189SAPI  C21121816   5.226   3.766   6.140 -0.1263 -0.9276  0.0204
  189SAPI  H11R21817   5.304   3.689   6.149 -0.9716 -1.7823  0.1974
  189SAPI  C21221818   5.183   3.787   6.013 -0.1906  0.4414  0.2808
  189SAPI  H12R21819   5.243   3.743   5.932  2.9768  1.6057  1.8471
  189SAPI  C21321820   5.077   3.885   5.970 -0.0265  0.2010  0.2519
  189SAPI  H13R21821   5.121   3.958   5.900 -0.6856  1.8396  1.4919
  189SAPI  H13S21822   5.047   3.954   6.052 -3.9372  0.2904 -1.0546
  189SAPI  C21421823   4.958   3.810   5.909 -0.2357  0.2076  0.6353
  189SAPI  H14R21824   4.885   3.769   5.980 -2.0108 -1.1112 -1.8212
  189SAPI  C21521825   4.921   3.812   5.780  0.2615 -0.6022  0.5982
  189SAPI  H15R21826   4.841   3.751   5.736  0.4354 -1.0910  0.9583
  189SAPI  C21621827   5.005   3.867   5.668  0.4769 -0.2732  0.1418
  189SAPI  H16R21828   5.043   3.794   5.594  0.9509 -0.7487  0.8429
  189SAPI  H16S21829   5.090   3.932   5.697 -0.2374  0.9291 -0.3746
  189SAPI  C21721830   4.920   3.981   5.596  0.1146 -0.0555  0.7235
  189SAPI  H17R21831   4.988   4.052   5.544 -1.7603  0.5814 -0.9781
  189SAPI  H17S21832   4.861   4.033   5.675  2.0477  1.2504  1.4118
  189SAPI  C21821833   4.824   3.943   5.489 -0.4944  0.0996 -0.1397
  189SAPI  H18R21834   4.768   4.037   5.469 -0.5159 -0.1083 -1.1047
  189SAPI  H18S21835   4.744   3.876   5.528 -2.2751  2.5009  0.5892
  189SAPI  C21921836   4.882   3.886   5.355 -0.9491  0.1543  0.7282
  189SAPI  H19R21837   4.921   3.788   5.390  1.6047  1.6241  2.2526
  189SAPI  H19S21838   4.958   3.956   5.315 -1.3939  0.0353 -0.3762
  189SAPI  C22021839   4.780   3.848   5.235 -0.5237  0.7232 -0.4457
  189SAPI  H20R21840   4.708   3.769   5.264 -0.4494  0.4323 -1.0358
  189SAPI  H20S21841   4.845   3.813   5.153  1.2986 -0.2460  1.3253
  189SAPI  H20T21842   4.723   3.939   5.205  1.5740  2.0116 -0.7909
  189SAPI   C3321843   4.559   4.411   6.754  0.2761 -0.9060  0.2882
  189SAPI   H3X21844   4.466   4.352   6.773 -0.4879  0.0292 -0.4712
  189SAPI   H3Y21845   4.641   4.336   6.758  1.2608  0.0619 -1.1118
  189SAPI   C3421846   4.570   4.487   6.618 -0.5052 -0.0585 -0.8784
  189SAPI   H4X21847   4.647   4.566   6.620 -2.3222  1.7777  0.3141
  189SAPI   H4Y21848   4.479   4.549   6.602 -2.4701 -3.1142 -2.6074
  189SAPI   C3521849   4.577   4.396   6.495 -0.0460 -0.4972 -0.4727
  189SAPI   H5X21850   4.500   4.317   6.495  0.5885 -1.1753 -2.8025
  189SAPI   H5Y21851   4.675   4.344   6.500 -0.3924 -1.1002  3.0991
  189SAPI   C3621852   4.559   4.480   6.366 -0.4971  0.0615  0.0296
  189SAPI   H6X21853   4.632   4.563   6.362  0.0676 -0.4779 -1.6712
  189SAPI   H6Y21854   4.466   4.538   6.386 -0.8136 -0.7917  1.2199
  189SAPI   C3721855   4.542   4.394   6.242  0.9897 -0.1244  0.2776
  189SAPI   H7X21856   4.472   4.308   6.246 -2.0064  2.1912  1.8747
  189SAPI   H7Y21857   4.644   4.352   6.222 -0.1599 -3.4661  0.7077
  189SAPI   C3821858   4.483   4.486   6.125 -0.7752  0.1219  0.4140
  189SAPI   H8X21859   4.563   4.559   6.101 -0.6696  0.8753  2.7791
  189SAPI   H8Y21860   4.391   4.539   6.157 -0.4523  2.0172 -1.5491
  189SAPI   C3921861   4.434   4.397   6.011  0.6820  0.0037  0.6114
  189SAPI   H9X21862   4.352   4.332   6.048  0.1209  0.9493  1.0572
  189SAPI   H9Y21863   4.517   4.329   5.980  0.4000 -0.1816  0.2539
  189SAPI  C31021864   4.385   4.479   5.890 -0.1440 -0.6385 -0.1228
  189SAPI  H10X21865   4.293   4.529   5.927 -1.9015 -3.3442 -0.5101
  189SAPI  H10Y21866   4.342   4.417   5.808  2.7138  0.8010 -2.9209
  189SAPI  C31121867   4.481   4.580   5.833  0.4917 -0.0647  0.2636
  189SAPI  H11X21868   4.578   4.529   5.814 -0.4916 -2.8583  2.0211
  189SAPI  H11Y21869   4.507   4.658   5.908 -0.2288  0.6486 -0.2169
  189SAPI  C31221870   4.440   4.647   5.697  0.2558 -0.5803 -0.0529
  189SAPI  H12X21871   4.337   4.688   5.702  0.9730  1.5753 -1.7625
  189SAPI  H12Y21872   4.434   4.561   5.627 -1.2249 -0.3450 -0.2469
  189SAPI  C31321873   4.537   4.750   5.641 -0.1006  0.0251  0.3841
  189SAPI  H13X21874   4.640   4.709   5.636 -0.0368  0.0049  1.5005
  189SAPI  H13Y21875   4.542   4.845   5.699  0.3101  0.3340 -0.1562
  189SAPI  C31421876   4.494   4.782   5.503 -0.1649  0.2931  0.4709
  189SAPI  H14X21877   4.394   4.829   5.501 -0.6549 -0.7244  0.2660
  189SAPI  H14Y21878   4.494   4.688   5.444  0.9843 -0.7722  2.0714
  189SAPI  C31521879   4.602   4.871   5.440 -0.2221  0.1306  0.1583
  189SAPI  H15X21880   4.698   4.815   5.438  0.3169  1.0689 -0.4151
  189SAPI  H15Y21881   4.618   4.971   5.484  1.2896  0.6950 -1.5566
  189SAPI  C31621882   4.571   4.908   5.292 -0.6726 -0.2286  0.0174
  189SAPI  H16X21883   4.554   4.810   5.242  1.9659  0.4385 -2.4288
  189SAPI  H16Y21884   4.658   4.961   5.248 -0.7905 -0.9906 -1.2024
  189SAPI  C31721885   4.447   4.985   5.267  0.3321  0.1240  0.2986
  189SAPI  H17X21886   4.369   4.934   5.327 -0.1370  1.7032  1.0943
  189SAPI  H17Y21887   4.420   4.977   5.160 -0.6495 -1.4102  0.6379
  189SAPI  C31821888   4.447   5.128   5.315 -0.4583 -0.2303 -0.0065
  189SAPI  H18X21889   4.358   5.171   5.263 -0.6349 -2.6218 -1.8883
  189SAPI  H18Y21890   4.535   5.184   5.275 -0.0466 -1.0886 -0.3157
  189SAPI  H18Z21891   4.458   5.128   5.425 -2.3982 -1.5565  0.2332
  190SAPI   C1221892   5.755   3.468   7.858  0.1467 -0.2666 -0.0403
  190SAPI    H221893   5.660   3.444   7.804  1.0728 -1.9405 -1.0211
  190SAPI    O221894   5.747   3.608   7.865  0.4264 -0.3064  0.0513
  190SAPI   HO221895   5.662   3.632   7.900  0.8722  0.6331  0.5182
  190SAPI   C1321896   5.748   3.398   7.990 -0.6708 -0.4521 -0.6591
  190SAPI    H321897   5.753   3.288   7.972  1.1150 -0.6921  0.8970
  190SAPI    O321898   5.628   3.440   8.058 -0.0253 -0.2394 -0.3059
  190SAPI   HO321899   5.578   3.364   8.089  0.7922 -0.2303  1.1720
  190SAPI   C1421900   5.884   3.432   8.066  0.7175 -0.6395  0.8193
  190SAPI    H421901   5.866   3.540   8.085 -2.3411 -0.4952 -2.0202
  190SAPI    O421902   5.899   3.378   8.197 -0.2834 -0.3230 -0.2484
  190SAPI   HO421903   5.940   3.292   8.188 -1.5757 -1.1019  1.0167
  190SAPI   C1521904   6.016   3.428   7.988 -0.3439 -0.7665 -0.5706
  190SAPI    H521905   6.044   3.321   7.993  0.3658 -0.5287  1.7195
  190SAPI    O521906   6.113   3.493   8.067  0.2266 -0.5061 -0.4309
  190SAPI   HO521907   6.195   3.443   8.075  1.1539  1.0306 -0.0216
  190SAPI   C1621908   6.003   3.469   7.843 -0.7672 -0.7166  0.3284
  190SAPI    H621909   5.996   3.579   7.829 -0.1570 -0.6133  0.8192
  190SAPI    O621910   6.113   3.418   7.772  0.1411 -0.9914  0.3391
  190SAPI   HO621911   6.088   3.421   7.679  0.0165 -0.4824  0.3908
  190SAPI   C1121912   5.879   3.422   7.782  1.1574  0.6168 -0.7424
  190SAPI    H121913   5.893   3.312   7.777 -0.1328  0.4102 -0.3916
  190SAPI     P21914   5.783   3.421   7.529 -0.2507  0.0993 -0.3424
  190SAPI   O1321915   5.745   3.281   7.545 -0.1113  0.6674 -0.8573
  190SAPI   O1421916   5.848   3.455   7.404  0.4257 -0.3779  0.2964
  190SAPI   O1221917   5.881   3.472   7.649 -0.2790  0.2325  0.0503
  190SAPI   O1121918   5.657   3.511   7.544 -0.7355  0.4827  0.2067
  190SAPI    C121919   5.525   3.457   7.533  0.8441 -0.4865 -0.1294
  190SAPI    HA21920   5.510   3.353   7.569  0.8601 -0.3685  0.2209
  190SAPI    HB21921   5.457   3.521   7.593 -0.9077 -2.5787  0.2563
  190SAPI    C221922   5.467   3.487   7.386 -0.0704  0.2299  0.2874
  190SAPI    HS21923   5.361   3.453   7.388 -0.1475  0.4939  1.6178
  190SAPI   O2121924   5.543   3.407   7.295  0.1394 -0.0207  0.0546
  190SAPI   C2121925   5.510   3.283   7.293 -0.3127 -0.5826  0.1723
  190SAPI   O2221926   5.419   3.229   7.356  0.0676  0.1693 -0.3741
  190SAPI   C2221927   5.609   3.222   7.196 -0.0519  0.1506  0.6641
  190SAPI   H2R21928   5.612   3.275   7.099  1.7628 -0.8019  0.1538
  190SAPI   H2S21929   5.709   3.241   7.240  0.6094 -1.3790 -0.1114
  190SAPI    C321930   5.490   3.638   7.347  0.0139  0.2989 -0.8047
  190SAPI    HX21931   5.599   3.650   7.331 -0.0863 -1.5240 -3.3148
  190SAPI    HY21932   5.453   3.712   7.421  0.3474  0.1327 -0.4697
  190SAPI   O3121933   5.420   3.666   7.224  0.0060  0.0889 -0.2642
  190SAPI   C3121934   5.455   3.781   7.175  1.2848 -0.8881 -0.6490
  190SAPI   O3221935   5.520   3.866   7.235  0.0184  0.4908  0.2885
  190SAPI   C3221936   5.400   3.786   7.033 -0.7822 -0.2817  0.4203
  190SAPI   H2X21937   5.391   3.895   7.014 -2.9860  0.0232  2.7604
  190SAPI   H2Y21938   5.302   3.737   7.017 -1.8124  1.5676  0.7693
  190SAPI   C2321939   5.585   3.076   7.166 -0.6759 -0.0902  0.3310
  190SAPI   H3R21940   5.480   3.054   7.138 -0.1733 -1.5112 -0.5165
  190SAPI   H3S21941   5.604   3.012   7.255  0.0651 -0.6139 -0.1980
  190SAPI   C2421942   5.663   3.019   7.047 -0.3751 -0.3362  0.0593
  190SAPI   H4R21943   5.621   3.055   6.950  1.7322  2.1274 -0.0560
  190SAPI   H4S21944   5.652   2.909   7.058 -1.7325 -0.0126  2.8299
  190SAPI   C2521945   5.808   3.053   7.039 -0.2076  0.0228  0.0143
  190SAPI   H5R21946   5.867   3.033   7.129 -0.9925  0.0651  0.5544
  190SAPI   C2621947   5.872   3.100   6.927 -0.6542  0.1428 -0.5807
  190SAPI   H6R21948   5.980   3.119   6.933 -0.7250  0.2730  0.3199
  190SAPI   C2721949   5.817   3.111   6.782  0.0200  0.3164  0.2053
  190SAPI   H7R21950   5.751   3.024   6.763  0.6532 -0.1736  0.1928
  190SAPI   H7S21951   5.892   3.102   6.700  0.6454  4.1481  0.1709
  190SAPI   C2821952   5.748   3.239   6.746  0.5578 -0.2918 -0.2757
  190SAPI   H8R21953   5.712   3.285   6.839  2.0827 -1.0880  0.7418
  190SAPI   C2921954   5.722   3.298   6.629  0.4808  1.0002 -0.5336
  190SAPI   H9R21955   5.653   3.382   6.644  1.0407  1.3788  0.0159
  190SAPI  C21021956   5.753   3.241   6.493 -0.0760  0.6806 -1.0196
  190SAPI  H10R21957   5.666   3.246   6.424  1.2876  0.7127 -2.8304
  190SAPI  H10S21958   5.782   3.133   6.497 -1.1250  0.4122  2.1248
  190SAPI  C21121959   5.872   3.310   6.433  0.0286 -0.6625  0.6803
  190SAPI  H11R21960   5.935   3.375   6.495  0.0134 -0.4041  0.4241
  190SAPI  C21221961   5.916   3.277   6.308 -0.1497 -0.3749  0.2828
  190SAPI  H12R21962   6.006   3.322   6.264 -0.9523 -0.0217 -1.0484
  190SAPI  C21321963   5.852   3.182   6.202  0.2123  0.2675 -0.1407
  190SAPI  H13R21964   5.792   3.096   6.240  2.3685 -1.3587 -0.2589
  190SAPI  H13S21965   5.923   3.121   6.143  1.5458  1.4524  0.1913
  190SAPI  C21421966   5.751   3.265   6.118 -0.5107 -0.2813 -0.1333
  190SAPI  H14R21967   5.664   3.303   6.172 -0.0000 -0.3687  0.7637
  190SAPI  C21521968   5.752   3.281   5.980 -0.0825  0.5409 -1.0187
  190SAPI  H15R21969   5.676   3.354   5.946 -0.8641 -0.0533 -0.5954
  190SAPI  C21621970   5.833   3.227   5.868 -0.4162 -0.1294 -0.3349
  190SAPI  H16R21971   5.922   3.176   5.911 -1.4526 -0.2440  1.7930
  190SAPI  H16S21972   5.869   3.305   5.798  0.9179 -0.4239  0.0011
  190SAPI  C21721973   5.749   3.124   5.796 -0.4173  0.3957 -0.4502
  190SAPI  H17R21974   5.655   3.178   5.769 -0.9764  0.9754  2.3240
  190SAPI  H17S21975   5.716   3.042   5.863  0.1205 -0.7919 -1.6041
  190SAPI  C21821976   5.822   3.058   5.674  0.2842 -0.1049  0.2016
  190SAPI  H18R21977   5.926   3.025   5.696  1.3632  2.6026 -0.5017
  190SAPI  H18S21978   5.829   3.146   5.607  1.9256  0.9501  1.6725
  190SAPI  C21921979   5.737   2.952   5.599  0.9204 -0.9556 -0.1960
  190SAPI  H19R21980   5.639   2.993   5.567  0.7455  1.0820  2.6131
  190SAPI  H19S21981   5.708   2.879   5.678 -0.4435 -0.2016  0.0410
  190SAPI  C22021982   5.801   2.884   5.478  0.3676  0.0996 -0.1689
  190SAPI  H20R21983   5.731   2.806   5.442 -0.2314  0.7560 -0.4419
  190SAPI  H20S21984   5.897   2.840   5.511  0.5585  0.6253 -0.0181
  190SAPI  H20T21985   5.816   2.953   5.392 -0.2199 -0.9579 -1.1488
  190SAPI   C3321986   5.514   3.713   6.947  0.0806 -0.0079  0.1143
  190SAPI   H3X21987   5.531   3.608   6.981  1.0598 -0.1074 -0.6574
  190SAPI   H3Y21988   5.608   3.770   6.961  1.6530 -2.7359  1.5936
  190SAPI   C3421989   5.473   3.720   6.800  0.0263 -0.5129  0.5309
  190SAPI   H4X21990   5.454   3.824   6.767  1.4629 -0.9847 -2.0323
  190SAPI   H4Y21991   5.377   3.666   6.784 -0.3051  0.5543 -1.4287
  190SAPI   C3521992   5.590   3.658   6.727 -0.1176  0.5424 -0.2828
  190SAPI   H5X21993   5.554   3.583   6.654  1.2110  0.5617 -0.9735
  190SAPI   H5Y21994   5.664   3.612   6.796  1.1045  1.9033 -0.6348
  190SAPI   C3621995   5.680   3.768   6.649 -0.1902  0.6181  0.5536
  190SAPI   H6X21996   5.733   3.833   6.722  2.5219 -0.5099 -0.2936
  190SAPI   H6Y21997   5.612   3.828   6.585 -0.3254  0.1098  0.2142
  190SAPI   C3721998   5.778   3.710   6.547  0.1693 -0.0435  0.0346
  190SAPI   H7X21999   5.838   3.640   6.610 -0.3736 -0.7256 -0.1997
  190SAPI   H7Y22000   5.856   3.784   6.518  2.6790 -2.6743 -0.5245
  190SAPI   C3822001   5.715   3.641   6.425 -0.3616  0.2619 -0.2782
  190SAPI   H8X22002   5.639   3.562   6.447  0.5689 -0.7060 -0.4678
  190SAPI   H8Y22003   5.794   3.580   6.376  1.8453  0.3310  2.9369
  190SAPI   C3922004   5.666   3.737   6.318  0.3612 -0.1082 -0.8973
  190SAPI   H9X22005   5.744   3.809   6.288 -1.8274  4.1344  2.4697
  190SAPI   H9Y22006   5.580   3.793   6.360  0.2496 -0.0659 -1.1800
  190SAPI  C31022007   5.626   3.646   6.199  0.3624 -0.3138  0.5436
  190SAPI  H10X22008   5.544   3.579   6.234 -0.3605  0.6635  0.7754
  190SAPI  H10Y22009   5.707   3.578   6.166  2.2330  2.2677 -0.4848
  190SAPI  C31122010   5.580   3.740   6.085  0.6173 -1.1878 -0.4261
  190SAPI  H11X22011   5.662   3.808   6.054  0.5587 -2.5974 -4.1894
  190SAPI  H11Y22012   5.501   3.814   6.111 -1.2131 -2.2957 -2.4801
  190SAPI  C31222013   5.541   3.670   5.955  0.1613 -0.6016 -0.5071
  190SAPI  H12X22014   5.467   3.590   5.975  2.8044 -2.9419  0.5115
  190SAPI  H12Y22015   5.628   3.617   5.912 -0.4614 -2.1752  0.0904
  190SAPI  C31322016   5.498   3.781   5.851  0.3783  0.0889  0.3654
  190SAPI  H13X22017   5.584   3.851   5.844  0.6680 -0.2393  0.6418
  190SAPI  H13Y22018   5.416   3.843   5.893 -0.2810 -0.2405 -0.4123
  190SAPI  C31422019   5.450   3.723   5.723 -0.6703  0.1282 -0.2233
  190SAPI  H14X22020   5.380   3.642   5.753 -1.1465  0.2491 -1.0033
  190SAPI  H14Y22021   5.535   3.677   5.667  0.4680 -0.8687  2.1571
  190SAPI  C31522022   5.380   3.830   5.633 -0.4482  0.4538  0.0627
  190SAPI  H15X22023   5.455   3.904   5.597  0.6491 -1.7981 -2.5978
  190SAPI  H15Y22024   5.313   3.889   5.699 -0.3601  0.7913 -0.1479
  190SAPI  C31622025   5.308   3.767   5.514  0.0324 -0.3288 -0.4789
  190SAPI  H16X22026   5.235   3.844   5.481  1.0174  0.4470 -0.9149
  190SAPI  H16Y22027   5.249   3.677   5.542  1.5802 -0.8466  1.2857
  190SAPI  C31722028   5.400   3.731   5.396 -0.1891  0.1351  0.0933
  190SAPI  H17X22029   5.454   3.637   5.422  2.4546  1.4113 -0.4597
  190SAPI  H17Y22030   5.477   3.811   5.395 -0.6278  0.6696  2.3866
  190SAPI  C31822031   5.333   3.715   5.261 -0.3481 -0.2299 -0.1801
  190SAPI  H18X22032   5.303   3.816   5.227 -1.6297 -1.4322 -2.9699
  190SAPI  H18Y22033   5.242   3.651   5.273 -0.9474  0.8452  1.4088
  190SAPI  H18Z22034   5.388   3.655   5.185 -0.4063 -1.9773  1.0904
  191SAPI   C1222035   1.816   1.012   3.313  0.2450  0.6629  0.3057
  191SAPI    H222036   1.896   0.949   3.358  0.2793  1.8117  1.9212
  191SAPI    O222037   1.713   1.009   3.420 -0.2084 -0.0118  0.3268
  191SAPI   HO222038   1.657   0.937   3.389 -1.1952  0.6988  0.4162
  191SAPI   C1322039   1.871   1.144   3.285  0.7252  0.8049  0.7150
  191SAPI    H322040   1.944   1.139   3.202  1.5420 -2.4446  1.4836
  191SAPI    O322041   1.931   1.193   3.403 -0.3188  0.2355  0.0519
  191SAPI   HO322042   2.011   1.241   3.382 -0.5231  1.2573  1.4511
  191SAPI   C1422043   1.753   1.234   3.243  0.1006  0.1052 -0.4482
  191SAPI    H422044   1.685   1.238   3.331 -0.5503 -1.0468 -0.8717
  191SAPI    O422045   1.811   1.362   3.210  0.0248 -0.0267  0.1227
  191SAPI   HO422046   1.801   1.419   3.287 -1.5030  0.3313 -0.3027
  191SAPI   C1522047   1.664   1.187   3.136 -0.7754  0.4879  0.1757
  191SAPI    H522048   1.724   1.202   3.044 -0.6442  0.7422  0.3029
  191SAPI    O522049   1.546   1.262   3.118 -0.3854  0.0569 -0.4112
  191SAPI   HO522050   1.567   1.339   3.066  0.8492  0.2365  0.3207
  191SAPI   C1622051   1.631   1.030   3.141 -0.4446 -0.1923  0.2886
  191SAPI    H622052   1.558   1.022   3.225  0.7398 -1.3557  1.2531
  191SAPI    O622053   1.580   0.974   3.024 -0.2171  0.1018 -0.0902
  191SAPI   HO622054   1.625   1.018   2.951  1.4026 -0.4678  0.5293
  191SAPI   C1122055   1.753   0.948   3.188  0.0697 -0.0112 -0.5467
  191SAPI    H122056   1.828   0.953   3.106  0.5145 -0.0946 -0.1448
  191SAPI     P22057   1.815   0.681   3.184 -0.0722 -0.1721  0.3033
  191SAPI   O1322058   1.928   0.732   3.099 -0.2504  0.2402 -0.2176
  191SAPI   O1422059   1.741   0.559   3.133 -0.0375  0.0128  0.0187
  191SAPI   O1222060   1.710   0.811   3.217  0.5514  1.1178  0.5317
  191SAPI   O1122061   1.872   0.641   3.327 -0.3125 -0.1063  0.0061
  191SAPI    C122062   1.787   0.632   3.441 -0.4811  0.1935 -0.0862
  191SAPI    HA22063   1.772   0.736   3.476 -0.9843 -0.2828  1.2020
  191SAPI    HB22064   1.700   0.569   3.413 -0.0137 -0.2985 -0.4531
  191SAPI    C222065   1.863   0.559   3.556 -0.9274  0.1475  0.7407
  191SAPI    HS22066   1.793   0.564   3.642 -1.2361  2.2310  0.4335
  191SAPI   O2122067   1.990   0.627   3.591 -0.1829 -0.7749  0.0391
  191SAPI   C2122068   2.021   0.653   3.715  0.6196 -0.6767 -0.1794
  191SAPI   O2222069   1.954   0.620   3.813  0.0832 -0.2612  0.3863
  191SAPI   C2222070   2.166   0.714   3.727  0.8426 -0.4651 -0.3262
  191SAPI   H2R22071   2.224   0.659   3.650 -0.6673  0.3159 -2.0996
  191SAPI   H2S22072   2.160   0.817   3.684  0.8886 -0.6458 -0.7733
  191SAPI    C322073   1.907   0.406   3.536 -0.2743 -0.4079  0.2637
  191SAPI    HX22074   1.977   0.399   3.449 -0.4782  0.9051 -0.0261
  191SAPI    HY22075   1.818   0.353   3.497 -0.8174  0.2619  0.5775
  191SAPI   O3122076   1.975   0.341   3.645 -0.1295 -0.2803  0.6495
  191SAPI   C3122077   1.895   0.322   3.754 -0.2018  0.0401  0.6947
  191SAPI   O3222078   1.775   0.314   3.747  0.2866 -0.2892 -0.0284
  191SAPI   C3222079   1.986   0.281   3.866 -0.4675 -0.4106  0.0546
  191SAPI   H2X22080   2.051   0.365   3.900  0.3269 -1.1616  0.4510
  191SAPI   H2Y22081   2.054   0.200   3.829 -0.1482 -0.7338  1.2945
  191SAPI   C2322082   2.249   0.698   3.856  1.1334 -0.4242  0.5219
  191SAPI   H3R22083   2.197   0.743   3.943 -0.3952  1.4252 -1.2338
  191SAPI   H3S22084   2.336   0.766   3.843  0.3771  0.2748 -1.0707
  191SAPI   C2422085   2.292   0.554   3.880  0.3994 -0.7035 -0.2304
  191SAPI   H4R22086   2.288   0.513   3.777  1.4765 -2.2068  0.2719
  191SAPI   H4S22087   2.206   0.508   3.933  0.0451  0.7300  0.4867
  191SAPI   C2522088   2.419   0.539   3.957  0.1240  0.8331  1.0140
  191SAPI   H5R22089   2.499   0.527   3.883 -1.3300 -0.0742 -0.4800
  191SAPI   C2622090   2.434   0.503   4.083 -0.2178  0.4942 -0.3189
  191SAPI   H6R22091   2.539   0.484   4.111 -0.1799 -0.0006 -0.7823
  191SAPI   C2722092   2.323   0.493   4.184 -0.2904 -0.4914  0.1230
  191SAPI   H7R22093   2.339   0.397   4.238  2.1470 -1.4706 -2.1339
  191SAPI   H7S22094   2.224   0.479   4.135 -0.1431  1.1020 -0.6735
  191SAPI   C2822095   2.333   0.617   4.274  0.4770  0.1042 -0.6264
  191SAPI   H8R22096   2.293   0.708   4.226 -0.3934  0.0290 -0.0588
  191SAPI   C2922097   2.359   0.614   4.407  0.3529 -0.0072  0.6055
  191SAPI   H9R22098   2.358   0.710   4.460 -0.1045 -0.2985  1.1324
  191SAPI  C21022099   2.377   0.502   4.499 -0.2367 -0.8094  0.2045
  191SAPI  H10R22100   2.468   0.519   4.560  1.6600  0.7103 -2.7958
  191SAPI  H10S22101   2.389   0.411   4.436 -1.4635  1.1541 -3.1457
  191SAPI  C21122102   2.259   0.492   4.596 -0.1536  0.3272 -0.1630
  191SAPI  H11R22103   2.166   0.465   4.543 -0.7494  2.2099 -0.1731
  191SAPI  C21222104   2.255   0.481   4.736  0.1229 -0.0426 -0.2690
  191SAPI  H12R22105   2.154   0.471   4.779 -0.6541  1.3551 -1.6452
  191SAPI  C21322106   2.365   0.468   4.836  0.3069 -0.5828  0.3815
  191SAPI  H13R22107   2.454   0.527   4.803 -0.5357  1.3992  1.4883
  191SAPI  H13S22108   2.390   0.361   4.853  0.8761 -0.4434  0.4817
  191SAPI  C21422109   2.337   0.529   4.974  0.2857  0.0848 -0.3415
  191SAPI  H14R22110   2.289   0.627   4.974  0.5272  0.2351  1.3722
  191SAPI  C21522111   2.363   0.463   5.092  0.3606  0.2065  0.3249
  191SAPI  H15R22112   2.329   0.511   5.185  1.0041  0.4145  0.4622
  191SAPI  C21622113   2.419   0.327   5.110 -0.0846 -0.0166 -0.4103
  191SAPI  H16R22114   2.492   0.342   5.192  0.3477  0.9786 -0.9560
  191SAPI  H16S22115   2.486   0.287   5.032  2.2439  0.9284  0.9915
  191SAPI  C21722116   2.319   0.207   5.148 -0.1885 -0.3504 -1.0400
  191SAPI  H17R22117   2.242   0.230   5.225  0.8848  0.9371 -0.3212
  191SAPI  H17S22118   2.390   0.128   5.181 -0.4719  0.4799  1.8137
  191SAPI  C21822119   2.259   0.145   5.027  0.0567  0.8482 -0.6748
  191SAPI  H18R22120   2.340   0.114   4.957  0.8391  2.2991 -0.4459
  191SAPI  H18S22121   2.208   0.227   4.973  0.9972  2.4845  0.8326
  191SAPI  C21922122   2.170   0.022   5.049 -0.3103  0.0132 -0.4830
  191SAPI  H19R22123   2.080   0.065   5.097  1.7511  1.7266  2.0887
  191SAPI  H19S22124   2.200  -0.048   5.129 -1.7056  3.8156  3.7798
  191SAPI  C22022125   2.141  -0.043   4.918 -0.3525  0.4226  0.3361
  191SAPI  H20R22126   2.137   0.042   4.847  1.6880 -1.6891 -2.5524
  191SAPI  H20S22127   2.048  -0.100   4.898  0.5746 -0.3340 -2.3502
  191SAPI  H20T22128   2.222  -0.108   4.878 -1.6819 -0.0636 -1.7029
  191SAPI   C3322129   1.906   0.226   3.981  0.4354  0.0210  0.6410
  191SAPI   H3X22130   1.863   0.126   3.960  1.3796 -0.2305 -0.1433
  191SAPI   H3Y22131   1.823   0.296   4.009  0.4930  0.3350  0.0282
  191SAPI   C3422132   2.013   0.198   4.096  0.8454 -0.2192 -0.1915
  191SAPI   H4X22133   2.068   0.294   4.096 -0.4075  0.5339 -1.2793
  191SAPI   H4Y22134   2.092   0.126   4.065  1.6613  0.6664 -0.2117
  191SAPI   C3522135   1.957   0.161   4.229  0.3744  0.1723  0.4397
  191SAPI   H5X22136   1.907   0.063   4.216 -0.5950  0.7702 -0.5615
  191SAPI   H5Y22137   1.880   0.237   4.257 -0.5777 -0.1322 -1.2001
  191SAPI   C3622138   2.063   0.145   4.339  0.0117 -0.2201 -0.0496
  191SAPI   H6X22139   2.127   0.234   4.357  1.0343 -0.4640 -2.1642
  191SAPI   H6Y22140   2.128   0.067   4.293  0.8925 -1.5172  3.1404
  191SAPI   C3722141   2.008   0.086   4.469  0.3524 -0.2498 -0.1345
  191SAPI   H7X22142   2.085   0.019   4.513 -0.6866 -1.6852 -0.4224
  191SAPI   H7Y22143   1.926   0.018   4.437 -0.1989  0.5831 -0.5388
  191SAPI   C3822144   1.940   0.187   4.563  0.1516  0.0055  0.8222
  191SAPI   H8X22145   1.834   0.191   4.531 -1.0131 -1.7607  4.0112
  191SAPI   H8Y22146   1.991   0.285   4.548  1.7763 -0.8210  0.7010
  191SAPI   C3922147   1.963   0.153   4.708 -0.4357  0.0789 -0.3105
  191SAPI   H9X22148   2.071   0.167   4.725  0.1425 -2.3474 -1.6062
  191SAPI   H9Y22149   1.934   0.047   4.720  1.3728 -1.1180 -4.6713
  191SAPI  C31022150   1.898   0.261   4.799 -0.1193 -0.9726 -0.7634
  191SAPI  H10X22151   1.790   0.259   4.773 -0.2397  1.3071 -0.7111
  191SAPI  H10Y22152   1.930   0.362   4.764  1.1308  0.0168  2.7619
  191SAPI  C31122153   1.922   0.250   4.950  0.3915 -0.3649  0.3303
  191SAPI  H11X22154   2.023   0.278   4.987 -0.0282  0.0798  1.1818
  191SAPI  H11Y22155   1.909   0.143   4.978  0.5439 -0.3920  0.2969
  191SAPI  C31222156   1.818   0.332   5.032 -0.7262  0.6333  0.0048
  191SAPI  H12X22157   1.715   0.309   4.999 -0.9320 -0.6567  1.4372
  191SAPI  H12Y22158   1.847   0.438   5.016 -0.6549  0.4209 -1.3655
  191SAPI  C31322159   1.812   0.302   5.186 -0.4061 -0.1010 -0.0702
  191SAPI  H13X22160   1.744   0.370   5.241  0.7472 -1.1396  2.8451
  191SAPI  H13Y22161   1.907   0.317   5.243 -0.7136 -1.4558  0.8753
  191SAPI  C31422162   1.771   0.160   5.217 -0.0587 -0.6172 -0.5242
  191SAPI  H14X22163   1.848   0.095   5.170  1.1826  0.1760  0.3366
  191SAPI  H14Y22164   1.681   0.133   5.158 -1.4626  0.5463  0.9988
  191SAPI  C31522165   1.741   0.120   5.363 -0.5675 -0.5718  1.0483
  191SAPI  H15X22166   1.692   0.020   5.360 -0.4878 -0.5977 -1.3815
  191SAPI  H15Y22167   1.668   0.197   5.396 -1.7592  0.1404 -2.7878
  191SAPI  C31622168   1.860   0.119   5.461 -0.6466  0.5732  0.5785
  191SAPI  H16X22169   1.834   0.071   5.558  0.1925  1.1423  1.1053
  191SAPI  H16Y22170   1.900   0.220   5.487 -1.3676  1.1873 -0.6244
  191SAPI  C31722171   1.979   0.046   5.407 -0.7244  0.6968  0.2602
  191SAPI  H17X22172   2.055   0.049   5.489  1.9396  0.5182 -2.0577
  191SAPI  H17Y22173   2.022   0.099   5.319  0.3126 -1.7560 -0.7890
  191SAPI  C31822174   1.962  -0.109   5.382 -0.2658  0.0750  0.2109
  191SAPI  H18X22175   2.061  -0.152   5.358 -0.6684 -0.7789  0.0451
  191SAPI  H18Y22176   1.900  -0.113   5.290 -0.4462 -1.5525  0.3793
  191SAPI  H18Z22177   1.922  -0.172   5.464 -1.7319 -1.0033 -1.2551
  192SAPI   C1222178   4.921   2.235   3.069 -0.1803 -1.0394  0.2417
  192SAPI    H222179   4.876   2.219   3.169  2.7021 -0.1307  1.7831
  192SAPI    O222180   4.925   2.374   3.033  0.4876  0.0967  0.5021
  192SAPI   HO222181   4.851   2.412   3.079 -2.0874 -2.3421 -1.2933
  192SAPI   C1322182   5.059   2.180   3.077 -0.6025  0.6726 -0.0325
  192SAPI    H322183   5.056   2.070   3.089  0.6159  0.5052 -1.0414
  192SAPI    O322184   5.120   2.226   3.196  0.1828  0.2465  0.3648
  192SAPI   HO322185   5.086   2.179   3.272  1.1945  1.1991  1.4371
  192SAPI   C1422186   5.139   2.203   2.958  0.0863 -0.0499 -0.2602
  192SAPI    H422187   5.146   2.314   2.957  1.1955 -0.1056 -1.1136
  192SAPI    O422188   5.274   2.155   2.974 -0.1956  0.4918  0.4687
  192SAPI   HO422189   5.265   2.065   3.008 -3.0197  0.0216 -1.2290
  192SAPI   C1522190   5.070   2.164   2.830 -0.7019  0.5647 -0.1059
  192SAPI    H522191   5.083   2.054   2.817 -0.8172  0.5990 -0.5238
  192SAPI    O522192   5.142   2.212   2.721  0.5350  0.2993  0.0728
  192SAPI   HO522193   5.222   2.159   2.721 -0.3526 -1.3431  3.7205
  192SAPI   C1622194   4.918   2.169   2.826  0.0645  0.6791  0.0167
  192SAPI    H622195   4.886   2.271   2.797  1.1463  1.1064  0.2804
  192SAPI    O622196   4.859   2.074   2.734  0.3729 -0.2717 -0.1820
  192SAPI   HO622197   4.763   2.071   2.740  0.2893 -2.8218 -1.5318
  192SAPI   C1122198   4.843   2.160   2.963 -0.2046  1.1847  0.0528
  192SAPI    H122199   4.856   2.055   2.997 -1.9123  1.2565  1.0255
  192SAPI     P22200   4.585   2.079   2.962  0.5071 -0.0937 -0.0984
  192SAPI   O1322201   4.601   1.990   2.847  0.0580  0.3289 -0.2799
  192SAPI   O1422202   4.450   2.134   2.967  0.0422 -0.1443  0.0700
  192SAPI   O1222203   4.702   2.196   2.969  0.3253 -0.2622 -0.5154
  192SAPI   O1122204   4.628   2.000   3.096  0.2936 -0.3806  0.3567
  192SAPI    C122205   4.600   2.049   3.226 -0.3381 -0.1416 -0.4374
  192SAPI    HA22206   4.694   2.071   3.281 -0.4255 -0.3780 -0.1855
  192SAPI    HB22207   4.527   2.132   3.231  0.0284  0.1081  2.3977
  192SAPI    C222208   4.532   1.943   3.317 -0.1132  0.3155 -0.1235
  192SAPI    HS22209   4.599   1.854   3.323 -0.8626 -0.2545 -0.0918
  192SAPI   O2122210   4.399   1.919   3.269  0.6049 -0.4716 -0.0097
  192SAPI   C2122211   4.361   1.787   3.284  0.3545 -0.2609 -0.1436
  192SAPI   O2222212   4.424   1.694   3.326 -0.4926 -0.3459  0.0012
  192SAPI   C2222213   4.226   1.767   3.217 -0.0719 -0.2109 -0.1117
  192SAPI   H2R22214   4.153   1.840   3.257  2.1037  2.7753 -1.2084
  192SAPI   H2S22215   4.232   1.795   3.110 -3.0498  0.3250 -0.2180
  192SAPI    C322216   4.524   2.005   3.462  0.4141 -0.5049 -0.0289
  192SAPI    HX22217   4.469   1.933   3.526 -2.4661  2.6060  1.2957
  192SAPI    HY22218   4.470   2.102   3.454  0.5098 -0.4202  0.3447
  192SAPI   O3122219   4.645   2.047   3.528  0.4788  0.5071 -0.3828
  192SAPI   C3122220   4.701   1.954   3.601 -0.0943 -0.4549 -0.2320
  192SAPI   O3222221   4.665   1.839   3.615 -0.3220  0.0304 -0.4763
  192SAPI   C3222222   4.804   2.017   3.686  0.5653 -0.9848 -0.3023
  192SAPI   H2X22223   4.835   2.119   3.651  1.9250 -1.7542 -1.4846
  192SAPI   H2Y22224   4.890   1.947   3.691  1.0570 -0.4388 -0.8362
  192SAPI   C2322225   4.161   1.630   3.247  0.1367 -0.2364 -0.4837
  192SAPI   H3R22226   4.233   1.549   3.220  1.6771  0.8406  0.2460
  192SAPI   H3S22227   4.064   1.620   3.195 -0.1498 -0.0153 -0.0028
  192SAPI   C2422228   4.120   1.606   3.398 -0.4408  0.1851  0.5835
  192SAPI   H4R22229   4.214   1.598   3.457  0.3416 -2.9431 -0.8718
  192SAPI   H4S22230   4.076   1.504   3.396 -0.9694  0.4181 -0.7247
  192SAPI   C2522231   4.022   1.709   3.446  0.4133  1.1110  0.8488
  192SAPI   H5R22232   3.930   1.700   3.387  0.3102  0.3663  1.1073
  192SAPI   C2622233   4.034   1.800   3.538  0.3592  0.3144 -0.2253
  192SAPI   H6R22234   3.952   1.863   3.575  1.0499  0.1631  1.7202
  192SAPI   C2722235   4.162   1.819   3.611  0.2061  0.6657 -0.7899
  192SAPI   H7R22236   4.242   1.841   3.538 -0.2990  0.1805 -1.4940
  192SAPI   H7S22237   4.184   1.716   3.649 -2.7785  0.7815  1.7121
  192SAPI   C2822238   4.172   1.920   3.716  0.1909  0.3786  0.0199
  192SAPI   H8R22239   4.079   1.978   3.722 -1.0782 -1.2801 -2.0058
  192SAPI   C2922240   4.261   1.925   3.812 -0.0874 -0.3245  0.2832
  192SAPI   H9R22241   4.260   1.995   3.897  0.5173  1.0654 -0.8114
  192SAPI  C21022242   4.382   1.835   3.810 -0.5068 -0.1621  0.1223
  192SAPI  H10R22243   4.452   1.914   3.844 -3.0969  2.3429 -0.0651
  192SAPI  H10S22244   4.424   1.803   3.712 -1.1585 -0.0692 -0.1912
  192SAPI  C21122245   4.362   1.714   3.894  0.3566 -0.1438  0.7306
  192SAPI  H11R22246   4.275   1.659   3.856 -0.9521  3.0417 -1.3542
  192SAPI  C21222247   4.427   1.673   4.003 -0.3491 -0.3231 -0.5032
  192SAPI  H12R22248   4.406   1.575   4.047  1.1820 -0.2436  0.4798
  192SAPI  C21322249   4.548   1.742   4.060 -0.1374  0.1144  0.1890
  192SAPI  H13R22250   4.520   1.829   4.124  2.2637  1.3241 -0.2881
  192SAPI  H13S22251   4.615   1.788   3.985 -2.0732 -2.5543 -3.5260
  192SAPI  C21422252   4.624   1.635   4.132 -0.3438  0.2663  0.0597
  192SAPI  H14R22253   4.697   1.581   4.070  0.4977 -0.3307  1.5153
  192SAPI  C21522254   4.601   1.597   4.258 -0.1394  0.1267 -0.3244
  192SAPI  H15R22255   4.668   1.521   4.301  2.8133  2.3227 -0.7420
  192SAPI  C21622256   4.504   1.663   4.354 -0.5995 -0.5756  0.4026
  192SAPI  H16R22257   4.425   1.586   4.367  1.0378 -2.1000  1.8467
  192SAPI  H16S22258   4.474   1.762   4.312  2.1106 -0.5508 -1.7624
  192SAPI  C21722259   4.560   1.682   4.493  0.1095  0.7288 -0.1933
  192SAPI  H17R22260   4.643   1.756   4.496 -1.1805  2.2042  0.9664
  192SAPI  H17S22261   4.597   1.581   4.521 -2.5918 -0.8933 -2.0020
  192SAPI  C21822262   4.444   1.710   4.590  0.3882  1.0889  0.4269
  192SAPI  H18R22263   4.370   1.628   4.589  2.5655 -1.0088  1.0578
  192SAPI  H18S22264   4.397   1.809   4.572 -2.2819 -0.3321 -0.9925
  192SAPI  C21922265   4.501   1.713   4.742 -0.2140 -0.3141  0.2947
  192SAPI  H19R22266   4.574   1.797   4.739 -0.9477  0.3212 -0.8025
  192SAPI  H19S22267   4.550   1.618   4.771  0.1204  0.8421  3.9810
  192SAPI  C22022268   4.377   1.739   4.829  0.3141  0.3213 -0.0999
  192SAPI  H20R22269   4.332   1.838   4.810 -0.5521  0.1113  0.7614
  192SAPI  H20S22270   4.415   1.727   4.933  0.2462  0.4316 -0.0628
  192SAPI  H20T22271   4.299   1.662   4.808  0.0626  0.0289  1.6950
  192SAPI   C3322272   4.769   2.014   3.839  0.3255 -0.1154  0.1948
  192SAPI   H3X22273   4.800   1.916   3.880 -1.3124  0.3632  2.8105
  192SAPI   H3Y22274   4.659   2.031   3.850  0.4370  0.6544  0.1408
  192SAPI   C3422275   4.850   2.126   3.915  0.3087 -0.3483 -0.6830
  192SAPI   H4X22276   4.846   2.231   3.878  0.6470  1.3362  3.4542
  192SAPI   H4Y22277   4.958   2.103   3.906  0.4727 -0.4115  1.0357
  192SAPI   C3522278   4.806   2.146   4.068 -0.4886  0.4260  0.6924
  192SAPI   H5X22279   4.701   2.114   4.082 -0.3600 -1.4478 -1.9651
  192SAPI   H5Y22280   4.820   2.253   4.098 -0.5408 -0.0179  2.3851
  192SAPI   C3622281   4.894   2.060   4.157 -0.2075 -0.0581 -0.9280
  192SAPI   H6X22282   5.000   2.087   4.174 -0.6445  0.7496  0.6708
  192SAPI   H6Y22283   4.897   1.959   4.109  1.1146 -0.2726 -0.4278
  192SAPI   C3722284   4.838   2.053   4.299 -0.1522 -0.5429 -0.1175
  192SAPI   H7X22285   4.906   1.985   4.355  0.9991  1.2372  0.7183
  192SAPI   H7Y22286   4.734   2.015   4.290 -0.5181  0.8593 -2.4943
  192SAPI   C3822287   4.825   2.191   4.359 -0.6189 -0.0216 -0.6356
  192SAPI   H8X22288   4.754   2.257   4.305 -0.2784 -2.2986 -4.1860
  192SAPI   H8Y22289   4.925   2.237   4.349 -0.4147 -0.0956  0.8194
  192SAPI   C3922290   4.796   2.189   4.514  1.1555  0.6520  0.3162
  192SAPI   H9X22291   4.800   2.290   4.562  1.2832  1.3087 -1.0473
  192SAPI   H9Y22292   4.868   2.124   4.567  0.5884 -1.0612 -0.9493
  192SAPI  C31022293   4.651   2.139   4.538 -0.9964  0.2584  0.1760
  192SAPI  H10X22294   4.657   2.037   4.581  1.4854 -0.8640 -2.4733
  192SAPI  H10Y22295   4.591   2.133   4.444  3.0072  0.0775 -2.6408
  192SAPI  C31122296   4.573   2.224   4.639 -0.8208  0.2365  0.0030
  192SAPI  H11X22297   4.561   2.326   4.598 -3.0388 -0.3528 -0.9200
  192SAPI  H11Y22298   4.646   2.215   4.723  1.0597 -0.7071 -1.6235
  192SAPI  C31222299   4.438   2.163   4.679  0.1183  0.1268 -0.2414
  192SAPI  H12X22300   4.444   2.063   4.728  0.2906  0.1819 -0.1502
  192SAPI  H12Y22301   4.373   2.156   4.590 -0.6126 -1.5865  0.3754
  192SAPI  C31322302   4.346   2.249   4.775  0.0182 -0.2136  0.0568
  192SAPI  H13X22303   4.259   2.182   4.789 -1.0509  0.5113 -2.4627
  192SAPI  H13Y22304   4.312   2.335   4.714  0.6418  0.3529  0.5002
  192SAPI  C31422305   4.416   2.290   4.908 -0.1808  0.3504 -0.4544
  192SAPI  H14X22306   4.340   2.341   4.971 -0.1676  1.5542 -1.3860
  192SAPI  H14Y22307   4.492   2.370   4.896 -0.5901  0.9523  0.8123
  192SAPI  C31522308   4.484   2.179   4.991  0.1021 -0.0156  0.0578
  192SAPI  H15X22309   4.573   2.147   4.934 -0.7586 -0.2854 -1.1757
  192SAPI  H15Y22310   4.403   2.103   4.985 -1.4518  1.6606 -1.1816
  192SAPI  C31622311   4.520   2.212   5.130 -0.6512 -0.3797 -0.5839
  192SAPI  H16X22312   4.436   2.259   5.186 -0.1423  0.0959 -0.1944
  192SAPI  H16Y22313   4.607   2.279   5.115  0.4493 -1.6566 -0.1120
  192SAPI  C31722314   4.568   2.087   5.214 -0.2155 -0.3766  0.0473
  192SAPI  H17X22315   4.610   2.122   5.311  2.6336  2.9182 -2.1434
  192SAPI  H17Y22316   4.646   2.037   5.153  0.9433 -0.2259  1.3317
  192SAPI  C31822317   4.446   1.998   5.231 -1.3871  0.1493 -0.1835
  192SAPI  H18X22318   4.354   2.040   5.279 -0.8691 -1.8901  2.9068
  192SAPI  H18Y22319   4.467   1.914   5.301 -1.0889  1.0511  0.8428
  192SAPI  H18Z22320   4.408   1.957   5.135 -1.6677  0.2383 -0.1127
  193SOD    SOD22321   1.122   3.864   2.541  0.3061 -0.1480 -0.3294
  194SOD    SOD22322   2.867   4.084   8.442  0.1031 -0.7028  0.6769
  195SOD    SOD22323   6.714   6.203   0.718 -0.2993  0.1822 -0.3254
  196SOD    SOD22324   2.765   2.329   3.134 -0.1938 -0.1634  0.2575
  197SOD    SOD22325   6.327   5.061   8.460 -0.3394  0.1106 -0.0326
  198SOD    SOD22326   5.894   3.009   0.808  0.3324 -0.4970  0.1034
  199SOD    SOD22327   2.135   0.189   7.561 -0.3252  0.0526 -0.0960
  200SOD    SOD22328   2.360   1.019   1.799  0.1153  0.0832 -0.2160
  201SOD    SOD22329   0.116   1.130   2.197 -0.3487  0.2168 -0.3327
  202SOD    SOD22330   6.185   4.438   8.667 -0.2197  0.0722 -0.0249
  203SOD    SOD22331   5.486   4.546   7.307  0.1796  0.1587  0.7984
  204SOD    SOD22332   0.839   0.892   0.059 -0.3145  0.2440  0.0381
  205SOD    SOD22333   2.483   4.710   1.459  0.6007 -0.3567 -0.4146
  206SOD    SOD22334   2.092   2.633   7.474  0.7738  0.4983  0.0917
  207SOD    SOD22335   5.226   2.520   0.695 -0.0915  0.0587  0.2594
  208SOD    SOD22336   3.645   4.591   8.944 -0.2755 -0.1905  0.2818
  209SOD    SOD22337   2.557   1.007   3.119  0.1014  0.3565  0.2915
  210SOD    SOD22338   5.279   4.617   0.577 -0.1833  0.2319 -0.5621
  211SOD    SOD22339   4.734   0.229   1.511  0.5304 -0.0825 -0.0773
  212SOD    SOD22340   3.653   5.333   7.689  0.0041 -0.7880 -0.1610
  213SOD    SOD22341   1.825   5.567   2.523 -0.0465 -1.0705  0.5102
  214SOD    SOD22342   1.931   6.252   1.805 -0.2984  0.1988  0.1336
  215SOD    SOD22343   1.025   4.828   8.773  0.6333 -0.1905 -0.0554
  216SOD    SOD22344   0.138   5.089   7.706 -0.2409 -0.8769 -0.4530
  217SOD    SOD22345   6.397   2.983   8.905 -0.1127  0.1825  0.4961
  218SOD    SOD22346   4.373   4.357   8.242  0.0673  0.4178  0.2050
  219SOD    SOD22347   4.250   4.746   1.611  0.0888 -0.0689 -0.0666
  220SOD    SOD22348   0.440   6.238   3.191  0.4209 -0.4809 -0.0721
  221SOD    SOD22349   0.578   0.338   2.797 -0.0605  0.4710 -0.0268
  222SOD    SOD22350   2.482   6.090   7.429  0.0700  0.1367  0.0466
  223SOD    SOD22351   2.278   6.078   0.520 -0.0518  0.0488  0.4752
  224SOD    SOD22352   2.606   0.385   0.175  0.1252  0.1985  0.5191
  225SOD    SOD22353   6.489   3.453   3.108  0.0575 -0.3422  0.3877
  226SOD    SOD22354   5.110   1.496   1.391 -0.0540 -0.3059 -0.2543
  227SOD    SOD22355   3.235   2.995   3.287 -0.0991  0.0611 -0.0794
  228SOD    SOD22356   5.229   2.918   3.278  0.1042 -0.3890 -0.3759
  229SOD    SOD22357   6.318   2.841   1.754  0.5227  0.2301  0.0601
  230CLA    CLA22358   6.421   2.010   8.479  0.1914  0.0548 -0.4126
  231CLA    CLA22359   0.753   0.440   1.296 -0.2069  0.1601  0.5963
  232CLA    CLA22360   6.647   5.737   0.978  0.0406  0.2251  0.1028
  233CLA    CLA22361   0.248   2.017   1.998  0.2039  0.4807  0.1586
  234CLA    CLA22362   0.697   2.500   8.355  0.3672 -0.0706 -0.0771
  235CLA    CLA22363   1.711   5.962   2.048 -0.1549 -0.1392 -0.4094
  236CLA    CLA22364   1.742   5.166   1.284 -0.0427  0.0018  0.0443
  237CLA    CLA22365   1.868   5.985   8.749 -0.3848  0.0386 -0.5897
  238CLA    CLA22366   6.589   0.471   2.126  0.2876 -0.0010 -0.1917
  239CLA    CLA22367   0.811   0.697   2.237 -0.1213 -0.2606 -0.5177
  240CLA    CLA22368   5.404   6.116   0.842  0.6938  0.0695 -0.0285
  241CLA    CLA22369   5.932   3.753   1.767 -0.2417  0.3710 -0.5936
  242CLA    CLA22370   3.939   6.373   2.770  0.0700  0.1805 -0.3535
  243CLA    CLA22371   2.175   4.732   1.893 -0.3590 -0.1895 -0.3082
  244CLA    CLA22372   3.561   2.573   0.019 -0.2741  0.0231 -0.0894
  245CLA    CLA22373   3.812   2.145   2.083 -0.3991  0.1435 -0.5262
  246CLA    CLA22374   2.067   3.046   2.139 -0.0605  0.0995  0.2210
  247TIP3   OH222375   2.874   0.407   7.791  0.5155  0.2370  0.2562
  247TIP3    H122376   2.872   0.311   7.798  0.0018  0.2189 -0.0475
  247TIP3    H222377   2.781   0.432   7.796  0.6105  0.6785 -0.2029
  248TIP3   OH222378   5.415   0.469   1.361  0.4202 -0.0525  0.0649
  248TIP3    H122379   5.431   0.533   1.292  0.2808  0.6728  0.6909
  248TIP3    H222380   5.463   0.391   1.333  0.3598  0.2272 -0.8461
  249TIP3   OH222381   5.154   6.317   2.125  0.0306 -0.6191  0.2057
  249TIP3    H122382   5.110   6.299   2.208  2.1193 -1.1045  1.2785
  249TIP3    H222383   5.244   6.338   2.150  0.8118 -1.1333 -1.9663
  250TIP3   OH222384   6.000   6.380   1.418  0.1048 -0.1227  0.1581
  250TIP3    H122385   5.973   6.294   1.451  0.9129 -0.8800 -1.0976
  250TIP3    H222386   6.062   6.413   1.483  0.8038 -1.0824 -0.0120
  251TIP3   OH222387   4.247   1.213   0.930  0.9651  0.0538 -0.0236
  251TIP3    H122388   4.321   1.234   0.987 -0.0460 -1.6780  2.0714
  251TIP3    H222389   4.244   1.285   0.867  1.6503  2.5439  2.6209
  252TIP3   OH222390   5.666   3.099   2.579 -0.1422  0.0538 -1.0397
  252TIP3    H122391   5.751   3.078   2.618 -0.3371 -0.6605 -1.0047
  252TIP3    H222392   5.669   3.194   2.566 -0.6950  0.6379  2.2401
  253TIP3   OH222393   5.800   1.177   3.455  0.2974 -0.8156  0.2613
  253TIP3    H122394   5.798   1.272   3.442 -0.0688 -1.0187 -1.3049
  253TIP3    H222395   5.714   1.157   3.493  0.2520 -0.5631  0.2966
  254TIP3   OH222396   4.899   3.742   1.947 -0.6043  0.2672 -0.5466
  254TIP3    H122397   4.858   3.751   1.861  1.8153  0.0035 -1.8339
  254TIP3    H222398   4.944   3.657   1.943 -0.8356  0.0363  1.1742
  255TIP3   OH222399   6.132   3.260   2.709 -0.5068  0.0068 -0.4382
  255TIP3    H122400   6.181   3.338   2.733 -0.3021 -0.0792 -0.5688
  255TIP3    H222401   6.155   3.245   2.617 -2.3904  1.1709 -1.1635
  256TIP3   OH222402   0.383   1.834   2.360  0.1733 -0.0452  0.2351
  256TIP3    H122403   0.289   1.842   2.381  0.2184 -0.1102  0.4644
  256TIP3    H222404   0.418   1.921   2.377 -0.0854  0.3468 -1.0995
  257TIP3   OH222405   5.772   2.612   1.170  0.3713  0.1707  0.0137
  257TIP3    H122406   5.814   2.600   1.085  0.6160 -0.5314  0.2209
  257TIP3    H222407   5.684   2.641   1.150 -0.5426 -2.7025 -0.6303
  258TIP3   OH222408   5.336   5.775   2.210  0.7845 -0.0428  0.5499
  258TIP3    H122409   5.397   5.848   2.202  1.7643 -1.0005 -1.2754
  258TIP3    H222410   5.250   5.817   2.219  1.3801  1.3180  0.1976
  259TIP3   OH222411   3.817   0.287   2.553 -0.5056  0.1712 -0.1625
  259TIP3    H122412   3.762   0.217   2.588  0.5037  0.6293  2.5648
  259TIP3    H222413   3.863   0.247   2.479 -1.3100 -1.4723  0.1787
  260TIP3   OH222414   3.297   2.482   3.501  0.2685 -0.0950 -0.4966
  260TIP3    H122415   3.379   2.489   3.550  0.9733  0.4966 -1.7041
  260TIP3    H222416   3.235   2.445   3.563  1.6240 -1.2063  0.2587
  261TIP3   OH222417   2.444   2.746   1.130  0.1975 -0.3658 -0.8114
  261TIP3    H122418   2.389   2.716   1.057  0.5217  1.4460 -1.8835
  261TIP3    H222419   2.382   2.758   1.202 -0.6056  0.2635 -1.5746
  262TIP3   OH222420   1.311   5.307   1.518 -0.0624 -0.0732 -0.5035
  262TIP3    H122421   1.355   5.300   1.433  1.9487 -0.0704  0.4775
  262TIP3    H222422   1.294   5.216   1.543  0.5931 -0.1402 -0.2967
  263TIP3   OH222423   3.085   0.366   2.201  0.5871  0.2082 -0.1396
  263TIP3    H122424   3.022   0.370   2.273  2.8605  0.8409  1.9628
  263TIP3    H222425   3.089   0.274   2.176 -0.1055 -0.0530  0.6850
  264TIP3   OH222426   4.967   0.961   8.516  0.1079  0.0458  0.1916
  264TIP3    H122427   4.932   1.047   8.494 -2.0164 -0.9337 -0.5693
  264TIP3    H222428   4.890   0.911   8.543  1.3579 -1.4979  1.0179
  265TIP3   OH222429   4.872   0.649   7.417  0.1977 -0.5702  0.2170
  265TIP3    H122430   4.900   0.584   7.352 -0.3479  0.1336 -0.7350
  265TIP3    H222431   4.791   0.686   7.381 -1.3752 -1.7261  2.3511
  266TIP3   OH222432   1.452   4.470   2.086 -0.7156 -0.2203  0.2215
  266TIP3    H122433   1.443   4.407   2.014 -0.5414 -0.4022  0.3564
  266TIP3    H222434   1.469   4.554   2.043 -2.6948  0.0951 -0.0460
  267TIP3   OH222435   2.708   6.568   7.933  0.6163  0.1473  0.1079
  267TIP3    H122436   2.669   6.561   7.846 -1.2540  0.8560  0.8220
  267TIP3    H222437   2.801   6.586   7.917  0.9630 -2.7045 -1.6904
  268TIP3   OH222438   4.998   5.127   8.442 -0.2923 -0.0382 -0.4866
  268TIP3    H122439   5.004   5.191   8.512 -0.4595 -0.8135  0.2508
  268TIP3    H222440   4.904   5.116   8.427 -0.2586  0.1380 -0.8554
  269TIP3   OH222441   2.542   6.681   2.058  0.4425  0.1273  0.3818
  269TIP3    H122442   2.494   6.689   1.976  1.8903  2.2101 -0.3442
  269TIP3    H222443   2.579   6.592   2.056 -0.6709 -0.3358 -0.5256
  270TIP3   OH222444   6.331   6.678   8.302  0.1235  0.1500 -0.1765
  270TIP3    H122445   6.321   6.683   8.207  1.8353 -0.8149 -0.4511
  270TIP3    H222446   6.425   6.663   8.315 -0.2751 -1.0487  1.6046
  271TIP3   OH222447   0.902   6.074   1.760  0.3152  0.3795  0.6883
  271TIP3    H122448   0.872   6.129   1.832  0.8570  0.3410  0.9480
  271TIP3    H222449   0.984   6.114   1.731  1.6984 -1.2961  2.0968
  272TIP3   OH222450   2.378   1.137   1.123 -0.4250  0.2779  0.6663
  272TIP3    H122451   2.360   1.199   1.053  1.2958  2.1432  1.7711
  272TIP3    H222452   2.327   1.059   1.100 -0.6254  1.1350 -2.1400
  273TIP3   OH222453   2.734   1.033   8.085 -0.5971  0.2923 -0.3559
  273TIP3    H122454   2.735   1.096   8.013 -0.9645 -1.1537 -1.6858
  273TIP3    H222455   2.786   0.959   8.053 -4.4547 -2.4230 -1.1819
  274TIP3   OH222456   3.091   3.436   8.023 -0.2188  0.3387 -0.0085
  274TIP3    H122457   3.143   3.367   7.981 -0.3867 -1.1462  2.0558
  274TIP3    H222458   3.154   3.506   8.041  0.1937  0.2801 -1.1610
  275TIP3   OH222459   4.654   3.389   0.966  0.5909 -0.0800  0.4857
  275TIP3    H122460   4.567   3.360   0.941 -0.3992  0.6381  2.8195
  275TIP3    H222461   4.693   3.423   0.885 -1.2137 -0.5670 -0.6316
  276TIP3   OH222462   0.799   4.111   1.579 -0.0586 -0.2612 -0.3113
  276TIP3    H122463   0.868   4.081   1.637 -0.7782 -1.1777  0.0886
  276TIP3    H222464   0.758   4.031   1.546  0.3512  0.2171 -2.1312
  277TIP3   OH222465   6.384   5.232   1.948  0.4415  0.0218 -0.5844
  277TIP3    H122466   6.293   5.203   1.946  0.6729 -0.7563 -0.3344
  277TIP3    H222467   6.380   5.327   1.952 -0.3601 -0.0252 -0.2456
  278TIP3   OH222468   4.661   2.650   0.800  0.2545  0.5332  0.0259
  278TIP3    H122469   4.567   2.665   0.811  0.0797  0.9287 -1.6535
  278TIP3    H222470   4.703   2.715   0.856 -0.4877  1.0043  0.0434
  279TIP3   OH222471   3.461   0.195   0.281  0.4313 -0.2047  0.3446
  279TIP3    H122472   3.539   0.148   0.309  0.8340  0.1772 -0.1215
  279TIP3    H222473   3.494   0.271   0.232 -0.2176  0.2141  0.5337
  280TIP3   OH222474   0.696   1.704   2.386 -0.6937 -0.7597  0.1174
  280TIP3    H122475   0.646   1.721   2.305 -0.3245  1.8576  0.3568
  280TIP3    H222476   0.778   1.667   2.355 -1.0586 -0.9789 -0.6233
  281TIP3   OH222477   0.387   0.162   3.354 -0.5291 -0.5044 -0.2969
  281TIP3    H122478   0.292   0.156   3.358 -0.4049 -3.6201  1.4415
  281TIP3    H222479   0.411   0.219   3.427 -1.0615  0.2287 -0.6979
  282TIP3   OH222480   5.118   2.673   2.623 -0.2191 -0.4927 -0.1772
  282TIP3    H122481   5.070   2.649   2.702 -0.8501 -0.3597 -0.5119
  282TIP3    H222482   5.172   2.747   2.649  0.3815 -1.1120  0.3979
  283TIP3   OH222483   4.820   3.370   2.751  0.2748  0.3437 -0.4817
  283TIP3    H122484   4.731   3.379   2.787 -0.3831 -0.1388 -1.9348
  283TIP3    H222485   4.876   3.413   2.816 -0.4763 -2.9522  2.6321
  284TIP3   OH222486   6.334   5.510   2.069 -0.3420 -0.3504  0.2276
  284TIP3    H122487   6.294   5.522   1.983 -0.9045  0.8899  0.6432
  284TIP3    H222488   6.323   5.594   2.113  1.3900 -0.4372  0.9239
  285TIP3   OH222489   1.379   4.610   2.523 -0.2217 -0.2518  0.3788
  285TIP3    H122490   1.412   4.527   2.489 -0.5643 -0.7930  1.3244
  285TIP3    H222491   1.289   4.591   2.550 -0.5903  0.6413 -0.1675
  286TIP3   OH222492   4.785   6.055   7.580 -0.5492 -0.0306 -0.3013
  286TIP3    H122493   4.718   5.987   7.581 -1.3362  0.7015 -0.9961
  286TIP3    H222494   4.742   6.131   7.620  0.0667  0.2780 -0.2164
  287TIP3   OH222495   2.455   4.716   1.082 -0.2840  0.1389  0.7201
  287TIP3    H122496   2.432   4.738   1.172 -1.3277 -1.6723  0.9396
  287TIP3    H222497   2.382   4.663   1.051  0.4986 -0.0487 -0.8893
  288TIP3   OH222498   3.133   1.651   1.491 -0.1232 -0.5114 -0.1756
  288TIP3    H122499   3.080   1.714   1.540 -0.3519  1.2799 -2.5924
  288TIP3    H222500   3.072   1.580   1.471  0.2268 -1.8292  2.8784
  289TIP3   OH222501   5.914   3.345   8.716  0.8457  0.7354 -0.1904
  289TIP3    H122502   5.960   3.356   8.799  1.1343 -2.6488  0.2478
  289TIP3    H222503   5.907   3.250   8.705  0.0675  1.0581 -3.6569
  290TIP3   OH222504   3.210   0.769   0.357  0.2436 -0.4265  0.1647
  290TIP3    H122505   3.206   0.759   0.261  0.3324 -3.1654  0.3860
  290TIP3    H222506   3.278   0.835   0.371  0.5747 -0.3186 -1.6345
  291TIP3   OH222507   2.512   5.887   2.543  0.1543  0.3769 -0.0311
  291TIP3    H122508   2.452   5.890   2.469  0.4666  1.8948 -0.2577
  291TIP3    H222509   2.467   5.835   2.609 -1.3438  1.3360 -0.2627
  292TIP3   OH222510   5.219   3.416   2.153  0.2847 -0.3584  0.0844
  292TIP3    H122511   5.243   3.327   2.129  1.4531 -0.2267  0.6940
  292TIP3    H222512   5.154   3.406   2.222 -0.1909 -0.7294 -0.4119
  293TIP3   OH222513   4.982   3.738   0.699  0.3140 -0.0460 -0.0606
  293TIP3    H122514   4.958   3.674   0.632 -0.7264 -0.4377  0.6629
  293TIP3    H222515   4.904   3.747   0.754  1.5134 -0.7196  1.8768
  294TIP3   OH222516   4.609   0.771   8.213  0.4238  0.4345 -0.9093
  294TIP3    H122517   4.565   0.686   8.213 -2.6750  1.8821 -2.0378
  294TIP3    H222518   4.654   0.775   8.128  2.2482 -0.7515 -0.0635
  295TIP3   OH222519   1.388   6.280   8.962  0.2915  0.1578  0.0771
  295TIP3    H122520   1.467   6.281   9.017  0.1577 -0.0839  0.2772
  295TIP3    H222521   1.341   6.360   8.987 -0.8418 -0.9989  1.9220
  296TIP3   OH222522   2.412   6.419   1.470 -0.6551  0.0851 -0.2696
  296TIP3    H122523   2.439   6.506   1.500 -0.8870  0.1704 -0.3053
  296TIP3    H222524   2.492   6.366   1.473 -0.9140 -0.3136  1.9439
  297TIP3   OH222525   0.924   4.028   1.021  0.3095 -0.6690 -0.1812
  297TIP3    H122526   0.852   4.087   0.998  0.4428 -0.5240 -0.2287
  297TIP3    H222527   0.936   4.040   1.115  1.3183  0.4926 -0.4364
  298TIP3   OH222528   0.063   3.776   1.511  0.3750  0.4930  0.4139
  298TIP3    H122529   0.090   3.774   1.602 -0.8627 -1.1485  0.7948
  298TIP3    H222530  -0.033   3.775   1.515  0.3045 -0.0917 -0.8933
  299TIP3   OH222531   4.405   3.743   2.748 -0.2011  0.2440 -0.0938
  299TIP3    H122532   4.420   3.658   2.789  1.2473  0.3766 -0.3118
  299TIP3    H222533   4.372   3.798   2.819  1.8891  0.3523  0.8625
  300TIP3   OH222534   1.874   4.549   8.710 -0.1527  0.0690  0.1679
  300TIP3    H122535   1.797   4.515   8.665 -0.1135  0.5844 -0.3051
  300TIP3    H222536   1.934   4.475   8.714  0.0362  0.1284 -1.0826
  301TIP3   OH222537   2.215   3.077   3.070 -0.2919  0.4110  0.5830
  301TIP3    H122538   2.128   3.111   3.089  0.2041  2.9107 -1.1657
  301TIP3    H222539   2.235   3.019   3.143 -3.8457 -1.1726  0.4709
  302TIP3   OH222540   2.193   2.850   1.307 -0.5281 -0.2410  0.6771
  302TIP3    H122541   2.146   2.867   1.225  0.4673 -1.8062 -0.2553
  302TIP3    H222542   2.163   2.920   1.366 -2.5554 -0.0720 -0.4551
  303TIP3   OH222543   4.597   3.287   0.433 -0.8523  0.6230 -0.3071
  303TIP3    H122544   4.633   3.358   0.379 -0.4071 -0.9099 -2.1549
  303TIP3    H222545   4.578   3.217   0.370  1.3217 -1.9894  1.6993
  304TIP3   OH222546   2.336   0.181   7.426  0.2858 -0.0128  0.0466
  304TIP3    H122547   2.373   0.103   7.384 -0.3915  0.7377 -2.0633
  304TIP3    H222548   2.410   0.219   7.473  1.0203 -1.0850 -0.1981
  305TIP3   OH222549   0.917   6.304   1.345  0.1195 -0.7827 -0.2163
  305TIP3    H122550   0.848   6.353   1.299  1.7718  0.1750 -1.8349
  305TIP3    H222551   0.933   6.354   1.425  1.1815  0.9149 -1.4321
  306TIP3   OH222552   2.983   1.742   8.850  0.4795 -0.1062  0.3640
  306TIP3    H122553   2.990   1.824   8.800  1.0060  1.6627  3.1065
  306TIP3    H222554   2.894   1.744   8.886 -0.1307 -1.6894 -0.9829
  307TIP3   OH222555   0.059   6.123   0.069  0.3130 -0.0945 -0.1317
  307TIP3    H122556   0.140   6.091   0.029  0.5835  0.5412 -0.0996
  307TIP3    H222557  -0.007   6.058   0.045  0.3634  0.5142 -2.0286
  308TIP3   OH222558   5.093   3.183   0.761 -0.3692  0.4805 -0.1803
  308TIP3    H122559   5.119   3.091   0.773 -1.5040 -0.0136 -1.2071
  308TIP3    H222560   4.998   3.182   0.769 -0.4592  1.4359 -0.9287
  309TIP3   OH222561   1.339   1.792   1.964 -0.0141  0.4161 -0.1378
  309TIP3    H122562   1.289   1.829   1.891 -0.1136 -0.6750 -0.6325
  309TIP3    H222563   1.352   1.866   2.023 -1.9110  0.8187 -0.1631
  310TIP3   OH222564   6.783   2.480   1.769 -0.1445  0.0715 -0.5097
  310TIP3    H122565   6.774   2.386   1.756  2.5579 -0.2276 -0.8508
  310TIP3    H222566   6.853   2.489   1.834 -0.1607  1.8486 -0.6780
  311TIP3   OH222567   0.476   2.593   2.040 -0.1646 -0.0163  0.4809
  311TIP3    H122568   0.404   2.536   2.066  1.8424 -1.3742  3.6388
  311TIP3    H222569   0.439   2.682   2.044 -1.6325 -0.6610  2.1331
  312TIP3   OH222570   3.210   5.999   1.043 -0.0721  0.0468 -0.4512
  312TIP3    H122571   3.248   6.044   0.968  0.8591 -0.3240 -0.2201
  312TIP3    H222572   3.189   5.912   1.010 -1.7759  0.5958 -0.8717
  313TIP3   OH222573   0.220   3.330   1.829  0.7240  0.6538  0.0342
  313TIP3    H122574   0.283   3.401   1.842 -0.0070  1.1185  1.1704
  313TIP3    H222575   0.256   3.280   1.755  1.8492  1.5271 -0.0455
  314TIP3   OH222576   0.577   1.962   1.491  0.6592 -0.3199  0.0587
  314TIP3    H122577   0.514   1.946   1.421  0.9874 -3.1772  0.2768
  314TIP3    H222578   0.539   2.032   1.543 -2.4789 -1.9985  0.2510
  315TIP3   OH222579   2.901   3.580   0.010 -0.0527 -0.0049 -0.3402
  315TIP3    H122580   2.809   3.603  -0.002 -0.0650 -0.3651 -0.9902
  315TIP3    H222581   2.899   3.499   0.062 -0.1287 -0.3116 -0.8135
  316TIP3   OH222582   5.674   4.686   2.338 -0.7593 -0.1778  0.8969
  316TIP3    H122583   5.581   4.705   2.343 -0.6560  0.2855  1.1162
  316TIP3    H222584   5.712   4.764   2.295 -0.7280 -1.1674 -0.9792
  317TIP3   OH222585   4.824   0.400   0.843  0.1141 -0.2350 -0.1695
  317TIP3    H122586   4.819   0.494   0.862  0.5490 -0.4069  0.8680
  317TIP3    H222587   4.915   0.385   0.819  0.5528 -0.7153  1.6420
  318TIP3   OH222588   4.323   6.239   2.195 -0.5200 -0.2041  0.6952
  318TIP3    H122589   4.306   6.243   2.289 -2.4605 -1.6866  0.4629
  318TIP3    H222590   4.241   6.210   2.156  0.7906 -1.6584 -1.2404
  319TIP3   OH222591   1.193   2.846   7.880  0.2768  0.4202  0.5452
  319TIP3    H122592   1.175   2.925   7.829 -1.0190 -0.6919 -0.8124
  319TIP3    H222593   1.276   2.813   7.845  0.9584  1.2661  1.2944
  320TIP3   OH222594   0.460   2.953   1.303  0.0339  0.0087 -0.6053
  320TIP3    H122595   0.468   2.894   1.379 -0.2806 -0.3620 -0.8535
  320TIP3    H222596   0.377   2.927   1.262  0.2607  0.1285 -1.1409
  321TIP3   OH222597   0.399   5.515   1.601 -0.5144  0.7573 -0.3623
  321TIP3    H122598   0.422   5.499   1.509 -0.5407 -3.2600  0.1880
  321TIP3    H222599   0.321   5.463   1.616 -0.2923  1.0132  2.0635
  322TIP3   OH222600   3.568   1.186   7.752 -0.1942 -0.1366 -0.2513
  322TIP3    H122601   3.492   1.239   7.727  0.1191 -0.3079 -1.5905
  322TIP3    H222602   3.610   1.237   7.821 -1.2869  0.1551  0.2335
  323TIP3   OH222603   3.468   3.203   8.337 -0.0802 -0.0072  0.2015
  323TIP3    H122604   3.465   3.234   8.246  0.4798 -1.7148 -0.4397
  323TIP3    H222605   3.414   3.124   8.337 -0.4614  0.2285  1.4801
  324TIP3   OH222606   3.783   1.718   1.578 -0.1574  0.3102  0.0792
  324TIP3    H122607   3.722   1.699   1.649 -0.2095 -0.5733 -0.2010
  324TIP3    H222608   3.729   1.753   1.508 -0.2433  0.1726  0.0785
  325TIP3   OH222609   6.532   3.075   8.746  0.2093  0.0923  0.0596
  325TIP3    H122610   6.609   3.027   8.718 -0.9091 -0.6163 -1.9972
  325TIP3    H222611   6.560   3.167   8.749  0.5923  0.1482 -2.9762
  326TIP3   OH222612   4.946   3.752   0.303  0.1110 -0.7872 -0.0626
  326TIP3    H122613   4.966   3.687   0.371 -0.1703  0.2251  1.0089
  326TIP3    H222614   4.860   3.726   0.270 -0.4208 -0.4331  1.0100
  327TIP3   OH222615   5.353   1.761   1.691 -0.3505 -0.4976  0.2813
  327TIP3    H122616   5.440   1.737   1.723  0.0581  1.2348  0.5835
  327TIP3    H222617   5.308   1.797   1.768 -0.1669  1.5952 -0.5417
  328TIP3   OH222618   4.146   3.882   1.854  0.4356 -0.0497 -0.0640
  328TIP3    H122619   4.143   3.940   1.930 -1.2934 -0.4671  0.2293
  328TIP3    H222620   4.221   3.825   1.870 -0.8379 -1.1977  2.1708
  329TIP3   OH222621   6.404   6.191   1.404  0.3720  0.2650  0.0246
  329TIP3    H122622   6.499   6.179   1.407  0.7911  1.9241 -2.8158
  329TIP3    H222623   6.389   6.239   1.322 -3.0242 -0.7579 -0.0826
  330TIP3   OH222624   3.247   1.249   1.445  0.0605 -0.1254 -0.3915
  330TIP3    H122625   3.324   1.230   1.499  0.3448  1.2687 -0.2611
  330TIP3    H222626   3.180   1.189   1.478  0.9673 -1.1143 -0.2648
  331TIP3   OH222627   2.562   3.568   7.963 -0.6931 -0.0442 -0.4706
  331TIP3    H122628   2.640   3.613   7.996 -0.2843  2.7687 -4.4943
  331TIP3    H222629   2.492   3.594   8.022  0.7273  0.5507  1.0161
  332TIP3   OH222630   3.601   0.441   0.246 -0.4257 -0.3808 -0.1588
  332TIP3    H122631   3.669   0.506   0.262  0.3995 -0.9074 -1.3982
  332TIP3    H222632   3.524   0.492   0.219 -0.7141  0.2489  1.6711
  333TIP3   OH222633   5.755   3.927   0.991  0.1727  0.2262  0.1891
  333TIP3    H122634   5.681   3.949   1.049  1.0830 -0.2984  1.5871
  333TIP3    H222635   5.830   3.921   1.050  0.7725 -2.3334 -0.7284
  334TIP3   OH222636   5.617   4.030   8.668 -0.1357 -0.1316 -0.2415
  334TIP3    H122637   5.609   3.936   8.685 -0.2282  0.2319  2.0107
  334TIP3    H222638   5.554   4.047   8.599 -2.1601 -1.2972  1.1957
  335TIP3   OH222639   6.269   2.014   8.219  0.3015 -0.2945 -0.3756
  335TIP3    H122640   6.255   1.923   8.193 -0.1798 -0.7084  1.1992
  335TIP3    H222641   6.346   2.012   8.276  0.8239  0.4282 -1.0443
  336TIP3   OH222642   1.295   1.860   2.956  0.5462 -0.1732  0.7309
  336TIP3    H122643   1.308   1.908   3.037 -0.7155 -0.3368  1.0530
  336TIP3    H222644   1.285   1.769   2.983 -2.3273  0.0371  0.7215
  337TIP3   OH222645   3.195   1.987   2.952 -0.0473 -0.3882 -0.2460
  337TIP3    H122646   3.198   2.082   2.949 -0.2680 -0.3622  0.1697
  337TIP3    H222647   3.153   1.967   3.036  0.9445 -0.8649  0.1543
  338TIP3   OH222648   6.483   1.159   8.422 -0.0143  0.1738  0.0091
  338TIP3    H122649   6.571   1.130   8.397 -0.1306 -0.5078  0.3759
  338TIP3    H222650   6.479   1.250   8.393  0.0351 -0.4138 -2.0205
  339TIP3   OH222651   4.685   1.210   2.221 -0.5841 -0.0281  0.0732
  339TIP3    H122652   4.703   1.302   2.203  2.6404 -0.9113 -1.9318
  339TIP3    H222653   4.590   1.206   2.233 -1.0535  3.2620 -1.5712
  340TIP3   OH222654   0.349   5.866   0.918  0.6328 -0.4384 -0.0369
  340TIP3    H122655   0.263   5.876   0.958  1.2433 -2.3722  2.0575
  340TIP3    H222656   0.405   5.928   0.966  0.5981  0.1332 -0.7298
  341TIP3   OH222657   1.659   2.481   0.980 -0.3108 -0.2139  0.1753
  341TIP3    H122658   1.654   2.521   1.067  1.5029  1.8070 -0.5386
  341TIP3    H222659   1.624   2.548   0.921  2.2086  0.1728 -1.0098
  342TIP3   OH222660   0.319   1.264   2.112 -0.1206  0.1163 -0.3428
  342TIP3    H122661   0.281   1.350   2.123 -0.4341 -0.0742  0.0731
  342TIP3    H222662   0.400   1.266   2.163 -0.5171 -0.0840  0.3023
  343TIP3   OH222663   3.666   0.071   8.090 -0.0524  0.6060 -0.1630
  343TIP3    H122664   3.671   0.018   8.010  0.2269 -1.5668  1.2143
  343TIP3    H222665   3.735   0.036   8.146 -2.6724 -0.6906  2.5536
  344TIP3   OH222666   3.512   0.350   1.589  0.1169 -0.0524  0.0725
  344TIP3    H122667   3.525   0.425   1.646 -0.0941 -0.0355  0.0998
  344TIP3    H222668   3.421   0.324   1.604  0.7225 -1.5240  1.5310
  345TIP3   OH222669   3.022   4.210   3.532 -0.0185 -0.5096 -0.1572
  345TIP3    H122670   2.935   4.178   3.560 -1.9621  0.5490 -4.2827
  345TIP3    H222671   3.066   4.132   3.498 -0.0676 -0.7161  0.2390
  346TIP3   OH222672   6.241   0.184   7.522  0.2933 -0.4664  0.5528
  346TIP3    H122673   6.216   0.109   7.468  2.2565  0.3215 -1.6309
  346TIP3    H222674   6.160   0.210   7.566 -2.1154  0.1139 -3.6753
  347TIP3   OH222675   0.166   1.440   1.502  1.0235 -0.1143 -0.2292
  347TIP3    H122676   0.249   1.452   1.455  2.2187 -2.1176  1.1997
  347TIP3    H222677   0.174   1.496   1.579  1.9089 -1.6120  0.8352
  348TIP3   OH222678   2.100   1.017   3.558 -0.1618  0.3381 -0.1326
  348TIP3    H122679   2.034   1.079   3.527  0.0159  1.1654  1.0421
  348TIP3    H222680   2.163   1.071   3.606 -0.3148 -0.8048  1.4530
  349TIP3   OH222681   5.731   1.033   8.137 -0.2697  0.3805  0.5368
  349TIP3    H122682   5.695   0.945   8.130 -0.3454  0.3258  1.5367
  349TIP3    H222683   5.824   1.022   8.113 -0.4057  0.1406  0.0987
  350TIP3   OH222684   5.989   0.091   8.797  0.1018 -0.1671 -0.3340
  350TIP3    H122685   6.004   0.178   8.760 -0.8890 -0.2491 -0.9626
  350TIP3    H222686   5.999   0.103   8.891  1.1664  0.3633 -0.4968
  351TIP3   OH222687   5.306   1.402   1.449 -0.1288 -0.8060 -0.0147
  351TIP3    H122688   5.357   1.424   1.371 -0.0159 -0.6549  0.1008
  351TIP3    H222689   5.358   1.336   1.494 -1.3642 -2.7877 -1.3483
  352TIP3   OH222690   2.129   3.806   8.662 -1.1496 -0.0123  0.5496
  352TIP3    H122691   2.123   3.722   8.616 -1.4947  0.1161  0.3574
  352TIP3    H222692   2.203   3.850   8.621 -0.4291 -0.5670  1.2196
  353TIP3   OH222693   3.920   6.768   8.183  0.2902  0.6528  0.1092
  353TIP3    H122694   3.973   6.745   8.259 -0.3190  0.7803  0.5796
  353TIP3    H222695   3.980   6.764   8.109  0.2484 -2.3893  0.1382
  354TIP3   OH222696   3.850   3.104   1.617  0.6274 -0.6018 -0.2116
  354TIP3    H122697   3.782   3.038   1.607 -0.3727  0.1937  1.0585
  354TIP3    H222698   3.879   3.096   1.707  2.6089 -1.2443 -0.8455
  355TIP3   OH222699   3.560   4.072   3.282 -0.2618 -0.1376 -0.2564
  355TIP3    H122700   3.472   4.040   3.298 -0.1373 -0.1433  0.4350
  355TIP3    H222701   3.584   4.118   3.362  0.4324 -0.2974 -0.3668
  356TIP3   OH222702   1.788   2.060   0.798 -0.4827 -0.4229 -0.2274
  356TIP3    H122703   1.724   2.128   0.822  1.0028  0.9201  0.1328
  356TIP3    H222704   1.768   1.987   0.856 -0.7014  0.5722  0.9945
  357TIP3   OH222705   0.621   0.751   1.998 -0.8094  0.5316 -0.4738
  357TIP3    H122706   0.679   0.756   2.074 -1.2963  0.4054 -0.0807
  357TIP3    H222707   0.619   0.658   1.976  0.6639  0.7634 -1.7180
  358TIP3   OH222708   2.609   3.507   2.507  0.0923 -0.2034  0.2374
  358TIP3    H122709   2.617   3.419   2.471  0.4482 -0.4372  0.8688
  358TIP3    H222710   2.669   3.560   2.456 -1.0299 -0.0507 -0.9682
  359TIP3   OH222711   1.176   1.007   8.748 -0.2350  0.3049  0.1626
  359TIP3    H122712   1.233   0.932   8.735 -0.4866  0.3805 -1.6289
  359TIP3    H222713   1.235   1.082   8.752 -0.1372  0.2789 -0.6992
  360TIP3   OH222714   4.964   1.765   0.204 -0.4383  0.4846 -0.2300
  360TIP3    H122715   4.874   1.734   0.209 -1.0015  2.1549  0.7448
  360TIP3    H222716   4.972   1.800   0.115 -0.0740 -1.4568 -1.0226
  361TIP3   OH222717   1.184   0.876   3.181 -0.4200 -0.2446  0.0371
  361TIP3    H122718   1.136   0.958   3.194  0.0956 -0.1597  1.5616
  361TIP3    H222719   1.207   0.877   3.088 -0.5494  1.2789 -0.0142
  362TIP3   OH222720   5.205   4.097   1.572  0.4427 -0.6132 -0.2810
  362TIP3    H122721   5.246   4.019   1.535  2.8672 -0.2723  1.4919
  362TIP3    H222722   5.237   4.100   1.663 -0.5674  1.7772  0.0531
  363TIP3   OH222723   4.308   5.279   0.167 -0.0842  0.9174 -0.3020
  363TIP3    H122724   4.278   5.284   0.257 -1.4811 -0.4533 -0.6535
  363TIP3    H222725   4.228   5.266   0.115  0.9214 -1.5730 -1.4055
  364TIP3   OH222726   4.837   4.505   8.299  0.0274 -0.2355  0.1883
  364TIP3    H122727   4.851   4.560   8.223 -3.2435 -0.9147 -1.0789
  364TIP3    H222728   4.910   4.525   8.357  0.6335  3.1144 -1.4829
  365TIP3   OH222729   2.650   2.248   8.885  0.2101  0.1659 -0.0596
  365TIP3    H122730   2.707   2.171   8.887 -0.9911 -0.7812 -1.0127
  365TIP3    H222731   2.665   2.287   8.799  1.4727  1.5584  0.7427
  366TIP3   OH222732   2.113   5.907   0.453 -0.0144  0.1079 -0.1086
  366TIP3    H122733   2.160   5.851   0.391 -3.3358 -1.0444 -1.8348
  366TIP3    H222734   2.075   5.847   0.517 -2.5434  0.3893 -1.2305
  367TIP3   OH222735   2.678   4.280   0.775  0.1758 -0.3462  0.0307
  367TIP3    H122736   2.618   4.217   0.815  0.2163  0.6108  1.6715
  367TIP3    H222737   2.764   4.256   0.808  0.6551 -1.2597 -1.7430
  368TIP3   OH222738   3.671   1.655   2.350 -0.6068 -0.2541 -0.3836
  368TIP3    H122739   3.620   1.576   2.337 -0.3050 -0.1263 -2.9396
  368TIP3    H222740   3.631   1.719   2.291  1.8657  0.1169 -1.7885
  369TIP3   OH222741   5.015   1.644   0.463  0.3273 -0.1826  0.0758
  369TIP3    H122742   4.928   1.681   0.478  0.2449  0.2360 -1.2965
  369TIP3    H222743   5.038   1.672   0.375  0.9368 -2.1098 -0.4234
  370TIP3   OH222744   2.167   5.334   1.242  0.4905 -0.1913 -0.1003
  370TIP3    H122745   2.238   5.270   1.244  0.6999 -0.0489  3.0985
  370TIP3    H222746   2.126   5.327   1.329 -1.3083  2.0194 -0.6651
  371TIP3   OH222747   3.229   4.068   7.989 -0.1020 -0.6338 -0.6324
  371TIP3    H122748   3.135   4.076   7.971 -0.2538 -1.0093 -0.0544
  371TIP3    H222749   3.263   4.156   7.977 -0.5742 -0.4465 -0.6421
  372TIP3   OH222750   4.852   3.560   0.466 -0.5989 -0.0632  0.1279
  372TIP3    H122751   4.863   3.467   0.448 -0.3109 -0.2784  1.3451
  372TIP3    H222752   4.768   3.582   0.425  0.4227 -0.2829 -2.2159
  373TIP3   OH222753   6.510   6.311   2.170 -0.6921  0.5673  0.0802
  373TIP3    H122754   6.523   6.275   2.082 -0.1146  1.8919 -0.4024
  373TIP3    H222755   6.462   6.243   2.217  2.5252 -1.9336  0.0178
  374TIP3   OH222756   1.682   1.992   2.747  0.0015  0.4891  0.1721
  374TIP3    H122757   1.587   1.981   2.746  0.1091 -0.5769  0.4907
  374TIP3    H222758   1.711   1.960   2.661  0.1609 -0.1420  0.4560
  375TIP3   OH222759   0.976   1.104   1.527  0.3097 -0.5177  0.2644
  375TIP3    H122760   0.999   1.013   1.546  0.1196 -0.2881  1.7324
  375TIP3    H222761   0.890   1.116   1.568  0.1617  0.2216 -0.2437
  376TIP3   OH222762   0.578   3.657   1.442  0.5521 -0.1818 -0.1534
  376TIP3    H122763   0.580   3.640   1.536 -2.1164 -0.1290 -0.0124
  376TIP3    H222764   0.562   3.572   1.401  1.9577 -0.2519 -0.6317
  377TIP3   OH222765   5.307   5.568   8.365 -0.4025 -0.0269  0.1103
  377TIP3    H122766   5.333   5.651   8.327  0.7044  0.2588  1.3928
  377TIP3    H222767   5.266   5.520   8.293 -1.9422  1.9707 -0.4162
  378TIP3   OH222768   5.955   1.830   0.085  0.4716 -0.2707 -0.0182
  378TIP3    H122769   5.875   1.880   0.066  1.0495  0.6124 -0.2087
  378TIP3    H222770   5.924   1.741   0.102 -0.3250 -0.7497 -3.1814
  379TIP3   OH222771   4.412   4.816   1.773  0.9349  0.2454  0.0162
  379TIP3    H122772   4.492   4.822   1.826 -0.0227  0.6033  1.4635
  379TIP3    H222773   4.419   4.890   1.712  0.8432  1.4294  1.3898
  380TIP3   OH222774   2.035   3.818   1.514  0.3851  0.3688  0.2884
  380TIP3    H122775   2.028   3.839   1.421 -0.3990  0.7913  0.4382
  380TIP3    H222776   2.092   3.887   1.549  0.8948  0.0598  0.0787
  381TIP3   OH222777   3.119   2.528   1.052 -0.2622  0.1955  0.2599
  381TIP3    H122778   3.065   2.450   1.066 -0.6980  0.4172 -0.1647
  381TIP3    H222779   3.133   2.531   0.957 -0.6660  0.9004  0.2119
  382TIP3   OH222780   2.086   2.521   8.926  0.7633 -0.1256 -0.5252
  382TIP3    H122781   2.093   2.504   9.020 -0.8419  1.1729 -0.1374
  382TIP3    H222782   2.177   2.530   8.897  1.2603  1.8670  1.3807
  383TIP3   OH222783   1.681   4.876   2.354 -0.4880 -0.3278 -0.2339
  383TIP3    H122784   1.671   4.856   2.447 -0.0060 -2.2784 -0.5616
  383TIP3    H222785   1.630   4.809   2.309  1.3636 -1.0080 -1.4314
  384TIP3   OH222786   1.099   2.698   2.071  0.1006  0.1568  0.0876
  384TIP3    H122787   1.191   2.722   2.076  0.1143  0.0556  0.3210
  384TIP3    H222788   1.095   2.607   2.100 -0.1313  0.3062  0.5498
  385TIP3   OH222789   5.652   4.877   1.193  0.6726  0.2714 -0.3139
  385TIP3    H122790   5.581   4.884   1.129  0.6472  0.2220 -0.2916
  385TIP3    H222791   5.731   4.893   1.143  0.6200  0.6890 -0.2678
  386TIP3   OH222792   0.797   3.564   8.575 -0.2719  0.0882 -0.1927
  386TIP3    H122793   0.714   3.540   8.535 -1.0879  0.4980  1.1944
  386TIP3    H222794   0.812   3.654   8.548 -1.3128  0.6999  1.1327
  387TIP3   OH222795   2.394   3.941   8.504  0.1127 -0.0676  0.1349
  387TIP3    H122796   2.455   4.011   8.480  0.3675 -0.4076 -0.2234
  387TIP3    H222797   2.384   3.890   8.423 -0.3276 -0.2542  0.3047
  388TIP3   OH222798   5.313   1.995   1.481 -0.4768  0.0165 -0.2113
  388TIP3    H122799   5.254   2.060   1.519 -0.9691 -0.5317 -0.0201
  388TIP3    H222800   5.329   1.933   1.552 -0.6586 -0.5080 -0.6240
  389TIP3   OH222801   3.872   4.120   2.153  0.0953 -0.2758  0.2766
  389TIP3    H122802   3.917   4.092   2.233  1.4849 -0.3389 -0.4820
  389TIP3    H222803   3.815   4.191   2.181  0.2257 -0.5871  1.4000
  390TIP3   OH222804   3.978   0.216   0.992 -0.2369 -0.5638  0.0561
  390TIP3    H122805   4.039   0.280   0.955 -0.9393 -0.5996 -1.2247
  390TIP3    H222806   3.923   0.189   0.918  0.7993 -3.5786  0.2272
  391TIP3   OH222807   3.955   0.532   0.052  0.2464  0.4448  0.0313
  391TIP3    H122808   3.893   0.548  -0.018  0.7288 -0.8935 -0.7371
  391TIP3    H222809   3.929   0.593   0.122  0.0493  2.1300 -1.4558
  392TIP3   OH222810   4.441   6.004   2.078  0.0621  0.0011 -0.3194
  392TIP3    H122811   4.497   5.980   2.152 -0.8559 -0.1364  0.3476
  392TIP3    H222812   4.391   6.079   2.109 -1.9761 -1.4460  0.0474
  393TIP3   OH222813   3.851   4.446   2.187  0.1391  0.0098  0.5647
  393TIP3    H122814   3.868   4.466   2.280 -3.4710 -0.6128  1.4935
  393TIP3    H222815   3.931   4.403   2.158  0.3883 -2.5912  4.2965
  394TIP3   OH222816   2.988   3.640   8.736  0.4041  0.0551  0.2425
  394TIP3    H122817   3.083   3.630   8.739  0.2932 -0.9512  1.0662
  394TIP3    H222818   2.958   3.613   8.823 -0.5290  1.7515  0.5004
  395TIP3   OH222819   0.823   2.162   0.900 -0.8258 -0.0110  0.0413
  395TIP3    H122820   0.754   2.210   0.855 -0.0095 -0.8131 -2.2266
  395TIP3    H222821   0.902   2.179   0.848  0.0623 -1.4605  0.8481
  396TIP3   OH222822   6.149   3.366   3.287 -0.6188 -0.1421  0.1699
  396TIP3    H122823   6.208   3.297   3.258  0.0154  0.4717 -0.0264
  396TIP3    H222824   6.160   3.370   3.382 -1.5129 -1.0706  0.3387
  397TIP3   OH222825   3.396   0.963   1.525 -0.6271 -0.0369 -0.0904
  397TIP3    H122826   3.447   1.044   1.522 -0.2049 -0.3052 -0.3384
  397TIP3    H222827   3.361   0.960   1.614  0.2991 -0.1459  0.2797
  398TIP3   OH222828   1.346   1.621   0.647  0.0791 -0.2024  0.1585
  398TIP3    H122829   1.251   1.629   0.653  0.0757  1.9141 -1.5052
  398TIP3    H222830   1.361   1.527   0.631 -1.5365 -0.8881  2.2608
  399TIP3   OH222831   6.207   0.146   0.973 -0.0353  0.0095  0.3968
  399TIP3    H122832   6.136   0.175   1.030 -0.3261 -0.0170  0.0480
  399TIP3    H222833   6.228   0.223   0.919 -0.1037 -0.1151  0.1909
  400TIP3   OH222834   1.208   1.348   8.333 -0.2775 -0.3201  0.1132
  400TIP3    H122835   1.211   1.254   8.348  0.7414 -0.3146 -0.0047
  400TIP3    H222836   1.166   1.357   8.248 -0.5377 -0.6524  0.2015
  401TIP3   OH222837   0.120   1.449   8.432 -0.1652  0.3501 -0.1517
  401TIP3    H122838   0.033   1.488   8.434 -0.7378 -0.8996  2.4753
  401TIP3    H222839   0.121   1.396   8.352 -1.0136  1.9778 -1.3079
  402TIP3   OH222840   0.366   2.151   0.961 -0.0072 -0.3361  0.0399
  402TIP3    H122841   0.450   2.106   0.955 -0.0500 -0.3581 -0.5055
  402TIP3    H222842   0.337   2.158   0.870 -0.8738 -0.8594  0.2666
  403TIP3   OH222843   0.575   4.855   7.608 -0.0118  0.9397 -0.4187
  403TIP3    H122844   0.588   4.791   7.678 -1.4897 -1.8412 -2.5073
  403TIP3    H222845   0.651   4.912   7.613  1.3283 -0.8704  1.6564
  404TIP3   OH222846   3.645   2.713   0.964 -0.1551 -0.3290  0.0626
  404TIP3    H122847   3.600   2.797   0.966  0.7572  0.1729  2.0723
  404TIP3    H222848   3.588   2.656   0.912 -0.4520  1.6672 -1.9639
  405TIP3   OH222849   0.613   1.023   2.940 -0.2908 -0.3287  0.4142
  405TIP3    H122850   0.586   0.941   2.982 -1.5886  0.3023  0.8697
  405TIP3    H222851   0.552   1.088   2.974  0.5647  0.7869 -0.1361
  406TIP3   OH222852   5.409   2.207   8.025 -0.2353  0.1597 -0.6813
  406TIP3    H122853   5.439   2.123   7.991  0.7206  0.0018  0.4969
  406TIP3    H222854   5.401   2.263   7.947  0.4782 -0.6046 -1.3246
  407TIP3   OH222855   6.226   1.509   2.937 -0.2761 -0.5022  0.0138
  407TIP3    H122856   6.195   1.599   2.953  3.0703  1.0838 -1.4701
  407TIP3    H222857   6.279   1.488   3.014 -1.6695 -1.5887  0.7138
  408TIP3   OH222858   3.141   5.362   2.035 -0.4378  0.0763  0.1493
  408TIP3    H122859   3.185   5.406   1.962 -0.3701 -1.7121 -0.9428
  408TIP3    H222860   3.057   5.334   1.999 -0.5035 -0.6179  0.8264
  409TIP3   OH222861   3.948   3.478   1.455 -0.5586 -0.4054  0.4139
  409TIP3    H122862   3.897   3.397   1.462  0.5288 -1.0083  2.0693
  409TIP3    H222863   4.031   3.458   1.498  0.5470  0.9848 -0.9361
  410TIP3   OH222864   6.311   1.986   0.884 -0.0814 -0.2092 -0.0479
  410TIP3    H122865   6.330   1.935   0.805  0.4605 -1.8009  1.0523
  410TIP3    H222866   6.254   1.929   0.936  1.4148 -0.1705  1.7091
  411TIP3   OH222867   5.914   0.911   2.050 -0.1547 -0.1721 -0.2834
  411TIP3    H122868   5.930   0.885   2.141 -0.1528 -1.6615 -0.6923
  411TIP3    H222869   5.935   1.005   2.049 -0.1806 -0.1160  1.2500
  412TIP3   OH222870   6.108   0.143   0.439  0.2338 -0.5021  0.1650
  412TIP3    H122871   6.089   0.228   0.399  0.9683 -0.4221 -0.0273
  412TIP3    H222872   6.186   0.113   0.393  1.3267 -0.2384  1.7945
  413TIP3   OH222873   1.141   0.930   3.638 -0.0583  0.3949 -0.2747
  413TIP3    H122874   1.157   0.848   3.592 -0.9190  0.3147 -0.4343
  413TIP3    H222875   1.057   0.961   3.604 -1.8300 -0.7045  2.7407
  414TIP3   OH222876   3.970   5.565   2.360  0.1081  0.0021 -0.1630
  414TIP3    H122877   3.935   5.479   2.384 -1.0900 -0.1325 -2.1687
  414TIP3    H222878   4.061   5.548   2.336 -0.1532 -0.7342 -0.6543
  415TIP3   OH222879   3.641   3.144   7.212  0.3793 -0.1646  0.0898
  415TIP3    H122880   3.642   3.194   7.294  0.4513  0.3316 -0.2145
  415TIP3    H222881   3.578   3.073   7.229 -0.8579  0.8919  0.0188
  416TIP3   OH222882   6.367   1.912   7.535 -0.4024  0.4162 -0.0177
  416TIP3    H122883   6.303   1.879   7.598 -0.3765 -0.9532 -0.6653
  416TIP3    H222884   6.319   1.918   7.452 -0.0435  0.6920 -0.2083
  417TIP3   OH222885   0.059   4.474   2.949  0.1402  0.2976 -0.0158
  417TIP3    H122886   0.127   4.454   3.013  1.3825  1.9787 -0.7400
  417TIP3    H222887   0.101   4.461   2.864 -1.4200 -1.7029 -0.5446
  418TIP3   OH222888   6.691   6.332   7.969  0.5491 -0.4216  0.2542
  418TIP3    H122889   6.625   6.395   7.942 -1.4744 -2.1092  0.9482
  418TIP3    H222890   6.772   6.382   7.975 -1.0300  2.2073  1.2523
  419TIP3   OH222891   0.610   0.794   8.812 -0.1816  0.4391  0.5153
  419TIP3    H122892   0.547   0.723   8.824 -0.9044  0.9249 -0.2752
  419TIP3    H222893   0.581   0.862   8.873 -1.3560  1.2500 -0.8643
  420TIP3   OH222894   4.060   3.472   0.344  0.2783 -0.1411  0.7746
  420TIP3    H122895   3.985   3.414   0.327  1.6187 -2.1219  1.2979
  420TIP3    H222896   4.092   3.496   0.258 -1.0563  0.9406  0.5341
  421TIP3   OH222897   0.180   5.218   0.144 -0.4447  0.4337  0.6936
  421TIP3    H122898   0.261   5.169   0.129  0.6279  1.8278  1.6065
  421TIP3    H222899   0.194   5.302   0.099 -2.1791  0.0115 -0.7277
  422TIP3   OH222900   2.495   2.598   3.316 -0.3080  0.7380  0.2877
  422TIP3    H122901   2.552   2.530   3.352 -0.7279  0.5024  0.5105
  422TIP3    H222902   2.450   2.556   3.243  1.5747  1.5953 -1.4929
  423TIP3   OH222903   0.553   4.582   2.480 -0.1420 -0.4948 -0.0927
  423TIP3    H122904   0.592   4.570   2.393  0.4749 -0.8111  0.2150
  423TIP3    H222905   0.463   4.610   2.463  0.5824  1.5605 -0.8346
  424TIP3   OH222906   2.825   4.981   1.304  0.4112 -0.3353  0.1805
  424TIP3    H122907   2.813   5.029   1.222 -0.4523 -2.4697 -1.0391
  424TIP3    H222908   2.908   4.934   1.292 -1.4354 -3.6266 -1.2375
  425TIP3   OH222909   1.625   0.353   0.589  0.2487 -0.1368  0.2762
  425TIP3    H122910   1.582   0.372   0.506  0.8827  0.7974  0.1437
  425TIP3    H222911   1.713   0.324   0.564 -0.1470 -1.7078  0.5577
  426TIP3   OH222912   4.621   0.923   0.736  0.5839 -0.1995 -0.3762
  426TIP3    H122913   4.650   0.965   0.655  0.3615  1.4765  0.3623
  426TIP3    H222914   4.645   0.985   0.805 -0.5705 -0.8978  0.6946
  427TIP3   OH222915   4.924   1.887   7.777  0.3564 -0.8360 -0.0051
  427TIP3    H122916   4.999   1.947   7.779 -0.7432  0.6050  1.5765
  427TIP3    H222917   4.850   1.942   7.804 -1.5613 -1.8622 -2.8299
  428TIP3   OH222918   4.750   3.248   8.686 -0.4264  0.7184 -0.3383
  428TIP3    H122919   4.807   3.307   8.735  0.6430  0.0137 -0.6969
  428TIP3    H222920   4.716   3.188   8.751 -1.0019  1.3211 -0.0755
  429TIP3   OH222921   4.631   2.587   8.835 -0.3030 -0.4073 -0.7748
  429TIP3    H122922   4.671   2.584   8.921 -0.8991  1.7279 -0.3878
  429TIP3    H222923   4.605   2.496   8.818 -1.8354 -0.6177  2.0861
  430TIP3   OH222924   2.385   0.864   3.097  0.0247  0.4963  0.0032
  430TIP3    H122925   2.298   0.876   3.058 -0.2558 -1.5395 -0.1354
  430TIP3    H222926   2.375   0.787   3.153  1.4349  1.0083  1.0166
  431TIP3   OH222927   2.624   1.942   2.577 -1.0102 -0.2414  0.0327
  431TIP3    H122928   2.581   1.911   2.498 -1.1842  3.1892 -1.3736
  431TIP3    H222929   2.706   1.892   2.581 -1.1822 -0.7548 -2.0934
  432TIP3   OH222930   4.040   6.718   1.603  0.5986  0.1040  0.4266
  432TIP3    H122931   3.984   6.737   1.679  1.3945  0.7347  0.8712
  432TIP3    H222932   4.103   6.654   1.636 -0.0088 -0.8148 -0.1506
  433TIP3   OH222933   6.501   1.470   2.202  0.2686 -0.2423  0.0737
  433TIP3    H122934   6.480   1.531   2.273 -1.4689  0.0556 -0.6391
  433TIP3    H222935   6.471   1.385   2.233 -2.9609  0.2795 -1.1886
  434TIP3   OH222936   0.269   0.409   1.936  0.4140  0.1344 -0.1696
  434TIP3    H122937   0.244   0.429   2.026 -1.4664  0.9607 -0.8124
  434TIP3    H222938   0.185   0.399   1.890  1.3209  0.0277 -1.8781
  435TIP3   OH222939   0.858   1.713   0.012 -0.0811  0.1055 -0.5436
  435TIP3    H122940   0.834   1.756  -0.070 -0.4238 -0.8419 -0.9580
  435TIP3    H222941   0.952   1.726   0.020  0.2054 -0.9689 -1.8184
  436TIP3   OH222942   5.487   0.212   1.315 -0.5987  0.1480 -0.5877
  436TIP3    H122943   5.514   0.140   1.372 -2.1265  1.3989  1.8494
  436TIP3    H222944   5.558   0.219   1.251  2.4291  0.0986  2.4996
  437TIP3   OH222945   5.555   3.693   0.251 -0.6830  0.0318  0.4171
  437TIP3    H122946   5.515   3.631   0.312  0.1677  0.3435  1.3295
  437TIP3    H222947   5.535   3.779   0.289  0.6064  0.2004  0.7594
  438TIP3   OH222948   5.135   3.121   8.160 -0.7231  0.0338  0.7475
  438TIP3    H122949   5.194   3.045   8.157  1.4475  1.6061  1.0038
  438TIP3    H222950   5.080   3.106   8.237 -0.5694 -1.4127  0.6022
  439TIP3   OH222951   1.190   4.087   8.546  0.5894 -0.1746  0.2436
  439TIP3    H122952   1.161   4.000   8.573 -0.7521  0.3242  0.4918
  439TIP3    H222953   1.245   4.072   8.469 -0.1173 -1.1937 -0.0822
  440TIP3   OH222954   4.535   2.177   1.520  0.0439 -0.4431 -0.2211
  440TIP3    H122955   4.522   2.087   1.550 -1.4907 -0.1355  0.1252
  440TIP3    H222956   4.448   2.217   1.529  0.0055  0.2703 -3.0814
  441TIP3   OH222957   4.307   4.883   7.009  0.6141  0.1110 -0.0559
  441TIP3    H122958   4.231   4.860   6.956  1.0563  0.1384 -0.7181
  441TIP3    H222959   4.308   4.979   7.009  1.4827  0.1413 -1.3241
  442TIP3   OH222960   0.480   0.830   1.503 -0.1029 -0.5546  0.0376
  442TIP3    H122961   0.447   0.920   1.508  1.1350 -0.0935  0.1012
  442TIP3    H222962   0.564   0.832   1.549 -0.8032 -2.1199  1.4927
  443TIP3   OH222963   5.884   2.560   0.933  0.7500 -0.5398  0.2934
  443TIP3    H122964   5.839   2.485   0.894  1.6609 -0.9236 -0.0515
  443TIP3    H222965   5.929   2.601   0.859 -1.9154  2.0165 -0.0930
  444TIP3   OH222966   0.854   3.251   1.978  0.2538  0.1942  0.3342
  444TIP3    H122967   0.797   3.193   1.928 -0.8671  1.5175  0.0367
  444TIP3    H222968   0.874   3.201   2.058 -0.8658 -0.5095  0.1980
  445TIP3   OH222969   0.303   4.519   0.397 -0.1559  0.2392 -0.3734
  445TIP3    H122970   0.266   4.517   0.309 -1.0433 -3.0190 -0.0563
  445TIP3    H222971   0.246   4.463   0.449  1.4247  0.5203  1.8533
  446TIP3   OH222972   0.218   6.547   0.892  0.2852 -0.4275  0.3047
  446TIP3    H122973   0.230   6.642   0.895 -0.8173 -0.2858  0.6573
  446TIP3    H222974   0.128   6.533   0.919 -0.1321 -1.4468 -1.4352
  447TIP3   OH222975   0.917   6.678   2.425 -0.2991  0.2907 -0.6225
  447TIP3    H122976   0.828   6.713   2.427 -0.5588 -0.3517  0.6721
  447TIP3    H222977   0.972   6.753   2.449 -0.8323 -0.0511  1.9783
  448TIP3   OH222978   6.756   6.148   2.887  0.0334 -0.1785 -0.0438
  448TIP3    H122979   6.734   6.158   2.795  1.2090  2.2783 -0.1425
  448TIP3    H222980   6.834   6.092   2.887 -2.0727 -3.3705 -0.1520
  449TIP3   OH222981   6.378   5.914   1.318 -0.4299 -0.0726 -0.2223
  449TIP3    H122982   6.381   5.996   1.366  0.0577  1.3155 -2.4906
  449TIP3    H222983   6.466   5.877   1.328 -0.2867  0.2769 -0.2058
  450TIP3   OH222984   4.375   5.163   2.062 -0.2534 -0.3661  0.5902
  450TIP3    H122985   4.420   5.243   2.088  1.5683 -0.8444 -0.8750
  450TIP3    H222986   4.336   5.130   2.143  0.7304  0.9028  1.6212
  451TIP3   OH222987   0.737   2.647   0.922 -0.2751 -0.0902  0.0916
  451TIP3    H122988   0.732   2.742   0.919  0.4953  0.0046  1.1337
  451TIP3    H222989   0.819   2.626   0.877  0.1908 -0.1629  0.9575
  452TIP3   OH222990   0.212   2.928   1.211 -0.2405 -0.3867 -0.2034
  452TIP3    H122991   0.182   3.012   1.177 -0.2485 -0.3657 -0.1456
  452TIP3    H222992   0.138   2.868   1.198 -0.5747 -0.1567  0.6013
  453TIP3   OH222993   5.627   2.215   1.589  0.1520  0.0791  0.0720
  453TIP3    H122994   5.698   2.164   1.550  1.4632  1.6388  0.3015
  453TIP3    H222995   5.574   2.242   1.513  1.2512  0.9871 -0.4015
  454TIP3   OH222996   6.397   0.595   2.622  0.4423  0.1999  0.2806
  454TIP3    H122997   6.412   0.670   2.681 -1.7944  1.2906 -0.3996
  454TIP3    H222998   6.408   0.632   2.535 -0.8443 -0.1771 -0.0655
  455TIP3   OH222999   2.448   0.367   7.841  0.0424  0.3798 -0.1816
  455TIP3    H123000   2.477   0.308   7.911 -0.3341  1.1816  0.6656
  455TIP3    H223001   2.520   0.429   7.830 -0.5078  1.1714  0.5581
  456TIP3   OH223002   5.219   0.925   7.654  0.4218 -0.6502 -0.9575
  456TIP3    H123003   5.249   1.010   7.622 -1.5638  0.5831  0.2517
  456TIP3    H223004   5.160   0.893   7.586 -0.8543  0.2116 -0.3062
  457TIP3   OH223005   3.692   2.698   1.237 -0.2128 -0.2349  0.2446
  457TIP3    H123006   3.689   2.707   1.142 -0.3645 -0.5429  0.2171
  457TIP3    H223007   3.733   2.612   1.251 -0.4387 -0.3105  0.4490
  458TIP3   OH223008   5.620   4.633   8.092 -0.1313  0.0444  0.0698
  458TIP3    H123009   5.579   4.719   8.097 -1.8057 -0.7055 -0.2754
  458TIP3    H223010   5.578   4.591   8.017  1.1446 -0.8368 -0.1828
  459TIP3   OH223011   1.706   4.082   0.138  0.3525  0.2056  0.1399
  459TIP3    H123012   1.794   4.056   0.109  1.2115  3.5267 -0.7192
  459TIP3    H223013   1.695   4.171   0.104 -3.0592  0.2334  0.9327
  460TIP3   OH223014   3.824   0.532   7.903 -0.3425 -0.7452  0.1278
  460TIP3    H123015   3.803   0.499   7.990 -0.0247 -0.4819  0.3043
  460TIP3    H223016   3.802   0.625   7.906  0.5862 -0.5179  0.2359
  461TIP3   OH223017   2.759   2.700   0.175  0.0414 -0.1680 -0.1512
  461TIP3    H123018   2.789   2.633   0.114 -0.1095 -0.2220 -0.1675
  461TIP3    H223019   2.708   2.761   0.122 -1.0038 -0.7974  0.0951
  462TIP3   OH223020   4.310   0.613   1.035  0.3229  0.2282 -0.4736
  462TIP3    H123021   4.270   0.606   1.121 -0.1517 -0.1158 -0.7176
  462TIP3    H223022   4.271   0.542   0.984  2.6772 -1.3801 -0.1893
  463TIP3   OH223023   2.657   6.013   0.836  0.2988  0.3690 -0.2485
  463TIP3    H123024   2.630   5.930   0.874  4.2896 -0.5045  1.1048
  463TIP3    H223025   2.589   6.075   0.863 -1.8881 -2.0300  0.1631
  464TIP3   OH223026   6.075   4.144   0.411  0.0679 -0.4521 -0.0686
  464TIP3    H123027   6.077   4.238   0.392  1.9379 -0.4590 -0.0612
  464TIP3    H223028   6.034   4.105   0.333 -3.1643  0.5162  0.9698
  465TIP3   OH223029   3.672   5.251   2.173  0.5769  0.2463  0.0382
  465TIP3    H123030   3.678   5.301   2.254 -0.2317  0.0329  0.2334
  465TIP3    H223031   3.744   5.284   2.119  1.7856 -0.3386  1.2349
  466TIP3   OH223032   3.937   1.574   0.776 -0.0473 -0.6396 -0.0886
  466TIP3    H123033   3.901   1.619   0.853  2.1774 -2.4959  2.2135
  466TIP3    H223034   3.883   1.496   0.767 -0.1089 -0.5820 -0.2186
  467TIP3   OH223035   6.132   4.518   7.225  0.1242  0.5070 -0.1814
  467TIP3    H123036   6.105   4.445   7.281 -0.9324  0.5295 -0.6365
  467TIP3    H223037   6.065   4.585   7.239 -0.2706  0.4435 -1.5768
  468TIP3   OH223038   2.620   2.289   2.077  0.0692 -0.3794  0.2443
  468TIP3    H123039   2.688   2.348   2.108  1.0593 -0.8517 -0.9284
  468TIP3    H223040   2.612   2.222   2.145 -0.6642  0.7487  1.3186
  469TIP3   OH223041   0.160   6.204   2.566 -0.6105  0.0695  0.1140
  469TIP3    H123042   0.217   6.275   2.595  0.5472 -0.5382 -0.6111
  469TIP3    H223043   0.217   6.145   2.517 -1.1373 -2.2480  2.0651
  470TIP3   OH223044   3.869   4.589   0.053 -0.0593 -0.9872  0.6939
  470TIP3    H123045   3.935   4.574  -0.015 -1.0443 -2.5268  0.0079
  470TIP3    H223046   3.906   4.549   0.132  0.5625 -0.2910  0.7578
  471TIP3   OH223047   2.232   5.394   2.150 -0.1436  0.4767 -0.4911
  471TIP3    H123048   2.246   5.369   2.059  0.2254 -2.0751  0.1941
  471TIP3    H223049   2.294   5.341   2.200 -1.6759  0.3290  1.3885
  472TIP3   OH223050   1.582   0.183   0.152 -0.1785 -0.0826  0.3145
  472TIP3    H123051   1.559   0.270   0.119  0.0886  0.7306  2.1314
  472TIP3    H223052   1.678   0.181   0.148 -0.2138 -0.6167 -0.4507
  473TIP3   OH223053   4.947   2.600   1.050 -0.2359 -0.5921  0.3191
  473TIP3    H123054   4.880   2.570   0.989 -1.1960  1.2714  0.3687
  473TIP3    H223055   4.909   2.582   1.137 -0.0950 -0.7179  0.3549
  474TIP3   OH223056   4.472   5.332   2.431 -0.0088 -0.2209 -0.0244
  474TIP3    H123057   4.504   5.241   2.431  1.3074  0.2029  1.1076
  474TIP3    H223058   4.547   5.383   2.402 -1.2221  0.4097 -2.2254
  475TIP3   OH223059   5.845   1.726   2.478  0.4529  0.3806 -0.3700
  475TIP3    H123060   5.882   1.673   2.408 -0.6451 -0.2778 -0.4737
  475TIP3    H223061   5.754   1.698   2.485  0.0691  1.6448  0.1655
  476TIP3   OH223062   3.332   3.136   2.099 -0.6640  0.0417 -0.6506
  476TIP3    H123063   3.301   3.074   2.164 -0.2102 -0.0491 -0.5148
  476TIP3    H223064   3.399   3.088   2.050  1.0159  0.9476  0.6327
  477TIP3   OH223065   2.231   5.020   0.877 -0.4971  0.3576  0.8982
  477TIP3    H123066   2.254   4.945   0.822 -1.9405  0.7873 -0.3649
  477TIP3    H223067   2.244   4.990   0.966 -1.1411 -1.4347  0.4228
  478TIP3   OH223068   6.462   1.419   8.395 -0.3578 -0.0942  0.7546
  478TIP3    H123069   6.391   1.469   8.435  0.8353  1.5606  0.8894
  478TIP3    H223070   6.539   1.475   8.404  1.2842 -2.3586  1.7781
  479TIP3   OH223071   3.068   6.287   7.683  0.4351  0.0205 -0.2899
  479TIP3    H123072   3.112   6.359   7.638  0.1138 -0.0645 -0.7409
  479TIP3    H223073   3.138   6.223   7.701  0.5577  0.0496 -0.6689
  480TIP3   OH223074   2.128   0.823   1.223  0.0177  0.0605 -0.2063
  480TIP3    H123075   2.047   0.864   1.253  0.0174 -0.7589  0.9560
  480TIP3    H223076   2.122   0.732   1.252  1.1659 -0.1163 -0.4767
  481TIP3   OH223077   0.278   3.292   2.856  0.0497  0.6924 -0.3120
  481TIP3    H123078   0.223   3.219   2.830 -0.2757  0.0036  2.0534
  481TIP3    H223079   0.219   3.367   2.857  0.1001  0.7651 -1.5572
  482TIP3   OH223080   4.025   3.925   8.501 -0.1022  0.3207 -0.0756
  482TIP3    H123081   4.041   3.948   8.593  1.0929 -1.3569  0.1836
  482TIP3    H223082   4.110   3.937   8.459 -0.5702  0.7646 -0.9040
  483TIP3   OH223083   5.252   6.030   1.610  0.5459  0.2799  1.0586
  483TIP3    H123084   5.269   6.033   1.516 -1.5965 -0.8536  0.5540
  483TIP3    H223085   5.288   5.946   1.638 -0.9970 -0.5329  0.6983
  484TIP3   OH223086   3.204   2.426   2.445  0.2826 -0.2064 -0.5811
  484TIP3    H123087   3.253   2.371   2.506  2.1814  2.1991  0.2542
  484TIP3    H223088   3.268   2.451   2.378 -1.0473 -0.5860 -2.0457
  485TIP3   OH223089   1.156   6.456   1.452  0.5844 -0.2573 -0.1628
  485TIP3    H123090   1.225   6.391   1.440  0.7952 -0.1531  0.4875
  485TIP3    H223091   1.111   6.430   1.532 -2.1955 -2.1791 -2.1815
  486TIP3   OH223092   2.960   1.799   0.604 -0.0641  0.6241 -0.4126
  486TIP3    H123093   3.034   1.839   0.649  0.0274  0.1147 -0.1038
  486TIP3    H223094   2.983   1.805   0.511 -0.4459  2.0560 -0.4414
  487TIP3   OH223095   2.779   3.663   7.658 -0.2309 -0.2471 -0.3070
  487TIP3    H123096   2.868   3.632   7.646 -0.5577 -0.8493 -1.3688
  487TIP3    H223097   2.739   3.600   7.718  0.4924  0.9460  1.5152
  488TIP3   OH223098   0.944   3.842   0.092 -0.1232 -0.0379  0.7813
  488TIP3    H123099   1.009   3.789   0.139  1.3213  0.8853 -0.1156
  488TIP3    H223100   0.984   3.858   0.006 -1.5569  0.5390  0.1970
  489TIP3   OH223101   4.076   1.298   3.039 -0.0301  0.3035 -0.0258
  489TIP3    H123102   4.133   1.289   3.116 -0.5426  2.2495  0.6516
  489TIP3    H223103   4.011   1.229   3.050  0.3418  0.0805  0.8991
  490TIP3   OH223104   5.977   1.237   7.583 -0.0220  0.0190  0.0000
  490TIP3    H123105   5.985   1.155   7.631  2.8172 -1.2069 -2.2919
  490TIP3    H223106   5.910   1.219   7.517 -0.0368 -0.1254  0.0533
  491TIP3   OH223107   3.605   4.686   2.275 -0.5390  0.3720 -0.0939
  491TIP3    H123108   3.626   4.664   2.366 -0.0349  0.5550 -0.1648
  491TIP3    H223109   3.640   4.774   2.263  0.4941 -0.1240 -0.8272
  492TIP3   OH223110   4.542   5.633   8.337  0.4346 -0.6397 -0.3891
  492TIP3    H123111   4.489   5.682   8.274  1.7379  2.2130  0.5312
  492TIP3    H223112   4.627   5.623   8.294  1.5303  1.8674  0.9728
  493TIP3   OH223113   3.121   6.541   7.220  0.1275 -0.0980  0.6072
  493TIP3    H123114   3.175   6.532   7.299 -0.1230  0.6675  0.8782
  493TIP3    H223115   3.153   6.621   7.179 -1.6009  1.0859  1.4344
  494TIP3   OH223116   1.585   1.368   0.045  0.2233  0.3887  0.7251
  494TIP3    H123117   1.649   1.365  -0.026  0.1340 -1.6501  0.6708
  494TIP3    H223118   1.620   1.309   0.112 -1.8481 -1.3717  0.4009
  495TIP3   OH223119   4.531   5.599   8.722 -0.6673 -0.7342  0.2042
  495TIP3    H123120   4.596   5.537   8.689 -0.0687  0.5459 -1.1675
  495TIP3    H223121   4.578   5.683   8.726 -1.6604 -0.2037  1.2504
  496TIP3   OH223122   0.017   0.490   1.868 -0.4432  0.1179  0.0142
  496TIP3    H123123  -0.055   0.466   1.927 -0.7624 -1.8243 -1.0649
  496TIP3    H223124   0.024   0.585   1.876 -2.0128  0.1708  1.4042
  497TIP3   OH223125   2.050   2.661   2.525  0.3770  0.0301 -0.3828
  497TIP3    H123126   2.066   2.589   2.465 -0.1404 -0.6428  0.2555
  497TIP3    H223127   2.087   2.738   2.482  1.3259 -0.6865 -0.8820
  498TIP3   OH223128   0.657   5.407   1.012  0.1583  0.7534 -0.1064
  498TIP3    H123129   0.719   5.463   1.059  1.7847  0.3981 -1.7046
  498TIP3    H223130   0.581   5.463   0.997  2.0313  2.8921 -2.3446
  499TIP3   OH223131   1.771   5.142   2.458 -0.0868 -0.2515 -0.1706
  499TIP3    H123132   1.743   5.076   2.395  0.5614 -1.1979  0.5196
  499TIP3    H223133   1.845   5.103   2.503 -0.8079  0.2176  1.5019
  500TIP3   OH223134   3.577   3.325   0.987  0.2771  0.3199  0.5945
  500TIP3    H123135   3.560   3.298   0.897  0.7716  1.5486  0.1120
  500TIP3    H223136   3.670   3.307   1.001  0.1735  0.0126  0.9091
  501TIP3   OH223137   5.110   1.097   2.049 -0.0904  0.1076 -0.5031
  501TIP3    H123138   5.115   1.032   2.119  0.6669 -1.1834 -1.6853
  501TIP3    H223139   5.017   1.118   2.042 -0.4118 -1.1255 -0.3045
  502TIP3   OH223140   1.293   1.119   2.342  0.3655 -0.4773  0.3002
  502TIP3    H123141   1.341   1.043   2.376  0.1848 -1.4123 -1.4338
  502TIP3    H223142   1.212   1.121   2.394  0.6871 -1.0290  0.8412
  503TIP3   OH223143   4.937   4.325   8.818  0.0503 -0.5279  0.0298
  503TIP3    H123144   4.920   4.249   8.873  1.4664 -1.1160 -0.2904
  503TIP3    H223145   4.867   4.324   8.753  0.5763 -2.1411 -0.5567
  504TIP3   OH223146   5.073   2.503   8.636 -0.2359  0.4752 -0.2203
  504TIP3    H123147   4.980   2.480   8.638  0.1259 -1.1980  2.0033
  504TIP3    H223148   5.084   2.562   8.710  0.3946  1.0535 -0.7723
  505TIP3   OH223149   0.747   2.503   8.053 -0.7348  0.2894  0.1761
  505TIP3    H123150   0.781   2.415   8.034 -2.5397 -1.0393  2.6204
  505TIP3    H223151   0.746   2.508   8.148  2.5215  4.3628  0.2528
  506TIP3   OH223152   5.171   2.655   0.887 -0.1418 -0.6183  0.4503
  506TIP3    H123153   5.091   2.640   0.937 -0.9621  3.1085  0.5356
  506TIP3    H223154   5.242   2.637   0.950 -0.9143 -2.0398  0.9654
  507TIP3   OH223155   0.111   2.099   2.613  0.3963 -0.0467  0.0991
  507TIP3    H123156   0.080   2.180   2.571  2.5326  1.1486  0.6913
  507TIP3    H223157   0.054   2.090   2.690  1.0247  1.7735  0.8520
  508TIP3   OH223158   2.770   3.649   1.392 -0.1034  0.5854  0.2471
  508TIP3    H123159   2.770   3.554   1.388  0.2252  0.5400  1.0918
  508TIP3    H223160   2.761   3.677   1.301  0.1089 -0.2510 -0.0376
  509TIP3   OH223161   2.220   4.103   8.138 -0.8495  0.1396 -0.6062
  509TIP3    H123162   2.156   4.122   8.070 -1.1432 -0.7254 -0.5813
  509TIP3    H223163   2.189   4.023   8.180  0.4817 -0.5724 -0.8990
  510TIP3   OH223164   1.618   5.701   2.993 -0.0946  0.1095 -0.4968
  510TIP3    H123165   1.558   5.694   3.067 -2.1956  0.9541 -2.0299
  510TIP3    H223166   1.608   5.617   2.947 -2.3056  1.2530 -2.2668
  511TIP3   OH223167   0.382   5.791   2.353  0.1839 -0.4123 -0.8470
  511TIP3    H123168   0.394   5.723   2.420  1.5323 -0.2476 -0.9061
  511TIP3    H223169   0.364   5.741   2.273  1.6705 -0.7413 -0.9967
  512TIP3   OH223170   4.657   5.513   2.417  0.1313 -0.3744  0.2420
  512TIP3    H123171   4.690   5.474   2.499  1.7911  0.2434 -0.0902
  512TIP3    H223172   4.655   5.607   2.435  0.5354 -0.2351 -0.4206
  513TIP3   OH223173   6.122   2.844   1.157  0.1709 -0.5812 -0.0403
  513TIP3    H123174   6.190   2.777   1.155  0.1068 -0.6436 -1.8501
  513TIP3    H223175   6.046   2.800   1.195  0.3147 -1.3665 -0.6312
  514TIP3   OH223176   2.911   5.284   8.805 -0.3721  0.7602 -0.4798
  514TIP3    H123177   2.913   5.379   8.805  1.6914  0.8218 -2.1119
  514TIP3    H223178   3.004   5.258   8.809 -0.9327 -1.2379  1.5706
  515TIP3   OH223179   3.017   3.100   1.178  0.5448 -0.5508  0.0995
  515TIP3    H123180   3.024   3.008   1.153  0.5744  0.0144 -2.2302
  515TIP3    H223181   2.924   3.114   1.193  0.5283 -0.9404  0.3700
  516TIP3   OH223182   0.897   6.782   8.171 -0.0495  0.0506  0.5377
  516TIP3    H123183   0.929   6.854   8.224  2.3613 -1.4140  1.1967
  516TIP3    H223184   0.918   6.703   8.221  0.2192 -1.2778 -1.5265
  517TIP3   OH223185   3.298   6.393   2.945 -0.3651 -0.0181  0.0764
  517TIP3    H123186   3.290   6.447   3.024  1.9682 -0.0357  0.3906
  517TIP3    H223187   3.348   6.317   2.973 -0.3261 -0.4844 -1.2125
  518TIP3   OH223188   1.150   6.236   1.169 -1.3395 -0.1301 -0.2421
  518TIP3    H123189   1.100   6.283   1.235 -0.9497  1.4501 -1.0349
  518TIP3    H223190   1.174   6.302   1.104  0.2970 -1.1724 -0.7697
  519TIP3   OH223191   6.132   6.708   1.512  0.2153 -0.3054 -0.1084
  519TIP3    H123192   6.135   6.779   1.448  0.9316 -0.3710 -0.1522
  519TIP3    H223193   6.194   6.734   1.580 -0.3130 -0.3817  0.4123
  520TIP3   OH223194   6.133   3.533   0.778  0.2355  0.2754 -0.2771
  520TIP3    H123195   6.078   3.455   0.770  0.0876  0.2248  1.0219
  520TIP3    H223196   6.072   3.607   0.769  0.2249  0.2291 -0.5737
  521TIP3   OH223197   6.160   5.498   1.188 -0.4581 -0.2110  0.1964
  521TIP3    H123198   6.158   5.563   1.258  0.0999  0.5502 -0.4794
  521TIP3    H223199   6.237   5.445   1.206 -0.1958  0.1159  0.0500
  522TIP3   OH223200   6.473   3.179   2.620  0.2599 -0.1437 -0.2876
  522TIP3    H123201   6.567   3.179   2.601  0.2544  0.6230 -0.3521
  522TIP3    H223202   6.451   3.087   2.630  1.6027 -0.2536  2.6456
  523TIP3   OH223203   5.791   4.759   2.643 -0.1863  0.0102 -0.2029
  523TIP3    H123204   5.813   4.721   2.558  1.9036  1.9655 -0.6476
  523TIP3    H223205   5.844   4.709   2.706 -0.8745 -0.7065 -0.1878
  524TIP3   OH223206   5.563   1.242   8.074 -0.1440 -0.4383 -0.1569
  524TIP3    H123207   5.618   1.167   8.094 -0.5262 -0.0689  2.7543
  524TIP3    H223208   5.599   1.313   8.128 -0.8870  1.0083 -1.4609
  525TIP3   OH223209   4.662   4.170   0.311 -0.3954 -0.2142  0.0168
  525TIP3    H123210   4.697   4.196   0.226 -0.9082 -2.0107 -0.8021
  525TIP3    H223211   4.643   4.252   0.356  1.3268  0.7865 -0.9744
  526TIP3   OH223212   2.678   1.561   0.255 -0.0542  0.6645 -0.0074
  526TIP3    H123213   2.653   1.473   0.225  0.3289  1.6334 -3.7069
  526TIP3    H223214   2.595   1.609   0.260 -0.1377  0.4511  0.7112
  527TIP3   OH223215   2.991   2.150   2.133 -0.1263 -0.6453 -0.8477
  527TIP3    H123216   2.954   2.229   2.095 -0.7377  0.7176  2.2890
  527TIP3    H223217   3.080   2.146   2.098 -0.0574  1.4787 -1.0114
  528TIP3   OH223218   0.517   4.565   8.446  0.3246 -0.5358  0.3702
  528TIP3    H123219   0.532   4.660   8.445  0.5086 -0.5549 -1.1762
  528TIP3    H223220   0.497   4.545   8.537  0.8036  0.9077  0.8207
  529TIP3   OH223221   5.594   6.446   2.972 -0.5645  0.2183 -0.0839
  529TIP3    H123222   5.563   6.530   2.940 -1.8899 -0.6306 -1.1522
  529TIP3    H223223   5.593   6.454   3.067 -2.8606  0.6953 -0.0960
  530TIP3   OH223224   2.284   0.253   2.927 -0.1428 -0.1125  0.3601
  530TIP3    H123225   2.368   0.255   2.882  0.6855  0.9511  1.8401
  530TIP3    H223226   2.264   0.160   2.938  0.5868 -0.3712 -0.4542
  531TIP3   OH223227   2.492   3.979   0.637 -0.3101 -0.3037  0.0740
  531TIP3    H123228   2.462   3.898   0.596  1.3757 -0.5676 -0.7264
  531TIP3    H223229   2.465   3.972   0.728  1.1074 -2.4814  0.3806
  532TIP3   OH223230   3.415   4.048   8.754 -0.0988  0.2513 -0.1934
  532TIP3    H123231   3.435   3.974   8.697  2.9772 -0.3664  1.4629
  532TIP3    H223232   3.381   4.008   8.834  1.9636  0.4710  0.8701
  533TIP3   OH223233   1.015   3.779   1.237 -0.3925  0.4183  0.4987
  533TIP3    H123234   1.092   3.770   1.294 -0.3288  0.5588  0.4352
  533TIP3    H223235   1.052   3.787   1.149 -0.3498  2.9169  0.6748
  534TIP3   OH223236   2.643   1.391   8.896 -0.2738 -0.4965 -0.1972
  534TIP3    H123237   2.668   1.315   8.844  2.7067  1.9493 -2.7293
  534TIP3    H223238   2.663   1.366   8.986  3.1645 -1.8776 -1.2081
  535TIP3   OH223239   1.011   5.344   8.746 -0.3970 -0.8828  0.1155
  535TIP3    H123240   0.964   5.315   8.823  0.6051  1.6226  1.8083
  535TIP3    H223241   1.096   5.372   8.779  0.2448 -0.1449 -1.9838
  536TIP3   OH223242   3.461   5.630   1.576  0.2693  0.3467 -0.1803
  536TIP3    H123243   3.478   5.673   1.659 -1.5281 -0.7892  0.8558
  536TIP3    H223244   3.472   5.537   1.595  0.5019  0.1113 -1.4010
  537TIP3   OH223245   1.475   5.885   8.416 -0.0100  0.2548 -0.0902
  537TIP3    H123246   1.568   5.902   8.399 -0.5038  1.5011 -1.7792
  537TIP3    H223247   1.438   5.971   8.432 -0.7763 -0.3058  1.3142
  538TIP3   OH223248   3.117   0.926   8.335  0.8903 -0.2965  0.2674
  538TIP3    H123249   3.107   1.008   8.384  1.3958 -0.9403  1.4979
  538TIP3    H223250   3.119   0.953   8.243  0.4136  1.0034  0.6150
  539TIP3   OH223251   1.123   0.285   8.612 -0.5680  0.0922  0.5572
  539TIP3    H123252   1.158   0.219   8.552 -0.6385  1.0333 -0.5486
  539TIP3    H223253   1.059   0.237   8.665 -1.6449 -0.4769 -1.1503
  540TIP3   OH223254   1.551   3.816   2.264  0.4822  0.9420  0.2443
  540TIP3    H123255   1.562   3.722   2.283 -0.8795  0.2138 -2.1383
  540TIP3    H223256   1.614   3.834   2.195 -0.0988  1.4606 -0.1580
  541TIP3   OH223257   3.605   5.352   1.248 -0.2609 -0.7006  0.0987
  541TIP3    H123258   3.670   5.412   1.213 -0.5930  1.0398  2.2420
  541TIP3    H223259   3.528   5.406   1.264 -3.0638 -2.9941 -3.9454
  542TIP3   OH223260   1.321   4.126   7.456 -0.3404  0.1772 -0.3769
  542TIP3    H123261   1.394   4.185   7.441 -1.0027  1.2651  0.5556
  542TIP3    H223262   1.359   4.052   7.505  0.2922  0.3002 -0.6751
  543TIP3   OH223263   2.463   2.362   3.147 -0.3765 -0.1239  0.1699
  543TIP3    H123264   2.507   2.358   3.062 -1.7407 -0.8741 -0.5441
  543TIP3    H223265   2.376   2.326   3.130 -0.4362 -0.9968  2.0549
  544TIP3   OH223266   1.124   6.159   1.604 -0.3027 -0.2902 -0.0994
  544TIP3    H123267   1.057   6.226   1.616 -0.0986 -0.0545 -0.2574
  544TIP3    H223268   1.192   6.202   1.551  0.0550 -0.4683  0.2057
  545TIP3   OH223269   2.260   0.594   1.768  0.6583  0.0218 -0.4259
  545TIP3    H123270   2.258   0.557   1.680 -0.8193 -1.9715  0.3484
  545TIP3    H223271   2.298   0.524   1.822 -1.5708 -0.1987  0.9986
  546TIP3   OH223272   2.880   4.696   8.943 -0.6357 -0.0800  0.2274
  546TIP3    H123273   2.809   4.726   8.887  1.7448  1.5035 -2.1284
  546TIP3    H223274   2.865   4.601   8.951 -3.6422  0.3367  0.9432
  547TIP3   OH223275   3.424   0.015   8.210 -0.0226  0.3913 -0.7603
  547TIP3    H123276   3.423   0.086   8.274  0.7690  2.3197 -2.7436
  547TIP3    H223277   3.510   0.022   8.168 -0.7254 -0.3618 -2.4217
  548TIP3   OH223278   4.530   1.961   2.136  0.4072 -0.1857  0.3784
  548TIP3    H123279   4.577   2.012   2.070  2.0597 -1.7146  0.3020
  548TIP3    H223280   4.482   2.026   2.187  2.2919  1.4626  0.1917
  549TIP3   OH223281   1.833   0.382   2.296 -0.3424 -0.6654 -0.1142
  549TIP3    H123282   1.766   0.440   2.260  2.4100  2.3604 -0.8251
  549TIP3    H223283   1.836   0.402   2.389 -1.8740 -2.5085  0.3969
  550TIP3   OH223284   0.746   0.753   0.215  0.2410 -0.3907  0.1117
  550TIP3    H123285   0.764   0.723   0.304  0.9967 -2.0945 -0.5866
  550TIP3    H223286   0.723   0.674   0.167  1.0859  0.3129 -1.5225
  551TIP3   OH223287   5.906   4.911   8.409  0.2666 -0.5207  0.6484
  551TIP3    H123288   5.899   4.967   8.332 -0.9304 -0.8298  0.5163
  551TIP3    H223289   5.908   4.822   8.373  0.6599 -0.6336  0.9356
  552TIP3   OH223290   1.514   6.304   1.682 -0.2206  0.1259  0.0030
  552TIP3    H123291   1.595   6.286   1.730  0.6695  2.0727 -0.6446
  552TIP3    H223292   1.444   6.278   1.742  0.8316 -2.5477  0.1962
  553TIP3   OH223293   1.184   4.358   8.578 -0.3597  0.4620 -0.0320
  553TIP3    H123294   1.180   4.265   8.555  0.6288  1.2548 -4.2468
  553TIP3    H223295   1.259   4.364   8.638  0.3863 -1.2962 -0.7113
  554TIP3   OH223296   2.004   1.409   1.063 -0.4388  0.2755  0.0574
  554TIP3    H123297   2.095   1.428   1.043 -0.3733 -0.0474  0.0590
  554TIP3    H223298   1.957   1.490   1.041 -0.3795 -0.0655 -1.3977
  555TIP3   OH223299   3.252   2.236   2.082  0.3784 -0.3206 -0.5611
  555TIP3    H123300   3.176   2.291   2.061  0.5233  0.3766  0.6353
  555TIP3    H223301   3.299   2.285   2.149  0.7699 -1.6859  0.2063
  556TIP3   OH223302   2.469   2.131   8.358  0.0529 -0.3412  0.0813
  556TIP3    H123303   2.474   2.059   8.295  0.3375 -1.4351  1.3047
  556TIP3    H223304   2.430   2.091   8.436 -1.1321  1.1902  0.3220
  557TIP3   OH223305   2.462   0.255   8.506  0.5736 -0.3449  0.0734
  557TIP3    H123306   2.501   0.253   8.419  2.3335 -0.4618  0.8181
  557TIP3    H223307   2.512   0.322   8.553  2.9120 -3.3730  2.3522
  558TIP3   OH223308   5.538   1.852   3.090 -0.3175 -0.0020 -0.3168
  558TIP3    H123309   5.444   1.860   3.078 -0.4971 -0.3732  0.7180
  558TIP3    H223310   5.566   1.937   3.124 -0.1627  0.3376 -1.2893
  559TIP3   OH223311   3.341   1.946   2.041 -0.0426  0.0909 -0.5295
  559TIP3    H123312   3.315   2.038   2.032 -0.7927 -0.1656 -1.0890
  559TIP3    H223313   3.308   1.921   2.127 -0.4131  0.1666 -0.6466
  560TIP3   OH223314   2.396   6.390   8.194  0.8147  0.5063 -0.2412
  560TIP3    H123315   2.379   6.329   8.266  1.8737  0.3598 -0.1006
  560TIP3    H223316   2.368   6.343   8.115  1.4331 -0.0901 -0.1131
  561TIP3   OH223317   0.073   4.090   7.424  0.5105  0.0116 -0.2059
  561TIP3    H123318   0.020   4.043   7.488 -0.4714  1.9632  0.4918
  561TIP3    H223319   0.122   4.154   7.476  1.0953  0.4034 -1.2151
  562TIP3   OH223320   1.089   1.549   2.780 -0.2598  0.3171 -0.3182
  562TIP3    H123321   1.076   1.610   2.707 -0.1705  1.6888  0.7548
  562TIP3    H223322   1.022   1.482   2.768  0.5770 -0.2301 -2.3658
  563TIP3   OH223323   4.897   0.975   0.249 -0.2339  0.3413  0.0660
  563TIP3    H123324   4.884   0.988   0.155 -1.2637 -2.0621 -0.1974
  563TIP3    H223325   4.991   0.954   0.257  0.0461  1.3983 -0.2804
  564TIP3   OH223326   0.025   1.972   8.856 -0.1064 -0.2390 -0.3505
  564TIP3    H123327   0.059   2.046   8.906  0.5052 -1.6492  1.4168
  564TIP3    H223328  -0.057   2.004   8.818  1.1815  1.9922 -1.4488
  565TIP3   OH223329   1.130   2.959   8.153 -0.6436 -0.1555  0.3202
  565TIP3    H123330   1.050   3.007   8.132 -0.5119 -0.5838 -1.3640
  565TIP3    H223331   1.153   2.915   8.071  1.7720  0.6254  0.4828
  566TIP3   OH223332   6.736   1.662   0.157 -0.0238 -0.3754 -0.0187
  566TIP3    H123333   6.660   1.675   0.101 -1.2313 -0.9563  1.4263
  566TIP3    H223334   6.700   1.656   0.246  1.7227 -0.4922  0.7206
  567TIP3   OH223335   6.033   1.630   7.924  0.2931 -0.2243  0.2711
  567TIP3    H123336   6.063   1.566   7.860 -1.5127 -2.6955  1.6849
  567TIP3    H223337   5.950   1.662   7.889  0.8964  0.9485 -0.1357
  568TIP3   OH223338   4.062   0.763   7.838  0.5262 -0.3219 -0.2964
  568TIP3    H123339   4.084   0.739   7.748 -0.5773  1.7154 -1.1618
  568TIP3    H223340   3.967   0.770   7.839  0.5922  0.7062  0.7357
  569TIP3   OH223341   2.571   6.293   8.434 -0.2522  0.5266 -0.7225
  569TIP3    H123342   2.476   6.306   8.444 -0.4535 -1.5953  0.7636
  569TIP3    H223343   2.581   6.199   8.424  1.7279  0.7116 -0.8502
  570TIP3   OH223344   5.969   4.676   1.963 -0.1784 -0.4128 -0.1835
  570TIP3    H123345   6.009   4.763   1.959 -1.4496  0.1896 -0.4583
  570TIP3    H223346   6.033   4.622   2.010  1.4250  0.1960 -1.5767
  571TIP3   OH223347   2.440   6.281   0.493 -0.3060 -0.2202 -0.3267
  571TIP3    H123348   2.414   6.367   0.525 -0.3933  0.9245 -3.2242
  571TIP3    H223349   2.493   6.298   0.415 -0.2616 -2.7995 -0.9744
  572TIP3   OH223350   3.549   4.203   7.940 -0.5667 -0.6590  0.3245
  572TIP3    H123351   3.569   4.157   7.858  1.8598  0.4037  0.2352
  572TIP3    H223352   3.604   4.160   8.005  0.3687  0.8786  0.5974
  573TIP3   OH223353   1.433   1.524   2.682 -0.0365  0.2280  0.4432
  573TIP3    H123354   1.399   1.465   2.614 -1.3120  0.7420  0.6078
  573TIP3    H223355   1.355   1.555   2.727  0.5165  2.6974 -0.1609
  574TIP3   OH223356   1.105   0.038   1.279 -0.3401  0.7580  0.1114
  574TIP3    H123357   1.127   0.086   1.359 -0.1946 -1.1810  1.2788
  574TIP3    H223358   1.010   0.023   1.286 -0.0339 -1.0442  0.9006
  575TIP3   OH223359   0.389   1.961   1.305 -0.1862 -0.0225  0.6129
  575TIP3    H123360   0.322   1.904   1.266 -0.8731  1.0634  0.1552
  575TIP3    H223361   0.339   2.035   1.341  0.7109  0.4382  0.9369
  576TIP3   OH223362   0.164   1.928   1.672 -0.2347 -0.4792  0.3735
  576TIP3    H123363   0.074   1.960   1.680  0.0181  0.9962 -1.8120
  576TIP3    H223364   0.196   1.925   1.762 -0.5019  5.0545  0.9791
  577TIP3   OH223365   2.379   2.133   0.446 -0.0523  0.2537 -0.0930
  577TIP3    H123366   2.413   2.168   0.528  0.7128 -2.6349  0.9534
  577TIP3    H223367   2.344   2.209   0.400  0.5280  2.1537  2.3840
  578TIP3   OH223368   1.317   0.107   2.772 -0.5039 -0.2174 -0.0410
  578TIP3    H123369   1.267   0.187   2.786 -0.4854 -0.2157  0.0151
  578TIP3    H223370   1.405   0.128   2.803 -0.1487  0.1785 -1.2463
  579TIP3   OH223371   2.307   5.924   8.518  0.5507 -0.8793  0.2292
  579TIP3    H123372   2.237   5.925   8.453  1.3409 -1.9752 -0.6762
  579TIP3    H223373   2.267   5.959   8.597 -0.0639  1.9387 -1.2037
  580TIP3   OH223374   5.917   1.910   2.037  0.0426 -0.1766 -0.6336
  580TIP3    H123375   5.838   1.931   1.987  0.9889 -0.6877 -2.4356
  580TIP3    H223376   5.983   1.891   1.970  0.8110 -3.0946  0.8023
  581TIP3   OH223377   3.571   3.872   2.840 -0.1204  1.1346  0.6618
  581TIP3    H123378   3.487   3.906   2.809 -0.2269  1.4079  1.2384
  581TIP3    H223379   3.594   3.928   2.914  1.4420  2.2367 -0.5770
  582TIP3   OH223380   3.243   4.877   0.278  0.2956  0.2083  0.4380
  582TIP3    H123381   3.150   4.891   0.259  0.4020 -0.6275 -0.8269
  582TIP3    H223382   3.288   4.901   0.197  1.1897  0.5591  1.0202
  583TIP3   OH223383   3.156   1.175   2.551 -0.9988 -0.0201 -0.0459
  583TIP3    H123384   3.238   1.222   2.538 -1.2254 -0.1595 -2.4178
  583TIP3    H223385   3.127   1.151   2.463 -2.4581 -1.9316  0.8621
  584TIP3   OH223386   1.562   5.615   0.768  0.5641 -0.0450  0.7459
  584TIP3    H123387   1.514   5.561   0.705  2.2143 -1.7106  0.8102
  584TIP3    H223388   1.503   5.621   0.843  0.6101 -2.6174  1.1050
  585TIP3   OH223389   2.326   2.575   2.764  0.0757 -0.0132  0.3877
  585TIP3    H123390   2.399   2.598   2.706  1.0322  0.3944  1.7096
  585TIP3    H223391   2.285   2.659   2.785 -0.0506 -0.1219  0.5724
  586TIP3   OH223392   1.098   1.091   1.260  0.3823  0.1233 -0.1326
  586TIP3    H123393   1.183   1.133   1.250 -0.5362  1.9598 -0.6478
  586TIP3    H223394   1.110   1.029   1.332  1.5048  2.1345  1.5118
  587TIP3   OH223395   3.927   4.399   3.352 -0.6234 -0.2537 -0.0052
  587TIP3    H123396   3.983   4.349   3.292 -0.3594 -1.6785  1.3464
  587TIP3    H223397   3.841   4.399   3.311 -0.0645  0.3601 -1.2263
  588TIP3   OH223398   4.872   2.873   0.963 -0.1912 -0.3333  0.3519
  588TIP3    H123399   4.867   2.784   0.999 -0.6122 -1.2921 -1.8696
  588TIP3    H223400   4.965   2.894   0.963 -0.1815 -0.2748  1.9505
  589TIP3   OH223401   4.396   6.459   3.266  0.0000  0.3144  0.2958
  589TIP3    H123402   4.394   6.508   3.348 -0.4337  0.6322  0.1037
  589TIP3    H223403   4.324   6.495   3.215  0.1551 -0.0003 -0.1574
  590TIP3   OH223404   0.385   1.439   8.390 -1.0015  0.4678  0.0388
  590TIP3    H123405   0.291   1.457   8.402 -1.0319  0.1954  0.2150
  590TIP3    H223406   0.389   1.346   8.367 -0.6024 -0.2495  2.5883
  591TIP3   OH223407   5.047   0.982   3.295  0.3203  0.1560 -0.4628
  591TIP3    H123408   5.120   0.966   3.354 -1.1341  1.7323  1.9297
  591TIP3    H223409   5.048   1.076   3.279 -1.0945  0.2073 -0.4411
  592TIP3   OH223410   1.374   6.075   1.254  0.3023 -0.6881  0.4484
  592TIP3    H123411   1.309   6.126   1.207 -0.5553 -1.0392  1.2146
  592TIP3    H223412   1.332   5.990   1.269  1.5818 -1.5263 -0.5345
  593TIP3   OH223413   2.472   4.211   8.607 -0.4616 -0.6276  0.0005
  593TIP3    H123414   2.471   4.207   8.702  3.2153  0.7963  0.2861
  593TIP3    H223415   2.400   4.270   8.584 -0.6608 -0.0395  1.9936
  594TIP3   OH223416   4.205   3.679   0.728  0.1347 -0.0543 -0.0487
  594TIP3    H123417   4.153   3.717   0.799  2.5725  1.9639  0.8050
  594TIP3    H223418   4.260   3.613   0.770 -1.0561 -1.6172 -0.8120
  595TIP3   OH223419   4.883   1.395   8.967 -0.2741  0.3891 -0.0084
  595TIP3    H123420   4.926   1.330   8.912 -0.5764  0.7593 -0.6937
  595TIP3    H223421   4.949   1.419   9.032  0.3487  0.4996 -0.6655
  596TIP3   OH223422   3.662   5.088   1.189  0.2866  0.4606 -0.7033
  596TIP3    H123423   3.629   5.172   1.221 -0.6559  0.2115 -0.9771
  596TIP3    H223424   3.595   5.025   1.215  0.8750 -0.1730 -0.7027
  597TIP3   OH223425   0.615   1.916   0.245  0.0098  0.7612  0.4563
  597TIP3    H123426   0.568   1.994   0.216 -0.4201  0.9323  1.5840
  597TIP3    H223427   0.682   1.903   0.178 -0.8575  1.2239 -0.5313
  598TIP3   OH223428   1.337   0.770   3.764  0.5865  0.6149  0.4758
  598TIP3    H123429   1.306   0.853   3.728  2.5819  1.4630  0.5853
  598TIP3    H223430   1.321   0.778   3.858  0.5360  0.7619  0.4556
  599TIP3   OH223431   3.794   6.753   0.608 -0.1714  0.0929  0.2868
  599TIP3    H123432   3.776   6.795   0.524 -1.7428 -0.0314  0.5348
  599TIP3    H223433   3.777   6.661   0.593 -0.6222  0.0907  0.7772
  600TIP3   OH223434   3.251   2.820   2.454 -0.0144 -0.0030 -0.0153
  600TIP3    H123435   3.222   2.749   2.512 -0.1186 -0.3147 -0.4374
  600TIP3    H223436   3.345   2.804   2.444 -0.0530 -0.1307 -0.1756
  601TIP3   OH223437   2.543   0.411   1.145  0.3271 -0.2788 -0.5756
  601TIP3    H123438   2.572   0.337   1.092  1.6464  1.2176 -2.0356
  601TIP3    H223439   2.574   0.488   1.098 -0.4211  1.2006  1.2395
  602TIP3   OH223440   3.153   3.211   3.321  0.2941 -0.1259 -0.0063
  602TIP3    H123441   3.096   3.260   3.262 -2.2673 -0.5216  1.9600
  602TIP3    H223442   3.218   3.275   3.351 -1.1482  1.2922  0.2098
  603TIP3   OH223443   3.114   3.955   3.468  0.2414 -0.1641  0.7200
  603TIP3    H123444   3.126   3.878   3.524  1.4705 -1.2859 -0.9849
  603TIP3    H223445   3.031   3.940   3.423  0.2068 -0.1998  0.7954
  604TIP3   OH223446   5.334   3.853   0.457 -0.2395 -0.2889  0.1137
  604TIP3    H123447   5.429   3.859   0.467 -0.3437  0.1416  0.9156
  604TIP3    H223448   5.316   3.759   0.455  0.2564 -0.3796 -0.6682
  605TIP3   OH223449   0.118   3.963   0.223  0.0512  0.0292 -0.1932
  605TIP3    H123450   0.114   3.905   0.148  0.5264 -0.4003  0.1058
  605TIP3    H223451   0.056   4.033   0.203 -0.1153 -0.2880 -0.8029
  606TIP3   OH223452   2.424   4.272   1.881  0.1108 -0.2901  0.4016
  606TIP3    H123453   2.413   4.361   1.914  0.5614 -0.3095  0.6059
  606TIP3    H223454   2.509   4.272   1.837  0.8648 -1.0298  1.7971
  607TIP3   OH223455   6.163   2.655   8.889  0.3363  0.1332  0.5586
  607TIP3    H123456   6.225   2.725   8.870  0.5985 -0.0231  0.8260
  607TIP3    H223457   6.202   2.608   8.964  1.0882 -1.4400 -0.7605
  608TIP3   OH223458   0.995   1.571   2.035 -0.3821  0.2414 -0.4305
  608TIP3    H123459   0.927   1.528   2.087  1.6929 -0.1507  2.1925
  608TIP3    H223460   0.961   1.659   2.017 -1.2307  0.3590  1.5657
  609TIP3   OH223461   3.093   0.404   8.169 -0.1386 -0.0472  0.5285
  609TIP3    H123462   3.057   0.468   8.230 -0.6601 -0.0812  0.2595
  609TIP3    H223463   3.021   0.342   8.153  0.4835 -0.9445  1.1182
  610TIP3   OH223464   3.191   1.976   7.674  0.5995 -0.2702 -0.7888
  610TIP3    H123465   3.127   2.026   7.623 -0.6417 -0.9688  0.0217
  610TIP3    H223466   3.249   2.042   7.711  0.3954  0.3787 -1.6015
  611TIP3   OH223467   6.400   6.155   2.402  0.0018 -0.5644  0.1162
  611TIP3    H123468   6.429   6.065   2.390  2.0004  0.0997 -0.3088
  611TIP3    H223469   6.476   6.201   2.437 -0.9542  0.9946  0.2674
  612TIP3   OH223470   1.703   1.171   0.625  0.6264 -0.1777 -0.2663
  612TIP3    H123471   1.654   1.101   0.668  1.5044 -0.5401  0.1713
  612TIP3    H223472   1.640   1.243   0.618 -0.2027 -0.9015 -0.4632
  613TIP3   OH223473   4.237   0.840   3.248 -0.3304 -0.5033 -0.0269
  613TIP3    H123474   4.192   0.860   3.166 -0.8393  0.6817  0.5147
  613TIP3    H223475   4.272   0.924   3.278 -1.6502 -0.5488  1.8248
  614TIP3   OH223476   4.314   2.641   7.985 -0.6604 -0.2741 -0.1010
  614TIP3    H123477   4.345   2.566   8.036 -0.1722  0.1392  0.2182
  614TIP3    H223478   4.221   2.624   7.971 -0.9360 -0.1050  1.4372
  615TIP3   OH223479   0.111   4.206   0.785 -0.1316 -0.3301  0.4462
  615TIP3    H123480   0.053   4.132   0.765  0.0889 -0.6020  0.7840
  615TIP3    H223481   0.091   4.271   0.719 -2.1406  0.3213  1.6035
  616TIP3   OH223482   1.230   5.591   0.587 -0.0935 -0.2555 -0.4915
  616TIP3    H123483   1.153   5.535   0.600  1.1234 -1.4508  2.3779
  616TIP3    H223484   1.305   5.533   0.602  1.4057  1.0530 -2.4599
  617TIP3   OH223485   4.922   4.352   1.185  0.1658 -0.4062  0.1091
  617TIP3    H123486   4.971   4.308   1.254 -1.0911  0.6301  1.7354
  617TIP3    H223487   4.926   4.445   1.209  1.0868  0.2168 -2.1459
  618TIP3   OH223488   1.801   6.121   2.836 -0.5787  0.0039 -0.1475
  618TIP3    H123489   1.805   6.213   2.862 -1.6847 -0.0885  0.4122
  618TIP3    H223490   1.759   6.077   2.910 -1.8778 -0.6129 -1.2033
  619TIP3   OH223491   2.096   0.642   2.671  0.5802 -0.4225  0.0513
  619TIP3    H123492   2.130   0.719   2.624 -0.1917 -0.2728 -0.2803
  619TIP3    H223493   2.017   0.674   2.714  0.5350 -0.9097  0.3293
  620TIP3   OH223494   2.373   3.095   2.111 -0.2979 -0.4592  0.1123
  620TIP3    H123495   2.381   3.077   2.018  1.7012 -1.4553  0.4215
  620TIP3    H223496   2.279   3.094   2.128 -0.6406 -2.4515 -1.4991
  621TIP3   OH223497   1.179   6.786   2.538  0.1278 -0.2397 -0.3548
  621TIP3    H123498   1.237   6.818   2.606 -0.7678  1.1415 -0.1847
  621TIP3    H223499   1.236   6.770   2.463  0.7784  0.7851 -0.1023
  622TIP3   OH223500   5.461   0.917   2.244  0.1448  0.6359  0.2462
  622TIP3    H123501   5.480   0.841   2.189  1.2805  0.8823  0.2813
  622TIP3    H223502   5.486   0.993   2.191  1.2128  0.8798  1.0458
  623TIP3   OH223503   0.382   0.655   3.080 -0.0787 -0.2648 -0.1878
  623TIP3    H123504   0.319   0.586   3.098  0.2591 -0.6088 -0.3209
  623TIP3    H223505   0.338   0.735   3.108 -0.4317 -0.5425  0.0626
  624TIP3   OH223506   2.338   3.781   8.077  0.3217  0.4286  0.5679
  624TIP3    H123507   2.337   3.843   8.004 -0.1040  0.6750  0.7811
  624TIP3    H223508   2.247   3.753   8.087  0.1220  1.4924  1.9310
  625TIP3   OH223509   4.071   5.431   3.108  0.4513 -0.4835 -0.1090
  625TIP3    H123510   4.167   5.429   3.106  0.5865  2.4063 -1.6171
  625TIP3    H223511   4.044   5.374   3.037  1.1835  0.6799 -1.3603
  626TIP3   OH223512   2.669   3.225   3.201  0.0889  0.3855  0.4023
  626TIP3    H123513   2.581   3.251   3.174  0.7405  4.1620  1.4282
  626TIP3    H223514   2.660   3.205   3.294  0.2332  0.3490  0.4084
  627TIP3   OH223515   5.023   1.204   8.802  0.0799 -0.6333  0.2811
  627TIP3    H123516   5.118   1.190   8.801 -0.1326 -2.2287 -0.1642
  627TIP3    H223517   4.987   1.122   8.770 -1.5162 -0.4086  1.4137
  628TIP3   OH223518   5.838   3.566   3.521  0.1135 -0.1014  0.2448
  628TIP3    H123519   5.757   3.516   3.525  0.0561 -0.0718 -0.4979
  628TIP3    H223520   5.901   3.514   3.570  0.3979 -1.5519 -1.5753
  629TIP3   OH223521   4.423   4.733   7.950  0.2879 -0.1108 -0.0202
  629TIP3    H123522   4.425   4.793   7.875  1.0422  1.2540  1.0550
  629TIP3    H223523   4.395   4.788   8.024 -1.5228 -1.6635  0.5376
  630TIP3   OH223524   0.511   6.029   0.275 -0.0124 -0.2879 -0.1084
  630TIP3    H123525   0.554   5.989   0.350  0.6272 -0.9659 -0.8296
  630TIP3    H223526   0.566   6.008   0.200 -1.0473 -0.2913 -0.8984
  631TIP3   OH223527   0.594   0.451   7.851 -0.2142  0.2144  0.6804
  631TIP3    H123528   0.529   0.481   7.915 -3.0026 -2.4996 -0.6347
  631TIP3    H223529   0.670   0.427   7.904 -1.2638  0.8996  2.6206
  632TIP3   OH223530   6.457   4.422   2.342 -0.6528 -0.0646  0.0836
  632TIP3    H123531   6.497   4.466   2.417 -1.7789 -0.4881  0.9537
  632TIP3    H223532   6.522   4.358   2.314 -0.3416 -0.1039  0.8861
  633TIP3   OH223533   4.105   0.852   1.834  0.1195  0.1335 -0.1893
  633TIP3    H123534   4.037   0.792   1.805  0.3528 -0.1776 -0.0937
  633TIP3    H223535   4.112   0.917   1.764 -0.1763  0.0864 -0.2611
  634TIP3   OH223536   1.884   4.344   2.439  0.3130 -0.1229 -0.3508
  634TIP3    H123537   1.828   4.373   2.367 -0.1359  1.8107  0.7327
  634TIP3    H223538   1.835   4.364   2.518  2.3305  1.3366  0.6352
  635TIP3   OH223539   3.288   0.632   0.599  0.4614 -0.1776 -0.0457
  635TIP3    H123540   3.249   0.718   0.611 -1.8590 -0.7139 -2.5580
  635TIP3    H223541   3.369   0.648   0.551  1.4921  0.7296  1.9234
  636TIP3   OH223542   1.727   2.090   8.443  0.2197  0.6286  0.3296
  636TIP3    H123543   1.703   2.151   8.373 -1.1671  0.7575  0.8798
  636TIP3    H223544   1.814   2.059   8.419 -0.4838  0.1390 -1.8233
  637TIP3   OH223545   0.210   0.201   1.381 -0.1219 -0.5285 -0.2847
  637TIP3    H123546   0.173   0.270   1.437 -1.2583 -1.5619  0.2801
  637TIP3    H223547   0.229   0.129   1.441  1.3509 -0.6270 -0.8219
  638TIP3   OH223548   6.064   1.236   1.774 -0.1980  0.2446 -0.0749
  638TIP3    H123549   6.126   1.298   1.737  1.5390 -0.7929  0.9837
  638TIP3    H223550   5.998   1.224   1.705  1.1748  0.8063 -1.5370
  639TIP3   OH223551   2.150   6.565   1.723 -0.0239 -0.0402  0.1317
  639TIP3    H123552   2.130   6.471   1.734  0.6407 -0.1274  0.6761
  639TIP3    H223553   2.117   6.586   1.636  1.7410 -1.3109 -0.8990
  640TIP3   OH223554   1.365   3.099   2.463 -0.1735 -0.0987  0.3638
  640TIP3    H123555   1.319   3.085   2.380 -0.5790  0.3987  0.5019
  640TIP3    H223556   1.418   3.020   2.474 -0.2514 -0.2486 -0.2797
  641TIP3   OH223557   4.760   2.256   2.323  0.6515  0.3921 -0.1299
  641TIP3    H123558   4.685   2.198   2.318  0.6569  0.4378 -0.7842
  641TIP3    H223559   4.826   2.207   2.372  0.0601  0.5096  0.8064
  642TIP3   OH223560   6.454   1.957   3.087 -0.1528  0.0900 -0.1538
  642TIP3    H123561   6.446   1.983   2.996 -2.3946  0.0590 -0.0200
  642TIP3    H223562   6.532   1.901   3.090  0.4054  0.7395 -1.8661
  643TIP3   OH223563   0.418   2.227   1.844  0.8294 -0.5984  0.1816
  643TIP3    H123564   0.472   2.244   1.922  0.1354 -0.5248  0.6530
  643TIP3    H223565   0.354   2.163   1.873 -0.2398  0.3782  0.0420
  644TIP3   OH223566   2.663   4.340   7.189  0.2298  0.3683 -0.8605
  644TIP3    H123567   2.749   4.363   7.154 -0.3847  0.5014 -2.3429
  644TIP3    H223568   2.619   4.424   7.202  1.3709  0.5640  2.9281
  645TIP3   OH223569   0.782   4.171   2.714  0.2301  0.3150 -0.4762
  645TIP3    H123570   0.869   4.135   2.731  0.2544  0.6205  0.0581
  645TIP3    H223571   0.722   4.097   2.726  0.1172  0.7308  2.1539
  646TIP3   OH223572   0.256   5.495   8.441  0.2547  0.4522  0.3058
  646TIP3    H123573   0.244   5.527   8.530  0.1741  0.3822  0.3204
  646TIP3    H223574   0.177   5.524   8.394  0.1338  0.1937  0.3440
  647TIP3   OH223575   6.499   2.850   8.161  0.3827  0.2542  0.9153
  647TIP3    H123576   6.568   2.799   8.118  1.1687  0.4712  1.8714
  647TIP3    H223577   6.430   2.787   8.179  0.8705 -0.2358  1.0772
  648TIP3   OH223578   3.652   6.259   1.584  0.0333 -0.0071  0.2733
  648TIP3    H123579   3.624   6.347   1.557 -0.2637 -0.1475  0.1251
  648TIP3    H223580   3.707   6.274   1.661 -1.8401  0.1504  1.6267
  649TIP3   OH223581   3.720   2.270   8.318  0.2504  0.3982 -0.5347
  649TIP3    H123582   3.698   2.198   8.377  2.6024  0.3696  0.4105
  649TIP3    H223583   3.695   2.238   8.231  0.4337 -1.1886 -0.0362
  650TIP3   OH223584   4.411   0.266   0.952 -0.1430  0.1703  0.5651
  650TIP3    H123585   4.348   0.213   0.902  0.3218 -1.1214  1.2981
  650TIP3    H223586   4.413   0.350   0.906 -0.5798 -0.5851 -0.9115
  651TIP3   OH223587   1.606   0.344   1.914  0.9737 -0.1055  0.0968
  651TIP3    H123588   1.594   0.287   1.990 -2.1228  0.3826  0.0789
  651TIP3    H223589   1.629   0.429   1.951  0.8570 -0.2057  0.4031
  652TIP3   OH223590   2.198   4.044   8.903  0.1721 -0.5998 -0.0817
  652TIP3    H123591   2.182   3.954   8.931  0.0300 -1.8189 -3.6483
  652TIP3    H223592   2.290   4.044   8.875  1.0696  1.2391  2.4612
  653TIP3   OH223593   4.359   0.171   8.270  0.3100  0.1727 -0.0677
  653TIP3    H123594   4.443   0.186   8.314  0.3566 -3.4541  1.4276
  653TIP3    H223595   4.296   0.162   8.342 -0.5551 -1.1194 -0.9466
  654TIP3   OH223596   6.322   4.451   7.038 -0.6207 -0.3331  0.4858
  654TIP3    H123597   6.278   4.524   7.083 -0.6633 -0.3544  0.4784
  654TIP3    H223598   6.253   4.386   7.025 -0.8519  0.0779 -0.4927
  655TIP3   OH223599   6.658   6.258   1.844 -0.5631 -0.1347  0.0286
  655TIP3    H123600   6.672   6.320   1.772  0.8149  0.7657  0.9978
  655TIP3    H223601   6.570   6.277   1.876 -0.5261  0.6686 -0.3228
  656TIP3   OH223602   1.690   4.866   1.476  0.4994  0.5082  0.3143
  656TIP3    H123603   1.711   4.923   1.402 -0.1637 -0.4876 -0.6757
  656TIP3    H223604   1.594   4.868   1.482  0.5636  1.0825  1.5790
  657TIP3   OH223605   2.117   4.482   2.777  0.2291  1.1091  0.5509
  657TIP3    H123606   2.210   4.478   2.800  0.8607 -0.6518 -1.8959
  657TIP3    H223607   2.105   4.571   2.743  1.4978  0.8532 -0.6639
  658TIP3   OH223608   1.455   0.530   8.674  0.3078 -0.1826 -0.6287
  658TIP3    H123609   1.523   0.477   8.715 -0.4995 -0.1919  0.7608
  658TIP3    H223610   1.440   0.488   8.589  0.3170 -1.6646  0.0645
  659TIP3   OH223611   4.681   5.151   2.757  0.0617  0.1972  0.1264
  659TIP3    H123612   4.723   5.115   2.836 -0.2935 -0.9847 -0.2145
  659TIP3    H223613   4.588   5.151   2.778  0.1272  2.3817  0.6979
  660TIP3   OH223614   3.441   4.755   2.567  0.3263 -0.2251 -0.6476
  660TIP3    H123615   3.384   4.705   2.509 -0.5999  0.8634 -0.7103
  660TIP3    H223616   3.408   4.738   2.655  0.5023 -0.3418 -0.6040
  661TIP3   OH223617   5.995   1.742   1.201 -0.0962 -0.1368 -0.0874
  661TIP3    H123618   6.078   1.696   1.217 -0.7324 -0.7310  1.7890
  661TIP3    H223619   5.937   1.711   1.270 -1.7033  0.7554 -0.9837
  662TIP3   OH223620   5.273   5.752   1.136  0.2092  0.7534  0.0213
  662TIP3    H123621   5.252   5.674   1.187 -1.7543  0.2034 -1.5146
  662TIP3    H223622   5.189   5.796   1.123  0.7750  1.3772 -1.8736
  663TIP3   OH223623   5.057   6.139   8.191  0.1388  0.3247 -0.0702
  663TIP3    H123624   4.990   6.192   8.149 -0.5790  0.1362  0.8071
  663TIP3    H223625   5.104   6.097   8.119  1.0188  2.4695 -0.8114
  664TIP3   OH223626   4.798   4.923   0.864  0.7668  0.2091  0.5769
  664TIP3    H123627   4.762   4.998   0.913 -0.4706 -0.3711  0.6092
  664TIP3    H223628   4.787   4.849   0.923  0.6930 -0.2315  0.0187
  665TIP3   OH223629   5.420   1.153   0.992 -0.8493 -0.1302  0.3444
  665TIP3    H123630   5.500   1.161   1.043 -1.0999  2.3684  0.4960
  665TIP3    H223631   5.349   1.158   1.056 -1.1379  1.5732 -0.0403
  666TIP3   OH223632   0.940   1.750   7.870 -0.2952 -0.0581 -0.2538
  666TIP3    H123633   1.021   1.698   7.878  1.0285  1.5601 -2.2304
  666TIP3    H223634   0.927   1.785   7.958  0.9644 -0.6219  0.1952
  667TIP3   OH223635   3.383   6.174   3.147  0.1572 -0.1144  0.0263
  667TIP3    H123636   3.445   6.190   3.219 -0.9515  1.2689  0.7376
  667TIP3    H223637   3.434   6.189   3.068  1.1360 -0.5999  0.5504
  668TIP3   OH223638   2.714   1.739   2.260  0.8998  0.4139  0.4786
  668TIP3    H123639   2.671   1.692   2.189  1.9410  0.1857 -0.0074
  668TIP3    H223640   2.645   1.752   2.325  0.1364 -0.0812 -0.2195
  669TIP3   OH223641   6.128   5.784   0.740  0.2120  0.0774 -0.5154
  669TIP3    H123642   6.184   5.736   0.802  1.7955  1.6761 -0.6407
  669TIP3    H223643   6.185   5.804   0.666 -0.5910  1.5171 -0.7851
  670TIP3   OH223644   1.047   5.694   8.947  0.2153 -0.9628  0.7763
  670TIP3    H123645   0.962   5.652   8.932 -0.2399  0.3023 -0.4804
  670TIP3    H223646   1.024   5.781   8.981  0.8154  0.3248 -1.8113
  671TIP3   OH223647   3.726   5.854   2.390  0.3915  0.2153  0.4996
  671TIP3    H123648   3.759   5.797   2.320  0.8509  0.6115  0.3900
  671TIP3    H223649   3.631   5.851   2.381  0.4687  1.0841 -0.8104
  672TIP3   OH223650   4.295   2.358   2.403 -0.0904 -0.7293  0.1064
  672TIP3    H123651   4.228   2.293   2.425  0.9820 -1.6999  0.5983
  672TIP3    H223652   4.335   2.380   2.487  1.2319 -1.3170 -0.3474
  673TIP3   OH223653   5.307   6.705   8.041 -0.4743  0.1028 -0.1487
  673TIP3    H123654   5.228   6.756   8.021 -0.0848  0.5844 -0.5000
  673TIP3    H223655   5.336   6.739   8.125 -0.0470  0.6966 -0.5203
  674TIP3   OH223656   2.806   1.849   0.989 -0.5743 -0.3722 -0.5873
  674TIP3    H123657   2.847   1.875   1.071  0.6404  0.6160 -1.4562
  674TIP3    H223658   2.873   1.866   0.923 -1.8006 -0.3497 -1.8718
  675TIP3   OH223659   6.480   5.875   2.446 -0.3629  0.5230  0.2908
  675TIP3    H123660   6.388   5.874   2.474 -0.3651 -1.9511  0.3844
  675TIP3    H223661   6.526   5.823   2.512  0.5748 -0.6963 -1.2515
  676TIP3   OH223662   3.379   6.741   8.953  0.2848 -0.0596  0.6186
  676TIP3    H123663   3.374   6.835   8.969 -2.0092 -0.4973  3.2395
  676TIP3    H223664   3.450   6.710   9.009  0.9176  0.0361 -0.1062
  677TIP3   OH223665   1.426   3.315   2.616  0.9742 -0.0188 -0.6570
  677TIP3    H123666   1.402   3.304   2.708  1.2932  1.3492 -0.3915
  677TIP3    H223667   1.386   3.239   2.572  0.6776 -0.6036  0.5675
  678TIP3   OH223668   2.544   1.532   8.365  0.5359 -0.0281  0.6862
  678TIP3    H123669   2.590   1.492   8.291  1.1825  1.3662  0.3191
  678TIP3    H223670   2.455   1.548   8.333  0.1987 -1.2979  0.9027
  679TIP3   OH223671   1.805   3.361   0.884 -0.0515 -0.1871  0.6907
  679TIP3    H123672   1.801   3.413   0.964  0.4404  0.6983  0.1563
  679TIP3    H223673   1.810   3.426   0.813  0.9631 -0.9547  0.0356
  680TIP3   OH223674   4.909   5.361   3.096 -0.4071 -0.0527 -0.5435
  680TIP3    H123675   4.999   5.366   3.127 -0.4102 -0.4319 -0.4652
  680TIP3    H223676   4.883   5.452   3.081 -0.4570  0.1624  0.7324
  681TIP3   OH223677   3.061   5.976   7.837 -0.3988 -0.1749  0.2021
  681TIP3    H123678   2.970   5.997   7.816 -0.2426 -0.5055 -0.8894
  681TIP3    H223679   3.055   5.907   7.903 -0.9379 -0.0768  0.2608
  682TIP3   OH223680   1.571   3.278   7.841  0.4558  0.3145  0.0146
  682TIP3    H123681   1.619   3.282   7.759 -0.0361 -0.1590 -0.3071
  682TIP3    H223682   1.638   3.262   7.907  1.0867  2.4913 -0.0266
  683TIP3   OH223683   3.933   0.143   8.556  0.4033  0.1535  0.8017
  683TIP3    H123684   3.916   0.217   8.614 -0.7749 -0.9289  1.9031
  683TIP3    H223685   3.861   0.082   8.572  0.3814 -0.4880 -1.3604
  684TIP3   OH223686   1.105   2.060   8.758 -0.5354  0.3960  0.6721
  684TIP3    H123687   1.063   2.077   8.842 -0.9110  1.6504  0.2424
  684TIP3    H223688   1.186   2.110   8.761  0.5977 -1.3616  1.1677
  685TIP3   OH223689   2.942   5.472   0.062 -0.1158  0.4791  0.4485
  685TIP3    H123690   3.033   5.458   0.089  0.3893  1.9726 -0.3343
  685TIP3    H223691   2.894   5.398   0.098  1.2230  0.2319  1.8170
  686TIP3   OH223692   0.415   4.355   1.718  0.1649  0.1105  0.2155
  686TIP3    H123693   0.369   4.438   1.708 -0.8223 -0.5093 -0.5761
  686TIP3    H223694   0.459   4.341   1.634 -2.5534 -1.8252 -1.0053
  687TIP3   OH223695   2.371   2.752   1.844 -0.3858 -0.3691 -0.4567
  687TIP3    H123696   2.442   2.815   1.827 -1.3382  0.2040 -2.8005
  687TIP3    H223697   2.295   2.806   1.863 -0.2268 -0.9895  2.3770
  688TIP3   OH223698   6.035   1.738   2.921 -0.1697 -0.0870 -0.0850
  688TIP3    H123699   5.945   1.759   2.945 -0.4938  0.0318 -1.3490
  688TIP3    H223700   6.057   1.801   2.852  0.0006 -1.7047 -1.5621
  689TIP3   OH223701   4.035   3.083   1.109  0.3783  0.0088  0.0324
  689TIP3    H123702   4.031   3.047   1.197  0.4256  0.7722  0.3581
  689TIP3    H223703   4.056   3.176   1.122  0.1578  0.1818 -0.7692
  690TIP3   OH223704   6.100   2.678   0.479 -0.0111 -0.0105  0.5549
  690TIP3    H123705   6.105   2.709   0.389 -0.5475 -1.5686 -0.0466
  690TIP3    H223706   6.049   2.745   0.525  0.0999  0.7006 -0.3476
  691TIP3   OH223707   1.319   0.579   2.203  0.4306 -0.0696 -0.1218
  691TIP3    H123708   1.344   0.541   2.287 -0.3697  0.8940  0.5803
  691TIP3    H223709   1.260   0.651   2.226  1.8326  1.5683 -1.3690
  692TIP3   OH223710   0.142   3.092   2.259 -0.5535 -0.0619 -0.4249
  692TIP3    H123711   0.062   3.106   2.209 -0.2504  0.1159 -0.8735
  692TIP3    H223712   0.130   3.007   2.301 -1.7679  0.8043  1.0496
  693TIP3   OH223713   3.237   2.666   8.921 -0.1068  0.9345 -0.0146
  693TIP3    H123714   3.230   2.752   8.963  1.0189  1.0354 -0.0169
  693TIP3    H223715   3.314   2.626   8.961  0.3081  0.5675 -1.1525
  694TIP3   OH223716   1.532   0.491   8.035  0.4135 -0.3008  0.9854
  694TIP3    H123717   1.561   0.572   7.992  1.2127 -1.5869 -1.0845
  694TIP3    H223718   1.438   0.503   8.046  0.5966  1.1267  1.2445
  695TIP3   OH223719   4.127   2.432   0.842  0.4655  1.2770  0.3539
  695TIP3    H123720   4.156   2.521   0.864 -0.7350  1.3390  1.8863
  695TIP3    H223721   4.052   2.445   0.784  1.8707  1.1638 -1.5869
  696TIP3   OH223722   4.628   6.596   2.592  0.3787  0.0807  0.0682
  696TIP3    H123723   4.551   6.551   2.627  0.8124 -0.3577  0.4530
  696TIP3    H223724   4.659   6.651   2.663 -0.7916  1.8705 -0.7235
  697TIP3   OH223725   6.427   4.149   8.345  0.6380  0.6062 -0.0032
  697TIP3    H123726   6.504   4.113   8.299  0.6732  0.1971  0.3731
  697TIP3    H223727   6.430   4.109   8.431  0.2058  0.8822  0.1410
  698TIP3   OH223728   1.222   5.040   7.590  0.0490  0.1588  0.3744
  698TIP3    H123729   1.134   5.012   7.564 -0.0989  1.6483 -0.9118
  698TIP3    H223730   1.248   4.977   7.657 -0.8935 -1.9760 -1.1329
  699TIP3   OH223731   5.312   1.002   1.738 -0.3998  0.6827 -0.0592
  699TIP3    H123732   5.247   1.037   1.799 -0.8793 -0.0516 -0.1285
  699TIP3    H223733   5.304   1.058   1.660  1.2791  2.6046  1.0421
  700TIP3   OH223734   4.285   5.658   1.638  0.2182  0.0161 -0.2978
  700TIP3    H123735   4.314   5.749   1.647  1.1359 -0.3982  1.3116
  700TIP3    H223736   4.197   5.664   1.601  0.3799  1.5445 -0.4747
  701TIP3   OH223737   4.164   1.771   8.280 -0.4857 -0.2173  0.9591
  701TIP3    H123738   4.073   1.801   8.275 -0.7856 -1.1592  0.3213
  701TIP3    H223739   4.216   1.845   8.250 -1.1324 -0.0586  0.2094
  702TIP3   OH223740   6.439   0.371   2.375  0.4454  0.0682  0.4146
  702TIP3    H123741   6.404   0.450   2.418 -0.6094 -0.1056 -0.0966
  702TIP3    H223742   6.502   0.405   2.311 -0.4868  0.5653 -0.2727
  703TIP3   OH223743   1.974   3.065   0.596 -0.2736 -0.2484 -0.3038
  703TIP3    H123744   1.937   3.108   0.519 -1.0012  2.6152  1.4728
  703TIP3    H223745   2.056   3.026   0.565 -0.3425  1.1313 -2.4373
  704TIP3   OH223746   1.488   3.219   8.217 -0.0815 -0.0204 -0.1718
  704TIP3    H123747   1.577   3.230   8.249 -0.4164 -2.2514  1.7981
  704TIP3    H223748   1.498   3.171   8.134  0.5593  0.1390 -0.1933
  705TIP3   OH223749   4.110   4.932   2.015 -0.3313  0.9150  0.3814
  705TIP3    H123750   4.043   4.883   2.063  0.6460 -1.7498 -0.7256
  705TIP3    H223751   4.180   4.945   2.079 -0.3920  0.3720  0.5651
  706TIP3   OH223752   2.731   2.487   8.330 -0.1263  0.1780 -0.2835
  706TIP3    H123753   2.817   2.518   8.357 -0.5974  0.6126  0.7840
  706TIP3    H223754   2.734   2.392   8.343  0.2548  0.1692 -0.4452
  707TIP3   OH223755   1.263   6.744   8.186  0.1116  0.3269 -0.2220
  707TIP3    H123756   1.322   6.672   8.209 -0.3311 -0.6239 -1.8680
  707TIP3    H223757   1.215   6.711   8.110 -0.2302  2.3141 -0.9093
  708TIP3   OH223758   6.283   6.450   0.780 -0.0839  0.0744 -0.1031
  708TIP3    H123759   6.265   6.507   0.705  2.0701 -0.5650 -1.2056
  708TIP3    H223760   6.337   6.380   0.743 -1.2066 -1.7468  1.5548
  709TIP3   OH223761   2.525   4.948   0.557  0.3869  0.8433 -0.1458
  709TIP3    H123762   2.466   5.003   0.504  0.9165  1.4826 -0.0816
  709TIP3    H223763   2.561   5.008   0.622  1.0551  0.4387 -0.1378
  710TIP3   OH223764   0.042   4.126   1.875 -0.3323 -0.5326 -0.0582
  710TIP3    H123765   0.051   4.084   1.960  0.2091  1.0046  0.6752
  710TIP3    H223766   0.095   4.206   1.881 -0.5931 -0.1930 -1.7006
  711TIP3   OH223767   2.709   4.063   1.570 -0.2749 -0.0699  0.2395
  711TIP3    H123768   2.735   4.020   1.651  0.6552  1.0257  0.5454
  711TIP3    H223769   2.786   4.056   1.513 -0.0369  1.2665  0.3487
  712TIP3   OH223770   0.483   3.679   7.460  0.1764  0.3844 -0.0621
  712TIP3    H123771   0.565   3.721   7.433  1.2303 -0.6949  1.2753
  712TIP3    H223772   0.416   3.722   7.408  1.4463  2.1734 -0.3214
  713TIP3   OH223773   3.091   5.101   0.497  0.0686  0.5411  0.3414
  713TIP3    H123774   3.165   5.130   0.551 -0.0595  0.4568  0.5613
  713TIP3    H223775   3.077   5.010   0.523  0.8397  0.0807 -0.7504
  714TIP3   OH223776   2.139   2.346   8.101  0.0597  0.3200  0.1306
  714TIP3    H123777   2.129   2.425   8.154 -0.0327  0.1574  0.3541
  714TIP3    H223778   2.117   2.375   8.012  1.4652  0.8933 -0.0526
  715TIP3   OH223779   0.070   5.043   8.145 -0.2600  0.1503  0.2825
  715TIP3    H123780   0.056   4.949   8.131 -0.9983  0.2554  0.2349
  715TIP3    H223781   0.164   5.053   8.154 -0.1946 -0.6333  0.5212
  716TIP3   OH223782   2.334   4.812   0.721 -0.0247 -0.5540 -0.1683
  716TIP3    H123783   2.269   4.743   0.704 -0.3190 -0.2503 -0.2834
  716TIP3    H223784   2.389   4.812   0.643 -2.1547  1.7195 -1.8335
  717TIP3   OH223785   2.337   2.175   2.095 -0.1084  0.4013 -0.2281
  717TIP3    H123786   2.351   2.219   2.179 -2.2193 -0.8644  0.8781
  717TIP3    H223787   2.262   2.220   2.057 -1.6772 -1.4574  0.4731
  718TIP3   OH223788   6.541   5.033   1.784 -0.5710 -0.1238  0.1380
  718TIP3    H123789   6.451   5.059   1.762 -0.7116  0.8496  1.7039
  718TIP3    H223790   6.586   5.115   1.804  0.8081 -0.5609 -1.0087
  719TIP3   OH223791   5.942   3.877   2.634 -0.0820  0.0182 -0.0621
  719TIP3    H123792   5.855   3.914   2.644  0.2127  0.5150  0.7245
  719TIP3    H223793   5.964   3.842   2.721  0.8555  0.6993 -0.0069
  720TIP3   OH223794   4.063   5.691   8.484  0.3581  0.3506 -0.8048
  720TIP3    H123795   4.149   5.726   8.508 -0.0221  0.8523 -0.1332
  720TIP3    H223796   4.010   5.704   8.562  0.1678 -1.6951 -0.5358
  721TIP3   OH223797   4.184   5.595   8.969  0.5804  0.1433  0.1199
  721TIP3    H123798   4.191   5.574   9.062  0.8575 -0.3188 -0.0037
  721TIP3    H223799   4.095   5.570   8.945 -0.0419  1.7333  0.6177
  722TIP3   OH223800   5.100   6.433   0.088 -0.3047  0.1295  0.0062
  722TIP3    H123801   5.132   6.511   0.042  0.8045 -1.3494 -1.8998
  722TIP3    H223802   5.154   6.427   0.166  0.8715  0.2844 -0.7728
  723TIP3   OH223803   3.988   2.968   0.571 -0.5763  0.3086 -0.0668
  723TIP3    H123804   3.993   2.876   0.542  0.6525  0.0876  0.7727
  723TIP3    H223805   3.897   2.978   0.601 -0.8443 -0.5062 -0.5497
  724TIP3   OH223806   2.434   0.136   2.438 -0.1416  0.2780  0.3082
  724TIP3    H123807   2.399   0.099   2.519 -0.6998 -0.7504 -0.3715
  724TIP3    H223808   2.363   0.192   2.405 -0.5756 -0.6044 -0.2933
  725TIP3   OH223809   4.169   4.773   2.448 -0.0737 -0.0584 -0.1187
  725TIP3    H123810   4.253   4.793   2.490  0.6058 -1.4384 -0.7559
  725TIP3    H223811   4.114   4.848   2.469  1.3751  0.9779  0.1532
  726TIP3   OH223812   0.443   2.690   0.247 -0.2491 -0.0723  0.0495
  726TIP3    H123813   0.437   2.754   0.176 -2.2796  1.4793  1.4824
  726TIP3    H223814   0.535   2.688   0.271  0.8148 -1.8005 -3.5218
  727TIP3   OH223815   2.596   5.585   2.506 -0.9269 -0.2816  0.4865
  727TIP3    H123816   2.607   5.661   2.448  0.6073 -1.6021 -1.0898
  727TIP3    H223817   2.559   5.621   2.586  0.2231  2.2234  0.0021
  728TIP3   OH223818   4.399   1.043   0.573 -0.2705  0.6172 -0.2358
  728TIP3    H123819   4.406   1.075   0.663 -1.9133 -0.5736  0.3635
  728TIP3    H223820   4.490   1.035   0.544  0.2841  1.6608  1.0559
  729TIP3   OH223821   3.986   4.866   0.416  0.2827 -0.5304  0.3729
  729TIP3    H123822   4.003   4.956   0.389  0.4854 -0.4270  0.8429
  729TIP3    H223823   3.921   4.874   0.486  0.8998 -0.6945  0.9684
  730TIP3   OH223824   4.780   5.794   1.702 -0.2408 -0.4857  0.3758
  730TIP3    H123825   4.875   5.801   1.694 -0.4825  2.3339 -1.1536
  730TIP3    H223826   4.757   5.718   1.648  0.9093  0.7880 -2.0698
  731TIP3   OH223827   5.593   0.495   1.591  0.3971  0.5605 -0.7499
  731TIP3    H123828   5.646   0.571   1.616 -0.7889  0.5927  2.0879
  731TIP3    H223829   5.543   0.524   1.515  1.1388  2.0794 -0.6920
  732TIP3   OH223830   3.446   5.733   7.452 -0.3273 -0.8129 -0.2228
  732TIP3    H123831   3.379   5.758   7.388 -0.2588 -2.2549 -0.8839
  732TIP3    H223832   3.411   5.764   7.536 -0.3385  1.2391 -0.9447
  733TIP3   OH223833   0.122   4.581   7.772 -0.2285  0.3719  0.4710
  733TIP3    H123834   0.160   4.618   7.693  0.0534  2.0279  1.3320
  733TIP3    H223835   0.027   4.590   7.759 -0.2204 -0.2476 -0.0655
  734TIP3   OH223836   3.056   4.700   8.408 -0.8083  0.3527  0.1613
  734TIP3    H123837   2.982   4.642   8.390 -0.6939  0.6033 -1.2235
  734TIP3    H223838   3.019   4.788   8.399 -0.4536  0.4792 -0.0947
  735TIP3   OH223839   5.949   4.499   1.745 -0.0522  0.1081  0.1102
  735TIP3    H123840   5.939   4.568   1.810  1.8564  0.7197 -0.1593
  735TIP3    H223841   6.025   4.449   1.775 -0.2842 -0.7472 -0.6748
  736TIP3   OH223842   2.812   3.005   2.094  0.2844 -0.1812 -0.2000
  736TIP3    H123843   2.758   3.055   2.156 -1.7377 -1.2354 -1.0443
  736TIP3    H223844   2.870   2.953   2.150  0.3444  0.8337  0.7313
  737TIP3   OH223845   1.232   4.808   1.150 -0.5535 -0.0130 -0.2652
  737TIP3    H123846   1.177   4.856   1.212 -2.4111 -1.0496 -1.0255
  737TIP3    H223847   1.217   4.716   1.171  2.3754 -0.3815  0.6947
  738TIP3   OH223848   0.121   3.759   0.002  0.0159 -0.4285 -0.5596
  738TIP3    H123849   0.085   3.672  -0.018 -3.1264  0.9434 -1.4695
  738TIP3    H223850   0.142   3.796  -0.084  2.6496 -0.6953 -0.1117
  739TIP3   OH223851   2.414   6.068   1.578 -0.4310  0.3477 -0.2162
  739TIP3    H123852   2.339   6.039   1.525  0.5020 -0.6535 -1.0253
  739TIP3    H223853   2.489   6.021   1.542  1.0150  2.9419 -0.8997
  740TIP3   OH223854   4.230   3.675   7.199  0.0458 -0.1484  0.1880
  740TIP3    H123855   4.237   3.755   7.146 -0.8276  0.1629  0.5195
  740TIP3    H223856   4.163   3.623   7.154 -1.0521  0.3254  1.2187
  741TIP3   OH223857   0.449   6.670   2.420 -0.3802  0.1482 -0.6885
  741TIP3    H123858   0.468   6.603   2.354 -0.5735 -0.8841  0.2697
  741TIP3    H223859   0.499   6.746   2.392  0.6429 -0.7092 -1.2784
  742TIP3   OH223860   2.112   1.860   0.020 -0.2584 -0.2291  0.3137
  742TIP3    H123861   2.017   1.867   0.010 -0.1944  0.7082  0.2208
  742TIP3    H223862   2.125   1.818   0.106 -0.7651  1.6696  1.3801
  743TIP3   OH223863   2.091   5.825   1.863 -0.0829  0.6664 -0.1003
  743TIP3    H123864   2.177   5.861   1.885  0.7347 -1.6546  0.7816
  743TIP3    H223865   2.109   5.755   1.801 -1.2273 -0.4739  0.8000
  744TIP3   OH223866   0.986   4.517   1.415  0.1732  0.8933  0.0980
  744TIP3    H123867   0.954   4.520   1.325  0.6690 -0.4091 -0.1400
  744TIP3    H223868   0.907   4.513   1.468 -0.1051  0.5466 -0.3336
  745TIP3   OH223869   6.002   2.455   8.266  0.2831 -0.1991  0.1304
  745TIP3    H123870   5.984   2.450   8.172  0.0300  0.9149  0.1081
  745TIP3    H223871   6.043   2.371   8.287 -0.6597 -0.9113 -0.7556
  746TIP3   OH223872   0.902   1.029   8.851 -0.1179 -0.3177  0.2932
  746TIP3    H123873   0.995   1.009   8.843 -0.2964 -1.5322  0.8683
  746TIP3    H223874   0.889   1.109   8.801  1.1743 -0.3157 -0.0627
  747TIP3   OH223875   3.839   4.446   8.423 -0.2818 -0.3989  0.2963
  747TIP3    H123876   3.775   4.504   8.465 -1.1904 -1.3306  0.2517
  747TIP3    H223877   3.822   4.455   8.330 -0.9131 -1.2381  0.3139
  748TIP3   OH223878   0.705   5.078   8.799 -0.1257  0.1115 -0.4904
  748TIP3    H123879   0.731   5.108   8.712 -2.2099 -0.6201 -1.4347
  748TIP3    H223880   0.710   5.156   8.854 -1.4806  1.2969 -1.9456
  749TIP3   OH223881   5.033   3.626   2.377 -0.0677 -0.3260  0.1871
  749TIP3    H123882   5.028   3.533   2.353  0.6192 -0.4813  0.5877
  749TIP3    H223883   5.127   3.645   2.378 -0.0256 -0.3156  2.5863
  750TIP3   OH223884   5.774   4.908   0.533  0.1239  0.2939 -0.1943
  750TIP3    H123885   5.850   4.908   0.592 -0.0656  1.8355  0.1095
  750TIP3    H223886   5.807   4.946   0.452 -0.3860  1.3320  0.0669
  751TIP3   OH223887   4.692   3.194   1.161 -0.2275  0.0099  0.6914
  751TIP3    H123888   4.664   3.120   1.107  0.4144  0.3781 -0.1806
  751TIP3    H223889   4.684   3.270   1.103  1.2040  0.3099  0.8424
  752TIP3   OH223890   4.815   4.468   2.201  0.0133 -0.3078  0.2721
  752TIP3    H123891   4.748   4.450   2.266 -0.6244 -1.2338 -0.6124
  752TIP3    H223892   4.767   4.484   2.120  0.8428 -0.6070 -0.2985
  753TIP3   OH223893   4.544   6.740   1.858 -0.0543  0.2471  0.5357
  753TIP3    H123894   4.597   6.786   1.793 -1.0870  0.2982 -0.3106
  753TIP3    H223895   4.604   6.719   1.929  1.2736 -0.3821 -0.7189
  754TIP3   OH223896   4.939   5.930   2.718 -0.0399 -0.2150 -0.3291
  754TIP3    H123897   5.029   5.921   2.686 -0.4984 -2.6729 -1.1120
  754TIP3    H223898   4.933   5.868   2.790 -0.1930  2.4121  2.0694
  755TIP3   OH223899   5.009   4.659   8.117  0.5249 -0.0508  0.1239
  755TIP3    H123900   5.080   4.599   8.142  0.8386  0.8088  1.3713
  755TIP3    H223901   4.967   4.616   8.042  2.0411 -0.8203 -0.3307
  756TIP3   OH223902   0.795   6.409   2.220 -0.1215  0.1469 -0.4395
  756TIP3    H123903   0.772   6.316   2.216  2.2551 -0.5836  0.9973
  756TIP3    H223904   0.759   6.439   2.303  0.5335  0.0461 -0.1103
  757TIP3   OH223905   2.565   4.862   0.865 -0.0816  0.1854  0.4786
  757TIP3    H123906   2.556   4.799   0.937  1.0000  0.2414  0.6825
  757TIP3    H223907   2.483   4.855   0.816  0.0897 -1.5187  0.3767
  758TIP3   OH223908   5.138   3.553   1.684  0.1145  0.1105 -0.0687
  758TIP3    H123909   5.185   3.503   1.751 -0.4418 -0.0796  0.1797
  758TIP3    H223910   5.207   3.604   1.640  0.3773  0.8460  1.1628
  759TIP3   OH223911   5.037   4.936   2.488  0.4838 -0.0220 -0.2197
  759TIP3    H123912   4.944   4.957   2.499  0.5027 -0.0280 -0.0405
  759TIP3    H223913   5.081   4.985   2.557  0.4197 -1.3972  0.8356
  760TIP3   OH223914   3.286   6.676   8.691  0.1185  0.4621 -0.9710
  760TIP3    H123915   3.290   6.716   8.778 -1.4887 -0.0211 -0.6462
  760TIP3    H223916   3.241   6.592   8.705  0.1346  0.2276 -2.2168
  761TIP3   OH223917   5.407   6.309   1.526 -0.5914 -0.0792 -0.0133
  761TIP3    H123918   5.493   6.317   1.483 -0.1988 -0.5019  0.6692
  761TIP3    H223919   5.416   6.358   1.608 -1.8968  2.2326 -1.1622
  762TIP3   OH223920   2.581   6.424   2.429  0.3161 -0.0152 -0.2902
  762TIP3    H123921   2.528   6.356   2.387 -0.8532 -0.6959  2.1108
  762TIP3    H223922   2.663   6.380   2.451  0.1819 -0.2002 -0.1587
  763TIP3   OH223923   6.220   5.670   3.054 -0.2533 -0.4176  0.2900
  763TIP3    H123924   6.184   5.717   3.129  0.0730 -1.2948  1.0229
  763TIP3    H223925   6.153   5.605   3.032 -1.0815  0.8938 -1.2595
  764TIP3   OH223926   2.126   3.863   1.955  0.2405  0.1021 -0.1400
  764TIP3    H123927   2.133   3.780   2.003  0.2838 -0.7552 -1.5819
  764TIP3    H223928   2.205   3.911   1.981 -0.4263  0.2969  1.7279
  765TIP3   OH223929   1.173   6.381   8.173 -0.1823 -0.9514 -0.0869
  765TIP3    H123930   1.263   6.414   8.171 -0.6008  0.3377  0.9144
  765TIP3    H223931   1.162   6.346   8.262 -0.7200 -0.9370 -0.1423
  766TIP3   OH223932   5.565   4.010   1.496  0.4175  0.0212  0.7619
  766TIP3    H123933   5.479   3.985   1.464  0.2789  0.4165  0.8195
  766TIP3    H223934   5.598   3.931   1.539  0.5530 -0.4749 -0.2219
  767TIP3   OH223935   4.235   2.495   1.336  0.5618  0.0347  0.3963
  767TIP3    H123936   4.176   2.566   1.362 -0.3425 -0.2803 -0.6971
  767TIP3    H223937   4.184   2.444   1.273  1.5797 -0.9729  0.3589
  768TIP3   OH223938   5.690   2.027   8.685  0.0320  0.2139  0.2133
  768TIP3    H123939   5.777   2.062   8.663  1.3439 -2.1493  1.2233
  768TIP3    H223940   5.642   2.029   8.602  2.5430 -2.3154 -1.5082
  769TIP3   OH223941   3.353   1.400   2.054 -0.1032 -0.1809  0.0614
  769TIP3    H123942   3.274   1.441   2.088 -0.1025  1.5171 -1.8025
  769TIP3    H223943   3.326   1.361   1.970  0.9702  0.3217 -0.5435
  770TIP3   OH223944   2.779   5.061   0.265 -0.0831 -0.1580 -0.8762
  770TIP3    H123945   2.734   5.127   0.214  1.2671  0.0090 -1.9107
  770TIP3    H223946   2.797   5.104   0.349 -1.9914 -0.3194 -0.3388
  771TIP3   OH223947   5.091   2.887   0.150 -0.0233  0.2673 -0.8720
  771TIP3    H123948   5.039   2.816   0.188  0.3865 -1.6835 -3.6149
  771TIP3    H223949   5.180   2.854   0.151  0.3821  1.3268 -1.0323
  772TIP3   OH223950   2.349   1.745   1.774 -0.3936 -0.2161 -0.0149
  772TIP3    H123951   2.326   1.657   1.806 -0.4556 -0.6892 -1.2860
  772TIP3    H223952   2.288   1.804   1.818 -0.8478 -0.8993  0.2891
  773TIP3   OH223953   0.523   3.783   8.825 -0.3776 -0.0342 -0.4369
  773TIP3    H123954   0.574   3.746   8.897 -0.1519  1.9146  0.4656
  773TIP3    H223955   0.574   3.762   8.747 -0.3984 -1.7962 -0.0197
  774TIP3   OH223956   6.080   6.323   1.709  0.2047  0.9331  0.6137
  774TIP3    H123957   6.144   6.334   1.639  0.3194  0.7263  0.6843
  774TIP3    H223958   6.117   6.255   1.765  0.4100  1.5371  1.2205
  775TIP3   OH223959   6.030   5.819   7.936 -0.5386 -0.3385  0.6321
  775TIP3    H123960   6.042   5.729   7.964 -0.3730 -0.2775  0.7659
  775TIP3    H223961   6.054   5.819   7.843 -3.2050 -0.9822 -0.1410
  776TIP3   OH223962   3.848   5.354   1.981 -0.2461  0.2326 -0.0582
  776TIP3    H123963   3.810   5.431   1.939 -0.7852 -0.6080 -1.1740
  776TIP3    H223964   3.941   5.358   1.958 -0.6143 -0.4710 -1.8338
  777TIP3   OH223965   6.345   3.103   8.408 -0.2188 -0.5312  0.1912
  777TIP3    H123966   6.373   3.139   8.324  1.3796 -0.9491  0.5164
  777TIP3    H223967   6.405   3.141   8.472 -1.0745 -0.6443  1.0816
  778TIP3   OH223968   0.260   0.382   7.748  0.7086  0.4450 -0.2592
  778TIP3    H123969   0.255   0.307   7.807  2.4570  0.0611 -0.5639
  778TIP3    H223970   0.347   0.418   7.762  0.0816  2.1304 -0.4953
  779TIP3   OH223971   2.050   3.732   0.895  0.1128  0.2560  0.7758
  779TIP3    H123972   2.100   3.652   0.877  0.7312  0.4131  1.7463
  779TIP3    H223973   2.090   3.799   0.840  1.4818  0.5519  2.0594
  780TIP3   OH223974   4.276   1.045   0.327  0.3373 -0.1145 -0.3534
  780TIP3    H123975   4.315   1.038   0.414 -1.2461 -1.5740  0.3037
  780TIP3    H223976   4.232   1.130   0.328  1.1275  0.3033 -0.0935
  781TIP3   OH223977   6.773   4.198   8.930  0.1016 -0.0986 -0.1095
  781TIP3    H123978   6.706   4.249   8.884  0.8315  1.7840  0.8212
  781TIP3    H223979   6.742   4.193   9.020  1.4283  1.3269  0.4800
  782TIP3   OH223980   5.473   3.128   0.744  0.3089  0.2859  0.0677
  782TIP3    H123981   5.412   3.198   0.723 -1.1144 -0.9356 -0.0260
  782TIP3    H223982   5.459   3.111   0.837  0.6841  0.1520  0.1022
  783TIP3   OH223983   3.863   6.088   3.233 -0.0275  0.2168  0.3997
  783TIP3    H123984   3.835   6.153   3.169  0.3160 -0.3874 -0.3865
  783TIP3    H223985   3.785   6.069   3.284 -1.2057 -1.5602 -1.8474
  784TIP3   OH223986   0.414   5.998   1.768 -0.7791  0.0913  0.3747
  784TIP3    H123987   0.349   6.006   1.838 -1.9147  1.2425 -0.7689
  784TIP3    H223988   0.443   5.907   1.774 -0.3497  0.3014  2.7313
  785TIP3   OH223989   0.508   6.422   2.204  0.5421 -0.2235 -0.0400
  785TIP3    H123990   0.481   6.440   2.294  1.1866  1.9210 -0.2144
  785TIP3    H223991   0.602   6.403   2.210  0.6901  0.4080 -0.3020
  786TIP3   OH223992   3.243   3.369   0.799 -0.0731 -0.0020  0.2001
  786TIP3    H123993   3.221   3.456   0.765 -0.4212 -0.7424 -1.5262
  786TIP3    H223994   3.165   3.342   0.848 -0.8631 -0.2712 -1.1755
  787TIP3   OH223995   2.011   0.193   7.772 -0.1922 -0.4322 -0.6237
  787TIP3    H123996   2.061   0.155   7.844 -0.0011  0.6524 -0.1689
  787TIP3    H223997   1.947   0.250   7.814 -1.0441 -0.8995 -1.2532
  788TIP3   OH223998   5.509   5.344   8.288 -0.0019 -0.0527  0.2993
  788TIP3    H123999   5.419   5.318   8.311 -0.2995  0.6474 -0.0318
  788TIP3    H224000   5.530   5.414   8.350 -0.7373  1.7121 -1.3308
  789TIP3   OH224001   0.659   4.057   3.119  0.0378 -0.1673 -0.0012
  789TIP3    H124002   0.746   4.035   3.086 -1.0245 -2.4019 -1.5876
  789TIP3    H224003   0.643   3.993   3.189 -0.1091  0.6276  0.7055
  790TIP3   OH224004   1.408   1.229   1.436  0.2080 -0.0281 -0.6889
  790TIP3    H124005   1.375   1.276   1.512  0.0509  0.7494 -1.2195
  790TIP3    H224006   1.422   1.298   1.370  0.9023 -0.6078 -1.1621
  791TIP3   OH224007   1.557   3.939   0.415 -0.1652 -0.1522 -0.0292
  791TIP3    H124008   1.514   4.011   0.463 -1.1568 -0.2517 -0.7382
  791TIP3    H224009   1.485   3.887   0.380  0.5276 -0.1416 -1.5577
  792TIP3   OH224010   1.129   5.928   8.027  0.5990 -0.0195 -0.3437
  792TIP3    H124011   1.198   5.987   8.057 -0.0973  0.7254 -0.1638
  792TIP3    H224012   1.167   5.880   7.954  1.4078  0.1442 -0.0336
  793TIP3   OH224013   3.034   0.682   1.131 -0.5849  0.2448 -0.1188
  793TIP3    H124014   3.120   0.721   1.143 -0.7483  0.3279  0.8376
  793TIP3    H224015   3.001   0.667   1.220 -0.7989 -1.4907 -0.4529
  794TIP3   OH224016   3.439   3.393   8.781 -0.3285 -0.0893 -0.3070
  794TIP3    H124017   3.389   3.360   8.706 -0.1316 -1.3799  0.0981
  794TIP3    H224018   3.507   3.448   8.742 -1.8739  1.5024 -0.8800
  795TIP3   OH224019   1.282   0.789   2.914 -0.0309  0.4795  0.0500
  795TIP3    H124020   1.321   0.851   2.852  0.0198  0.5413  0.1429
  795TIP3    H224021   1.356   0.759   2.967 -0.0742  0.4275  0.0808
  796TIP3   OH224022   0.056   0.114   2.059 -0.8757 -0.1727 -0.6228
  796TIP3    H124023  -0.031   0.142   2.028 -0.2188  2.2269 -0.5479
  796TIP3    H224024   0.064   0.156   2.145  0.2107 -0.7207 -0.4430
  797TIP3   OH224025   2.682   6.777   8.803  0.1077 -0.0703  0.4335
  797TIP3    H124026   2.760   6.830   8.821 -0.1978  0.5638 -0.0672
  797TIP3    H224027   2.662   6.734   8.886  0.5428  0.3590  0.7618
  798TIP3   OH224028   6.592   3.226   1.095 -0.3326  0.4308  0.0038
  798TIP3    H124029   6.506   3.267   1.093 -0.6844 -0.3161 -1.1909
  798TIP3    H224030   6.622   3.230   1.004  0.9176  0.7083  0.4118
  799TIP3   OH224031   6.472   3.898   8.161  0.4295 -0.0019  0.0264
  799TIP3    H124032   6.385   3.894   8.201  0.9611  1.0047  1.4066
  799TIP3    H224033   6.502   3.808   8.159 -0.4810 -0.3122 -0.0659
  800TIP3   OH224034   1.552   4.288   7.479 -0.1241  0.0662 -0.2478
  800TIP3    H124035   1.551   4.350   7.551 -1.0450  0.7683 -0.8376
  800TIP3    H224036   1.642   4.290   7.446  0.1874  0.0696  0.5878
  801TIP3   OH224037   5.291   6.394   0.276  0.1890 -0.0768 -0.1682
  801TIP3    H124038   5.270   6.477   0.320 -1.1928 -1.4463  1.9643
  801TIP3    H224039   5.330   6.340   0.345  1.6667 -1.0161 -1.6739
  802TIP3   OH224040   5.484   5.680   7.447 -0.4300 -0.0034 -0.3596
  802TIP3    H124041   5.419   5.747   7.425 -0.7099 -0.4132 -0.7843
  802TIP3    H224042   5.433   5.602   7.469 -0.1990  0.4305  2.0688
  803TIP3   OH224043   3.694   6.030   1.437 -0.0391 -0.3682  0.6974
  803TIP3    H124044   3.653   6.047   1.352  0.2678 -0.1927  0.5844
  803TIP3    H224045   3.678   6.111   1.487  1.4984  0.3179  0.1302
  804TIP3   OH224046   5.309   5.496   2.254  0.5586 -0.4500  0.0442
  804TIP3    H124047   5.258   5.479   2.175  1.9456 -1.2866 -0.6945
  804TIP3    H224048   5.283   5.585   2.280 -0.7109 -0.5713 -0.7128
  805TIP3   OH224049   4.407   2.886   8.108  0.1754  0.8020  0.4242
  805TIP3    H124050   4.421   2.795   8.081  1.3274  1.1346 -0.1650
  805TIP3    H224051   4.342   2.880   8.179  1.3688 -0.6374  1.4687
  806TIP3   OH224052   0.284   4.578   8.284  0.6642  0.1072  0.3551
  806TIP3    H124053   0.361   4.543   8.328  0.3999 -0.5505  0.3092
  806TIP3    H224054   0.232   4.617   8.355  0.3993 -0.6542  0.5934
  807TIP3   OH224055   1.731   3.796   8.232  0.5692 -0.6534 -0.3436
  807TIP3    H124056   1.676   3.828   8.304  0.2220 -1.1002 -0.4040
  807TIP3    H224057   1.694   3.836   8.154 -0.5206 -1.9999 -0.5446
  808TIP3   OH224058   6.342   2.563   2.557 -0.5024 -0.3639  0.4813
  808TIP3    H124059   6.426   2.529   2.588 -0.4191 -0.1190  0.5282
  808TIP3    H224060   6.283   2.550   2.631 -0.2590  0.3870  0.8169
  809TIP3   OH224061   1.781   5.543   0.358 -0.4302 -0.1736 -0.1459
  809TIP3    H124062   1.764   5.480   0.428  1.3325  0.3756  0.8404
  809TIP3    H224063   1.696   5.583   0.340 -1.3134 -1.8272  0.1696
  810TIP3   OH224064   2.650   4.593   1.581  0.1205 -0.0912  0.4686
  810TIP3    H124065   2.697   4.632   1.654 -1.0882  1.4840  0.4478
  810TIP3    H224066   2.621   4.508   1.614  0.1156  0.3416  1.6017
  811TIP3   OH224067   2.123   1.463   8.310  0.1268  0.0515  0.3428
  811TIP3    H124068   2.108   1.413   8.230  1.5216 -0.5836  0.4643
  811TIP3    H224069   2.036   1.467   8.351 -0.3124 -0.9323 -0.4357
  812TIP3   OH224070   5.899   5.100   2.422  0.7255 -0.5343 -0.5090
  812TIP3    H124071   5.995   5.095   2.431  0.6496 -1.0493  0.0342
  812TIP3    H224072   5.879   5.192   2.438  0.9111 -0.8163  1.6729
  813TIP3   OH224073   0.521   1.651   1.432  0.3756 -0.1340  0.6747
  813TIP3    H124074   0.432   1.684   1.421  0.5259  0.4077  1.0495
  813TIP3    H224075   0.551   1.688   1.516  1.3463  0.6153  0.0330
  814TIP3   OH224076   6.241   3.793   8.235  0.2304  0.1279 -0.7357
  814TIP3    H124077   6.174   3.727   8.220 -0.1385 -0.0136  1.2741
  814TIP3    H224078   6.289   3.763   8.312 -0.3040  2.4227  0.5923
  815TIP3   OH224079   3.627   3.135   7.719  0.1799 -0.0135 -0.7872
  815TIP3    H124080   3.534   3.137   7.744  0.5040  0.1541  0.4497
  815TIP3    H224081   3.647   3.041   7.714  0.4201 -0.0784  0.8714
  816TIP3   OH224082   5.869   5.029   0.296  0.4510  0.0664 -0.2602
  816TIP3    H124083   5.924   5.102   0.268  0.7865 -0.2702 -0.4902
  816TIP3    H224084   5.848   4.982   0.215 -1.6493  1.1818 -0.4304
  817TIP3   OH224085   0.104   2.518   2.621 -0.2180 -0.6739  0.0758
  817TIP3    H124086   0.092   2.463   2.544 -2.7915  0.7498 -0.6755
  817TIP3    H224087   0.096   2.607   2.587  1.5244  0.1081  1.5923
  818TIP3   OH224088   3.373   0.870   2.325 -0.1310 -0.3593  0.4951
  818TIP3    H124089   3.322   0.868   2.406 -0.1715 -0.0303  0.4769
  818TIP3    H224090   3.420   0.786   2.324 -2.3711 -1.6982 -0.5874
  819TIP3   OH224091   2.997   6.125   8.778 -0.1382  0.3105 -0.1143
  819TIP3    H124092   2.983   6.219   8.763 -3.3039 -0.3615 -2.4359
  819TIP3    H224093   2.960   6.108   8.864  0.6136  1.1731  0.3988
  820TIP3   OH224094   5.814   5.686   8.590 -0.9117  0.2219 -0.3882
  820TIP3    H124095   5.773   5.710   8.507  1.3594 -3.6954 -2.9658
  820TIP3    H224096   5.765   5.609   8.620 -0.1423  0.0455  0.4810
  821TIP3   OH224097   5.370   3.413   0.184 -0.8570  0.5646  0.0532
  821TIP3    H124098   5.279   3.388   0.165 -0.6409 -0.4433  0.2975
  821TIP3    H224099   5.408   3.431   0.098 -1.0733  0.2299 -0.1129
  822TIP3   OH224100   0.569   6.154   2.699  0.0277  0.2623  0.2471
  822TIP3    H124101   0.597   6.098   2.626 -1.5069  0.5556 -0.6339
  822TIP3    H224102   0.510   6.099   2.750 -0.0958  0.5224  0.3884
  823TIP3   OH224103   1.256   0.438   8.012  0.1477  0.6513  0.6556
  823TIP3    H124104   1.289   0.369   7.954  0.0206  0.5014  0.7598
  823TIP3    H224105   1.185   0.396   8.061 -0.1877  0.9698  0.4436
  824TIP3   OH224106   2.441   3.354   1.768  0.0914 -0.7473  0.1648
  824TIP3    H124107   2.378   3.284   1.751  1.0235 -1.2529 -1.4323
  824TIP3    H224108   2.392   3.418   1.819 -1.7072 -1.1577 -0.9513
  825TIP3   OH224109   1.928   4.173   8.533 -0.0275  0.1226 -0.4436
  825TIP3    H124110   2.022   4.176   8.551  0.3383  1.0789 -2.2493
  825TIP3    H224111   1.916   4.230   8.457 -2.0573 -0.1029 -0.3613
  826TIP3   OH224112   3.735   0.927   0.697 -0.3951 -0.7693  0.5185
  826TIP3    H124113   3.748   0.878   0.616  1.4383  0.7967 -0.2247
  826TIP3    H224114   3.666   0.990   0.675  2.5812  2.2596 -1.3156
  827TIP3   OH224115   1.366   2.514   1.790  0.1676  0.2096 -0.3485
  827TIP3    H124116   1.421   2.454   1.740 -0.0837  1.1648 -1.8348
  827TIP3    H224117   1.288   2.525   1.735 -0.5621  0.5247  0.7291
  828TIP3   OH224118   6.656   6.021   7.712  0.2526  0.5364  0.5983
  828TIP3    H124119   6.574   5.972   7.720  0.0045  1.0843  1.4841
  828TIP3    H224120   6.725   5.957   7.732  0.1044 -0.0853 -0.7477
  829TIP3   OH224121   6.431   4.664   0.047  0.3860  0.0729  0.2708
  829TIP3    H124122   6.349   4.628   0.083  0.7618 -0.5971  0.4792
  829TIP3    H224123   6.418   4.758   0.048 -0.9744 -0.0556 -1.0768
  830TIP3   OH224124   2.438   0.582   0.136  0.5510 -0.1637  0.3012
  830TIP3    H124125   2.346   0.563   0.153 -0.0336  3.1026  1.4710
  830TIP3    H224126   2.437   0.639   0.059  1.6081 -0.0849  0.3317
  831TIP3   OH224127   0.797   0.095   2.204  0.1785 -0.6846 -0.4203
  831TIP3    H124128   0.803   0.083   2.109 -1.1429  1.1498 -0.7920
  831TIP3    H224129   0.869   0.153   2.225 -0.3348  0.0162 -0.5518
  832TIP3   OH224130   0.084   3.553   1.262  0.3084  0.1248  0.0779
  832TIP3    H124131   0.056   3.617   1.327  0.7811  0.9579 -0.5127
  832TIP3    H224132   0.027   3.477   1.275 -1.7039  1.4416 -0.5899
  833TIP3   OH224133   0.054   0.804   0.110 -0.3374  0.2304 -0.3109
  833TIP3    H124134   0.133   0.752   0.101 -1.0660 -1.3894  1.8991
  833TIP3    H224135   0.084   0.888   0.146  0.3934 -0.3418  0.4332
  834TIP3   OH224136   0.667   5.813   7.872 -0.0876  0.1741 -0.1881
  834TIP3    H124137   0.754   5.799   7.909  0.8025 -1.0739 -2.5349
  834TIP3    H224138   0.678   5.889   7.814 -1.3670  1.8823  1.6461
  835TIP3   OH224139   3.028   3.898   8.641  0.0260  0.6806 -0.4338
  835TIP3    H124140   2.984   3.822   8.681  0.4661  0.1294 -0.9726
  835TIP3    H224141   3.120   3.886   8.662 -0.0248  1.6645  0.4166
  836TIP3   OH224142   4.005   1.249   0.639  0.0451 -0.4451 -0.3266
  836TIP3    H124143   3.983   1.333   0.598  0.3274  0.3643  1.1363
  836TIP3    H224144   3.930   1.230   0.695  1.3917  0.5236  1.9108
  837TIP3   OH224145   4.494   0.358   7.574  0.0853 -0.1230 -0.0654
  837TIP3    H124146   4.569   0.368   7.633  1.8139  0.3851 -2.2046
  837TIP3    H224147   4.451   0.444   7.574  0.4141  0.0421  0.0476
  838TIP3   OH224148   4.604   3.617   0.054  0.2575 -0.0665  0.1181
  838TIP3    H124149   4.675   3.663   0.011 -1.0889  1.1686 -0.8562
  838TIP3    H224150   4.618   3.525   0.032  1.8505  0.0766  0.4384
  839TIP3   OH224151   5.558   1.430   2.687 -0.5057  0.3224 -0.1117
  839TIP3    H124152   5.476   1.458   2.726 -0.3545  0.2961  0.2286
  839TIP3    H224153   5.535   1.352   2.637 -0.9607  1.1324 -1.2059
  840TIP3   OH224154   2.726   0.175   0.994  0.3790 -0.7486 -0.1329
  840TIP3    H124155   2.759   0.194   0.906  0.5098  0.7820  0.2209
  840TIP3    H224156   2.772   0.236   1.051 -2.5592  1.1638  0.4470
  841TIP3   OH224157   4.759   1.488   1.331  0.1032 -0.5305 -0.0500
  841TIP3    H124158   4.766   1.498   1.426  0.4959  2.3541 -0.2944
  841TIP3    H224159   4.809   1.408   1.311  4.0639  1.2349  1.7713
  842TIP3   OH224160   3.726   6.088   2.721 -0.3017  0.1888  0.1792
  842TIP3    H124161   3.747   6.093   2.627 -0.8118 -0.1621  0.0362
  842TIP3    H224162   3.786   6.149   2.763 -1.0324  1.4351 -0.5353
  843TIP3   OH224163   1.838   0.703   1.272 -0.1692  0.0505 -0.3165
  843TIP3    H124164   1.793   0.639   1.216 -0.3351 -0.9448  0.9191
  843TIP3    H224165   1.768   0.758   1.307 -0.1797 -0.0070 -0.2466
  844TIP3   OH224166   1.528   5.867   0.108  0.8613 -0.2072 -0.1144
  844TIP3    H124167   1.434   5.863   0.092  0.9208  0.6655 -0.7043
  844TIP3    H224168   1.566   5.886   0.023  1.6323 -1.1496  0.0025
  845TIP3   OH224169   4.286   0.048   1.953  0.3555  0.1973 -0.0441
  845TIP3    H124170   4.364   0.020   1.905  0.2073 -1.0926  0.4272
  845TIP3    H224171   4.242  -0.033   1.978  0.3527  0.7824  2.1491
  846TIP3   OH224172   1.104   4.036   1.687  0.1847  0.2004 -0.4695
  846TIP3    H124173   1.153   4.093   1.747 -0.6578  1.4419 -0.9236
  846TIP3    H224174   1.120   3.947   1.720  1.3938  0.6935  0.3594
  847TIP3   OH224175   3.255   0.768   2.053 -0.1502  0.6420  0.2697
  847TIP3    H124176   3.174   0.729   2.088  0.2258 -0.1858  0.2468
  847TIP3    H224177   3.255   0.857   2.086 -0.9525  0.5723  0.4798
  848TIP3   OH224178   2.862   6.113   8.510  0.3515  0.2164 -0.2113
  848TIP3    H124179   2.776   6.070   8.513  0.4350  0.0904  2.4047
  848TIP3    H224180   2.898   6.101   8.598  2.1292  2.1876 -0.6006
  849TIP3   OH224181   2.628   2.192   1.131 -0.2759  0.1095 -0.1816
  849TIP3    H124182   2.626   2.107   1.175  0.2044  0.2162  0.0484
  849TIP3    H224183   2.559   2.242   1.175  0.2502  0.2403  0.5103
  850TIP3   OH224184   6.233   0.465   2.040  0.7976 -0.2665 -0.2048
  850TIP3    H124185   6.191   0.434   2.120  2.8899 -0.2677  0.9484
  850TIP3    H224186   6.322   0.488   2.067  1.5705 -0.2975 -2.5431
  851TIP3   OH224187   4.489   2.164   2.323 -0.1442  0.1366 -0.5653
  851TIP3    H124188   4.468   2.256   2.312  1.2510  0.7509  1.3511
  851TIP3    H224189   4.415   2.128   2.372 -0.9631  0.0549 -1.8084
  852TIP3   OH224190   0.143   3.781   2.647  0.5233  0.1485 -0.1342
  852TIP3    H124191   0.160   3.729   2.569  2.4036  1.0340 -0.3622
  852TIP3    H224192   0.170   3.725   2.720 -0.0829 -0.2163 -0.1820
  853TIP3   OH224193   1.512   5.732   1.197  0.0826 -0.2938  0.7483
  853TIP3    H124194   1.495   5.687   1.280 -2.7988 -0.9524 -0.0808
  853TIP3    H224195   1.603   5.762   1.204  0.3084 -1.3337  3.6352
  854TIP3   OH224196   4.985   5.522   1.799  0.7215  0.4483 -0.0026
  854TIP3    H124197   4.894   5.551   1.797  1.1862  2.0221  0.3106
  854TIP3    H224198   5.018   5.537   1.711  0.7466  0.1294 -0.0479
  855TIP3   OH224199   5.226   6.190   2.644 -0.2661 -0.2235 -0.2110
  855TIP3    H124200   5.278   6.129   2.696 -0.6951  1.4221  2.3293
  855TIP3    H224201   5.140   6.192   2.687 -1.1988  0.0120 -1.9824
  856TIP3   OH224202   0.993   4.741   2.275 -0.0006  0.3642 -0.6284
  856TIP3    H124203   0.920   4.771   2.220  0.4222  2.1385 -0.2752
  856TIP3    H224204   0.955   4.734   2.363 -0.9528 -3.4753 -1.1529
  857TIP3   OH224205   5.958   3.296   7.196  0.1319  0.0734 -0.0332
  857TIP3    H124206   5.899   3.351   7.248  0.7648  0.3216  0.4324
  857TIP3    H224207   5.992   3.353   7.128  0.5891  0.2003  0.2941
  858TIP3   OH224208   0.812   5.389   1.512 -0.8561 -0.0901 -0.1801
  858TIP3    H124209   0.728   5.350   1.536 -0.3633 -1.3349 -0.4254
  858TIP3    H224210   0.870   5.366   1.584 -0.6697  0.6189 -0.0966
  859TIP3   OH224211   3.686   5.432   8.680 -0.0542  0.1184 -0.1365
  859TIP3    H124212   3.766   5.446   8.629 -0.6816 -1.7120 -1.7343
  859TIP3    H224213   3.660   5.343   8.660 -1.5857  0.0846  1.7157
  860TIP3   OH224214   5.805   4.959   1.985 -0.1925 -0.1676  0.1682
  860TIP3    H124215   5.799   5.053   2.002  3.2016  0.0957  0.4984
  860TIP3    H224216   5.772   4.948   1.896 -1.3782  1.1792  0.4069
  861TIP3   OH224217   5.890   0.849   1.129 -0.5761  0.0266  0.1766
  861TIP3    H124218   5.932   0.781   1.182 -0.5818 -0.0950  0.0252
  861TIP3    H224219   5.895   0.816   1.039 -0.4433  0.2958  0.0833
  862TIP3   OH224220   5.838   3.384   1.318 -0.3427 -0.0123  0.6892
  862TIP3    H124221   5.914   3.416   1.367 -0.5238 -0.4170  1.2485
  862TIP3    H224222   5.875   3.319   1.257 -0.0054  1.0800 -0.3029
  863TIP3   OH224223   4.226   1.385   8.181  0.0974  0.6725  0.1763
  863TIP3    H124224   4.280   1.464   8.180  0.5474  0.4185  1.7421
  863TIP3    H224225   4.191   1.380   8.270  0.0527 -0.8734  0.1124
  864TIP3   OH224226   2.386   6.069   1.858  0.5474 -0.3760  0.0756
  864TIP3    H124227   2.368   6.077   1.764  0.9819 -0.3332 -0.0051
  864TIP3    H224228   2.385   6.159   1.891 -0.5122 -0.4524  0.2879
  865TIP3   OH224229   4.660   1.952   0.613 -0.0466 -0.3089 -0.8905
  865TIP3    H124230   4.691   1.887   0.550  0.4578  0.9746 -2.0145
  865TIP3    H224231   4.612   1.901   0.678  0.8449 -1.8635 -1.4035
  866TIP3   OH224232   4.003   2.123   8.901 -0.3348 -0.0727  0.3394
  866TIP3    H124233   3.987   2.215   8.918  0.1878  0.0286  0.2960
  866TIP3    H224234   3.933   2.077   8.948 -0.4537  0.3311  0.5562
  867TIP3   OH224235   2.338   4.478   0.085  0.0122  0.2961  0.0981
  867TIP3    H124236   2.257   4.516   0.050  0.1390  0.0775 -0.4328
  867TIP3    H224237   2.340   4.506   0.177 -0.4986  0.5771  0.0234
  868TIP3   OH224238   3.431   6.179   1.730  0.1456  0.1309  0.2673
  868TIP3    H124239   3.380   6.127   1.669  1.6667 -1.2934  0.1312
  868TIP3    H224240   3.517   6.188   1.689  0.0113  2.5847  0.4126
  869TIP3   OH224241   3.272   5.742   1.097  0.4304 -0.2419  0.4453
  869TIP3    H124242   3.307   5.790   1.172  1.8213 -0.1095 -0.2649
  869TIP3    H224243   3.308   5.654   1.106 -1.7451 -1.1048  1.4907
  870TIP3   OH224244   3.675   5.573   8.259  0.0003 -0.4143 -0.3096
  870TIP3    H124245   3.750   5.556   8.203  0.2424  0.4465 -0.2635
  870TIP3    H224246   3.649   5.663   8.238  1.3987  0.7694  2.3833
  871TIP3   OH224247   3.306   4.081   8.499  0.1073  0.0222  0.5749
  871TIP3    H124248   3.329   4.069   8.591  1.4315  1.3041  0.4373
  871TIP3    H224249   3.300   4.176   8.487  0.5564 -0.1025 -0.8024
  872TIP3   OH224250   6.035   0.110   0.087 -0.5234  0.0012  0.0849
  872TIP3    H124251   6.081   0.193   0.076 -1.0985  0.2654 -0.3643
  872TIP3    H224252   6.103   0.049   0.116  0.3208  0.1772 -1.4080
  873TIP3   OH224253   0.345   5.153   1.521 -0.2248  0.0597  0.0950
  873TIP3    H124254   0.307   5.066   1.529  1.5953 -0.6258  3.0885
  873TIP3    H224255   0.434   5.137   1.490  1.1772  0.3518  3.4861
  874TIP3   OH224256   5.918   1.431   3.032 -0.0099  0.1450  0.5558
  874TIP3    H124257   5.869   1.511   3.013 -1.3782 -1.0044 -0.9983
  874TIP3    H224258   6.005   1.446   2.995 -0.7367  0.3537 -1.1256
  875TIP3   OH224259   1.655   2.196   0.239  0.5680  0.4205 -0.6393
  875TIP3    H124260   1.599   2.120   0.251  1.6716 -0.3945 -0.4451
  875TIP3    H224261   1.717   2.192   0.312 -1.5902  3.6163  1.6043
  876TIP3   OH224262   5.962   6.436   8.192  0.2122 -0.2786 -0.1033
  876TIP3    H124263   5.974   6.365   8.129 -2.3530 -1.4922  0.6269
  876TIP3    H224264   6.026   6.418   8.261  0.5429 -1.0777 -0.6024
  877TIP3   OH224265   0.687   2.386   0.368  0.4289 -0.1013 -0.0873
  877TIP3    H124266   0.730   2.431   0.440  0.2246  1.4527 -0.8922
  877TIP3    H224267   0.608   2.349   0.407  1.0075 -0.4698  0.7649
  878TIP3   OH224268   2.241   5.757   7.217  0.4213 -0.3612  0.5626
  878TIP3    H124269   2.157   5.740   7.260  0.7917  0.4545  1.6459
  878TIP3    H224270   2.243   5.695   7.144 -1.2164 -0.2514  0.3781
  879TIP3   OH224271   6.343   1.909   1.480  0.1694 -0.0749 -0.2035
  879TIP3    H124272   6.380   1.828   1.514  1.0124  1.0316  1.6670
  879TIP3    H224273   6.378   1.916   1.392  1.6047 -0.8219  0.2768
  880TIP3   OH224274   4.063   1.967   7.864 -0.2668  0.2178 -0.0610
  880TIP3    H124275   4.057   2.063   7.856 -0.1226  0.1792 -0.6703
  880TIP3    H224276   4.095   1.953   7.953 -1.7783  0.6866  0.6012
  881TIP3   OH224277   5.933   3.534   3.263 -0.1503  0.3368 -0.3783
  881TIP3    H124278   6.016   3.487   3.276 -0.6636 -0.6794 -0.6421
  881TIP3    H224279   5.896   3.542   3.351  0.1207  0.6076 -0.2855
  882TIP3   OH224280   2.042   3.529   2.398  0.4438  0.0476 -0.4617
  882TIP3    H124281   2.023   3.436   2.386 -0.5269  0.1150  0.4365
  882TIP3    H224282   1.978   3.559   2.462  1.6540  1.0042  0.3708
  883TIP3   OH224283   5.682   3.186   1.449 -0.4814  0.6587  0.0048
  883TIP3    H124284   5.675   3.214   1.541 -1.2960  0.0606  0.1270
  883TIP3    H224285   5.732   3.257   1.407  2.0271 -0.1416  1.3869
  884TIP3   OH224286   0.556   6.645   3.796 -0.5524 -0.0761  0.2244
  884TIP3    H124287   0.507   6.664   3.876 -1.3139 -0.3660 -0.1702
  884TIP3    H224288   0.587   6.730   3.765  0.8479 -0.0768  1.5131
  885TIP3   OH224289   2.174   1.253   7.423  0.0196  0.0317  0.1600
  885TIP3    H124290   2.148   1.285   7.509 -0.6221 -0.4312  0.1515
  885TIP3    H224291   2.142   1.162   7.421  2.7559 -1.0404  0.6289
  886TIP3   OH224292   1.249   6.174   2.193  0.4362 -0.0158 -0.8286
  886TIP3    H124293   1.235   6.260   2.233 -1.9932 -1.2206  1.1640
  886TIP3    H224294   1.344   6.169   2.179  0.9747  1.9551  1.5007
  887TIP3   OH224295   4.227   0.262   2.642  0.3526  0.2117  0.0466
  887TIP3    H124296   4.261   0.178   2.672  1.5209  0.6617  0.0130
  887TIP3    H224297   4.188   0.301   2.721 -0.0980 -0.2982  0.0849
  888TIP3   OH224298   1.135   5.044   0.947  0.5125 -0.0649 -1.1267
  888TIP3    H124299   1.092   5.130   0.942  0.7049  0.1225  0.0694
  888TIP3    H224300   1.174   5.042   1.035  0.9625 -1.1677 -1.3370
  889TIP3   OH224301   2.597   1.413   2.278 -0.3975  0.0592  0.4442
  889TIP3    H124302   2.579   1.481   2.343 -0.8158 -2.2192  2.8931
  889TIP3    H224303   2.519   1.357   2.279  1.0444 -2.0790  0.7474
  890TIP3   OH224304   3.309   2.947   8.238  0.4323 -0.5390  0.3874
  890TIP3    H124305   3.230   3.001   8.247 -0.1510 -0.1931 -4.3065
  890TIP3    H224306   3.291   2.869   8.290 -3.1796 -0.5750 -0.6365
  891TIP3   OH224307   1.298   6.011   8.595  0.1870  0.0397  0.0486
  891TIP3    H124308   1.216   5.970   8.621  0.7970  0.0154  2.0771
  891TIP3    H224309   1.272   6.095   8.557 -0.7812  0.0718  0.7617
  892TIP3   OH224310   4.365   4.226   2.020 -0.0557 -0.9380 -0.1378
  892TIP3    H124311   4.434   4.268   2.072 -0.5489 -1.4528  0.9598
  892TIP3    H224312   4.403   4.218   1.932  0.9459 -0.4068  0.2296
  893TIP3   OH224313   5.822   1.981   3.634 -0.3653  0.5349  0.1150
  893TIP3    H124314   5.816   2.001   3.541 -0.1189 -1.1223 -0.2854
  893TIP3    H224315   5.910   2.011   3.659  0.5717 -1.2713 -0.8115
  894TIP3   OH224316   1.864   6.379   2.999  0.0392  0.0697  0.0128
  894TIP3    H124317   1.887   6.464   2.960  0.4284 -0.2724 -0.5193
  894TIP3    H224318   1.785   6.397   3.050  0.6604  0.9534  0.6837
  895TIP3   OH224319   3.009   1.950   0.174 -0.2301  0.1864 -0.1641
  895TIP3    H124320   2.949   1.993   0.114  0.5446 -1.2300 -2.0403
  895TIP3    H224321   2.953   1.897   0.231 -0.9716  1.5644  0.4175
  896TIP3   OH224322   4.165   6.637   2.484  0.6604 -0.0790  0.7669
  896TIP3    H124323   4.209   6.715   2.450 -1.0890  0.5041 -0.2430
  896TIP3    H224324   4.146   6.659   2.575  0.1912  0.6814  0.4964
  897TIP3   OH224325   1.601   6.549   8.509 -0.3466  0.2474  0.4682
  897TIP3    H124326   1.689   6.554   8.545 -0.3150 -0.3783  0.4837
  897TIP3    H224327   1.566   6.465   8.540 -0.3448 -0.2731 -0.8801
  898TIP3   OH224328   1.900   1.451   3.627 -0.5765 -0.3967 -0.2266
  898TIP3    H124329   1.831   1.445   3.693 -0.2495 -1.0052  0.0683
  898TIP3    H224330   1.859   1.420   3.547 -1.0442  0.5665 -0.3746
  899TIP3   OH224331   0.355   3.437   1.565 -0.2269  0.5013  0.6307
  899TIP3    H124332   0.403   3.515   1.595 -1.5431  2.6163 -2.2416
  899TIP3    H224333   0.406   3.404   1.492 -1.3450  0.7024 -0.2676
  900TIP3   OH224334   2.989   3.423   1.635  0.0028  0.1863  0.2971
  900TIP3    H124335   2.927   3.470   1.691 -0.0294  0.0178  0.4048
  900TIP3    H224336   2.942   3.411   1.553  1.0989  3.0715 -0.8601
  901TIP3   OH224337   5.693   1.361   0.185 -0.3395  0.1067  0.6438
  901TIP3    H124338   5.721   1.292   0.245 -0.1807 -1.5681 -1.2490
  901TIP3    H224339   5.611   1.330   0.148 -0.0686  0.7124 -0.5335
  902TIP3   OH224340   0.739   5.941   0.108 -0.0742 -0.1907 -0.4112
  902TIP3    H124341   0.707   6.011   0.052 -0.7587  0.9022  1.2775
  902TIP3    H224342   0.819   5.976   0.148 -0.9089  0.0228  1.1402
  903TIP3   OH224343   6.386   0.109   0.007  0.7386 -0.6706  0.2518
  903TIP3    H124344   6.318   0.167  -0.027  2.6668  0.3796 -2.1036
  903TIP3    H224345   6.366   0.024  -0.031  1.4080 -0.0625 -1.5994
  904TIP3   OH224346   2.872   5.716   8.233 -0.0996 -0.0658  0.5966
  904TIP3    H124347   2.861   5.701   8.140  1.1732 -0.7082  0.5214
  904TIP3    H224348   2.784   5.735   8.266 -0.5038  0.5361 -0.7810
  905TIP3   OH224349   3.104   2.796   3.610  0.3746 -0.1020  0.0051
  905TIP3    H124350   3.025   2.791   3.556  0.1671 -2.2024  0.4037
  905TIP3    H224351   3.093   2.726   3.675  2.2513  0.0134  0.5138
  906TIP3   OH224352   2.800   0.655   3.104  0.3300 -0.1761 -0.4595
  906TIP3    H124353   2.828   0.692   3.188  0.6047  0.4030 -0.7971
  906TIP3    H224354   2.862   0.691   3.040 -1.0118  0.9325 -1.1908
  907TIP3   OH224355   6.323   2.071   2.476  0.2614  0.0194  0.1636
  907TIP3    H124356   6.286   2.038   2.558  0.8460  0.7731  0.7422
  907TIP3    H224357   6.290   2.161   2.470  0.6775  0.1517 -0.1410
  908TIP3   OH224358   2.555   2.636   8.821 -0.6009  0.4791 -0.2141
  908TIP3    H124359   2.577   2.728   8.812  1.9662  0.0329  0.7072
  908TIP3    H224360   2.630   2.597   8.867 -1.2093 -2.2233 -1.2904
  909TIP3   OH224361   1.436   5.659   1.703 -0.1559 -0.2132 -0.3048
  909TIP3    H124362   1.409   5.750   1.694  0.9497  0.0265 -1.5029
  909TIP3    H224363   1.483   5.655   1.786 -1.2604  0.0066  0.3548
  910TIP3   OH224364   6.742   0.186   0.303  0.4614 -0.8795  0.5220
  910TIP3    H124365   6.726   0.108   0.250 -2.1848 -0.7081  0.9130
  910TIP3    H224366   6.733   0.156   0.393  0.7548 -0.3791  0.7229
  911TIP3   OH224367   2.766   5.532   8.623 -0.5296 -0.0541  0.2540
  911TIP3    H124368   2.846   5.541   8.675  0.0368 -2.0102 -0.2076
  911TIP3    H224369   2.745   5.621   8.595  2.3273  0.3595 -0.8575
  912TIP3   OH224370   0.553   1.605   8.929 -0.3036  0.5836 -0.1862
  912TIP3    H124371   0.645   1.632   8.925 -0.2544  0.9275  2.1138
  912TIP3    H224372   0.556   1.514   8.957 -0.6583  0.2270 -1.2636
  913TIP3   OH224373   1.964   6.434   1.948 -0.9245 -0.1422  0.1377
  913TIP3    H124374   1.885   6.460   1.995 -0.9231  1.8477 -0.8119
  913TIP3    H224375   2.035   6.482   1.992 -0.6887  0.3656 -0.7477
  914TIP3   OH224376   4.424   5.530   0.192  0.0750 -0.3175 -0.0894
  914TIP3    H124377   4.518   5.535   0.172  0.4769 -0.4658  1.5937
  914TIP3    H224378   4.400   5.440   0.172  0.1326 -0.1185 -1.1038
  915TIP3   OH224379   6.309   6.206   8.388 -0.1128  0.3758  0.1692
  915TIP3    H124380   6.346   6.217   8.300  0.1602  2.1530  0.4625
  915TIP3    H224381   6.264   6.289   8.405 -1.3221 -0.4521  1.1911
  916TIP3   OH224382   0.231   3.500   7.820  0.2858 -0.5565  0.0203
  916TIP3    H124383   0.162   3.505   7.754 -0.2024  0.3343  0.5746
  916TIP3    H224384   0.213   3.420   7.868  0.5356 -1.1125 -0.7914
  917TIP3   OH224385   0.815   3.967   1.821 -0.3286  0.4272  0.2778
  917TIP3    H124386   0.746   3.964   1.888 -0.8211 -0.1797 -0.2435
  917TIP3    H224387   0.896   3.976   1.871 -0.6912  0.0296  0.9603
  918TIP3   OH224388   1.031   5.636   1.796 -0.3995 -0.1337 -0.1501
  918TIP3    H124389   1.108   5.602   1.842 -0.7391 -0.7486 -0.0287
  918TIP3    H224390   1.066   5.704   1.739  0.0837  0.3956  0.7520
  919TIP3   OH224391   4.940   2.232   0.715 -0.5289  0.3960 -0.0311
  919TIP3    H124392   4.936   2.185   0.631 -1.9878 -0.6216  0.5656
  919TIP3    H224393   4.849   2.234   0.746 -0.1262  1.4326  1.1708
  920TIP3   OH224394   0.648   2.807   8.304  0.1052  0.6641  0.3724
  920TIP3    H124395   0.652   2.713   8.290  0.3415  0.5381  1.2175
  920TIP3    H224396   0.725   2.827   8.358  0.5789  1.4887 -0.5842
  921TIP3   OH224397   5.830   6.355   2.547 -0.5271 -0.1353  0.7002
  921TIP3    H124398   5.857   6.370   2.457  1.6498  1.4107  1.5084
  921TIP3    H224399   5.852   6.263   2.563 -0.5765 -0.3173 -0.2159
  922TIP3   OH224400   3.395   2.319   0.434  0.3446 -0.5395  0.0313
  922TIP3    H124401   3.307   2.284   0.447  1.4737 -2.9426  2.2168
  922TIP3    H224402   3.420   2.354   0.519  2.3975 -2.4077  0.3111
  923TIP3   OH224403   4.569   3.420   2.565  0.7051 -0.0395 -0.0192
  923TIP3    H124404   4.493   3.479   2.560  0.4097 -0.2486  1.4489
  923TIP3    H224405   4.545   3.345   2.511 -0.4559 -0.4178  0.9619
  924TIP3   OH224406   2.560   0.623   0.973 -0.3274 -0.2079 -0.0126
  924TIP3    H124407   2.550   0.562   0.900  0.3705 -0.7112  0.3049
  924TIP3    H224408   2.568   0.709   0.932  0.5902 -0.5428 -0.5633
  925TIP3   OH224409   4.438   2.083   1.037 -0.3231 -0.2301 -0.2020
  925TIP3    H124410   4.345   2.108   1.041  0.0019  0.8703  1.0856
  925TIP3    H224411   4.483   2.149   1.089  1.0622 -1.3904  0.1290
  926TIP3   OH224412   3.972   2.495   7.289 -0.2472 -0.7083  0.5780
  926TIP3    H124413   3.970   2.438   7.367 -0.5303  0.7287  1.6665
  926TIP3    H224414   3.880   2.508   7.268 -0.2205  0.2454  1.0300
  927TIP3   OH224415   1.990   6.073   1.948  0.1337 -0.4296 -0.5332
  927TIP3    H124416   2.000   5.996   1.893  0.2617 -0.7737 -0.0335
  927TIP3    H224417   1.912   6.057   2.000 -0.4884  0.2774 -1.2160
  928TIP3   OH224418   6.018   2.834   0.732 -0.6084 -0.4002  0.0823
  928TIP3    H124419   6.103   2.866   0.700 -0.8094  0.1600  0.0927
  928TIP3    H224420   6.039   2.753   0.778  0.1262  0.4146  1.2718
  929TIP3   OH224421   1.539   4.702   2.222 -0.5157  0.1365  0.3038
  929TIP3    H124422   1.450   4.737   2.230 -0.4887 -0.0118  1.5579
  929TIP3    H224423   1.528   4.608   2.231 -0.6574 -0.3784 -3.6794
  930TIP3   OH224424   5.437   5.237   0.872 -0.2168  0.2399 -0.3684
  930TIP3    H124425   5.399   5.276   0.794  1.5033 -0.3037 -1.5432
  930TIP3    H224426   5.526   5.272   0.875  0.4127 -1.2916  0.1794
  931TIP3   OH224427   2.622   5.768   8.340 -0.6586 -0.5749  0.7957
  931TIP3    H124428   2.553   5.721   8.387  1.2191 -3.1941  1.1712
  931TIP3    H224429   2.589   5.778   8.251 -1.2611 -2.5604  0.7430
  932TIP3   OH224430   2.175   0.233   1.602  0.3446  0.2453  0.4079
  932TIP3    H124431   2.196   0.165   1.539 -1.5924 -0.5986  0.6078
  932TIP3    H224432   2.224   0.310   1.572  1.4766 -0.8338 -0.6077
  933TIP3   OH224433   3.390   1.696   2.312  0.5211  0.2163  0.2632
  933TIP3    H124434   3.310   1.643   2.319  1.1602 -0.7847  0.2196
  933TIP3    H224435   3.359   1.786   2.310 -0.6571 -0.1750 -0.3377
  934TIP3   OH224436   3.049   3.840   1.707 -0.0615 -0.9895  0.5541
  934TIP3    H124437   3.108   3.780   1.661 -0.5310  0.9541 -2.8618
  934TIP3    H224438   3.088   3.926   1.696 -1.5195 -0.1232  1.7267
  935TIP3   OH224439   2.659   1.111   1.135  0.2518 -0.1379 -0.3576
  935TIP3    H124440   2.566   1.134   1.141 -0.3404 -2.0813 -1.2652
  935TIP3    H224441   2.662   1.019   1.161  1.9515 -0.0869 -0.2917
  936TIP3   OH224442   0.640   1.255   8.921 -0.1861  0.1265  0.7155
  936TIP3    H124443   0.699   1.300   8.981  0.1302 -1.3520  1.5597
  936TIP3    H224444   0.553   1.289   8.944 -0.0840 -0.4738  2.0972
  937TIP3   OH224445   5.065   2.796   2.881  0.0849 -0.0992  0.2240
  937TIP3    H124446   5.106   2.826   2.962  1.7775 -2.8456  0.4932
  937TIP3    H224447   5.118   2.835   2.811  1.7906 -1.6948  0.5545
  938TIP3   OH224448   1.880   3.574   0.065  0.5554 -0.2039 -0.1116
  938TIP3    H124449   1.800   3.561   0.115  0.7831  2.6883  1.2151
  938TIP3    H224450   1.874   3.512  -0.008 -4.0905  1.4732 -1.4727
  939TIP3   OH224451   0.501   5.673   2.065 -0.1624  0.2813  0.0410
  939TIP3    H124452   0.413   5.636   2.063 -0.0281 -0.0386 -0.1602
  939TIP3    H224453   0.513   5.709   1.977  0.9523 -2.2164 -0.9363
  940TIP3   OH224454   1.370   2.955   8.957  0.0414  0.7844 -0.3980
  940TIP3    H124455   1.304   2.999   9.011  1.5519  0.9446  1.4519
  940TIP3    H224456   1.336   2.866   8.946  0.1541  0.3739  1.8931
  941TIP3   OH224457   5.698   1.604   8.003 -0.5363  0.0305 -0.1843
  941TIP3    H124458   5.723   1.516   7.975  2.7621  0.9033 -0.4313
  941TIP3    H224459   5.743   1.662   7.942  0.1478  1.8741  1.9270
  942TIP3   OH224460   3.592   4.511   1.300  0.4582 -0.1875 -0.0450
  942TIP3    H124461   3.667   4.502   1.359  2.6479  1.5886 -2.3491
  942TIP3    H224462   3.592   4.430   1.249  2.1711  0.5878 -1.3823
  943TIP3   OH224463   1.874   2.226   2.133  0.2705 -0.4473  0.1798
  943TIP3    H124464   1.825   2.230   2.216 -0.0288 -1.9219  0.0986
  943TIP3    H224465   1.812   2.260   2.068 -0.8172 -2.5712  0.0300
  944TIP3   OH224466   5.276   3.890   2.768  0.2465 -0.6707  0.5992
  944TIP3    H124467   5.204   3.836   2.798  1.7430 -1.2380  3.4839
  944TIP3    H224468   5.282   3.961   2.832  1.9469 -0.4019  0.2128
  945TIP3   OH224469   2.138   0.769   3.408 -0.1343  0.7288 -0.1434
  945TIP3    H124470   2.057   0.718   3.404  0.8501 -0.8230 -1.5533
  945TIP3    H224471   2.114   0.848   3.457 -2.6539  0.6090 -1.0285
  946TIP3   OH224472   5.916   4.580   0.073 -0.1939 -0.7179 -0.3640
  946TIP3    H124473   5.898   4.636   0.148 -0.2834 -1.9404  0.5704
  946TIP3    H224474   5.837   4.583   0.020 -0.3170 -0.2282 -0.1546
  947TIP3   OH224475   5.832   4.413   7.980  0.1883 -0.3272  1.0517
  947TIP3    H124476   5.805   4.485   7.923  2.4615  0.9819  1.5000
  947TIP3    H224477   5.822   4.335   7.927  0.6316  0.6691 -0.5578
  948TIP3   OH224478   2.556   4.694   0.476  0.2531  0.1136 -0.5656
  948TIP3    H124479   2.608   4.651   0.544 -0.0376  0.4756 -0.1052
  948TIP3    H224480   2.559   4.787   0.499  2.3649  0.6426 -2.5320
  949TIP3   OH224481   6.487   5.780   8.720  0.2601  0.9163 -0.4106
  949TIP3    H124482   6.450   5.823   8.643  2.5189  2.2869 -0.8099
  949TIP3    H224483   6.472   5.841   8.792 -0.7426  0.1892  0.0208
  950TIP3   OH224484   4.501   0.868   8.437 -0.0932  0.1110 -0.3095
  950TIP3    H124485   4.529   0.851   8.347  0.9888  0.4128 -0.0429
  950TIP3    H224486   4.583   0.874   8.487 -0.5059  2.8210  0.1951
  951TIP3   OH224487   3.834   5.849   1.583 -0.3838 -0.7021 -0.1432
  951TIP3    H124488   3.778   5.919   1.549  1.7660  1.0824 -0.2093
  951TIP3    H224489   3.857   5.797   1.505  0.4616  0.3681 -0.6289
  952TIP3   OH224490   5.849   1.470   8.473 -0.7542  0.8062 -0.2307
  952TIP3    H124491   5.834   1.488   8.566  2.0488 -0.8064  0.6444
  952TIP3    H224492   5.850   1.375   8.466  0.5234  0.8786 -1.6155
  953TIP3   OH224493   3.546   5.662   1.838 -0.0757  0.4581 -0.0182
  953TIP3    H124494   3.506   5.606   1.905 -0.4200  1.1785  0.3931
  953TIP3    H224495   3.520   5.751   1.863 -1.8092  0.6390 -2.1541
  954TIP3   OH224496   2.932   2.434   2.439  0.4483  0.3168  0.0637
  954TIP3    H124497   2.915   2.492   2.365 -0.4564 -0.6485 -0.4926
  954TIP3    H224498   3.027   2.424   2.440  0.4294 -0.2834 -1.4588
  955TIP3   OH224499   3.276   1.266   0.044 -0.4194  0.6151 -0.6655
  955TIP3    H124500   3.215   1.300  -0.021 -1.6333 -0.7560 -0.2722
  955TIP3    H224501   3.222   1.216   0.105  0.8859  0.6767  0.6042
  956TIP3   OH224502   4.201   3.878   2.575  0.0141 -0.0790 -0.4125
  956TIP3    H124503   4.243   3.868   2.489  1.8529  0.0854  0.4095
  956TIP3    H224504   4.263   3.837   2.636 -0.5331  1.1397  1.0085
  957TIP3   OH224505   6.532   1.388   0.147 -0.4016 -0.3396  0.6176
  957TIP3    H124506   6.556   1.356   0.060  0.3952 -0.7035  0.9548
  957TIP3    H224507   6.609   1.367   0.201 -0.7621  0.1727  1.3312
  958TIP3   OH224508   3.994   6.314   0.375 -0.4580  0.6449  0.4592
  958TIP3    H124509   4.068   6.254   0.363  0.1182  1.5080 -0.5370
  958TIP3    H224510   3.976   6.312   0.469 -0.6932 -1.3408  0.4164
  959TIP3   OH224511   3.969   1.094   2.638 -0.7508 -0.2918  0.4412
  959TIP3    H124512   4.031   1.036   2.683  2.3312  0.5529 -2.3148
  959TIP3    H224513   3.975   1.067   2.546 -0.1976  3.3626 -0.7646
  960TIP3   OH224514   5.470   0.392   8.698 -0.0909 -0.2152 -0.3587
  960TIP3    H124515   5.523   0.461   8.659  0.9817 -1.9068 -2.1054
  960TIP3    H224516   5.533   0.339   8.747 -1.1187  0.7572  2.1233
  961TIP3   OH224517   3.813   5.973   1.859 -0.0625  0.2214  0.1213
  961TIP3    H124518   3.804   5.960   1.764 -1.8834  0.8496  0.1869
  961TIP3    H224519   3.908   5.973   1.873  0.2873 -2.9786 -1.2521
  962TIP3   OH224520   0.501   6.296   1.550  0.3063 -0.6448 -0.0716
  962TIP3    H124521   0.561   6.365   1.524 -0.6180  0.4378  0.5340
  962TIP3    H224522   0.555   6.231   1.593  1.1409 -0.0700 -0.2380
  963TIP3   OH224523   4.758   6.611   0.404 -0.1409  0.2376 -0.3662
  963TIP3    H124524   4.847   6.575   0.407 -0.2148  0.0889  2.4450
  963TIP3    H224525   4.770   6.705   0.419 -0.4779  0.0879  0.9540
  964TIP3   OH224526   3.178   2.009   1.751 -0.0647 -0.5385 -0.1720
  964TIP3    H124527   3.209   1.921   1.769  0.7664 -0.4722 -1.1475
  964TIP3    H224528   3.091   1.997   1.713  0.7981 -1.1077 -2.0820
  965TIP3   OH224529   6.083   5.797   3.232 -0.4916  0.1100  0.6232
  965TIP3    H124530   6.034   5.815   3.312  0.9012  1.6127  1.1857
  965TIP3    H224531   6.072   5.876   3.179 -1.2969 -0.8136 -0.6577
  966TIP3   OH224532   5.899   2.987   1.335 -0.2880  0.1249  0.2209
  966TIP3    H124533   5.832   3.055   1.339  0.2337  1.0360 -2.8830
  966TIP3    H224534   5.979   3.031   1.366 -0.2259  0.5955 -0.5477
  967TIP3   OH224535   6.077   0.693   0.598 -0.5835 -0.2414  0.3417
  967TIP3    H124536   6.020   0.616   0.609 -0.0001 -0.5402  1.3920
  967TIP3    H224537   6.165   0.657   0.599 -0.2942  0.4792  1.1661
  968TIP3   OH224538   0.562   5.527   0.032 -0.6943  0.0779 -0.6394
  968TIP3    H124539   0.543   5.555   0.121  1.8696  1.2850 -0.3948
  968TIP3    H224540   0.577   5.433   0.038 -2.8043 -0.2714 -0.2606
  969TIP3   OH224541   2.379   6.527   8.490  0.4592  0.6029 -0.1786
  969TIP3    H124542   2.371   6.473   8.568  0.8239 -0.6373 -0.9837
  969TIP3    H224543   2.442   6.595   8.514 -0.2142  0.8510  0.9331
  970TIP3   OH224544   2.852   3.209   1.906 -0.1636 -0.5095  0.3606
  970TIP3    H124545   2.945   3.232   1.902  0.3785 -2.6732 -2.0972
  970TIP3    H224546   2.843   3.162   1.989  1.6625 -2.7338 -0.5848
  971TIP3   OH224547   0.908   4.516   2.082  0.0902 -0.3339 -0.1154
  971TIP3    H124548   0.978   4.565   2.125  0.7918 -2.2860  1.1236
  971TIP3    H224549   0.917   4.427   2.116 -2.4305 -0.8668 -0.6307
  972TIP3   OH224550   0.959   4.207   8.413 -0.2194  0.1866 -0.0981
  972TIP3    H124551   0.926   4.245   8.494  0.0565 -0.0501  0.1265
  972TIP3    H224552   1.047   4.177   8.435 -0.1365  0.1380 -0.4912
  973TIP3   OH224553   1.164   4.502   0.839  0.0665  0.0522 -0.3024
  973TIP3    H124554   1.123   4.481   0.923 -0.0502 -0.9888 -0.6061
  973TIP3    H224555   1.160   4.597   0.834 -1.4508  0.0415  0.1180
  974TIP3   OH224556   3.226   4.730   1.003  0.0001 -0.7495 -0.2691
  974TIP3    H124557   3.195   4.816   0.977 -0.0343 -1.1181 -1.4903
  974TIP3    H224558   3.146   4.678   1.013  0.0905 -1.1588 -1.4770
  975TIP3   OH224559   6.453   1.540   2.477 -0.0266  0.5321  0.3402
  975TIP3    H124560   6.382   1.511   2.534 -0.4474 -2.5428 -1.4914
  975TIP3    H224561   6.530   1.544   2.534 -0.4982 -2.0402  1.2860
  976TIP3   OH224562   1.380   6.618   7.698 -0.7670  0.1848  0.1968
  976TIP3    H124563   1.440   6.624   7.624  0.3074  0.4083  1.0606
  976TIP3    H224564   1.409   6.540   7.746 -3.2750 -1.7330 -1.1398
  977TIP3   OH224565   4.462   4.238   1.755 -0.1604  0.2468  0.2752
  977TIP3    H124566   4.492   4.148   1.739 -1.0589  0.4215 -3.0042
  977TIP3    H224567   4.543   4.288   1.764  0.3649 -0.7044  1.0712
  978TIP3   OH224568   4.293   6.347   1.045  0.0852  0.4286 -0.0272
  978TIP3    H124569   4.240   6.411   1.093  1.1416 -0.0324  1.8469
  978TIP3    H224570   4.240   6.267   1.045 -1.0607  1.0899 -2.0283
  979TIP3   OH224571   4.878   5.404   8.213  0.3341  0.3355 -0.3514
  979TIP3    H124572   4.869   5.499   8.202  0.8958  0.3362 -0.8534
  979TIP3    H224573   4.871   5.389   8.307 -0.2142  0.8248 -0.3108
  980TIP3   OH224574   5.014   1.151   1.678 -0.7609 -0.0093 -0.0611
  980TIP3    H124575   5.036   1.210   1.750  1.1188 -0.6139 -0.0929
  980TIP3    H224576   4.989   1.069   1.722 -1.0685  0.0776 -0.0715
  981TIP3   OH224577   2.746   4.660   8.159 -0.0373 -0.1277 -0.6246
  981TIP3    H124578   2.836   4.645   8.129  1.1472  2.6276  1.2042
  981TIP3    H224579   2.740   4.613   8.242 -1.4526 -2.9255 -2.1398
  982TIP3   OH224580   2.917   1.850   1.937 -0.1834 -0.0623 -0.9965
  982TIP3    H124581   2.885   1.937   1.960 -1.3799 -0.2507 -1.8526
  982TIP3    H224582   2.845   1.791   1.960  0.1781 -0.7021 -1.4670
  983TIP3   OH224583   3.243   4.362   8.849 -0.3502  0.2818 -0.3818
  983TIP3    H124584   3.198   4.412   8.917 -0.1139  0.2446 -0.1994
  983TIP3    H224585   3.185   4.288   8.831 -1.7888  1.7524 -2.1969
  984TIP3   OH224586   5.810   1.802   3.213 -0.3495  0.0528 -0.7817
  984TIP3    H124587   5.792   1.892   3.243  1.2321 -0.1472  0.9313
  984TIP3    H224588   5.855   1.761   3.287  2.5879 -0.9181 -2.9406
  985TIP3   OH224589   1.078   6.687   2.132  0.2280  0.3187  0.3214
  985TIP3    H124590   0.996   6.686   2.181 -0.5704  1.4568 -0.9274
  985TIP3    H224591   1.098   6.780   2.120 -1.7775  0.3746 -4.8849
  986TIP3   OH224592   3.657   3.234   7.460  0.2659 -0.0579 -0.2379
  986TIP3    H124593   3.751   3.246   7.476  0.4055 -1.6925  0.4549
  986TIP3    H224594   3.620   3.221   7.547 -0.1830 -1.8557 -0.6580
  987TIP3   OH224595   3.002   2.433   7.413 -0.0647 -0.3453  0.1240
  987TIP3    H124596   2.949   2.364   7.373 -1.0047 -2.1946  4.0871
  987TIP3    H224597   3.074   2.387   7.455  1.5167  1.5704 -0.3344
  988TIP3   OH224598   4.016   5.913   8.332 -0.1038 -0.4141 -0.3130
  988TIP3    H124599   4.107   5.940   8.341 -0.1420 -0.9799  3.6585
  988TIP3    H224600   4.015   5.821   8.358 -1.9464  0.0215  1.4547
  989TIP3   OH224601   5.322   1.368   1.790  0.8363 -0.4115 -0.4095
  989TIP3    H124602   5.304   1.357   1.884  0.7401 -2.0044 -0.5809
  989TIP3    H224603   5.251   1.422   1.758  0.7206 -0.0709  0.3948
  990TIP3   OH224604   2.310   5.203   8.681 -0.6443  0.1137  0.6722
  990TIP3    H124605   2.363   5.280   8.659  1.6091 -0.9760  1.8552
  990TIP3    H224606   2.309   5.151   8.600 -0.9470  0.7039  0.2923
  991TIP3   OH224607   5.300   1.995   0.022  0.2495 -0.1193 -0.5782
  991TIP3    H124608   5.225   1.941  -0.005 -1.9858  2.6720 -0.3891
  991TIP3    H224609   5.261   2.068   0.069  2.9720  2.4274 -1.9862
  992TIP3   OH224610   2.773   1.978   8.621 -0.0540  0.7176 -0.2848
  992TIP3    H124611   2.818   1.992   8.538 -1.3802  1.9453 -0.8591
  992TIP3    H224612   2.685   1.950   8.596 -0.3097  0.5872  0.7204
  993TIP3   OH224613   0.638   0.413   8.247  0.8407 -0.4804  0.1354
  993TIP3    H124614   0.552   0.376   8.228  0.2234  0.3633  1.2341
  993TIP3    H224615   0.691   0.391   8.170 -0.3116 -1.1075 -0.4977
  994TIP3   OH224616   2.169   1.550   7.713 -0.1689  0.3651 -0.5688
  994TIP3    H124617   2.206   1.466   7.741 -0.1745  0.5035 -0.1371
  994TIP3    H224618   2.108   1.527   7.643 -1.4377 -0.1827  0.6681
  995TIP3   OH224619   1.557   0.979   0.769 -0.3287 -0.2035  0.2070
  995TIP3    H124620   1.555   0.887   0.795 -1.0555 -0.0528  0.7006
  995TIP3    H224621   1.582   1.026   0.848 -0.4769  0.0755  0.0873
  996TIP3   OH224622   4.667   5.243   0.775  0.3341 -0.2130 -0.1001
  996TIP3    H124623   4.589   5.277   0.819 -0.0120 -0.4518 -0.5105
  996TIP3    H224624   4.633   5.203   0.695  0.9801  0.4827 -0.7367
  997TIP3   OH224625   4.372   2.103   2.691  0.6081  0.7494 -0.2619
  997TIP3    H124626   4.375   2.198   2.680 -0.0739  0.9320  0.9523
  997TIP3    H224627   4.405   2.088   2.780 -1.3269  0.0399  0.3796
  998TIP3   OH224628   6.762   3.977   2.756  0.2781 -0.2719  0.2457
  998TIP3    H124629   6.789   4.033   2.684 -1.0633 -1.2462 -1.0792
  998TIP3    H224630   6.802   3.892   2.736  0.5315 -0.3612  1.0851
  999TIP3   OH224631   1.212   0.824   2.560  0.2807  0.3849 -0.3718
  999TIP3    H124632   1.129   0.836   2.605 -0.5972 -1.7754 -1.2962
  999TIP3    H224633   1.232   0.731   2.568  2.3080  0.7345 -0.7138
 1000TIP3   OH224634   6.398   1.674   3.154  0.0254  0.0076  0.1097
 1000TIP3    H124635   6.414   1.768   3.154  2.2049 -0.3213  0.1833
 1000TIP3    H224636   6.327   1.661   3.216  0.5858  1.4829  1.0865
 1001TIP3   OH224637   2.275   5.530   7.067 -0.8983 -0.3235 -0.2895
 1001TIP3    H124638   2.365   5.497   7.064 -0.7281  0.1460 -0.5454
 1001TIP3    H224639   2.227   5.475   7.005 -0.0303  1.5735 -2.8521
 1002TIP3   OH224640   1.275   2.353   2.432  0.1349  0.8536  0.4372
 1002TIP3    H124641   1.181   2.362   2.416 -0.2446 -2.7313 -0.2021
 1002TIP3    H224642   1.282   2.337   2.526 -0.3610 -1.9490  0.0893
 1003TIP3   OH224643   5.143   1.985   8.456 -0.4343 -0.1772  0.6516
 1003TIP3    H124644   5.161   2.021   8.369  0.3665  1.6210  1.5030
 1003TIP3    H224645   5.150   1.890   8.444 -1.1563 -0.0328 -1.4028
 1004TIP3   OH224646   2.130   6.751   0.110 -0.2975 -0.2725  0.3209
 1004TIP3    H124647   2.162   6.824   0.058  0.9154  0.2811  1.7680
 1004TIP3    H224648   2.071   6.704   0.051 -0.3635  1.3111 -0.9479
 1005TIP3   OH224649   6.186   5.233   8.366 -0.0843 -0.2920 -0.0868
 1005TIP3    H124650   6.199   5.327   8.352 -0.1450 -0.5348 -2.0902
 1005TIP3    H224651   6.101   5.214   8.328 -0.9272 -0.8779  1.9733
 1006TIP3   OH224652   4.307   3.521   2.541 -0.3411  0.3373  0.4846
 1006TIP3    H124653   4.227   3.551   2.499  1.0073  0.4049 -2.2456
 1006TIP3    H224654   4.337   3.596   2.593 -0.2907  1.5417 -1.2193
 1007TIP3   OH224655   5.910   5.050   1.433  0.2433  0.2881  0.0026
 1007TIP3    H124656   5.855   5.127   1.443  0.4759  0.2534  1.7382
 1007TIP3    H224657   5.998   5.079   1.458 -0.0433 -1.0035  2.8274
 1008TIP3   OH224658   0.560   0.088   3.657 -0.1330  0.4745  0.0639
 1008TIP3    H124659   0.531   0.155   3.595 -1.2128  0.2138  0.2647
 1008TIP3    H224660   0.655   0.093   3.654 -0.1342  0.3723 -1.7519
 1009TIP3   OH224661   1.265   3.698   1.326  1.2762 -0.1318 -0.8657
 1009TIP3    H124662   1.309   3.773   1.367  1.1666  0.1626 -1.2797
 1009TIP3    H224663   1.324   3.672   1.256  0.2405  1.0562 -2.2449
 1010TIP3   OH224664   1.619   3.796   1.294 -0.2801  0.4117  0.4419
 1010TIP3    H124665   1.626   3.719   1.351  0.5357  0.6632  0.6895
 1010TIP3    H224666   1.564   3.766   1.221  0.1728 -0.4735  0.4364
 1011TIP3   OH224667   4.134   0.668   1.284  0.4034 -0.2804 -0.0188
 1011TIP3    H124668   4.051   0.636   1.248  0.5149  0.0161 -0.5563
 1011TIP3    H224669   4.143   0.756   1.246 -0.9104  1.2953  2.9456
 1012TIP3   OH224670   1.849   5.166   0.618 -0.2253 -0.2714  0.1585
 1012TIP3    H124671   1.846   5.194   0.527  0.8577 -0.9442 -0.0969
 1012TIP3    H224672   1.917   5.100   0.621 -0.3660 -0.3886  1.4301
 1013TIP3   OH224673   3.638   5.500   7.503  0.1806  0.1938 -0.0986
 1013TIP3    H124674   3.688   5.472   7.426 -2.8314 -1.2990 -1.7117
 1013TIP3    H224675   3.562   5.545   7.466 -0.2134  1.5378  2.1672
 1014TIP3   OH224676   4.474   5.027   8.323  0.8060  0.5900  1.0136
 1014TIP3    H124677   4.525   4.967   8.269 -0.0570  0.6887  0.0412
 1014TIP3    H224678   4.524   5.109   8.322  0.9449  0.5036  0.5850
 1015TIP3   OH224679   4.085   5.974   2.582 -0.6483  0.6145  0.5264
 1015TIP3    H124680   4.090   6.064   2.549  1.7746  0.2915 -0.1471
 1015TIP3    H224681   4.129   5.977   2.667  2.1062 -0.3875 -0.7512
 1016TIP3   OH224682   3.233   3.839   0.554  0.7016  0.5923 -0.2753
 1016TIP3    H124683   3.204   3.909   0.613  0.1027  1.4241 -1.5261
 1016TIP3    H224684   3.278   3.884   0.483  1.3445 -0.4001 -0.5179
 1017TIP3   OH224685   4.310   3.822   2.323 -0.1677 -0.6682 -0.0688
 1017TIP3    H124686   4.348   3.734   2.324  0.7029 -0.3059 -0.7543
 1017TIP3    H224687   4.228   3.812   2.274 -0.9541 -1.4315  1.3277
 1018TIP3   OH224688   4.793   6.645   2.004  0.3932 -0.3782 -0.3445
 1018TIP3    H124689   4.806   6.571   2.065 -0.7402 -0.6381 -0.3879
 1018TIP3    H224690   4.857   6.710   2.031  0.4245 -0.8021  0.6463
 1019TIP3   OH224691   5.071   4.122   2.615  0.6398  0.2773 -0.1453
 1019TIP3    H124692   5.058   4.099   2.707  1.1997  0.5503  0.0069
 1019TIP3    H224693   5.012   4.196   2.600  0.3936  0.0962 -0.0607
 1020TIP3   OH224694   3.427   1.686   0.395 -0.3147 -0.5564  0.6422
 1020TIP3    H124695   3.417   1.606   0.345 -3.2158  0.1998 -0.1982
 1020TIP3    H224696   3.518   1.713   0.381 -0.3227 -1.7334 -2.1130
 1021TIP3   OH224697   4.035   1.915   0.280  0.1022 -0.5789 -0.2223
 1021TIP3    H124698   3.957   1.969   0.289  0.7941  0.7025 -1.5332
 1021TIP3    H224699   4.082   1.927   0.362 -0.9845 -1.2723  0.5320
 1022TIP3   OH224700   4.753   4.259   8.031 -0.4197  0.4049 -0.5272
 1022TIP3    H124701   4.774   4.224   8.117 -0.1642  1.0119 -0.3447
 1022TIP3    H224702   4.722   4.182   7.982 -0.5473  0.0540  0.0890
 1023TIP3   OH224703   0.132   3.550   0.322  0.2325 -0.4146  0.3778
 1023TIP3    H124704   0.191   3.489   0.368  1.0301  0.8888  1.1571
 1023TIP3    H224705   0.191   3.614   0.281 -0.6053  0.4878  0.5415
 1024TIP3   OH224706   2.624   1.330   8.535 -0.0683  0.0067 -0.1453
 1024TIP3    H124707   2.617   1.242   8.500  0.5946  0.1673 -0.6960
 1024TIP3    H224708   2.582   1.385   8.469  1.0855  0.2980 -0.6605
 1025TIP3   OH224709   2.318   1.458   7.277 -0.1729  0.5142 -0.7886
 1025TIP3    H124710   2.272   1.392   7.330 -0.8046  2.1190  0.7748
 1025TIP3    H224711   2.325   1.534   7.335 -0.4026  2.1973 -2.8466
 1026TIP3   OH224712   4.342   6.688   7.452  0.6934 -0.0607  0.0323
 1026TIP3    H124713   4.411   6.628   7.482 -0.1632  0.8355  4.4092
 1026TIP3    H224714   4.388   6.770   7.434  1.1456 -0.3864 -0.3287
 1027TIP3   OH224715   0.211   3.482   2.173 -0.5000 -0.1935  0.2895
 1027TIP3    H124716   0.252   3.396   2.175 -0.5358 -0.2863 -1.4755
 1027TIP3    H224717   0.262   3.531   2.108 -1.6005  0.5269 -0.0510
 1028TIP3   OH224718   5.259   3.685   7.758 -0.4160 -0.0170 -0.5618
 1028TIP3    H124719   5.258   3.598   7.718 -0.0746 -0.2414 -0.0937
 1028TIP3    H224720   5.201   3.678   7.834 -0.9424  0.3652 -0.9212
 1029TIP3   OH224721   3.772   1.188   1.360 -0.2150 -0.2104 -0.1598
 1029TIP3    H124722   3.778   1.277   1.324 -0.9650  0.6909  1.8457
 1029TIP3    H224723   3.824   1.135   1.299  0.9269  1.7221 -0.9785
 1030TIP3   OH224724   3.358   5.244   7.902  0.1976  0.4350 -0.2004
 1030TIP3    H124725   3.400   5.233   7.817  0.2543 -0.6987 -0.0461
 1030TIP3    H224726   3.338   5.337   7.907  0.5473  0.5870 -1.2846
 1031TIP3   OH224727   3.308   0.433   2.765  0.0554 -0.0077 -0.5076
 1031TIP3    H124728   3.223   0.404   2.797  0.0811 -1.0020 -1.2811
 1031TIP3    H224729   3.353   0.352   2.741  0.5864  0.5977 -1.6497
 1032TIP3   OH224730   6.200   5.903   1.613  0.3315 -0.0425  0.1539
 1032TIP3    H124731   6.119   5.917   1.564  1.4514 -0.7717 -2.0921
 1032TIP3    H224732   6.255   5.852   1.553  1.8443 -0.9973  2.2272
 1033TIP3   OH224733   0.565   6.632   2.862  0.6751 -0.1890 -0.0058
 1033TIP3    H124734   0.589   6.539   2.856  0.6717 -0.0831 -2.4209
 1033TIP3    H224735   0.469   6.631   2.867  0.6519 -0.3024 -0.4522
 1034TIP3   OH224736   4.534   5.963   8.286  0.0474 -0.5478 -0.0863
 1034TIP3    H124737   4.547   5.954   8.192 -0.2785 -1.2243 -0.0757
 1034TIP3    H224738   4.615   5.932   8.325  0.5778  0.6858 -0.1567
 1035TIP3   OH224739   0.335   4.700   0.745 -0.3026 -0.1690 -0.3081
 1035TIP3    H124740   0.427   4.727   0.754 -0.2262 -0.9811  1.8036
 1035TIP3    H224741   0.341   4.608   0.718 -0.5153 -0.0530 -0.7601
 1036TIP3   OH224742   5.025   6.225   1.218 -0.1736  0.1963  0.1818
 1036TIP3    H124743   5.075   6.300   1.188 -0.2612 -0.4203 -1.5821
 1036TIP3    H224744   4.943   6.263   1.251 -0.9379  0.8169 -2.2265
 1037TIP3   OH224745   6.355   1.504   3.495  0.0239  0.3832 -0.0689
 1037TIP3    H124746   6.414   1.578   3.483 -0.1539  0.9677  2.1219
 1037TIP3    H224747   6.302   1.528   3.571  0.1134 -2.0752  0.8682
 1038TIP3   OH224748   0.659   0.329   3.010 -0.4345  0.5340  0.1362
 1038TIP3    H124749   0.731   0.381   3.048  0.0734  0.2968 -0.4934
 1038TIP3    H224750   0.663   0.245   3.056  1.3113 -0.4102 -1.6270
 1039TIP3   OH224751   5.289   1.110   8.871 -0.1608  0.5896  0.1477
 1039TIP3    H124752   5.337   1.103   8.789 -0.9471 -0.2738 -0.2608
 1039TIP3    H224753   5.354   1.088   8.939  0.0059 -0.6894 -0.4013
 1040TIP3   OH224754   4.020   5.004   0.975 -0.7335 -0.2940 -0.6067
 1040TIP3    H124755   3.950   5.065   1.000 -0.6908 -0.5552  0.1797
 1040TIP3    H224756   4.092   5.024   1.034  0.4702  1.0378 -2.4449
 1041TIP3   OH224757   5.503   3.816   1.182 -0.5815 -0.3658  0.0604
 1041TIP3    H124758   5.526   3.897   1.227  0.2701 -0.9963  0.7950
 1041TIP3    H224759   5.509   3.748   1.249  0.4620 -1.2937 -0.9319
 1042TIP3   OH224760   1.169   3.818   8.886 -0.3034 -0.2366 -0.3094
 1042TIP3    H124761   1.231   3.886   8.861 -1.1552  0.6132 -0.1813
 1042TIP3    H224762   1.221   3.755   8.936  0.9798 -0.8984 -2.3592
 1043TIP3   OH224763   4.611   6.647   8.223  0.1000 -0.2571  0.0298
 1043TIP3    H124764   4.666   6.714   8.182 -0.3036  0.1923  0.2210
 1043TIP3    H224765   4.654   6.630   8.307  0.1129 -0.1235  0.0507
 1044TIP3   OH224766   3.595   1.806   2.641  0.1176 -0.0385  0.2982
 1044TIP3    H124767   3.613   1.765   2.557 -0.7928  1.6347 -0.7646
 1044TIP3    H224768   3.674   1.855   2.662 -0.2305  0.8517 -0.4104
 1045TIP3   OH224769   5.538   5.860   8.940 -0.0297 -0.7230  0.5046
 1045TIP3    H124770   5.565   5.913   9.015 -0.1261 -0.1205  0.1237
 1045TIP3    H224771   5.560   5.914   8.864 -1.1299 -0.7637  0.1384
 1046TIP3   OH224772   6.685   0.786   8.438 -0.0065 -0.1819  0.1866
 1046TIP3    H124773   6.666   0.844   8.364  1.3338  1.7458  1.2687
 1046TIP3    H224774   6.605   0.788   8.491  0.0729  0.8145  0.2796
 1047TIP3   OH224775   4.896   5.535   0.662 -0.3800  0.3854 -0.4521
 1047TIP3    H124776   4.971   5.594   0.665  0.5344 -0.5986 -2.2819
 1047TIP3    H224777   4.933   5.448   0.679 -1.1212 -0.0890 -1.1617
 1048TIP3   OH224778   2.607   2.186   2.706 -0.0920  0.8190 -0.3127
 1048TIP3    H124779   2.659   2.227   2.636  1.9794  0.0261  0.6774
 1048TIP3    H224780   2.599   2.095   2.679 -0.7727  0.8891 -0.3439
 1049TIP3   OH224781   5.252   5.000   0.077 -0.8223 -0.1156 -0.2294
 1049TIP3    H124782   5.313   5.002   0.004 -1.3260 -0.4076 -0.6628
 1049TIP3    H224783   5.267   5.083   0.123 -1.1107  0.4844 -1.1747
 1050TIP3   OH224784   6.593   2.949   2.288  0.5005  0.6552  0.1582
 1050TIP3    H124785   6.558   2.863   2.310  1.0868  0.2704 -0.3609
 1050TIP3    H224786   6.516   3.003   2.271  0.1423  0.0410 -0.2019
 1051TIP3   OH224787   3.044   2.203   7.571 -0.4634  0.0432 -0.5981
 1051TIP3    H124788   2.952   2.211   7.596 -0.3913  0.1986 -0.3822
 1051TIP3    H224789   3.091   2.259   7.632 -0.1323 -0.7328 -0.1267
 1052TIP3   OH224790   5.275   6.388   8.275  0.2081  0.4689  0.3569
 1052TIP3    H124791   5.280   6.398   8.180  1.3422  1.3917  0.4962
 1052TIP3    H224792   5.182   6.372   8.292  0.0024  0.2027 -0.9092
 1053TIP3   OH224793   1.054   4.846   1.655  0.3006 -0.0144  0.9714
 1053TIP3    H124794   1.073   4.772   1.598 -0.7575  0.6312 -0.2641
 1053TIP3    H224795   0.958   4.846   1.662  0.2965  1.1877  1.0321
 1054TIP3   OH224796   0.785   3.283   1.562 -0.6427 -0.3356  0.3264
 1054TIP3    H124797   0.860   3.303   1.618 -1.1611  2.4342  0.1520
 1054TIP3    H224798   0.715   3.340   1.595 -2.1363 -1.5222 -0.6831
 1055TIP3   OH224799   6.226   2.292   0.308 -0.1215 -0.2803 -0.6463
 1055TIP3    H124800   6.262   2.347   0.239  1.2398  1.7083  1.4655
 1055TIP3    H224801   6.290   2.222   0.318  0.4601  0.2695 -0.4363
 1056TIP3   OH224802   2.846   2.731   1.521 -0.1422  0.7443  0.1873
 1056TIP3    H124803   2.906   2.799   1.492  0.9803 -0.4979 -0.4792
 1056TIP3    H224804   2.762   2.754   1.481  0.0659  2.0501  0.4681
 1057TIP3   OH224805   1.525   0.879   2.418 -0.4226  0.4820  0.2412
 1057TIP3    H124806   1.491   0.840   2.337  0.4295 -1.0000  0.5614
 1057TIP3    H224807   1.542   0.804   2.475 -0.4115  1.4653  1.5661
 1058TIP3   OH224808   4.152   2.894   8.205 -0.7303 -0.3232 -0.4056
 1058TIP3    H124809   4.166   2.903   8.300 -2.3254  3.0099 -0.3437
 1058TIP3    H224810   4.058   2.883   8.196 -0.6015 -0.5006 -1.6397
 1059TIP3   OH224811   6.503   3.705   0.243 -0.2973  0.1017  0.3141
 1059TIP3    H124812   6.550   3.657   0.174  0.4098  0.6872  0.3776
 1059TIP3    H224813   6.465   3.781   0.198 -1.6967 -0.6634  0.1480
 1060TIP3   OH224814   4.800   4.722   8.538  0.5081 -0.7459  0.2209
 1060TIP3    H124815   4.858   4.751   8.468  0.8885  1.2112  1.2940
 1060TIP3    H224816   4.855   4.667   8.594  2.1803  2.8706  2.4826
 1061TIP3   OH224817   5.844   6.087   8.351  0.4512  0.1081 -0.1811
 1061TIP3    H124818   5.875   6.054   8.435 -1.3063 -1.8041 -0.1967
 1061TIP3    H224819   5.904   6.049   8.287  1.4035  1.0361  0.1496
 1062TIP3   OH224820   5.143   6.608   1.999  0.3781  0.6147  0.5881
 1062TIP3    H124821   5.132   6.532   2.056 -0.4495 -0.1007 -0.5066
 1062TIP3    H224822   5.232   6.639   2.018  2.0149 -2.5475 -1.2099
 1063TIP3   OH224823   2.057   0.159   1.211 -0.7177 -0.6951  0.7824
 1063TIP3    H124824   2.046   0.133   1.120  0.9098 -1.2517  0.7243
 1063TIP3    H224825   2.123   0.228   1.209 -0.2021 -1.1430  1.5829
 1064TIP3   OH224826   3.658   3.691   8.329  0.0895 -0.3549  0.3999
 1064TIP3    H124827   3.690   3.774   8.362 -0.9577  0.1908  0.0937
 1064TIP3    H224828   3.593   3.663   8.393 -0.2486 -0.4617  0.0195
 1065TIP3   OH224829   0.301   2.209   1.313 -0.3526 -0.4734 -0.1714
 1065TIP3    H124830   0.386   2.227   1.272  0.4621 -1.9285  0.7873
 1065TIP3    H224831   0.305   2.254   1.397  0.0447 -1.6069  0.4491
 1066TIP3   OH224832   2.766   6.639   2.373  0.2096 -0.2783  0.5252
 1066TIP3    H124833   2.690   6.581   2.369 -1.4757  1.8846 -0.5024
 1066TIP3    H224834   2.816   6.618   2.294 -0.7362  0.0558 -0.1902
 1067TIP3   OH224835   3.636   4.880   0.770 -0.2899  0.3802 -0.3639
 1067TIP3    H124836   3.585   4.921   0.839 -1.9732  0.3545 -1.5200
 1067TIP3    H224837   3.591   4.797   0.753 -1.1482  1.2202 -2.7579
 1068TIP3   OH224838   4.482   5.729   2.235 -0.5929  0.2871  0.3767
 1068TIP3    H124839   4.477   5.764   2.146 -0.5797  1.7482  0.9172
 1068TIP3    H224840   4.532   5.648   2.227  0.3202  0.9494 -0.7975
 1069TIP3   OH224841   0.172   5.143   8.762  0.1032  0.5599  0.0734
 1069TIP3    H124842   0.091   5.141   8.813 -0.9160  0.7314 -1.4857
 1069TIP3    H224843   0.180   5.054   8.726  1.8636 -0.1682  2.0081
 1070TIP3   OH224844   6.023   0.599   1.893  0.3328 -0.1483  0.0136
 1070TIP3    H124845   5.978   0.667   1.943 -0.4520  0.5738 -1.5983
 1070TIP3    H224846   6.102   0.579   1.944 -1.5122 -1.1087  2.6834
 1071TIP3   OH224847   4.054   2.645   7.904  0.8579 -0.0601  0.2469
 1071TIP3    H124848   3.992   2.715   7.926  1.0374  0.2665 -0.2727
 1071TIP3    H224849   3.999   2.572   7.878  0.6900  0.2845 -0.3806
 1072TIP3   OH224850   1.418   0.429   2.439 -0.0601  0.2375 -0.0895
 1072TIP3    H124851   1.355   0.415   2.509 -0.2347  1.4426  0.0145
 1072TIP3    H224852   1.463   0.345   2.430 -0.0540  0.0451  1.4495
 1073TIP3   OH224853   0.384   2.597   2.695  0.1963 -0.3667  0.8441
 1073TIP3    H124854   0.317   2.618   2.760 -0.1488  0.7641  0.1645
 1073TIP3    H224855   0.335   2.583   2.614  0.7802  1.0132  0.2152
 1074TIP3   OH224856   1.113   3.510   1.461  0.2013 -0.8241  0.5097
 1074TIP3    H124857   1.185   3.549   1.411  0.7691  0.9382  2.5727
 1074TIP3    H224858   1.147   3.500   1.550 -0.8917 -3.5292  0.7383
 1075TIP3   OH224859   1.730   6.243   1.898  0.1605 -0.8251 -0.3190
 1075TIP3    H124860   1.667   6.273   1.965  1.3821  0.2982  0.3755
 1075TIP3    H224861   1.739   6.149   1.915 -0.6343 -0.8283  0.1652
 1076TIP3   OH224862   1.791   5.857   1.774  0.0742 -0.4927 -0.5366
 1076TIP3    H124863   1.846   5.780   1.793  0.1013 -0.4037 -0.2367
 1076TIP3    H224864   1.725   5.857   1.844  0.5818  0.2258 -0.0298
 1077TIP3   OH224865   4.524   5.519   7.559  0.4881 -0.0489 -0.5612
 1077TIP3    H124866   4.431   5.541   7.564  0.2460 -0.9715 -0.7457
 1077TIP3    H224867   4.527   5.425   7.577  1.4767  0.1267  0.3381
 1078TIP3   OH224868   3.771   2.014   2.419 -0.3166  0.5023 -0.7862
 1078TIP3    H124869   3.819   2.053   2.346  2.4841  0.0915  0.7283
 1078TIP3    H224870   3.835   1.962   2.466 -2.4853 -0.8515  0.8956
 1079TIP3   OH224871   4.498   5.256   7.650 -0.0784 -0.2948 -0.1219
 1079TIP3    H124872   4.430   5.191   7.632  0.2035 -1.0725  1.4806
 1079TIP3    H224873   4.579   5.214   7.624 -0.0604  0.0927 -0.7062
 1080TIP3   OH224874   3.478   3.649   1.921 -0.3393  0.0689  0.1093
 1080TIP3    H124875   3.572   3.656   1.903 -0.8681  0.5299 -3.1593
 1080TIP3    H224876   3.460   3.722   1.981  1.1621  0.9272 -0.4134
 1081TIP3   OH224877   3.668   1.513   0.676 -0.1208  0.1796  0.1860
 1081TIP3    H124878   3.591   1.519   0.734 -0.0246  1.8153  0.1997
 1081TIP3    H224879   3.638   1.459   0.603 -0.9443 -0.0861  0.6934
 1082TIP3   OH224880   4.433   6.662   8.851 -0.1132 -0.1330  0.3904
 1082TIP3    H124881   4.430   6.743   8.902 -1.1862 -0.6628  1.2058
 1082TIP3    H224882   4.420   6.691   8.760 -0.0814  0.6391  0.6224
 1083TIP3   OH224883   3.669   1.049   1.029  1.2372 -0.1399 -0.0190
 1083TIP3    H124884   3.614   0.971   1.020 -1.0546  1.3132  0.5900
 1083TIP3    H224885   3.749   1.017   1.070 -0.8864 -1.7760  3.2809
 1084TIP3   OH224886   0.826   0.655   0.450  0.2602  0.5798 -0.2892
 1084TIP3    H124887   0.802   0.578   0.502  0.7227  0.9315  0.4592
 1084TIP3    H224888   0.921   0.651   0.444  0.2736  1.0003 -0.3925
 1085TIP3   OH224889   6.349   4.358   1.747 -0.0478  0.4515  0.1637
 1085TIP3    H124890   6.431   4.308   1.758  0.2171  0.6258 -0.9484
 1085TIP3    H224891   6.352   4.389   1.657 -0.4999  1.9788  0.6484
 1086TIP3   OH224892   0.279   5.961   8.949 -0.2346  0.3401 -0.2974
 1086TIP3    H124893   0.364   6.005   8.939 -0.4504  0.5472 -1.3548
 1086TIP3    H224894   0.301   5.872   8.976  0.2765  0.6242  0.2641
 1087TIP3   OH224895   4.184   1.989   0.503 -0.4343  0.1859  0.0144
 1087TIP3    H124896   4.268   2.012   0.543  0.8585 -2.3331 -1.0119
 1087TIP3    H224897   4.135   1.947   0.573  0.0082 -0.2004  0.0941
 1088TIP3   OH224898   0.962   3.923   0.471  0.7091 -0.6136  0.4671
 1088TIP3    H124899   0.967   3.835   0.509  1.4717 -1.1950 -0.9329
 1088TIP3    H224900   0.968   3.909   0.377  0.1775  0.9011  0.1809
 1089TIP3   OH224901   1.050   4.522   1.858 -0.2558 -0.5154 -0.3086
 1089TIP3    H124902   0.998   4.490   1.784 -0.4755  0.9038 -0.7948
 1089TIP3    H224903   0.987   4.526   1.930 -0.7232  0.6065 -0.7412
 1090TIP3   OH224904   3.243   1.307   3.664 -0.1852 -0.2156  0.2282
 1090TIP3    H124905   3.178   1.352   3.718 -0.4759 -1.0667  0.5957
 1090TIP3    H224906   3.224   1.214   3.675  2.0726 -0.6030  1.6391
 1091TIP3   OH224907   4.286   3.885   8.902  1.0463 -0.9095 -0.4783
 1091TIP3    H124908   4.285   3.820   8.973 -1.3121 -0.0718  0.3328
 1091TIP3    H224909   4.325   3.963   8.942 -3.2555  0.7018  1.1841
 1092TIP3   OH224910   1.442   1.546   0.352  0.2918  0.6934  0.4175
 1092TIP3    H124911   1.448   1.621   0.291 -0.3725  0.8044  0.4808
 1092TIP3    H224912   1.349   1.524   0.353  0.2244  0.9996  1.7685
 1093TIP3   OH224913   2.703   6.153   0.591 -0.1909  0.1531 -0.6856
 1093TIP3    H124914   2.683   6.125   0.681 -1.3563 -1.1618 -1.3092
 1093TIP3    H224915   2.665   6.241   0.584  2.9064  1.8238  1.0958
 1094TIP3   OH224916   4.361   4.188   0.485 -0.4470  0.4596  1.0059
 1094TIP3    H124917   4.424   4.132   0.531  1.2788  0.1940 -1.4602
 1094TIP3    H224918   4.404   4.273   0.479  0.1403  0.0623 -1.4036
 1095TIP3   OH224919   5.489   1.965   7.545  0.1488  0.0744  0.4007
 1095TIP3    H124920   5.452   1.887   7.502  0.7491 -0.0807  0.1499
 1095TIP3    H224921   5.573   1.934   7.581 -0.1401  0.3218  1.2890
 1096TIP3   OH224922   6.251   2.467   3.043  0.4459 -0.3096  0.1319
 1096TIP3    H124923   6.335   2.463   3.090 -0.0643  1.4689  1.2943
 1096TIP3    H224924   6.242   2.558   3.017 -1.3242 -0.3649  0.4179
 1097TIP3   OH224925   3.331   2.910   1.029 -0.4679  0.0957 -0.9275
 1097TIP3    H124926   3.289   2.851   1.092  0.6865 -1.0623 -1.2041
 1097TIP3    H224927   3.324   2.864   0.945  2.3495 -0.7295 -0.7921
 1098TIP3   OH224928   3.408   6.356   3.530  0.3587 -0.2617  0.5022
 1098TIP3    H124929   3.336   6.396   3.482  0.5088 -0.5154  0.0641
 1098TIP3    H224930   3.451   6.428   3.575  0.5277  0.0443 -0.1479
 1099TIP3   OH224931   0.512   4.304   0.156  0.1823  0.0469  0.4238
 1099TIP3    H124932   0.460   4.249   0.097 -0.7850  0.4955  0.8323
 1099TIP3    H224933   0.508   4.260   0.241  0.3545  0.1554  0.4899
 1100TIP3   OH224934   1.569   4.643   1.893 -0.4063 -0.0010  0.2359
 1100TIP3    H124935   1.534   4.632   1.805 -0.0645 -1.6967  0.2728
 1100TIP3    H224936   1.655   4.683   1.880 -0.9278  1.0290 -0.0910
 1101TIP3   OH224937   1.394   2.036   2.775  0.2104 -0.3979 -0.1667
 1101TIP3    H124938   1.357   1.961   2.822 -0.0458 -0.5273 -0.5680
 1101TIP3    H224939   1.318   2.079   2.735  0.1283  1.1111  1.5106
 1102TIP3   OH224940   2.032   0.849   8.589 -0.0649  0.2783 -0.5950
 1102TIP3    H124941   2.039   0.755   8.572 -2.2021  0.3885 -2.5841
 1102TIP3    H224942   1.992   0.885   8.510 -0.1194  2.7457  0.4583
 1103TIP3   OH224943   4.198   0.392   8.494 -0.4791 -0.6228 -0.1645
 1103TIP3    H124944   4.270   0.445   8.460 -1.3608 -0.9805 -2.7723
 1103TIP3    H224945   4.176   0.433   8.578  1.7349  0.3982 -0.0034
 1104TIP3   OH224946   1.866   1.338   0.820  0.1383  0.2743  0.1568
 1104TIP3    H124947   1.853   1.272   0.752 -1.0545 -1.5487  2.0127
 1104TIP3    H224948   1.954   1.320   0.855  0.3477  0.5666 -0.2055
 1105TIP3   OH224949   0.891   0.741   2.955 -0.0675  0.2887  0.0117
 1105TIP3    H124950   0.944   0.663   2.969  3.1473  2.2516 -0.3910
 1105TIP3    H224951   0.896   0.758   2.860  0.0885  1.5037  0.2183
 1106TIP3   OH224952   5.994   5.627   1.596 -0.4550  0.2365  0.3054
 1106TIP3    H124953   6.003   5.655   1.687  0.1708 -0.0584  0.3469
 1106TIP3    H224954   5.940   5.548   1.600 -0.0345 -0.0499  0.4835
 1107TIP3   OH224955   5.766   0.391   0.619 -0.4273  0.1787  0.0763
 1107TIP3    H124956   5.774   0.441   0.700 -2.0396  1.1087 -0.2997
 1107TIP3    H224957   5.757   0.457   0.551  2.0096 -0.5467 -1.0793
 1108TIP3   OH224958   4.222   6.166   0.391 -1.0403  0.6931  0.0738
 1108TIP3    H124959   4.291   6.131   0.334 -1.1252 -1.1481  1.0132
 1108TIP3    H224960   4.267   6.189   0.472 -1.4323 -0.1531  0.5521
 1109TIP3   OH224961   0.912   6.070   0.459  0.1869 -0.1995  0.1439
 1109TIP3    H124962   0.990   6.112   0.423 -0.2597  0.3130 -0.2722
 1109TIP3    H224963   0.853   6.143   0.478  0.8204 -0.3328  3.0600
 1110TIP3   OH224964   1.130   5.652   2.659  0.5966  0.0574  0.1457
 1110TIP3    H124965   1.043   5.646   2.698  0.3545 -0.1644 -0.4162
 1110TIP3    H224966   1.188   5.610   2.723  0.0997 -0.9607 -0.0574
 1111TIP3   OH224967   1.444   4.561   0.920  0.2607 -0.0209  0.4734
 1111TIP3    H124968   1.399   4.583   1.001 -0.5220  0.1776 -0.0108
 1111TIP3    H224969   1.431   4.467   0.910  0.0133  0.0266  0.3633
 1112TIP3   OH224970   0.105   3.649   1.809  0.3773 -0.0232 -0.1149
 1112TIP3    H124971   0.059   3.579   1.763  0.1334 -0.3991  0.6873
 1112TIP3    H224972   0.187   3.659   1.761  0.1085 -0.3737 -0.6577
 1113TIP3   OH224973   0.051   3.855   0.952  0.0227  0.6145 -0.3387
 1113TIP3    H124974   0.140   3.885   0.969  0.6601 -1.1206 -0.3931
 1113TIP3    H224975   0.001   3.883   1.029  1.2150 -0.6204  0.9494
 1114TIP3   OH224976   4.505   5.983   0.945  0.2729  0.2068  0.7297
 1114TIP3    H124977   4.597   6.011   0.942 -0.2870  2.4158  1.8553
 1114TIP3    H224978   4.482   5.970   0.853  1.4472  0.6004  0.3505
 1115TIP3   OH224979   4.007   1.568   8.549  0.0476  0.0966 -1.0829
 1115TIP3    H124980   4.026   1.654   8.587 -0.3930 -0.5054  0.5954
 1115TIP3    H224981   3.935   1.584   8.488  0.5532  1.0580 -1.4444
 1116TIP3   OH224982   5.406   0.532   0.034  0.0690 -0.6652  0.1307
 1116TIP3    H124983   5.342   0.548  -0.036  0.0003 -0.8157  0.1567
 1116TIP3    H224984   5.482   0.496  -0.012 -0.3775 -1.8049  0.2428
 1117TIP3   OH224985   3.666   6.086   7.670 -0.0445 -0.0457 -0.2052
 1117TIP3    H124986   3.727   6.103   7.742 -0.7124 -0.3878  0.4530
 1117TIP3    H224987   3.707   6.128   7.594 -0.0412  1.6143  0.6683
 1118TIP3   OH224988   5.376   0.066   8.277 -0.2375  0.0349  0.1190
 1118TIP3    H124989   5.356   0.011   8.353  0.5271  0.9723  1.0449
 1118TIP3    H224990   5.357   0.155   8.307 -0.2990  0.3897 -0.9335
 1119TIP3   OH224991   3.712   4.095   0.905  0.4333 -0.2775  0.1249
 1119TIP3    H124992   3.793   4.144   0.904  1.3900 -1.7582  1.0459
 1119TIP3    H224993   3.665   4.123   0.826  2.9066 -1.1225 -1.7513
 1120TIP3   OH224994   3.020   1.411   8.463  0.0283  0.2619 -0.4523
 1120TIP3    H124995   2.996   1.424   8.371  0.4551 -0.1270 -0.6197
 1120TIP3    H224996   2.949   1.454   8.511 -0.1889  0.4924 -0.9585
 1121TIP3   OH224997   1.005   0.381   0.203 -0.2372 -0.1692  0.0869
 1121TIP3    H124998   0.991   0.342   0.116 -0.5176 -1.2333  0.5896
 1121TIP3    H224999   0.923   0.365   0.250 -0.5939  1.5879  0.1351
 1122TIP3   OH225000   2.072   4.976   7.386 -0.2128  0.3083 -0.0189
 1122TIP3    H125001   2.138   4.909   7.402 -0.7179 -0.2042 -0.0575
 1122TIP3    H225002   2.002   4.956   7.449 -1.9374 -1.3420 -2.3150
 1123TIP3   OH225003   4.080   1.801   2.029 -0.0737  0.5284  0.0199
 1123TIP3    H125004   3.988   1.782   2.049  0.0218  0.0097 -0.0063
 1123TIP3    H225005   4.124   1.797   2.114  0.1422 -0.5506 -0.1272
 1124TIP3   OH225006   6.728   5.686   2.947  0.3050 -0.8762  0.3208
 1124TIP3    H125007   6.815   5.649   2.963  2.0746  2.2499 -1.1572
 1124TIP3    H225008   6.728   5.769   2.996 -1.2877 -0.1292 -0.8685
 1125TIP3   OH225009   6.574   1.840   7.977  0.3965  0.1776 -0.2924
 1125TIP3    H125010   6.488   1.804   7.957 -0.0902  0.1792  1.6849
 1125TIP3    H225011   6.602   1.881   7.894 -1.6804  0.5853 -0.8508
 1126TIP3   OH225012   4.970   1.892   7.500  0.3439 -0.0357  0.1316
 1126TIP3    H125013   5.045   1.951   7.502  0.1272  0.2635  2.1000
 1126TIP3    H225014   4.977   1.842   7.582 -0.8373 -1.0012 -0.3200
 1127TIP3   OH225015   2.851   5.083   3.157  0.0879 -0.7055 -0.0802
 1127TIP3    H125016   2.886   5.088   3.069 -0.2198  1.6449 -0.1523
 1127TIP3    H225017   2.914   5.029   3.206  1.2758 -0.4534 -1.2883
 1128TIP3   OH225018   1.442   6.206   0.780  0.1210  0.1801 -0.9361
 1128TIP3    H125019   1.417   6.188   0.689  0.7073 -0.5622 -0.9652
 1128TIP3    H225020   1.479   6.123   0.811 -0.8910  0.1584  0.2698
 1129TIP3   OH225021   1.384   5.290   0.307 -0.6078  0.1291  0.4356
 1129TIP3    H125022   1.375   5.384   0.318  0.2849  0.4728 -1.3122
 1129TIP3    H225023   1.478   5.274   0.312 -0.5888 -0.3676 -1.0451
 1130TIP3   OH225024   5.825   4.195   7.803  0.2901  0.0157  0.1916
 1130TIP3    H125025   5.846   4.104   7.783  0.4803  0.0036  0.4451
 1130TIP3    H225026   5.844   4.243   7.723  0.5659 -0.1092  0.1839
 1131TIP3   OH225027   6.140   1.669   3.290  0.1087  0.0113  0.0670
 1131TIP3    H125028   6.149   1.573   3.282 -0.8801 -0.0062 -1.1937
 1131TIP3    H225029   6.056   1.682   3.333 -0.1776  0.3078 -0.5658
 1132TIP3   OH225030   2.659   1.054   1.451  0.4554 -0.8202  0.2486
 1132TIP3    H125031   2.715   1.117   1.406 -0.6924  2.2665  2.7813
 1132TIP3    H225032   2.708   0.972   1.446  3.3512  0.8017 -0.9762
 1133TIP3   OH225033   0.992   2.809   0.404 -0.0197  0.3482  0.0065
 1133TIP3    H125034   1.065   2.870   0.417 -0.1642  0.9172 -1.6813
 1133TIP3    H225035   1.033   2.723   0.405  0.0379  0.2389  3.6790
 1134TIP3   OH225036   3.250   5.580   8.617  0.5500 -0.4367 -0.1315
 1134TIP3    H125037   3.285   5.501   8.576  0.8531 -1.2248  1.5844
 1134TIP3    H225038   3.294   5.585   8.702 -2.2104 -0.5053  1.3899
 1135TIP3   OH225039   2.808   2.714   0.915  0.3901 -0.4328 -0.0533
 1135TIP3    H125040   2.721   2.677   0.928  0.6837 -0.6210  1.6683
 1135TIP3    H225041   2.840   2.674   0.834 -0.9964 -0.5573 -0.5641
 1136TIP3   OH225042   6.356   6.173   8.892 -0.3246  0.4925 -0.0252
 1136TIP3    H125043   6.368   6.209   8.804 -0.0754 -1.3139 -0.7693
 1136TIP3    H225044   6.400   6.236   8.950  1.6278  0.5096 -1.4350
 1137TIP3   OH225045   0.415   0.863   1.861  0.1428  0.0147 -0.3471
 1137TIP3    H125046   0.396   0.804   1.788 -0.3205  0.3289 -0.4887
 1137TIP3    H225047   0.490   0.824   1.905 -0.8904 -1.3315  0.2831
 1138TIP3   OH225048   2.895   1.668   8.002 -0.2244 -0.2006  0.3772
 1138TIP3    H125049   2.985   1.668   7.972 -0.5837 -1.5221 -0.8616
 1138TIP3    H225050   2.856   1.747   7.964  0.1534 -0.1952 -0.0034
 1139TIP3   OH225051   5.125   4.002   2.170 -0.8397  0.1159 -0.0066
 1139TIP3    H125052   5.147   3.988   2.262  1.1799  1.1936 -0.2673
 1139TIP3    H225053   5.086   4.089   2.168 -1.0927  0.0000 -0.1514
 1140TIP3   OH225054   5.069   5.016   8.193  0.4345 -0.2903 -0.6029
 1140TIP3    H125055   4.976   4.996   8.181 -0.8131  3.7991  0.4338
 1140TIP3    H225056   5.074   5.051   8.282  2.7412  0.7295 -1.0705
 1141TIP3   OH225057   4.104   5.420   0.520 -0.2460 -0.2572 -1.0062
 1141TIP3    H125058   4.200   5.419   0.518 -0.0006  0.1512  2.8235
 1141TIP3    H225059   4.078   5.332   0.492  1.6475 -2.2597  2.8047
 1142TIP3   OH225060   3.217   1.944   8.966  0.0111  0.0610 -0.5329
 1142TIP3    H125061   3.167   1.951   9.046  0.1360  0.1530 -0.4634
 1142TIP3    H225062   3.153   1.952   8.896  0.0599  1.1848 -0.4577
 1143TIP3   OH225063   2.381   6.327   1.932 -0.2653  0.0920 -0.3605
 1143TIP3    H125064   2.464   6.374   1.937 -0.6797  0.9696 -1.3007
 1143TIP3    H225065   2.323   6.374   1.991 -0.9991  1.5213 -2.1155
 1144TIP3   OH225066   5.055   6.085   7.673 -0.0035  0.5090 -0.7225
 1144TIP3    H125067   4.962   6.067   7.657  0.2395 -1.6383  0.0181
 1144TIP3    H225068   5.096   6.076   7.587 -0.1703 -0.9043 -0.6767
 1145TIP3   OH225069   4.575   1.469   1.699 -0.0789 -0.3262 -0.0104
 1145TIP3    H125070   4.543   1.432   1.781  0.8891 -0.4098  0.3492
 1145TIP3    H225071   4.552   1.562   1.704 -1.4868 -0.6294 -0.3998
 1146TIP3   OH225072   2.401   5.275   8.353  0.1662  0.0585 -0.0209
 1146TIP3    H125073   2.422   5.327   8.276 -1.1179 -1.5938 -1.5651
 1146TIP3    H225074   2.331   5.324   8.397  0.6596  0.8234 -0.0650
 1147TIP3   OH225075   1.388   3.089   7.918  1.2375 -0.0916  0.8004
 1147TIP3    H125076   1.420   3.017   7.863 -0.3605  0.0423 -0.3636
 1147TIP3    H225077   1.416   3.168   7.872  0.3470  0.0206  0.4333
 1148TIP3   OH225078   2.497   5.098   1.016  0.4779 -0.3246  0.3754
 1148TIP3    H125079   2.517   5.046   0.938 -0.6031 -0.0641 -0.0888
 1148TIP3    H225080   2.561   5.069   1.081  0.8182 -1.1938 -0.3315
 1149TIP3   OH225081   4.585   4.405   2.365 -0.5068 -0.0232 -0.0596
 1149TIP3    H125082   4.609   4.395   2.457  0.9788  1.7431 -0.2006
 1149TIP3    H225083   4.490   4.417   2.366 -0.4215  0.7299  1.3329
 1150TIP3   OH225084   4.051   0.751   0.477 -0.2628 -0.1207 -0.0537
 1150TIP3    H125085   4.075   0.843   0.485  0.3470 -0.2883  0.0810
 1150TIP3    H225086   4.131   0.708   0.446 -0.8974 -0.4059 -1.3623
 1151TIP3   OH225087   5.151   1.722   8.406  0.1946  0.0285  0.0793
 1151TIP3    H125088   5.165   1.707   8.312 -1.7379 -0.1247 -0.2219
 1151TIP3    H225089   5.086   1.656   8.431 -2.1370  2.3789  0.6343
 1152TIP3   OH225090   3.514   2.889   2.196  0.0851  0.3988 -0.0401
 1152TIP3    H125091   3.493   2.897   2.289  1.2003  1.1281  0.1806
 1152TIP3    H225092   3.574   2.962   2.179 -0.2926  0.4291 -1.3966
 1153TIP3   OH225093   1.962   5.370   7.908 -0.1085  0.0091  0.2516
 1153TIP3    H125094   1.881   5.379   7.958 -0.5594  1.2645 -0.6527
 1153TIP3    H225095   2.024   5.333   7.971 -1.6564 -2.1102  0.6436
 1154TIP3   OH225096   2.303   0.629   2.848 -0.2742 -0.7905 -0.2754
 1154TIP3    H125097   2.235   0.634   2.782  0.3443 -0.6892 -0.9131
 1154TIP3    H225098   2.257   0.641   2.931 -1.1259 -1.4272 -0.6468
 1155TIP3   OH225099   2.500   1.162   1.680 -0.0622 -0.0253  0.3189
 1155TIP3    H125100   2.558   1.104   1.631 -0.6948  0.4050 -0.9925
 1155TIP3    H225101   2.543   1.248   1.677  0.1776 -0.1124  1.0338
 1156TIP3   OH225102   1.961   4.234   1.716 -0.2134  0.4990  0.2161
 1156TIP3    H125103   2.042   4.238   1.665 -0.7900  1.6569 -0.6472
 1156TIP3    H225104   1.977   4.291   1.791  0.2942 -0.4501  0.8387
 1157TIP3   OH225105   3.513   2.878   8.090 -0.6684  0.5426  0.7663
 1157TIP3    H125106   3.567   2.814   8.136 -0.5736 -1.4103 -1.8695
 1157TIP3    H225107   3.467   2.924   8.160  1.9825  0.1456  2.9491
 1158TIP3   OH225108   1.707   3.583   2.736  0.3010  0.4753  0.3584
 1158TIP3    H125109   1.631   3.638   2.751 -2.5147 -2.9708  0.1363
 1158TIP3    H225110   1.716   3.531   2.816  3.0112  1.2651  0.6866
 1159TIP3   OH225111   5.615   6.034   8.745  0.7936  0.1918  0.4265
 1159TIP3    H125112   5.556   6.009   8.674  2.1709  0.7371 -0.9738
 1159TIP3    H225113   5.702   6.011   8.713  1.5639  1.5152  1.4522
 1160TIP3   OH225114   5.004   6.056   8.445  0.2746 -0.1709  0.2478
 1160TIP3    H125115   5.030   6.109   8.520  1.4868  0.4550 -0.5826
 1160TIP3    H225116   5.041   6.102   8.370 -0.0406 -1.3362 -0.6388
 1161TIP3   OH225117   0.123   5.010   1.784 -0.5500  0.2001  0.4313
 1161TIP3    H125118   0.062   5.084   1.782 -1.1242 -0.2775 -0.1043
 1161TIP3    H225119   0.072   4.937   1.819 -0.2751 -0.1893  0.0410
 1162TIP3   OH225120   6.225   1.258   8.649 -0.2654 -0.0565 -0.6594
 1162TIP3    H125121   6.285   1.319   8.691 -0.1798 -1.5259  1.4907
 1162TIP3    H225122   6.259   1.249   8.559  1.4258  0.7914 -0.1434
 1163TIP3   OH225123   3.956   0.439   3.676 -1.1175  0.0657 -0.8375
 1163TIP3    H125124   3.879   0.469   3.725 -2.0211 -0.2003 -2.0733
 1163TIP3    H225125   4.020   0.419   3.744 -2.0146  0.6139  0.2059
 1164TIP3   OH225126   4.855   5.372   8.509  0.4281  0.1336  0.7432
 1164TIP3    H125127   4.916   5.445   8.492  0.7210 -0.2629  0.0544
 1164TIP3    H225128   4.844   5.373   8.604  0.3629  1.1312  0.7444
 1165TIP3   OH225129   4.956   3.295   3.222  0.3179  0.1377  0.3317
 1165TIP3    H125130   4.861   3.290   3.213 -0.0607 -0.2270  3.4052
 1165TIP3    H225131   4.977   3.387   3.205 -0.5498  0.2225 -0.3806
 1166TIP3   OH225132   4.125   4.258   8.784  0.0533  0.3927  0.4863
 1166TIP3    H125133   4.186   4.319   8.827  0.4734 -0.6035  1.3361
 1166TIP3    H225134   4.043   4.268   8.833  0.5790 -0.8655  1.6887
 1167TIP3   OH225135   2.323   2.998   7.942 -0.2707 -0.0941 -0.0673
 1167TIP3    H125136   2.377   2.947   8.002 -0.1359  0.5512  0.3801
 1167TIP3    H225137   2.259   2.936   7.907  0.2520 -0.6864  0.0180
 1168TIP3   OH225138   2.405   6.673   8.265 -0.1810 -0.1360 -0.6709
 1168TIP3    H125139   2.497   6.666   8.240 -0.0374  0.3359 -0.2781
 1168TIP3    H225140   2.388   6.595   8.319  0.1314  0.0596 -0.2905
 1169TIP3   OH225141   2.792   2.501   2.218  0.3469  0.0162 -0.1105
 1169TIP3    H125142   2.711   2.541   2.251 -0.9862 -0.9289 -1.9807
 1169TIP3    H225143   2.813   2.551   2.139  0.5598 -0.8490 -0.6159
 1170TIP3   OH225144   3.922   4.354   8.135 -0.5614  0.8442 -0.0120
 1170TIP3    H125145   3.837   4.386   8.105 -0.3282  0.5814 -0.9699
 1170TIP3    H225146   3.970   4.333   8.055 -0.6580 -1.7865  0.5382
 1171TIP3   OH225147   6.386   2.914   2.721 -0.2167 -0.4972 -0.3483
 1171TIP3    H125148   6.414   2.877   2.805  1.1866 -1.5856 -1.2621
 1171TIP3    H225149   6.310   2.862   2.696  0.3909 -1.3023 -0.5513
 1172TIP3   OH225150   4.662   6.606   8.543 -0.0183 -0.4811  0.0229
 1172TIP3    H125151   4.585   6.662   8.556  0.3915  0.0149  0.3804
 1172TIP3    H225152   4.681   6.572   8.630  1.7590  1.5483  0.5157
 1173TIP3   OH225153   0.800   2.181   1.246 -0.2188 -0.4843  0.2289
 1173TIP3    H125154   0.705   2.175   1.259 -0.4192 -1.3948 -1.3763
 1173TIP3    H225155   0.816   2.272   1.223 -0.3629  0.2123  2.6754
 1174TIP3   OH225156   4.788   1.485   2.388 -0.5413  0.1952  0.0012
 1174TIP3    H125157   4.816   1.448   2.304  0.9386 -0.0089  0.5623
 1174TIP3    H225158   4.795   1.580   2.376 -2.5503  0.2910 -0.8261
 1175TIP3   OH225159   3.050   6.405   2.414 -0.9944 -0.1374  0.1720
 1175TIP3    H125160   3.042   6.489   2.458 -0.3799 -0.7074  1.4324
 1175TIP3    H225161   3.144   6.385   2.418 -1.2151 -1.1771  0.4877
 1176TIP3   OH225162   5.728   4.840   1.460 -0.7586  0.1912 -0.0843
 1176TIP3    H125163   5.806   4.894   1.473 -0.4010 -0.8319  2.7920
 1176TIP3    H225164   5.694   4.867   1.375  1.7011  1.9511 -0.6229
 1177TIP3   OH225165   1.818   6.283   0.865  0.1944 -0.0582  0.2704
 1177TIP3    H125166   1.771   6.361   0.896 -1.0731 -0.4938 -0.4774
 1177TIP3    H225167   1.811   6.220   0.936 -2.6625 -1.0404 -0.7154
 1178TIP3   OH225168   2.803   3.879   2.125  0.4481 -0.7497  0.0029
 1178TIP3    H125169   2.781   3.803   2.071  2.6074 -0.3432 -1.5993
 1178TIP3    H225170   2.771   3.954   2.074 -0.2889 -0.4691  0.8396
 1179TIP3   OH225171   0.302   4.645   2.667 -0.3989  0.1297  0.2710
 1179TIP3    H125172   0.286   4.581   2.736  0.4075  1.4411  1.7333
 1179TIP3    H225173   0.265   4.727   2.701  1.6865  1.2367  0.0193
 1180TIP3   OH225174   5.108   4.870   8.538  0.3141  0.3407  0.1217
 1180TIP3    H125175   5.063   4.953   8.519 -1.6096 -0.5180  0.7194
 1180TIP3    H225176   5.153   4.885   8.621 -0.4468  0.6263  0.4841
 1181TIP3   OH225177   1.375   2.447   1.116 -0.2556  0.0797 -0.2308
 1181TIP3    H125178   1.354   2.493   1.197 -1.3676  0.2766 -0.6224
 1181TIP3    H225179   1.397   2.517   1.054 -1.1593  0.0506 -0.5967
 1182TIP3   OH225180   4.704   1.806   0.997  0.0486 -0.8193  0.1397
 1182TIP3    H125181   4.748   1.866   1.058 -1.0908  0.1965 -0.0042
 1182TIP3    H225182   4.755   1.813   0.916  0.9818 -1.4285  0.6495
 1183TIP3   OH225183   0.391   3.643   2.063  0.5908 -0.7514 -0.9417
 1183TIP3    H125184   0.390   3.689   2.147 -1.5114 -0.1578 -1.2296
 1183TIP3    H225185   0.390   3.713   1.998 -0.7792 -1.1567 -1.3997
 1184TIP3   OH225186   0.317   3.831   1.445 -0.1750 -0.6586  0.2509
 1184TIP3    H125187   0.283   3.894   1.509 -0.2545 -0.7931  0.3414
 1184TIP3    H225188   0.242   3.776   1.424 -0.2982 -0.2662 -0.3842
 1185TIP3   OH225189   0.719   0.352   3.404 -0.2606 -0.5472 -0.5624
 1185TIP3    H125190   0.627   0.348   3.430  0.0121 -2.4330  0.2543
 1185TIP3    H225191   0.764   0.384   3.482 -0.1427 -0.2417 -0.7540
 1186TIP3   OH225192   5.126   0.640   0.165 -0.0427  0.0810 -0.9186
 1186TIP3    H125193   5.210   0.643   0.118  0.4948  0.2314  0.0338
 1186TIP3    H225194   5.063   0.609   0.099  0.6795  0.3356 -1.7518
 1187TIP3   OH225195   5.476   2.219   7.675 -0.4113 -0.5618 -0.4589
 1187TIP3    H125196   5.485   2.128   7.645  0.1449 -0.3218 -1.0403
 1187TIP3    H225197   5.388   2.245   7.647 -2.2404 -2.1299  3.0903
 1188TIP3   OH225198   5.518   3.183   8.117 -0.3816 -0.1772 -0.4908
 1188TIP3    H125199   5.497   3.098   8.156 -1.4734 -0.0462 -0.7798
 1188TIP3    H225200   5.470   3.185   8.035 -2.4670  1.7377  0.6715
 1189TIP3   OH225201   2.206   4.017   1.618 -0.5212 -0.2865 -0.5097
 1189TIP3    H125202   2.296   3.989   1.632 -0.9126 -1.7837 -0.8834
 1189TIP3    H225203   2.204   4.108   1.649  1.1772 -0.1327 -0.7621
 1190TIP3   OH225204   0.868   3.764   2.508  0.2813  0.6846 -0.2343
 1190TIP3    H125205   0.815   3.830   2.552 -1.3240 -1.1688  0.7789
 1190TIP3    H225206   0.812   3.686   2.506  0.5913  0.3414 -4.7828
 1191TIP3   OH225207   2.466   0.902   8.636  0.0554  0.1782 -0.4106
 1191TIP3    H125208   2.393   0.955   8.666  0.0653 -0.3889  0.6639
 1191TIP3    H225209   2.438   0.868   8.550  0.2307  2.2298 -1.3291
 1192TIP3   OH225210   6.143   2.637   0.836  0.2864  0.0891  0.5059
 1192TIP3    H125211   6.211   2.646   0.769  0.7120  0.9681  1.0255
 1192TIP3    H225212   6.185   2.668   0.916 -0.9880  1.5577  0.6664
 1193TIP3   OH225213   3.502   5.111   0.289  0.3348  0.1604  0.1745
 1193TIP3    H125214   3.431   5.066   0.334  2.4916 -3.0185  0.7961
 1193TIP3    H225215   3.544   5.163   0.357  0.4858 -0.5130  0.6084
 1194TIP3   OH225216   4.327   6.633   0.236  0.4298  0.1759 -0.6070
 1194TIP3    H125217   4.333   6.703   0.301  0.7135  1.2474 -1.7369
 1194TIP3    H225218   4.260   6.574   0.269  1.2485  0.1689  1.1206
 1195TIP3   OH225219   4.727   1.792   1.356  0.2969 -0.1231  0.7154
 1195TIP3    H125220   4.641   1.793   1.314  0.3768 -1.6757  0.4238
 1195TIP3    H225221   4.708   1.785   1.449  0.1024  0.0727  0.6911
 1196TIP3   OH225222   2.719   0.739   0.473  0.2566 -0.3198  0.4177
 1196TIP3    H125223   2.700   0.783   0.556  0.8833  0.4326  0.1877
 1196TIP3    H225224   2.810   0.709   0.482  1.0695  1.5493 -0.6841
 1197TIP3   OH225225   1.720   0.205   7.937 -0.1097  0.2118 -0.1238
 1197TIP3    H125226   1.630   0.225   7.962 -0.3637 -1.2505  0.2539
 1197TIP3    H225227   1.754   0.286   7.900 -1.5567  0.8096 -0.1973
 1198TIP3   OH225228   5.837   1.726   0.877 -0.4187 -0.2321 -0.3024
 1198TIP3    H125229   5.802   1.665   0.943 -0.4890  0.2455  0.1130
 1198TIP3    H225230   5.780   1.714   0.801 -2.9218  1.9773  1.0123
 1199TIP3   OH225231   3.521   3.779   1.222 -0.4423  0.0475  0.1039
 1199TIP3    H125232   3.524   3.684   1.231 -0.0636 -0.0503 -0.8955
 1199TIP3    H225233   3.467   3.793   1.144 -1.1143  0.6883  0.6700
 1200TIP3   OH225234   4.253   6.603   3.087  0.1586  0.0885 -0.1755
 1200TIP3    H125235   4.270   6.630   2.996  0.2912 -0.2395 -0.2474
 1200TIP3    H225236   4.241   6.686   3.133 -0.0280  0.2554 -0.5142
 1201TIP3   OH225237   2.851   1.158   2.625  0.3591  0.0518 -0.0114
 1201TIP3    H125238   2.846   1.191   2.715  0.0553 -0.8927  0.3369
 1201TIP3    H225239   2.943   1.171   2.601  0.2241  1.2134  0.0699
 1202TIP3   OH225240   1.760   6.775   3.029  0.6170 -0.0084  0.7190
 1202TIP3    H125241   1.853   6.788   3.009  0.3471 -0.1512 -0.7095
 1202TIP3    H225242   1.761   6.712   3.102  1.6403  0.2788  0.9817
 1203TIP3   OH225243   1.251   2.283   3.299 -0.1062  0.2752 -0.0552
 1203TIP3    H125244   1.324   2.232   3.333 -0.6282 -0.1262  0.4816
 1203TIP3    H225245   1.288   2.333   3.227  0.4157 -0.8633 -0.5990
 1204TIP3   OH225246   5.333   0.422   0.399 -0.0697  0.2884 -0.0612
 1204TIP3    H125247   5.405   0.358   0.398  0.1977  0.5541  0.9783
 1204TIP3    H225248   5.377   0.507   0.390 -0.3693  0.3715 -0.7613
 1205TIP3   OH225249   1.643   1.085   1.232  0.1214 -0.4992 -0.5197
 1205TIP3    H125250   1.638   1.007   1.288 -0.2702  0.2296  0.5024
 1205TIP3    H225251   1.599   1.154   1.283 -2.9232 -0.4451 -2.9355
 1206TIP3   OH225252   3.264   4.333   1.208 -0.5041 -0.5111 -0.3380
 1206TIP3    H125253   3.343   4.327   1.263 -0.3122  1.5396 -0.3141
 1206TIP3    H225254   3.298   4.339   1.118 -0.6147  0.2001 -0.3407
 1207TIP3   OH225255   4.411   4.989   1.549  0.3973 -0.0041  0.4752
 1207TIP3    H125256   4.480   5.016   1.489  0.1263  0.4606  0.3630
 1207TIP3    H225257   4.395   5.066   1.603  0.6204 -0.4135  1.1283
 1208TIP3   OH225258   4.826   2.081   0.216 -0.0128 -0.2415 -0.1618
 1208TIP3    H125259   4.780   2.150   0.170 -0.1598 -0.5071 -0.4170
 1208TIP3    H225260   4.831   2.009   0.153 -0.0315 -0.5318  0.1622
 1209TIP3   OH225261   5.559   0.961   2.511  0.4509  0.3964  0.0438
 1209TIP3    H125262   5.644   0.990   2.478  1.1780 -1.1833  0.4327
 1209TIP3    H225263   5.510   0.935   2.433  0.1930  1.5945 -0.2084
 1210TIP3   OH225264   2.845   5.838   1.882  0.0305 -0.1023 -0.2541
 1210TIP3    H125265   2.772   5.779   1.903  1.9778 -2.4329  0.4621
 1210TIP3    H225266   2.873   5.810   1.795  2.1170 -1.6038  0.8197
 1211TIP3   OH225267   6.159   4.171   0.670  0.1451  0.1408  0.2982
 1211TIP3    H125268   6.078   4.138   0.710 -0.9769  1.9063 -0.3769
 1211TIP3    H225269   6.146   4.159   0.576  1.5234 -1.3051  0.2514
 1212TIP3   OH225270   6.171   1.576   0.609 -0.4186 -0.3396 -0.2597
 1212TIP3    H125271   6.215   1.493   0.589 -2.7082 -1.3712 -1.4356
 1212TIP3    H225272   6.136   1.564   0.697 -3.5012 -2.0636 -1.5526
 1213TIP3   OH225273   1.010   3.411   8.527  0.2722  0.1924 -0.0300
 1213TIP3    H125274   0.942   3.453   8.580 -0.0387 -1.2001  0.7549
 1213TIP3    H225275   0.977   3.322   8.513  1.2768 -0.0644 -0.8882
 1214TIP3   OH225276   4.276   2.707   0.899  0.6954  0.0540  0.2296
 1214TIP3    H125277   4.294   2.723   0.991  0.5866  0.0237  0.2564
 1214TIP3    H225278   4.180   2.709   0.892  0.6785 -0.5271  0.2237
 1215TIP3   OH225279   4.289   1.695   0.150  0.5687 -0.0086  0.2483
 1215TIP3    H125280   4.217   1.663   0.096  1.0798 -0.7164 -0.0243
 1215TIP3    H225281   4.365   1.645   0.121  0.6198 -1.4439  2.5181
 1216TIP3   OH225282   1.219   1.507   3.249  0.2838  0.3297 -0.2301
 1216TIP3    H125283   1.168   1.580   3.283 -0.5464 -0.1805 -0.3489
 1216TIP3    H225284   1.159   1.463   3.188 -0.1061 -1.8751  1.6233
 1217TIP3   OH225285   0.943   5.453   2.967 -0.0530 -0.0193  0.3352
 1217TIP3    H125286   0.928   5.519   2.899  0.2754 -0.0915  0.1907
 1217TIP3    H225287   0.890   5.482   3.041 -2.0288 -0.9880 -0.6024
 1218TIP3   OH225288   4.497   0.338   1.818  0.0020 -0.3185 -0.4665
 1218TIP3    H125289   4.532   0.305   1.900  0.5850 -1.8349 -1.2848
 1218TIP3    H225290   4.511   0.433   1.822  1.2399 -0.5266  0.6180
 1219TIP3   OH225291   0.600   5.300   1.647 -0.0175  0.3064  0.3127
 1219TIP3    H125292   0.573   5.213   1.618 -1.1165  0.1933  1.5926
 1219TIP3    H225293   0.523   5.355   1.634 -0.2675  0.4445  2.0858
 1220TIP3   OH225294   4.708   6.339   8.528 -0.4127 -0.7207 -0.1120
 1220TIP3    H125295   4.685   6.423   8.489 -1.4024 -1.7737 -1.8939
 1220TIP3    H225296   4.629   6.311   8.574 -0.2677 -0.9556  0.0002
 1221TIP3   OH225297   2.320   4.625   0.344 -0.9111 -0.1276 -0.6370
 1221TIP3    H125298   2.291   4.560   0.407 -0.6781  0.1266 -0.2577
 1221TIP3    H225299   2.401   4.661   0.382 -0.5373 -0.2687 -1.2862
 1222TIP3   OH225300   1.538   2.247   3.109 -0.0107 -0.4003 -0.3426
 1222TIP3    H125301   1.489   2.186   3.164  1.2651 -0.5397  0.7085
 1222TIP3    H225302   1.576   2.310   3.171 -0.4093  0.8350 -1.3008
 1223TIP3   OH225303   1.004   1.095   2.804 -0.4756  0.4792 -0.1711
 1223TIP3    H125304   0.929   1.146   2.834 -2.9274 -2.9999  0.3696
 1223TIP3    H225305   1.065   1.095   2.877 -1.1662  1.3026  0.4155
 1224TIP3   OH225306   2.773   5.691   0.511  0.6408  0.1127  0.8108
 1224TIP3    H125307   2.840   5.695   0.444  1.2176  1.8491  1.4129
 1224TIP3    H225308   2.716   5.767   0.493  0.1021 -0.0942  1.5517
 1225TIP3   OH225309   4.579   3.619   1.480 -0.0166  0.1564  0.3434
 1225TIP3    H125310   4.602   3.537   1.435  0.8553 -0.4597  1.8442
 1225TIP3    H225311   4.550   3.677   1.410 -1.8378 -1.8186 -0.6484
 1226TIP3   OH225312   2.185   4.371   2.135 -0.6190 -0.1552 -0.7703
 1226TIP3    H125313   2.196   4.301   2.200  0.4716  0.0689 -0.6825
 1226TIP3    H225314   2.273   4.410   2.128 -1.1491  1.0297 -1.0139
 1227TIP3   OH225315   1.957   4.316   8.297 -0.2342  0.2251  0.0110
 1227TIP3    H125316   1.942   4.397   8.249  0.1869  0.1121 -0.3145
 1227TIP3    H225317   1.928   4.247   8.238  2.0392 -0.0381 -0.8732
 1228TIP3   OH225318   3.525   6.540   8.584 -0.2861  0.2405  0.0751
 1228TIP3    H125319   3.514   6.480   8.657  2.0551  0.8287  0.9913
 1228TIP3    H225320   3.436   6.571   8.565 -0.9944 -0.1306  2.4681
 1229TIP3   OH225321   4.391   2.902   2.346 -0.0720  0.1930 -0.1742
 1229TIP3    H125322   4.375   2.922   2.253  0.3362  2.0245  0.1088
 1229TIP3    H225323   4.479   2.866   2.347 -0.2469 -0.2608 -0.5422
 1230TIP3   OH225324   5.045   5.865   1.692 -0.5614 -0.1367 -0.5724
 1230TIP3    H125325   5.088   5.840   1.774  1.7658 -1.3520 -2.0609
 1230TIP3    H225326   5.102   5.933   1.656 -0.7653 -0.6370 -1.8594
 1231TIP3   OH225327   4.053   4.065   1.592 -1.0919  0.1255  0.0309
 1231TIP3    H125328   4.007   4.042   1.672 -0.5835  0.9286  0.5666
 1231TIP3    H225329   4.089   3.983   1.559  0.9922  0.1260  2.0682
 1232TIP3   OH225330   6.319   3.176   1.069 -0.0124  0.1764  0.4631
 1232TIP3    H125331   6.323   3.186   0.973 -0.3346 -0.8789  0.3274
 1232TIP3    H225332   6.363   3.093   1.085  1.3427  1.0362  1.3831
 1233TIP3   OH225333   1.415   3.705   8.615  0.1071  0.2725 -0.6745
 1233TIP3    H125334   1.335   3.725   8.566 -0.2168  1.4561  0.2880
 1233TIP3    H225335   1.391   3.631   8.670 -0.4391  0.8137 -0.1694
 1234TIP3   OH225336   2.012   2.540   0.933 -0.1145 -0.2871 -0.1917
 1234TIP3    H125337   2.035   2.503   0.848 -1.0195  2.4397 -1.7574
 1234TIP3    H225338   1.979   2.465   0.983  1.3400 -2.1631 -1.8401
 1235TIP3   OH225339   2.568   2.556   1.862  0.4608 -0.4014  0.0196
 1235TIP3    H125340   2.497   2.619   1.853 -0.1812 -0.6649  2.4093
 1235TIP3    H225341   2.625   2.594   1.929  1.2254 -1.3484 -0.0717
 1236TIP3   OH225342   6.435   6.597   1.397 -0.3063 -0.3758  0.3035
 1236TIP3    H125343   6.389   6.634   1.322 -0.5627  1.3866  1.2670
 1236TIP3    H225344   6.505   6.660   1.417  2.2059 -2.6445 -0.6961
 1237TIP3   OH225345   4.286   0.638   0.407  0.2083  0.2625 -0.0981
 1237TIP3    H125346   4.307   0.680   0.323 -0.7824  2.0080  0.4668
 1237TIP3    H225347   4.368   0.599   0.435  0.3405 -1.2971 -2.3421
 1238TIP3   OH225348   6.663   1.475   1.708 -0.2268  0.1360  0.3122
 1238TIP3    H125349   6.640   1.475   1.801 -2.2367 -0.2705 -0.1370
 1238TIP3    H225350   6.719   1.398   1.697  1.1122  0.9251  1.4019
 1239TIP3   OH225351   2.186   0.591   3.105 -0.0776 -0.0272 -1.1563
 1239TIP3    H125352   2.095   0.619   3.110 -0.0307  1.1347 -4.4183
 1239TIP3    H225353   2.192   0.517   3.165 -2.7908  0.6852  0.1524
 1240TIP3   OH225354   4.231   5.018   0.250  0.3336 -0.0895  0.0843
 1240TIP3    H125355   4.258   5.083   0.186  1.6129 -1.0564 -0.3933
 1240TIP3    H225356   4.200   4.944   0.198 -1.7245  0.3135  0.6118
 1241TIP3   OH225357   0.803   2.645   1.316 -0.4927 -0.2039  0.3364
 1241TIP3    H125358   0.817   2.589   1.240 -1.7325 -0.4422  0.2620
 1241TIP3    H225359   0.714   2.625   1.345 -0.7094  1.1948  0.7431
 1242TIP3   OH225360   2.008   1.860   2.585  0.1491  0.0777  0.5688
 1242TIP3    H125361   2.029   1.936   2.640  2.3886 -0.3443  0.3943
 1242TIP3    H225362   1.936   1.890   2.530 -1.7601  0.7352  3.2248
 1243TIP3   OH225363   0.770   0.806   8.582 -0.3764  0.3768 -0.1316
 1243TIP3    H125364   0.727   0.809   8.667  1.1658 -0.4409  0.7201
 1243TIP3    H225365   0.699   0.790   8.520 -1.3726 -0.3339  1.1392
 1244TIP3   OH225366   1.334   3.663   0.067  0.4971 -0.7445  0.3991
 1244TIP3    H125367   1.353   3.570   0.072  1.3713 -0.5684  0.4705
 1244TIP3    H225368   1.418   3.704   0.047 -0.0492 -0.0556 -0.6161
 1245TIP3   OH225369   6.304   4.513   2.138 -0.6749  0.0159  0.3981
 1245TIP3    H125370   6.380   4.495   2.194 -0.5296 -1.0429 -0.1299
 1245TIP3    H225371   6.302   4.609   2.131  0.5859  0.0582  0.4516
 1246TIP3   OH225372   6.603   1.700   0.655  0.4655  0.3514  0.5722
 1246TIP3    H125373   6.694   1.678   0.677  0.8382  0.4959 -0.7309
 1246TIP3    H225374   6.608   1.788   0.618 -0.0601 -0.0008 -0.3759
 1247TIP3   OH225375   6.397   5.760   8.396  0.0389  0.5742  0.0145
 1247TIP3    H125376   6.323   5.741   8.454 -0.2802 -0.1626 -0.6079
 1247TIP3    H225377   6.359   5.760   8.308  0.5612  1.4289 -0.2205
 1248TIP3   OH225378   5.434   4.200   8.519  0.7732 -0.4265  0.0207
 1248TIP3    H125379   5.377   4.276   8.508  1.6039  0.2984  0.5770
 1248TIP3    H225380   5.431   4.156   8.434 -0.6783 -0.4649  0.0730
 1249TIP3   OH225381   6.651   1.895   0.268 -0.1350  0.6037  0.3200
 1249TIP3    H125382   6.623   1.979   0.231 -0.8373  0.0211 -0.5026
 1249TIP3    H225383   6.700   1.853   0.197 -0.9265 -0.2459  0.2681
 1250TIP3   OH225384   0.473   1.397   0.335  0.0550  0.4018 -0.2421
 1250TIP3    H125385   0.415   1.409   0.410 -0.0626 -0.8459 -0.1222
 1250TIP3    H225386   0.535   1.470   0.341 -0.3579  0.6906  0.6792
 1251TIP3   OH225387   6.468   0.825   2.780 -0.4565 -0.2887  0.5773
 1251TIP3    H125388   6.435   0.858   2.863 -0.0635 -0.0127  0.6273
 1251TIP3    H225389   6.534   0.889   2.752 -1.4097  0.2447 -0.5372
 1252TIP3   OH225390   2.063   5.177   8.791 -0.3692 -0.3729 -0.3092
 1252TIP3    H125391   2.157   5.192   8.777  0.0286 -0.8101  1.6746
 1252TIP3    H225392   2.059   5.113   8.862 -2.1703  1.1620  1.0742
 1253TIP3   OH225393   0.873   1.778   8.125  0.1495  0.2189  0.6992
 1253TIP3    H125394   0.802   1.776   8.188  1.6536 -0.0680  2.4567
 1253TIP3    H225395   0.921   1.696   8.139  1.5599  0.9655  0.4542
 1254TIP3   OH225396   2.950   5.703   2.670 -0.1153  0.1561  0.0221
 1254TIP3    H125397   2.927   5.650   2.594 -3.4344 -1.2203  1.7615
 1254TIP3    H225398   2.890   5.777   2.667 -0.4917 -0.0670  1.4006
 1255TIP3   OH225399   5.451   4.355   1.634  0.2250 -0.4198  0.1989
 1255TIP3    H125400   5.521   4.364   1.569  0.5645 -0.2695  0.5854
 1255TIP3    H225401   5.458   4.264   1.664 -1.4757 -1.2608 -1.7243
 1256TIP3   OH225402   4.649   4.860   0.336  0.5194 -0.2276  0.4184
 1256TIP3    H125403   4.655   4.891   0.246 -0.0680  0.4501  0.6021
 1256TIP3    H225404   4.691   4.929   0.388 -0.1362 -0.0783  0.7635
 1257TIP3   OH225405   5.883   4.284   1.319 -0.2620  0.3070 -0.5204
 1257TIP3    H125406   5.940   4.236   1.380 -0.8354  0.2138 -0.0528
 1257TIP3    H225407   5.801   4.296   1.366 -1.2430 -1.0364 -1.7737
 1258TIP3   OH225408   4.450   1.382   1.469 -0.6067 -0.4380 -0.0294
 1258TIP3    H125409   4.470   1.370   1.562  0.0937 -0.4127 -0.1729
 1258TIP3    H225410   4.493   1.464   1.446 -3.3775  1.2731  0.3661
 1259TIP3   OH225411   5.555   1.109   1.889 -0.3788 -0.0051  0.2828
 1259TIP3    H125412   5.555   1.117   1.984 -1.9298  0.0293  0.3068
 1259TIP3    H225413   5.464   1.125   1.863  0.0557  0.2099 -1.2285
 1260TIP3   OH225414   0.562   4.916   2.637 -0.1918  1.3005  0.4671
 1260TIP3    H125415   0.528   4.973   2.706 -1.8522  1.3643 -0.3473
 1260TIP3    H225416   0.487   4.862   2.612  1.3338 -1.3749  1.2793
 1261TIP3   OH225417   6.420   0.028   0.839 -0.0567  0.6307 -0.3994
 1261TIP3    H125418   6.346   0.066   0.886 -1.2386 -1.3599 -0.5567
 1261TIP3    H225419   6.381  -0.018   0.765  1.5464  1.4357 -1.8284
 1262TIP3   OH225420   0.850   4.551   8.499 -0.0179 -0.1058  0.5126
 1262TIP3    H125421   0.939   4.578   8.477  0.6162 -0.2244  2.6450
 1262TIP3    H225422   0.861   4.477   8.558 -1.6273 -1.5829 -0.9188
 1263TIP3   OH225423   2.207   0.092   8.288 -0.2592  0.4818  0.6861
 1263TIP3    H125424   2.290   0.047   8.275  0.4468  2.0069 -0.3483
 1263TIP3    H225425   2.220   0.178   8.249 -2.7236  0.3650 -0.5734
 1264TIP3   OH225426   4.448   0.376   2.309  0.1973  0.1537 -0.4364
 1264TIP3    H125427   4.449   0.360   2.214  2.0841  0.8139 -0.5670
 1264TIP3    H225428   4.540   0.377   2.334 -0.2811 -0.1566  1.4507
 1265TIP3   OH225429   0.303   3.472   1.139  0.9373 -0.0949  0.3266
 1265TIP3    H125430   0.343   3.542   1.088  0.0847  0.0179 -0.2186
 1265TIP3    H225431   0.233   3.515   1.187  0.3891 -0.5685 -0.0332
 1266TIP3   OH225432   3.672   4.216   7.670  0.8468  0.3594  0.6188
 1266TIP3    H125433   3.610   4.189   7.602  1.2901  1.0529 -0.0674
 1266TIP3    H225434   3.726   4.138   7.685  1.2510  0.4401 -0.3843
 1267TIP3   OH225435   5.808   0.664   1.357 -0.1024  0.3529 -0.3410
 1267TIP3    H125436   5.830   0.573   1.372  0.4827  0.4729 -0.4433
 1267TIP3    H225437   5.718   0.673   1.388 -0.2480 -0.3141 -0.5657
 1268TIP3   OH225438   2.563   3.016   1.212  0.1196 -0.6261  0.3689
 1268TIP3    H125439   2.495   3.053   1.267  0.0011 -0.3907  0.0698
 1268TIP3    H225440   2.519   2.947   1.162 -0.0716 -0.0266 -0.3172
 1269TIP3   OH225441   6.356   2.326   2.820  0.0475  0.1377  0.5118
 1269TIP3    H125442   6.450   2.314   2.835  0.0509 -0.9742 -0.2638
 1269TIP3    H225443   6.326   2.375   2.896  1.0374 -0.5548  1.3853
 1270TIP3   OH225444   6.112   2.097   2.913  0.3304  0.2420 -0.2847
 1270TIP3    H125445   6.113   2.065   2.823 -1.9126  0.6785 -0.5045
 1270TIP3    H225446   6.186   2.157   2.917  0.5771  0.0872 -1.7784
 1271TIP3   OH225447   0.017   2.367   1.361 -0.5617  0.2187  0.7926
 1271TIP3    H125448   0.048   2.457   1.367  2.4519 -0.4868 -1.3621
 1271TIP3    H225449   0.088   2.314   1.399 -1.1974 -1.3213 -0.0495
 1272TIP3   OH225450   5.106   3.987   8.895 -0.2076  0.8467  0.2596
 1272TIP3    H125451   5.142   3.960   8.979  0.4340 -2.2106 -0.8500
 1272TIP3    H225452   5.177   4.038   8.855  0.5292  0.0954  0.5643
 1273TIP3   OH225453   0.500   0.545   0.579  0.0006  0.0729  0.1798
 1273TIP3    H125454   0.554   0.520   0.655 -0.0280 -4.0285 -0.8937
 1273TIP3    H225455   0.410   0.539   0.611  0.0349  0.2018  0.3017
 1274TIP3   OH225456   2.546   3.506   7.512  0.1582 -0.4444 -0.2617
 1274TIP3    H125457   2.625   3.559   7.521 -0.9381  0.9090  2.2593
 1274TIP3    H225458   2.575   3.416   7.527  1.4681 -0.1920 -1.1166
 1275TIP3   OH225459   4.578   6.007   1.727 -0.3368  0.0858 -0.8532
 1275TIP3    H125460   4.642   5.936   1.721  1.1135  1.4023 -2.2780
 1275TIP3    H225461   4.625   6.083   1.692 -2.1403  1.5183 -0.2910
 1276TIP3   OH225462   4.880   3.978   0.481  0.6916  0.3705  0.1714
 1276TIP3    H125463   4.881   3.959   0.575 -0.8808 -0.2924  0.0734
 1276TIP3    H225464   4.794   3.949   0.451  0.1354  2.9465 -1.0065
 1277TIP3   OH225465   3.569   6.210   2.942  0.0995  0.8008 -0.3527
 1277TIP3    H125466   3.607   6.134   2.897 -1.7132 -0.1937 -0.3112
 1277TIP3    H225467   3.644   6.258   2.975  1.3160 -1.2348  0.0225
 1278TIP3   OH225468   1.684   2.601   1.245 -0.1767  0.0651  0.2265
 1278TIP3    H125469   1.680   2.523   1.300 -0.9554  0.2578  0.4554
 1278TIP3    H225470   1.656   2.672   1.302  0.5157  0.5252  0.0180
 1279TIP3   OH225471   3.039   2.709   2.007  0.1136  0.4079  0.1428
 1279TIP3    H125472   3.031   2.778   1.940  0.3163 -1.3312 -1.7686
 1279TIP3    H225473   3.129   2.716   2.038  0.8595 -0.3415 -1.6771
 1280TIP3   OH225474   3.586   1.976   3.091  0.1141 -0.4173  0.3818
 1280TIP3    H125475   3.600   2.050   3.151  3.2301  0.3617 -1.0660
 1280TIP3    H225476   3.650   1.911   3.119 -0.9737 -1.6202  0.1505
 1281TIP3   OH225477   1.838   4.661   1.868  0.1792  0.0478  0.6771
 1281TIP3    H125478   1.922   4.706   1.882  0.7390 -0.9954  0.8320
 1281TIP3    H225479   1.830   4.602   1.943 -0.6051  0.0060  0.5627
 1282TIP3   OH225480   6.419   6.721   2.972  0.4518 -0.2699  0.2504
 1282TIP3    H125481   6.452   6.774   3.044  2.1723 -0.8380 -0.0768
 1282TIP3    H225482   6.326   6.709   2.991  0.5880  0.7043  1.6504
 1283TIP3   OH225483   5.855   4.832   7.891  0.3072  0.5794 -0.3020
 1283TIP3    H125484   5.777   4.886   7.905  1.8456  2.9192 -0.2054
 1283TIP3    H225485   5.822   4.752   7.850 -2.2073  1.1369  0.4399
 1284TIP3   OH225486   4.055   3.295   1.623 -0.7751 -0.3119 -1.0165
 1284TIP3    H125487   3.977   3.244   1.603 -1.9298  0.0758  1.9541
 1284TIP3    H225488   4.126   3.231   1.624 -1.5889 -1.2381 -0.7504
 1285TIP3   OH225489   2.444   0.167   0.945 -0.3424 -0.1106  0.1262
 1285TIP3    H125490   2.420   0.107   0.875 -1.5863  0.3385  0.1309
 1285TIP3    H225491   2.533   0.143   0.969  0.1387 -0.2370 -1.6481
 1286TIP3   OH225492   2.722   4.542   1.006 -0.2356 -0.2725  0.4425
 1286TIP3    H125493   2.634   4.507   1.020 -0.7769  0.4244 -1.0037
 1286TIP3    H225494   2.728   4.554   0.911  1.3819 -0.1808  0.5309
 1287TIP3   OH225495   3.511   4.868   1.998 -0.0993  0.4455  0.2690
 1287TIP3    H125496   3.595   4.914   2.002  0.5851 -0.6721 -0.9336
 1287TIP3    H225497   3.447   4.938   1.980  0.9013  0.9736 -1.4001
 1288TIP3   OH225498   2.000   5.084   2.606 -0.1369  0.3868  0.0328
 1288TIP3    H125499   2.092   5.059   2.614  0.6221  3.1173  0.8465
 1288TIP3    H225500   1.973   5.101   2.696 -2.1053 -2.2073  0.0537
 1289TIP3   OH225501   6.336   4.896   1.016 -0.3284 -0.0988  0.0340
 1289TIP3    H125502   6.412   4.953   1.012 -1.2103  1.0518 -1.8730
 1289TIP3    H225503   6.372   4.807   1.020  1.1942  0.2947 -2.5915
 1290TIP3   OH225504   3.731   2.024   2.791  0.3743  0.2088  0.1179
 1290TIP3    H125505   3.777   2.050   2.871  1.0352  0.3603 -0.3023
 1290TIP3    H225506   3.640   2.046   2.809  0.8590  2.9078 -0.1994
 1291TIP3   OH225507   2.925   2.641   0.425  0.2296  0.1367  0.1501
 1291TIP3    H125508   2.837   2.647   0.388  0.2358  1.2464  0.2861
 1291TIP3    H225509   2.973   2.583   0.365  0.0668  1.4059 -1.2426
 1292TIP3   OH225510   6.605   1.646   0.390  0.6670  0.2479 -0.0872
 1292TIP3    H125511   6.515   1.680   0.387  0.7585  0.6615  1.3417
 1292TIP3    H225512   6.648   1.698   0.457  3.0492  2.4756 -3.0399
 1293TIP3   OH225513   3.265   5.412   1.074  0.1034  0.0188 -0.3778
 1293TIP3    H125514   3.310   5.436   1.155 -1.8222  2.0876  0.1717
 1293TIP3    H225515   3.202   5.344   1.100 -0.1947  0.3524 -0.2215
 1294TIP3   OH225516   0.143   2.076   0.186 -0.3912  0.0892 -0.0111
 1294TIP3    H125517   0.055   2.085   0.150 -0.3377  1.3444  0.1424
 1294TIP3    H225518   0.185   2.011   0.129 -0.5526  1.4653 -1.8019
 1295TIP3   OH225519   0.296   6.431   2.693  0.3665  0.1195 -0.0111
 1295TIP3    H125520   0.346   6.462   2.617 -1.5706  0.2142 -1.3235
 1295TIP3    H225521   0.244   6.506   2.720 -0.4619 -0.4833  0.1086
 1296TIP3   OH225522   2.573   6.019   8.512 -0.4280  0.5912 -0.0373
 1296TIP3    H125523   2.492   5.976   8.539  0.1933 -0.5323  0.1105
 1296TIP3    H225524   2.610   5.962   8.445  1.1220  0.1090  1.1581
 1297TIP3   OH225525   5.897   0.062   0.802  0.7018  0.5532 -0.4255
 1297TIP3    H125526   5.915   0.127   0.870  0.7945  0.3785 -0.2823
 1297TIP3    H225527   5.806   0.078   0.777 -0.1582 -0.9055  1.4410
 1298TIP3   OH225528   3.876   2.060   3.021  0.2816 -0.7961  0.1818
 1298TIP3    H125529   3.962   2.063   2.979 -0.3180  2.8705 -1.1044
 1298TIP3    H225530   3.893   2.081   3.113  0.8846 -1.7651  0.3070
 1299TIP3   OH225531   5.341   4.315   0.940 -0.3662 -0.0632  0.2135
 1299TIP3    H125532   5.337   4.262   1.019  0.2856 -0.2264  0.1435
 1299TIP3    H225533   5.279   4.274   0.880 -0.4091 -0.3063  0.4237
 1300TIP3   OH225534   1.612   1.894   1.767  0.0127  0.6809 -0.6263
 1300TIP3    H125535   1.559   1.878   1.690  0.7019 -0.3317 -0.9088
 1300TIP3    H225536   1.623   1.808   1.808  2.6449  0.5537 -1.3926
 1301TIP3   OH225537   3.345   0.471   2.140  0.4157  0.0350  0.1144
 1301TIP3    H125538   3.380   0.548   2.185 -0.0136  1.1147 -1.3270
 1301TIP3    H225539   3.256   0.461   2.174  1.4023 -1.6419  2.4614
 1302TIP3   OH225540   2.355   2.031   2.781  0.2031 -0.2542 -0.5080
 1302TIP3    H125541   2.389   2.118   2.757 -2.3290  0.8524 -0.3984
 1302TIP3    H225542   2.278   2.050   2.835 -0.1963 -2.6004 -0.1749
 1303TIP3   OH225543   2.519   0.875   1.917 -0.2012  0.3220  0.2938
 1303TIP3    H125544   2.474   0.840   1.993  0.5586  1.8977  1.5234
 1303TIP3    H225545   2.599   0.822   1.910 -1.3363 -1.3562 -0.8780
 1304TIP3   OH225546   3.532   4.150   2.678 -0.1944 -0.4936  0.2574
 1304TIP3    H125547   3.584   4.209   2.733 -1.5348  0.6946  0.3258
 1304TIP3    H225548   3.596   4.089   2.641  1.1060  0.3333  1.0424
 1305TIP3   OH225549   0.569   1.754   2.138  0.7314  0.2536  0.1074
 1305TIP3    H125550   0.504   1.799   2.192  1.8174  0.1109  1.5953
 1305TIP3    H225551   0.524   1.737   2.055 -1.1026  0.1493  1.0842
 1306TIP3   OH225552   0.578   6.774   1.738 -0.3949 -0.6490  0.1614
 1306TIP3    H125553   0.547   6.835   1.805 -0.5789 -0.8387  0.2521
 1306TIP3    H225554   0.592   6.692   1.785  1.0787 -0.3545  0.2994
 1307TIP3   OH225555   1.264   4.829   2.215 -0.3018 -0.2044 -0.4644
 1307TIP3    H125556   1.233   4.796   2.131 -1.4948 -2.3571  0.7209
 1307TIP3    H225557   1.184   4.848   2.264  0.3721  2.2350 -0.2025
 1308TIP3   OH225558   1.422   0.944   2.711  0.3098  0.1919  0.4998
 1308TIP3    H125559   1.515   0.928   2.696  0.4128  1.8486 -0.9226
 1308TIP3    H225560   1.380   0.921   2.629 -0.3960  0.5240  0.7621
 1309TIP3   OH225561   1.178   5.103   1.264 -0.0366  0.3102 -0.9076
 1309TIP3    H125562   1.201   5.045   1.336 -2.2138  1.0315  0.4593
 1309TIP3    H225563   1.263   5.133   1.229  1.0830 -0.5193  0.9603
 1310TIP3   OH225564   1.874   1.831   3.755 -0.3258  0.0969  0.0628
 1310TIP3    H125565   1.797   1.785   3.721  0.1388 -1.3224  0.8117
 1310TIP3    H225566   1.844   1.921   3.769 -1.6134 -0.2294 -0.4209
 1311TIP3   OH225567   1.807   4.103   2.268 -0.2042  0.4616  0.4136
 1311TIP3    H125568   1.785   4.196   2.259  0.3990  0.5149 -0.5917
 1311TIP3    H225569   1.798   4.086   2.362  0.6181  1.7714  0.7642
 1312TIP3   OH225570   3.807   1.569   8.347 -0.5258 -0.0156 -0.0476
 1312TIP3    H125571   3.800   1.505   8.276 -0.4297 -1.0756  0.8704
 1312TIP3    H225572   3.754   1.643   8.318  0.4731  0.0810 -1.7565
 1313TIP3   OH225573   3.889   1.090   1.717 -0.1720  0.3217 -0.1688
 1313TIP3    H125574   3.899   1.096   1.622 -2.9991  1.9130 -0.4849
 1313TIP3    H225575   3.833   1.013   1.730 -3.4207  2.4353 -0.3338
 1314TIP3   OH225576   6.160   5.465   2.478  0.4172 -0.2268 -0.1015
 1314TIP3    H125577   6.075   5.481   2.437  1.3148 -0.1016 -2.0308
 1314TIP3    H225578   6.155   5.512   2.561 -0.5279  1.9613 -1.2781
 1315TIP3   OH225579   4.980   4.602   1.609 -0.1257  0.0669  0.2731
 1315TIP3    H125580   4.921   4.539   1.569  1.3724 -1.0053 -0.2975
 1315TIP3    H225581   5.066   4.560   1.608  0.3983  0.8960  2.5861
 1316TIP3   OH225582   5.017   5.954   1.040 -0.5969 -0.5041 -0.1808
 1316TIP3    H125583   5.055   6.037   1.013 -0.1645 -0.6582 -0.0589
 1316TIP3    H225584   5.019   5.955   1.136  1.7405 -1.6680 -0.1463
 1317TIP3   OH225585   5.371   2.601   8.613 -0.4719  0.0441 -0.2285
 1317TIP3    H125586   5.429   2.633   8.544  2.5371 -0.0521  2.0381
 1317TIP3    H225587   5.354   2.509   8.590 -0.4904  0.3326 -1.4009
 1318TIP3   OH225588   1.521   0.420   3.757  0.4776  0.0123  0.4622
 1318TIP3    H125589   1.526   0.516   3.751  0.7634 -0.0396 -0.2803
 1318TIP3    H225590   1.608   0.394   3.788  0.4452 -0.0164  0.5288
 1319TIP3   OH225591   1.896   4.220   8.019 -0.3212 -0.1306  0.4208
 1319TIP3    H125592   1.955   4.193   7.948 -0.4894 -0.9659  0.5881
 1319TIP3    H225593   1.890   4.315   8.011  0.8875 -0.0477  0.2644
 1320TIP3   OH225594   0.567   2.806   2.332  0.6696 -0.1037  0.1392
 1320TIP3    H125595   0.587   2.890   2.291  1.3870 -0.8566 -1.0956
 1320TIP3    H225596   0.521   2.829   2.413 -0.1377  1.4394 -0.7227
 1321TIP3   OH225597   1.368   2.123   2.082  0.0565  0.3645 -0.1067
 1321TIP3    H125598   1.409   2.150   1.999 -1.5134  1.4947 -0.5726
 1321TIP3    H225599   1.428   2.155   2.150  0.1961  1.5539 -0.7647
 1322TIP3   OH225600   1.530   3.545   1.351 -0.2265  0.2734  0.0119
 1322TIP3    H125601   1.555   3.459   1.318  1.5394  0.2603  1.2091
 1322TIP3    H225602   1.525   3.533   1.446 -0.7881  1.3064  0.1252
 1323TIP3   OH225603   3.882   4.396   1.194  0.1166 -0.4827  0.1714
 1323TIP3    H125604   3.894   4.452   1.118 -2.5446  1.1728  0.8811
 1323TIP3    H225605   3.919   4.446   1.267 -3.8803  1.4746  1.1401
 1324TIP3   OH225606   2.978   4.039   1.484 -0.0554 -0.6068 -0.0122
 1324TIP3    H125607   3.025   3.969   1.439 -0.3759 -0.3297 -0.8018
 1324TIP3    H225608   3.023   4.120   1.457  1.6181 -0.5905  2.4876
 1325TIP3   OH225609   6.611   5.540   0.456 -0.0865 -0.0050 -0.7024
 1325TIP3    H125610   6.564   5.532   0.538  2.4381 -1.0069  0.7599
 1325TIP3    H225611   6.625   5.634   0.444  0.5908  0.0969  0.7161
 1326TIP3   OH225612   6.485   2.228   7.910  0.2109  0.7729 -0.4686
 1326TIP3    H125613   6.510   2.194   7.824  0.3267  1.5404 -0.7458
 1326TIP3    H225614   6.568   2.242   7.955  0.1353 -0.4235  0.1062
 1327TIP3   OH225615   2.302   6.154   1.244 -0.1661 -0.4777 -0.4266
 1327TIP3    H125616   2.395   6.133   1.250  0.4480  1.7970 -1.0075
 1327TIP3    H225617   2.300   6.247   1.222 -2.5813 -0.6091 -1.0224
 1328TIP3   OH225618   1.615   2.693   8.788  0.5536  0.2319 -0.0432
 1328TIP3    H125619   1.661   2.615   8.819 -2.2629 -1.5325 -0.0143
 1328TIP3    H225620   1.553   2.661   8.723  0.3652  2.7101 -1.2057
 1329TIP3   OH225621   3.306   0.217   8.962 -0.1577  0.6330 -0.1567
 1329TIP3    H125622   3.217   0.211   8.926 -0.7208  2.7301  0.7460
 1329TIP3    H225623   3.300   0.284   9.030  1.6356 -0.7610  1.5010
 1330TIP3   OH225624   1.997   2.422   0.490  0.1361 -1.1390 -0.4375
 1330TIP3    H125625   1.908   2.435   0.523 -0.0747 -2.6213 -0.3648
 1330TIP3    H225626   2.053   2.446   0.565 -0.0792  1.3279 -0.9638
 1331TIP3   OH225627   0.358   6.281   1.094  0.8275  0.8305  0.4314
 1331TIP3    H125628   0.432   6.342   1.094  0.7454  1.0385 -2.0649
 1331TIP3    H225629   0.289   6.326   1.142  1.6328  1.5365  0.9474
 1332TIP3   OH225630   5.039   1.014   3.696  0.2671 -0.0745  0.0657
 1332TIP3    H125631   5.102   1.084   3.713 -1.9791  1.3679  3.5519
 1332TIP3    H225632   5.081   0.935   3.730  0.2087  0.9247  2.6641
 1333TIP3   OH225633   5.098   4.583   7.821 -0.1937 -0.1622 -0.1366
 1333TIP3    H125634   5.025   4.521   7.816 -0.8622  0.5252  0.6822
 1333TIP3    H225635   5.158   4.555   7.752 -0.2593 -1.9760  0.4896
 1334TIP3   OH225636   3.958   3.111   7.992  0.1902  0.0417  0.2617
 1334TIP3    H125637   3.934   3.169   7.920  1.2048  0.6421  0.3808
 1334TIP3    H225638   4.036   3.064   7.961  0.1015 -0.3574  0.6257
 1335TIP3   OH225639   1.495   6.638   2.118  0.3524 -0.7825  0.4795
 1335TIP3    H125640   1.519   6.549   2.090  0.3715 -0.4224 -0.7094
 1335TIP3    H225641   1.543   6.695   2.059 -0.7681 -0.0011  0.2856
 1336TIP3   OH225642   2.392   5.692   2.693  0.1203  0.2446  0.8324
 1336TIP3    H125643   2.356   5.606   2.717 -0.4015  0.9153  2.6856
 1336TIP3    H225644   2.424   5.727   2.776  0.0151  1.9833  0.1672
 1337TIP3   OH225645   6.495   0.138   1.554  0.0057 -0.3017 -0.3302
 1337TIP3    H125646   6.484   0.217   1.502  0.3861 -0.0479 -0.0308
 1337TIP3    H225647   6.542   0.077   1.497 -0.6482 -0.4585 -0.7026
 1338TIP3   OH225648   1.945   0.029   8.345 -0.3436  0.0875 -0.4699
 1338TIP3    H125649   1.930   0.123   8.353 -0.7376 -0.0028 -0.0855
 1338TIP3    H225650   2.034   0.022   8.311 -0.7885  0.6139 -1.7701
 1339TIP3   OH225651   3.186   4.241   1.518  0.0958 -0.3167 -0.3893
 1339TIP3    H125652   3.259   4.256   1.458 -0.4504  1.6979 -0.6194
 1339TIP3    H225653   3.225   4.238   1.605  0.4553  1.1156 -0.4748
 1340TIP3   OH225654   2.758   1.579   1.228 -0.2908 -0.2356 -0.4388
 1340TIP3    H125655   2.830   1.579   1.164 -0.7896  1.0746 -1.0523
 1340TIP3    H225656   2.767   1.663   1.274 -0.9560 -0.4085  0.0242
 1341TIP3   OH225657   2.784   4.319   0.499 -0.2565 -0.8674 -0.0772
 1341TIP3    H125658   2.760   4.289   0.586 -1.3586  1.0004  0.3281
 1341TIP3    H225659   2.781   4.241   0.445 -1.9302 -1.6850  1.1002
 1342TIP3   OH225660   0.509   3.535   7.911 -0.1921  0.4356  0.2799
 1342TIP3    H125661   0.521   3.456   7.858 -2.4322  1.1059 -1.3376
 1342TIP3    H225662   0.431   3.577   7.876  0.3115  2.8557  1.7789
 1343TIP3   OH225663   2.625   5.484   8.901 -0.6245  0.4302 -0.5280
 1343TIP3    H125664   2.663   5.570   8.879  0.9929 -0.1879 -0.3171
 1343TIP3    H225665   2.567   5.464   8.828  0.5010  0.8293 -1.5651
 1344TIP3   OH225666   5.984   2.356   2.828 -0.6465 -0.2355 -0.2827
 1344TIP3    H125667   5.891   2.340   2.816 -0.5406 -0.9475 -0.2086
 1344TIP3    H225668   6.023   2.269   2.832 -0.1527  0.0245  1.0751
 1345TIP3   OH225669   4.332   5.336   8.566 -0.7187 -0.6354  0.4695
 1345TIP3    H125670   4.291   5.347   8.652 -1.2663 -1.1665  0.2902
 1345TIP3    H225671   4.424   5.320   8.585 -0.3043  1.7791  0.8352
 1346TIP3   OH225672   3.587   4.803   1.589 -0.4073 -0.2653 -0.7941
 1346TIP3    H125673   3.678   4.790   1.562 -0.0781  0.6987 -0.2052
 1346TIP3    H225674   3.567   4.726   1.643  0.4927  0.1388  0.1519
 1347TIP3   OH225675   5.294   1.348   2.080 -0.1827  0.5333 -0.0664
 1347TIP3    H125676   5.239   1.271   2.090 -0.1492  0.5629  0.3787
 1347TIP3    H225677   5.295   1.389   2.167  1.0325  0.2008  0.0992
 1348TIP3   OH225678   5.145   0.744   2.098  0.2639 -0.0707  0.1773
 1348TIP3    H125679   5.098   0.666   2.125 -2.3758  1.2442 -0.3401
 1348TIP3    H225680   5.202   0.714   2.027 -1.4640 -1.3675 -0.7268
 1349TIP3   OH225681   6.230   1.054   0.532  0.1436 -0.1762 -0.2715
 1349TIP3    H125682   6.162   0.999   0.495  0.0982  0.6735 -1.5052
 1349TIP3    H225683   6.235   1.129   0.473  3.6430 -1.2095 -1.5565
 1350TIP3   OH225684   4.148   1.349   8.657 -0.1186 -0.3766 -0.1731
 1350TIP3    H125685   4.096   1.406   8.599 -0.4179 -0.7610 -0.2850
 1350TIP3    H225686   4.087   1.281   8.684 -0.0088 -0.1315  0.6988
 1351TIP3   OH225687   1.009   1.017   1.894  0.1067  0.7109  0.1955
 1351TIP3    H125688   0.973   1.079   1.958 -1.2210  0.0166  0.1527
 1351TIP3    H225689   0.939   1.007   1.829 -0.0606 -1.4515  0.6432
 1352TIP3   OH225690   0.623   6.528   3.186  0.4647 -0.3707 -0.1464
 1352TIP3    H125691   0.560   6.576   3.240  0.4919 -1.7273  1.1426
 1352TIP3    H225692   0.573   6.498   3.111 -0.0387 -0.0695  0.0642
 1353TIP3   OH225693   3.198   2.813   2.955  0.2859 -0.5517 -0.1263
 1353TIP3    H125694   3.281   2.782   2.919 -0.3344 -2.4531 -0.0692
 1353TIP3    H225695   3.132   2.774   2.897 -0.5948  0.3118  0.2688
 1354TIP3   OH225696   4.164   0.344   2.375 -0.4464  0.1150  0.0240
 1354TIP3    H125697   4.250   0.336   2.334 -0.6583  2.4292 -1.0558
 1354TIP3    H225698   4.170   0.292   2.455  2.4120  1.2382  0.6530
 1355TIP3   OH225699   5.928   1.227   0.807 -0.6230  0.0835  0.0674
 1355TIP3    H125700   5.923   1.132   0.798  2.2712 -0.0105 -1.8483
 1355TIP3    H225701   5.883   1.245   0.890 -0.8925 -2.9621  0.7256
 1356TIP3   OH225702   4.641   1.569   1.117  0.0585 -0.5013 -0.2515
 1356TIP3    H125703   4.694   1.533   1.187  0.2013 -0.1161 -0.1605
 1356TIP3    H225704   4.673   1.659   1.105  1.1204 -1.0486 -1.8862
 1357TIP3   OH225705   4.185   5.985   2.824  0.1761  0.0823  0.0664
 1357TIP3    H125706   4.159   6.034   2.901 -0.0917 -0.6128  0.4240
 1357TIP3    H225707   4.176   5.893   2.849  1.8153 -0.1791 -0.1945
 1358TIP3   OH225708   3.598   3.575   0.803 -0.5152 -0.2724 -0.0159
 1358TIP3    H125709   3.540   3.637   0.847  0.3512 -0.4815  1.4938
 1358TIP3    H225710   3.612   3.505   0.866 -0.3560 -1.3295 -1.1694
 1359TIP3   OH225711   5.353   6.093   8.204  0.4646 -0.6594 -0.2775
 1359TIP3    H125712   5.335   6.109   8.111 -0.7593  1.8719  0.3140
 1359TIP3    H225713   5.449   6.085   8.208  0.6030 -0.0990 -1.6758
 1360TIP3   OH225714   4.796   6.226   2.045  0.4140 -0.0319 -0.2955
 1360TIP3    H125715   4.724   6.164   2.057 -1.0786  1.7614  0.4322
 1360TIP3    H225716   4.875   6.172   2.049 -0.8550 -2.1442 -1.5704
 1361TIP3   OH225717   6.726   6.438   0.675  0.0776  0.5307 -0.0978
 1361TIP3    H125718   6.698   6.462   0.586  0.2502 -0.2427 -0.3664
 1361TIP3    H225719   6.700   6.513   0.729  0.2188  1.1277 -0.8415
 1362TIP3   OH225720   4.770   1.914   8.131 -0.1660  0.1457  0.2642
 1362TIP3    H125721   4.759   1.819   8.132  1.7731 -0.1500 -0.9492
 1362TIP3    H225722   4.714   1.944   8.058  0.5607 -0.2890 -0.4818
 1363TIP3   OH225723   5.121   2.279   7.925 -0.4453  0.3326 -0.1171
 1363TIP3    H125724   5.064   2.302   7.998  0.2507 -2.8774  1.6600
 1363TIP3    H225725   5.204   2.322   7.945  0.2973 -1.9092  2.1329
 1364TIP3   OH225726   0.204   6.003   2.907  0.7087  0.1932  0.0828
 1364TIP3    H125727   0.142   5.967   2.972 -1.8821  1.2236 -1.6391
 1364TIP3    H225728   0.256   5.928   2.880  2.3288 -0.1952  3.6615
 1365TIP3   OH225729   1.121   3.271   7.941  0.9633 -0.0249  0.3034
 1365TIP3    H125730   1.077   3.222   8.011 -0.4002 -0.6791 -0.9442
 1365TIP3    H225731   1.170   3.205   7.893 -0.1792 -0.0723 -0.8641
 1366TIP3   OH225732   4.691   1.759   7.841 -0.0143  0.5273  0.0849
 1366TIP3    H125733   4.763   1.817   7.817 -0.9093  2.5606  1.9506
 1366TIP3    H225734   4.646   1.740   7.759  0.4987  2.2551 -0.6262
 1367TIP3   OH225735   4.127   2.254   0.425 -0.0786 -0.4438  0.3735
 1367TIP3    H125736   4.155   2.167   0.455  0.1106  0.1020  1.8403
 1367TIP3    H225737   4.208   2.303   0.415 -0.0188 -0.8795 -2.1419
 1368TIP3   OH225738   3.646   3.577   8.639 -0.7213  0.2699  0.1687
 1368TIP3    H125739   3.584   3.526   8.588 -0.7829  1.1102 -0.6395
 1368TIP3    H225740   3.727   3.526   8.637 -1.0396 -0.2409  0.1901
 1369TIP3   OH225741   2.565   6.557   0.994  0.2049  0.1781 -0.2049
 1369TIP3    H125742   2.587   6.509   0.915  1.1840  0.0428  0.1349
 1369TIP3    H225743   2.506   6.627   0.965 -0.0433 -0.3281 -0.9217
 1370TIP3   OH225744   3.631   6.445   8.374  0.1445  0.2232  0.1463
 1370TIP3    H125745   3.559   6.383   8.366  0.0026  0.2255  1.2689
 1370TIP3    H225746   3.609   6.499   8.450  1.7186 -0.2957  1.0233
 1371TIP3   OH225747   5.981   2.138   2.512 -0.0769  0.0874  0.5714
 1371TIP3    H125748   6.053   2.200   2.503 -0.1513  0.2591  1.0845
 1371TIP3    H225749   5.959   2.112   2.423  1.2483 -0.6923  0.4394
 1372TIP3   OH225750   3.013   5.575   8.762  0.4964 -0.2963 -0.4467
 1372TIP3    H125751   3.043   5.559   8.851  0.0789  1.6206  0.0816
 1372TIP3    H225752   3.094   5.595   8.713  0.9515 -3.0835 -0.9864
 1373TIP3   OH225753   3.238   5.927   1.512 -0.0959  0.3191 -0.2210
 1373TIP3    H125754   3.307   5.914   1.447  1.4820  1.7091  1.0845
 1373TIP3    H225755   3.184   5.998   1.476 -0.3684 -0.2171 -0.8782
 1374TIP3   OH225756   0.574   1.798   1.188  0.2640 -0.0551  0.0906
 1374TIP3    H125757   0.573   1.722   1.247  1.8226  0.9225  1.4724
 1374TIP3    H225758   0.509   1.858   1.225 -0.1913 -0.2492 -0.3768
 1375TIP3   OH225759   0.717   2.734   0.396 -0.1311 -0.0128  0.5765
 1375TIP3    H125760   0.812   2.728   0.411 -0.0317  1.4326  0.7106
 1375TIP3    H225761   0.708   2.798   0.326 -1.0479  0.8573  1.4446
 1376TIP3   OH225762   0.228   4.556   1.633  0.1683 -0.2547  0.2683
 1376TIP3    H125763   0.239   4.602   1.550  2.2188 -0.4648  0.3727
 1376TIP3    H225764   0.153   4.599   1.675 -1.7807 -1.0177 -2.2158
 1377TIP3   OH225765   0.571   0.875   8.406 -0.2038 -0.0873  0.5017
 1377TIP3    H125766   0.498   0.870   8.468 -0.8723 -1.2603 -0.3488
 1377TIP3    H225767   0.535   0.844   8.323  0.8088  0.9839 -0.3864
 1378TIP3   OH225768   5.991   1.222   8.766 -0.1357  0.3818  0.2058
 1378TIP3    H125769   6.077   1.230   8.724  0.0742 -2.1118 -0.0170
 1378TIP3    H225770   5.992   1.286   8.836  0.5242  2.8697 -1.9119
 1379TIP3   OH225771   5.203   3.979   7.192 -0.4720  0.8067  0.4787
 1379TIP3    H125772   5.138   3.909   7.197  1.7267 -1.4128  0.3117
 1379TIP3    H225773   5.220   4.002   7.284 -0.3170  0.1764  0.6169
 1380TIP3   OH225774   6.246   2.974   8.114 -0.1772 -0.7302 -0.0094
 1380TIP3    H125775   6.291   2.890   8.120  1.4850  0.0952 -0.1199
 1380TIP3    H225776   6.300   3.025   8.053  0.1278  1.1507  1.7385
 1381TIP3   OH225777   1.663   4.008   7.238  0.3997  0.0244  0.6099
 1381TIP3    H125778   1.711   4.088   7.220  0.2355  0.0512  0.2845
 1381TIP3    H225779   1.675   3.954   7.159 -2.3440  1.1258 -0.6844
 1382TIP3   OH225780   1.850   1.238   1.523  0.5749  0.2295 -0.8460
 1382TIP3    H125781   1.903   1.224   1.602 -0.7123  0.8116  0.1493
 1382TIP3    H225782   1.778   1.176   1.531 -0.1562  1.0408 -1.0141
 1383TIP3   OH225783   2.192   0.922   1.932 -0.0520  0.4798 -0.0817
 1383TIP3    H125784   2.155   0.837   1.957  0.9027 -0.3102 -1.2625
 1383TIP3    H225785   2.154   0.984   1.995 -1.3647 -0.6893  0.3246
 1384TIP3   OH225786   2.011   3.214   1.849  0.2796  0.3636  0.4189
 1384TIP3    H125787   2.039   3.163   1.925 -0.0380  3.2245  2.6124
 1384TIP3    H225788   1.961   3.287   1.886  0.7163  2.2874 -2.4785
 1385TIP3   OH225789   0.318   4.973   7.591  0.2360 -0.7434  0.2124
 1385TIP3    H125790   0.323   4.887   7.548  0.2409  0.2708 -1.9665
 1385TIP3    H225791   0.408   4.994   7.612  0.2530 -1.1975  0.6090
 1386TIP3   OH225792   6.410   3.938   0.122  0.0725 -0.5456 -0.8247
 1386TIP3    H125793   6.420   4.001   0.050  1.1409 -0.5787 -0.7137
 1386TIP3    H225794   6.420   3.991   0.202  0.5465 -0.7762 -0.7270
 1387TIP3   OH225795   1.686   0.320   2.633  0.1601  0.4625  0.3239
 1387TIP3    H125796   1.740   0.268   2.692  2.5609  1.9724 -0.3763
 1387TIP3    H225797   1.622   0.363   2.690 -0.3586 -1.3799  1.1888
 1388TIP3   OH225798   6.782   1.034   8.621  0.0840  0.6086  0.6344
 1388TIP3    H125799   6.772   0.952   8.669  0.1389  1.3172  1.9251
 1388TIP3    H225800   6.754   1.101   8.684  0.2023  1.5849 -0.3316
 1389TIP3   OH225801   0.895   4.227   2.443 -0.2812 -0.3017  0.3407
 1389TIP3    H125802   0.893   4.321   2.462  0.0911 -0.1182 -0.4697
 1389TIP3    H225803   0.803   4.201   2.439 -0.4853  0.5536 -1.8239
 1390TIP3   OH225804   3.625   0.669   8.428 -0.2019  0.8071  0.2834
 1390TIP3    H125805   3.687   0.740   8.439 -1.4974  1.6419  3.1328
 1390TIP3    H225806   3.658   0.599   8.483  0.3106 -0.3324 -1.3993
 1391TIP3   OH225807   2.359   1.174   0.681 -0.1687 -0.0677  0.4045
 1391TIP3    H125808   2.399   1.109   0.623 -0.8841 -1.4268  1.3828
 1391TIP3    H225809   2.430   1.200   0.740  0.0282 -0.2206  0.2357
 1392TIP3   OH225810   1.592   0.173   2.887 -0.3246 -0.2031  0.3038
 1392TIP3    H125811   1.644   0.116   2.943 -0.9948 -1.0953  0.0470
 1392TIP3    H225812   1.569   0.247   2.942 -1.4197 -1.3141  1.4123
 1393TIP3   OH225813   1.531   5.642   8.508  0.1175  0.0820 -0.6061
 1393TIP3    H125814   1.607   5.644   8.566  0.6705 -1.6344 -1.2101
 1393TIP3    H225815   1.520   5.733   8.480  0.6746  0.7134  1.0726
 1394TIP3   OH225816   4.274   4.449   8.924 -0.3596 -0.3135 -0.0747
 1394TIP3    H125817   4.359   4.479   8.891 -0.9423  1.1891 -0.2893
 1394TIP3    H225818   4.293   4.414   9.011  0.9053 -2.6249 -1.1916
 1395TIP3   OH225819   1.807   5.392   2.358 -0.3450  0.1056 -0.0336
 1395TIP3    H125820   1.817   5.321   2.422  0.1451 -0.1409 -0.3766
 1395TIP3    H225821   1.843   5.356   2.277 -0.9059  0.4391 -0.4335
 1396TIP3   OH225822   5.247   2.065   8.204 -0.1823 -0.1690 -0.4300
 1396TIP3    H125823   5.314   2.103   8.146 -0.3140 -0.0984 -0.5355
 1396TIP3    H225824   5.165   2.073   8.155 -0.2477 -0.3835 -0.3567
 1397TIP3   OH225825   5.865   0.203   2.259 -0.3139 -0.7734  0.1456
 1397TIP3    H125826   5.955   0.179   2.280  0.2434 -0.1139 -1.3560
 1397TIP3    H225827   5.814   0.172   2.334  1.0977 -1.5018  0.8480
 1398TIP3   OH225828   1.018   6.019   1.272  0.2341  0.4144  0.2873
 1398TIP3    H125829   1.071   6.086   1.228  1.1353 -0.8509 -0.6170
 1398TIP3    H225830   0.941   6.067   1.304  1.2271  2.0255  0.3855
 1399TIP3   OH225831   4.881   3.839   2.216  0.7120  0.6888 -0.0501
 1399TIP3    H125832   4.940   3.788   2.270 -1.1115 -0.4812  0.9394
 1399TIP3    H225833   4.893   3.804   2.127 -1.5470 -2.7555  0.7846
 1400TIP3   OH225834   1.947   2.707   1.408 -0.6363  0.4315 -0.0435
 1400TIP3    H125835   1.978   2.702   1.317 -0.0268  0.4060  0.1658
 1400TIP3    H225836   1.925   2.617   1.430 -1.3744  0.5239 -0.3656
 1401TIP3   OH225837   1.640   6.488   1.519 -0.1617  0.2362 -0.0924
 1401TIP3    H125838   1.599   6.426   1.580  1.0703 -1.2114 -0.6504
 1401TIP3    H225839   1.621   6.574   1.555 -1.7572 -0.4688  0.8447
 1402TIP3   OH225840   2.756   3.663   1.930 -0.0420 -0.4719 -0.0004
 1402TIP3    H125841   2.769   3.674   1.836 -1.7482 -0.1313 -0.2143
 1402TIP3    H225842   2.755   3.568   1.943 -0.4167 -0.5256 -0.4185
 1403TIP3   OH225843   4.977   1.331   2.197 -0.3310 -0.4331 -0.2469
 1403TIP3    H125844   4.962   1.238   2.208 -0.5146 -0.2787  0.8804
 1403TIP3    H225845   5.030   1.357   2.273 -1.8697  0.7316  0.4799
 1404TIP3   OH225846   4.781   4.942   2.531  0.1601  0.1740 -0.1289
 1404TIP3    H125847   4.741   4.999   2.597 -0.1010  0.2679 -0.3645
 1404TIP3    H225848   4.759   4.854   2.560  0.6321  0.1903  0.2784
 1405TIP3   OH225849   0.591   0.283   8.789  0.3844  0.0813 -0.1942
 1405TIP3    H125850   0.612   0.190   8.781  0.0069 -0.0514  0.2778
 1405TIP3    H225851   0.670   0.329   8.761  0.3960 -0.3755 -0.9411
 1406TIP3   OH225852   1.627   1.631   1.841 -0.0099  0.3355 -0.4263
 1406TIP3    H125853   1.698   1.612   1.903  0.5937  0.0856 -1.1703
 1406TIP3    H225854   1.551   1.586   1.878  0.3445  0.1783  0.1290
 1407TIP3   OH225855   2.531   0.581   2.531 -0.0885  0.4474 -0.7450
 1407TIP3    H125856   2.606   0.541   2.576 -1.3913 -0.5574  0.6232
 1407TIP3    H225857   2.454   0.543   2.573 -1.4025  1.9588 -1.6521
 1408TIP3   OH225858   0.555   3.184   8.457  0.1263 -0.1008  0.5002
 1408TIP3    H125859   0.611   3.142   8.392 -0.4104 -0.7389  0.4445
 1408TIP3    H225860   0.521   3.112   8.511 -0.4201  0.3009  0.7070
 1409TIP3   OH225861   2.375   1.222   2.860  0.1399 -0.6686  0.0206
 1409TIP3    H125862   2.453   1.168   2.855  0.2647 -0.7926  2.2803
 1409TIP3    H225863   2.400   1.305   2.820  0.9532 -1.1830 -0.5710
 1410TIP3   OH225864   4.634   3.790   3.123  0.5837 -0.0652  0.1496
 1410TIP3    H125865   4.578   3.786   3.201 -0.3069 -1.8535 -0.5358
 1410TIP3    H225866   4.670   3.702   3.115  2.3904  0.6699 -0.2601
 1411TIP3   OH225867   0.213   1.180   3.629 -0.2741 -0.4055  0.2929
 1411TIP3    H125868   0.151   1.209   3.697 -1.5632 -2.4889  0.1180
 1411TIP3    H225869   0.261   1.108   3.671 -1.0402 -1.6719 -0.9378
 1412TIP3   OH225870   4.883   6.775   8.897  0.6728  0.6244  0.2788
 1412TIP3    H125871   4.921   6.719   8.830  1.0617  0.3120  0.7504
 1412TIP3    H225872   4.888   6.723   8.978  2.3757  1.8534  1.0290
 1413TIP3   OH225873   3.747   4.904   8.643  0.0459  0.4558 -0.0803
 1413TIP3    H125874   3.821   4.879   8.587 -0.4991 -0.3248 -0.4713
 1413TIP3    H225875   3.731   4.996   8.621 -0.1893  0.1500 -1.2788
 1414TIP3   OH225876   4.789   3.713   8.800  0.6114  0.2060 -0.7376
 1414TIP3    H125877   4.705   3.749   8.770  1.3269  0.5498 -2.4337
 1414TIP3    H225878   4.854   3.751   8.741  1.8177 -1.0711 -0.2822
 1415TIP3   OH225879   2.149   2.588   8.254 -0.1909  0.2026  0.4524
 1415TIP3    H125880   2.237   2.581   8.291 -0.0176 -1.1960 -0.1648
 1415TIP3    H225881   2.090   2.565   8.326 -0.0519  0.7876  0.7636
 1416TIP3   OH225882   2.476   4.176   3.093  0.2392 -0.1094  0.2919
 1416TIP3    H125883   2.529   4.136   3.024  2.1137  1.8937  0.4800
 1416TIP3    H225884   2.425   4.244   3.049  2.0172  1.7061  0.8908
 1417TIP3   OH225885   0.083   5.293   7.589  0.4546  0.5773  0.2481
 1417TIP3    H125886   0.052   5.359   7.651 -3.7064 -1.3210  0.5347
 1417TIP3    H225887   0.075   5.336   7.503  0.3824  1.2707  0.5916
 1418TIP3   OH225888   4.299   2.740   1.156  0.1467 -0.5937 -0.4927
 1418TIP3    H125889   4.364   2.728   1.225 -0.0105 -1.5023 -0.4983
 1418TIP3    H225890   4.215   2.721   1.198 -0.1112  0.3134 -0.5553
 1419TIP3   OH225891   4.120   0.284   0.272 -0.0237  0.4242  0.2602
 1419TIP3    H125892   4.063   0.357   0.295  0.4989  1.1389 -0.6182
 1419TIP3    H225893   4.085   0.252   0.189 -0.5073 -0.6173  0.8465
 1420TIP3   OH225894   1.052   2.851   7.540  0.2272  0.1628  0.0222
 1420TIP3    H125895   0.993   2.780   7.567  0.6668 -0.1261  0.2394
 1420TIP3    H225896   1.015   2.929   7.579  0.6071 -0.1859  1.1159
 1421TIP3   OH225897   0.598   0.117   2.394 -0.0063 -0.0886  0.3607
 1421TIP3    H125898   0.616   0.204   2.429  1.9832 -0.9441  1.6728
 1421TIP3    H225899   0.646   0.113   2.311 -0.5797  0.2622  0.0133
 1422TIP3   OH225900   3.375   5.982   0.585 -0.0629 -0.2944 -0.2782
 1422TIP3    H125901   3.421   5.928   0.520  1.1267  0.4015 -0.0464
 1422TIP3    H225902   3.330   5.919   0.640  1.0789 -1.0652 -0.1823
 1423TIP3   OH225903   5.124   3.933   8.139  0.0641  0.1262 -0.2815
 1423TIP3    H125904   5.215   3.905   8.133 -0.1166 -0.4174 -0.6209
 1423TIP3    H225905   5.116   4.004   8.075  0.3718  0.5317  0.1237
 1424TIP3   OH225906   0.088   0.342   3.133  0.0790  0.0639  0.3403
 1424TIP3    H125907   0.046   0.366   3.051 -0.9079 -1.4523  0.3561
 1424TIP3    H225908   0.118   0.425   3.170 -0.4461  0.8892 -1.0013
 1425TIP3   OH225909   0.124   2.205   1.097 -0.1822 -0.4096  0.2171
 1425TIP3    H125910   0.200   2.163   1.055 -0.6845 -1.3958  0.2734
 1425TIP3    H225911   0.153   2.224   1.186  0.5973  0.8920 -0.2870
 1426TIP3   OH225912   5.810   6.381   8.427 -0.8344  0.4694 -0.0109
 1426TIP3    H125913   5.789   6.411   8.339 -1.9515 -1.0852 -0.3168
 1426TIP3    H225914   5.837   6.290   8.415 -0.5052  0.3893  1.2003
 1427TIP3   OH225915   4.994   6.454   8.308 -0.0225  0.3110 -0.3976
 1427TIP3    H125916   4.959   6.440   8.220  1.9691 -0.0526 -1.1780
 1427TIP3    H225917   4.973   6.545   8.328 -2.4806 -0.2162 -0.2700
 1428TIP3   OH225918   0.812   2.309   1.803 -0.1861  0.7378  0.6520
 1428TIP3    H125919   0.734   2.330   1.855  0.3739  1.9901  1.0116
 1428TIP3    H225920   0.883   2.357   1.846  0.9707 -1.0402  0.8390
 1429TIP3   OH225921   4.992   5.274   2.325  0.0498  0.0650 -0.2214
 1429TIP3    H125922   4.938   5.196   2.315  0.1791 -0.0079 -0.3494
 1429TIP3    H225923   4.952   5.338   2.266  0.2073 -0.0445 -0.4484
 1430TIP3   OH225924   2.431   2.338   1.848  0.0094 -0.3664 -0.4645
 1430TIP3    H125925   2.495   2.404   1.873  0.6601 -1.1446 -0.0132
 1430TIP3    H225926   2.437   2.271   1.916 -2.5471  0.3324  0.5779
 1431TIP3   OH225927   5.584   1.837   8.127 -0.3139 -0.1303  0.2230
 1431TIP3    H125928   5.508   1.798   8.170  0.5222 -0.5199  1.3926
 1431TIP3    H225929   5.641   1.762   8.107  0.1238  0.2352  0.0895
 1432TIP3   OH225930   3.206   5.332   2.564 -0.4674  0.4656  0.0863
 1432TIP3    H125931   3.228   5.341   2.657  0.1115 -0.7732  0.0844
 1432TIP3    H225932   3.135   5.394   2.551 -0.2766  0.9615  1.2643
 1433TIP3   OH225933   6.774   5.536   1.909 -0.2244 -0.5080  0.3354
 1433TIP3    H125934   6.704   5.597   1.931 -1.2296 -1.5998  0.2713
 1433TIP3    H225935   6.827   5.582   1.844  0.7125  1.3819  2.3206
 1434TIP3   OH225936   6.363   4.068   8.639 -0.7618 -0.5792 -0.0141
 1434TIP3    H125937   6.303   4.000   8.669 -0.8573 -0.8813 -0.8515
 1434TIP3    H225938   6.422   4.082   8.712 -2.4515  0.4483  1.2139
 1435TIP3   OH225939   0.691   2.195   3.364  0.1476  1.0050 -0.4677
 1435TIP3    H125940   0.718   2.241   3.285 -1.5449  1.5584 -0.7650
 1435TIP3    H225941   0.773   2.170   3.406  1.2467 -2.1536 -3.9588
 1436TIP3   OH225942   1.397   2.971   8.581 -0.0755 -0.1313  0.6552
 1436TIP3    H125943   1.329   3.001   8.520 -0.2440 -2.3101 -0.3514
 1436TIP3    H225944   1.349   2.949   8.661 -0.4112 -0.6693  0.3108
 1437TIP3   OH225945   5.596   6.600   8.465 -0.4921 -0.1486  0.2857
 1437TIP3    H125946   5.682   6.562   8.480 -0.0623  0.2890 -0.9649
 1437TIP3    H225947   5.595   6.680   8.518 -0.3165 -0.3859  0.6550
 1438TIP3   OH225948   3.571   3.130   2.681  0.2232  0.0504 -0.9064
 1438TIP3    H125949   3.597   3.041   2.654 -0.2291  0.0488 -1.3601
 1438TIP3    H225950   3.519   3.116   2.761  1.4778  0.0454 -0.0612
 1439TIP3   OH225951   0.097   3.001   7.614 -0.2857 -0.5919  0.3968
 1439TIP3    H125952   0.094   2.936   7.544 -1.7277 -2.6320  2.2340
 1439TIP3    H225953   0.033   2.971   7.678  1.6295  0.6159  3.0863
 1440TIP3   OH225954   2.525   3.872   7.400  0.0439  0.0148 -0.3714
 1440TIP3    H125955   2.612   3.838   7.380  0.1839  0.4175 -0.4677
 1440TIP3    H225956   2.524   3.960   7.361 -0.2202  0.2169  0.0781
 1441TIP3   OH225957   0.513   0.691   1.274 -0.1910  0.1576  0.0337
 1441TIP3    H125958   0.535   0.749   1.347 -0.4936  0.2199  0.0776
 1441TIP3    H225959   0.593   0.640   1.259 -1.0423 -2.1694  2.5369
 1442TIP3   OH225960   2.237   2.974   0.285 -0.2670  0.0577 -0.7930
 1442TIP3    H125961   2.222   2.979   0.379  1.1895 -0.0999 -0.5338
 1442TIP3    H225962   2.286   2.892   0.273 -1.6575 -0.6528 -1.8711
 1443TIP3   OH225963   1.864   6.556   8.751  0.7104  0.5920 -0.2277
 1443TIP3    H125964   1.874   6.531   8.659 -1.1336 -0.3495 -0.2249
 1443TIP3    H225965   1.889   6.477   8.799 -2.3172 -0.4161 -0.1174
 1444TIP3   OH225966   5.625   0.430   2.623 -0.0950  0.4598 -0.0062
 1444TIP3    H125967   5.603   0.359   2.563  0.1767  0.1237  0.2907
 1444TIP3    H225968   5.588   0.508   2.582  0.8186  0.3653 -1.0333
 1445TIP3   OH225969   1.786   4.051   2.545 -0.5868  0.0566 -0.1528
 1445TIP3    H125970   1.838   3.978   2.578  1.1482  0.0801 -2.6284
 1445TIP3    H225971   1.840   4.128   2.562  0.2349  0.0978 -2.6449
 1446TIP3   OH225972   1.033   3.605   1.813 -0.0249 -0.5027  0.0628
 1446TIP3    H125973   0.952   3.622   1.765  0.4638 -0.3485 -0.7212
 1446TIP3    H225974   1.038   3.509   1.817 -1.3689 -0.5719  2.0885
 1447TIP3   OH225975   1.520   2.743   1.854  0.3885 -0.1212  0.1360
 1447TIP3    H125976   1.451   2.688   1.819 -0.6633  0.6838  0.8912
 1447TIP3    H225977   1.589   2.740   1.788 -0.7543 -0.1510 -1.0880
 1448TIP3   OH225978   0.526   6.233   1.914  0.0790 -0.8601  0.4405
 1448TIP3    H125979   0.497   6.159   1.861  1.5825 -0.7270 -0.6511
 1448TIP3    H225980   0.457   6.299   1.903 -0.4655 -1.4800  0.0475
 1449TIP3   OH225981   5.450   3.721   2.617 -0.4340  0.1290 -0.0688
 1449TIP3    H125982   5.529   3.769   2.594 -0.0613 -0.1936  0.5192
 1449TIP3    H225983   5.400   3.783   2.671 -0.9859  0.6342 -1.1173
 1450TIP3   OH225984   6.094   1.436   7.716 -0.4032  0.3939  0.0020
 1450TIP3    H125985   6.178   1.390   7.712 -0.0129  1.1897 -1.5158
 1450TIP3    H225986   6.032   1.376   7.674 -0.2680  0.4787 -0.3193
 1451TIP3   OH225987   5.026   1.094   0.548 -0.2514 -0.3281  0.2287
 1451TIP3    H125988   5.021   1.034   0.474 -1.2989 -1.0380  0.8462
 1451TIP3    H225989   5.032   1.181   0.508  0.0381 -0.7487 -0.6775
 1452TIP3   OH225990   1.887   0.943   0.593  0.4394  0.1080 -0.5019
 1452TIP3    H125991   1.819   1.004   0.621 -0.3787 -1.9127  2.4025
 1452TIP3    H225992   1.839   0.862   0.572  1.8288 -1.2944  1.4118
 1453TIP3   OH225993   5.182   1.023   2.604  0.1005  0.2653  0.3205
 1453TIP3    H125994   5.226   1.061   2.680 -0.2041 -0.8653  1.0850
 1453TIP3    H225995   5.219   0.935   2.595 -1.6798 -0.5826  0.7577
 1454TIP3   OH225996   1.438   0.649   0.276  0.2161 -0.5611 -0.0274
 1454TIP3    H125997   1.454   0.556   0.287  2.5760 -0.0283  2.0384
 1454TIP3    H225998   1.420   0.681   0.365 -1.7199  0.8367 -0.8294
 1455TIP3   OH225999   3.994   1.667   1.229 -0.0166  0.0850 -1.1780
 1455TIP3    H126000   3.977   1.677   1.136 -2.2912  0.6388 -0.7759
 1455TIP3    H226001   3.923   1.610   1.260 -1.2531  2.4658  0.7028
 1456TIP3   OH226002   2.706   0.691   8.709 -0.2198 -0.3734  0.1798
 1456TIP3    H126003   2.741   0.705   8.797 -0.2569 -0.2360  0.1735
 1456TIP3    H226004   2.653   0.769   8.692 -1.6230 -1.1693  0.7080
 1457TIP3   OH226005   4.141   0.805   8.746  0.4306 -0.5192  0.7337
 1457TIP3    H126006   4.224   0.849   8.727  0.6132  0.6908  3.8108
 1457TIP3    H226007   4.164   0.729   8.799 -0.4116  0.9314  3.3790
 1458TIP3   OH226008   5.274   1.812   7.706  0.2652  0.8105  0.5131
 1458TIP3    H126009   5.211   1.875   7.743 -1.2569 -1.7095  2.6056
 1458TIP3    H226010   5.358   1.838   7.744 -0.2875  1.6644  1.2168
 1459TIP3   OH226011   0.599   3.087   1.549 -0.3383  0.0849 -0.4220
 1459TIP3    H126012   0.545   3.113   1.625 -1.7614  0.8660 -1.6468
 1459TIP3    H226013   0.669   3.152   1.547  0.4313 -0.6537  0.9076
 1460TIP3   OH226014   4.531   2.851   0.543 -0.3705  0.3230 -0.0946
 1460TIP3    H126015   4.483   2.891   0.471 -1.3616 -1.8844 -0.7437
 1460TIP3    H226016   4.516   2.909   0.618 -1.7732  1.1086 -0.9622
 1461TIP3   OH226017   2.731   6.309   1.710  0.1790 -0.5794 -0.5936
 1461TIP3    H126018   2.698   6.272   1.792 -0.7926  0.5429 -0.4491
 1461TIP3    H226019   2.823   6.281   1.707  0.4624 -0.0203  1.2826
 1462TIP3   OH226020   5.753   3.644   0.888  0.0813  0.4545  0.6354
 1462TIP3    H126021   5.777   3.735   0.870 -2.4964  1.0173 -0.3563
 1462TIP3    H226022   5.814   3.593   0.835  1.1994  1.6108  0.7535
 1463TIP3   OH226023   3.276   4.355   8.559  0.0034  0.2146  0.1549
 1463TIP3    H126024   3.323   4.431   8.526  0.3155 -0.2795 -0.5802
 1463TIP3    H226025   3.260   4.374   8.651  2.2183  0.1328  0.6060
 1464TIP3   OH226026   0.960   1.014   2.296 -0.0114  0.1936  1.0649
 1464TIP3    H126027   0.871   1.013   2.261  0.6119 -0.4441 -0.5749
 1464TIP3    H226028   0.949   0.999   2.390 -1.5026 -2.1430  0.5976
 1465TIP3   OH226029   4.790   0.940   2.245  0.4430 -0.1437 -0.2582
 1465TIP3    H126030   4.704   0.899   2.232  0.4310 -0.4606  0.7934
 1465TIP3    H226031   4.810   0.978   2.159 -0.1170 -1.2438 -0.9040
 1466TIP3   OH226032   5.501   1.123   3.097  0.3709 -0.1705  0.2520
 1466TIP3    H126033   5.444   1.186   3.053  0.8289 -1.0469 -1.6984
 1466TIP3    H226034   5.589   1.160   3.087  0.5292 -0.5985  0.0390
 1467TIP3   OH226035   1.760   5.649   8.660  0.0190  0.2540  0.2649
 1467TIP3    H126036   1.740   5.580   8.723 -2.3543  0.4954 -0.1609
 1467TIP3    H226037   1.779   5.726   8.714 -1.0625  0.2149  0.7176
 1468TIP3   OH226038   4.516   2.627   1.343 -0.5148 -0.1086  0.2442
 1468TIP3    H126039   4.440   2.569   1.341 -0.6206  0.0581 -1.2842
 1468TIP3    H226040   4.590   2.568   1.357 -0.9695 -0.1356  3.4860
 1469TIP3   OH226041   5.870   4.476   2.334 -0.0041  0.6775  0.0089
 1469TIP3    H126042   5.796   4.536   2.324  0.0863  0.6452 -0.9703
 1469TIP3    H226043   5.877   4.432   2.249 -0.7494 -1.5456  1.0301
 1470TIP3   OH226044   1.833   3.567   3.247 -0.8337 -0.0457  0.0589
 1470TIP3    H126045   1.877   3.512   3.183 -1.8291  1.2871 -1.8529
 1470TIP3    H226046   1.900   3.627   3.278 -0.4004 -0.5398  0.0831
 1471TIP3   OH226047   6.084   4.024   8.715  0.0760 -0.1191 -0.7451
 1471TIP3    H126048   6.062   4.104   8.668 -0.6198  0.3291  0.3122
 1471TIP3    H226049   6.034   3.956   8.671  0.7386 -0.0079 -1.7081
 1472TIP3   OH226050   1.154   6.685   1.645  0.5041  0.4846  0.3798
 1472TIP3    H126051   1.171   6.607   1.593 -2.8890 -0.4186  0.4255
 1472TIP3    H226052   1.185   6.662   1.733  1.6018  0.1114 -0.0856
 1473TIP3   OH226053   0.430   0.565   8.837  0.1375 -0.1002 -0.4117
 1473TIP3    H126054   0.473   0.488   8.875  1.4354  1.5520  1.6534
 1473TIP3    H226055   0.379   0.529   8.764  0.1745 -2.9973  0.8234
 1474TIP3   OH226056   3.640   3.836   7.005  0.0120 -0.0364 -0.0583
 1474TIP3    H126057   3.562   3.855   6.952 -0.0834 -1.8443 -0.6533
 1474TIP3    H226058   3.701   3.906   6.983 -0.0562 -0.6447 -2.5825
 1475TIP3   OH226059   0.564   1.371   1.985  0.4227  0.2914 -0.3293
 1475TIP3    H126060   0.624   1.417   1.925  1.1307  0.7471  0.6935
 1475TIP3    H226061   0.585   1.406   2.071 -1.9360  1.0989 -0.0181
 1476TIP3   OH226062   3.301   4.214   8.228  0.3804 -0.9369 -0.4149
 1476TIP3    H126063   3.283   4.144   8.166 -1.0021  0.7160 -1.9936
 1476TIP3    H226064   3.226   4.273   8.221  0.2806 -0.5109  2.6923
 1477TIP3   OH226065   5.978   2.625   2.112 -0.3269  0.3756  0.3597
 1477TIP3    H126066   5.907   2.571   2.076 -0.1589 -0.6458  1.5111
 1477TIP3    H226067   5.939   2.712   2.123 -0.4212  0.7211 -2.1279
 1478TIP3   OH226068   0.818   5.262   0.336  0.4558 -0.6930  0.1536
 1478TIP3    H126069   0.890   5.202   0.316  1.1444 -0.2018  1.0538
 1478TIP3    H226070   0.779   5.227   0.416  0.0921 -0.6108  0.0129
 1479TIP3   OH226071   0.232   1.729   1.206 -0.3691  0.0473 -0.3029
 1479TIP3    H126072   0.233   1.635   1.222  1.9040  0.4633  2.8549
 1479TIP3    H226073   0.139   1.751   1.198 -0.9961 -2.3140 -0.2205
 1480TIP3   OH226074   3.901   2.365   0.644 -0.2637 -0.2298 -0.0677
 1480TIP3    H126075   3.950   2.354   0.562 -1.2661  0.1072 -0.7232
 1480TIP3    H226076   3.866   2.453   0.639 -0.9931 -0.4893  0.3586
 1481TIP3   OH226077   2.686   2.239   8.480  0.0793 -0.5153 -0.0488
 1481TIP3    H126078   2.614   2.207   8.426  1.3353 -1.9552 -0.9524
 1481TIP3    H226079   2.749   2.167   8.481  0.7580  0.0370  2.1369
 1482TIP3   OH226080   0.102   0.938   1.457  0.1864  0.3407 -0.1967
 1482TIP3    H126081   0.122   0.937   1.551 -2.4571  1.0354  0.4446
 1482TIP3    H226082   0.006   0.935   1.453  0.2609 -0.7468 -2.9213
 1483TIP3   OH226083   1.320   5.234   8.683 -0.1244 -0.2945 -0.1340
 1483TIP3    H126084   1.371   5.237   8.764 -0.0915 -1.6620 -0.0811
 1483TIP3    H226085   1.374   5.280   8.619  1.1206 -1.5525 -0.0313
 1484TIP3   OH226086   0.865   3.114   1.380 -0.5484  0.3136 -0.6046
 1484TIP3    H126087   0.780   3.106   1.337 -0.4484 -0.1807 -0.7182
 1484TIP3    H226088   0.849   3.173   1.454 -1.4565 -1.2980  0.5590
 1485TIP3   OH226089   6.215   4.304   2.392 -0.6334 -0.0637  0.5043
 1485TIP3    H126090   6.184   4.233   2.336 -1.6744  2.0600 -1.7984
 1485TIP3    H226091   6.298   4.331   2.354 -1.0363  0.9810  0.3247
 1486TIP3   OH226092   1.009   5.554   1.377  0.0791 -0.0024  0.4278
 1486TIP3    H126093   0.978   5.476   1.423  0.6264 -1.2291 -1.1879
 1486TIP3    H226094   1.074   5.593   1.436 -0.0526 -0.8664  1.1726
 1487TIP3   OH226095   4.136   1.272   0.389  0.0558 -0.1505 -0.2075
 1487TIP3    H126096   4.137   1.312   0.302 -0.8130  2.2286  0.7807
 1487TIP3    H226097   4.051   1.296   0.425  1.2215  0.8912  2.1016
 1488TIP3   OH226098   3.237   6.344   1.034  0.0569 -0.3646 -0.3627
 1488TIP3    H126099   3.186   6.361   1.113 -0.5458  0.4274 -0.8936
 1488TIP3    H226100   3.174   6.356   0.962  0.9378  0.4399 -1.0287
 1489TIP3   OH226101   2.517   0.218   8.056  0.0444  0.1419 -0.4901
 1489TIP3    H126102   2.433   0.226   8.101 -0.2329  3.9224 -1.2860
 1489TIP3    H226103   2.577   0.187   8.123 -1.7396 -1.6664  0.3720
 1490TIP3   OH226104   4.905   0.611   2.616  0.2239  0.6694  0.1329
 1490TIP3    H126105   4.917   0.661   2.536  1.9057  0.7018  0.3859
 1490TIP3    H226106   4.960   0.534   2.605 -2.3203 -1.2599 -0.2671
 1491TIP3   OH226107   2.755   6.784   0.566 -0.1086  0.3734 -0.3381
 1491TIP3    H126108   2.769   6.691   0.548 -2.0747  0.3074 -1.9401
 1491TIP3    H226109   2.805   6.829   0.498  1.1812  0.5305  0.6907
 1492TIP3   OH226110   6.021   0.166   3.079  0.2024 -0.0448  0.4703
 1492TIP3    H126111   6.004   0.260   3.077  2.3572  0.3840 -0.3357
 1492TIP3    H226112   6.099   0.156   3.134 -0.2371 -1.4352  0.9122
 1493TIP3   OH226113   3.132   2.386   1.348 -0.1913  0.0978 -0.1786
 1493TIP3    H126114   3.200   2.388   1.280  0.5991  0.7953  0.6167
 1493TIP3    H226115   3.180   2.396   1.430 -1.0113 -1.8185  0.5936
 1494TIP3   OH226116   6.394   5.416   1.289  0.0015  0.3318 -0.3537
 1494TIP3    H126117   6.431   5.335   1.256  1.7519  1.7801 -2.2743
 1494TIP3    H226118   6.462   5.454   1.344 -0.7851  0.5104  0.5165
 1495TIP3   OH226119   6.090   5.346   8.632 -0.2851 -0.1553 -0.3555
 1495TIP3    H126120   6.022   5.280   8.647  2.8148 -2.8846  3.9832
 1495TIP3    H226121   6.133   5.318   8.551 -1.9078 -0.5953 -1.1024
 1496TIP3   OH226122   0.387   5.086   1.065  0.1373 -0.0205 -0.1136
 1496TIP3    H126123   0.374   5.066   1.158 -1.0787  0.6032 -0.1223
 1496TIP3    H226124   0.299   5.109   1.033  0.4936 -0.4428 -1.4766
 1497TIP3   OH226125   2.147   4.989   1.157  0.3583  0.5208  0.4793
 1497TIP3    H126126   2.094   5.002   1.236 -0.3394 -3.1010  0.7795
 1497TIP3    H226127   2.099   5.034   1.088 -2.6915 -1.6864  0.9482
 1498TIP3   OH226128   5.284   2.370   8.278  0.5099  0.2029  0.0976
 1498TIP3    H126129   5.349   2.338   8.215  1.4673  1.2127  0.5586
 1498TIP3    H226130   5.334   2.388   8.357 -0.3711  0.8277  0.5206
 1499TIP3   OH226131   2.179   1.157   2.620  0.3500 -0.6276  0.2532
 1499TIP3    H126132   2.106   1.202   2.663 -0.6562 -2.7919  0.9451
 1499TIP3    H226133   2.218   1.103   2.688 -0.0117 -2.5989 -1.0310
 1500TIP3   OH226134   2.278   5.996   2.805 -0.0745  0.5722  0.0464
 1500TIP3    H126135   2.331   5.923   2.837  0.3916  0.0349 -1.8707
 1500TIP3    H226136   2.339   6.070   2.800  0.0420  0.4460 -0.3767
 1501TIP3   OH226137   6.114   0.299   8.315  0.0002 -0.3364  0.1746
 1501TIP3    H126138   6.196   0.264   8.350  0.3243  1.1525  0.9755
 1501TIP3    H226139   6.140   0.348   8.238 -0.5323 -2.2871 -1.3350
 1502TIP3   OH226140   2.293   0.457   2.561 -0.1380  0.1025 -0.4171
 1502TIP3    H126141   2.215   0.447   2.616  0.0888 -0.9456 -0.2614
 1502TIP3    H226142   2.269   0.415   2.478  0.8939 -2.0379  0.2940
 1503TIP3   OH226143   3.659   6.265   1.195  0.4334 -0.2797 -0.7056
 1503TIP3    H126144   3.652   6.333   1.128 -0.3077  0.1140 -0.2388
 1503TIP3    H226145   3.753   6.258   1.212  0.7256 -0.9882 -2.3809
 1504TIP3   OH226146   5.018   4.840   7.446 -0.1110  0.3473 -0.0221
 1504TIP3    H126147   4.933   4.842   7.402 -0.6297  1.0352  0.9752
 1504TIP3    H226148   5.043   4.748   7.447 -0.8736  0.1304 -0.2604
 1505TIP3   OH226149   2.997   6.171   1.435  0.1943  0.1964  0.1410
 1505TIP3    H126150   3.084   6.187   1.472 -0.7738  1.0905  2.2174
 1505TIP3    H226151   2.941   6.157   1.512 -1.2692 -1.7823 -1.1676
 1506TIP3   OH226152   0.920   2.110   2.790  0.0124 -0.5027  0.2181
 1506TIP3    H126153   0.976   2.113   2.712 -1.4476 -1.2605 -0.9001
 1506TIP3    H226154   0.834   2.137   2.758 -0.6061 -0.8115  1.5824
 1507TIP3   OH226155   2.657   1.773   3.963  0.2254 -0.1503 -0.0004
 1507TIP3    H126156   2.742   1.728   3.956 -0.1286 -0.7670 -0.4575
 1507TIP3    H226157   2.599   1.722   3.907  0.2127  1.9104 -2.0240
 1508TIP3   OH226158   0.266   6.492   1.692  0.1954  0.0832 -0.5996
 1508TIP3    H126159   0.259   6.500   1.788 -1.9347  0.1047 -0.7015
 1508TIP3    H226160   0.355   6.461   1.677  1.0211  1.3399  1.2956
 1509TIP3   OH226161   0.088   4.278   2.174  0.1699 -0.2726  0.4544
 1509TIP3    H126162   0.107   4.321   2.091 -2.0726 -0.3664 -0.1535
 1509TIP3    H226163   0.127   4.336   2.240  2.0697 -0.2508 -0.6019
 1510TIP3   OH226164   4.604   3.076   8.449  0.0224 -0.8030 -0.2223
 1510TIP3    H126165   4.672   3.120   8.499 -0.0449 -0.9200 -0.0287
 1510TIP3    H226166   4.529   3.072   8.508 -0.0585 -0.9374 -0.3332
 1511TIP3   OH226167   4.372   5.422   8.849  0.3927 -0.1592  0.1398
 1511TIP3    H126168   4.415   5.503   8.823  0.8292  0.6012  2.9021
 1511TIP3    H226169   4.307   5.449   8.913 -0.2295 -1.9053  0.3111
 1512TIP3   OH226170   2.904   4.390   2.270  0.2592  0.0170 -1.0602
 1512TIP3    H126171   2.946   4.326   2.326  1.3786 -0.3358 -2.2510
 1512TIP3    H226172   2.963   4.399   2.195 -0.0584  2.1361 -1.1280
 1513TIP3   OH226173   0.037   6.258   2.266 -0.3873  0.0466 -0.5330
 1513TIP3    H126174   0.047   6.226   2.355  0.3550  0.6993 -0.3753
 1513TIP3    H226175   0.042   6.353   2.273 -1.6666  0.1859 -1.1119
 1514TIP3   OH226176   2.336   2.432   8.836  0.7365 -0.1986 -0.0114
 1514TIP3    H126177   2.413   2.463   8.789  0.3347  1.9698  0.6578
 1514TIP3    H226178   2.370   2.397   8.918  1.0099  1.4263  0.6091
 1515TIP3   OH226179   4.476   0.144   7.428  0.1336 -0.6460 -0.0771
 1515TIP3    H126180   4.475   0.217   7.490 -0.4769 -2.3482  2.0108
 1515TIP3    H226181   4.568   0.119   7.421  0.5287  0.9878 -1.7508
 1516TIP3   OH226182   0.914   2.414   1.527  0.1439 -0.0193  0.0151
 1516TIP3    H126183   0.920   2.475   1.453 -2.5747 -0.8297 -1.0105
 1516TIP3    H226184   0.898   2.470   1.603 -1.6923  0.6606 -0.8150
 1517TIP3   OH226185   2.769   0.873   0.226  0.0540 -0.2700  0.1430
 1517TIP3    H126186   2.742   0.835   0.310 -1.0868 -0.9780 -0.5044
 1517TIP3    H226187   2.686   0.900   0.185  0.5693 -0.1526 -0.8434
 1518TIP3   OH226188   6.207   2.299   2.572 -0.3045  0.0183  0.5327
 1518TIP3    H126189   6.212   2.375   2.515  2.0247 -0.4637 -0.0102
 1518TIP3    H226190   6.247   2.328   2.654  0.8909 -0.6699  0.2162
 1519TIP3   OH226191   5.300   3.729   2.382 -0.1793  0.4994 -0.1264
 1519TIP3    H126192   5.343   3.725   2.467 -2.5907  0.7322  1.1856
 1519TIP3    H226193   5.279   3.822   2.371 -0.3017  0.3983 -0.7826
 1520TIP3   OH226194   0.218   4.263   0.485 -0.3199 -0.3704 -0.3457
 1520TIP3    H126195   0.313   4.256   0.483 -0.3029 -1.0041  1.1754
 1520TIP3    H226196   0.187   4.173   0.480 -0.8178 -0.1984 -0.3900
 1521TIP3   OH226197   1.323   1.564   1.428  0.8320 -0.1689 -0.1264
 1521TIP3    H126198   1.302   1.510   1.351 -1.2011 -0.0351  0.2729
 1521TIP3    H226199   1.286   1.650   1.407  2.6439  0.6576 -0.0913
 1522TIP3   OH226200   0.920   3.908   8.204  0.3214 -0.1364 -0.1706
 1522TIP3    H126201   0.852   3.968   8.234 -1.3059 -2.2068  0.5430
 1522TIP3    H226202   0.914   3.833   8.263  1.3625 -1.5772 -1.7947
 1523TIP3   OH226203   5.344   3.876   1.440 -0.4643  0.2792  0.3762
 1523TIP3    H126204   5.367   3.819   1.513  0.4871  0.8403  0.5384
 1523TIP3    H226205   5.307   3.818   1.374 -0.8713 -0.3056  1.1015
 1524TIP3   OH226206   1.151   5.200   8.451 -0.5581  0.0976  0.4539
 1524TIP3    H126207   1.225   5.148   8.418 -1.1089  0.5768 -1.6611
 1524TIP3    H226208   1.169   5.209   8.544  1.0755 -1.3908  0.3533
 1525TIP3   OH226209   1.034   5.617   0.349  0.4130 -0.2264  0.0241
 1525TIP3    H126210   0.998   5.604   0.436  0.2842  1.0760  0.1911
 1525TIP3    H226211   0.963   5.593   0.289 -0.4011  1.2615  0.3375
 1526TIP3   OH226212   3.685   2.786   1.941  0.9130  0.1166 -0.2717
 1526TIP3    H126213   3.765   2.806   1.990  0.0248 -0.3158  1.4010
 1526TIP3    H226214   3.649   2.872   1.917  2.0930  0.3130 -1.4511
 1527TIP3   OH226215   4.529   5.976   0.343  0.3392  0.1566  0.0124
 1527TIP3    H126216   4.464   5.908   0.363 -0.6169  1.2157  0.6773
 1527TIP3    H226217   4.487   6.031   0.277  1.2346 -0.0709 -0.7642
 1528TIP3   OH226218   4.175   1.242   2.347  0.1491 -0.5359  0.1671
 1528TIP3    H126219   4.113   1.314   2.342 -0.3707 -0.9474  0.5354
 1528TIP3    H226220   4.122   1.163   2.335  1.0276 -0.7890 -2.8374
 1529TIP3   OH226221   0.116   5.586   0.835  0.3587 -0.2407 -0.0879
 1529TIP3    H126222   0.048   5.636   0.879  1.6587  2.4486 -0.9123
 1529TIP3    H226223   0.193   5.596   0.891  0.9804 -0.2341 -0.9213
 1530TIP3   OH226224   5.458   3.458   1.153  0.1077  0.3403 -0.6504
 1530TIP3    H126225   5.505   3.528   1.199  0.4569 -0.3857  0.1218
 1530TIP3    H226226   5.375   3.450   1.200  0.2204 -0.0046 -0.5071
 1531TIP3   OH226227   2.848   6.344   8.332 -0.0842  0.0211 -0.8017
 1531TIP3    H126228   2.753   6.347   8.346  0.0453 -0.4403  0.2659
 1531TIP3    H226229   2.876   6.264   8.377  0.8839  0.4524 -0.6168
 1532TIP3   OH226230   4.416   6.504   2.163 -0.1450 -0.2683 -0.3661
 1532TIP3    H126231   4.431   6.410   2.177 -1.2914 -0.3010  0.9019
 1532TIP3    H226232   4.490   6.547   2.206  0.3375 -0.5811 -0.8692
 1533TIP3   OH226233   2.979   0.998   0.839  0.3124 -0.0891  0.1086
 1533TIP3    H126234   2.919   1.042   0.779  0.9802  0.2504 -0.3259
 1533TIP3    H226235   2.933   0.919   0.865 -0.4002  0.2602 -0.0653
 1534TIP3   OH226236   5.826   5.876   7.594 -0.5460  0.2580 -0.1096
 1534TIP3    H126237   5.805   5.842   7.507  0.3876  0.9789 -0.6346
 1534TIP3    H226238   5.763   5.946   7.608 -0.5274  0.3235 -0.3347
 1535TIP3   OH226239   4.799   4.662   3.247 -0.4624  0.5712 -0.0619
 1535TIP3    H126240   4.812   4.572   3.277 -2.4346  0.2574 -0.0243
 1535TIP3    H226241   4.823   4.660   3.155 -1.4807 -0.2836 -0.3310
 1536TIP3   OH226242   2.733   4.020   8.039  0.0642 -0.4717 -0.8501
 1536TIP3    H126243   2.650   4.005   7.994 -0.8365 -1.7645  1.0901
 1536TIP3    H226244   2.785   3.942   8.020  0.0085 -0.6323 -0.3557
 1537TIP3   OH226245   1.737   3.009   2.154  0.9092 -0.2617  0.2044
 1537TIP3    H126246   1.714   3.066   2.080 -2.0057  0.3203  1.3885
 1537TIP3    H226247   1.832   3.007   2.154  1.2034  3.9101 -0.4999
 1538TIP3   OH226248   5.819   0.024   2.721  0.2324  0.2569  0.0070
 1538TIP3    H126249   5.773   0.033   2.804  0.2141  0.0342  0.0233
 1538TIP3    H226250   5.904   0.067   2.735  0.8962 -1.2068  0.6889
 1539TIP3   OH226251   3.148   2.356   3.720 -0.4273  0.0822 -0.0422
 1539TIP3    H126252   3.134   2.428   3.783 -0.0161 -0.0257  0.1732
 1539TIP3    H226253   3.095   2.284   3.754  0.5103 -0.2784  0.6938
 1540TIP3   OH226254   1.899   5.307   8.584 -0.4970 -0.2126  0.2434
 1540TIP3    H126255   1.954   5.280   8.658 -2.3046 -2.5380  0.8459
 1540TIP3    H226256   1.868   5.394   8.607 -0.6066 -0.6904  2.0124
 1541TIP3   OH226257   5.220   6.548   2.311 -0.7256  0.1910 -0.1476
 1541TIP3    H126258   5.242   6.497   2.388 -0.4676  0.3798 -0.0936
 1541TIP3    H226259   5.135   6.587   2.332 -1.0598 -0.4402 -0.3063
 1542TIP3   OH226260   6.131   4.176   1.408  0.1932 -0.3310  0.1551
 1542TIP3    H126261   6.148   4.238   1.337 -0.1705 -0.9715 -0.4974
 1542TIP3    H226262   6.141   4.090   1.368  2.8514 -0.7766  1.5206
 1543TIP3   OH226263   0.354   3.417   8.155 -0.2663  0.3123  0.4443
 1543TIP3    H126264   0.346   3.469   8.075 -0.3659 -3.3902 -2.2746
 1543TIP3    H226265   0.431   3.361   8.139 -1.5378 -2.0274  1.9390
 1544TIP3   OH226266   2.786   3.231   0.633  0.5778 -0.1404 -0.1771
 1544TIP3    H126267   2.830   3.300   0.582 -0.3694 -0.9913 -2.2602
 1544TIP3    H226268   2.714   3.203   0.577 -0.8271 -0.8362  1.8821
 1545TIP3   OH226269   2.819   6.279   2.439 -0.0860 -0.0396 -0.5003
 1545TIP3    H126270   2.827   6.297   2.533 -2.2852 -0.0895 -0.2489
 1545TIP3    H226271   2.909   6.281   2.407  0.6222  1.3060  1.3541
 1546TIP3   OH226272   1.569   2.958   8.361 -0.4558  0.0034  0.0426
 1546TIP3    H126273   1.504   2.956   8.431 -0.9034  1.2661 -0.3105
 1546TIP3    H226274   1.521   2.932   8.283  0.0824 -1.5730  0.2005
 1547TIP3   OH226275   2.882   6.474   2.176  0.2442 -0.1550 -0.0452
 1547TIP3    H126276   2.889   6.381   2.197 -0.4157 -0.4612 -1.1016
 1547TIP3    H226277   2.965   6.512   2.206  0.0804 -0.8643  1.3988
 1548TIP3   OH226278   1.812   4.635   2.675 -0.3091 -0.5656 -0.8814
 1548TIP3    H126279   1.864   4.644   2.755 -0.1899  1.3889 -1.1252
 1548TIP3    H226280   1.869   4.671   2.606 -1.3519  0.0893 -1.4201
 1549TIP3   OH226281   1.363   2.728   2.172  0.4335 -0.0139  0.4926
 1549TIP3    H126282   1.425   2.799   2.187  0.1443  0.6349 -1.1538
 1549TIP3    H226283   1.325   2.711   2.258  2.9905 -0.5729  1.6149
 1550TIP3   OH226284   0.652   6.530   1.550 -0.3021  0.0524  0.3844
 1550TIP3    H126285   0.741   6.565   1.552 -0.1896 -0.1822  3.0190
 1550TIP3    H226286   0.596   6.606   1.567 -0.5519  0.0344 -0.3235
 1551TIP3   OH226287   1.808   6.105   7.645  0.1062  0.6671  0.3840
 1551TIP3    H126288   1.795   6.189   7.690 -1.1516  0.0375  1.2620
 1551TIP3    H226289   1.723   6.062   7.651  0.5699 -0.4267 -0.5967
 1552TIP3   OH226290   1.503   0.351   3.083 -0.3581  0.2297  0.1612
 1552TIP3    H126291   1.451   0.423   3.117  1.6225  1.4328  0.8147
 1552TIP3    H226292   1.574   0.341   3.146  0.4966 -1.0043 -0.9329
 1553TIP3   OH226293   4.944   1.538   8.420  0.4309  0.3470  0.4276
 1553TIP3    H126294   4.898   1.585   8.351  0.4347 -0.3737 -0.0868
 1553TIP3    H226295   4.978   1.459   8.376  0.6903  0.0269  1.1840
 1554TIP3   OH226296   2.769   2.006   0.663  0.5157 -0.2475 -0.2338
 1554TIP3    H126297   2.716   2.003   0.743  1.7143  0.6553  0.6418
 1554TIP3    H226298   2.810   1.920   0.659 -0.4183 -0.6948 -0.5154
 1555TIP3   OH226299   2.733   0.725   1.364 -0.1164  0.0822 -0.6300
 1555TIP3    H126300   2.730   0.630   1.353 -1.1485 -0.5642  3.5126
 1555TIP3    H226301   2.823   0.743   1.391 -0.5998 -0.2536  1.3753
 1556TIP3   OH226302   0.164   4.890   8.958  0.0114 -0.1471 -0.1470
 1556TIP3    H126303   0.159   4.896   8.863  1.7210 -1.3123 -0.3476
 1556TIP3    H226304   0.245   4.935   8.981  0.7001 -1.6808  0.5333
 1557TIP3   OH226305   5.048   3.038   2.425 -0.5800  0.3871  0.0161
 1557TIP3    H126306   4.988   3.109   2.404 -1.0268  0.0807  0.2589
 1557TIP3    H226307   5.057   3.041   2.521 -0.4409  0.2479  0.0085
 1558TIP3   OH226308   5.582   2.670   8.450 -0.2604 -0.5377  0.5347
 1558TIP3    H126309   5.578   2.675   8.354 -0.9105 -3.3730  0.3456
 1558TIP3    H226310   5.675   2.663   8.470 -0.2005 -1.3819 -0.0065
 1559TIP3   OH226311   4.645   6.070   0.062  0.0288 -0.0653 -0.0023
 1559TIP3    H126312   4.715   6.134   0.055  0.5022 -0.6545 -0.8055
 1559TIP3    H226313   4.564   6.122   0.061  0.3984  0.5044 -0.8488
 1560TIP3   OH226314   6.499   2.941   3.775  0.0783 -0.6616 -0.5322
 1560TIP3    H126315   6.583   2.946   3.820 -0.1965  1.5714 -0.1103
 1560TIP3    H226316   6.498   3.018   3.718 -1.4780 -0.8989 -0.8750
 1561TIP3   OH226317   2.402   4.508   2.006  0.5542  0.0609  0.1083
 1561TIP3    H126318   2.336   4.572   1.980  0.7268  0.5847  0.9285
 1561TIP3    H226319   2.469   4.559   2.050  0.8468 -0.6477  0.5063
 1562TIP3   OH226320   0.123   1.884   2.435  0.3346 -0.0597  0.1317
 1562TIP3    H126321   0.051   1.821   2.448 -0.6278  0.7954 -0.8606
 1562TIP3    H226322   0.113   1.946   2.507 -1.7273  1.6572 -1.4895
 1563TIP3   OH226323   4.922   3.414   8.440  0.2415  0.3113  0.3473
 1563TIP3    H126324   4.887   3.421   8.351  0.0200 -0.8252  0.3287
 1563TIP3    H226325   4.847   3.431   8.497  0.0928 -0.1791  0.3064
 1564TIP3   OH226326   6.408   2.261   1.171  0.9330 -0.0741  0.4770
 1564TIP3    H126327   6.422   2.167   1.180 -0.5952 -0.3565  0.2882
 1564TIP3    H226328   6.397   2.292   1.261  1.2346 -0.1043  0.5260
 1565TIP3   OH226329   4.607   0.239   8.321 -0.5769 -0.0459 -0.4103
 1565TIP3    H126330   4.649   0.296   8.385 -0.5936  0.7605 -1.1076
 1565TIP3    H226331   4.673   0.172   8.302 -0.3778  0.0158  0.0380
 1566TIP3   OH226332   0.829   0.674   0.800 -0.7248 -1.0074  0.1375
 1566TIP3    H126333   0.855   0.665   0.892  1.4210  3.3246  0.2261
 1566TIP3    H226334   0.747   0.725   0.803 -0.6810 -0.9006 -0.3548
 1567TIP3   OH226335   3.624   2.543   7.839 -0.6121 -0.1145  0.1981
 1567TIP3    H126336   3.602   2.605   7.769  2.5271  0.3104 -0.5447
 1567TIP3    H226337   3.708   2.506   7.814 -1.3275 -3.1230  1.7413
 1568TIP3   OH226338   5.411   0.752   8.311 -0.1065 -0.1317 -0.0928
 1568TIP3    H126339   5.443   0.839   8.332  1.7232 -0.9559  0.7433
 1568TIP3    H226340   5.317   0.763   8.300 -0.0141  1.8053  0.6974
 1569TIP3   OH226341   6.516   1.215   2.950 -1.1775  0.0392 -0.1400
 1569TIP3    H126342   6.453   1.216   2.878  0.4675  0.3466 -1.6204
 1569TIP3    H226343   6.544   1.124   2.957  1.2884  0.5184 -2.3443
 1570TIP3   OH226344   2.432   1.792   1.094 -0.8247 -0.2757  0.0335
 1570TIP3    H126345   2.382   1.762   1.170  1.5101  2.2752  2.8258
 1570TIP3    H226346   2.387   1.872   1.066  0.8007  1.3912  1.8423
 1571TIP3   OH226347   1.123   5.244   1.968 -0.6881 -0.4774  0.0761
 1571TIP3    H126348   1.096   5.153   1.976 -0.3785 -0.5744  0.0380
 1571TIP3    H226349   1.044   5.295   1.987 -0.8806 -0.7546  0.0156
 1572TIP3   OH226350   0.578   2.643   8.693  0.2617  0.1202  0.1912
 1572TIP3    H126351   0.535   2.638   8.608  0.5300 -1.5158  0.1242
 1572TIP3    H226352   0.596   2.552   8.717  1.2221  0.6121  1.4731
 1573TIP3   OH226353   1.000   2.086   1.904 -0.8194  0.2163  0.5160
 1573TIP3    H126354   1.022   2.176   1.882  0.5080 -0.5631 -1.6315
 1573TIP3    H226355   0.920   2.068   1.854 -1.8298  0.5323  1.9404
 1574TIP3   OH226356   1.617   3.487   0.188  0.7696 -0.4026  0.0289
 1574TIP3    H126357   1.612   3.445   0.274  0.9546 -1.1436 -0.3147
 1574TIP3    H226358   1.569   3.427   0.130  0.2635  0.3088 -0.3046
 1575TIP3   OH226359   3.831   3.340   0.295 -0.6681  0.1887 -0.2164
 1575TIP3    H126360   3.793   3.286   0.364 -0.0476 -0.8744 -0.6940
 1575TIP3    H226361   3.766   3.409   0.280 -1.5948 -0.5785  0.2090
 1576TIP3   OH226362   3.742   2.030   0.584  0.1910  0.0910  0.1896
 1576TIP3    H126363   3.753   1.937   0.607  0.0762  0.4438  1.8287
 1576TIP3    H226364   3.815   2.074   0.628 -0.4864  0.9208  0.5026
 1577TIP3   OH226365   3.612   5.261   0.476  0.1497  0.6143  0.2996
 1577TIP3    H126366   3.599   5.350   0.443  1.0829  0.0448 -1.7163
 1577TIP3    H226367   3.696   5.264   0.522  1.1814  0.3568 -1.4942
 1578TIP3   OH226368   5.161   2.741   8.783 -0.4405  0.3558  0.3700
 1578TIP3    H126369   5.181   2.668   8.842 -0.6826  0.0848  0.1217
 1578TIP3    H226370   5.246   2.775   8.757 -0.2488 -1.3354 -1.3669
 1579TIP3   OH226371   1.376   2.158   8.447 -0.2577  0.6217 -0.7487
 1579TIP3    H126372   1.360   2.227   8.382 -1.6506  0.8489 -0.1883
 1579TIP3    H226373   1.447   2.193   8.501  1.6347  0.0216 -2.6732
 1580TIP3   OH226374   1.930   0.103   2.353 -0.3848 -0.2061 -0.0803
 1580TIP3    H126375   1.874   0.177   2.327  0.3403 -0.1493 -1.5972
 1580TIP3    H226376   1.975   0.078   2.272  0.5220 -1.3318  0.7471
 1581TIP3   OH226377   6.395   3.380   8.276 -0.0348  0.1541  0.4267
 1581TIP3    H126378   6.487   3.384   8.250 -0.4520 -1.2881 -1.4928
 1581TIP3    H226379   6.347   3.363   8.195 -1.9030 -0.1756  1.5213
 1582TIP3   OH226380   5.840   3.776   1.259 -0.6041  0.6780 -0.4380
 1582TIP3    H126381   5.757   3.759   1.215  0.0197  0.4434 -1.5568
 1582TIP3    H226382   5.826   3.746   1.349 -1.1767 -1.0316 -1.0607
 1583TIP3   OH226383   3.522   0.353   1.295 -0.0825  0.2053  0.0182
 1583TIP3    H126384   3.612   0.380   1.273 -0.1304  1.9649  1.7575
 1583TIP3    H226385   3.523   0.343   1.390 -2.0181  1.4326  0.2039
 1584TIP3   OH226386   2.208   0.506   1.511  0.0206 -0.1986 -0.7429
 1584TIP3    H126387   2.118   0.514   1.480  0.0737 -0.0327 -0.8527
 1584TIP3    H226388   2.261   0.535   1.437  0.2231 -1.8424 -1.2813
 1585TIP3   OH226389   4.491   6.617   2.868  0.7057  0.5104 -0.6024
 1585TIP3    H126390   4.552   6.667   2.921 -0.1675  2.0726 -1.0178
 1585TIP3    H226391   4.509   6.525   2.890  1.8179  1.0310  0.7462
 1586TIP3   OH226392   3.310   5.533   0.373 -0.0616 -0.3301 -0.8210
 1586TIP3    H126393   3.301   5.525   0.468  2.7765 -0.3008 -0.4462
 1586TIP3    H226394   3.376   5.602   0.362  0.2344 -0.8785 -2.7996
 1587TIP3   OH226395   3.728   3.989   2.638 -0.7851 -0.1464 -0.1763
 1587TIP3    H126396   3.685   3.932   2.702  1.0667 -1.7442 -0.2628
 1587TIP3    H226397   3.816   4.001   2.673 -0.0948 -0.1298 -1.8612
 1588TIP3   OH226398   6.396   3.054   1.354  0.4578 -0.8526  0.2098
 1588TIP3    H126399   6.401   3.006   1.272  0.9246 -0.6480  0.1137
 1588TIP3    H226400   6.454   3.129   1.341 -1.0227  0.3032 -0.0182
 1589TIP3   OH226401   3.370   1.481   1.305 -0.6960  0.5389 -0.0118
 1589TIP3    H126402   3.460   1.470   1.333 -0.6752 -0.2701 -0.3657
 1589TIP3    H226403   3.324   1.403   1.337 -0.7017 -0.3469 -2.0122
 1590TIP3   OH226404   1.626   2.451   3.279  0.2463  0.5359  0.2763
 1590TIP3    H126405   1.626   2.546   3.284 -0.7912  0.5448  0.5097
 1590TIP3    H226406   1.605   2.422   3.368  1.6170  0.0492  0.4609
 1591TIP3   OH226407   5.288   4.720   7.983 -0.1267 -0.6583  0.2959
 1591TIP3    H126408   5.344   4.760   7.916 -0.3360 -1.4041 -0.3441
 1591TIP3    H226409   5.230   4.662   7.933 -1.6950  0.3273  0.9033
 1592TIP3   OH226410   6.193   1.406   1.122 -0.1163 -0.4040 -0.4324
 1592TIP3    H126411   6.257   1.338   1.102 -1.4011 -1.4426 -1.1061
 1592TIP3    H226412   6.132   1.364   1.184 -1.0698  0.0350 -1.0551
 1593TIP3   OH226413   0.146   4.975   0.440  0.4144 -0.4454 -0.3321
 1593TIP3    H126414   0.139   4.902   0.501  0.9082 -0.0457  0.2153
 1593TIP3    H226415   0.231   5.013   0.458  1.2660 -1.2634 -2.3502
 1594TIP3   OH226416   6.034   1.400   8.970  0.0993 -0.5559  0.3027
 1594TIP3    H126417   6.018   1.476   9.026 -1.6593 -1.2719  0.8442
 1594TIP3    H226418   6.105   1.353   9.014  2.0705  1.3109 -0.6720
 1595TIP3   OH226419   6.114   6.184   0.754  0.4409 -0.2977  1.2742
 1595TIP3    H126420   6.170   6.119   0.796  2.5380 -0.1487 -1.0674
 1595TIP3    H226421   6.167   6.263   0.749 -0.9760  0.7000  1.3822
 1596TIP3   OH226422   3.775   3.127   1.000 -0.3533  0.2958  0.2714
 1596TIP3    H126423   3.709   3.061   0.976  0.0828 -1.1579  2.7687
 1596TIP3    H226424   3.855   3.076   1.013  0.8753  1.8134 -0.9799
 1597TIP3   OH226425   3.337   6.558   8.273  0.3932 -0.3058  0.2378
 1597TIP3    H126426   3.372   6.642   8.241 -0.5247  0.0043  0.0264
 1597TIP3    H226427   3.269   6.535   8.210  0.7841 -1.3248  0.1851
 1598TIP3   OH226428   6.426   3.958   0.909 -0.5624  0.1011  0.2299
 1598TIP3    H126429   6.403   3.894   0.842 -1.7065  0.9329 -0.1993
 1598TIP3    H226430   6.374   4.035   0.887  0.0627  0.8432  1.2997
 1599TIP3   OH226431   5.524   0.281   2.877  0.4580  0.0932 -0.1071
 1599TIP3    H126432   5.562   0.309   2.794  1.6245  1.0319  0.7065
 1599TIP3    H226433   5.429   0.284   2.863  0.6250  1.0688 -1.1460
 1600TIP3   OH226434   5.048   4.898   2.195  0.3367  0.2069  0.5404
 1600TIP3    H126435   4.971   4.857   2.156  0.9285  0.2872 -0.7963
 1600TIP3    H226436   5.049   4.868   2.286 -1.6503  0.7804  0.7972
 1601TIP3   OH226437   1.231   2.776   8.353 -0.0999  0.6316  1.0019
 1601TIP3    H126438   1.160   2.838   8.335  0.5537  1.9906  2.8674
 1601TIP3    H226439   1.187   2.697   8.385 -0.9966 -0.3070 -2.2004
 1602TIP3   OH226440   6.359   4.464   1.440  0.2469  0.6823 -0.2290
 1602TIP3    H126441   6.357   4.443   1.346 -0.5010 -1.1843  0.1589
 1602TIP3    H226442   6.268   4.486   1.462 -0.3164 -2.2100  0.6897
 1603TIP3   OH226443   4.011   4.152   1.302 -0.4483  0.1856  0.1713
 1603TIP3    H126444   4.009   4.149   1.398  1.4518  0.7496  0.2776
 1603TIP3    H226445   3.974   4.238   1.280 -1.9697 -0.4138  0.3128
 1604TIP3   OH226446   5.256   1.500   2.319  0.0440 -0.3265 -0.1349
 1604TIP3    H126447   5.273   1.563   2.390  3.1072  1.2892 -2.1176
 1604TIP3    H226448   5.269   1.414   2.360 -2.2035  0.2592  2.1278
 1605TIP3   OH226449   4.517   3.760   7.893  0.6704 -0.5008 -0.1627
 1605TIP3    H126450   4.450   3.756   7.824 -1.4078  1.1359  1.6179
 1605TIP3    H226451   4.542   3.852   7.896 -0.5539 -0.1693  2.3099
 1606TIP3   OH226452   6.630   4.517   3.195 -0.2518 -0.0450 -0.1599
 1606TIP3    H126453   6.605   4.435   3.152  0.6805  0.2909 -1.4202
 1606TIP3    H226454   6.567   4.581   3.164  1.4894  0.6161 -2.6648
 1607TIP3   OH226455   1.422   4.811   8.182  0.6690 -0.5342  0.2804
 1607TIP3    H126456   1.424   4.739   8.118 -0.7110 -0.4113  0.0827
 1607TIP3    H226457   1.377   4.882   8.138 -0.9298 -0.6703  1.5855
 1608TIP3   OH226458   6.554   6.511   1.698  0.6241 -0.3936  0.2642
 1608TIP3    H126459   6.472   6.552   1.671  0.9170 -0.1771 -0.2907
 1608TIP3    H226460   6.581   6.561   1.775 -0.0535 -0.8277  0.7982
 1609TIP3   OH226461   0.733   1.212   1.202 -0.2173 -0.0503  0.0567
 1609TIP3    H126462   0.813   1.195   1.152 -0.2009 -0.9768  0.3653
 1609TIP3    H226463   0.747   1.297   1.242  0.6962 -0.2713  0.2432
 1610TIP3   OH226464   2.276   3.242   2.814 -0.2542 -0.0410 -0.2241
 1610TIP3    H126465   2.368   3.266   2.816  0.4529 -2.3603 -1.4216
 1610TIP3    H226466   2.260   3.204   2.901 -0.5114  1.6442  0.4972
 1611TIP3   OH226467   3.765   3.379   3.078  0.8486  0.1956  0.1717
 1611TIP3    H126468   3.670   3.373   3.087  0.6637 -0.3714 -1.7580
 1611TIP3    H226469   3.799   3.305   3.127  0.1326 -0.9548 -1.0095
 1612TIP3   OH226470   4.428   1.811   1.351 -0.7911 -0.4253 -0.5398
 1612TIP3    H126471   4.378   1.744   1.398 -1.7347 -0.5951 -1.7339
 1612TIP3    H226472   4.367   1.845   1.286  0.5127 -0.3264 -1.7743
 1613TIP3   OH226473   6.728   3.420   2.300  0.4524  0.1067  0.2269
 1613TIP3    H126474   6.664   3.466   2.247  0.4433 -0.7442 -0.5375
 1613TIP3    H226475   6.810   3.428   2.251  0.1670 -1.8575 -0.6975
 1614TIP3   OH226476   3.678   4.436   3.197 -0.2691  0.6257 -0.1132
 1614TIP3    H126477   3.616   4.479   3.257 -1.3997  0.2994 -0.9998
 1614TIP3    H226478   3.626   4.367   3.155  1.1595 -0.7712  0.3198
 1615TIP3   OH226479   0.532   5.503   1.339  0.0918 -0.2695  0.5127
 1615TIP3    H126480   0.466   5.471   1.278 -0.5142  0.4098  0.7991
 1615TIP3    H226481   0.613   5.506   1.288 -0.8354  2.5322 -1.0145
 1616TIP3   OH226482   0.235   1.062   2.927 -0.5914 -0.0122 -0.0036
 1616TIP3    H126483   0.294   1.019   2.988  0.9175  1.6302 -0.2092
 1616TIP3    H226484   0.196   1.133   2.978 -0.7368  0.2285 -0.4493
 1617TIP3   OH226485   3.918   0.560   2.159  0.0721  0.0512 -0.5879
 1617TIP3    H126486   3.888   0.605   2.080  0.6758 -2.4722 -2.3964
 1617TIP3    H226487   4.014   0.565   2.154  0.1153 -0.2474 -0.0800
 1618TIP3   OH226488   1.834   2.928   0.935  0.5578  0.5593  0.4239
 1618TIP3    H126489   1.828   2.878   1.016  0.0596  0.8796  0.5926
 1618TIP3    H226490   1.927   2.949   0.926  1.3922 -3.1388 -1.3493
 1619TIP3   OH226491   5.711   4.125   8.260  0.9617 -0.1598 -0.0501
 1619TIP3    H126492   5.694   4.214   8.290  0.4798 -0.1483 -0.3576
 1619TIP3    H226493   5.710   4.130   8.165 -0.4413 -0.7406 -0.0887
 1620TIP3   OH226494   1.291   0.957   1.411 -0.0450 -0.0381  0.1632
 1620TIP3    H126495   1.332   0.892   1.467  1.4238  0.1255 -0.6646
 1620TIP3    H226496   1.332   1.040   1.436  1.2909 -0.0741 -1.6571
 1621TIP3   OH226497   1.793   0.359   0.299 -0.0404  0.2891 -0.0388
 1621TIP3    H126498   1.773   0.431   0.239 -1.3179 -0.9822 -1.2415
 1621TIP3    H226499   1.804   0.283   0.241  0.4879 -0.6332  1.2368
 1622TIP3   OH226500   5.424   6.498   8.924 -0.4917  0.2061 -0.3560
 1622TIP3    H126501   5.452   6.410   8.948 -1.2600  0.3314  1.1121
 1622TIP3    H226502   5.349   6.516   8.980 -1.1042  1.3507 -1.4750
 1623TIP3   OH226503   0.578   1.313   1.003  0.4466  0.0646  0.1899
 1623TIP3    H126504   0.533   1.380   1.054 -0.0510  0.1304 -0.3245
 1623TIP3    H226505   0.599   1.245   1.066  0.0686  0.2591  0.5274
 1624TIP3   OH226506   5.637   0.159   8.180 -0.1669 -0.2911 -0.1526
 1624TIP3    H126507   5.701   0.147   8.251  0.3635 -4.2473 -1.0961
 1624TIP3    H226508   5.558   0.116   8.211  0.2734 -2.6902 -2.0647
 1625TIP3   OH226509   3.377   1.129   0.873  0.2290  0.0146 -0.1563
 1625TIP3    H126510   3.419   1.135   0.958  0.3461 -2.4140  0.0273
 1625TIP3    H226511   3.386   1.037   0.848 -0.1506  0.5740 -2.6216
 1626TIP3   OH226512   2.498   3.119   8.772  0.3829 -0.0437  0.0066
 1626TIP3    H126513   2.456   3.179   8.710  2.6772  2.8100  1.0020
 1626TIP3    H226514   2.435   3.112   8.844  0.2155  1.5985  0.0625
 1627TIP3   OH226515   5.679   4.898   8.668  0.0234 -0.2746  0.2787
 1627TIP3    H126516   5.634   4.829   8.619 -0.2503  0.8061 -1.0539
 1627TIP3    H226517   5.766   4.863   8.687 -0.7779 -1.7478  1.4197
 1628TIP3   OH226518   0.359   1.457   8.083 -0.0802  0.3070 -0.1618
 1628TIP3    H126519   0.407   1.491   8.158 -0.0102 -2.3795  1.1346
 1628TIP3    H226520   0.426   1.417   8.027 -0.1512  2.1401 -1.6350
 1629TIP3   OH226521   5.868   0.474   2.158  0.8641  0.1287 -0.5460
 1629TIP3    H126522   5.829   0.470   2.070  1.5292 -1.2760 -0.8026
 1629TIP3    H226523   5.858   0.385   2.192  3.0025 -0.0480 -0.2716
 1630TIP3   OH226524   4.616   3.562   1.771  0.0606 -0.3245 -0.2998
 1630TIP3    H126525   4.618   3.617   1.692 -0.7690  1.4721  0.8760
 1630TIP3    H226526   4.684   3.496   1.755  1.4369  1.2838 -1.6133
 1631TIP3   OH226527   3.025   4.812   0.679 -0.2032  0.1551  0.0974
 1631TIP3    H126528   2.946   4.843   0.724 -0.5851 -1.5226  0.6734
 1631TIP3    H226529   2.992   4.769   0.600 -0.2174 -2.9356  1.6350
 1632TIP3   OH226530   1.519   3.864   1.708  0.0069 -0.1662  0.3262
 1632TIP3    H126531   1.551   3.781   1.742 -0.1237 -0.2540  0.2369
 1632TIP3    H226532   1.477   3.906   1.783 -0.7293 -0.5815  0.1656
 1633TIP3   OH226533   0.388   4.459   0.650  0.0206  0.2246  0.0804
 1633TIP3    H126534   0.388   4.364   0.654  0.0767  0.2422  0.6288
 1633TIP3    H226535   0.367   4.480   0.559 -1.0033 -0.3086  0.1728
 1634TIP3   OH226536   0.113   4.426   0.181  0.1107 -0.1727 -0.1665
 1634TIP3    H126537   0.196   4.400   0.142 -0.7218 -0.0999 -2.1155
 1634TIP3    H226538   0.051   4.426   0.108 -1.7155 -0.6627  1.2921
 1635TIP3   OH226539   2.464   2.116   7.552  0.0186  0.2477  0.2901
 1635TIP3    H126540   2.529   2.070   7.499 -1.0831  0.1113 -0.9817
 1635TIP3    H226541   2.498   2.206   7.559  0.2724  0.2227 -0.5065
 1636TIP3   OH226542   6.711   2.775   1.753  0.0771  0.2640  0.1306
 1636TIP3    H126543   6.760   2.696   1.774  0.9653  1.0499  1.0872
 1636TIP3    H226544   6.747   2.804   1.669  0.0828 -0.0810  0.0141
 1637TIP3   OH226545   4.107   2.682   8.834  0.4517 -0.4741 -0.5417
 1637TIP3    H126546   4.142   2.676   8.923  1.2503 -0.5802 -0.8547
 1637TIP3    H226547   4.178   2.722   8.783 -0.2151  0.1308 -1.0178
 1638TIP3   OH226548   1.708   0.703   1.699  0.1030 -0.6117 -0.0554
 1638TIP3    H126549   1.755   0.632   1.655  1.3666  0.7154 -0.9256
 1638TIP3    H226550   1.616   0.686   1.681  0.3482 -2.2179  0.0694
 1639TIP3   OH226551   3.621   6.038   8.348  0.0889  0.3351 -0.1486
 1639TIP3    H126552   3.579   5.981   8.412  0.9557 -1.9486 -1.4651
 1639TIP3    H226553   3.696   6.075   8.395  0.2289 -0.6266  0.4178
 1640TIP3   OH226554   2.181   1.818   8.727  0.2648  0.1539 -0.6152
 1640TIP3    H126555   2.135   1.832   8.810  1.1885 -1.3938  0.2200
 1640TIP3    H226556   2.190   1.905   8.689 -2.4242  0.6221 -0.3411
 1641TIP3   OH226557   0.788   2.369   3.146 -0.0580  0.3642  0.5205
 1641TIP3    H126558   0.875   2.330   3.152  0.5661  1.5158 -0.7702
 1641TIP3    H226559   0.803   2.461   3.124 -1.6216  0.4120 -0.5007
 1642TIP3   OH226560   2.773   5.709   8.931  0.5718  0.1902  0.0356
 1642TIP3    H126561   2.810   5.631   8.973  0.7168  0.0505 -0.3477
 1642TIP3    H226562   2.735   5.759   9.003 -0.6451 -0.8362  0.1495
 1643TIP3   OH226563   6.241   4.385   1.202 -0.2951 -0.7023 -0.0396
 1643TIP3    H126564   6.210   4.473   1.178  1.9938 -0.3030 -1.8590
 1643TIP3    H226565   6.189   4.326   1.148 -0.9920 -0.3912  0.2816
 1644TIP3   OH226566   2.987   0.595   0.024 -0.4800 -0.1872  0.2466
 1644TIP3    H126567   2.979   0.542  -0.055 -0.5523 -0.6919  0.5936
 1644TIP3    H226568   2.897   0.606   0.055 -0.6864  1.6639 -0.8098
 1645TIP3   OH226569   1.472   0.616   1.323  0.5054  0.4008  0.2786
 1645TIP3    H126570   1.428   0.576   1.398  0.7681  0.7141  0.6033
 1645TIP3    H226571   1.508   0.542   1.274 -0.9660  0.0866 -0.3788
 1646TIP3   OH226572   5.066   4.488   3.180  0.6058  0.6772 -0.5876
 1646TIP3    H126573   5.059   4.418   3.114  0.6592  1.2435 -1.2013
 1646TIP3    H226574   5.019   4.562   3.142 -0.8409  0.4928  0.7390
 1647TIP3   OH226575   3.059   1.963   3.178 -0.5954 -0.3237  0.2297
 1647TIP3    H126576   3.027   2.008   3.256 -1.4896 -1.6882  0.6959
 1647TIP3    H226577   3.061   1.870   3.203  0.5764 -0.6359 -0.8831
 1648TIP3   OH226578   0.860   3.458   1.311  0.3527 -0.4006  0.1508
 1648TIP3    H126579   0.947   3.451   1.351 -0.4166  0.2451  2.0247
 1648TIP3    H226580   0.810   3.387   1.352 -0.0216 -0.8014 -0.9610
 1649TIP3   OH226581   6.560   1.738   1.112  0.6094 -0.1755 -0.7952
 1649TIP3    H126582   6.554   1.642   1.119 -1.4085  0.0213  1.1462
 1649TIP3    H226583   6.653   1.755   1.097  0.9257 -2.4449 -1.8930
 1650TIP3   OH226584   3.955   6.291   0.662 -0.4813 -0.2465  0.0648
 1650TIP3    H126585   3.898   6.320   0.734 -0.2130 -2.0678  1.0882
 1650TIP3    H226586   3.930   6.200   0.648  0.7636 -0.4594 -0.8977
 1651TIP3   OH226587   4.111   6.237   7.431  0.5757  0.7623  0.5983
 1651TIP3    H126588   4.157   6.177   7.490  1.1196 -0.3716 -0.9324
 1651TIP3    H226589   4.178   6.268   7.370 -0.2903  0.6320 -0.4483
 1652TIP3   OH226590   4.604   5.235   8.454 -0.0987  0.0235  0.3379
 1652TIP3    H126591   4.683   5.286   8.432 -0.2370  0.8217  1.5821
 1652TIP3    H226592   4.638   5.152   8.487  0.2306  0.2409  0.5663
 1653TIP3   OH226593   1.059   3.932   0.779 -0.1454  0.3452  0.3585
 1653TIP3    H126594   1.018   3.963   0.859 -0.5825  0.6050  0.0404
 1653TIP3    H226595   1.131   3.992   0.764 -0.9756  1.2250 -0.2434
 1654TIP3   OH226596   4.192   6.444   0.626  0.2601 -0.4579 -0.2328
 1654TIP3    H126597   4.262   6.385   0.600 -0.0404 -1.0709  0.3124
 1654TIP3    H226598   4.125   6.387   0.664 -0.1672  0.2010  0.0361
 1655TIP3   OH226599   1.635   5.575   2.653 -0.4330  0.2697  0.0601
 1655TIP3    H126600   1.564   5.606   2.598 -1.3978 -1.6756  0.1159
 1655TIP3    H226601   1.593   5.555   2.737  0.3024 -0.3188  0.2978
 1656TIP3   OH226602   5.810   5.900   2.209 -0.0992  0.5320  0.4716
 1656TIP3    H126603   5.849   5.820   2.174 -0.9943 -0.1122  0.9187
 1656TIP3    H226604   5.877   5.934   2.270 -0.1035 -0.4177  1.0326
 1657TIP3   OH226605   1.840   5.952   0.912 -0.0626  0.5201 -0.4914
 1657TIP3    H126606   1.823   5.870   0.866  0.6511 -0.2343  0.5378
 1657TIP3    H226607   1.768   5.960   0.974  1.2940 -0.8522  1.3979
 1658TIP3   OH226608   0.666   4.064   0.326 -0.3207  0.0890  0.5183
 1658TIP3    H126609   0.596   4.000   0.314 -0.3183 -0.1452  1.6549
 1658TIP3    H226610   0.727   4.047   0.254 -0.8010 -0.5396  0.2481
 1659TIP3   OH226611   6.329   6.285   8.658  0.0034  0.4013 -0.2377
 1659TIP3    H126612   6.271   6.273   8.583 -0.4763 -0.2340  0.2146
 1659TIP3    H226613   6.388   6.355   8.632  0.1803 -0.1547 -1.4066
 1660TIP3   OH226614   3.471   0.399   8.810 -0.1462 -0.1568 -0.4622
 1660TIP3    H126615   3.427   0.482   8.828 -0.6627 -0.3150 -0.9828
 1660TIP3    H226616   3.415   0.333   8.849  0.8256 -0.1927  0.9219
 1661TIP3   OH226617   5.972   5.880   1.464 -0.0476 -0.2315 -0.1890
 1661TIP3    H126618   5.938   5.810   1.520  0.1933 -1.2887 -1.3307
 1661TIP3    H226619   6.040   5.837   1.411  0.1527  0.8921 -0.8576
 1662TIP3   OH226620   2.369   2.955   2.514 -0.5299  0.1279 -0.5256
 1662TIP3    H126621   2.451   2.913   2.489 -0.0729  1.5615 -1.5431
 1662TIP3    H226622   2.301   2.899   2.476 -0.0745 -1.1733  0.4896
 1663TIP3   OH226623   6.761   4.477   1.267  0.3280  0.0799 -0.2225
 1663TIP3    H126624   6.675   4.439   1.251 -0.0083 -0.0255  1.6263
 1663TIP3    H226625   6.793   4.502   1.180 -2.1090  1.2950 -0.8553
 1664TIP3   OH226626   3.251   3.456   1.484  0.0692  0.5955 -0.0385
 1664TIP3    H126627   3.176   3.413   1.524  0.3471 -0.2788 -0.4461
 1664TIP3    H226628   3.270   3.530   1.542 -0.7255  0.4702  0.3913
 1665TIP3   OH226629   6.115   2.683   3.473 -0.2860  0.3225 -1.0842
 1665TIP3    H126630   6.071   2.599   3.485 -1.7112  1.2864  1.0094
 1665TIP3    H226631   6.050   2.739   3.431 -0.6038  1.2987  0.5898
 1666TIP3   OH226632   4.631   2.745   2.357 -0.1257 -0.2807 -0.6164
 1666TIP3    H126633   4.598   2.660   2.386  0.9005 -0.5215 -0.1193
 1666TIP3    H226634   4.722   2.746   2.384 -0.3700  1.3897  0.2648
 1667TIP3   OH226635   0.678   1.915   8.277  0.0002 -0.2183  0.4087
 1667TIP3    H126636   0.632   1.964   8.208  0.5853 -0.7146 -0.3502
 1667TIP3    H226637   0.666   1.968   8.356 -1.0183  0.1642  0.0144
 1668TIP3   OH226638   1.716   2.743   1.682  0.3328  0.7225 -0.1327
 1668TIP3    H126639   1.735   2.662   1.634 -1.0516  1.4246 -1.9678
 1668TIP3    H226640   1.802   2.774   1.711  0.8122 -2.0389  1.8297
 1669TIP3   OH226641   4.117   2.092   1.639  1.1050 -0.0452  0.2756
 1669TIP3    H126642   4.114   2.038   1.560 -1.2507  0.1087  0.2134
 1669TIP3    H226643   4.152   2.176   1.610  0.1597  0.0435 -0.6530
 1670TIP3   OH226644   0.440   1.902   0.714 -0.4782  0.3516  0.3596
 1670TIP3    H126645   0.481   1.920   0.799  0.6419 -1.2722  0.2246
 1670TIP3    H226646   0.497   1.835   0.674 -1.0720  0.9581 -1.6059
 1671TIP3   OH226647   5.292   6.437   7.978  0.2596  0.7738 -0.2745
 1671TIP3    H126648   5.298   6.527   8.007 -0.1642  0.8255 -0.3427
 1671TIP3    H226649   5.312   6.440   7.884  0.1541  0.8079 -0.2955
 1672TIP3   OH226650   4.665   5.543   0.085 -0.1083  0.0738  0.0009
 1672TIP3    H126651   4.660   5.637   0.067  1.1797  0.3308  0.8797
 1672TIP3    H226652   4.648   5.502  -0.000  1.1761  1.1571 -0.8239
 1673TIP3   OH226653   3.218   2.710   1.186 -0.0736 -0.1747 -0.6255
 1673TIP3    H126654   3.282   2.677   1.250  0.1425  2.1976  0.4974
 1673TIP3    H226655   3.195   2.633   1.133 -0.0650 -2.2094  2.1025
 1674TIP3   OH226656   5.281   4.547   1.135  0.2936 -0.4701  0.3624
 1674TIP3    H126657   5.355   4.600   1.166 -0.4353 -0.2885  1.8559
 1674TIP3    H226658   5.294   4.462   1.177  0.2117 -0.7590 -0.1981
 1675TIP3   OH226659   3.416   4.672   1.403  0.2790  0.0690 -0.0675
 1675TIP3    H126660   3.459   4.706   1.481 -2.0399 -0.1375  1.3941
 1675TIP3    H226661   3.461   4.590   1.385  1.3175  0.4721  0.6064
 1676TIP3   OH226662   6.277   0.597   2.329  0.2009  0.3769 -0.1485
 1676TIP3    H126663   6.238   0.517   2.297  1.1321 -1.4126  2.8132
 1676TIP3    H226664   6.203   0.656   2.345 -0.6356 -0.4742 -0.7943
 1677TIP3   OH226665   5.926   6.376   1.960  0.3844 -0.7573  0.0298
 1677TIP3    H126666   5.969   6.358   1.877 -0.3522 -0.6288 -0.3798
 1677TIP3    H226667   5.918   6.291   2.003  0.7537 -0.8227 -0.0259
 1678TIP3   OH226668   0.842   5.543   1.153  0.1688  0.4769  0.3703
 1678TIP3    H126669   0.890   5.509   1.229 -0.8290  0.9858  1.2619
 1678TIP3    H226670   0.857   5.637   1.156 -0.4230  0.5788  0.3464
 1679TIP3   OH226671   5.339   4.732   3.071  0.4972  0.3348 -0.2177
 1679TIP3    H126672   5.362   4.814   3.026  0.3926  0.2814 -0.3692
 1679TIP3    H226673   5.420   4.681   3.070  0.8176  0.8151  0.7022
 1680TIP3   OH226674   0.265   4.276   8.664  0.3232  0.3171 -0.0117
 1680TIP3    H126675   0.266   4.191   8.707  0.3641  0.6077  0.5656
 1680TIP3    H226676   0.354   4.309   8.672 -0.4482  2.0200  3.0448
 1681TIP3   OH226677   1.545   0.255   3.503  0.1071 -0.3393  0.0273
 1681TIP3    H126678   1.573   0.276   3.592  2.0138  0.6097 -0.7334
 1681TIP3    H226679   1.621   0.210   3.464  0.6671  2.2157 -2.1110
 1682TIP3   OH226680   4.816   3.303   2.494 -0.3714  0.4791  0.1280
 1682TIP3    H126681   4.752   3.360   2.452  1.2875  3.1897  0.9975
 1682TIP3    H226682   4.823   3.337   2.584  2.1958  0.3003  0.0728
 1683TIP3   OH226683   1.627   2.136   7.833  0.8492  0.0780  0.0800
 1683TIP3    H126684   1.581   2.192   7.771  1.4439 -0.1838 -0.6082
 1683TIP3    H226685   1.699   2.191   7.865 -0.4112  0.7992  1.8230
 1684TIP3   OH226686   5.711   4.401   8.231  0.0900  0.0145  0.5728
 1684TIP3    H126687   5.638   4.463   8.238  0.1618  0.3606 -1.2339
 1684TIP3    H226688   5.749   4.420   8.145  2.1842 -0.2972  1.3845
 1685TIP3   OH226689   6.572   5.593   8.195 -0.1060  0.3971 -0.3597
 1685TIP3    H126690   6.605   5.658   8.132 -0.5938  0.0787 -0.9535
 1685TIP3    H226691   6.505   5.544   8.146 -1.4934  1.0430  0.8176
 1686TIP3   OH226692   6.493   5.927   1.782 -0.7872 -0.7218  0.1098
 1686TIP3    H126693   6.437   5.871   1.836 -0.9184 -0.3497  0.3622
 1686TIP3    H226694   6.531   5.990   1.844 -0.6689 -0.5118 -0.1756
 1687TIP3   OH226695   5.664   4.029   2.118 -0.5013  0.4663  0.5652
 1687TIP3    H126696   5.695   4.041   2.208  1.7272 -0.8664  0.0500
 1687TIP3    H226697   5.681   4.113   2.075 -0.5805  0.7664  1.1121
 1688TIP3   OH226698   6.013   5.933   8.200 -0.5584 -0.0036  0.1901
 1688TIP3    H126699   6.109   5.927   8.193 -0.5832 -0.7330  0.4301
 1688TIP3    H226700   5.982   5.924   8.110 -0.3787  0.8230  0.0383
 1689TIP3   OH226701   3.753   4.669   0.619  0.4441  0.3166  1.0162
 1689TIP3    H126702   3.776   4.761   0.634  0.5177  0.4530  0.1259
 1689TIP3    H226703   3.833   4.621   0.638  0.7535  0.5569  0.3596
 1690TIP3   OH226704   3.897   2.039   3.285  0.0358 -0.4468 -0.6412
 1690TIP3    H126705   3.808   2.065   3.308  0.0734  0.2939 -1.2882
 1690TIP3    H226706   3.946   2.047   3.367 -0.0796  1.0547 -0.6809
 1691TIP3   OH226707   2.744   4.162   8.618  0.3612  0.1759 -0.2533
 1691TIP3    H126708   2.784   4.227   8.675  0.2340 -0.6091  0.7618
 1691TIP3    H226709   2.655   4.193   8.604  1.3613  2.2020 -2.9334
 1692TIP3   OH226710   1.470   1.661   7.883 -0.5870  0.1778  0.2721
 1692TIP3    H126711   1.451   1.731   7.821  1.2231 -0.1919 -0.7486
 1692TIP3    H226712   1.508   1.706   7.959  3.0073  0.2458 -1.3751
 1693TIP3   OH226713   5.778   1.097   2.379  0.0358  0.0792  0.2500
 1693TIP3    H126714   5.815   1.185   2.382  1.2343 -0.3920 -0.0350
 1693TIP3    H226715   5.850   1.042   2.347 -0.5524 -1.0728  0.8411
 1694TIP3   OH226716   0.119   1.333   8.180 -0.4946  0.5180 -0.4661
 1694TIP3    H126717   0.123   1.238   8.174 -1.2902  0.4630 -0.1345
 1694TIP3    H226718   0.204   1.362   8.147  0.3913 -0.3721  0.9201
 1695TIP3   OH226719   2.555   5.458   7.107  0.1239  0.7400  0.6199
 1695TIP3    H126720   2.585   5.461   7.198 -0.9442  1.9343  0.9623
 1695TIP3    H226721   2.598   5.381   7.070  1.3702  0.8099  1.8489
 1696TIP3   OH226722   3.751   6.056   0.437 -0.2410  0.3955  0.1816
 1696TIP3    H126723   3.733   6.020   0.524  1.6299  3.3097  1.9363
 1696TIP3    H226724   3.841   6.030   0.419 -0.8427 -0.7978 -1.2969
 1697TIP3   OH226725   3.322   4.921   8.961 -0.5179 -0.0226  0.0504
 1697TIP3    H126726   3.353   4.951   8.876 -0.4118 -0.6433 -0.1351
 1697TIP3    H226727   3.249   4.861   8.940 -1.3974  0.8832  0.4475
 1698TIP3   OH226728   3.453   4.105   0.580 -0.8105 -0.0815  1.3196
 1698TIP3    H126729   3.378   4.128   0.525  0.3761 -0.1591 -0.4473
 1698TIP3    H226730   3.472   4.185   0.629  0.2734  1.2921 -1.1144
 1699TIP3   OH226731   4.137   0.110   7.515 -0.7695 -0.5261 -0.3430
 1699TIP3    H126732   4.226   0.135   7.490 -1.7121  2.3943 -1.1417
 1699TIP3    H226733   4.140   0.107   7.611 -0.0148  0.4536 -0.3155
 1700TIP3   OH226734   3.007   6.202   2.197  0.4689 -0.6615 -0.1528
 1700TIP3    H126735   3.044   6.115   2.184  0.2957 -0.8884  0.8350
 1700TIP3    H226736   3.068   6.246   2.256  0.2996 -0.2840 -0.2556
 1701TIP3   OH226737   0.106   4.730   8.429 -0.2931 -0.0613 -0.1637
 1701TIP3    H126738   0.106   4.658   8.492 -1.4882  0.2339  0.2115
 1701TIP3    H226739   0.021   4.723   8.384  0.3254  0.0339 -1.4025
 1702TIP3   OH226740   1.890   1.714   8.148 -0.7001 -0.4289 -0.0624
 1702TIP3    H126741   1.919   1.676   8.230 -0.2527  0.8803  0.4092
 1702TIP3    H226742   1.932   1.661   8.080 -2.3889 -2.5928  0.4505
 1703TIP3   OH226743   1.340   4.607   7.568  0.0290 -0.2673 -0.4780
 1703TIP3    H126744   1.307   4.517   7.565 -0.0198 -0.4153  1.9817
 1703TIP3    H226745   1.373   4.624   7.480 -3.1246 -1.4250 -2.0582
 1704TIP3   OH226746   1.013   1.089   8.521 -0.1467 -0.6309 -0.6076
 1704TIP3    H126747   1.094   1.112   8.476  0.8093 -0.4860  1.1250
 1704TIP3    H226748   1.041   1.051   8.604 -1.8044  1.4790  1.0589
 1705TIP3   OH226749   3.557   0.686   1.665 -0.0178 -0.2607  0.0997
 1705TIP3    H126750   3.474   0.672   1.711  0.4696  0.6317  1.3118
 1705TIP3    H226751   3.532   0.734   1.586 -0.5874  0.8391  0.9167
 1706TIP3   OH226752   5.196   2.383   2.048 -0.2934 -0.0911  0.2226
 1706TIP3    H126753   5.233   2.296   2.033  0.5166  0.3403 -0.4464
 1706TIP3    H226754   5.148   2.376   2.130  1.4729 -0.6512  1.2700
 1707TIP3   OH226755   3.853   5.292   7.592  0.3892  0.3179 -0.1326
 1707TIP3    H126756   3.847   5.302   7.497  1.4699  1.4457 -0.1088
 1707TIP3    H226757   3.938   5.251   7.606 -0.0381 -0.4354  0.3350
 1708TIP3   OH226758   2.185   1.143   0.293  0.2007  0.1353  0.1380
 1708TIP3    H126759   2.264   1.091   0.307  0.9511  1.4084  0.8676
 1708TIP3    H226760   2.172   1.143   0.198  1.8111  0.8880 -0.1181
 1709TIP3   OH226761   6.401   2.009   0.390 -0.7750 -0.4273  0.0352
 1709TIP3    H126762   6.352   1.986   0.312 -1.8524 -0.4637  0.7077
 1709TIP3    H226763   6.487   1.969   0.377 -0.1640  1.3907 -2.1077
 1710TIP3   OH226764   3.319   4.317   7.880 -0.2790  0.6825 -0.1945
 1710TIP3    H126765   3.415   4.310   7.881 -0.2669  0.7519  1.0907
 1710TIP3    H226766   3.301   4.399   7.833  0.1900 -0.1968 -2.0149
 1711TIP3   OH226767   3.350   2.775   3.325 -0.2042  0.2148 -0.0804
 1711TIP3    H126768   3.281   2.755   3.389 -0.2874 -0.7330 -0.4561
 1711TIP3    H226769   3.430   2.779   3.376 -0.5887  1.9161  0.4621
 1712TIP3   OH226770   3.139   3.853   0.918  0.2575  0.5290 -0.1514
 1712TIP3    H126771   3.105   3.772   0.956  3.6581 -0.2013  1.7575
 1712TIP3    H226772   3.131   3.918   0.988 -1.3398  1.6200 -1.2686
 1713TIP3   OH226773   2.099   4.576   2.332 -0.3521 -0.0963 -0.1755
 1713TIP3    H126774   2.048   4.515   2.278  1.4251  1.1575 -3.5470
 1713TIP3    H226775   2.076   4.663   2.299  2.3299  0.6172 -0.3967
 1714TIP3   OH226776   6.645   6.416   1.397  0.2213 -0.0474 -0.5325
 1714TIP3    H126777   6.582   6.443   1.463  1.0180 -1.7469  1.0388
 1714TIP3    H226778   6.601   6.432   1.314 -3.4898 -3.4197  0.4058
 1715TIP3   OH226779   3.278   4.504   0.135 -0.1741 -0.4267 -0.3469
 1715TIP3    H126780   3.330   4.573   0.176 -1.3636  0.9082 -0.9690
 1715TIP3    H226781   3.318   4.423   0.165  1.1565  0.5198  0.5881
 1716TIP3   OH226782   0.993   1.193   2.091  0.2422  0.2097 -0.3231
 1716TIP3    H126783   1.010   1.276   2.135  1.4478 -0.3179  0.2735
 1716TIP3    H226784   0.959   1.136   2.161 -2.5773  0.7642 -1.1579
 1717TIP3   OH226785   1.676   5.955   3.018  0.5845 -0.1372 -0.0646
 1717TIP3    H126786   1.677   5.860   3.006 -1.2107 -0.1017 -0.8282
 1717TIP3    H226787   1.611   5.970   3.087  0.5334  0.5641 -0.2560
 1718TIP3   OH226788   5.466   5.853   0.984 -0.0526 -0.6530  0.7568
 1718TIP3    H126789   5.456   5.939   0.944 -0.2728 -1.6223 -1.4260
 1718TIP3    H226790   5.380   5.834   1.022 -0.9897 -1.1186 -1.4358
 1719TIP3   OH226791   0.673   0.963   0.639  0.4679 -0.1747 -0.0377
 1719TIP3    H126792   0.677   0.914   0.557  0.3186 -0.5213  0.1616
 1719TIP3    H226793   0.606   1.030   0.624 -1.0358 -1.4989  0.4664
 1720TIP3   OH226794   3.048   4.383   0.428 -0.5761 -0.2090 -0.8191
 1720TIP3    H126795   2.957   4.372   0.456 -0.4586 -0.3266 -0.4772
 1720TIP3    H226796   3.060   4.477   0.421 -0.4974 -0.1582 -0.0924
 1721TIP3   OH226797   6.192   3.668   8.601  0.0088 -0.1895  0.6707
 1721TIP3    H126798   6.206   3.671   8.507  2.7632  4.3968  0.8975
 1721TIP3    H226799   6.100   3.691   8.613 -0.8090 -2.4184 -0.7952
 1722TIP3   OH226800   0.470   5.958   8.053 -0.6413  0.5009 -0.5473
 1722TIP3    H126801   0.538   5.897   8.024 -1.2924 -0.4921 -0.0678
 1722TIP3    H226802   0.402   5.951   7.985 -0.1897  1.6416 -1.1310
 1723TIP3   OH226803   3.242   2.994   3.514 -0.0824  0.2976 -0.3782
 1723TIP3    H126804   3.232   3.075   3.565 -2.2305  0.2768 -0.6905
 1723TIP3    H226805   3.201   2.927   3.568  1.8325 -0.6899 -0.0387
 1724TIP3   OH226806   3.431   6.676   1.139  0.5765 -0.2393 -0.1147
 1724TIP3    H126807   3.422   6.772   1.140  0.3096 -0.2527 -0.7851
 1724TIP3    H226808   3.356   6.644   1.188  0.6487 -0.1080  0.0828
 1725TIP3   OH226809   3.241   0.648   0.055 -0.2515 -0.0305 -0.3536
 1725TIP3    H126810   3.151   0.614   0.046  0.1601 -0.9619 -1.1070
 1725TIP3    H226811   3.251   0.709  -0.019  0.0147 -0.5836 -0.7807
 1726TIP3   OH226812   3.249   6.581   1.357 -0.5675 -0.3324 -0.4510
 1726TIP3    H126813   3.190   6.506   1.345 -2.9372  1.3256  0.1902
 1726TIP3    H226814   3.275   6.575   1.449 -0.9141 -0.2685 -0.3465
 1727TIP3   OH226815   5.352   6.069   2.929 -0.0413  0.2049 -0.5417
 1727TIP3    H126816   5.300   6.000   2.968 -0.0780  0.0364 -0.8852
 1727TIP3    H226817   5.441   6.054   2.961  0.1794 -0.7102 -1.5458
 1728TIP3   OH226818   6.589   4.475   7.922  0.4578  0.3836 -0.1861
 1728TIP3    H126819   6.616   4.457   7.832  1.8215 -0.1795  0.3092
 1728TIP3    H226820   6.565   4.389   7.958  1.2439  0.3946  0.3886
 1729TIP3   OH226821   5.153   3.070   2.692 -0.5523 -0.0395  1.0316
 1729TIP3    H126822   5.241   3.037   2.675 -0.9619 -0.8371  0.3946
 1729TIP3    H226823   5.166   3.140   2.756  0.7822  1.3308 -0.6308
 1730TIP3   OH226824   0.321   1.702   3.506 -0.5839  0.1843  0.3728
 1730TIP3    H126825   0.348   1.690   3.597 -2.0783 -1.2795  0.6787
 1730TIP3    H226826   0.402   1.708   3.457  0.2528  1.2801  1.8278
 1731TIP3   OH226827   1.738   3.927   2.864 -0.1247  0.7195  0.3614
 1731TIP3    H126828   1.765   3.887   2.946  0.9300  0.2770 -0.1799
 1731TIP3    H226829   1.816   3.972   2.832  0.2108 -1.0205 -1.5089
 1732TIP3   OH226830   4.309   5.351   1.459  0.0942 -0.3212 -0.5195
 1732TIP3    H126831   4.380   5.336   1.398  0.1189  1.2365 -0.9056
 1732TIP3    H226832   4.341   5.418   1.518 -0.2695 -1.1527  0.6718
 1733TIP3   OH226833   4.804   4.826   2.121  0.1998  0.3933 -0.0357
 1733TIP3    H126834   4.748   4.795   2.192 -0.9492 -0.2349 -1.1742
 1733TIP3    H226835   4.744   4.871   2.061  1.0876  0.6598 -0.7477
 1734TIP3   OH226836   0.815   4.487   0.588  0.1850 -0.1697  0.2215
 1734TIP3    H126837   0.814   4.577   0.620 -1.3333 -0.5297  1.2944
 1734TIP3    H226838   0.754   4.487   0.514  0.0343 -0.3405  0.3423
 1735TIP3   OH226839   4.335   5.958   2.415 -0.5469  0.0316 -0.3904
 1735TIP3    H126840   4.253   5.915   2.391 -0.4266 -0.2122 -0.3733
 1735TIP3    H226841   4.387   5.890   2.458 -0.7829  0.4847  0.6369
 1736TIP3   OH226842   6.343   0.759   2.106 -0.7236  0.1400  0.2878
 1736TIP3    H126843   6.369   0.712   2.186  0.3003  1.2840  0.6608
 1736TIP3    H226844   6.320   0.847   2.136  1.0651  1.0418 -0.7921
 1737TIP3   OH226845   5.387   6.619   8.676 -0.1458 -0.2150 -0.6500
 1737TIP3    H126846   5.481   6.640   8.672  0.1331 -1.0532  0.9839
 1737TIP3    H226847   5.379   6.556   8.747 -2.1792  1.1017  0.3867
 1738TIP3   OH226848   1.363   0.019   0.149  0.7119  0.3547 -0.5054
 1738TIP3    H126849   1.417   0.097   0.160 -0.0074  0.5991  1.6624
 1738TIP3    H226850   1.293   0.029   0.213 -0.5308 -1.1278 -1.5681
 1739TIP3   OH226851   0.405   4.385   2.200  0.6447 -0.8474  0.1801
 1739TIP3    H126852   0.334   4.438   2.164  1.9789 -0.2554 -1.7200
 1739TIP3    H226853   0.483   4.441   2.193  1.6814 -2.2389  0.1937
 1740TIP3   OH226854   4.820   4.632   0.572  0.0333  0.1252 -0.0099
 1740TIP3    H126855   4.852   4.603   0.486  0.7507 -2.5046  1.0648
 1740TIP3    H226856   4.817   4.728   0.565  1.3304  0.0594 -2.5162
 1741TIP3   OH226857   4.452   4.199   8.103  1.0177  0.1775 -0.0758
 1741TIP3    H126858   4.466   4.227   8.013 -1.5100  0.7754 -0.3462
 1741TIP3    H226859   4.371   4.149   8.101 -0.4944  2.2964  2.1923
 1742TIP3   OH226860   2.241   2.692   0.934 -0.7178  0.0680 -0.3280
 1742TIP3    H126861   2.198   2.777   0.943  0.8829  0.7386  1.8685
 1742TIP3    H226862   2.179   2.629   0.972 -1.1366  0.5250 -0.2511
 1743TIP3   OH226863   2.298   4.137   0.469  0.2221 -0.4127 -0.2288
 1743TIP3    H126864   2.367   4.076   0.496  0.2512  0.2502  1.3025
 1743TIP3    H226865   2.217   4.089   0.482  0.2140 -0.0114  1.4501
 1744TIP3   OH226866   4.220   2.599   1.986  0.3187 -0.0481  0.2360
 1744TIP3    H126867   4.139   2.623   1.940  0.5209 -2.1291 -1.3739
 1744TIP3    H226868   4.196   2.523   2.039  0.5905  1.0910  2.1037
 1745TIP3   OH226869   1.799   3.826   0.822 -0.1384  0.5659  0.0023
 1745TIP3    H126870   1.859   3.780   0.881 -0.7828  1.4539  1.3944
 1745TIP3    H226871   1.839   3.815   0.735 -0.9036 -3.7655 -0.0459
 1746TIP3   OH226872   6.082   4.096   2.283 -0.4289 -0.1009 -0.5587
 1746TIP3    H126873   6.062   4.011   2.243  1.6851 -0.0808 -1.7800
 1746TIP3    H226874   6.032   4.159   2.231  1.5223 -0.1831 -2.6910
 1747TIP3   OH226875   4.177   3.819   1.483  0.0264  0.4156  0.2815
 1747TIP3    H126876   4.234   3.743   1.499  1.4844  1.2511 -0.7424
 1747TIP3    H226877   4.237   3.889   1.456 -1.3698  1.7165  0.4246
 1748TIP3   OH226878   2.377   0.852   8.374 -0.1561 -0.1332  0.4487
 1748TIP3    H126879   2.442   0.813   8.316  0.3182 -0.0724  0.9305
 1748TIP3    H226880   2.295   0.844   8.327  0.2663  0.1758 -0.3625
 1749TIP3   OH226881   6.337   0.186   0.298 -0.2108 -0.3084  0.3644
 1749TIP3    H126882   6.365   0.140   0.219  0.9028 -0.3079  0.7460
 1749TIP3    H226883   6.382   0.271   0.294 -2.1495  0.7608 -0.2806
 1750TIP3   OH226884   2.142   0.679   2.304 -0.1982 -0.4136 -0.0556
 1750TIP3    H126885   2.151   0.769   2.337  1.9267 -0.2972 -0.8064
 1750TIP3    H226886   2.167   0.624   2.378  0.5325 -0.2993 -0.2121
 1751TIP3   OH226887   2.280   0.100   3.517  0.5664 -0.1965 -0.0866
 1751TIP3    H126888   2.204   0.086   3.460 -0.3435 -2.4811  1.5445
 1751TIP3    H226889   2.313   0.012   3.535  1.6990  0.5561  1.7745
 1752TIP3   OH226890   4.475   5.408   2.060 -0.3439 -0.4126  0.3342
 1752TIP3    H126891   4.559   5.443   2.033 -0.1890 -1.4567 -0.5794
 1752TIP3    H226892   4.412   5.448   2.001 -0.3901 -0.2740  0.4765
 1753TIP3   OH226893   2.045   4.636   7.473 -0.2288  0.0504 -0.3557
 1753TIP3    H126894   2.089   4.582   7.540  1.3853  0.5464 -0.9714
 1753TIP3    H226895   2.013   4.712   7.521 -1.6796 -0.9403  0.3475
 1754TIP3   OH226896   5.375   4.303   1.285  0.8651 -0.0771 -0.2420
 1754TIP3    H126897   5.361   4.217   1.245  1.6865 -0.5077  0.3575
 1754TIP3    H226898   5.423   4.284   1.366 -1.4068  0.6965  1.3867
 1755TIP3   OH226899   6.708   6.649   1.899 -0.0812  0.3151 -0.1795
 1755TIP3    H126900   6.678   6.625   1.986  0.0340  0.3718 -0.1237
 1755TIP3    H226901   6.778   6.712   1.915 -0.9155  1.3027 -0.3385
 1756TIP3   OH226902   5.298   5.530   1.325  0.3090  0.1137  0.0162
 1756TIP3    H126903   5.368   5.469   1.301  0.1769 -0.0369  0.0154
 1756TIP3    H226904   5.312   5.548   1.418  1.3444  1.3603 -0.3428
 1757TIP3   OH226905   1.739   1.622   8.721  0.2266  0.0180 -0.4446
 1757TIP3    H126906   1.753   1.711   8.689  0.6428  0.2883  0.4490
 1757TIP3    H226907   1.669   1.630   8.787  1.2092 -0.0625  0.6476
 1758TIP3   OH226908   6.362   3.330   8.015  0.4109  0.8631  0.4570
 1758TIP3    H126909   6.387   3.239   7.999 -0.1431  0.3821  2.1358
 1758TIP3    H226910   6.409   3.379   7.947  2.2225 -0.4709  0.6504
 1759TIP3   OH226911   4.093   3.471   2.861 -0.3953 -0.4432  0.0844
 1759TIP3    H126912   4.005   3.439   2.841 -0.0510 -0.8686 -0.8233
 1759TIP3    H226913   4.151   3.413   2.812  0.4217 -0.4399  1.0177
 1760TIP3   OH226914   5.858   5.334   2.547 -0.4300  0.6343 -0.4206
 1760TIP3    H126915   5.795   5.404   2.528  0.4225  1.3942 -0.5261
 1760TIP3    H226916   5.837   5.307   2.636 -2.3023 -0.6434 -1.1854
 1761TIP3   OH226917   0.531   4.507   0.875  0.0850  0.0033 -0.1998
 1761TIP3    H126918   0.595   4.529   0.808 -0.0599  3.2733  0.5489
 1761TIP3    H226919   0.449   4.494   0.827  0.4324  0.0543 -0.8166
 1762TIP3   OH226920   5.516   0.150   0.340 -0.3360 -0.3112 -0.5885
 1762TIP3    H126921   5.571   0.144   0.262  1.2526 -1.4853  0.5298
 1762TIP3    H226922   5.579   0.152   0.413 -1.7674 -0.9448  0.7296
 1763TIP3   OH226923   2.917   2.575   0.699  0.2670  0.3108  0.4552
 1763TIP3    H126924   2.926   2.481   0.710  3.4377  0.4573 -0.0466
 1763TIP3    H226925   2.925   2.590   0.605  0.0369  1.1145  0.5489
 1764TIP3   OH226926   3.658   1.491   0.223  0.1052  0.1576 -0.8684
 1764TIP3    H126927   3.590   1.524   0.164 -0.3914  1.7478  0.5136
 1764TIP3    H226928   3.670   1.560   0.287  1.0974 -1.2416  0.5382
 1765TIP3   OH226929   1.562   2.839   2.336 -0.1993  0.1785  0.2510
 1765TIP3    H126930   1.635   2.808   2.391  0.4279 -2.3865 -1.8275
 1765TIP3    H226931   1.600   2.908   2.282  0.0090  0.5787  0.9029
 1766TIP3   OH226932   5.581   0.107   8.495 -0.1789 -0.2061  0.6574
 1766TIP3    H126933   5.601   0.180   8.437 -0.3305  0.7410  1.7732
 1766TIP3    H226934   5.665   0.087   8.538 -0.2482 -0.3669  0.7197
 1767TIP3   OH226935   1.037   3.995   2.737 -0.4310 -0.0927  1.2938
 1767TIP3    H126936   1.043   4.056   2.812  2.0819  1.2098  0.1672
 1767TIP3    H226937   1.014   3.911   2.777 -0.0270  0.7380  3.4611
 1768TIP3   OH226938   3.143   5.936   8.629 -0.1529 -0.2571  0.6058
 1768TIP3    H126939   3.166   5.893   8.712  1.4066 -0.2832  0.1897
 1768TIP3    H226940   3.090   6.011   8.656  1.9439  0.8908  1.8480
 1769TIP3   OH226941   6.551   2.400   8.253  0.2167  0.1176  0.4197
 1769TIP3    H126942   6.472   2.454   8.264  1.4437  1.9080  0.7449
 1769TIP3    H226943   6.580   2.417   8.163 -0.3445 -1.4167 -0.0937
 1770TIP3   OH226944   0.979   3.962   2.074 -0.2444 -0.2484 -0.8565
 1770TIP3    H126945   0.986   3.997   2.163  0.5986 -1.5614 -0.3809
 1770TIP3    H226946   0.983   3.867   2.085 -1.0517 -0.4672 -2.2302
 1771TIP3   OH226947   4.674   3.308   8.032  0.1694 -0.6258 -0.0105
 1771TIP3    H126948   4.700   3.300   7.941 -1.1283  0.1357 -0.4824
 1771TIP3    H226949   4.649   3.219   8.058  0.2284 -0.7875 -0.5029
 1772TIP3   OH226950   6.731   5.974   2.210  0.5183 -0.3279 -0.0358
 1772TIP3    H126951   6.760   6.065   2.220  0.0698 -0.0554 -1.0628
 1772TIP3    H226952   6.745   5.935   2.296 -2.2898  1.5753  1.4245
 1773TIP3   OH226953   6.675   0.317   3.327  0.0087  0.0431 -0.0312
 1773TIP3    H126954   6.734   0.308   3.252 -0.6979  0.5213 -0.6678
 1773TIP3    H226955   6.680   0.410   3.349 -1.2794  0.3111 -0.7651
 1774TIP3   OH226956   2.551   5.433   0.271  0.1675 -0.1602  0.0965
 1774TIP3    H126957   2.472   5.397   0.231  0.2004  0.3279 -0.4390
 1774TIP3    H226958   2.616   5.364   0.262 -0.1190 -0.4532  0.2712
 1775TIP3   OH226959   2.102   4.171   1.363  0.2453  0.6211  0.5119
 1775TIP3    H126960   2.140   4.173   1.450 -0.4039 -0.3424  0.8322
 1775TIP3    H226961   2.149   4.101   1.318 -0.2834  0.2663  0.5042
 1776TIP3   OH226962   4.483   0.527   0.040  0.6964 -0.5942  0.0228
 1776TIP3    H126963   4.457   0.599  -0.018 -0.0034 -2.0855 -1.6130
 1776TIP3    H226964   4.400   0.492   0.073  1.0878  0.3490  2.1624
 1777TIP3   OH226965   4.949   3.151   8.372 -0.2231  0.4885 -0.7251
 1777TIP3    H126966   4.925   3.242   8.387 -0.8231  0.6461 -2.4005
 1777TIP3    H226967   4.917   3.103   8.448 -0.4919  1.5840 -0.1441
 1778TIP3   OH226968   6.609   2.593   8.693 -0.7789  0.4521 -0.4477
 1778TIP3    H126969   6.518   2.620   8.682 -1.6697 -2.8959 -3.2181
 1778TIP3    H226970   6.635   2.562   8.607  3.0550  1.2324  0.2681
 1779TIP3   OH226971   6.289   0.645   8.797 -0.0450  0.2332 -0.2174
 1779TIP3    H126972   6.383   0.627   8.799 -0.0183  0.4065  0.2386
 1779TIP3    H226973   6.266   0.640   8.704  0.5165  0.7025 -0.3959
 1780TIP3   OH226974   6.227   4.482   0.586  0.0417 -0.1157 -0.0238
 1780TIP3    H126975   6.249   4.473   0.678 -0.5983  1.2064  0.2776
 1780TIP3    H226976   6.144   4.530   0.585  0.4162  0.5522 -1.3101
 1781TIP3   OH226977   4.328   2.774   7.739 -0.1627  0.2740 -0.5022
 1781TIP3    H126978   4.308   2.730   7.822 -0.7157  0.7950 -0.3468
 1781TIP3    H226979   4.423   2.785   7.740 -0.0078 -0.9836 -0.5921
 1782TIP3   OH226980   2.828   2.980   8.517  0.2490 -0.3102  0.2244
 1782TIP3    H126981   2.793   2.906   8.567  0.7672 -1.2693 -0.7899
 1782TIP3    H226982   2.757   3.005   8.458  0.8121 -1.4812 -0.9979
 1783TIP3   OH226983   0.394   0.149   8.455 -0.0998  0.5660 -0.2471
 1783TIP3    H126984   0.418   0.058   8.441  2.8875  1.3067 -0.6362
 1783TIP3    H226985   0.397   0.161   8.550  0.2395  0.4404 -0.2430
 1784TIP3   OH226986   4.149   5.871   1.153 -0.1910 -0.0420  0.1403
 1784TIP3    H126987   4.157   5.829   1.067 -0.0802  0.1579  0.0545
 1784TIP3    H226988   4.239   5.878   1.185 -0.1025  1.2058 -0.3562
 1785TIP3   OH226989   5.735   3.893   8.427  0.2274 -0.5859  0.1050
 1785TIP3    H126990   5.710   3.972   8.378  1.5832 -0.3921 -0.3408
 1785TIP3    H226991   5.691   3.822   8.381 -0.4488 -0.1580  0.0781
 1786TIP3   OH226992   5.134   3.204   8.635  0.0522 -0.9513  0.0662
 1786TIP3    H126993   5.142   3.185   8.728  1.9198 -1.3443 -0.1474
 1786TIP3    H226994   5.043   3.181   8.614  0.1580 -2.7790  1.3712
 1787TIP3   OH226995   3.824   5.684   7.266  0.0245  1.2167 -0.4412
 1787TIP3    H126996   3.835   5.779   7.265 -0.3411  1.2618 -0.1858
 1787TIP3    H226997   3.730   5.671   7.271  0.1306  0.8538  1.0960
 1788TIP3   OH226998   5.251   0.510   2.241 -0.3494  0.0631 -0.0769
 1788TIP3    H126999   5.344   0.494   2.228  0.2404  3.7688 -1.6886
 1788TIP3    H227000   5.246   0.563   2.321 -0.7802  1.3853 -0.9333
 1789TIP3   OH227001   3.106   3.410   8.428  0.2128  0.1955  1.0403
 1789TIP3    H127002   3.198   3.385   8.426 -0.1498 -1.1760 -0.2330
 1789TIP3    H227003   3.106   3.502   8.404  1.2880  0.3814  1.6761
 1790TIP3   OH227004   1.748   2.461   0.593 -0.6776 -0.3023 -0.1126
 1790TIP3    H127005   1.699   2.532   0.635 -0.2138  0.7892 -1.3451
 1790TIP3    H227006   1.696   2.383   0.608 -1.1283  0.2684  1.4146
 1791TIP3   OH227007   1.999   4.987   0.057 -0.1139  0.3553  0.2365
 1791TIP3    H127008   1.992   4.900   0.017  1.2985  0.8539 -1.1855
 1791TIP3    H227009   2.046   4.971   0.139  0.0489 -0.2359  0.0356
 1792TIP3   OH227010   3.296   5.786   8.451 -0.1262 -0.2735 -0.6316
 1792TIP3    H127011   3.267   5.861   8.502  1.8990  1.4105 -1.7831
 1792TIP3    H227012   3.270   5.710   8.503 -1.4592  1.2322  1.0227
 1793TIP3   OH227013   1.677   3.211   2.746  0.1720  0.1717 -0.4854
 1793TIP3    H127014   1.613   3.279   2.725  0.1599  1.0701  2.0426
 1793TIP3    H227015   1.626   3.143   2.791  0.9152  0.9462  1.6498
 1794TIP3   OH227016   5.052   4.613   8.429 -0.0507  0.1119  0.3167
 1794TIP3    H127017   5.064   4.623   8.524 -1.6847 -1.7343  0.7783
 1794TIP3    H227018   5.112   4.677   8.391  0.6507  0.9190  2.5857
 1795TIP3   OH227019   3.571   4.841   8.251  0.6312  1.1169  0.5295
 1795TIP3    H127020   3.643   4.885   8.206  3.1772 -0.7736  2.4870
 1795TIP3    H227021   3.551   4.766   8.196 -0.5328  2.0792 -0.4379
 1796TIP3   OH227022   3.930   2.478   0.392  0.0817 -0.1368  0.1598
 1796TIP3    H127023   3.997   2.410   0.381  0.1233 -0.0131 -0.3778
 1796TIP3    H227024   3.935   2.530   0.312 -0.7439 -0.2006  0.0610
 1797TIP3   OH227025   0.129   1.119   1.068 -0.1096 -0.0745 -0.1906
 1797TIP3    H127026   0.137   1.024   1.072  1.8339  0.0586 -0.0280
 1797TIP3    H227027   0.200   1.152   1.124  0.1478  1.4608 -1.3412
 1798TIP3   OH227028   5.544   2.687   8.148 -0.5609 -0.1696 -0.5603
 1798TIP3    H127029   5.522   2.631   8.074 -0.7183 -1.2955  0.3206
 1798TIP3    H227030   5.516   2.775   8.120 -1.2258 -0.6763 -1.5579
 1799TIP3   OH227031   4.130   1.000   0.605  0.1013 -0.0255  0.0671
 1799TIP3    H127032   4.211   1.048   0.588  0.4756 -0.0983  1.4908
 1799TIP3    H227033   4.072   1.064   0.646  0.9811 -0.9441  2.9752
 1800TIP3   OH227034   0.677   5.359   2.452  0.4929 -0.3654 -0.1507
 1800TIP3    H127035   0.691   5.307   2.373 -1.9972  1.8325 -2.2021
 1800TIP3    H227036   0.582   5.361   2.463  0.5346  2.6550  0.5596
 1801TIP3   OH227037   0.708   5.039   0.492  0.4359  0.0151  0.1901
 1801TIP3    H127038   0.696   5.093   0.570  2.0420  0.1636  0.3653
 1801TIP3    H227039   0.743   4.956   0.525 -0.6701 -0.6313 -0.2131
 1802TIP3   OH227040   6.601   5.427   2.944 -0.7089 -0.2390  0.1212
 1802TIP3    H127041   6.668   5.400   3.007  0.4308 -0.0377 -0.9857
 1802TIP3    H227042   6.618   5.520   2.929 -1.2574 -0.1794 -0.1597
 1803TIP3   OH227043   6.194   6.661   2.429  0.7211 -0.4497 -0.1137
 1803TIP3    H127044   6.100   6.666   2.449  1.0862  0.9183  1.5349
 1803TIP3    H227045   6.222   6.753   2.426  2.3750 -0.8568  1.4118
 1804TIP3   OH227046   5.686   2.257   1.954  0.8943  0.0998 -0.1613
 1804TIP3    H127047   5.697   2.343   1.996  0.5837  0.0003  0.1288
 1804TIP3    H227048   5.613   2.217   2.001  1.0561 -0.3377 -0.2810
 1805TIP3   OH227049   3.773   2.722   1.674 -0.4683  0.4015  0.0184
 1805TIP3    H127050   3.707   2.752   1.736  1.0285  1.7103  1.0616
 1805TIP3    H227051   3.851   2.707   1.727  0.1109 -1.1002 -1.1849
 1806TIP3   OH227052   3.495   5.318   0.939  0.2878 -0.0888  0.3166
 1806TIP3    H127053   3.512   5.235   0.984  0.6716  0.5442  1.3842
 1806TIP3    H227054   3.413   5.349   0.977 -0.4415 -0.4998 -0.8823
 1807TIP3   OH227055   2.686   3.631   0.395 -0.1928  0.3740  0.7557
 1807TIP3    H127056   2.707   3.603   0.484  1.1958  0.9119  0.6275
 1807TIP3    H227057   2.709   3.556   0.340  3.3752  1.4816  0.4283
 1808TIP3   OH227058   0.414   2.913   0.085  0.4481  0.3138  0.3224
 1808TIP3    H127059   0.369   2.855   0.023  0.2816  0.5718  0.2019
 1808TIP3    H227060   0.415   2.998   0.042 -0.1233  0.6198  0.8937
 1809TIP3   OH227061   3.489   2.533   2.583 -0.0581  0.2135  0.1421
 1809TIP3    H127062   3.423   2.516   2.516 -1.2588  1.3940  0.9800
 1809TIP3    H227063   3.553   2.590   2.540 -0.2456  0.0940 -0.3065
 1810TIP3   OH227064   1.463   5.353   8.492 -0.0830 -0.3993  0.6367
 1810TIP3    H127065   1.487   5.446   8.498  1.3720 -0.8230  2.8574
 1810TIP3    H227066   1.517   5.319   8.421  0.9228  0.0875  1.1282
 1811TIP3   OH227067   1.932   4.051   8.928 -0.4329  0.2141 -0.2759
 1811TIP3    H127068   1.903   3.960   8.922 -1.2230  0.2747  1.7175
 1811TIP3    H227069   2.028   4.046   8.930 -0.4654 -0.5427 -0.4240
 1812TIP3   OH227070   6.681   6.670   8.600  0.0510  0.2356 -0.1985
 1812TIP3    H127071   6.751   6.723   8.638  0.4828 -0.0161 -0.6128
 1812TIP3    H227072   6.680   6.694   8.507 -1.5956  1.4998  0.1178
 1813TIP3   OH227073   6.117   5.311   8.954 -0.8410 -0.0300  0.0342
 1813TIP3    H127074   6.058   5.384   8.974 -2.1977 -0.3951 -2.2256
 1813TIP3    H227075   6.198   5.353   8.926 -1.0215  0.5657  0.3922
 1814TIP3   OH227076   5.856   0.612   1.625 -0.0032 -0.0500  0.3793
 1814TIP3    H127077   5.904   0.538   1.589  2.2778  0.7698  1.5888
 1814TIP3    H227078   5.857   0.598   1.720  0.7330  1.6409  0.6514
 1815TIP3   OH227079   2.563   2.969   8.413  0.5088 -0.5808  0.1033
 1815TIP3    H127080   2.469   2.988   8.416  0.6697  0.2951 -0.3440
 1815TIP3    H227081   2.569   2.879   8.446 -0.3717 -0.2734  1.1762
 1816TIP3   OH227082   5.592   5.184   0.294 -0.1422 -0.2788  0.1246
 1816TIP3    H127083   5.655   5.201   0.364 -0.0046 -0.3186  0.0106
 1816TIP3    H227084   5.507   5.185   0.338 -0.3609  2.6347 -0.1620
 1817TIP3   OH227085   4.623   5.801   0.003  0.4823 -0.1925 -0.2559
 1817TIP3    H127086   4.537   5.806  -0.038  1.9258 -0.1349 -3.5280
 1817TIP3    H227087   4.636   5.888   0.041 -0.1982  0.3561 -1.2497
 1818TIP3   OH227088   5.331   5.207   8.681 -0.2553 -0.1927  0.1810
 1818TIP3    H127089   5.371   5.151   8.615  2.1472  1.4820  0.0838
 1818TIP3    H227090   5.345   5.296   8.650 -2.0843  0.5637  1.3381
 1819TIP3   OH227091   5.391   0.516   8.028  0.2618 -0.1973 -0.5610
 1819TIP3    H127092   5.347   0.533   7.944  0.8237  0.6354 -0.6992
 1819TIP3    H227093   5.325   0.472   8.081 -1.4610  2.6940 -0.0681
 1820TIP3   OH227094   1.049   2.561   0.957 -0.5405  0.4227 -0.6471
 1820TIP3    H127095   1.093   2.644   0.977  1.5906 -1.2729  2.5524
 1820TIP3    H227096   1.077   2.540   0.868  1.7903  1.4676 -0.2412
 1821TIP3   OH227097   1.134   6.755   3.570 -0.2694  0.1511 -0.3441
 1821TIP3    H127098   1.225   6.776   3.549 -0.2102 -0.7220 -0.9596
 1821TIP3    H227099   1.084   6.781   3.493 -0.6563  1.2852  0.2532
 1822TIP3   OH227100   4.784   6.700   2.843  0.0276 -0.1272 -0.5519
 1822TIP3    H127101   4.844   6.680   2.772 -0.9396  1.6334 -1.9353
 1822TIP3    H227102   4.836   6.753   2.904  0.0173  1.0210 -1.5210
 1823TIP3   OH227103   3.395   4.398   2.011  0.1129 -0.7629 -0.0453
 1823TIP3    H127104   3.451   4.378   2.086  1.2687 -0.1676 -0.7142
 1823TIP3    H227105   3.334   4.325   2.006 -0.5120 -0.4379  1.9344
 1824TIP3   OH227106   4.248   5.537   2.328 -0.2735  0.0885  0.7110
 1824TIP3    H127107   4.309   5.464   2.331 -1.5604 -1.0095  1.4831
 1824TIP3    H227108   4.303   5.615   2.329  1.1155 -0.8498  0.5601
 1825TIP3   OH227109   4.388   0.566   7.919 -0.2917 -0.3499  0.3696
 1825TIP3    H127110   4.367   0.581   7.827  0.8506  1.1003  0.3145
 1825TIP3    H227111   4.303   0.554   7.961 -0.8620 -0.5358 -0.7736
 1826TIP3   OH227112   3.760   1.493   2.117 -0.3255 -0.1330 -0.5945
 1826TIP3    H127113   3.781   1.585   2.102 -0.7374  0.0777  0.0590
 1826TIP3    H227114   3.743   1.458   2.030  0.7644  0.1659 -0.9421
 1827TIP3   OH227115   0.703   2.860   0.147  0.0891  0.2037 -0.1232
 1827TIP3    H127116   0.743   2.819   0.071 -0.4648 -0.9943  0.2171
 1827TIP3    H227117   0.634   2.916   0.111 -0.9274 -1.2196 -0.4785
 1828TIP3   OH227118   6.381   3.448   2.688  0.3804  0.1492 -0.3344
 1828TIP3    H127119   6.404   3.366   2.643  1.6508  0.7025 -0.7480
 1828TIP3    H227120   6.387   3.515   2.620 -2.6425  0.3799 -0.4885
 1829TIP3   OH227121   0.801   4.841   2.114 -0.3734  0.0782 -0.2409
 1829TIP3    H127122   0.764   4.845   2.026 -1.8980  2.1877  0.4164
 1829TIP3    H227123   0.728   4.865   2.172  0.7869 -0.5076  1.5479
 1830TIP3   OH227124   1.889   1.177   1.792  0.1083 -0.8794 -0.2095
 1830TIP3    H127125   1.866   1.091   1.827  1.1749 -1.1751 -0.2064
 1830TIP3    H227126   1.952   1.212   1.854 -0.7178  0.1453  0.0712
 1831TIP3   OH227127   4.098   6.038   0.703 -0.2207 -0.7984 -0.4213
 1831TIP3    H127128   4.116   5.954   0.660 -0.1479 -1.3982  0.7333
 1831TIP3    H227129   4.182   6.062   0.743 -0.4519 -0.5776 -0.0675
 1832TIP3   OH227130   1.937   0.654   8.086  0.2731 -0.1571 -0.1935
 1832TIP3    H127131   1.921   0.561   8.097 -2.7224  0.2776 -0.0778
 1832TIP3    H227132   1.985   0.680   8.165  1.0516 -1.5368 -0.1881
 1833TIP3   OH227133   0.847   1.890   8.764 -0.5329 -0.7897  0.2349
 1833TIP3    H127134   0.764   1.938   8.760 -0.3394 -0.3128  1.4637
 1833TIP3    H227135   0.907   1.941   8.710 -0.1318  0.8283  2.0909
 1834TIP3   OH227136   5.714   0.522   8.897 -0.5588  0.0648  0.0054
 1834TIP3    H127137   5.721   0.439   8.944 -0.8197 -0.2069 -0.4225
 1834TIP3    H227138   5.732   0.498   8.806  2.4753  0.9759  0.2375
 1835TIP3   OH227139   2.944   1.515   1.043 -0.1010  0.0773 -0.0142
 1835TIP3    H127140   2.937   1.555   0.956  1.5877  1.4267  0.3991
 1835TIP3    H227141   2.902   1.429   1.034  1.5065 -0.5546 -2.6499
 1836TIP3   OH227142   2.174   4.809   0.215  0.1030  0.4891  0.0938
 1836TIP3    H127143   2.235   4.771   0.279 -0.9649  0.3473  1.0587
 1836TIP3    H227144   2.158   4.738   0.152  1.3822  0.7179 -0.5251
 1837TIP3   OH227145   3.035   3.316   0.961 -0.2680  0.0067  0.2155
 1837TIP3    H127146   3.072   3.269   1.035  0.6871  1.0671  0.4476
 1837TIP3    H227147   2.960   3.263   0.933  0.4775 -1.3851  0.7432
 1838TIP3   OH227148   0.150   1.246   2.654 -0.5489  0.6207 -0.1123
 1838TIP3    H127149   0.224   1.271   2.709 -0.7170  0.4292  0.2083
 1838TIP3    H227150   0.073   1.279   2.700 -0.8574 -1.2584  0.8295
 1839TIP3   OH227151   1.950   1.741   0.602  0.7742 -0.6753 -0.3541
 1839TIP3    H127152   1.953   1.786   0.518  0.0661  0.4267  0.1683
 1839TIP3    H227153   1.902   1.660   0.585  0.3087 -0.2822 -0.9399
 1840TIP3   OH227154   6.584   0.197   1.966 -0.1734  0.2973 -0.1139
 1840TIP3    H127155   6.600   0.280   2.010 -0.1070  0.1460  0.1507
 1840TIP3    H227156   6.608   0.212   1.875 -0.6669  0.7244 -0.1801
 1841TIP3   OH227157   6.339   2.954   0.372 -0.5620  1.3392  0.2269
 1841TIP3    H127158   6.387   2.987   0.296 -1.0966  1.9273  0.1331
 1841TIP3    H227159   6.297   2.874   0.340  1.2693  0.1545  0.6379
 1842TIP3   OH227160   5.671   4.233   8.849 -0.2672 -0.1448  0.3271
 1842TIP3    H127161   5.642   4.309   8.797  0.4439 -0.0817  0.0205
 1842TIP3    H227162   5.636   4.158   8.802 -2.4733  0.0175  1.5489
 1843TIP3   OH227163   2.507   3.419   2.891 -0.0283  0.0241  0.3533
 1843TIP3    H127164   2.448   3.467   2.834 -1.8301  0.8373  2.7398
 1843TIP3    H227165   2.568   3.376   2.831 -1.2177  1.5049 -2.0944
 1844TIP3   OH227166   5.299   1.680   8.114 -0.5229 -0.2944  0.1081
 1844TIP3    H127167   5.247   1.746   8.068  0.0771 -0.1771 -0.4118
 1844TIP3    H227168   5.344   1.633   8.044  0.2365 -0.2474  0.5680
 1845TIP3   OH227169   5.234   0.158   0.272  0.2847 -0.1994  0.9109
 1845TIP3    H127170   5.230   0.233   0.213  0.1569  0.1069  1.3019
 1845TIP3    H227171   5.327   0.153   0.298  0.1994  0.1570  1.3009
 1846TIP3   OH227172   0.873   5.673   2.796 -0.0037 -0.0544 -0.7458
 1846TIP3    H127173   0.851   5.647   2.707  0.2009 -2.0589 -0.2380
 1846TIP3    H227174   0.806   5.737   2.819 -1.2349 -0.9866 -1.6377
 1847TIP3   OH227175   6.662   2.917   0.320 -0.0050 -0.3706  0.3632
 1847TIP3    H127176   6.749   2.940   0.287 -0.3110 -0.6005 -0.6306
 1847TIP3    H227177   6.671   2.922   0.415  0.8543  0.4847  0.2599
 1848TIP3   OH227178   2.576   3.878   7.680 -0.0896 -0.3339  0.2164
 1848TIP3    H127179   2.649   3.817   7.677 -0.1225 -0.3460 -0.3481
 1848TIP3    H227180   2.551   3.891   7.589  0.5296  1.2713  0.2435
 1849TIP3   OH227181   1.300   5.556   0.320 -0.1554 -0.5471 -0.5332
 1849TIP3    H127182   1.212   5.575   0.352  0.0677 -1.0592  0.3981
 1849TIP3    H227183   1.358   5.609   0.375  0.3747 -2.8071  1.2176
 1850TIP3   OH227184   3.242   1.931   0.430 -0.1895  0.4802  0.0221
 1850TIP3    H127185   3.239   1.945   0.524 -0.3619  0.0643  0.0808
 1850TIP3    H227186   3.306   1.860   0.418 -2.2300 -1.5091  0.0918
 1851TIP3   OH227187   6.703   5.255   8.268 -0.6075  0.0351  0.6902
 1851TIP3    H127188   6.728   5.338   8.228  2.3481 -0.3433  1.5267
 1851TIP3    H227189   6.766   5.191   8.233 -1.7806 -1.5286  1.3214
 1852TIP3   OH227190   6.109   5.381   0.426  0.1345  0.2294 -0.1114
 1852TIP3    H127191   6.066   5.464   0.446 -0.3865 -0.0184 -0.2019
 1852TIP3    H227192   6.142   5.351   0.511 -0.5003  0.0677  0.0824
 1853TIP3   OH227193   3.759   3.538   1.679 -0.9152  0.0457  0.6964
 1853TIP3    H127194   3.752   3.625   1.641 -0.7168 -0.3876 -0.3705
 1853TIP3    H227195   3.668   3.507   1.684 -0.8893 -0.1843 -0.1458
 1854TIP3   OH227196   5.795   4.559   7.744 -0.1079 -0.0323 -0.2482
 1854TIP3    H127197   5.839   4.628   7.695  2.5776  0.2263  2.2483
 1854TIP3    H227198   5.827   4.478   7.704 -0.9580  0.1417 -1.3144
 1855TIP3   OH227199   6.227   0.222   3.281  0.1164  0.0071  0.4834
 1855TIP3    H127200   6.291   0.161   3.318  0.3031  0.2912  0.6345
 1855TIP3    H227201   6.247   0.306   3.323  0.1773  0.2801 -0.0840
 1856TIP3   OH227202   4.410   4.712   0.900 -0.6284  0.1568 -0.5889
 1856TIP3    H127203   4.423   4.747   0.812  3.0814 -1.0052 -0.6898
 1856TIP3    H227204   4.420   4.618   0.890  1.9108  0.1105  1.2111
 1857TIP3   OH227205   5.437   0.203   0.750  0.2652 -0.2069 -0.0056
 1857TIP3    H127206   5.367   0.232   0.691  1.6830  2.2458 -0.6380
 1857TIP3    H227207   5.393   0.189   0.834 -1.1873 -0.0715 -0.7025
 1858TIP3   OH227208   2.600   5.002   2.167  0.3501 -0.6663 -0.5851
 1858TIP3    H127209   2.634   4.994   2.256  2.1819 -1.3946 -1.2983
 1858TIP3    H227210   2.547   4.924   2.154 -1.8692  0.5472  0.5887
 1859TIP3   OH227211   3.507   1.011   2.015 -0.0371  0.0602  0.3895
 1859TIP3    H127212   3.516   0.937   2.076 -2.5791 -0.4566  0.2469
 1859TIP3    H227213   3.549   1.084   2.060  1.5468 -1.1808  1.0328
 1860TIP3   OH227214   2.291   3.777   1.227 -0.2915  0.0693  0.8026
 1860TIP3    H127215   2.201   3.805   1.242  0.7151  2.6012  2.9293
 1860TIP3    H227216   2.303   3.701   1.283 -1.4406 -1.1708 -0.5667
 1861TIP3   OH227217   3.726   1.343   1.900  0.1798  0.8096  0.2479
 1861TIP3    H127218   3.740   1.390   1.818 -0.3034  1.3648  0.4798
 1861TIP3    H227219   3.747   1.252   1.878  2.1246  1.2580  0.0671
 1862TIP3   OH227220   2.791   5.887   8.713 -0.4773  0.8384  0.1067
 1862TIP3    H127221   2.769   5.820   8.778 -1.0513  0.7582 -0.1679
 1862TIP3    H227222   2.837   5.839   8.644 -0.3632  0.8286  0.1885
 1863TIP3   OH227223   5.155   0.992   1.503 -0.1079 -0.3387 -0.0506
 1863TIP3    H127224   5.098   1.067   1.523  0.2985 -0.0247 -0.0763
 1863TIP3    H227225   5.111   0.918   1.546 -2.0434 -0.6594 -2.3478
 1864TIP3   OH227226   6.650   5.256   2.749  0.0130 -0.0302  0.3819
 1864TIP3    H127227   6.619   5.301   2.670  1.2057 -0.7925 -0.5634
 1864TIP3    H227228   6.619   5.311   2.821 -1.2373  0.6125 -0.5924
 1865TIP3   OH227229   1.108   4.795   8.142  0.8097  0.1905 -0.3086
 1865TIP3    H127230   1.108   4.758   8.054  0.7824  0.1142 -0.2769
 1865TIP3    H227231   1.106   4.890   8.128 -3.8353  0.3074 -0.4849
 1866TIP3   OH227232   6.227   5.317   0.691  0.1160 -0.1071 -0.0733
 1866TIP3    H127233   6.312   5.305   0.733 -0.3969 -0.9584  0.7822
 1866TIP3    H227234   6.164   5.310   0.763 -0.7125 -0.2158 -0.7935
 1867TIP3   OH227235   0.247   0.522   0.152 -0.2030  0.0169 -0.1111
 1867TIP3    H127236   0.164   0.547   0.192 -0.6900 -1.9100  0.1795
 1867TIP3    H227237   0.275   0.444   0.200  1.4808  0.2765 -0.6049
 1868TIP3   OH227238   5.116   4.802   0.612 -0.1943  0.8366  0.0736
 1868TIP3    H127239   5.105   4.867   0.681 -0.5399  1.0240 -0.1541
 1868TIP3    H227240   5.035   4.806   0.561  0.1313  0.8399 -0.4576
 1869TIP3   OH227241   1.956   0.798   0.094 -0.4091 -0.1336 -0.6327
 1869TIP3    H127242   1.924   0.843   0.172 -0.5891 -0.3172 -0.5986
 1869TIP3    H227243   1.942   0.861   0.023 -1.6218 -0.5024 -0.7557
 1870TIP3   OH227244   4.329   3.909   0.259  0.3739  0.4889  0.4047
 1870TIP3    H127245   4.352   3.829   0.210  1.5461 -0.0947  1.8247
 1870TIP3    H227246   4.255   3.883   0.314  1.5166 -0.0214  1.7597
 1871TIP3   OH227247   4.316   3.547   8.429 -0.4272  0.2940 -1.0607
 1871TIP3    H127248   4.241   3.592   8.467 -0.2967  0.3683 -0.8881
 1871TIP3    H227249   4.330   3.590   8.345  1.5572  2.6707  0.3530
 1872TIP3   OH227250   0.733   0.539   2.754  0.0940  0.5373 -0.4084
 1872TIP3    H127251   0.695   0.610   2.807  1.1194  1.3020 -0.6708
 1872TIP3    H227252   0.786   0.584   2.689  2.2008 -0.4909  0.5030
 1873TIP3   OH227253   2.868   4.524   8.381  0.2503 -0.4455 -0.1579
 1873TIP3    H127254   2.802   4.517   8.449 -0.5400 -1.0467 -0.9552
 1873TIP3    H227255   2.938   4.464   8.409 -0.2039 -0.9210 -0.0203
 1874TIP3   OH227256   3.897   4.183   2.795 -0.7412  0.0168 -0.0055
 1874TIP3    H127257   3.963   4.190   2.863 -1.0697 -0.7996  0.4172
 1874TIP3    H227258   3.832   4.250   2.818 -1.2112 -0.7185  0.9218
 1875TIP3   OH227259   3.195   3.227   1.695 -0.0195 -0.5691  0.0721
 1875TIP3    H127260   3.110   3.271   1.705  0.4369  0.4484 -0.4101
 1875TIP3    H227261   3.252   3.273   1.757 -0.1274 -2.1457  1.4063
 1876TIP3   OH227262   1.258   6.416   2.763  0.1771 -0.4424  0.2915
 1876TIP3    H127263   1.168   6.445   2.776  0.7140  1.1843  0.6426
 1876TIP3    H227264   1.273   6.351   2.831 -0.8443 -1.0288 -0.0244
 1877TIP3   OH227265   0.842   4.588   2.895 -0.4837  0.0086  0.0732
 1877TIP3    H127266   0.886   4.670   2.916  0.2348 -0.1957 -0.5720
 1877TIP3    H227267   0.769   4.613   2.838  0.4329  0.1012 -1.0855
 1878TIP3   OH227268   2.679   2.332   2.476  0.3027 -0.2191  0.5121
 1878TIP3    H127269   2.670   2.240   2.449  2.3132 -0.9448  2.0825
 1878TIP3    H227270   2.763   2.360   2.440  0.1595  0.7064  0.8695
 1879TIP3   OH227271   4.304   2.882   8.762 -0.3765  0.2348  0.4265
 1879TIP3    H127272   4.348   2.875   8.847 -0.1706 -1.2578  0.2270
 1879TIP3    H227273   4.340   2.809   8.711 -2.3263 -0.3961 -0.1088
 1880TIP3   OH227274   4.158   2.176   0.969 -0.1417  0.6752 -0.3223
 1880TIP3    H127275   4.123   2.253   0.924 -0.0640  1.0488  0.2401
 1880TIP3    H227276   4.164   2.109   0.901 -1.1871  0.8466 -0.6040
 1881TIP3   OH227277   5.211   5.889   2.686  0.0080 -0.5854 -0.4175
 1881TIP3    H127278   5.295   5.845   2.675  0.5310  0.2363  0.2302
 1881TIP3    H227279   5.205   5.908   2.780 -1.2175 -1.2531 -0.3398
 1882TIP3   OH227280   5.340   4.137   0.454 -0.3079  0.2172 -0.3514
 1882TIP3    H127281   5.430   4.170   0.463 -0.7381  1.9382 -1.6710
 1882TIP3    H227282   5.348   4.042   0.458  1.2212  0.3811  2.2399
 1883TIP3   OH227283   0.942   5.051   0.120 -0.3708  0.4810 -0.3750
 1883TIP3    H127284   0.952   5.007   0.204  0.7319 -0.0504 -0.7731
 1883TIP3    H227285   1.019   5.026   0.070 -0.0836  2.2706 -0.8926
 1884TIP3   OH227286   0.554   4.589   2.833 -0.3951 -0.0106  0.5173
 1884TIP3    H127287   0.554   4.649   2.758 -0.1956 -0.2982  0.2803
 1884TIP3    H227288   0.571   4.503   2.794 -1.3239 -0.3241  0.7764
 1885TIP3   OH227289   0.733   2.046   8.502  0.4253 -0.0089  0.2094
 1885TIP3    H127290   0.767   2.123   8.547  1.1332  0.4138 -1.0134
 1885TIP3    H227291   0.639   2.064   8.491  0.4878  0.4340  0.4047
 1886TIP3   OH227292   3.877   3.763   7.833  0.5925  0.1807 -0.2326
 1886TIP3    H127293   3.838   3.679   7.855  0.2784  0.6945  1.2376
 1886TIP3    H227294   3.933   3.785   7.908  0.7720  1.2228 -0.6433
 1887TIP3   OH227295   6.520   5.234   1.101 -0.1296  0.5368  0.4964
 1887TIP3    H127296   6.565   5.155   1.132  0.9656  0.1092 -2.0134
 1887TIP3    H227297   6.588   5.301   1.097 -0.6138  1.0440  0.5927
 1888TIP3   OH227298   5.898   3.542   8.527  0.5641  0.1783  0.4940
 1888TIP3    H127299   5.921   3.470   8.585  0.2593  0.3398  0.8198
 1888TIP3    H227300   5.804   3.532   8.511  0.1852  1.3659  1.7765
 1889TIP3   OH227301   4.789   3.037   2.216 -0.6910 -0.0258  0.0572
 1889TIP3    H127302   4.724   2.982   2.172 -4.3810  4.0503 -0.2892
 1889TIP3    H227303   4.872   3.014   2.174 -2.1440 -3.9746 -1.1311
 1890TIP3   OH227304   2.644   2.037   0.212  0.1069 -0.1595  0.7163
 1890TIP3    H127305   2.695   2.010   0.135  0.6245 -1.1312  1.3734
 1890TIP3    H227306   2.554   2.016   0.190 -0.1845  2.1962 -0.7399
 1891TIP3   OH227307   0.080   0.344   2.831  0.3905 -0.0734  0.1998
 1891TIP3    H127308   0.168   0.310   2.819  1.0813  1.1199  1.6177
 1891TIP3    H227309   0.030   0.271   2.866  0.8562 -0.6881 -0.3857
 1892TIP3   OH227310   4.560   0.295   2.840 -0.1341 -0.5953 -0.1442
 1892TIP3    H127311   4.515   0.324   2.760  1.7818  0.7843 -0.8081
 1892TIP3    H227312   4.507   0.222   2.872 -2.6417  0.7085 -0.9968
 1893TIP3   OH227313   1.231   5.025   0.404 -0.1360  0.6829  0.1411
 1893TIP3    H127314   1.237   5.115   0.371  1.8982  0.1182 -1.2136
 1893TIP3    H227315   1.239   5.035   0.499 -0.0583  1.9421  0.0269
 1894TIP3   OH227316   5.617   1.164   2.147  0.0043 -0.0875 -0.4483
 1894TIP3    H127317   5.594   1.256   2.163 -0.9478 -0.2093 -1.0440
 1894TIP3    H227318   5.692   1.148   2.205 -0.2101  0.8817  0.1229
 1895TIP3   OH227319   5.310   5.253   0.165  0.0549 -0.2306  0.9707
 1895TIP3    H127320   5.377   5.266   0.099  0.0029 -1.8474  0.5766
 1895TIP3    H227321   5.305   5.337   0.211  3.5304 -0.5198  2.1336
 1896TIP3   OH227322   0.748   3.504   2.023 -0.2663 -0.5808  1.1275
 1896TIP3    H127323   0.785   3.535   2.106  2.8553 -1.4898  0.1888
 1896TIP3    H227324   0.779   3.414   2.015 -0.4800 -0.5127 -1.0285
 1897TIP3   OH227325   5.857   1.583   0.183 -0.2182  0.9175 -0.5600
 1897TIP3    H127326   5.863   1.604   0.276 -1.3097  2.2557 -0.7638
 1897TIP3    H227327   5.789   1.516   0.178 -0.4187  1.1079 -0.4229
 1898TIP3   OH227328   4.350   1.624   1.069 -0.4029 -0.5414  0.4867
 1898TIP3    H127329   4.327   1.695   1.129  2.0720 -0.2920  1.2977
 1898TIP3    H227330   4.444   1.611   1.084 -0.8335 -4.4354  0.8428
 1899TIP3   OH227331   0.623   2.351   2.022  0.7174  0.0302  0.7182
 1899TIP3    H127332   0.585   2.435   2.046 -2.2154 -1.2224  0.8821
 1899TIP3    H227333   0.612   2.297   2.100  0.3175 -1.1605 -0.1275
 1900TIP3   OH227334   1.417   3.978   8.084 -0.1968  0.5796 -0.4453
 1900TIP3    H127335   1.511   3.990   8.071  0.0986  0.9715  1.6446
 1900TIP3    H227336   1.385   3.944   8.001  1.9831 -0.6815 -0.8310
 1901TIP3   OH227337   0.253   5.326   1.688  0.1865  0.3383  0.4304
 1901TIP3    H127338   0.292   5.258   1.632 -1.5603 -0.5384  0.2335
 1901TIP3    H227339   0.162   5.300   1.697  0.0648  1.3269  2.4258
 1902TIP3   OH227340   0.965   4.412   1.065 -0.0506 -0.2749 -0.5211
 1902TIP3    H127341   0.901   4.369   1.123  1.6919 -1.4550  0.6121
 1902TIP3    H227342   0.912   4.472   1.012 -1.8867  0.0056  1.4749
 1903TIP3   OH227343   2.193   6.158   2.133 -0.5803  0.2115  0.6555
 1903TIP3    H127344   2.109   6.186   2.096 -0.0122  0.1153 -0.7424
 1903TIP3    H227345   2.224   6.089   2.074 -0.4254 -1.1608  2.2540
 1904TIP3   OH227346   0.751   3.685   8.952  0.0893  0.2828  0.3155
 1904TIP3    H127347   0.829   3.728   8.989  0.2077  0.5214 -0.2066
 1904TIP3    H227348   0.786   3.618   8.894 -0.0987 -0.3141  0.8864
 1905TIP3   OH227349   6.687   6.049   2.619 -0.3409  0.4917 -0.4058
 1905TIP3    H127350   6.767   6.095   2.595 -0.5945  0.6780 -0.9142
 1905TIP3    H227351   6.680   5.978   2.555  0.0170 -0.2301  0.3375
 1906TIP3   OH227352   4.174   4.519   1.943 -0.3751  0.3585 -0.2065
 1906TIP3    H127353   4.242   4.576   1.979 -0.3569  0.8367 -0.9696
 1906TIP3    H227354   4.167   4.448   2.006  3.9298 -2.1156 -2.0870
 1907TIP3   OH227355   5.132   1.587   1.730 -0.0414 -0.2314 -0.2242
 1907TIP3    H127356   5.210   1.640   1.718  0.5881 -0.9029  0.7596
 1907TIP3    H227357   5.066   1.648   1.765 -0.5568  0.7373 -2.7022
 1908TIP3   OH227358   2.763   3.260   2.468  0.1725  0.4196 -0.7679
 1908TIP3    H127359   2.851   3.292   2.487  0.7344  0.0241 -2.5868
 1908TIP3    H227360   2.771   3.165   2.465 -0.7080  0.2661  0.8073
 1909TIP3   OH227361   4.654   1.137   8.766  0.3984  0.3234 -0.0689
 1909TIP3    H127362   4.692   1.203   8.824 -0.4400 -0.3822  1.3560
 1909TIP3    H227363   4.563   1.165   8.753  0.4626  0.2523 -0.7051
 1910TIP3   OH227364   0.185   2.847   2.703 -0.5162 -0.0444  0.2748
 1910TIP3    H127365   0.260   2.883   2.751 -0.4132  0.6823 -0.4008
 1910TIP3    H227366   0.109   2.866   2.758 -0.1596 -1.2833  1.2307
 1911TIP3   OH227367   1.783   5.393   1.975 -0.4107 -0.0046  0.0300
 1911TIP3    H127368   1.758   5.480   2.008 -1.6727 -0.6147  0.7355
 1911TIP3    H227369   1.850   5.363   2.037  2.0933  1.5182 -1.7167
 1912TIP3   OH227370   4.933   6.643   2.623  0.4198 -0.0222  0.1785
 1912TIP3    H127371   4.897   6.617   2.538 -0.0660  0.2507  0.3008
 1912TIP3    H227372   5.013   6.590   2.631  2.4692  2.4714 -2.0352
 1913TIP3   OH227373   1.714   3.706   0.382 -0.5784 -0.4063  0.3729
 1913TIP3    H127374   1.666   3.788   0.395  1.4328  1.3901 -2.4354
 1913TIP3    H227375   1.648   3.644   0.352 -1.6977  1.0131 -0.1981
 1914TIP3   OH227376   3.358   3.438   0.059  0.2892 -0.2262  0.3528
 1914TIP3    H127377   3.383   3.445  -0.034  1.0271 -1.5674  0.4260
 1914TIP3    H227378   3.430   3.388   0.099  0.3725  0.9940  1.8214
 1915TIP3   OH227379   3.922   5.042   7.835  0.1035  0.3100  0.2488
 1915TIP3    H127380   4.002   5.028   7.783 -0.2159  1.7859 -0.6882
 1915TIP3    H227381   3.955   5.063   7.923  0.7577  0.8429 -0.1113
 1916TIP3   OH227382   3.469   4.072   2.198  0.2566  0.0531  0.3157
 1916TIP3    H127383   3.527   4.149   2.190  0.1095  0.3620  1.9408
 1916TIP3    H227384   3.513   4.016   2.262 -1.4198  0.4906  1.9140
 1917TIP3   OH227385   4.946   4.632   2.965  0.6215  0.0631  0.3958
 1917TIP3    H127386   4.996   4.703   2.925 -0.9084  1.4158  0.7851
 1917TIP3    H227387   4.916   4.579   2.890 -0.4311  1.3553 -0.1404
 1918TIP3   OH227388   6.048   2.019   0.709  0.1624  0.2202 -0.5277
 1918TIP3    H127389   6.031   2.027   0.803 -1.1485  0.4055 -0.7693
 1918TIP3    H227390   6.130   1.970   0.704 -1.9413 -3.8159  0.6925
 1919TIP3   OH227391   2.185   0.360   3.288  0.4598 -0.2170  0.1249
 1919TIP3    H127392   2.151   0.273   3.306  0.4034  0.0901  1.7149
 1919TIP3    H227393   2.229   0.385   3.370 -0.6703  1.7651  0.1969
 1920TIP3   OH227394   6.351   3.456   8.862 -0.0817 -0.4603 -0.0662
 1920TIP3    H127395   6.372   3.520   8.930 -0.7520 -0.3588  0.0522
 1920TIP3    H227396   6.419   3.468   8.796  1.5028 -1.6024  1.2543
 1921TIP3   OH227397   5.766   1.198   3.064 -0.0003  0.1938 -0.3465
 1921TIP3    H127398   5.819   1.274   3.040  0.6555 -0.4315 -0.9246
 1921TIP3    H227399   5.828   1.135   3.099 -0.1773 -0.8934 -1.8631
 1922TIP3   OH227400   0.361   4.177   1.014  0.1177  0.0724 -0.2498
 1922TIP3    H127401   0.293   4.215   1.070 -0.7963  2.2960 -2.6213
 1922TIP3    H227402   0.327   4.091   0.990 -1.0562  0.4251  0.0500
 1923TIP3   OH227403   5.624   3.345   8.322 -0.0569 -0.5856 -0.1408
 1923TIP3    H127404   5.614   3.278   8.254 -0.8157 -0.2095 -0.4110
 1923TIP3    H227405   5.692   3.404   8.289 -0.1058 -0.6554 -0.3642
 1924TIP3   OH227406   1.023   5.800   3.280  0.0578  0.5668  0.2250
 1924TIP3    H127407   1.096   5.855   3.306 -0.6342  1.0576  1.2081
 1924TIP3    H227408   1.062   5.732   3.226  1.1968  0.9658  0.5173
 1925TIP3   OH227409   1.757   2.751   0.403 -0.5208 -0.2237 -0.0240
 1925TIP3    H127410   1.793   2.788   0.484 -1.2708 -2.4693  1.4241
 1925TIP3    H227411   1.833   2.742   0.346 -0.2180  2.9397 -0.3140
 1926TIP3   OH227412   5.826   4.291   0.952  0.4228 -0.1902  0.3142
 1926TIP3    H127413   5.790   4.366   1.000  1.8214 -1.2679  3.3097
 1926TIP3    H227414   5.767   4.280   0.877 -0.5521  3.0703  0.4299
 1927TIP3   OH227415   0.230   1.516   2.239 -0.4422  0.4000 -0.0018
 1927TIP3    H127416   0.154   1.500   2.294 -0.5626 -2.0879 -0.7931
 1927TIP3    H227417   0.300   1.538   2.300 -1.1592  0.1465  0.9250
 1928TIP3   OH227418   3.145   2.181   0.377 -0.0040  0.0089  0.3671
 1928TIP3    H127419   3.164   2.088   0.370  0.1638 -0.1171  2.0275
 1928TIP3    H227420   3.056   2.185   0.411 -0.0294  0.4564  0.2571
 1929TIP3   OH227421   2.779   1.712   2.837 -0.2138 -0.4656  0.2230
 1929TIP3    H127422   2.848   1.752   2.784 -1.3513 -1.6752 -2.3487
 1929TIP3    H227423   2.819   1.633   2.873  0.7478  0.6701  1.7473
 1930TIP3   OH227424   6.386   6.756   7.695 -0.4414  0.2567 -0.5547
 1930TIP3    H127425   6.369   6.848   7.674  0.9044  0.4138 -1.1084
 1930TIP3    H227426   6.301   6.713   7.687 -0.9590  1.3278 -1.0121
 1931TIP3   OH227427   1.493   4.883   3.002  0.0953  0.3099 -0.0147
 1931TIP3    H127428   1.477   4.919   3.090 -0.7239  0.1196 -0.0783
 1931TIP3    H227429   1.583   4.850   3.006  0.1507  0.5239  0.6808
 1932TIP3   OH227430   4.954   3.755   1.677 -0.7571  0.3909 -0.0927
 1932TIP3    H127431   4.987   3.823   1.619  0.6874  1.0614  1.4298
 1932TIP3    H227432   5.013   3.680   1.663  0.1951  0.8719  1.1062
 1933TIP3   OH227433   4.469   4.758   7.188 -0.0144  0.1407 -0.8278
 1933TIP3    H127434   4.426   4.778   7.105  0.3309 -0.9815 -1.3050
 1933TIP3    H227435   4.496   4.843   7.223 -0.9001  0.6953 -1.4480
 1934TIP3   OH227436   5.768   2.130   0.694  0.0634  0.0716 -0.6222
 1934TIP3    H127437   5.862   2.114   0.680  0.2812  0.0743  0.7284
 1934TIP3    H227438   5.750   2.091   0.779 -1.4649 -1.0470 -1.4148
 1935TIP3   OH227439   6.098   0.524   2.634 -0.0322 -0.9462 -0.8671
 1935TIP3    H127440   6.036   0.546   2.565 -1.6681  0.9196  1.0554
 1935TIP3    H227441   6.184   0.548   2.598 -0.8675  0.3479 -2.1144
 1936TIP3   OH227442   4.237   3.302   2.204  0.1478 -0.1811  0.7768
 1936TIP3    H127443   4.158   3.339   2.167 -0.6331 -1.2316  1.3387
 1936TIP3    H227444   4.304   3.315   2.137 -0.6074  0.2959  0.1041
 1937TIP3   OH227445   6.461   0.322   7.779 -0.0213 -0.3168  0.3427
 1937TIP3    H127446   6.552   0.291   7.776 -0.3306 -1.2768  0.4894
 1937TIP3    H227447   6.463   0.405   7.732  0.2397 -2.1374 -3.2109
 1938TIP3   OH227448   6.533   4.013   8.861 -0.0551  0.1673  0.2339
 1938TIP3    H127449   6.594   4.048   8.796  1.7201 -0.9745  1.1945
 1938TIP3    H227450   6.504   3.929   8.824 -2.0564  1.2250 -0.7581
 1939TIP3   OH227451   2.085   2.521   0.253  0.0637  0.3553  0.5437
 1939TIP3    H127452   2.073   2.605   0.297 -1.7443  0.2932  0.2694
 1939TIP3    H227453   2.055   2.456   0.317 -0.3346  0.0830  0.0858
 1940TIP3   OH227454   6.330   3.690   2.158  0.6045 -0.6702 -0.7027
 1940TIP3    H127455   6.403   3.750   2.172  0.7976 -1.0921  0.1373
 1940TIP3    H227456   6.268   3.740   2.104  2.0144 -0.7065 -2.4440
 1941TIP3   OH227457   1.617   0.030   8.756 -0.1410  0.5386  0.6715
 1941TIP3    H127458   1.709   0.010   8.739  0.0577 -0.2403  2.4289
 1941TIP3    H227459   1.580  -0.052   8.788 -1.8292  0.4629 -1.2398
 1942TIP3   OH227460   4.947   4.380   2.563  0.0188 -0.2873  0.6475
 1942TIP3    H127461   4.988   4.444   2.620  1.1307 -0.3468 -0.0618
 1942TIP3    H227462   4.964   4.413   2.474 -1.2602 -0.4408  0.3242
 1943TIP3   OH227463   3.117   2.250   3.436  0.4756 -0.2285  0.7491
 1943TIP3    H127464   3.078   2.163   3.435  1.6809 -0.7852  0.6905
 1943TIP3    H227465   3.137   2.266   3.528  0.9349 -0.3428  0.6746
 1944TIP3   OH227466   1.533   4.390   2.446 -0.5351  0.4312  0.4030
 1944TIP3    H127467   1.459   4.329   2.449  0.1465 -0.3967  1.0554
 1944TIP3    H227468   1.557   4.403   2.537  0.1046  0.7116  0.2013
 1945TIP3   OH227469   1.825   4.210   1.237 -0.1127  0.5200 -0.6530
 1945TIP3    H127470   1.868   4.182   1.318 -0.4185  1.0667 -0.2913
 1945TIP3    H227471   1.792   4.129   1.198 -3.0883  0.5038  1.5762
 1946TIP3   OH227472   4.105   0.090   3.389  0.0903 -0.4600  0.5649
 1946TIP3    H127473   4.179   0.065   3.335 -0.1584 -1.2212  0.5674
 1946TIP3    H227474   4.066   0.007   3.417 -1.4221 -0.0882 -0.3387
 1947TIP3   OH227475   3.709   4.240   1.535  0.3458  0.3637  0.6639
 1947TIP3    H127476   3.718   4.157   1.489 -1.7490  0.9992 -1.0390
 1947TIP3    H227477   3.793   4.284   1.524  1.6438 -1.6448  1.9736
 1948TIP3   OH227478   3.985   4.417   2.645  0.2184 -0.4793  0.2475
 1948TIP3    H127479   3.902   4.409   2.691  0.1374 -1.5285 -0.0573
 1948TIP3    H227480   4.051   4.406   2.713  0.1028 -2.6538  0.0673
 1949TIP3   OH227481   6.195   3.693   1.329 -0.3935  0.3312  0.1032
 1949TIP3    H127482   6.174   3.762   1.393  1.5023  1.1914 -0.1135
 1949TIP3    H227483   6.200   3.740   1.245  2.7445  0.4235  0.2032
 1950TIP3   OH227484   0.670   4.564   2.227 -0.0753  0.3780 -0.2536
 1950TIP3    H127485   0.755   4.552   2.185 -0.0862  0.9402 -0.4559
 1950TIP3    H227486   0.638   4.647   2.191 -1.1276 -0.2803 -0.8782
 1951TIP3   OH227487   4.709   5.525   0.431 -0.0987  0.2086  0.2052
 1951TIP3    H127488   4.760   5.504   0.509 -1.0080  0.5747  0.9072
 1951TIP3    H227489   4.747   5.470   0.363  0.1807 -0.7166  1.0860
 1952TIP3   OH227490   4.108   5.578   3.378  0.2669  0.3801  0.2434
 1952TIP3    H127491   4.198   5.570   3.346 -0.9370 -1.0380 -3.2234
 1952TIP3    H227492   4.079   5.664   3.347 -0.6774 -0.7029 -2.0767
 1953TIP3   OH227493   6.234   0.341   8.074  0.3716  0.2557 -0.2171
 1953TIP3    H127494   6.190   0.300   8.000 -0.1762 -0.8980  0.7151
 1953TIP3    H227495   6.312   0.287   8.089 -0.7683 -1.0224  1.5215
 1954TIP3   OH227496   4.718   4.434   8.562 -0.3058 -0.0484  0.5748
 1954TIP3    H127497   4.760   4.348   8.562  0.2260  0.1988  0.1342
 1954TIP3    H227498   4.726   4.464   8.471 -1.8452 -0.1692  0.3850
 1955TIP3   OH227499   0.815   2.050   1.710  0.2616  0.1727 -0.4612
 1955TIP3    H127500   0.802   2.137   1.749  1.1499 -0.1188  0.5422
 1955TIP3    H227501   0.728   2.022   1.683 -0.4715  0.2071  1.7270
 1956TIP3   OH227502   3.170   3.816   2.723  0.4889  0.0642  0.9224
 1956TIP3    H127503   3.174   3.772   2.808  1.7514 -1.6686  0.0415
 1956TIP3    H227504   3.231   3.889   2.732 -1.2266  1.4163  2.2409
 1957TIP3   OH227505   2.364   0.863   8.946  0.4672  1.0320 -0.5709
 1957TIP3    H127506   2.280   0.820   8.930  0.6195  0.9595 -1.2023
 1957TIP3    H227507   2.344   0.956   8.948 -0.2011  0.9514  2.7310
 1958TIP3   OH227508   5.179   5.855   2.960  0.2016 -0.1630 -0.3775
 1958TIP3    H127509   5.222   5.771   2.976  0.2981 -0.3115 -1.3471
 1958TIP3    H227510   5.085   5.836   2.967  0.2298  0.2930  2.3824
 1959TIP3   OH227511   3.930   1.777   2.883 -0.1856  0.0100 -0.0624
 1959TIP3    H127512   3.965   1.724   2.955 -1.0436  0.2072  0.5147
 1959TIP3    H227513   3.915   1.863   2.922 -1.7363 -0.1924 -0.1415
 1960TIP3   OH227514   2.330   6.516   7.842 -0.2828 -0.0836  0.4863
 1960TIP3    H127515   2.247   6.499   7.797  0.3888 -1.1529 -0.4040
 1960TIP3    H227516   2.367   6.429   7.858  2.1898  0.3252 -2.0913
 1961TIP3   OH227517   5.200   3.144   8.939 -0.3468  0.6113  0.1774
 1961TIP3    H127518   5.282   3.120   8.897 -0.9806  0.6796 -1.1710
 1961TIP3    H227519   5.195   3.088   9.016  0.1573 -0.6300 -0.6588
 1962TIP3   OH227520   1.270   1.123   2.955  0.4732  0.1511  0.0449
 1962TIP3    H127521   1.332   1.122   3.028 -0.4968  2.6024  1.0044
 1962TIP3    H227522   1.317   1.165   2.883  0.2257  1.2734  0.5178
 1963TIP3   OH227523   4.244   2.905   0.684  0.5146 -0.2805 -0.8814
 1963TIP3    H127524   4.177   2.951   0.633 -0.3599 -1.0560 -0.4595
 1963TIP3    H227525   4.226   2.813   0.669  0.3644 -0.5262  0.6663
 1964TIP3   OH227526   6.523   1.625   8.677  0.7268  0.0095 -0.4497
 1964TIP3    H127527   6.482   1.629   8.590 -0.8669  0.8619  0.2906
 1964TIP3    H227528   6.585   1.552   8.671 -0.8085 -1.2799 -1.7034
 1965TIP3   OH227529   1.263   3.310   2.094 -0.3993 -0.0344 -0.5813
 1965TIP3    H127530   1.334   3.368   2.123 -1.3583  1.1801 -0.5864
 1965TIP3    H227531   1.249   3.334   2.002 -1.5794  0.5746 -0.2627
 1966TIP3   OH227532   4.735   4.947   8.785  0.4814 -0.3677 -0.2379
 1966TIP3    H127533   4.764   4.857   8.798  1.4121 -0.0542 -0.0597
 1966TIP3    H227534   4.798   5.000   8.835 -1.4164  0.2410  1.7147
 1967TIP3   OH227535   3.159   1.176   2.282 -0.1390 -0.2211 -0.0434
 1967TIP3    H127536   3.237   1.231   2.291 -0.8218  0.5449  1.5729
 1967TIP3    H227537   3.090   1.237   2.255 -0.2917 -0.8224 -1.0658
 1968TIP3   OH227538   6.745   5.819   2.461  0.2888  0.1237  0.2039
 1968TIP3    H127539   6.740   5.746   2.399  3.0478  0.1439 -0.1585
 1968TIP3    H227540   6.785   5.782   2.540  0.8545  1.0217  0.3586
 1969TIP3   OH227541   5.523   2.275   8.750  0.0600 -0.0213  0.1330
 1969TIP3    H127542   5.429   2.277   8.732  0.0589 -2.1542 -0.3935
 1969TIP3    H227543   5.540   2.185   8.778  1.7013  0.7409  1.8275
 1970TIP3   OH227544   4.034   1.285   1.068  0.2731  0.3684 -1.0097
 1970TIP3    H127545   4.108   1.258   1.013  1.6291 -0.2616  0.9989
 1970TIP3    H227546   4.058   1.256   1.156 -2.9337 -0.9671 -0.4389
 1971TIP3   OH227547   6.213   2.287   2.198 -0.4957  0.8036 -0.7094
 1971TIP3    H127548   6.274   2.358   2.177  0.9936 -0.8259 -2.2628
 1971TIP3    H227549   6.142   2.330   2.245  0.4121  3.2794 -1.4186
 1972TIP3   OH227550   1.213   3.604   8.051 -0.9587  0.5524  0.0586
 1972TIP3    H127551   1.295   3.606   8.002 -1.8902 -0.9018 -1.6600
 1972TIP3    H227552   1.220   3.526   8.107 -1.2876  0.2366 -0.3339
 1973TIP3   OH227553   0.028   5.581   1.378 -0.3373  0.1929  0.7075
 1973TIP3    H127554   0.113   5.622   1.391  0.0466 -0.1807 -0.5508
 1973TIP3    H227555   0.046   5.487   1.379 -0.5112  0.1195 -0.8467
 1974TIP3   OH227556   3.402   2.554   0.292  0.2769  0.3392  0.8958
 1974TIP3    H127557   3.478   2.561   0.235  0.0624 -0.4606  0.5023
 1974TIP3    H227558   3.414   2.472   0.340 -1.1567 -0.7051 -0.4283
 1975TIP3   OH227559   3.468   5.960   8.710  0.1212  0.3776  0.2640
 1975TIP3    H127560   3.413   6.034   8.684  0.0622  0.3191  0.2212
 1975TIP3    H227561   3.491   5.917   8.627  0.8830  0.8624  0.2103
 1976TIP3   OH227562   0.155   3.293   0.899  0.2295 -0.5667  0.0734
 1976TIP3    H127563   0.172   3.387   0.892 -2.0864 -0.1336 -0.6069
 1976TIP3    H227564   0.137   3.279   0.992 -1.3814  0.0974 -0.1028
 1977TIP3   OH227565   0.658   0.086   0.871 -0.0144 -0.1095  0.2948
 1977TIP3    H127566   0.648   0.157   0.934 -0.4103 -0.2003  0.3393
 1977TIP3    H227567   0.582   0.094   0.813  0.5418  0.2009 -0.4053
 1978TIP3   OH227568   3.938   3.112   1.875 -0.1433  0.0351 -0.3107
 1978TIP3    H127569   3.893   3.194   1.895  0.0337  0.3337 -1.0966
 1978TIP3    H227570   4.031   3.136   1.873  0.0652 -0.5280  1.0793
 1979TIP3   OH227571   1.847   1.510   1.730 -0.1885  0.3069 -0.4220
 1979TIP3    H127572   1.761   1.549   1.714 -1.4102 -1.6099  1.0922
 1979TIP3    H227573   1.860   1.450   1.657 -0.1264  0.5549 -0.6199
 1980TIP3   OH227574   4.889   0.347   0.387  0.4042  0.1033  0.3075
 1980TIP3    H127575   4.873   0.337   0.293  0.2558  2.5942 -0.0088
 1980TIP3    H227576   4.920   0.437   0.396 -2.7063  1.0981  2.9915
 1981TIP3   OH227577   2.430   0.708   0.428  0.1915 -0.3357  0.0183
 1981TIP3    H127578   2.517   0.690   0.393  0.1429 -1.4984  0.4584
 1981TIP3    H227579   2.382   0.626   0.416 -0.3299 -0.2360  1.2968
 1982TIP3   OH227580   1.891   5.275   0.370 -0.0763 -0.3196  0.0451
 1982TIP3    H127581   1.947   5.230   0.307 -2.1232 -0.8704 -1.5188
 1982TIP3    H227582   1.811   5.295   0.320 -0.9058  1.2601  1.8782
 1983TIP3   OH227583   1.689   4.113   8.773  0.2199  0.2857  0.7816
 1983TIP3    H127584   1.683   4.034   8.720 -2.5288  0.3023  0.9171
 1983TIP3    H227585   1.783   4.124   8.790  0.9335 -1.2724 -1.6844
 1984TIP3   OH227586   3.424   4.235   1.426 -0.2362  0.3356 -0.2117
 1984TIP3    H127587   3.515   4.237   1.456  0.8299  0.3018 -3.0719
 1984TIP3    H227588   3.419   4.158   1.369 -2.1046  0.2796 -0.0415
 1985TIP3   OH227589   0.328   2.986   1.764  0.0399 -0.2974  0.0138
 1985TIP3    H127590   0.388   3.059   1.780 -1.1103  0.8788 -0.8383
 1985TIP3    H227591   0.289   3.005   1.679  0.0565 -2.1837 -0.4667
 1986TIP3   OH227592   4.691   2.154   0.829 -0.4048  0.3037 -0.2363
 1986TIP3    H127593   4.690   2.075   0.774 -1.7338  0.3138 -0.2718
 1986TIP3    H227594   4.601   2.186   0.825 -0.1090  1.2758  0.5770
 1987TIP3   OH227595   1.793   4.634   8.362  0.2061 -1.0349 -0.1072
 1987TIP3    H127596   1.711   4.608   8.405  0.8943 -1.2561  1.1021
 1987TIP3    H227597   1.802   4.572   8.289 -1.9406  0.5110 -1.8438
 1988TIP3   OH227598   3.980   0.797   2.353 -0.2860 -0.0861  0.0993
 1988TIP3    H127599   3.998   0.796   2.259 -0.2298 -1.5838  0.1098
 1988TIP3    H227600   4.042   0.734   2.390 -0.0625  0.7507  1.2013
 1989TIP3   OH227601   5.975   5.469   8.001 -0.1252 -0.3601 -0.1890
 1989TIP3    H127602   6.061   5.508   7.989  0.6910 -1.4805  1.5349
 1989TIP3    H227603   5.929   5.528   8.061  0.1913 -0.7327  0.4370
 1990TIP3   OH227604   3.630   0.205   0.961 -0.2733  0.0028 -0.5648
 1990TIP3    H127605   3.603   0.231   0.873  0.8506  0.0851 -0.9063
 1990TIP3    H227606   3.712   0.157   0.947 -0.4185 -0.5336  0.3828
 1991TIP3   OH227607   2.811   5.307   3.349 -0.0531 -0.3408  0.2285
 1991TIP3    H127608   2.727   5.277   3.314  0.9246 -0.5654 -2.0729
 1991TIP3    H227609   2.873   5.238   3.325  0.4548 -1.5689  4.2676
 1992TIP3   OH227610   1.601   2.496   8.455 -0.1915 -0.5567  0.2374
 1992TIP3    H127611   1.548   2.574   8.464  0.9232  0.2992 -0.3648
 1992TIP3    H227612   1.557   2.444   8.387  0.7695  1.0942 -1.7617
 1993TIP3   OH227613   4.945   4.932   1.252  0.0667 -0.8673  0.1302
 1993TIP3    H127614   5.002   4.901   1.182  1.1646 -0.5597  0.8711
 1993TIP3    H227615   4.937   5.027   1.237 -0.3422 -0.9276 -0.0391
 1994TIP3   OH227616   4.817   0.850   3.632  0.3667  0.0845 -0.4181
 1994TIP3    H127617   4.865   0.931   3.650  1.1276 -0.6309  0.9964
 1994TIP3    H227618   4.732   0.879   3.600  1.2627  1.3992 -1.7249
 1995TIP3   OH227619   2.455   0.387   0.374 -0.4250  0.5418  0.3496
 1995TIP3    H127620   2.389   0.336   0.327  0.5101 -0.6089  0.2312
 1995TIP3    H227621   2.426   0.386   0.465 -0.2464 -0.5102  0.4064
 1996TIP3   OH227622   4.489   3.146   1.623  0.2026 -0.2115 -0.3620
 1996TIP3    H127623   4.535   3.062   1.631  0.8344  0.1489 -0.1914
 1996TIP3    H227624   4.551   3.211   1.655 -0.1904  0.3556 -0.7309
 1997TIP3   OH227625   1.312   2.159   1.603  0.0686 -0.4223 -0.6113
 1997TIP3    H127626   1.339   2.103   1.531 -2.9024 -2.0011 -0.6801
 1997TIP3    H227627   1.226   2.193   1.577  0.9658  2.8999  0.2038
 1998TIP3   OH227628   5.469   3.748   1.922  0.2863  0.6535 -0.5473
 1998TIP3    H127629   5.417   3.750   2.003  0.0678 -2.3879 -0.4973
 1998TIP3    H227630   5.557   3.772   1.951 -0.4379  3.0871 -0.1262
 1999TIP3   OH227631   2.111   3.605   7.908  0.1792  0.3405 -0.3587
 1999TIP3    H127632   2.046   3.558   7.856  0.4400 -2.9007  1.9498
 1999TIP3    H227633   2.189   3.606   7.853 -0.8949  1.5419 -1.9452
 2000TIP3   OH227634   0.075   0.052   2.436  0.3795  0.1867 -0.1110
 2000TIP3    H127635   0.160   0.031   2.475  1.0736  2.0233 -0.5533
 2000TIP3    H227636   0.011   0.022   2.501  1.3607 -0.6881  0.4937
 2001TIP3   OH227637   5.092   0.393   2.600  0.3857 -0.8574 -0.4287
 2001TIP3    H127638   5.086   0.307   2.558 -0.6061 -2.8310  3.2947
 2001TIP3    H227639   5.180   0.395   2.638  0.7887  0.2809 -1.3821
 2002TIP3   OH227640   5.693   1.181   8.856 -0.2920 -0.1776 -0.2620
 2002TIP3    H127641   5.628   1.230   8.806 -2.5283 -1.9353  0.7544
 2002TIP3    H227642   5.765   1.242   8.868  0.1427  0.6090 -4.9329
 2003TIP3   OH227643   5.943   2.558   8.012 -0.0070 -0.1005  0.0769
 2003TIP3    H127644   5.931   2.630   8.074 -0.7407 -1.4251  1.5351
 2003TIP3    H227645   5.870   2.568   7.950 -0.8819 -0.3445  1.0460
 2004TIP3   OH227646   4.873   2.702   2.480  0.2892 -0.7007 -0.4860
 2004TIP3    H127647   4.947   2.730   2.426  1.0080 -0.7987  0.4070
 2004TIP3    H227648   4.900   2.618   2.516  1.2883  0.7863  2.5882
 2005TIP3   OH227649   6.613   0.179   2.561  0.1785 -0.3187 -0.2331
 2005TIP3    H127650   6.595   0.154   2.470 -1.1744 -1.1855  0.2520
 2005TIP3    H227651   6.640   0.098   2.604  0.3626 -0.0090  0.2500
 2006TIP3   OH227652   6.760   5.441   0.197  0.3541 -0.2886 -0.1234
 2006TIP3    H127653   6.693   5.505   0.222  0.2982  0.5905 -2.2899
 2006TIP3    H227654   6.777   5.392   0.277 -1.9811  0.2716  0.7986
 2007TIP3   OH227655   5.746   0.876   1.589 -0.0942  0.2842 -0.3434
 2007TIP3    H127656   5.772   0.784   1.583 -1.9842 -0.3984  0.9832
 2007TIP3    H227657   5.754   0.898   1.682  1.4417  1.8628 -0.7819
 2008TIP3   OH227658   1.281   5.777   2.056 -0.5797 -0.0120  0.1459
 2008TIP3    H127659   1.276   5.693   2.012 -1.6076 -0.6033  1.3176
 2008TIP3    H227660   1.315   5.756   2.143  0.0723  0.9255  0.1323
 2009TIP3   OH227661   1.055   5.874   1.600  0.0224  0.5084 -0.1484
 2009TIP3    H127662   0.975   5.868   1.548  0.4145  0.2859 -0.7317
 2009TIP3    H227663   1.067   5.968   1.613  1.6736  0.8866 -3.2816
 2010TIP3   OH227664   4.142   2.062   2.932  0.1742  0.2431 -0.3133
 2010TIP3    H127665   4.217   2.114   2.963  1.0839 -0.0830 -1.8701
 2010TIP3    H227666   4.177   2.009   2.861 -1.2616 -0.8811 -0.2285
 2011TIP3   OH227667   5.945   3.817   8.619  0.2793  0.5405  0.0350
 2011TIP3    H127668   5.895   3.755   8.671  0.3852  0.7860  0.4404
 2011TIP3    H227669   5.879   3.870   8.574  0.0052  2.9289  2.9578
 2012TIP3   OH227670   1.836   3.468   1.571 -0.5282  0.1474 -0.1961
 2012TIP3    H127671   1.756   3.513   1.546 -0.1680  1.3490  0.7263
 2012TIP3    H227672   1.899   3.538   1.588 -0.0030 -0.6656  1.4510
 2013TIP3   OH227673   5.625   3.345   0.319 -0.1298  0.0909 -0.3550
 2013TIP3    H127674   5.544   3.388   0.292  0.1327  0.4478 -0.5890
 2013TIP3    H227675   5.642   3.280   0.250 -0.4786 -0.3296 -0.0482
 2014TIP3   OH227676   3.132   5.226   3.245 -0.5496 -0.0160 -0.3837
 2014TIP3    H127677   3.189   5.201   3.317 -0.9455 -0.1949 -0.1329
 2014TIP3    H227678   3.142   5.321   3.239 -2.0705  0.3179  1.2698
 2015TIP3   OH227679   0.224   1.669   8.585  0.5837  0.2175 -0.0395
 2015TIP3    H127680   0.182   1.609   8.523 -2.0018 -0.3803  2.1356
 2015TIP3    H227681   0.242   1.748   8.533 -2.5766  0.2057 -1.3433
 2016TIP3   OH227682   5.592   3.893   0.758  0.1107  0.3698  0.0604
 2016TIP3    H127683   5.650   3.918   0.830 -0.2151 -1.1488  0.8920
 2016TIP3    H227684   5.522   3.844   0.801 -1.7802  2.0739 -0.9156
 2017TIP3   OH227685   5.170   5.912   8.701 -0.0289 -0.4554 -0.1016
 2017TIP3    H127686   5.076   5.897   8.716  0.3876 -2.5899  0.6492
 2017TIP3    H227687   5.209   5.825   8.701  1.8711  0.3275 -1.2164
 2018TIP3   OH227688   5.913   6.650   2.478  0.4108  0.0631  0.3365
 2018TIP3    H127689   5.907   6.584   2.409  1.5359 -0.6143  0.8524
 2018TIP3    H227690   5.837   6.635   2.533  0.2768 -0.3275  0.0475
 2019TIP3   OH227691   0.825   2.206   7.861  0.3898 -0.9376  0.8517
 2019TIP3    H127692   0.796   2.259   7.786  0.1369 -0.2935  1.3934
 2019TIP3    H227693   0.919   2.199   7.850  0.2642 -1.5308  0.0371
 2020TIP3   OH227694   1.530   6.781   2.598 -0.6857 -0.2367 -0.0917
 2020TIP3    H127695   1.614   6.783   2.644 -0.9767 -1.8480  0.5681
 2020TIP3    H227696   1.470   6.829   2.655 -0.1794  1.2020 -0.7165
 2021TIP3   OH227697   1.532   1.380   0.549  0.0590  0.2475  0.2412
 2021TIP3    H127698   1.442   1.362   0.577  0.0075  1.5898  1.0329
 2021TIP3    H227699   1.523   1.424   0.465 -0.1202  1.4722  0.8754
 2022TIP3   OH227700   1.332   4.991   7.985 -0.2224  0.1659 -0.1094
 2022TIP3    H127701   1.316   4.913   7.932  3.0216  0.7830 -2.2770
 2022TIP3    H227702   1.245   5.029   7.998 -1.5234 -1.8331 -2.1503
 2023TIP3   OH227703   4.528   5.163   0.535  0.1192 -0.0101  0.4127
 2023TIP3    H127704   4.583   5.143   0.459 -0.5602 -1.8813  0.3700
 2023TIP3    H227705   4.454   5.103   0.527  0.2217 -0.5314  2.7446
 2024TIP3   OH227706   4.681   5.155   1.082  0.2419  0.6346  0.1778
 2024TIP3    H127707   4.760   5.190   1.124  0.1003  0.5571  0.5102
 2024TIP3    H227708   4.664   5.214   1.009  0.2825  0.9728  0.4432
 2025TIP3   OH227709   4.574   2.638   0.331 -0.2652 -0.1015 -0.0228
 2025TIP3    H127710   4.526   2.568   0.285 -0.8260  0.7376 -0.7695
 2025TIP3    H227711   4.621   2.593   0.401  0.7603 -1.4782 -1.5188
 2026TIP3   OH227712   2.751   1.004   7.704  0.6228  0.0232 -0.1390
 2026TIP3    H127713   2.717   0.925   7.661 -1.0941  1.3050 -1.2484
 2026TIP3    H227714   2.824   1.031   7.648 -0.7432  0.9119 -1.5966
 2027TIP3   OH227715   5.443   2.655   2.300 -0.1659  0.4429 -0.2038
 2027TIP3    H127716   5.429   2.646   2.206 -1.3933  2.5128 -0.2629
 2027TIP3    H227717   5.357   2.639   2.339  0.3509 -0.5047  0.6026
 2028TIP3   OH227718   3.182   1.734   8.213 -0.2745 -0.0077 -0.6879
 2028TIP3    H127719   3.110   1.686   8.173 -0.4256 -0.8161  0.4925
 2028TIP3    H227720   3.224   1.669   8.270 -1.6256  1.6623  2.4314
 2029TIP3   OH227721   3.167   4.319   2.668  0.7088  0.0981  0.4899
 2029TIP3    H127722   3.223   4.279   2.602  0.7605  1.9446 -0.6598
 2029TIP3    H227723   3.227   4.350   2.736  1.0399  1.3396 -0.3414
 2030TIP3   OH227724   1.138   0.804   2.189 -0.7360  0.5766  0.4121
 2030TIP3    H127725   1.048   0.807   2.221 -0.2433  0.2502  1.8820
 2030TIP3    H227726   1.165   0.896   2.186 -0.8355  0.6204  0.8000
 2031TIP3   OH227727   4.736   4.425   2.793  0.4783 -0.8241  0.1078
 2031TIP3    H127728   4.794   4.436   2.718  0.6882 -2.9479 -0.0782
 2031TIP3    H227729   4.744   4.333   2.817 -1.2079 -0.6765  1.4103
 2032TIP3   OH227730   0.738   2.446   2.405  0.3451 -0.7683 -0.2769
 2032TIP3    H127731   0.662   2.451   2.463 -0.1706  0.2694 -1.0012
 2032TIP3    H227732   0.751   2.353   2.390  0.4059 -1.0512  1.3734
 2033TIP3   OH227733   6.414   3.370   1.290 -0.4063  0.2600  0.0818
 2033TIP3    H127734   6.331   3.375   1.338 -0.2231  0.2837  0.3929
 2033TIP3    H227735   6.402   3.296   1.230 -0.5336  0.0584  0.3536
 2034TIP3   OH227736   3.474   3.791   7.635  0.1775 -0.4147  0.0977
 2034TIP3    H127737   3.422   3.823   7.709  1.1622 -1.3844  1.2522
 2034TIP3    H227738   3.476   3.864   7.574  1.5809  1.4592  2.2135
 2035TIP3   OH227739   2.264   4.830   2.727  0.8015 -0.0373 -0.4796
 2035TIP3    H127740   2.329   4.762   2.713  0.5806 -0.2725 -0.3655
 2035TIP3    H227741   2.241   4.823   2.820 -0.3182 -0.7976 -0.7935
 2036TIP3   OH227742   3.759   0.573   8.812 -0.2611  0.0423 -0.4836
 2036TIP3    H127743   3.682   0.615   8.850 -1.6456 -0.1979 -2.8053
 2036TIP3    H227744   3.778   0.626   8.734  1.7514 -0.1123 -0.1409
 2037TIP3   OH227745   3.007   2.423   2.010  0.3119  0.9509  0.0986
 2037TIP3    H127746   3.004   2.515   2.036 -0.6777  1.1317 -0.5747
 2037TIP3    H227747   2.957   2.420   1.928 -0.9878 -0.4339  0.8925
 2038TIP3   OH227748   3.106   3.442   0.213  0.0582  0.2553 -0.6120
 2038TIP3    H127749   3.111   3.395   0.296 -1.3031 -1.0623 -1.2119
 2038TIP3    H227750   3.196   3.444   0.181  0.5757  0.5970  0.7690
 2039TIP3   OH227751   4.000   6.687   2.267  0.4047 -0.0470  0.4482
 2039TIP3    H127752   4.042   6.640   2.340  0.9748 -0.4484 -0.1233
 2039TIP3    H227753   4.069   6.694   2.201  0.0906  0.9200  0.2180
 2040TIP3   OH227754   6.630   4.137   0.816 -0.1600  0.0812 -0.3617
 2040TIP3    H127755   6.682   4.090   0.750 -2.1877 -0.0342 -1.9768
 2040TIP3    H227756   6.592   4.068   0.869  1.9198  0.1881  1.3904
 2041TIP3   OH227757   6.621   6.219   0.481  0.3857 -0.2197  0.3038
 2041TIP3    H127758   6.585   6.283   0.419  2.2854  2.5478  1.8113
 2041TIP3    H227759   6.661   6.152   0.426 -1.3635  0.0374 -1.3901
 2042TIP3   OH227760   5.009   5.486   8.922 -0.3625  0.5298 -0.4909
 2042TIP3    H127761   4.970   5.563   8.881 -0.7982  0.1225 -0.8580
 2042TIP3    H227762   5.009   5.506   9.016 -0.7972  0.8315 -0.5537
 2043TIP3   OH227763   6.653   6.751   1.382 -0.3705 -0.3249  0.2813
 2043TIP3    H127764   6.696   6.754   1.296 -1.0438 -0.5555 -0.0720
 2043TIP3    H227765   6.709   6.696   1.435 -0.0353 -0.3244 -0.0658
 2044TIP3   OH227766   2.062   1.117   0.027 -0.0573 -0.4481  0.1391
 2044TIP3    H127767   1.977   1.107   0.070 -1.4090  0.8648 -2.0349
 2044TIP3    H227768   2.049   1.077  -0.059  1.0120  1.1407 -0.8007
 2045TIP3   OH227769   4.203   6.150   8.521  0.1465  0.1509 -0.0892
 2045TIP3    H127770   4.145   6.098   8.577  0.7110  0.5688  0.9080
 2045TIP3    H227771   4.230   6.223   8.576  0.9414  0.4270 -0.8302
 2046TIP3   OH227772   3.829   2.622   0.161  0.3616 -0.1453  0.5679
 2046TIP3    H127773   3.770   2.565   0.111  1.6295 -1.6000  0.6378
 2046TIP3    H227774   3.770   2.677   0.213 -0.9451 -0.3162 -0.6499
 2047TIP3   OH227775   6.251   2.209   7.613 -0.1882  1.0876 -0.2541
 2047TIP3    H127776   6.286   2.120   7.613 -0.8908  0.7312 -2.6692
 2047TIP3    H227777   6.323   2.264   7.642  0.9598 -0.0675 -0.8204
 2048TIP3   OH227778   0.836   0.045   1.348  0.1487 -0.0867  0.0693
 2048TIP3    H127779   0.842   0.085   1.435 -1.8518 -1.7740  1.0766
 2048TIP3    H227780   0.742   0.041   1.330  0.5442  1.0454 -2.6263
 2049TIP3   OH227781   6.498   0.904   0.600 -0.0535  0.0135  0.4694
 2049TIP3    H127782   6.534   0.991   0.620 -1.4614  0.2917  2.1109
 2049TIP3    H227783   6.403   0.919   0.593 -0.0491 -0.8228 -2.8018
 2050TIP3   OH227784   3.207   2.097   2.505 -0.1935 -0.1496  0.3843
 2050TIP3    H127785   3.299   2.125   2.507  0.5438 -1.8349 -2.8244
 2050TIP3    H227786   3.209   2.005   2.529 -0.9318 -0.3935 -0.4505
 2051TIP3   OH227787   5.200   6.696   0.004  0.0237 -0.9362  0.1239
 2051TIP3    H127788   5.114   6.737   0.013 -0.1356 -1.1485 -0.3853
 2051TIP3    H227789   5.257   6.747   0.062 -0.0052  0.4741 -1.0439
 2052TIP3   OH227790   0.903   6.554   0.722  0.1085  0.7273  0.1477
 2052TIP3    H127791   0.976   6.494   0.706  1.6460  2.0961  1.6130
 2052TIP3    H227792   0.942   6.641   0.715 -1.4848  1.5085  0.5869
 2053TIP3   OH227793   4.355   1.381   7.497 -0.1070 -0.0556  0.2897
 2053TIP3    H127794   4.306   1.424   7.567 -0.4690  0.0340 -0.0166
 2053TIP3    H227795   4.446   1.385   7.525 -0.3715 -1.2259  1.4181
 2054TIP3   OH227796   1.850   6.551   2.294 -0.0521 -1.0560 -0.2992
 2054TIP3    H127797   1.770   6.583   2.335  0.6956 -0.2512  0.5724
 2054TIP3    H227798   1.895   6.630   2.263  2.5166 -0.9508  3.1538
 2055TIP3   OH227799   2.661   6.272   1.420 -0.1745 -0.5542  0.1769
 2055TIP3    H127800   2.691   6.259   1.510  0.0605 -1.0438  0.0287
 2055TIP3    H227801   2.698   6.199   1.371  1.4382  0.8158 -0.7489
 2056TIP3   OH227802   6.142   0.427   1.521  0.8025 -0.0236 -0.1344
 2056TIP3    H127803   6.227   0.422   1.476  0.9878  0.8624  0.0837
 2056TIP3    H227804   6.164   0.417   1.614  0.8156  1.2315  0.0185
 2057TIP3   OH227805   2.261   3.267   8.009 -0.6027 -0.0368 -0.4651
 2057TIP3    H127806   2.310   3.188   7.984  0.7862 -0.0962  2.0938
 2057TIP3    H227807   2.309   3.339   7.967 -0.2728 -0.3450 -0.6212
 2058TIP3   OH227808   4.341   5.782   8.496  0.0724 -0.2626 -0.1943
 2058TIP3    H127809   4.387   5.814   8.573  0.2064 -2.6439  0.7981
 2058TIP3    H227810   4.389   5.703   8.470 -1.0429 -0.5129 -1.6155
 2059TIP3   OH227811   6.647   6.066   1.415  1.0103 -0.0869 -0.1661
 2059TIP3    H127812   6.682   6.048   1.502 -1.4611 -1.4062  0.6497
 2059TIP3    H227813   6.659   5.983   1.367  2.0387  0.5222 -1.0214
 2060TIP3   OH227814   2.686   0.859   0.716 -0.2344  0.4912  0.3312
 2060TIP3    H127815   2.743   0.806   0.772 -0.3901 -3.1510 -2.6046
 2060TIP3    H227816   2.609   0.877   0.770  0.1918 -1.6656  1.7812
 2061TIP3   OH227817   0.732   4.013   0.658  0.0083 -0.1396  0.0047
 2061TIP3    H127818   0.746   4.078   0.727  0.8116  0.2313 -0.4993
 2061TIP3    H227819   0.810   4.018   0.603 -0.6603 -0.3443 -1.0085
 2062TIP3   OH227820   5.615   3.187   8.580  0.5400 -0.2532  0.1059
 2062TIP3    H127821   5.635   3.271   8.538  0.7151 -0.2326  0.2298
 2062TIP3    H227822   5.631   3.202   8.673  1.3772 -0.6671  0.0314
 2063TIP3   OH227823   1.615   3.345   0.452 -0.2595 -0.5128 -0.0353
 2063TIP3    H127824   1.707   3.318   0.458  0.9084  2.9501  0.3843
 2063TIP3    H227825   1.602   3.400   0.529 -1.9002  1.0376 -1.3318
 2064TIP3   OH227826   3.898   0.628   0.861  0.1185  0.3546  0.0935
 2064TIP3    H127827   3.989   0.600   0.850  0.6353  0.3110  3.5017
 2064TIP3    H227828   3.903   0.720   0.886 -0.9684  0.9113 -1.5554
 2065TIP3   OH227829   2.089   5.256   8.106 -0.1564 -0.0350  0.0685
 2065TIP3    H127830   2.030   5.276   8.178  1.4013 -0.2767  1.4725
 2065TIP3    H227831   2.115   5.165   8.121 -1.1155 -0.6705 -1.8013
 2066TIP3   OH227832   0.739   4.767   1.670  0.8831  0.1592  0.1854
 2066TIP3    H127833   0.709   4.687   1.714  1.2163 -0.0572  0.0228
 2066TIP3    H227834   0.693   4.837   1.716 -0.5588 -0.2070 -0.6281
 2067TIP3   OH227835   3.470   5.517   2.642 -0.5358 -0.2007 -0.1620
 2067TIP3    H127836   3.474   5.482   2.731  0.8925  2.1930  0.8084
 2067TIP3    H227837   3.500   5.445   2.586  0.2042 -1.1939  1.4626
 2068TIP3   OH227838   0.024   3.966   7.669  0.0997 -0.6706  0.9086
 2068TIP3    H127839  -0.002   3.887   7.716  1.8147 -0.8620  1.6179
 2068TIP3    H227840   0.115   3.981   7.695  0.9836 -0.4591 -1.9255
 2069TIP3   OH227841   1.313   4.516   8.332  0.3287 -0.0880  0.0670
 2069TIP3    H127842   1.280   4.457   8.400 -0.2266  1.6140  1.3418
 2069TIP3    H227843   1.370   4.461   8.277  1.9301 -1.2411  2.7055
 2070TIP3   OH227844   5.684   2.980   8.401  0.2157  0.0277  0.6235
 2070TIP3    H127845   5.696   3.041   8.474  1.6901  0.8378 -0.2272
 2070TIP3    H227846   5.590   2.981   8.383 -0.2000 -0.3092  2.5823
 2071TIP3   OH227847   5.313   0.704   7.400  0.3140  0.0044 -0.3299
 2071TIP3    H127848   5.386   0.765   7.385  1.3123 -1.0309  0.1278
 2071TIP3    H227849   5.235   0.759   7.394  1.2550  2.0626  3.1894
 2072TIP3   OH227850   1.850   0.948   2.617 -0.1934  0.5111 -0.1529
 2072TIP3    H127851   1.881   0.886   2.683 -1.4465  0.9279  0.8626
 2072TIP3    H227852   1.825   0.893   2.542  0.1603 -0.0611  0.1421
 2073TIP3   OH227853   5.840   2.908   2.116 -0.1617  0.4961  0.1189
 2073TIP3    H127854   5.859   2.998   2.090  0.0298 -0.1528 -2.2000
 2073TIP3    H227855   5.825   2.913   2.211 -2.7099  3.3867 -0.2788
 2074TIP3   OH227856   1.147   6.241   0.360 -0.3270  0.4048  0.5797
 2074TIP3    H127857   1.223   6.300   0.357  0.7728 -0.9678  0.3690
 2074TIP3    H227858   1.182   6.157   0.330 -2.2349  0.0361 -0.7839
 2075TIP3   OH227859   1.200   0.044   0.972  0.5803  0.2073  0.5736
 2075TIP3    H127860   1.165   0.133   0.968 -0.2517 -0.1162  0.3771
 2075TIP3    H227861   1.143  -0.001   1.034 -2.0335 -1.4431 -2.6878
 2076TIP3   OH227862   4.948   5.994   1.985  0.1685  0.4840 -0.2015
 2076TIP3    H127863   5.005   5.918   1.977 -1.6375 -0.8434 -1.2726
 2076TIP3    H227864   4.960   6.042   1.903 -0.5556 -0.0414 -0.6242
 2077TIP3   OH227865   4.245   2.260   0.165 -0.3596  0.6092 -0.1769
 2077TIP3    H127866   4.286   2.187   0.210 -0.3640  0.1202 -0.9475
 2077TIP3    H227867   4.155   2.262   0.198 -0.3219  0.3431 -0.0626
 2078TIP3   OH227868   1.308   6.590   8.511 -0.1641  0.1149 -0.1102
 2078TIP3    H127869   1.357   6.520   8.556  2.0021 -0.2683 -2.7807
 2078TIP3    H227870   1.364   6.667   8.519  0.0924  0.1247 -1.7674
 2079TIP3   OH227871   6.235   5.640   0.955 -0.3572 -0.0383  0.3832
 2079TIP3    H127872   6.192   5.612   1.035  0.1630 -0.3099  0.5733
 2079TIP3    H227873   6.278   5.723   0.978 -1.3164  0.5753  0.0126
 2080TIP3   OH227874   6.050   0.275   1.169 -0.0111  0.1778 -0.0608
 2080TIP3    H127875   6.007   0.315   1.094 -0.1882 -0.5246 -0.3471
 2080TIP3    H227876   6.042   0.339   1.239 -1.1685  0.2338 -0.2272
 2081TIP3   OH227877   2.001   0.056   2.629  0.4231 -0.2192 -0.4046
 2081TIP3    H127878   1.961   0.068   2.543 -1.3394  2.7818  0.6559
 2081TIP3    H227879   1.930   0.020   2.683  0.6975  0.3895  0.3687
 2082TIP3   OH227880   2.129   5.967   2.541  0.3948  0.1318 -0.2106
 2082TIP3    H127881   2.179   5.939   2.618  1.0082  0.6968 -0.3883
 2082TIP3    H227882   2.191   5.960   2.468  0.1531  0.6498 -0.4742
 2083TIP3   OH227883   2.083   4.262   0.763 -0.1849  0.4244  0.2634
 2083TIP3    H127884   2.015   4.329   0.772  1.0749  1.5589  1.9908
 2083TIP3    H227885   2.076   4.211   0.844  1.8375  1.4081  1.1111
 2084TIP3   OH227886   5.588   4.278   7.609  0.9678  0.0636 -0.3603
 2084TIP3    H127887   5.510   4.248   7.564  0.5454  0.1566  0.2996
 2084TIP3    H227888   5.630   4.198   7.642 -0.2288  0.1586  1.5163
 2085TIP3   OH227889   3.099   0.951   1.670 -0.0250 -0.2050 -0.3281
 2085TIP3    H127890   3.041   0.945   1.746  0.0158  0.5198 -0.2325
 2085TIP3    H227891   3.170   1.009   1.698  2.1448 -2.9959  0.4407
 2086TIP3   OH227892   2.561   1.359   0.804  0.5038  0.1089 -0.4369
 2086TIP3    H127893   2.636   1.379   0.861  0.8139 -1.4603 -0.2455
 2086TIP3    H227894   2.581   1.403   0.722  0.5470  1.5581  0.3089
 2087TIP3   OH227895   1.970   6.786   0.594 -0.5935 -0.8403 -0.0396
 2087TIP3    H127896   1.883   6.748   0.584 -0.5415 -1.3523  1.3092
 2087TIP3    H227897   1.990   6.822   0.507 -2.5247  0.1668 -0.1175
 2088TIP3   OH227898   3.288   3.922   0.010 -0.1323 -0.0256  0.0815
 2088TIP3    H127899   3.205   3.879   0.031  0.0293 -0.8076 -0.8210
 2088TIP3    H227900   3.353   3.851   0.010  0.8035  0.7499  2.0542
 2089TIP3   OH227901   3.300   2.131   1.539 -0.3824  0.2514 -0.1839
 2089TIP3    H127902   3.266   2.085   1.615 -1.4715  0.5940 -0.4554
 2089TIP3    H227903   3.293   2.224   1.562  0.1764  0.3325 -0.3279
 2090TIP3   OH227904   3.358   0.388   1.892  0.4361  0.5393 -0.0603
 2090TIP3    H127905   3.346   0.470   1.845  1.7362 -0.1502 -1.7202
 2090TIP3    H227906   3.370   0.413   1.983  0.2154  2.1234 -0.4427
 2091TIP3   OH227907   3.905   1.054   0.376  0.1044 -0.3972 -0.7693
 2091TIP3    H127908   3.918   1.136   0.328  0.9653  0.0238  0.1288
 2091TIP3    H227909   3.952   1.067   0.458  1.4095 -2.2811 -1.1425
 2092TIP3   OH227910   0.167   1.632   7.928 -0.1633  0.1479  0.1078
 2092TIP3    H127911   0.214   1.572   7.985  0.4511  1.3447  0.8946
 2092TIP3    H227912   0.234   1.690   7.892 -0.7105  0.2491 -0.8071
 2093TIP3   OH227913   5.770   1.695   2.982 -0.3161 -0.8489 -0.5682
 2093TIP3    H127914   5.796   1.716   3.072 -0.8664 -0.8166 -0.4174
 2093TIP3    H227915   5.682   1.730   2.973 -0.3452 -1.0408 -1.0548
 2094TIP3   OH227916   0.759   3.741   1.655  0.2945  0.3686 -0.0782
 2094TIP3    H127917   0.747   3.811   1.718 -1.6936  0.3137 -0.3202
 2094TIP3    H227918   0.774   3.785   1.572  0.3825  0.4899  0.0030
 2095TIP3   OH227919   0.169   0.029   1.825  0.0835 -0.2976 -0.5471
 2095TIP3    H127920   0.263   0.046   1.835 -0.0164  0.4790 -0.7957
 2095TIP3    H227921   0.127   0.082   1.892 -0.1711 -0.7993 -0.3044
 2096TIP3   OH227922   6.245   3.177   2.466 -0.2942 -1.2016 -0.7081
 2096TIP3    H127923   6.278   3.135   2.387  0.8261 -0.1493 -0.8262
 2096TIP3    H227924   6.314   3.166   2.530  0.5934  1.4195 -1.0871
 2097TIP3   OH227925   2.437   2.479   2.188 -0.7000  0.7724 -0.2744
 2097TIP3    H127926   2.496   2.426   2.134  1.3354  1.9891  0.6233
 2097TIP3    H227927   2.400   2.418   2.251  0.1763  0.0862 -0.4023
 2098TIP3   OH227928   5.906   5.254   8.350 -0.0214 -0.2160  0.2503
 2098TIP3    H127929   5.837   5.201   8.389 -1.2808 -0.0418 -1.5981
 2098TIP3    H227930   5.891   5.342   8.385  0.4674 -0.5408  1.3126
 2099TIP3   OH227931   2.393   1.448   1.618  0.6160 -0.6916 -0.0346
 2099TIP3    H127932   2.487   1.427   1.624  0.4568 -1.4003  0.0732
 2099TIP3    H227933   2.376   1.450   1.524  1.4635  2.8788 -0.2430
 2100TIP3   OH227934   5.180   2.249   0.406  0.2513  0.6182 -0.1591
 2100TIP3    H127935   5.162   2.250   0.312 -2.9152  1.7721  0.3418
 2100TIP3    H227936   5.257   2.305   0.416  0.6667  0.4449 -2.0389
 2101TIP3   OH227937   0.808   0.340   0.973  0.4773 -0.3711  0.2931
 2101TIP3    H127938   0.783   0.368   1.061  1.5986 -0.2827  0.5990
 2101TIP3    H227939   0.903   0.328   0.978  0.8544  1.5009 -1.4145
 2102TIP3   OH227940   6.218   5.503   8.274 -0.2095 -0.1419 -0.0672
 2102TIP3    H127941   6.225   5.515   8.179  1.7413  0.3724  0.1027
 2102TIP3    H227942   6.127   5.524   8.293 -0.3336  1.0645 -1.6718
 2103TIP3   OH227943   5.606   6.302   2.228 -0.6926  0.5895 -0.0511
 2103TIP3    H127944   5.537   6.285   2.164  0.0351 -0.8991 -0.4898
 2103TIP3    H227945   5.591   6.392   2.256 -0.5085  1.6306 -2.9798
 2104TIP3   OH227946   1.278   6.549   0.026  0.3248  0.7452  0.4145
 2104TIP3    H127947   1.275   6.620   0.090  0.2843 -0.7382  2.1432
 2104TIP3    H227948   1.190   6.546  -0.011  0.1133  1.1114  0.8761
 2105TIP3   OH227949   3.788   4.647   8.777 -0.2861  0.1390 -0.6556
 2105TIP3    H127950   3.883   4.649   8.789 -0.5273  1.9955  1.4709
 2105TIP3    H227951   3.767   4.735   8.744 -1.3515  0.0624 -0.2012
 2106TIP3   OH227952   1.396   5.697   3.180 -0.5565  0.0889  0.4943
 2106TIP3    H127953   1.393   5.790   3.203 -2.6119  0.5866 -1.4719
 2106TIP3    H227954   1.306   5.666   3.193  0.4059 -2.1183  2.7123
 2107TIP3   OH227955   4.202   4.354   7.042  0.6704  0.2095 -0.0339
 2107TIP3    H127956   4.297   4.346   7.043  0.5987 -1.3748  2.6905
 2107TIP3    H227957   4.183   4.434   7.091  0.5768 -0.3700  0.8894
 2108TIP3   OH227958   1.980   1.878   7.744 -0.3065  0.4099  0.2030
 2108TIP3    H127959   1.886   1.883   7.723 -0.0973  0.6405 -0.7113
 2108TIP3    H227960   2.015   1.963   7.717 -0.1347  1.0046  2.1692
 2109TIP3   OH227961   1.989   0.599   0.956  0.2375  0.1503  0.3607
 2109TIP3    H127962   1.947   0.517   0.981  1.5076 -0.2434  1.3363
 2109TIP3    H227963   1.917   0.659   0.938 -0.7874 -1.5396 -1.7936
 2110TIP3   OH227964   4.062   1.137   1.301 -0.3894  0.1201 -0.1853
 2110TIP3    H127965   4.011   1.076   1.354 -1.3819  0.3295 -0.8698
 2110TIP3    H227966   4.131   1.169   1.360  0.2943 -1.8063  0.1139
 2111TIP3   OH227967   1.238   6.491   1.060 -0.0976  0.6245 -0.2375
 2111TIP3    H127968   1.268   6.494   0.969  1.7506 -0.6064  0.2839
 2111TIP3    H227969   1.146   6.519   1.055 -0.0156  0.7284 -2.4442
 2112TIP3   OH227970   1.308   6.225   1.856  0.4617  0.0893  0.2774
 2112TIP3    H127971   1.359   6.159   1.903  0.6845  1.0581  1.4517
 2112TIP3    H227972   1.217   6.197   1.866  0.5699 -0.1554  0.5909
 2113TIP3   OH227973   6.634   5.976   0.737 -0.4712  0.1120 -0.0514
 2113TIP3    H127974   6.567   5.918   0.701 -0.1379 -0.4133  0.1481
 2113TIP3    H227975   6.669   5.928   0.811 -2.6684  2.0761  2.4471
 2114TIP3   OH227976   2.604   2.668   2.319 -0.2781 -0.1420  0.3527
 2114TIP3    H127977   2.546   2.617   2.262  0.3968  0.3131 -0.7606
 2114TIP3    H227978   2.575   2.758   2.308 -0.9548 -0.1539  1.7186
 2115TIP3   OH227979   1.874   4.352   2.725 -0.2133 -0.0782 -0.0172
 2115TIP3    H127980   1.952   4.389   2.765 -0.6751 -0.4920  1.3247
 2115TIP3    H227981   1.810   4.424   2.726  0.0283  0.1550 -0.7880
 2116TIP3   OH227982   3.216   1.896   2.267  0.2570 -0.1519  0.2050
 2116TIP3    H127983   3.135   1.851   2.290 -0.3204  0.0655 -1.2990
 2116TIP3    H227984   3.214   1.977   2.318  0.5867 -1.0996  1.7937
 2117TIP3   OH227985   6.591   3.754   2.578 -0.4890  0.2289 -0.3598
 2117TIP3    H127986   6.671   3.704   2.590 -2.0852 -2.7149 -0.9835
 2117TIP3    H227987   6.547   3.750   2.664 -1.5465 -1.3370 -0.9170
 2118TIP3   OH227988   3.682   6.478   0.569 -0.0265 -0.0095 -0.0011
 2118TIP3    H127989   3.649   6.402   0.522 -1.8126  0.4428  0.4529
 2118TIP3    H227990   3.711   6.443   0.654  0.2834 -0.3481 -0.2433
 2119TIP3   OH227991   4.824   4.551   7.946 -0.3167  0.7295  0.4651
 2119TIP3    H127992   4.750   4.568   7.888 -1.0289  1.2149  1.4944
 2119TIP3    H227993   4.803   4.468   7.988  0.3591  0.2087 -0.2116
 2120TIP3   OH227994   4.158   6.499   1.710  0.1177 -0.0450 -0.5209
 2120TIP3    H127995   4.096   6.460   1.771  0.3313  0.5607  0.0967
 2120TIP3    H227996   4.231   6.527   1.765  0.9754 -0.7986 -1.2443
 2121TIP3   OH227997   2.947   1.989   1.194  0.1678 -0.0462  0.4395
 2121TIP3    H127998   2.921   2.079   1.211 -0.6533 -0.3504  0.8602
 2121TIP3    H227999   3.042   1.988   1.208  0.6078  1.2825 -1.9295
 2122TIP3   OH228000   5.206   0.448   8.704  0.1844  0.0944 -0.6297
 2122TIP3    H128001   5.295   0.414   8.720  1.0625  1.7160 -1.8016
 2122TIP3    H228002   5.220   0.532   8.661 -1.9424  0.8331  0.0214
 2123TIP3   OH228003   2.718   3.925   8.798 -0.1651 -0.6146  0.6213
 2123TIP3    H128004   2.661   3.849   8.782  0.3783 -0.6346 -1.4622
 2123TIP3    H228005   2.751   3.949   8.711  0.7788  1.1533  1.4276
 2124TIP3   OH228006   6.780   2.762   1.129  0.2341 -0.1030  0.4146
 2124TIP3    H128007   6.701   2.745   1.182  0.6419  2.1079  1.8519
 2124TIP3    H228008   6.757   2.837   1.075 -0.1558 -2.2949 -2.7197
 2125TIP3   OH228009   3.490   4.701   8.737 -0.5095  0.2850 -0.6568
 2125TIP3    H128010   3.409   4.744   8.711 -0.6172 -0.3255 -1.3635
 2125TIP3    H228011   3.472   4.607   8.727 -0.9184 -0.0932  2.6855
 2126TIP3   OH228012   2.430   1.507   8.686 -0.4636  0.5439 -0.3434
 2126TIP3    H128013   2.518   1.479   8.661 -0.9164 -0.2194 -1.1202
 2126TIP3    H228014   2.439   1.601   8.704  0.5442  0.4297 -0.2156
 2127TIP3   OH228015   2.105   4.123   7.868  0.5502 -1.1371 -0.0527
 2127TIP3    H128016   2.098   4.028   7.860  0.2291 -1.0821 -0.4560
 2127TIP3    H228017   2.092   4.155   7.779 -0.2558 -0.6558  0.2299
 2128TIP3   OH228018   4.340   3.869   8.289  0.2092  0.0199  0.5514
 2128TIP3    H128019   4.284   3.935   8.247 -0.3373  0.6576  2.2060
 2128TIP3    H228020   4.312   3.786   8.250  0.3225  0.6481 -0.9522
 2129TIP3   OH228021   5.489   1.028   8.323 -0.7592 -0.1358 -0.5085
 2129TIP3    H128022   5.535   1.094   8.271  0.5844 -0.3020  0.4224
 2129TIP3    H228023   5.453   1.077   8.397 -0.7524 -0.2673 -0.4192
 2130TIP3   OH228024   0.737   4.134   8.255  0.9105 -0.1273  0.0276
 2130TIP3    H128025   0.689   4.217   8.253 -0.7642 -1.0241  0.7238
 2130TIP3    H228026   0.807   4.149   8.319  0.4808  0.6859  0.3313
 2131TIP3   OH228027   5.619   5.891   1.958  0.2208  0.3251 -0.1359
 2131TIP3    H128028   5.636   5.904   2.051  1.3670  0.6328 -0.3749
 2131TIP3    H228029   5.525   5.909   1.948 -0.0440 -0.2656  1.0407
 2132TIP3   OH228030   4.217   4.061   8.111 -0.3231  0.4215  0.0289
 2132TIP3    H128031   4.138   4.092   8.154 -0.1804  0.3715  0.3280
 2132TIP3    H228032   4.188   4.033   8.024 -0.5343  0.9348 -0.0674
 2133TIP3   OH228033   5.790   0.381   3.047  0.5356 -0.2160  0.1411
 2133TIP3    H128034   5.846   0.441   3.096 -0.2263  0.8373 -0.2718
 2133TIP3    H228035   5.833   0.373   2.962 -1.1217  2.4880 -1.0583
 2134TIP3   OH228036   3.173   1.274   0.781 -0.2779  0.5286  0.0761
 2134TIP3    H128037   3.249   1.217   0.793 -0.7941  0.0533  1.2742
 2134TIP3    H228038   3.120   1.260   0.859 -1.8605  0.4648 -0.9732
 2135TIP3   OH228039   2.359   1.561   2.070  1.0998 -0.2077  0.4747
 2135TIP3    H128040   2.393   1.531   2.154 -1.6797  0.5747  2.0246
 2135TIP3    H228041   2.264   1.564   2.082  0.7329  2.3559 -1.8474
 2136TIP3   OH228042   5.290   4.341   0.074 -0.2955 -0.4743 -0.1668
 2136TIP3    H128043   5.292   4.314   0.165  0.5823 -0.5103 -0.1916
 2136TIP3    H228044   5.232   4.278   0.031 -1.3486  0.0153  0.5050
 2137TIP3   OH228045   5.221   2.931   0.833 -0.7736 -0.2435  0.3260
 2137TIP3    H128046   5.257   2.950   0.919  0.7604  0.3144 -0.3998
 2137TIP3    H228047   5.194   2.840   0.838 -2.3294  0.2528  1.9116
 2138TIP3   OH228048   0.277   0.146   3.054 -0.5407 -0.0736 -0.0054
 2138TIP3    H128049   0.255   0.060   3.088 -1.9698  0.0660 -0.5212
 2138TIP3    H228050   0.212   0.205   3.094  0.5767  0.8297  0.5570
 2139TIP3   OH228051   2.480   0.239   1.416 -0.1890 -0.1578 -0.7650
 2139TIP3    H128052   2.463   0.208   1.327  1.9685  0.8852 -1.6229
 2139TIP3    H228053   2.464   0.333   1.411 -1.2255 -0.2650  0.2979
 2140TIP3   OH228054   1.827   5.790   1.297 -0.0153 -0.3515 -0.4425
 2140TIP3    H128055   1.858   5.775   1.207  1.0023  0.5934 -0.2731
 2140TIP3    H228056   1.851   5.711   1.344 -2.5261 -1.8296 -1.4449
 2141TIP3   OH228057   2.388   2.759   0.305  0.0211  0.1271 -0.7146
 2141TIP3    H128058   2.381   2.667   0.278 -0.9111 -0.0704  0.1443
 2141TIP3    H228059   2.481   2.771   0.325 -0.2460 -1.4360  1.8748
 2142TIP3   OH228060   5.365   2.093   2.495  0.2377 -0.3261  0.0142
 2142TIP3    H128061   5.363   2.034   2.570  1.9097  1.0969  1.2742
 2142TIP3    H228062   5.454   2.085   2.460 -0.5007 -0.9662 -1.8806
 2143TIP3   OH228063   4.757   5.378   8.823  0.1616 -0.1480  0.4692
 2143TIP3    H128064   4.726   5.291   8.850  1.0977 -0.9508 -0.9065
 2143TIP3    H228065   4.812   5.407   8.895 -1.2864 -0.0522  1.5740
 2144TIP3   OH228066   0.418   0.951   3.148 -0.7644  0.3318  0.0898
 2144TIP3    H128067   0.465   1.021   3.194 -0.5872 -0.0112  0.4469
 2144TIP3    H228068   0.365   0.910   3.216 -0.6147 -0.0890 -0.0437
 2145TIP3   OH228069   4.772   5.927   2.183  0.1556  0.3730  0.1364
 2145TIP3    H128070   4.795   5.931   2.090  1.3224  0.5512  0.4130
 2145TIP3    H228071   4.804   5.841   2.212  1.0727  0.8743  0.6696
 2146TIP3   OH228072   5.027   6.237   7.385  0.1671 -0.0737  0.5112
 2146TIP3    H128073   4.952   6.186   7.354 -1.8390  3.3253 -0.7481
 2146TIP3    H228074   5.085   6.242   7.309 -0.4639  0.8280  0.0631
 2147TIP3   OH228075   5.683   1.435   8.261  0.7368 -0.0126 -0.0841
 2147TIP3    H128076   5.729   1.449   8.344  0.1387  1.8580 -0.0121
 2147TIP3    H228077   5.692   1.518   8.215 -2.1371  0.2837 -0.2664
 2148TIP3   OH228078   6.559   6.576   2.122  0.2749 -0.6241 -0.2921
 2148TIP3    H128079   6.496   6.508   2.145 -0.0771  0.0008  0.6240
 2148TIP3    H228080   6.508   6.642   2.075  0.4486 -0.5716 -0.4135
 2149TIP3   OH228081   3.207   4.138   0.424  0.0697 -0.1403  0.8546
 2149TIP3    H128082   3.150   4.215   0.422  2.3068  1.6087 -1.1313
 2149TIP3    H228083   3.264   4.148   0.348  0.9033 -3.4829  0.8839
 2150TIP3   OH228084   1.982   4.986   0.436 -0.4896  0.7442 -0.2600
 2150TIP3    H128085   2.006   4.912   0.492 -1.0694  0.1825 -0.7450
 2150TIP3    H228086   1.913   4.952   0.379  0.0271  1.3392 -1.2583
 2151TIP3   OH228087   2.193   5.560   8.028 -0.1297 -0.4105  0.3024
 2151TIP3    H128088   2.105   5.598   8.025 -0.3865 -1.0097  0.1692
 2151TIP3    H228089   2.179   5.466   8.025  0.4832 -0.5436  1.1633
 2152TIP3   OH228090   3.839   3.406   8.555 -0.2946 -0.0946 -0.6103
 2152TIP3    H128091   3.849   3.422   8.461  2.7689  3.0463  0.0308
 2152TIP3    H228092   3.926   3.377   8.584  0.4006  3.6037  1.7797
 2153TIP3   OH228093   4.423   6.736   8.590  0.0317 -0.1939 -0.1379
 2153TIP3    H128094   4.371   6.814   8.606 -0.8111 -0.8795  0.6034
 2153TIP3    H228095   4.409   6.715   8.498 -0.3470  0.0939 -0.1454
 2154TIP3   OH228096   5.630   0.234   2.114  0.0603  0.1840  0.1341
 2154TIP3    H128097   5.565   0.172   2.083  0.2205 -1.1072  2.1574
 2154TIP3    H228098   5.692   0.180   2.164  0.9354  1.7964  0.8646
 2155TIP3   OH228099   6.743   4.547   0.649 -0.0220 -0.3499  0.4127
 2155TIP3    H128100   6.671   4.515   0.703 -0.2226 -1.8051 -0.6508
 2155TIP3    H228101   6.721   4.519   0.561  1.6626 -0.5046  0.0030
 2156TIP3   OH228102   2.416   1.780   1.492  0.0778 -0.0454 -0.6373
 2156TIP3    H128103   2.458   1.865   1.505  2.0592 -1.0861  0.2006
 2156TIP3    H228104   2.388   1.753   1.579 -2.5019  0.6109 -1.1656
 2157TIP3   OH228105   4.202   5.805   0.592  0.5007 -0.1380  0.4050
 2157TIP3    H128106   4.199   5.809   0.496 -0.9416  0.2986  0.4414
 2157TIP3    H228107   4.134   5.742   0.615 -0.9368  1.6181  1.2075
 2158TIP3   OH228108   4.410   2.327   0.818  0.0163  0.4174  0.4259
 2158TIP3    H128109   4.451   2.364   0.896 -1.4372 -1.2309  2.0704
 2158TIP3    H228110   4.316   2.330   0.836 -0.2900 -1.3403 -0.5704
 2159TIP3   OH228111   2.718   0.514   8.091 -0.0556 -0.2781 -0.1167
 2159TIP3    H128112   2.783   0.545   8.028 -0.0321  0.2546  0.1636
 2159TIP3    H228113   2.665   0.450   8.042 -0.2615  0.3841 -0.7847
 2160TIP3   OH228114   0.566   1.387   3.587  0.6547  0.5141 -0.4992
 2160TIP3    H128115   0.479   1.405   3.622  0.9799 -1.7483  1.8152
 2160TIP3    H228116   0.608   1.473   3.579 -1.0652  1.4693  0.3374
 2161TIP3   OH228117   0.487   4.682   1.365 -0.1877 -0.0533 -0.3457
 2161TIP3    H128118   0.399   4.645   1.359  0.3305 -1.8417  1.6792
 2161TIP3    H228119   0.544   4.605   1.372  1.6348  1.0435 -2.2033
 2162TIP3   OH228120   3.294   1.491   0.259 -0.1031 -0.1748 -0.0995
 2162TIP3    H128121   3.332   1.484   0.171  1.0939 -1.0174  0.4661
 2162TIP3    H228122   3.217   1.546   0.247  1.3515  1.7102 -1.2627
 2163TIP3   OH228123   3.512   3.425   1.650 -0.8671 -0.4860  0.3127
 2163TIP3    H128124   3.426   3.429   1.692 -0.7419  0.8717  0.5007
 2163TIP3    H228125   3.494   3.444   1.557 -0.9436 -1.7873  0.0489
 2164TIP3   OH228126   3.191   1.928   0.713  0.4680  0.2637  0.3976
 2164TIP3    H128127   3.186   2.023   0.728  2.5287  0.4009  0.5164
 2164TIP3    H228128   3.284   1.907   0.726 -0.0665 -1.8974  1.0510
 2165TIP3   OH228129   1.549   5.785   0.374  0.1118  0.5337 -0.1422
 2165TIP3    H128130   1.556   5.815   0.284  2.2295  0.3192 -0.0994
 2165TIP3    H228131   1.522   5.862   0.424  0.3519  1.0158 -0.7526
 2166TIP3   OH228132   1.491   2.485   2.583  0.2178 -0.3981  0.0464
 2166TIP3    H128133   1.445   2.438   2.514 -1.3131 -1.1055  1.4711
 2166TIP3    H228134   1.421   2.525   2.636  1.3707  0.9134  0.6522
 2167TIP3   OH228135   6.375   5.855   1.053  0.4048  0.7885  0.2407
 2167TIP3    H128136   6.375   5.893   1.141  0.1588  2.5287 -0.4851
 2167TIP3    H228137   6.458   5.807   1.049  0.9889  1.6986  1.0010
 2168TIP3   OH228138   2.887   0.474   1.395 -0.1889 -0.1075 -0.2700
 2168TIP3    H128139   2.972   0.508   1.422 -0.7549  1.3841 -0.2796
 2168TIP3    H228140   2.857   0.420   1.468  0.0745  0.6378  0.3970
 2169TIP3   OH228141   6.125   5.033   8.568 -0.4918 -0.3305 -0.1206
 2169TIP3    H128142   6.089   5.053   8.655 -0.4727 -0.9857  0.0430
 2169TIP3    H228143   6.053   4.989   8.522 -1.4100  2.2448 -1.3657
 2170TIP3   OH228144   0.066   0.276   3.815  0.0853 -0.3602  0.4543
 2170TIP3    H128145   0.089   0.288   3.723 -1.4653 -1.2514 -0.1033
 2170TIP3    H228146   0.093   0.186   3.835  1.3358  0.1646  1.1868
 2171TIP3   OH228147   1.511   4.786   1.120  0.2304  0.0740 -0.1096
 2171TIP3    H128148   1.415   4.786   1.125  0.2247  1.0607 -0.0331
 2171TIP3    H228149   1.535   4.693   1.128 -0.8463 -0.5186 -2.7125
 2172TIP3   OH228150   6.785   1.227   1.386 -0.0011  0.0761  0.6810
 2172TIP3    H128151   6.802   1.152   1.444  0.3815 -0.7451 -0.4657
 2172TIP3    H228152   6.832   1.300   1.427  1.7153 -0.8828  0.5182
 2173TIP3   OH228153   2.146   4.827   7.734 -0.6277  0.4099 -0.2270
 2173TIP3    H128154   2.138   4.836   7.829 -0.6373  0.3944 -0.2263
 2173TIP3    H228155   2.061   4.856   7.700 -1.4140 -1.6088 -0.0975
 2174TIP3   OH228156   6.194   0.314   8.949 -0.2340  0.1245  0.4218
 2174TIP3    H128157   6.221   0.387   9.005  1.1092 -0.5982  0.7539
 2174TIP3    H228158   6.164   0.355   8.868 -2.0082  1.1841  1.5422
 2175TIP3   OH228159   6.779   3.465   1.981  0.2802 -0.4055  0.2459
 2175TIP3    H128160   6.842   3.397   1.957  0.8264  0.5225 -1.0625
 2175TIP3    H228161   6.814   3.546   1.943 -0.4373  0.6005  1.6117
 2176TIP3   OH228162   1.003   2.204   8.528 -0.4565  0.0442 -0.8015
 2176TIP3    H128163   1.021   2.170   8.616 -0.6564 -0.9635 -1.1454
 2176TIP3    H228164   0.911   2.229   8.530 -0.3608  0.3834 -0.6078
 2177TIP3   OH228165   4.667   2.215   0.488 -0.5474 -0.0541 -0.4847
 2177TIP3    H128166   4.754   2.181   0.464 -0.8972 -0.0081 -1.9289
 2177TIP3    H228167   4.635   2.153   0.554  1.7269  1.5279  2.3169
 2178TIP3   OH228168   1.034   0.326   1.259  0.1138 -0.2628 -0.0953
 2178TIP3    H128169   0.945   0.361   1.258  0.4641  0.6526 -1.1484
 2178TIP3    H228170   1.022   0.232   1.268 -0.9868 -0.2088 -0.7479
 2179TIP3   OH228171   2.382   6.173   2.537  0.0593  0.2190 -0.1682
 2179TIP3    H128172   2.395   6.221   2.619 -0.9024  0.9718 -0.4570
 2179TIP3    H228173   2.433   6.092   2.550  1.1792  0.9986  0.5625
 2180TIP3   OH228174   3.932   1.671   2.449 -0.2708 -0.2669 -0.3320
 2180TIP3    H128175   3.946   1.738   2.516 -0.5518 -0.7305  0.2055
 2180TIP3    H228176   3.837   1.668   2.439 -0.2474 -0.4446 -0.4964
 2181TIP3   OH228177   2.416   3.016   0.911 -0.1145 -0.3491  0.4626
 2181TIP3    H128178   2.423   3.085   0.846  1.1491  0.8582  1.8127
 2181TIP3    H228179   2.502   2.973   0.911 -0.4558 -1.0502  0.5609
 2182TIP3   OH228180   4.958   1.934   1.486 -0.0790 -0.1643 -0.7155
 2182TIP3    H128181   4.874   1.887   1.490 -0.9723  1.1851 -2.3151
 2182TIP3    H228182   4.986   1.941   1.577 -1.8349 -0.4372 -0.1140
 2183TIP3   OH228183   6.698   4.718   7.997  0.0533  0.0680  0.2216
 2183TIP3    H128184   6.683   4.758   7.911  0.4861 -0.0055  0.1049
 2183TIP3    H228185   6.676   4.626   7.986  1.6465 -0.2967 -0.2810
 2184TIP3   OH228186   2.446   5.511   1.370  0.4206  0.2965 -0.4617
 2184TIP3    H128187   2.475   5.484   1.457 -0.4557 -0.6110 -0.4324
 2184TIP3    H228188   2.440   5.430   1.320 -1.1619  0.5222 -0.7163
 2185TIP3   OH228189   6.139   6.063   8.570  0.6698  0.1462 -0.2236
 2185TIP3    H128190   6.121   6.153   8.597  2.4620  0.0438  1.6237
 2185TIP3    H228191   6.231   6.063   8.546  0.5286 -1.0626 -0.8412
 2186TIP3   OH228192   5.967   6.330   0.234  0.5079  0.2615  0.3688
 2186TIP3    H128193   5.966   6.426   0.224 -1.7929  0.1446 -1.2063
 2186TIP3    H228194   5.959   6.297   0.145 -0.9269 -1.3531  1.0464
 2187TIP3   OH228195   5.881   4.049   1.503 -0.7035 -0.1670 -0.0793
 2187TIP3    H128196   5.829   4.121   1.538  1.3459  0.1996  2.5708
 2187TIP3    H228197   5.834   3.970   1.530 -0.7067  0.1772  0.9938
 2188TIP3   OH228198   6.620   0.016   2.329  0.5873  0.1397  0.6562
 2188TIP3    H128199   6.609  -0.061   2.273 -0.4990 -0.2310  1.3308
 2188TIP3    H228200   6.714   0.023   2.343  1.2353  1.7781 -3.2507
 2189TIP3   OH228201   0.968   3.612   8.318 -0.2633  0.1015  0.0395
 2189TIP3    H128202   0.955   3.577   8.230  0.5801 -0.5424  0.1639
 2189TIP3    H228203   0.973   3.535   8.374  0.2955  0.4721  0.4993
 2190TIP3   OH228204   2.395   0.680   3.357 -0.5973  0.7272 -0.0430
 2190TIP3    H128205   2.423   0.721   3.439 -0.9788  2.4994 -0.7489
 2190TIP3    H228206   2.300   0.693   3.355 -0.8385 -0.8718  0.0383
 2191TIP3   OH228207   5.708   2.959   0.291  0.3185  0.1273  0.2766
 2191TIP3    H128208   5.675   2.999   0.371  0.7644  0.7705  0.1413
 2191TIP3    H228209   5.772   2.894   0.321  1.5920  1.3823  0.4155
 2192TIP3   OH228210   3.399   1.339   3.379  0.1089 -0.0848  0.5894
 2192TIP3    H128211   3.352   1.350   3.462  0.2592 -0.1628  0.6863
 2192TIP3    H228212   3.347   1.387   3.315  1.3315  2.2282  1.1977
 2193TIP3   OH228213   1.513   6.622   0.312 -0.0257  0.4393 -0.4258
 2193TIP3    H128214   1.466   6.662   0.238 -1.3621  1.2462  0.8126
 2193TIP3    H228215   1.451   6.560   0.350  0.1087  1.0451  0.8455
 2194TIP3   OH228216   0.221   6.245   1.582 -0.0229 -0.1635  0.3788
 2194TIP3    H128217   0.315   6.257   1.597  0.0116  1.3405 -0.7838
 2194TIP3    H228218   0.183   6.332   1.596 -0.8575 -0.1437 -1.7126
 2195TIP3   OH228219   2.455   1.161   3.275  0.1473 -0.1746  0.5936
 2195TIP3    H128220   2.368   1.185   3.243  0.2958 -1.1918 -0.6438
 2195TIP3    H228221   2.461   1.202   3.361 -1.6167 -0.2007  0.7613
 2196TIP3   OH228222   6.219   0.996   1.565 -0.3339 -0.5749  0.3213
 2196TIP3    H128223   6.184   0.913   1.533 -4.1587 -0.1391  2.7380
 2196TIP3    H228224   6.257   0.975   1.650  0.5215 -0.1500  0.0526
 2197TIP3   OH228225   0.130   0.555   8.878 -0.3786 -0.1585 -0.7321
 2197TIP3    H128226   0.060   0.497   8.908 -0.6831  0.7914  0.4951
 2197TIP3    H228227   0.186   0.567   8.955 -0.8189  1.8429 -0.6631
 2198TIP3   OH228228   2.738   6.559   1.441 -0.2023 -0.2426 -0.0666
 2198TIP3    H128229   2.749   6.577   1.348 -3.7409  0.4904 -0.4899
 2198TIP3    H228230   2.722   6.465   1.446  1.2301 -0.4984 -0.0039
 2199TIP3   OH228231   5.916   2.996   1.686 -0.7887 -0.1275 -0.6307
 2199TIP3    H128232   5.848   2.937   1.718 -1.9550  0.1220 -2.5074
 2199TIP3    H228233   5.895   3.009   1.593  1.3926  0.5685 -1.0821
 2200TIP3   OH228234   4.071   2.887   1.961 -0.1984 -0.2243  0.0958
 2200TIP3    H128235   4.017   2.835   2.020 -1.0780  0.5013 -0.0577
 2200TIP3    H228236   4.031   2.974   1.961  1.3529  0.5310  0.4964
 2201TIP3   OH228237   1.696   0.872   8.161 -0.0055 -0.1718 -0.5592
 2201TIP3    H128238   1.617   0.820   8.160 -1.0874  1.2303  1.9439
 2201TIP3    H228239   1.691   0.926   8.081 -0.7298 -1.2171 -1.2361
 2202TIP3   OH228240   1.366   0.109   3.129  0.0533  0.4723 -0.8705
 2202TIP3    H128241   1.407   0.195   3.123  0.1126  0.4465 -0.8367
 2202TIP3    H228242   1.410   0.057   3.062 -0.7773  0.7894 -1.6739
 2203TIP3   OH228243   5.955   3.324   0.471  0.2455 -0.0655 -0.0482
 2203TIP3    H128244   6.029   3.354   0.418 -0.7963 -2.0386 -2.8437
 2203TIP3    H228245   5.878   3.364   0.430 -0.5683 -1.2863  0.2173
 2204TIP3   OH228246   6.171   1.558   0.877  0.1256 -0.7835 -0.0799
 2204TIP3    H128247   6.172   1.645   0.917  0.5872 -0.3528 -0.9996
 2204TIP3    H228248   6.152   1.498   0.949 -2.5036  0.2654  0.2060
 2205TIP3   OH228249   0.575   1.347   2.344  0.4778  0.1403 -0.3688
 2205TIP3    H128250   0.564   1.280   2.411  1.8838  0.7716  0.5503
 2205TIP3    H228251   0.508   1.412   2.364  1.5582  0.8436  1.1306
 2206TIP3   OH228252   4.765   2.942   1.436 -0.0642 -0.0794 -0.3846
 2206TIP3    H128253   4.847   2.917   1.393 -0.6594 -1.9493 -0.5441
 2206TIP3    H228254   4.706   2.964   1.363  0.0821  0.5460 -0.3126
 2207TIP3   OH228255   3.741   6.291   0.291  0.9850  0.1727  0.2933
 2207TIP3    H128256   3.829   6.306   0.327  1.0573  0.0267  0.1843
 2207TIP3    H228257   3.721   6.201   0.317  0.6346  0.3916  0.7901
 2208TIP3   OH228258   0.075   2.711   0.650  0.3820  0.4694 -0.0220
 2208TIP3    H128259   0.162   2.727   0.613 -0.3890 -1.4210 -2.9276
 2208TIP3    H228260   0.072   2.617   0.666 -1.0312  0.5572  0.3511
 2209TIP3   OH228261   2.370   1.964   0.020 -0.3358 -0.5033  0.5145
 2209TIP3    H128262   2.430   1.891   0.005  0.3879  0.4632 -1.8367
 2209TIP3    H228263   2.282   1.926   0.011 -0.0125 -1.3937  1.0431
 2210TIP3   OH228264   3.393   0.564   8.494 -0.3043 -0.5590 -0.4620
 2210TIP3    H128265   3.483   0.596   8.482 -0.0394 -1.0097  0.2916
 2210TIP3    H228266   3.342   0.642   8.516 -0.1583 -0.2562 -1.1685
 2211TIP3   OH228267   1.908   2.779   0.626  0.7515 -0.2150  0.1530
 2211TIP3    H128268   1.897   2.867   0.662 -1.8087 -0.1368 -0.6063
 2211TIP3    H228269   1.906   2.721   0.702 -0.1507  0.2343  0.4805
 2212TIP3   OH228270   5.306   4.561   3.293  0.6003 -0.3771 -0.1770
 2212TIP3    H128271   5.326   4.631   3.231  1.8570 -0.4720  0.1031
 2212TIP3    H228272   5.225   4.521   3.259  1.2332 -0.4045 -1.7318
 2213TIP3   OH228273   6.659   3.900   2.374  0.0987 -0.0006 -0.3603
 2213TIP3    H128274   6.639   3.839   2.444  0.0084 -0.0892 -0.4625
 2213TIP3    H228275   6.739   3.944   2.402 -1.2926  1.7975  1.0079
 2214TIP3   OH228276   5.986   4.573   0.656 -0.0590 -0.0834 -0.2494
 2214TIP3    H128277   5.963   4.629   0.729  0.5146 -0.2173  0.0358
 2214TIP3    H228278   5.914   4.510   0.650 -0.4298  0.3357 -0.2248
 2215TIP3   OH228279   5.963   4.703   3.326  0.0054 -0.0244 -0.5738
 2215TIP3    H128280   5.967   4.749   3.410 -1.3271 -0.8827 -0.0064
 2215TIP3    H228281   5.984   4.770   3.261 -0.5526  1.0649  0.3292
 2216TIP3   OH228282   0.438   2.626   1.189 -0.6233  0.0511  0.1269
 2216TIP3    H128283   0.384   2.684   1.135  0.3727  0.2011 -0.7320
 2216TIP3    H228284   0.473   2.562   1.128  1.2232  0.7300  0.3858
 2217TIP3   OH228285   3.487   4.713   2.950  0.3523 -0.4878  0.2467
 2217TIP3    H128286   3.562   4.664   2.915  0.6015 -0.7579  1.1119
 2217TIP3    H228287   3.520   4.802   2.962  1.3188 -1.0699  2.7412
 2218TIP3   OH228288   2.139   6.302   8.768 -0.4256 -0.2954  0.3505
 2218TIP3    H128289   2.047   6.292   8.793 -0.6238  1.5477  0.5091
 2218TIP3    H228290   2.150   6.244   8.693 -1.6143 -0.8421  0.5802
 2219TIP3   OH228291   0.911   3.124   2.834  0.0319  0.0838 -0.2853
 2219TIP3    H128292   0.840   3.098   2.775  1.1261 -0.3574 -1.4627
 2219TIP3    H228293   0.892   3.079   2.916 -2.1714  1.6473  0.1575
 2220TIP3   OH228294   0.473   1.778   2.674 -0.2356  0.7011 -0.7643
 2220TIP3    H128295   0.490   1.745   2.763  0.6463 -0.7513 -1.4380
 2220TIP3    H228296   0.379   1.766   2.662  0.0465 -1.8027 -1.0034
 2221TIP3   OH228297   2.374   3.282   8.566  0.2440 -0.3686 -0.1251
 2221TIP3    H128298   2.368   3.375   8.543  1.0556 -0.4081 -0.5237
 2221TIP3    H228299   2.342   3.236   8.488  0.8621 -0.4492 -0.3326
 2222TIP3   OH228300   0.825   2.560   0.005  0.3577  0.5443  0.0648
 2222TIP3    H128301   0.905   2.576   0.057  1.5908  1.4086 -1.9738
 2222TIP3    H228302   0.802   2.646  -0.029 -1.0078  0.1556 -0.0366
 2223TIP3   OH228303   3.476   3.326   1.391  0.7805  0.0507 -0.0805
 2223TIP3    H128304   3.485   3.231   1.382  2.0119  0.1432 -0.0055
 2223TIP3    H228305   3.388   3.338   1.426  0.0098 -0.9669 -1.5485
 2224TIP3   OH228306   2.180   3.456   1.899  0.0196  0.1598  0.7531
 2224TIP3    H128307   2.118   3.503   1.955  0.2404  2.0297 -0.4850
 2224TIP3    H228308   2.139   3.370   1.886 -2.1505  1.1738  0.3323
 2225TIP3   OH228309   6.630   0.997   1.160 -0.3223  0.1239  0.6694
 2225TIP3    H128310   6.713   1.017   1.117  0.1761 -2.7976  0.0635
 2225TIP3    H228311   6.655   0.948   1.239 -1.4282 -0.7791  0.4864
 2226TIP3   OH228312   3.638   3.593   7.163  0.1435  0.0347  0.0786
 2226TIP3    H128313   3.564   3.616   7.219  0.0410  1.1090 -0.4816
 2226TIP3    H228314   3.671   3.676   7.130  0.6194 -0.5263 -0.9292
 2227TIP3   OH228315   2.269   1.539   1.176 -0.0727  0.3841  0.4877
 2227TIP3    H128316   2.218   1.614   1.206 -1.8598 -1.0923  1.3257
 2227TIP3    H228317   2.334   1.525   1.245 -0.3044  0.6313  0.7579
 2228TIP3   OH228318   6.513   3.511   1.722  0.0306  0.3744 -0.1332
 2228TIP3    H128319   6.540   3.556   1.642  0.5845  0.1070 -0.1064
 2228TIP3    H228320   6.461   3.575   1.770  0.4075  0.8220 -0.3145
 2229TIP3   OH228321   5.244   1.720   1.443 -0.0643  0.1979 -0.3166
 2229TIP3    H128322   5.271   1.723   1.535 -1.2121 -0.9728  0.0766
 2229TIP3    H228323   5.210   1.808   1.425  1.9061  1.0481 -0.2204
 2230TIP3   OH228324   4.825   3.385   1.695 -0.3434  0.3847  0.2773
 2230TIP3    H128325   4.831   3.289   1.701 -0.6139  0.2842 -0.8950
 2230TIP3    H228326   4.913   3.412   1.669 -0.3586  0.4246  0.2682
 2231TIP3   OH228327   3.432   0.599   1.131  0.2048 -0.3745 -0.0479
 2231TIP3    H128328   3.392   0.579   1.046 -1.8795 -1.1799  1.0383
 2231TIP3    H228329   3.424   0.517   1.181  0.4454  0.3670  1.2528
 2232TIP3   OH228330   5.778   4.280   1.615  0.0489  0.0943 -0.5462
 2232TIP3    H128331   5.803   4.312   1.701 -0.8259 -1.2627  0.2461
 2232TIP3    H228332   5.722   4.350   1.580 -2.4948 -0.7404  1.4865
 2233TIP3   OH228333   6.380   3.619   2.473  0.2331 -0.0519  0.6241
 2233TIP3    H128334   6.455   3.676   2.489  0.3419  0.1172 -0.4153
 2233TIP3    H228335   6.317   3.675   2.427 -0.3234 -0.3365  1.0180
 2234TIP3   OH228336   1.407   4.526   8.948  0.2092 -0.2505 -0.5343
 2234TIP3    H128337   1.426   4.580   9.025 -0.0031 -1.4832  0.4237
 2234TIP3    H228338   1.317   4.495   8.962  0.4282 -1.0910 -0.8847
 2235TIP3   OH228339   6.508   4.397   1.126  0.1359 -0.1206 -0.1709
 2235TIP3    H128340   6.414   4.407   1.135  0.4176  2.4272  0.7233
 2235TIP3    H228341   6.527   4.312   1.166 -1.4652  0.6574  2.4620
 2236TIP3   OH228342   4.755   3.684   7.960  0.1530 -0.4015 -0.3285
 2236TIP3    H128343   4.759   3.769   8.003  0.8126 -1.9807  3.0308
 2236TIP3    H228344   4.663   3.672   7.937 -0.1207  0.7432  0.1183
 2237TIP3   OH228345   0.526   6.050   8.301  0.7338  0.2042 -0.0603
 2237TIP3    H128346   0.508   5.973   8.354 -1.2827  1.2904  0.9336
 2237TIP3    H228347   0.504   6.024   8.211 -3.5356  0.5771  0.6989
 2238TIP3   OH228348   1.115   0.303   3.453 -0.3006  0.1772 -0.2218
 2238TIP3    H128349   1.130   0.223   3.403 -1.5834 -0.0751 -0.2420
 2238TIP3    H228350   1.029   0.291   3.493 -0.1190  1.1689  0.5114
 2239TIP3   OH228351   5.247   5.152   2.408  0.5752  0.2256 -0.3030
 2239TIP3    H128352   5.221   5.072   2.453  1.0788  1.5821  2.6230
 2239TIP3    H228353   5.165   5.191   2.377  0.3339 -1.3690 -1.7764
 2240TIP3   OH228354   4.773   5.823   2.516 -0.3262 -0.1980 -0.1958
 2240TIP3    H128355   4.679   5.833   2.533 -0.1577  1.1977  0.0180
 2240TIP3    H228356   4.815   5.879   2.581  0.5037  1.9856 -2.4635
 2241TIP3   OH228357   3.476   3.604   0.454 -0.6642 -0.1857 -0.1701
 2241TIP3    H128358   3.523   3.628   0.374  2.8911 -0.7537  1.5457
 2241TIP3    H228359   3.488   3.679   0.512 -4.3293  0.7963 -0.4166
 2242TIP3   OH228360   2.517   3.782   8.289  0.3593 -0.1806 -0.7887
 2242TIP3    H128361   2.496   3.698   8.329  2.2402 -0.5516 -0.4510
 2242TIP3    H228362   2.459   3.789   8.213 -0.8572 -1.0697  0.0267
 2243TIP3   OH228363   1.271   4.801   7.765  0.3004  0.7050 -0.0951
 2243TIP3    H128364   1.193   4.764   7.808  1.3692  0.0783  1.4118
 2243TIP3    H228365   1.301   4.732   7.706 -0.8925  1.3777 -1.5427
 2244TIP3   OH228366   5.077   4.354   7.292 -0.0355  0.4052 -0.0035
 2244TIP3    H128367   5.012   4.284   7.295 -1.7075  1.8941  0.8868
 2244TIP3    H228368   5.063   4.396   7.207  1.4376 -0.6906 -0.8395
 2245TIP3   OH228369   0.142   2.321   8.330 -0.0839 -0.2031 -0.0687
 2245TIP3    H128370   0.220   2.356   8.372  0.3381 -1.7323  0.4778
 2245TIP3    H228371   0.156   2.335   8.236  0.0585  1.0503  0.1277
 2246TIP3   OH228372   6.267   4.860   0.586 -0.2299 -0.4034  0.1023
 2246TIP3    H128373   6.339   4.803   0.558 -0.8263 -0.4157 -1.5163
 2246TIP3    H228374   6.303   4.948   0.583 -0.3498 -0.3757 -1.0576
 2247TIP3   OH228375   6.292   6.079   2.661  0.1403 -0.2074  0.9197
 2247TIP3    H128376   6.327   6.157   2.617 -1.4790  0.5119  0.8425
 2247TIP3    H228377   6.332   6.081   2.748  1.7621 -0.4949  0.2141
 2248TIP3   OH228378   3.802   2.071   1.377  0.1929  0.4085 -0.0711
 2248TIP3    H128379   3.795   2.084   1.472  0.0596 -0.1424 -0.0066
 2248TIP3    H228380   3.741   2.000   1.357 -1.3368  1.8940 -0.8931
 2249TIP3   OH228381   3.977   5.430   8.878 -0.8448 -0.3802  0.1141
 2249TIP3    H128382   3.914   5.437   8.950 -1.1418  0.9359 -0.2279
 2249TIP3    H228383   4.023   5.348   8.893 -0.1117  0.3796  2.4579
 2250TIP3   OH228384   5.883   0.548   8.413 -0.2169  0.1987 -0.0308
 2250TIP3    H128385   5.889   0.643   8.420  1.2960  0.2016 -0.9507
 2250TIP3    H228386   5.828   0.532   8.336 -1.7133  0.2934  0.9881
 2251TIP3   OH228387   1.920   5.322   8.318  0.1824 -0.5263 -0.0411
 2251TIP3    H128388   1.889   5.413   8.309  2.8994  0.4557 -0.4727
 2251TIP3    H228389   1.910   5.302   8.411  0.3568  0.5399  0.2188
 2252TIP3   OH228390   0.022   3.693   0.519 -0.3000  0.5125 -0.1824
 2252TIP3    H128391   0.051   3.626   0.457 -0.8383 -0.3444  0.4839
 2252TIP3    H228392   0.078   3.768   0.500 -1.3995  0.7890 -2.6956
 2253TIP3   OH228393   3.306   2.798   7.888 -0.8012  0.0361  0.0448
 2253TIP3    H128394   3.397   2.821   7.909  0.5416 -3.3260 -1.4564
 2253TIP3    H228395   3.263   2.791   7.973  0.7961  0.1048  0.9003
 2254TIP3   OH228396   3.414   3.858   7.940 -0.6951  0.5524 -0.4487
 2254TIP3    H128397   3.447   3.853   8.030 -0.6495  0.8726 -0.4472
 2254TIP3    H228398   3.363   3.939   7.937  0.6393  1.3954 -1.1550
 2255TIP3   OH228399   4.329   4.536   2.647 -0.4127  0.4806 -0.2180
 2255TIP3    H128400   4.352   4.622   2.609 -0.7158 -0.3433 -2.4225
 2255TIP3    H228401   4.248   4.553   2.695 -0.4516  1.4465 -0.5833
 2256TIP3   OH228402   5.131   3.975   0.214 -0.2692  0.7013  0.5218
 2256TIP3    H128403   5.060   3.924   0.255  1.6940 -0.8580  2.2450
 2256TIP3    H228404   5.156   4.039   0.281  0.8947  0.2369  0.5589
 2257TIP3   OH228405   0.004   3.199   1.576 -0.2704 -0.7713  0.1885
 2257TIP3    H128406   0.056   3.250   1.637  0.6932 -0.0131 -1.2087
 2257TIP3    H228407   0.066   3.138   1.536 -0.4849 -0.0763 -1.2649
 2258TIP3   OH228408   1.164   0.620   0.009  0.1877 -0.1724 -0.0328
 2258TIP3    H128409   1.193   0.612   0.100  0.7071  1.1184 -0.0655
 2258TIP3    H228410   1.158   0.714  -0.007 -2.7431 -0.3354 -0.4640
 2259TIP3   OH228411   5.101   6.393   3.137 -0.0662 -0.2638 -0.1102
 2259TIP3    H128412   5.190   6.387   3.101 -0.3338  0.0368 -0.8596
 2259TIP3    H228413   5.070   6.479   3.107  0.1042  0.5162  1.8400
 2260TIP3   OH228414   0.459   0.728   8.196  0.5306  0.6630 -0.3064
 2260TIP3    H128415   0.524   0.766   8.137  0.2477 -0.7756 -1.6190
 2260TIP3    H228416   0.375   0.763   8.164  0.5593  1.9571  0.9392
 2261TIP3   OH228417   3.919   3.009   8.536  0.4780  0.0206  0.4456
 2261TIP3    H128418   3.865   3.069   8.484  1.4495  0.5483  0.0333
 2261TIP3    H228419   3.874   2.924   8.528 -2.3861  1.0750  3.1195
 2262TIP3   OH228420   6.050   3.142   8.233 -0.5130  0.6399 -0.2790
 2262TIP3    H128421   6.126   3.102   8.192 -0.0718  0.7755  0.3875
 2262TIP3    H228422   6.081   3.170   8.319 -1.5767 -0.2181  0.4102
 2263TIP3   OH228423   5.276   2.922   1.893 -0.7867  0.5154  0.1787
 2263TIP3    H128424   5.339   2.875   1.839 -0.0870  0.9422  0.6094
 2263TIP3    H228425   5.227   2.854   1.938 -1.6107  0.1314 -1.2183
 2264TIP3   OH228426   4.290   3.990   0.850 -0.6985 -0.0693 -0.6379
 2264TIP3    H128427   4.250   4.075   0.868 -1.5533 -1.0242  2.7843
 2264TIP3    H228428   4.220   3.938   0.811 -1.1417 -0.1012  0.1830
 2265TIP3   OH228429   1.093   4.662   8.409 -0.5117 -0.9664 -0.3988
 2265TIP3    H128430   1.177   4.622   8.387 -0.3262 -0.4306 -0.6908
 2265TIP3    H228431   1.069   4.713   8.331 -0.3779  0.0724  0.2117
 2266TIP3   OH228432   0.962   6.537   8.278 -0.0460 -0.3883 -0.4007
 2266TIP3    H128433   1.030   6.497   8.222 -2.2306 -2.8079 -1.5233
 2266TIP3    H228434   0.969   6.490   8.361  1.6674  1.6123  0.6828
 2267TIP3   OH228435   1.635   4.342   0.057  0.2512  0.8449 -0.2815
 2267TIP3    H128436   1.591   4.353   0.141 -1.0709  0.6226 -0.9285
 2267TIP3    H228437   1.582   4.391  -0.005  0.6704  0.2173 -1.1587
 2268TIP3   OH228438   0.967   5.194   3.112  0.6117 -0.1726  0.1017
 2268TIP3    H128439   0.976   5.272   3.055 -0.3715  0.8431  1.2809
 2268TIP3    H228440   0.970   5.120   3.051  0.7159  0.8250 -1.1598
 2269TIP3   OH228441   5.829   0.605   0.782 -0.0008 -0.0210 -0.5345
 2269TIP3    H128442   5.742   0.637   0.758  0.2495  0.4491 -0.8155
 2269TIP3    H228443   5.880   0.684   0.801 -0.0857 -0.3537  1.2307
 2270TIP3   OH228444   6.258   5.327   1.670 -0.6668  0.7634  0.2264
 2270TIP3    H128445   6.354   5.324   1.677 -0.5239 -0.1870 -1.4831
 2270TIP3    H228446   6.239   5.415   1.639 -0.4158  1.1770  1.2107
 2271TIP3   OH228447   4.231   4.288   1.494  0.6495  0.0388  0.3084
 2271TIP3    H128448   4.319   4.273   1.458  0.6817 -0.5846  0.6350
 2271TIP3    H228449   4.217   4.214   1.553 -0.1168  0.1137  0.2197
 2272TIP3   OH228450   4.978   3.291   8.001 -0.6257 -0.1728  0.0059
 2272TIP3    H128451   4.971   3.210   7.950 -0.8213 -1.2230  1.6075
 2272TIP3    H228452   5.042   3.270   8.069 -0.8838  0.9431  0.6054
 2273TIP3   OH228453   0.655   1.201   0.351  0.8725  0.1241  0.2802
 2273TIP3    H128454   0.587   1.233   0.292  0.3976 -0.0540  0.7269
 2273TIP3    H228455   0.636   1.108   0.362  0.4434  0.3331  1.3891
 2274TIP3   OH228456   6.641   5.637   7.489  0.2118  0.7823 -0.0599
 2274TIP3    H128457   6.561   5.687   7.471 -0.1711  0.7529  1.4601
 2274TIP3    H228458   6.710   5.703   7.491  0.2567  0.8061 -1.4028
 2275TIP3   OH228459   5.693   1.877   8.925 -0.1983  0.5633  0.0328
 2275TIP3    H128460   5.607   1.835   8.919  0.3206 -0.5767  0.2751
 2275TIP3    H228461   5.699   1.932   8.847 -0.7946 -0.0158 -0.4251
 2276TIP3   OH228462   2.156   1.312   0.507  0.1646 -0.9960 -0.1149
 2276TIP3    H128463   2.189   1.252   0.575  0.2070 -0.9358 -0.0823
 2276TIP3    H228464   2.199   1.283   0.427  0.1411 -1.0451 -0.1100
 2277TIP3   OH228465   6.487   6.236   0.747  0.8093 -0.2494 -0.3692
 2277TIP3    H128466   6.476   6.151   0.788  0.6954 -0.4782 -0.8590
 2277TIP3    H228467   6.437   6.229   0.665  2.7475 -0.5433 -1.5757
 2278TIP3   OH228468   2.939   5.991   1.080  0.1352 -0.3419  0.4072
 2278TIP3    H128469   3.032   6.008   1.093  0.2029 -0.3871 -0.0216
 2278TIP3    H228470   2.917   6.034   0.998  0.1093 -1.5405 -0.2405
 2279TIP3   OH228471   1.211   1.642   7.961  0.5524 -0.1682  0.2533
 2279TIP3    H128472   1.199   1.707   8.030 -0.1796  1.2777 -1.1760
 2279TIP3    H228473   1.306   1.624   7.960  0.8314  1.2375  0.3705
 2280TIP3   OH228474   3.356   5.171   0.582  0.5023 -0.0786  0.1936
 2280TIP3    H128475   3.431   5.199   0.530  0.5895 -1.8621 -0.7136
 2280TIP3    H228476   3.362   5.076   0.584 -0.8963 -0.1858  1.4084
 2281TIP3   OH228477   1.764   6.772   1.410 -0.1387  0.1341 -0.1854
 2281TIP3    H128478   1.750   6.712   1.336  2.0593 -1.0545  0.2544
 2281TIP3    H228479   1.709   6.738   1.480 -0.3496 -0.2321 -0.5244
 2282TIP3   OH228480   4.758   0.316   0.147 -0.4713  0.1068 -0.0451
 2282TIP3    H128481   4.689   0.252   0.133 -0.7439  0.1783  0.9259
 2282TIP3    H228482   4.741   0.385   0.082 -0.0331 -0.8885 -1.2625
 2283TIP3   OH228483   3.677   3.456   8.180 -0.6157 -0.2941 -0.2606
 2283TIP3    H128484   3.622   3.383   8.208 -1.1469 -0.0819 -0.7340
 2283TIP3    H228485   3.658   3.525   8.244  1.4120 -1.1921  1.4378
 2284TIP3   OH228486   2.775   2.660   2.004  0.5354  0.2923 -0.0559
 2284TIP3    H128487   2.738   2.748   2.004  1.4020  0.6681 -0.0843
 2284TIP3    H228488   2.868   2.673   1.986  1.0802 -0.4573  1.9242
 2285TIP3   OH228489   1.620   4.800   0.051  0.3687 -0.2719 -0.2930
 2285TIP3    H128490   1.572   4.845  -0.018 -0.0987  1.2492  0.9664
 2285TIP3    H228491   1.551   4.761   0.105  0.6254  0.2461  0.4162
 2286TIP3   OH228492   2.099   5.187   7.735  0.0688 -0.1129 -0.0673
 2286TIP3    H128493   2.010   5.173   7.703  0.0975 -1.2657  0.3227
 2286TIP3    H228494   2.102   5.280   7.759 -0.8161  0.0888 -0.7122
 2287TIP3   OH228495   2.244   6.379   0.915  0.4505  0.1839 -0.3749
 2287TIP3    H128496   2.170   6.333   0.954  0.0511  0.1952 -1.0989
 2287TIP3    H228497   2.231   6.471   0.938 -0.2315  0.3092 -1.2062
 2288TIP3   OH228498   2.271   4.274   2.918 -0.1363  0.8722 -0.0170
 2288TIP3    H128499   2.328   4.311   2.850  0.0957  0.8590  0.1693
 2288TIP3    H228500   2.259   4.183   2.893 -0.5645  1.0240 -0.3820
 2289TIP3   OH228501   0.410   0.223   8.182 -0.0145 -0.1763  0.5163
 2289TIP3    H128502   0.417   0.203   8.275 -2.2692 -1.1594  0.5423
 2289TIP3    H228503   0.339   0.167   8.151  0.2925  0.5556 -1.6820
 2290TIP3   OH228504   5.304   2.481   7.597 -0.1861  0.4298 -0.0016
 2290TIP3    H128505   5.395   2.508   7.600 -0.0235  0.2250 -2.0803
 2290TIP3    H228506   5.267   2.526   7.521 -0.9509 -1.9859 -1.1535
 2291TIP3   OH228507   2.978   1.759   2.268  0.0704 -0.0460 -0.4659
 2291TIP3    H128508   2.978   1.783   2.175 -1.2688 -1.1630 -0.7783
 2291TIP3    H228509   2.887   1.740   2.289  0.5694 -1.5217  0.6092
 2292TIP3   OH228510   6.318   6.761   1.718 -0.0812 -0.0210  0.1666
 2292TIP3    H128511   6.332   6.778   1.811  1.0453 -0.9594  0.1913
 2292TIP3    H228512   6.386   6.811   1.674 -1.2767  1.2878 -0.2482
 2293TIP3   OH228513   4.997   4.579   8.722  0.4306  0.0337 -0.6306
 2293TIP3    H128514   4.980   4.499   8.772  0.4867  0.0223 -0.6293
 2293TIP3    H228515   5.086   4.604   8.747  0.8447 -0.5433 -1.4937
 2294TIP3   OH228516   6.192   2.427   0.554  0.7540  0.1086  0.5152
 2294TIP3    H128517   6.140   2.506   0.539  1.2594  0.6446  1.5002
 2294TIP3    H228518   6.202   2.388   0.467  0.2344  0.9599  0.0616
 2295TIP3   OH228519   0.674   2.992   2.719 -1.0491  0.2472 -0.3937
 2295TIP3    H128520   0.656   3.009   2.627  0.5285 -0.2742 -0.8392
 2295TIP3    H228521   0.722   2.908   2.719  0.5710  1.1096  0.6830
 2296TIP3   OH228522   3.116   2.572   2.672  0.0429 -0.2760  0.1615
 2296TIP3    H128523   3.146   2.538   2.756  0.5163  1.7923  0.8774
 2296TIP3    H228524   3.169   2.525   2.607  0.2006 -1.3460  1.0309
 2297TIP3   OH228525   2.708   2.267   0.876 -0.1817 -0.7611  0.4846
 2297TIP3    H128526   2.657   2.347   0.894 -1.1545 -1.0084 -0.9952
 2297TIP3    H228527   2.689   2.210   0.950 -1.5766 -0.5906  0.2858
 2298TIP3   OH228528   2.054   1.383   0.148  0.4003 -0.0027  0.2660
 2298TIP3    H128529   2.082   1.296   0.120 -1.1090 -0.7140  0.7875
 2298TIP3    H228530   1.981   1.365   0.208  0.1870  1.6280  0.5313
 2299TIP3   OH228531   4.681   6.555   8.811 -0.1298 -0.2618  0.3213
 2299TIP3    H128532   4.718   6.500   8.879  0.6155  0.8196  0.8229
 2299TIP3    H228533   4.600   6.589   8.849 -1.0252 -1.6354 -0.3030
 2300TIP3   OH228534   3.061   2.438   0.285  0.3631 -0.2083  0.1687
 2300TIP3    H128535   3.134   2.488   0.249  0.3846  0.2277  0.8125
 2300TIP3    H228536   3.101   2.358   0.319  0.4542 -0.2514 -0.0410
 2301TIP3   OH228537   2.164   1.088   7.699  0.2036  0.1050  0.3921
 2301TIP3    H128538   2.204   1.045   7.623  0.8807 -0.3795  1.0142
 2301TIP3    H228539   2.079   1.118   7.667  0.9454  0.9586 -0.9043
 2302TIP3   OH228540   3.260   2.803   0.214  0.7112  0.7385 -0.0679
 2302TIP3    H128541   3.295   2.715   0.228 -0.6257  0.1060 -0.5700
 2302TIP3    H228542   3.308   2.858   0.276  0.8719 -0.5009  0.9495
 2303TIP3   OH228543   3.786   1.807   3.210 -0.3056  0.2774  0.1156
 2303TIP3    H128544   3.836   1.885   3.234  0.0600  0.0488  0.1089
 2303TIP3    H228545   3.739   1.783   3.290  0.0529  0.1587  0.2982
 2304TIP3   OH228546   5.506   2.824   0.545 -0.1919  0.0298  0.8225
 2304TIP3    H128547   5.503   2.920   0.549 -2.5195  0.0642  0.1590
 2304TIP3    H228548   5.532   2.805   0.455 -0.0841  0.0569  0.8484
 2305TIP3   OH228549   1.695   1.576   1.179 -0.0991 -0.1773 -0.2792
 2305TIP3    H128550   1.694   1.510   1.110 -0.2529 -0.6154  0.1335
 2305TIP3    H228551   1.749   1.538   1.248  0.6899  0.5760 -0.4593
 2306TIP3   OH228552   0.062   3.484   1.589 -0.3286 -0.3228  0.1827
 2306TIP3    H128553   0.156   3.468   1.579 -0.2929 -2.0407  2.4597
 2306TIP3    H228554   0.022   3.434   1.518  0.4336 -0.4248 -0.1878
 2307TIP3   OH228555   1.903   3.470   7.764 -0.0374  0.0615 -0.1675
 2307TIP3    H128556   1.890   3.518   7.682  0.9789  1.5706  0.5208
 2307TIP3    H228557   1.860   3.386   7.749 -1.2904  0.9117 -1.6633
 2308TIP3   OH228558   1.126   2.008   2.144 -0.5781  0.6969 -0.7590
 2308TIP3    H128559   1.085   2.016   2.058  0.6020  0.3822 -1.3719
 2308TIP3    H228560   1.215   2.042   2.132  0.0237 -0.5168  0.0056
 2309TIP3   OH228561   5.442   1.812   8.818  0.0315 -0.6200  0.2637
 2309TIP3    H128562   5.431   1.793   8.725  0.6561 -0.8006  0.2220
 2309TIP3    H228563   5.407   1.901   8.828  2.3595  0.4923 -0.6891
 2310TIP3   OH228564   3.244   2.931   8.564  1.0767  0.0505 -0.4768
 2310TIP3    H128565   3.216   2.841   8.580  1.9460  0.0481  1.2117
 2310TIP3    H228566   3.164   2.975   8.535  0.6413 -1.2479 -1.3645
 2311TIP3   OH228567   3.621   1.687   1.797 -0.0998  0.0140 -0.7427
 2311TIP3    H128568   3.624   1.778   1.829  2.6133 -0.2542  0.1031
 2311TIP3    H228569   3.568   1.641   1.862 -0.6245  0.8164 -0.5905
 2312TIP3   OH228570   2.569   3.090   0.142 -0.1273  0.0474 -0.1438
 2312TIP3    H128571   2.623   3.165   0.116 -0.2177 -0.0108 -0.4964
 2312TIP3    H228572   2.479   3.124   0.140 -0.2953 -0.4008 -1.5287
 2313TIP3   OH228573   0.023   4.390   7.461  0.7035 -0.1406 -0.3532
 2313TIP3    H128574   0.081   4.370   7.534  0.3877 -0.0312 -0.0695
 2313TIP3    H228575   0.063   4.347   7.385  0.2996 -1.4247  0.1364
 2314TIP3   OH228576   3.654   0.231   2.286 -0.3091 -0.2739 -0.0628
 2314TIP3    H128577   3.726   0.203   2.343 -0.8881 -1.1272  0.2534
 2314TIP3    H228578   3.698   0.260   2.206  0.3571 -1.5140 -0.1762
 2315TIP3   OH228579   5.234   6.148   7.947  0.3651  0.2509 -0.2383
 2315TIP3    H128580   5.183   6.152   7.866  1.4603 -0.4687 -0.9876
 2315TIP3    H228581   5.275   6.234   7.954  0.5466  0.1986 -0.6426
 2316TIP3   OH228582   0.360   5.732   2.933 -0.0067  0.4585  0.2253
 2316TIP3    H128583   0.290   5.667   2.928 -0.9950  1.4313  1.0461
 2316TIP3    H228584   0.431   5.687   2.978 -0.3979 -0.2792  0.1306
 2317TIP3   OH228585   1.744   1.239   2.266 -0.0322 -0.2779  1.0385
 2317TIP3    H128586   1.816   1.284   2.221 -1.7190  1.9829  0.4425
 2317TIP3    H228587   1.786   1.196   2.341  1.7434  2.4338  1.7551
 2318TIP3   OH228588   0.866   6.591   1.929  0.2857 -0.6654 -0.3533
 2318TIP3    H128589   0.939   6.543   1.969 -0.0409 -0.8955 -0.0274
 2318TIP3    H228590   0.866   6.676   1.974 -0.3903 -1.1036  0.5074
 2319TIP3   OH228591   0.532   0.273   1.421  0.5376  0.1325  0.2089
 2319TIP3    H128592   0.458   0.332   1.436  0.2856 -0.0940 -0.1141
 2319TIP3    H228593   0.596   0.325   1.374  0.9832  0.6061  1.3139
 2320TIP3   OH228594   4.963   6.726   8.414  0.0723  0.4689 -0.2714
 2320TIP3    H128595   5.036   6.755   8.468 -0.8373  2.8885 -0.2469
 2320TIP3    H228596   4.885   6.746   8.465 -0.6889 -1.0315 -0.7734
 2321TIP3   OH228597   5.480   0.770   1.708 -0.2924 -0.7634  0.4682
 2321TIP3    H128598   5.558   0.803   1.754  0.6147 -2.1786  0.0122
 2321TIP3    H228599   5.409   0.827   1.737  0.7335 -0.0295  1.6380
 2322TIP3   OH228600   5.940   1.096   7.828  0.0200 -0.1035  0.2049
 2322TIP3    H128601   5.874   1.032   7.801  1.2917 -1.0730 -0.7200
 2322TIP3    H228602   6.008   1.043   7.870 -0.2409  0.9958  2.1332
 2323TIP3   OH228603   1.525   3.777   2.825  0.6504  0.0411 -0.1870
 2323TIP3    H128604   1.590   3.847   2.825 -1.2121  1.9511 -2.3874
 2323TIP3    H228605   1.481   3.785   2.910  1.3194  0.7048  0.1071
 2324TIP3   OH228606   4.710   5.093   1.812  0.3179  0.2001 -0.7043
 2324TIP3    H128607   4.664   5.128   1.735  1.1159  0.7052 -0.9699
 2324TIP3    H228608   4.776   5.159   1.832 -0.8251  0.7895  1.3419
 2325TIP3   OH228609   4.862   4.748   8.893 -0.1426  0.0765  0.7068
 2325TIP3    H128610   4.794   4.708   8.948  0.2161  0.6276  1.5854
 2325TIP3    H228611   4.899   4.675   8.844 -0.9384 -0.3267  0.6909
 2326TIP3   OH228612   0.398   5.733   0.028  0.5055 -0.2596 -1.0186
 2326TIP3    H128613   0.459   5.727   0.102 -0.6608 -0.9478 -0.0868
 2326TIP3    H228614   0.376   5.642   0.008  0.3655 -0.0456 -1.8445
 2327TIP3   OH228615   2.202   3.486   8.909  0.0092  0.1004 -0.3499
 2327TIP3    H128616   2.139   3.414   8.904  1.3228 -1.0985 -0.3697
 2327TIP3    H228617   2.288   3.443   8.903  0.8281  1.7048 -0.6596
 2328TIP3   OH228618   0.156   0.962   1.839 -0.4296  0.1131  0.1912
 2328TIP3    H128619   0.237   0.950   1.888 -0.6434  0.2715  0.5806
 2328TIP3    H228620   0.099   1.013   1.896  0.1108  2.2422 -1.0617
 2329TIP3   OH228621   6.699   0.085   8.067  0.0519 -0.1031  0.9406
 2329TIP3    H128622   6.737   0.013   8.016 -0.6813  1.3758 -1.9504
 2329TIP3    H228623   6.770   0.116   8.122  1.8552 -0.0467 -1.2628
 2330TIP3   OH228624   1.610   4.513   1.192 -0.1502  0.0002  0.0804
 2330TIP3    H128625   1.610   4.533   1.285  0.8197  3.4524 -0.5003
 2330TIP3    H228626   1.695   4.472   1.176  0.3008  0.7404  0.5186
 2331TIP3   OH228627   3.381   0.190   2.194 -0.1114  0.1279 -0.5949
 2331TIP3    H128628   3.350   0.279   2.176 -2.7604 -0.3775  0.8251
 2331TIP3    H228629   3.466   0.201   2.236 -0.6751  2.0626  0.1278
 2332TIP3   OH228630   2.213   6.174   0.727  0.0497  0.0092  0.1076
 2332TIP3    H128631   2.212   6.092   0.776  3.6189 -0.5203 -0.4266
 2332TIP3    H228632   2.245   6.239   0.790 -1.4339  0.7205  0.1508
 2333TIP3   OH228633   3.014   1.997   8.756 -0.4680  0.8782  0.0768
 2333TIP3    H128634   2.921   2.001   8.733 -1.1572 -0.7029  2.2778
 2333TIP3    H228635   3.056   1.954   8.682 -1.5818  1.1202 -0.7071
 2334TIP3   OH228636   0.486   4.163   1.895 -0.1147  0.1517 -0.1032
 2334TIP3    H128637   0.483   4.242   1.840 -2.7057 -0.0812 -0.4149
 2334TIP3    H228638   0.438   4.188   1.975  1.1339 -0.4102  0.8591
 2335TIP3   OH228639   4.972   5.966   0.087 -0.0869 -0.6615  0.3443
 2335TIP3    H128640   5.004   6.009   0.008  0.9561  3.3347  2.6277
 2335TIP3    H228641   4.883   5.938   0.065 -0.0515  0.8256 -2.0711
 2336TIP3   OH228642   4.140   2.407   2.155  0.0593 -0.4474 -0.4036
 2336TIP3    H128643   4.190   2.408   2.237  1.9275  0.4905 -1.4957
 2336TIP3    H228644   4.089   2.326   2.160 -0.0078 -0.3484  1.7334
 2337TIP3   OH228645   2.138   2.031   0.972 -0.4616  0.6059 -0.0658
 2337TIP3    H128646   2.050   2.047   0.939  0.1355 -0.3967 -2.3635
 2337TIP3    H228647   2.179   1.974   0.906  1.0199 -1.2658  2.2709
 2338TIP3   OH228648   5.824   4.087   0.504 -0.4345  0.1806  0.2333
 2338TIP3    H128649   5.907   4.115   0.464 -0.4223  1.1354  0.9025
 2338TIP3    H228650   5.846   4.073   0.596 -1.1072  0.8160  0.4893
 2339TIP3   OH228651   4.489   1.897   0.849 -0.3806 -0.1337  0.0187
 2339TIP3    H128652   4.531   1.825   0.895 -2.5353 -1.5489 -0.1070
 2339TIP3    H228653   4.469   1.961   0.917  0.2287 -0.3046  0.3653
 2340TIP3   OH228654   2.239   0.940   1.003  0.0543  0.5187  0.0391
 2340TIP3    H128655   2.195   0.894   0.931 -0.4429  0.9164  0.0806
 2340TIP3    H228656   2.206   0.897   1.082 -1.8423  2.0840  0.1795
 2341TIP3   OH228657   0.232   6.425   8.769  0.0610  0.4825 -0.3087
 2341TIP3    H128658   0.286   6.463   8.700 -0.4498  1.9776  0.0714
 2341TIP3    H228659   0.292   6.369   8.819  0.2584 -1.2843 -2.3857
 2342TIP3   OH228660   5.233   4.690   8.805  0.3552  0.2896 -0.1586
 2342TIP3    H128661   5.216   4.783   8.820  1.2200  0.2909  0.9794
 2342TIP3    H228662   5.299   4.668   8.871  1.3987 -0.7327 -1.5099
 2343TIP3   OH228663   0.657   1.939   2.518  0.0745  0.1335 -0.2626
 2343TIP3    H128664   0.691   1.860   2.476 -2.5654 -0.9133 -0.6716
 2343TIP3    H228665   0.576   1.909   2.561 -0.4173  2.4107  0.5160
 2344TIP3   OH228666   1.573   5.938   0.711  0.2550 -0.1092  0.2509
 2344TIP3    H128667   1.631   5.862   0.702 -0.4103 -0.6883  0.7188
 2344TIP3    H228668   1.517   5.917   0.786 -0.3222  0.5926  0.0327
 2345TIP3   OH228669   5.499   5.585   8.134 -0.0068 -0.4206  0.7789
 2345TIP3    H128670   5.530   5.516   8.193 -0.3056 -1.8089 -0.6122
 2345TIP3    H228671   5.576   5.611   8.085  0.2603  0.7976  1.8011
 2346TIP3   OH228672   6.382   2.626   1.694 -0.5371 -0.2451 -0.0476
 2346TIP3    H128673   6.474   2.628   1.669 -0.7232 -2.3374 -1.1616
 2346TIP3    H228674   6.368   2.537   1.727 -2.9373 -1.3995 -3.5860
 2347TIP3   OH228675   3.922   6.097   7.799  0.0207  0.1177 -0.0194
 2347TIP3    H128676   4.016   6.085   7.788 -0.2344 -1.3665 -0.7981
 2347TIP3    H228677   3.914   6.160   7.870  1.5869 -0.8069  1.0268
 2348TIP3   OH228678   6.653   5.759   1.578  0.3547  0.3518  0.4467
 2348TIP3    H128679   6.607   5.835   1.613  1.9679  2.1378 -1.1059
 2348TIP3    H228680   6.723   5.742   1.641  0.4248  0.6126  0.4390
 2349TIP3   OH228681   2.686   4.555   0.694 -0.3712  0.2707 -0.1326
 2349TIP3    H128682   2.777   4.528   0.678 -0.7407 -0.4432 -1.1105
 2349TIP3    H228683   2.644   4.478   0.732 -1.2378 -0.3530 -2.2212
 2350TIP3   OH228684   4.176   4.026   2.069  0.0207 -0.1274 -0.1698
 2350TIP3    H128685   4.256   4.078   2.062 -0.2918  0.4023  0.0952
 2350TIP3    H228686   4.199   3.957   2.132  0.1781  0.2082  0.1500
 2351TIP3   OH228687   4.880   6.354   7.576 -0.2852 -0.5723  0.1183
 2351TIP3    H128688   4.910   6.282   7.520 -0.8331 -0.3180 -0.5300
 2351TIP3    H228689   4.790   6.330   7.600 -0.7281  0.2097 -0.6848
 2352TIP3   OH228690   5.089   0.343   1.595 -0.3249 -0.0504 -0.5867
 2352TIP3    H128691   5.012   0.305   1.552 -0.8818 -0.6606  0.8658
 2352TIP3    H228692   5.107   0.423   1.546 -0.0024 -1.4010 -2.8532
 2353TIP3   OH228693   0.655   3.851   8.555  0.4310  0.2088  0.6297
 2353TIP3    H128694   0.631   3.933   8.598 -1.0658 -1.1300  2.5403
 2353TIP3    H228695   0.588   3.839   8.488  0.6781  0.5519  0.3164
 2354TIP3   OH228696   1.037   2.535   8.770 -0.1396 -0.6119  0.1283
 2354TIP3    H128697   1.045   2.441   8.753 -3.0863 -1.4528  2.5067
 2354TIP3    H228698   0.976   2.541   8.843 -1.6872  3.2690 -1.2168
 2355TIP3   OH228699   2.033   0.688   2.054 -0.2001 -0.5028 -0.1575
 2355TIP3    H128700   2.049   0.616   1.993  1.6488  0.1793 -0.5353
 2355TIP3    H228701   2.092   0.671   2.127  0.3246  0.6533 -0.2863
 2356TIP3   OH228702   3.371   3.052   7.774  0.3599 -0.3067 -0.2132
 2356TIP3    H128703   3.408   3.011   7.696  0.4689  0.6190 -0.6622
 2356TIP3    H228704   3.347   2.979   7.831  2.1278 -0.9502 -0.2538
 2357TIP3   OH228705   3.595   1.463   1.498 -0.4701  0.1756  0.0161
 2357TIP3    H128706   3.641   1.412   1.565  0.3152  2.1162  1.0354
 2357TIP3    H228707   3.519   1.499   1.543 -0.4696  0.7171 -0.4131
 2358TIP3   OH228708   3.997   2.348   8.634  0.1685 -0.5607  0.2125
 2358TIP3    H128709   3.971   2.440   8.639  0.1016 -0.6336  1.4342
 2358TIP3    H228710   4.034   2.329   8.720  0.4954 -1.5903 -0.1442
 2359TIP3   OH228711   4.171   6.602   2.061 -0.1135  0.1387 -0.2872
 2359TIP3    H128712   4.132   6.534   2.007 -1.2655  0.6790 -0.1549
 2359TIP3    H228713   4.248   6.560   2.101  0.4565 -0.4212 -1.8921
 2360TIP3   OH228714   5.355   6.030   2.445 -0.4170  0.2641  0.5838
 2360TIP3    H128715   5.410   6.074   2.510  1.7402 -0.9985 -0.2715
 2360TIP3    H228716   5.286   5.989   2.497  0.9578 -0.2874  2.0763
 2361TIP3   OH228717   6.113   4.607   8.855  0.0021 -0.3721 -0.0810
 2361TIP3    H128718   6.092   4.573   8.942 -1.7875  0.2134 -0.2474
 2361TIP3    H228719   6.149   4.695   8.872  1.3792 -0.9533  0.1429
 2362TIP3   OH228720   3.758   4.329   1.871 -0.0080  0.2507 -0.2505
 2362TIP3    H128721   3.798   4.245   1.849 -0.4177  0.1459 -0.6139
 2362TIP3    H228722   3.827   4.394   1.854  0.9099 -0.1353  1.7126
 2363TIP3   OH228723   0.106   5.444   7.845 -0.1918 -0.0040  0.3978
 2363TIP3    H128724   0.022   5.477   7.811  0.3818  0.4858 -0.6000
 2363TIP3    H228725   0.151   5.523   7.877  0.6323  0.0236 -0.7649
 2364TIP3   OH228726   1.936   1.373   2.972 -0.1902 -0.1445  0.5729
 2364TIP3    H128727   1.994   1.449   2.983  1.8456 -1.6535  1.0148
 2364TIP3    H228728   1.888   1.367   3.055  0.7901 -0.2252  1.1518
 2365TIP3   OH228729   0.199   1.355   2.965 -0.5598 -0.1084 -0.6168
 2365TIP3    H128730   0.105   1.369   2.948 -0.6092  0.6037  0.1718
 2365TIP3    H228731   0.242   1.429   2.921 -0.7266  2.0865  2.5675
 2366TIP3   OH228732   3.247   6.411   7.477 -0.2376 -0.5319 -0.1651
 2366TIP3    H128733   3.257   6.505   7.491 -1.2452 -0.5468  0.8397
 2366TIP3    H228734   3.333   6.374   7.500  0.5830  0.2271 -1.8330
 2367TIP3   OH228735   1.116   1.428   1.168 -0.1462  0.5968 -0.2550
 2367TIP3    H128736   1.130   1.397   1.258  2.9969  1.9673 -0.1403
 2367TIP3    H228737   1.045   1.492   1.176 -0.0336  0.5774  1.2263
 2368TIP3   OH228738   3.767   5.557   1.126 -0.2132  0.6377 -0.6281
 2368TIP3    H128739   3.766   5.630   1.063 -0.2481  1.4460  0.2725
 2368TIP3    H228740   3.807   5.595   1.205 -1.5886  0.1263  0.3625
 2369TIP3   OH228741   3.283   4.680   0.714  0.3064  0.0115  0.0041
 2369TIP3    H128742   3.286   4.633   0.797  2.3872 -1.3068 -0.7255
 2369TIP3    H228743   3.193   4.712   0.707  0.4553  1.5096  3.4226
 2370TIP3   OH228744   5.072   1.476   0.177 -0.1401 -0.4257  0.6197
 2370TIP3    H128745   5.054   1.562   0.216 -1.1284  0.4671 -1.6109
 2370TIP3    H228746   5.137   1.493   0.109 -1.4688 -1.0929 -0.9056
 2371TIP3   OH228747   5.872   3.425   0.777 -0.0895  0.1212  0.0472
 2371TIP3    H128748   5.877   3.335   0.810 -0.4231 -0.7562 -2.1281
 2371TIP3    H228749   5.813   3.419   0.702 -1.7079  2.5570  1.0192
 2372TIP3   OH228750   0.734   5.083   7.683 -0.3247 -0.0403 -0.2023
 2372TIP3    H128751   0.794   5.040   7.743 -0.7840  0.0358  0.3220
 2372TIP3    H228752   0.731   5.174   7.712 -0.8138 -0.0774 -0.1192
 2373TIP3   OH228753   5.422   0.924   0.255  0.0006 -0.1003 -0.0167
 2373TIP3    H128754   5.458   0.949   0.170 -0.5717 -1.0994 -0.5608
 2373TIP3    H228755   5.432   1.003   0.308  0.3418  0.5511 -1.0119
 2374TIP3   OH228756   1.421   2.342   8.270 -0.0049  0.1043 -0.3888
 2374TIP3    H128757   1.449   2.427   8.236 -2.2339  1.0052 -0.1958
 2374TIP3    H228758   1.363   2.308   8.202  0.5985 -1.1264 -0.3050
 2375TIP3   OH228759   6.566   6.326   1.038  0.1112  0.4226 -0.1986
 2375TIP3    H128760   6.571   6.421   1.048  1.0876  0.4256 -0.6380
 2375TIP3    H228761   6.547   6.313   0.945  0.9741  0.1645 -0.3427
 2376TIP3   OH228762   1.357   1.084   3.476 -0.3343 -0.0660 -0.1144
 2376TIP3    H128763   1.414   1.161   3.468  0.2656 -0.5364 -0.5330
 2376TIP3    H228764   1.310   1.098   3.558  2.8798 -1.2349  2.1527
 2377TIP3   OH228765   4.670   0.637   7.718  0.6582 -0.1071 -0.1738
 2377TIP3    H128766   4.686   0.543   7.719  1.4848  0.0296  0.4349
 2377TIP3    H228767   4.576   0.646   7.703  0.7592 -1.0026 -1.4857
 2378TIP3   OH228768   3.856   6.230   7.487 -0.2025  0.4105  0.0040
 2378TIP3    H128769   3.816   6.213   7.401 -0.7791  0.6360  0.2231
 2378TIP3    H228770   3.950   6.233   7.470 -0.3083  0.3486 -0.6027
 2379TIP3   OH228771   5.116   5.251   1.546  0.4905 -0.6890  0.0223
 2379TIP3    H128772   5.170   5.217   1.475  1.0321 -0.2671  0.2315
 2379TIP3    H228773   5.083   5.334   1.513 -0.7206 -1.3112 -0.4331
 2380TIP3   OH228774   4.765   0.375   3.379  0.4204 -0.2477 -0.3429
 2380TIP3    H128775   4.687   0.320   3.391  1.5920 -2.2448 -1.4107
 2380TIP3    H228776   4.732   0.454   3.338 -1.1155 -0.8519 -0.3485
 2381TIP3   OH228777   2.017   0.303   3.024  0.6148 -0.1564 -0.0540
 2381TIP3    H128778   2.109   0.314   2.999  1.1840  0.8006  2.2277
 2381TIP3    H228779   1.997   0.213   3.002  2.0872 -0.3641 -0.6664
 2382TIP3   OH228780   6.020   0.115   2.481 -0.3423 -0.1476  0.5477
 2382TIP3    H128781   6.044   0.138   2.571 -0.8875  0.9114  0.4307
 2382TIP3    H228782   5.987   0.025   2.488 -0.1019 -0.1793  1.3554
 2383TIP3   OH228783   2.476   0.542   1.379  0.3656  0.6312  0.3892
 2383TIP3    H128784   2.526   0.623   1.380  2.0268 -0.3339 -0.5633
 2383TIP3    H228785   2.474   0.517   1.286  1.9832 -1.6322  0.8884
 2384TIP3   OH228786   2.098   1.065   2.167 -0.6639  0.5423 -0.2829
 2384TIP3    H128787   2.020   1.010   2.171  0.6673 -1.6017 -1.7074
 2384TIP3    H228788   2.116   1.090   2.258 -2.3944  0.2534  0.1668
 2385TIP3   OH228789   6.103   5.190   0.243  0.0097  0.2675  0.1443
 2385TIP3    H128790   6.122   5.262   0.303 -1.6412  0.3299  0.6510
 2385TIP3    H228791   6.084   5.233   0.160 -0.3365  0.3784  0.2789
 2386TIP3   OH228792   2.365   5.551   1.705 -0.8635 -0.2314 -0.7932
 2386TIP3    H128793   2.395   5.639   1.727  0.6911 -0.9059 -0.0054
 2386TIP3    H228794   2.272   5.561   1.684 -1.1400  1.3228  0.9263
 2387TIP3   OH228795   5.346   4.595   1.414 -0.3296 -0.2177  0.3226
 2387TIP3    H128796   5.286   4.663   1.446  1.5293  1.2688  0.8546
 2387TIP3    H228797   5.331   4.521   1.472  1.3024  1.6039  3.3402
 2388TIP3   OH228798   0.396   2.111   2.435 -1.0260 -0.1892 -0.3503
 2388TIP3    H128799   0.418   2.112   2.528 -1.2726  0.2683 -0.2952
 2388TIP3    H228800   0.341   2.188   2.422  2.1094  2.0665 -1.6176
 2389TIP3   OH228801   6.469   5.585   0.720 -0.5206  0.2305 -0.5322
 2389TIP3    H128802   6.451   5.492   0.737 -1.3315  0.4704 -0.0558
 2389TIP3    H228803   6.512   5.616   0.800 -1.3952  0.5719 -0.1909
 2390TIP3   OH228804   1.314   2.542   3.164 -0.1341 -0.1829  0.3908
 2390TIP3    H128805   1.358   2.588   3.235  0.6701 -1.1679  0.5594
 2390TIP3    H228806   1.221   2.555   3.181 -0.0302 -1.6584  2.5360
 2391TIP3   OH228807   0.380   0.487   1.516  0.3894  0.0569 -0.5055
 2391TIP3    H128808   0.368   0.543   1.440 -1.7688 -0.1783 -0.3866
 2391TIP3    H228809   0.292   0.468   1.547  0.8801 -4.0736 -1.0527
 2392TIP3   OH228810   0.895   3.459   8.104 -0.7292  0.7941  0.0119
 2392TIP3    H128811   0.957   3.436   8.035 -0.2073  1.7530  0.1516
 2392TIP3    H228812   0.812   3.472   8.058 -0.6723  0.2095 -0.2648
 2393TIP3   OH228813   4.370   0.940   8.672 -0.0530  0.5518  0.2218
 2393TIP3    H128814   4.365   1.026   8.631 -1.7705 -0.1091 -1.0741
 2393TIP3    H228815   4.407   0.883   8.604  0.2908  0.0868  0.7818
 2394TIP3   OH228816   2.705   4.505   2.088  0.7204  0.1747  0.1073
 2394TIP3    H128817   2.783   4.485   2.139  0.1918 -1.6024  0.2741
 2394TIP3    H228818   2.717   4.459   2.005 -0.3994 -0.6740  0.3835
 2395TIP3   OH228819   6.673   4.976   1.049 -0.1274  0.2564  0.2156
 2395TIP3    H128820   6.740   4.923   1.093  0.3737  1.5757  1.1292
 2395TIP3    H228821   6.716   5.010   0.971 -1.1914 -2.5465 -1.7250
 2396TIP3   OH228822   2.584   0.724   8.244 -1.0591 -0.2239  0.3040
 2396TIP3    H128823   2.622   0.669   8.175 -1.9013 -1.0658  0.4969
 2396TIP3    H228824   2.646   0.716   8.317 -1.7053 -1.8151  0.7145
 2397TIP3   OH228825   3.858   6.672   1.789 -0.1336 -0.2324  0.1576
 2397TIP3    H128826   3.773   6.637   1.763  0.6223 -1.4144 -0.8651
 2397TIP3    H228827   3.838   6.748   1.843 -1.8426  0.3776 -1.2457
 2398TIP3   OH228828   1.115   6.641   3.819 -0.0833  0.0322 -0.1762
 2398TIP3    H128829   1.158   6.561   3.789  1.9227  1.8410 -2.6787
 2398TIP3    H228830   1.109   6.695   3.740 -0.0832  2.8542  1.6123
 2399TIP3   OH228831   6.035   1.952   8.355  0.7014 -0.0406 -0.7172
 2399TIP3    H128832   6.119   1.974   8.316 -0.4040  1.5115 -2.3807
 2399TIP3    H228833   6.028   1.857   8.346  1.6404 -0.0217 -1.8910
 2400TIP3   OH228834   0.857   5.826   8.101  0.2173 -0.0513 -0.3225
 2400TIP3    H128835   0.946   5.861   8.093  0.9542 -1.3334  1.3745
 2400TIP3    H228836   0.854   5.792   8.191 -1.9807 -0.1042 -0.3764
 2401TIP3   OH228837   0.555   3.444   8.366  0.5886  0.4374 -0.0387
 2401TIP3    H128838   0.571   3.362   8.414  2.3672  1.2066  0.8000
 2401TIP3    H228839   0.461   3.443   8.348  0.3582 -1.2448  0.9606
 2402TIP3   OH228840   6.143   6.746   0.707  0.1926 -0.1776 -0.5436
 2402TIP3    H128841   6.163   6.796   0.628 -0.8124  1.4202  0.1557
 2402TIP3    H228842   6.053   6.770   0.728  0.5178 -0.3749  1.2295
 2403TIP3   OH228843   5.597   1.635   2.054  0.1585  0.5767  0.5434
 2403TIP3    H128844   5.566   1.585   1.978  2.7663  0.6353 -0.6405
 2403TIP3    H228845   5.602   1.570   2.124  3.4956 -0.9994 -0.9752
 2404TIP3   OH228846   2.246   5.359   0.998  0.3664  0.1408  0.0802
 2404TIP3    H128847   2.336   5.331   1.014  0.1771 -0.8608 -0.5676
 2404TIP3    H228848   2.224   5.411   1.075  2.3049  2.4920 -0.8217
 2405TIP3   OH228849   5.456   4.143   2.345  0.1878  0.2044 -0.2239
 2405TIP3    H128850   5.417   4.189   2.270  0.3573  0.2691 -0.2740
 2405TIP3    H228851   5.499   4.067   2.307 -2.3425 -1.5390  0.1227
 2406TIP3   OH228852   5.957   5.517   0.043  0.4214 -0.2164 -0.3712
 2406TIP3    H128853   5.881   5.469   0.075 -0.5229  0.2918 -1.7854
 2406TIP3    H228854   5.973   5.584   0.111 -2.3148  1.6552 -1.3979
 2407TIP3   OH228855   1.018   3.560   8.894 -0.2450  0.0972  0.2621
 2407TIP3    H128856   1.035   3.511   8.974  2.3410  1.6643  0.7660
 2407TIP3    H228857   1.056   3.647   8.909  0.7682  0.3311 -2.7995
 2408TIP3   OH228858   4.660   4.543   0.025  0.2117  0.7587 -0.2316
 2408TIP3    H128859   4.723   4.473   0.041 -1.0888 -0.1795  0.8812
 2408TIP3    H228860   4.606   4.511  -0.047 -1.3368 -0.0811  1.2493
 2409TIP3   OH228861   6.542   6.251   2.719  0.5294  0.4617 -0.4956
 2409TIP3    H128862   6.596   6.179   2.685  1.6530  0.9124  0.3018
 2409TIP3    H228863   6.498   6.214   2.796 -0.4513  0.0553 -1.2185
 2410TIP3   OH228864   1.502   0.585   0.799  0.0465 -0.0631 -0.3819
 2410TIP3    H128865   1.574   0.525   0.818 -0.7780 -0.4459  1.8927
 2410TIP3    H228866   1.504   0.648   0.871 -1.3199  0.4587 -0.7640
 2411TIP3   OH228867   0.668   2.379   3.764  0.3308  0.2062 -0.4450
 2411TIP3    H128868   0.628   2.433   3.695 -1.2362 -1.8863 -1.2778
 2411TIP3    H228869   0.651   2.289   3.736  0.1490 -0.7285  2.4240
 2412TIP3   OH228870   6.155   4.604   8.525  0.2972 -0.5195 -0.0200
 2412TIP3    H128871   6.079   4.616   8.468  1.3336 -0.2387 -1.4111
 2412TIP3    H228872   6.230   4.617   8.467  1.4112 -0.2486  1.4267
 2413TIP3   OH228873   2.354   6.426   1.196 -0.0036 -0.3034  0.3054
 2413TIP3    H128874   2.378   6.504   1.147  1.6447 -2.8376 -3.4336
 2413TIP3    H228875   2.416   6.424   1.270  0.1060  1.7108  0.3056
 2414TIP3   OH228876   6.130   3.546   1.691 -0.3926 -0.5430 -0.1060
 2414TIP3    H128877   6.196   3.605   1.727  0.3836  0.0247 -2.2870
 2414TIP3    H228878   6.048   3.594   1.699 -0.0403  0.0997 -0.2154
 2415TIP3   OH228879   3.233   6.251   1.502 -0.2966  0.2019 -0.4016
 2415TIP3    H128880   3.311   6.244   1.446  0.5786 -1.0702  0.8870
 2415TIP3    H228881   3.240   6.337   1.543  2.0290 -0.8953  1.8103
 2416TIP3   OH228882   1.055   2.534   0.656 -0.2018 -0.0271 -0.1034
 2416TIP3    H128883   1.100   2.548   0.572 -2.2299 -0.6962 -1.3603
 2416TIP3    H228884   1.084   2.447   0.684  0.1146 -0.0034 -0.3458
 2417TIP3   OH228885   3.446   6.575   3.184  0.2391 -0.0817  0.2424
 2417TIP3    H128886   3.404   6.517   3.247 -0.8831 -1.0329 -1.3337
 2417TIP3    H228887   3.535   6.587   3.218  0.1261 -1.7634  1.2257
 2418TIP3   OH228888   3.690   0.921   1.746  0.5285  0.5965 -0.1947
 2418TIP3    H128889   3.610   0.933   1.797  0.8321  1.6512  0.0431
 2418TIP3    H228890   3.678   0.836   1.704 -0.4540  0.4667  0.3096
 2419TIP3   OH228891   1.393   1.382   1.194  0.6201  0.3957 -0.0166
 2419TIP3    H128892   1.299   1.397   1.181  0.4949  0.3806  0.7981
 2419TIP3    H228893   1.423   1.347   1.110 -0.2124 -0.1326 -0.1116
 2420TIP3   OH228894   3.786   2.653   3.272  0.8335  0.2624 -0.0821
 2420TIP3    H128895   3.785   2.558   3.283  4.1429  0.2976  1.9971
 2420TIP3    H228896   3.829   2.667   3.188 -1.9120  0.0280 -1.6312
 2421TIP3   OH228897   6.122   2.522   8.650 -0.2218  0.5237 -0.1487
 2421TIP3    H128898   6.151   2.574   8.725  1.7002  1.4634 -1.4662
 2421TIP3    H228899   6.108   2.434   8.685  2.3465  0.5059  1.0151
 2422TIP3   OH228900   5.374   2.865   0.204  0.1017  0.2215 -0.6192
 2422TIP3    H128901   5.440   2.900   0.144 -0.1087 -0.3190 -1.1799
 2422TIP3    H228902   5.347   2.940   0.257  0.5530  0.6303 -0.9590
 2423TIP3   OH228903   6.266   2.811   1.996  0.1364  0.2805  0.3731
 2423TIP3    H128904   6.353   2.847   2.010 -0.3417  1.2614  0.9668
 2423TIP3    H228905   6.208   2.871   2.043 -0.8400 -0.4436  0.1195
 2424TIP3   OH228906   2.087   3.055   1.423  0.7403 -0.2220 -0.2468
 2424TIP3    H128907   2.025   3.018   1.485  1.4501  0.1843  0.7246
 2424TIP3    H228908   2.082   3.150   1.437  1.0326 -0.1354 -0.6947
 2425TIP3   OH228909   1.939   2.905   1.613 -0.4692  0.4136  0.3358
 2425TIP3    H128910   1.990   2.864   1.683  0.1169  0.6046  0.0257
 2425TIP3    H228911   1.938   2.839   1.543  0.8035  1.0596 -0.3137
 2426TIP3   OH228912   0.904   6.570   7.925 -0.0562 -0.0389  0.4334
 2426TIP3    H128913   0.918   6.525   7.841 -0.2675 -0.9218  0.8573
 2426TIP3    H228914   0.992   6.585   7.959  0.0660  1.1813 -0.3770
 2427TIP3   OH228915   0.092   2.580   0.070  0.1128 -0.2788 -0.0972
 2427TIP3    H128916   0.180   2.558   0.100  0.4791  0.5669 -0.5108
 2427TIP3    H228917   0.052   2.626   0.143 -0.1771 -1.1062  0.2766
 2428TIP3   OH228918   4.251   3.303   2.710  0.4034  0.0584 -0.0050
 2428TIP3    H128919   4.208   3.272   2.631  1.1814 -1.1177  0.0111
 2428TIP3    H228920   4.305   3.376   2.682  1.3759 -0.9275 -0.7358
 2429TIP3   OH228921   0.118   0.355   8.099  0.0455 -0.2300 -0.5147
 2429TIP3    H128922   0.065   0.301   8.158  1.6041 -0.8198  0.4051
 2429TIP3    H228923   0.155   0.292   8.037 -0.0215  0.1283 -0.9216
 2430TIP3   OH228924   2.862   3.336   3.034  0.4751 -0.1625  0.2008
 2430TIP3    H128925   2.787   3.324   3.093 -1.3740  4.5356 -0.7957
 2430TIP3    H228926   2.931   3.371   3.090  0.4098 -0.3333  0.3900
 2431TIP3   OH228927   5.101   3.738   1.005  0.2518 -0.3242  0.0612
 2431TIP3    H128928   5.013   3.701   1.006  0.1708 -0.1313 -0.0178
 2431TIP3    H228929   5.089   3.830   1.027  0.5664 -0.5740  1.3319
 2432TIP3   OH228930   2.809   4.497   7.825  0.3354  0.8743  0.3900
 2432TIP3    H128931   2.754   4.562   7.781  2.1619  2.1507 -0.1334
 2432TIP3    H228932   2.894   4.540   7.835  1.5139 -1.3092  0.3927
 2433TIP3   OH228933   4.080   2.722   0.533  0.6166  1.0856  0.6912
 2433TIP3    H128934   4.039   2.637   0.552 -0.0335  1.2829  0.1863
 2433TIP3    H228935   4.146   2.701   0.466  1.4527  0.7506  1.5876
 2434TIP3   OH228936   5.093   2.405   1.808 -0.4491  0.5320 -0.1742
 2434TIP3    H128937   4.999   2.389   1.824 -0.2548 -2.4127 -1.4214
 2434TIP3    H228938   5.135   2.384   1.892 -0.6440 -1.8983 -0.5996
 2435TIP3   OH228939   4.688   1.108   0.921 -0.2049  0.8385  0.0636
 2435TIP3    H128940   4.669   1.202   0.911  0.1929  1.3101  2.8886
 2435TIP3    H228941   4.783   1.104   0.929  0.2411 -0.3536 -3.8656
 2436TIP3   OH228942   5.864   1.970   2.314 -0.3065  0.2306 -0.1895
 2436TIP3    H128943   5.887   1.884   2.349  0.2671  0.7466  0.7441
 2436TIP3    H228944   5.861   1.957   2.219 -0.7397 -0.9301 -0.0357
 2437TIP3   OH228945   0.478   4.578   7.537 -0.4139 -0.0726  0.4709
 2437TIP3    H128946   0.553   4.637   7.537  0.4468 -1.1036 -0.6784
 2437TIP3    H228947   0.466   4.553   7.629  1.2879 -0.6467  0.5615
 2438TIP3   OH228948   3.383   1.290   2.465  0.2200 -0.3484  0.0921
 2438TIP3    H128949   3.468   1.276   2.425  1.3835 -0.9242  2.5757
 2438TIP3    H228950   3.387   1.377   2.503 -0.5326 -0.1415 -0.2793
 2439TIP3   OH228951   0.797   0.397   2.206 -0.4837 -0.0973  0.9187
 2439TIP3    H128952   0.809   0.492   2.211 -1.1293 -0.0307  1.3223
 2439TIP3    H228953   0.723   0.385   2.146  1.6648 -0.5229 -1.8779
 2440TIP3   OH228954   1.326   4.524   1.190  0.9646  0.2803 -0.0115
 2440TIP3    H128955   1.410   4.485   1.165  0.5145 -0.3444 -0.5710
 2440TIP3    H228956   1.286   4.459   1.248 -0.6476 -1.0446 -2.4693
 2441TIP3   OH228957   3.389   4.515   1.002 -0.0696 -0.1155  0.3699
 2441TIP3    H128958   3.314   4.570   1.022 -1.1646 -1.6975  0.8461
 2441TIP3    H228959   3.464   4.564   1.035 -1.1787  0.3482  2.4098
 2442TIP3   OH228960   3.770   0.353   1.142 -0.0348 -0.1789 -0.7399
 2442TIP3    H128961   3.708   0.321   1.077 -1.4488 -0.4619  0.6793
 2442TIP3    H228962   3.851   0.306   1.124 -1.2055 -2.3688 -0.5722
 2443TIP3   OH228963   5.263   1.782   1.955 -0.4840 -1.1777 -0.5178
 2443TIP3    H128964   5.199   1.829   2.008 -0.7308 -0.0587 -1.7365
 2443TIP3    H228965   5.340   1.773   2.011 -0.2038  1.2895 -0.4070
 2444TIP3   OH228966   5.383   5.886   0.241 -0.1150 -0.0703 -0.0176
 2444TIP3    H128967   5.317   5.952   0.264  0.7623  1.0346 -0.5666
 2444TIP3    H228968   5.343   5.835   0.171 -0.3911  0.6186 -0.3722
 2445TIP3   OH228969   2.464   3.348   7.805  0.1517  0.5231 -0.3726
 2445TIP3    H128970   2.501   3.406   7.871 -0.3455  0.4543 -0.0225
 2445TIP3    H228971   2.532   3.339   7.739  0.7785  0.3511  0.2815
 2446TIP3   OH228972   0.721   5.621   2.564  0.3193 -0.0460 -0.3360
 2446TIP3    H128973   0.670   5.679   2.508  0.1120 -0.7425 -0.8862
 2446TIP3    H228974   0.709   5.534   2.526 -1.6975 -0.9579  2.0651
 2447TIP3   OH228975   2.867   5.133   1.067 -0.1610  0.1517 -0.1797
 2447TIP3    H128976   2.878   5.098   0.979  0.9437 -1.0019  0.3859
 2447TIP3    H228977   2.803   5.204   1.057  0.5553  0.5849 -2.0271
 2448TIP3   OH228978   4.180   1.840   0.934  0.0875  0.4435 -0.3143
 2448TIP3    H128979   4.252   1.801   0.885  1.0044 -0.2523  1.5204
 2448TIP3    H228980   4.199   1.820   1.026 -1.7993  1.3179  0.3169
 2449TIP3   OH228981   0.625   5.344   7.789  0.5404 -0.1471  0.3882
 2449TIP3    H128982   0.561   5.326   7.720  1.5659 -0.1343 -0.5808
 2449TIP3    H228983   0.591   5.423   7.833  0.6799  0.7990 -1.1270
 2450TIP3   OH228984   4.069   5.479   0.257 -0.3836  0.5717  0.7083
 2450TIP3    H128985   3.979   5.468   0.224  0.6011 -1.5570 -1.6199
 2450TIP3    H228986   4.083   5.401   0.312  0.9399 -0.8318 -1.4608
 2451TIP3   OH228987   1.869   1.343   0.426 -0.4428 -0.9784 -0.1905
 2451TIP3    H128988   1.829   1.288   0.493 -3.2820  1.4818  0.3304
 2451TIP3    H228989   1.963   1.336   0.443 -0.9672 -1.1492  3.5037
 2452TIP3   OH228990   0.628   4.831   0.029 -0.4304 -0.1866 -0.0852
 2452TIP3    H128991   0.671   4.903  -0.019  0.5340 -0.3859  0.4722
 2452TIP3    H228992   0.676   4.753   0.003  0.1811 -0.2830  1.2953
 2453TIP3   OH228993   4.165   2.718   2.297 -0.0395 -0.4152 -0.6005
 2453TIP3    H128994   4.231   2.758   2.354 -0.7039  2.1228 -1.4462
 2453TIP3    H228995   4.214   2.687   2.221  0.2592  1.3151 -1.1556
 2454TIP3   OH228996   5.121   2.982   1.116 -0.0507  0.6694  0.7934
 2454TIP3    H128997   5.077   3.064   1.136  2.3486  1.8054  1.8813
 2454TIP3    H228998   5.211   2.995   1.146  0.9454 -1.6494 -0.8374
 2455TIP3   OH228999   0.237   3.869   2.249 -0.7603 -0.1572  0.9244
 2455TIP3    H129000   0.322   3.911   2.235 -1.1385  0.4967  0.6067
 2455TIP3    H229001   0.203   3.910   2.329 -1.0441 -0.0006  0.7219
 2456TIP3   OH229002   5.092   4.467   2.787 -0.1446  0.0149  0.0822
 2456TIP3    H129003   5.173   4.518   2.786  0.5167 -0.9836 -1.8180
 2456TIP3    H229004   5.100   4.411   2.865  0.7091  0.3374  0.2364
 2457TIP3   OH229005   2.118   0.262   0.221 -0.0816 -0.9008 -0.8534
 2457TIP3    H129006   2.181   0.240   0.152  0.3153 -1.5748 -0.2938
 2457TIP3    H229007   2.137   0.200   0.291  0.5160  0.7087  0.4805
 2458TIP3   OH229008   4.297   3.267   8.171  0.3015 -0.6318  0.0950
 2458TIP3    H129009   4.391   3.280   8.177  0.3217 -0.7534  0.0511
 2458TIP3    H229010   4.270   3.244   8.261  0.4357 -1.3733 -0.0469
 2459TIP3   OH229011   0.067   6.531   2.350 -0.4433  0.4324 -0.2739
 2459TIP3    H129012   0.060   6.590   2.425 -1.5304 -0.1368  0.0972
 2459TIP3    H229013   0.126   6.576   2.290 -0.6579  1.5539  0.3161
 2460TIP3   OH229014   3.502   5.018   8.462 -0.5916 -0.2826 -0.2111
 2460TIP3    H129015   3.541   4.956   8.400 -3.1038 -2.8293  0.5383
 2460TIP3    H229016   3.416   5.037   8.425 -0.3258  1.9755  0.1825
 2461TIP3   OH229017   5.388   2.709   1.741  0.5519 -0.0144 -0.1703
 2461TIP3    H129018   5.309   2.696   1.688 -0.0345 -1.3002  0.9629
 2461TIP3    H229019   5.444   2.635   1.720 -0.1703 -1.1991  1.7683
 2462TIP3   OH229020   4.978   0.700   2.374 -0.3749  0.2703 -0.8367
 2462TIP3    H129021   5.060   0.749   2.365 -0.3565  0.3080 -0.4976
 2462TIP3    H229022   4.912   0.758   2.337  0.0935 -0.8976 -3.7656
 2463TIP3   OH229023   1.943   1.985   8.282 -0.2156  0.1740 -0.2456
 2463TIP3    H129024   1.921   1.895   8.304  1.2249  0.1115  1.0252
 2463TIP3    H229025   1.936   1.989   8.186 -0.2422 -1.2887 -0.3186
 2464TIP3   OH229026   6.475   5.062   2.640 -0.0465  0.1179  0.0123
 2464TIP3    H129027   6.508   5.125   2.703 -0.1650  0.0392  0.1537
 2464TIP3    H229028   6.436   4.992   2.693  1.0577 -0.6151 -0.1232
 2465TIP3   OH229029   4.717   1.654   3.413  0.0336  0.0342 -0.1904
 2465TIP3    H129030   4.638   1.600   3.407  0.0601  0.0939 -1.4812
 2465TIP3    H229031   4.693   1.727   3.470 -0.8384  0.0252 -0.5313
 2466TIP3   OH229032   2.313   6.722   8.006  0.1048 -0.4171  0.0018
 2466TIP3    H129033   2.316   6.675   8.089 -1.6710 -1.3791 -0.4474
 2466TIP3    H229034   2.333   6.655   7.940  0.9901  0.2309 -0.4145
 2467TIP3   OH229035   0.533   5.400   2.885  0.3151 -0.3814  0.1368
 2467TIP3    H129036   0.571   5.476   2.929  0.1816  0.1522 -0.6541
 2467TIP3    H229037   0.548   5.327   2.946  0.9070  0.1762  0.6730
 2468TIP3   OH229038   4.099   3.387   0.902  0.2731 -0.1290 -0.1794
 2468TIP3    H129039   4.089   3.314   0.841 -0.3569 -1.1907  1.1665
 2468TIP3    H229040   4.029   3.448   0.877 -0.9103 -1.2195  0.3630
 2469TIP3   OH229041   1.480   2.308   2.248  0.8325  0.4650  0.6051
 2469TIP3    H129042   1.404   2.310   2.307 -0.0655  0.3293 -0.4906
 2469TIP3    H229043   1.460   2.375   2.182  1.1426 -0.3299 -0.3144
 2470TIP3   OH229044   6.649   5.151   8.754 -0.5370 -0.2488 -0.0815
 2470TIP3    H129045   6.686   5.233   8.720  0.5234 -0.3238  0.8292
 2470TIP3    H229046   6.622   5.173   8.843 -0.6815 -0.7790  0.0082
 2471TIP3   OH229047   1.763   2.467   2.534 -0.5571 -0.5485 -0.3724
 2471TIP3    H129048   1.793   2.558   2.521 -0.2176 -0.7799 -1.2551
 2471TIP3    H229049   1.670   2.476   2.556 -0.2693  0.0770  0.6827
 2472TIP3   OH229050   1.869   4.666   2.156  0.2473 -0.1148 -0.7748
 2472TIP3    H129051   1.817   4.722   2.215  1.4073  0.6493 -0.4381
 2472TIP3    H229052   1.847   4.577   2.183 -0.8524  0.1896 -0.6145
 2473TIP3   OH229053   0.476   2.127   2.177  0.0124 -0.8613 -0.4602
 2473TIP3    H129054   0.469   2.108   2.271 -1.3328 -0.4984 -0.4720
 2473TIP3    H229055   0.391   2.103   2.141  0.5066 -0.9889 -1.6051
 2474TIP3   OH229056   4.398   1.297   8.759 -0.2148  0.3974 -0.2379
 2474TIP3    H129057   4.450   1.362   8.711  0.6036  0.3895  0.5993
 2474TIP3    H229058   4.308   1.313   8.732 -0.0738  2.0977  0.1635
 2475TIP3   OH229059   5.396   4.915   7.784  0.3654 -0.7890  0.5955
 2475TIP3    H129060   5.323   4.977   7.777  0.7131 -0.4177  0.1595
 2475TIP3    H229061   5.424   4.902   7.694  3.1709  1.9043  0.9211
 2476TIP3   OH229062   2.147   5.889   1.530  0.3181 -0.5763 -0.1527
 2476TIP3    H129063   2.080   5.939   1.482  1.1197  0.8689  0.1604
 2476TIP3    H229064   2.157   5.808   1.481  0.6122  0.5599 -2.0431
 2477TIP3   OH229065   4.541   4.752   1.170  0.6871  0.5277 -1.0475
 2477TIP3    H129066   4.519   4.838   1.206  1.1828  0.0733  0.4108
 2477TIP3    H229067   4.497   4.750   1.085 -0.8922  1.4948 -0.3016
 2478TIP3   OH229068   4.639   4.721   2.301 -0.1244  0.4460 -0.3153
 2478TIP3    H129069   4.677   4.679   2.378 -0.0110  0.9797 -0.0759
 2478TIP3    H229070   4.577   4.657   2.267  1.1754 -0.5565 -0.8759
 2479TIP3   OH229071   3.388   5.188   3.369 -0.0303  0.3767  0.1853
 2479TIP3    H129072   3.442   5.152   3.298 -1.8382  0.2591 -1.1941
 2479TIP3    H229073   3.451   5.228   3.429  1.6993 -1.1807 -0.5027
 2480TIP3   OH229074   3.879   0.755   8.640 -0.1289 -0.1574 -0.0204
 2480TIP3    H129075   3.886   0.770   8.546  1.8916 -4.5973 -0.8158
 2480TIP3    H229076   3.970   0.762   8.671 -0.7639  1.1967  1.6686
 2481TIP3   OH229077   1.594   0.627   2.534  0.7548  0.3214 -0.0170
 2481TIP3    H129078   1.633   0.619   2.621 -1.8949 -0.2872  1.2240
 2481TIP3    H229079   1.522   0.564   2.534 -1.7240  2.8926 -1.1866
 2482TIP3   OH229080   5.158   5.623   0.687 -0.3995  0.4051  0.3205
 2482TIP3    H129081   5.184   5.601   0.776  1.4078 -0.1327 -0.2846
 2482TIP3    H229082   5.210   5.700   0.665  0.2245 -0.2860 -0.7208
 2483TIP3   OH229083   3.930   4.768   2.175 -0.3969  0.0858 -0.5576
 2483TIP3    H129084   3.974   4.714   2.241 -0.6633 -0.1455 -0.5703
 2483TIP3    H229085   3.869   4.708   2.132 -0.4738  0.3231 -0.7783
 2484TIP3   OH229086   4.460   2.133   8.464  0.1292  0.0090  0.4389
 2484TIP3    H129087   4.541   2.183   8.454  0.5088 -0.5731  0.5774
 2484TIP3    H229088   4.392   2.194   8.436  0.2761  1.5758  3.1464
 2485TIP3   OH229089   3.594   6.690   2.457  0.0178 -0.4790  0.4006
 2485TIP3    H129090   3.649   6.707   2.380  1.0595  0.2981  1.2723
 2485TIP3    H229091   3.612   6.598   2.478 -1.4411 -1.1769 -1.1305
 2486TIP3   OH229092   6.010   0.999   3.419 -0.7767 -0.3747 -0.1407
 2486TIP3    H129093   5.951   1.065   3.458 -2.1239 -2.2405  1.1614
 2486TIP3    H229094   6.074   0.980   3.487  1.5613  1.7120 -1.5847
 2487TIP3   OH229095   5.304   6.197   1.809  0.2982 -0.0280  0.2550
 2487TIP3    H129096   5.297   6.154   1.724  0.3367  0.1400  0.1673
 2487TIP3    H229097   5.324   6.288   1.788 -2.0429  0.5720  0.3528
 2488TIP3   OH229098   6.201   5.169   2.505 -0.1916  0.0625 -0.2097
 2488TIP3    H129099   6.190   5.262   2.487  0.0080 -0.4974 -4.1498
 2488TIP3    H229100   6.273   5.165   2.568 -0.0199  2.5644 -0.1578
 2489TIP3   OH229101   6.028   6.088   0.366 -0.4468  0.1004  0.1484
 2489TIP3    H129102   5.949   6.053   0.407  0.0815 -1.1816  0.1221
 2489TIP3    H229103   6.000   6.170   0.325 -1.9598 -0.7241 -0.5400
 2490TIP3   OH229104   3.942   6.117   0.104 -0.0517  0.3632  0.1985
 2490TIP3    H129105   3.918   6.142   0.193 -1.1661  1.0346 -0.2774
 2490TIP3    H229106   3.915   6.191   0.049 -0.1954 -0.4020 -0.8074
 2491TIP3   OH229107   2.603   5.314   2.484  0.0455  0.6549  0.1089
 2491TIP3    H129108   2.698   5.322   2.481 -0.0516  2.2559  0.2547
 2491TIP3    H229109   2.572   5.404   2.495 -1.5558  0.3675 -1.5749
 2492TIP3   OH229110   3.904   1.763   0.983  0.3564 -0.1409 -0.1596
 2492TIP3    H129111   3.995   1.779   0.959  0.6313 -1.1336  0.1690
 2492TIP3    H229112   3.873   1.847   1.018  1.3055  0.0497  0.2476
 2493TIP3   OH229113   1.051   4.155   0.576 -0.3215  0.1310  0.4250
 2493TIP3    H129114   1.069   4.123   0.664 -1.4185 -0.3657  0.4873
 2493TIP3    H229115   1.012   4.080   0.531 -1.7779  1.0032  0.1892
 2494TIP3   OH229116   6.696   4.144   8.649  0.1504  0.2050  0.9096
 2494TIP3    H129117   6.658   4.230   8.633  1.9613  1.0355  0.8974
 2494TIP3    H229118   6.719   4.111   8.562  0.6932  0.2968  1.0171
 2495TIP3   OH229119   3.183   0.144   1.903 -0.3002 -0.3666  0.4077
 2495TIP3    H129120   3.224   0.230   1.889 -0.3062 -0.2634  1.0291
 2495TIP3    H229121   3.165   0.141   1.997 -1.9822 -0.2745  0.1244
 2496TIP3   OH229122   2.584   6.741   8.540  0.4919  0.4724 -0.1378
 2496TIP3    H129123   2.523   6.814   8.531  0.5422  0.8116  1.7523
 2496TIP3    H229124   2.636   6.763   8.617  1.7462 -0.7047 -0.6192
 2497TIP3   OH229125   5.952   5.562   7.409  0.4262 -0.0932 -0.0845
 2497TIP3    H129126   5.896   5.634   7.380  0.0702 -0.2888  0.1103
 2497TIP3    H229127   5.890   5.495   7.439  0.6658 -1.3819 -2.3155
 2498TIP3   OH229128   4.589   2.854   1.619  0.1321  0.5116 -0.2464
 2498TIP3    H129129   4.641   2.862   1.540  0.9650 -1.4088  0.0469
 2498TIP3    H229130   4.641   2.797   1.676 -1.8198 -0.6538  0.4537
 2499TIP3   OH229131   4.897   2.540   2.815 -0.4183  0.4037  0.0880
 2499TIP3    H129132   4.915   2.493   2.896  1.1612  0.6290 -0.0910
 2499TIP3    H229133   4.890   2.632   2.841 -2.3507  0.2367  0.2776
 2500TIP3   OH229134   2.508   2.038   1.621 -0.5430  0.4172 -0.2617
 2500TIP3    H129135   2.415   2.061   1.621 -0.4283  0.8839 -0.0798
 2500TIP3    H229136   2.551   2.111   1.665 -0.1304  0.0393 -0.0272
 2501TIP3   OH229137   2.067   3.154   8.183 -0.0666 -0.3166  0.8867
 2501TIP3    H129138   2.085   3.069   8.141  0.6629 -0.1061  0.7573
 2501TIP3    H229139   2.120   3.216   8.133 -3.2465  0.8577 -1.3809
 2502TIP3   OH229140   3.559   4.899   6.965 -0.2455  0.4359 -0.2746
 2502TIP3    H129141   3.586   4.897   6.874 -0.3858 -0.1553 -0.3066
 2502TIP3    H229142   3.630   4.855   7.012 -0.7645 -0.4016 -0.2589
 2503TIP3   OH229143   3.038   6.068   2.548 -0.6318  0.4280  0.2811
 2503TIP3    H129144   2.950   6.037   2.567 -0.4993  0.3958  0.8751
 2503TIP3    H229145   3.058   6.128   2.620  0.6163 -1.1608  1.3417
 2504TIP3   OH229146   1.094   2.349   1.825  0.0989  0.0697  0.2458
 2504TIP3    H129147   1.117   2.414   1.891  0.9223 -0.3636  0.4091
 2504TIP3    H229148   1.141   2.379   1.746 -0.4129  0.2720  0.0172
 2505TIP3   OH229149   5.571   1.456   0.478  0.2154 -0.0274  0.1344
 2505TIP3    H129150   5.628   1.390   0.439 -0.7531 -0.6967 -0.1962
 2505TIP3    H229151   5.533   1.503   0.404  0.2600  0.3431  0.3437
 2506TIP3   OH229152   5.542   2.907   1.058 -0.2415 -0.6694 -0.2033
 2506TIP3    H129153   5.594   2.841   1.012 -0.9189 -1.0631 -0.4275
 2506TIP3    H229154   5.591   2.924   1.138  0.5405 -0.5795 -0.6861
 2507TIP3   OH229155   0.546   1.996   8.001  0.0615  0.4472  0.6816
 2507TIP3    H129156   0.558   1.963   7.913 -0.3787 -0.3182  0.8963
 2507TIP3    H229157   0.501   2.080   7.990 -2.1488 -0.7330  0.2434
 2508TIP3   OH229158   4.152   3.670   1.113 -0.5426 -0.5594 -0.5339
 2508TIP3    H129159   4.179   3.742   1.169  0.6570 -3.1901  2.5552
 2508TIP3    H229160   4.057   3.666   1.124 -0.5403  0.1048 -0.1979
 2509TIP3   OH229161   1.361   2.152   0.630 -0.5195  0.5940  0.0884
 2509TIP3    H129162   1.404   2.073   0.598 -1.0973  0.4980 -0.4685
 2509TIP3    H229163   1.433   2.213   0.646 -0.1845  0.5164 -1.0585
 2510TIP3   OH229164   5.050   1.393   2.806 -0.0955  0.4531  0.4834
 2510TIP3    H129165   5.056   1.373   2.900  0.6381 -1.3392  0.0897
 2510TIP3    H229166   5.034   1.308   2.765  1.6605  0.8916 -1.1953
 2511TIP3   OH229167   4.483   6.132   8.521  0.2999 -0.2368 -0.4627
 2511TIP3    H129168   4.468   6.079   8.443 -0.3357 -1.5602  0.5134
 2511TIP3    H229169   4.395   6.149   8.556  0.5973 -0.0432  0.2126
 2512TIP3   OH229170   0.799   6.288   1.894  0.3457  0.0213 -0.3242
 2512TIP3    H129171   0.828   6.359   1.952 -0.4073  1.7990 -1.9737
 2512TIP3    H229172   0.705   6.282   1.909 -0.1445  1.5288 -2.2489
 2513TIP3   OH229173   5.414   2.648   8.905  0.2199  0.1722  0.0270
 2513TIP3    H129174   5.437   2.635   8.813 -1.1141  2.3568 -0.6721
 2513TIP3    H229175   5.475   2.714   8.936 -0.6309  0.9353  0.1103
 2514TIP3   OH229176   3.885   3.544   0.875 -0.2349 -0.1951 -0.5019
 2514TIP3    H129177   3.825   3.591   0.817 -1.8737 -1.3110  0.1956
 2514TIP3    H229178   3.881   3.593   0.957  0.0760 -0.0735 -0.5601
 2515TIP3   OH229179   3.216   4.735   8.660  0.0323  0.2414  0.1769
 2515TIP3    H129180   3.148   4.712   8.596  1.0291  0.9816 -1.2045
 2515TIP3    H229181   3.195   4.683   8.737  0.2456 -2.7355 -1.6081
 2516TIP3   OH229182   0.364   2.835   1.981  0.1834 -0.5037 -0.0204
 2516TIP3    H129183   0.302   2.863   2.048  2.1798  3.4752  0.4529
 2516TIP3    H229184   0.341   2.886   1.904  1.1168 -1.0826 -0.7045
 2517TIP3   OH229185   6.536   1.411   1.480  0.1457  0.0133 -0.0675
 2517TIP3    H129186   6.585   1.420   1.562 -2.6677  3.5014  1.5070
 2517TIP3    H229187   6.476   1.338   1.497  0.4156 -0.0902  0.4849
 2518TIP3   OH229188   3.876   3.034   8.853 -0.1733 -0.0808  0.6943
 2518TIP3    H129189   3.807   3.086   8.812 -0.6237 -1.9852 -1.1676
 2518TIP3    H229190   3.899   2.969   8.787  3.3599  0.3565  1.2722
 2519TIP3   OH229191   0.101   0.871   1.155  0.2557  0.1242 -0.3101
 2519TIP3    H129192   0.145   0.791   1.127 -0.2961  0.0497 -0.9877
 2519TIP3    H229193   0.110   0.871   1.250  1.0978 -0.2496 -0.3789
 2520TIP3   OH229194   6.254   2.721   7.915 -0.3387 -0.3187 -0.2346
 2520TIP3    H129195   6.277   2.668   7.992 -1.5887 -2.0165 -0.9508
 2520TIP3    H229196   6.338   2.747   7.878  0.3782 -2.2360 -0.0900
 2521TIP3   OH229197   6.212   1.092   3.128 -0.2219  0.1416 -0.3797
 2521TIP3    H129198   6.117   1.101   3.139 -0.3827 -0.2703 -1.3254
 2521TIP3    H229199   6.249   1.129   3.208 -1.1827  0.2507  0.0291
 2522TIP3   OH229200   2.698   4.242   2.352 -0.3190 -0.7825 -0.3159
 2522TIP3    H129201   2.766   4.289   2.304 -1.3066  0.7559 -0.3010
 2522TIP3    H229202   2.618   4.291   2.333 -0.8747 -0.5149  2.3026
 2523TIP3   OH229203   4.605   1.766   8.844 -0.4676  0.1263 -0.1570
 2523TIP3    H129204   4.522   1.795   8.808 -0.6990  0.9710  0.9697
 2523TIP3    H229205   4.606   1.671   8.832  0.7534  0.5001 -4.9373
 2524TIP3   OH229206   4.202   6.468   8.052 -0.0371  0.7764 -0.1114
 2524TIP3    H129207   4.164   6.521   7.981 -1.3235 -0.1660 -0.1605
 2524TIP3    H229208   4.172   6.379   8.034 -0.5444  0.5402  1.7161
 2525TIP3   OH229209   0.272   3.440   8.658 -0.2625 -0.0772  0.0690
 2525TIP3    H129210   0.364   3.416   8.661 -0.5040 -1.1866 -0.7582
 2525TIP3    H229211   0.227   3.360   8.630 -1.5278  0.3225  0.8658
 2526TIP3   OH229212   0.900   2.109   8.966 -0.4352 -0.1550 -0.0112
 2526TIP3    H129213   0.811   2.100   8.931 -0.4750  1.0227 -0.2337
 2526TIP3    H229214   0.895   2.073   9.054 -1.1027 -0.1842 -0.0595
 2527TIP3   OH229215   2.781   0.506   0.321  0.1064  1.0164 -0.2252
 2527TIP3    H129216   2.730   0.537   0.396  2.2857 -0.6782  2.1486
 2527TIP3    H229217   2.867   0.547   0.332  0.6066  0.3577 -1.5482
 2528TIP3   OH229218   6.512   2.939   1.843 -0.7167  0.1508 -0.0037
 2528TIP3    H129219   6.552   3.022   1.816  0.0536 -0.3996 -0.5856
 2528TIP3    H229220   6.571   2.872   1.810 -1.5485 -0.6511  0.1105
 2529TIP3   OH229221   3.040   0.104   2.139 -0.1536 -0.0557  0.3547
 2529TIP3    H129222   2.949   0.105   2.111 -0.0525 -1.6293 -0.0837
 2529TIP3    H229223   3.047   0.029   2.199  0.3849  1.2811  2.0837
 2530TIP3   OH229224   1.883   6.463   8.495  0.2311 -0.4542 -0.5137
 2530TIP3    H129225   1.958   6.454   8.436  0.6528  1.3629 -0.3245
 2530TIP3    H229226   1.822   6.394   8.467  1.4628 -1.2218 -1.4334
 2531TIP3   OH229227   5.309   1.143   7.971  0.1375  0.2788 -0.4302
 2531TIP3    H129228   5.363   1.205   8.021 -1.2645  0.3294  1.0942
 2531TIP3    H229229   5.317   1.173   7.881  1.5605  1.1065 -0.0677
 2532TIP3   OH229230   3.969   5.252   1.593  0.1369 -0.1154  0.5008
 2532TIP3    H129231   4.005   5.224   1.677  0.4391  0.2781  0.5015
 2532TIP3    H229232   3.878   5.276   1.613 -0.2654 -1.4520  0.4312
 2533TIP3   OH229233   4.398   5.629   3.293 -0.3506  0.2580 -0.0273
 2533TIP3    H129234   4.451   5.631   3.373  0.8300  0.1171 -0.7718
 2533TIP3    H229235   4.343   5.707   3.298  0.0345  0.4897  0.7168
 2534TIP3   OH229236   2.768   1.107   3.163  0.3901 -0.1291 -0.1283
 2534TIP3    H129237   2.800   1.196   3.153 -0.3081 -0.0035 -1.4280
 2534TIP3    H229238   2.819   1.071   3.236  0.2947  1.4917  0.7729
 2535TIP3   OH229239   0.741   0.185   2.702 -0.3421 -0.2169  0.2338
 2535TIP3    H129240   0.750   0.181   2.606  0.5591  0.2892  0.2815
 2535TIP3    H229241   0.831   0.188   2.734 -0.6131 -1.0990  1.1492
 2536TIP3   OH229242   1.764   2.705   2.011 -0.8498 -0.0200 -0.0661
 2536TIP3    H129243   1.673   2.701   1.981 -1.8765 -0.3455  2.7543
 2536TIP3    H229244   1.759   2.751   2.095  1.4296 -1.0525  0.6978
 2537TIP3   OH229245   2.037   0.393   7.461 -0.1023  0.1434  0.2954
 2537TIP3    H129246   1.952   0.431   7.482 -1.9270 -2.1880 -2.2201
 2537TIP3    H229247   2.088   0.465   7.425 -2.0862  1.0188 -0.9017
 2538TIP3   OH229248   2.377   1.237   2.263  0.5664  0.3912  0.2446
 2538TIP3    H129249   2.357   1.260   2.354  1.6973 -0.2248  0.6656
 2538TIP3    H229250   2.416   1.150   2.268  2.6320  1.1871 -0.5587
 2539TIP3   OH229251   4.672   2.362   1.371  0.0981  0.0400  0.4630
 2539TIP3    H129252   4.702   2.332   1.285  0.7719  0.3116  0.5959
 2539TIP3    H229253   4.627   2.286   1.408 -0.2229 -0.0687 -0.1368
 2540TIP3   OH229254   4.183   0.436   1.864  0.5019 -0.7660  0.7883
 2540TIP3    H129255   4.113   0.462   1.805  1.2581  0.3002  0.3363
 2540TIP3    H229256   4.259   0.423   1.808  0.9168 -0.9798  1.3838
 2541TIP3   OH229257   5.288   0.256   2.106 -0.4336  0.1822  0.0252
 2541TIP3    H129258   5.262   0.331   2.159  0.3162 -0.1314  0.8714
 2541TIP3    H229259   5.222   0.251   2.037  0.3115  2.4694 -0.9035
 2542TIP3   OH229260   1.538   4.181   7.773  0.0549 -0.1728  0.7637
 2542TIP3    H129261   1.499   4.102   7.736 -0.0037  0.6779 -1.1053
 2542TIP3    H229262   1.465   4.242   7.784  0.1390 -0.2648  1.9314
 2543TIP3   OH229263   5.003   2.510   0.587 -0.2665  0.7566  0.9258
 2543TIP3    H129264   4.917   2.546   0.564 -1.0202 -1.2122  0.5062
 2543TIP3    H229265   4.984   2.427   0.629  1.4392 -0.7419 -1.0555
 2544TIP3   OH229266   3.334   6.621   7.700  0.3180  0.0206 -0.0271
 2544TIP3    H129267   3.251   6.668   7.698  0.0680 -0.3598  1.0377
 2544TIP3    H229268   3.322   6.552   7.765  1.5336  0.0982  0.3056
 2545TIP3   OH229269   2.250   2.394   7.417 -0.2622 -0.5677 -0.8096
 2545TIP3    H129270   2.330   2.448   7.413 -0.4972 -0.1547 -0.0611
 2545TIP3    H229271   2.262   2.330   7.347  0.3192  0.0497 -1.3017
 2546TIP3   OH229272   0.610   0.439   1.654  0.2018 -0.6160 -0.1688
 2546TIP3    H129273   0.671   0.473   1.588 -0.6002 -0.1933 -0.7019
 2546TIP3    H229274   0.526   0.432   1.608 -0.9151  1.7692  1.3329
 2547TIP3   OH229275   2.257   2.982   0.561 -0.3332  0.2195  0.3663
 2547TIP3    H129276   2.333   3.041   0.564  0.9169 -0.9882 -3.2184
 2547TIP3    H229277   2.289   2.900   0.598  0.4747 -0.5324 -1.8527
 2548TIP3   OH229278   1.125   1.873   0.491 -0.1014  0.0686  0.1531
 2548TIP3    H129279   1.068   1.820   0.435  0.9057 -0.0775 -0.7877
 2548TIP3    H229280   1.204   1.885   0.438 -0.3288  2.6211  0.2629
 2549TIP3   OH229281   4.855   1.292   8.233 -0.5244  0.0391 -0.2213
 2549TIP3    H129282   4.926   1.321   8.176 -0.3038 -1.3037 -0.6660
 2549TIP3    H229283   4.775   1.311   8.185 -0.4035  0.2619 -0.3330
 2550TIP3   OH229284   2.768   4.148   3.517  0.1292 -0.0101 -0.0971
 2550TIP3    H129285   2.728   4.064   3.540 -0.2681  0.7754  2.4517
 2550TIP3    H229286   2.717   4.179   3.442  0.6387 -2.2315 -1.4395
 2551TIP3   OH229287   5.721   2.334   0.887 -0.4835 -0.0009  0.2562
 2551TIP3    H129288   5.630   2.307   0.872 -0.1554 -1.7317  1.1045
 2551TIP3    H229289   5.770   2.294   0.814  0.1274 -2.6423  1.9647
 2552TIP3   OH229290   4.061   0.441   7.737  0.2005 -0.2237  0.5856
 2552TIP3    H129291   4.015   0.461   7.819 -1.6560  1.2373 -0.7335
 2552TIP3    H229292   4.074   0.526   7.695 -0.6767 -1.0829 -1.5381
 2553TIP3   OH229293   1.010   6.386   2.045 -0.2696 -0.1958 -0.2441
 2553TIP3    H129294   1.020   6.296   2.013 -1.2086 -0.8296  1.0912
 2553TIP3    H229295   0.966   6.375   2.130 -0.2072  1.5233  0.0360
 2554TIP3   OH229296   4.395   3.916   1.355 -0.1426  0.8193  0.2415
 2554TIP3    H129297   4.460   3.871   1.301  1.7812  2.0136  1.4403
 2554TIP3    H229298   4.361   3.985   1.299 -0.7774 -0.1200 -0.5608
 2555TIP3   OH229299   5.705   5.408   0.733 -0.3752  0.6758  0.7581
 2555TIP3    H129300   5.789   5.448   0.756 -0.3356  0.1470  1.5570
 2555TIP3    H229301   5.640   5.474   0.758 -0.3389  0.0818  2.5426
 2556TIP3   OH229302   0.547   2.478   0.969 -0.4605 -0.1064 -0.3192
 2556TIP3    H129303   0.565   2.429   0.889 -0.6192 -0.5399 -0.0966
 2556TIP3    H229304   0.593   2.561   0.958 -0.1379 -0.3307 -0.6773
 2557TIP3   OH229305   5.680   4.709   1.998  0.2201 -0.4460 -0.2187
 2557TIP3    H129306   5.771   4.685   1.982  0.8025  0.8373  1.0443
 2557TIP3    H229307   5.679   4.804   1.997 -1.4602 -0.4233 -1.9736
 2558TIP3   OH229308   3.137   6.631   2.238  0.1704 -0.4724 -0.2196
 2558TIP3    H129309   3.216   6.642   2.185  1.8881 -0.5776  2.1796
 2558TIP3    H229310   3.168   6.626   2.328 -2.5794 -0.7234  0.8267
 2559TIP3   OH229311   0.855   0.097   1.932 -1.1364 -0.2781  0.3577
 2559TIP3    H129312   0.916   0.168   1.954 -1.7243  0.3873 -0.0919
 2559TIP3    H229313   0.836   0.111   1.839  0.0857 -2.0839 -0.2283
 2560TIP3   OH229314   5.291   0.485   3.500 -0.9080  0.3056  0.6879
 2560TIP3    H129315   5.334   0.491   3.585 -0.2610  0.4294  0.3586
 2560TIP3    H229316   5.200   0.466   3.521 -0.7606  0.3490  1.4089
 2561TIP3   OH229317   4.676   3.305   2.235 -0.3720 -0.3898  0.0063
 2561TIP3    H129318   4.664   3.354   2.153 -0.0227 -0.9971 -0.4161
 2561TIP3    H229319   4.730   3.230   2.210  0.6059 -0.0311  1.0059
 2562TIP3   OH229320   5.097   1.332   0.425 -0.0350 -0.2758 -0.1397
 2562TIP3    H129321   5.136   1.382   0.497  0.2470 -1.8832  0.8613
 2562TIP3    H229322   5.076   1.399   0.360 -1.4885  1.4251  1.9243
 2563TIP3   OH229323   2.718   2.673   8.123  0.0386  0.4189  0.2994
 2563TIP3    H129324   2.715   2.608   8.053 -2.3894  0.7493  0.0176
 2563TIP3    H229325   2.723   2.622   8.204 -0.4316 -0.0663  0.0225
 2564TIP3   OH229326   3.627   4.697   1.057  0.2114  0.0729 -0.1779
 2564TIP3    H129327   3.715   4.683   1.023  0.5658 -3.1649  1.6756
 2564TIP3    H229328   3.631   4.665   1.147 -3.1711 -1.6527 -0.4890
 2565TIP3   OH229329   5.758   5.370   3.341  0.1235  0.2519  0.2002
 2565TIP3    H129330   5.690   5.310   3.372 -0.2754  1.9253  2.8756
 2565TIP3    H229331   5.840   5.332   3.374  0.2084 -0.3510 -0.6862
 2566TIP3   OH229332   0.712   2.006   0.495  0.1906  0.1953 -1.1758
 2566TIP3    H129333   0.632   2.058   0.501 -1.0745 -1.7935  1.2915
 2566TIP3    H229334   0.703   1.959   0.412 -0.1601  1.5316 -1.9193
 2567TIP3   OH229335   1.524   1.048   1.842 -0.4418 -0.3749 -0.4019
 2567TIP3    H129336   1.587   1.008   1.901  0.2263 -0.7793 -1.3639
 2567TIP3    H229337   1.471   1.106   1.898  0.0671 -0.8641  0.5973
 2568TIP3   OH229338   2.469   2.882   2.786  0.2248  0.4452 -0.4562
 2568TIP3    H129339   2.390   2.931   2.764  1.7772  3.2716 -0.2352
 2568TIP3    H229340   2.526   2.892   2.710  1.3950  0.8375  0.4377
 2569TIP3   OH229341   2.498   1.734   2.742  0.1167  0.6374  0.6423
 2569TIP3    H129342   2.473   1.817   2.702 -1.1190  0.7079  1.5319
 2569TIP3    H229343   2.591   1.745   2.763 -0.5317  2.6683  2.7720
 2570TIP3   OH229344   5.660   2.517   0.151 -0.1700 -0.3573  0.4279
 2570TIP3    H129345   5.626   2.431   0.176 -1.2015 -0.4863 -1.2503
 2570TIP3    H229346   5.683   2.508   0.058  0.2407  1.0183  0.3717
 2571TIP3   OH229347   6.504   4.041   0.379 -0.1667  0.4913 -0.3041
 2571TIP3    H129348   6.491   4.088   0.462 -0.0331  0.2273 -0.1333
 2571TIP3    H229349   6.546   3.959   0.404 -0.7786  0.0903 -0.5535
 2572TIP3   OH229350   3.707   5.901   8.885 -0.0830 -0.2438 -0.2458
 2572TIP3    H129351   3.700   5.920   8.978 -2.0068 -4.4344  0.6789
 2572TIP3    H229352   3.618   5.912   8.851 -0.2506 -2.4564 -0.6525
 2573TIP3   OH229353   1.639   0.846   1.396 -0.3688 -0.2246 -0.2920
 2573TIP3    H129354   1.656   0.883   1.483 -1.0112 -1.7933  0.5527
 2573TIP3    H229355   1.563   0.789   1.409  0.5681 -1.8442 -1.4791
 2574TIP3   OH229356   4.840   4.081   1.270 -0.2068 -0.0320  0.2161
 2574TIP3    H129357   4.796   4.119   1.346  1.8999  0.1067  1.4319
 2574TIP3    H229358   4.898   4.014   1.306  1.7497  0.8571 -1.0892
 2575TIP3   OH229359   2.458   3.479   0.088  0.5470  0.6477  0.2742
 2575TIP3    H129360   2.413   3.401   0.121 -0.8788  0.3577 -2.0550
 2575TIP3    H229361   2.417   3.552   0.134 -0.2185  0.1860  0.3509
 2576TIP3   OH229362   5.567   4.434   8.609 -0.0997 -0.1250  0.0514
 2576TIP3    H129363   5.500   4.413   8.674  0.0787 -0.7747  0.0382
 2576TIP3    H229364   5.553   4.368   8.540  0.1692  0.1120 -0.2269
 2577TIP3   OH229365   5.953   3.989   0.743 -0.5593  0.5021  0.4722
 2577TIP3    H129366   5.893   4.000   0.816  0.9188  0.8590  1.6697
 2577TIP3    H229367   5.968   3.895   0.738 -0.2989  0.5214  0.9185
 2578TIP3   OH229368   4.636   4.484   1.733 -0.1691 -0.3158 -0.3597
 2578TIP3    H129369   4.585   4.564   1.720 -1.6092 -1.5176 -2.9875
 2578TIP3    H229370   4.710   4.492   1.673  2.1705  0.7981  2.4400
 2579TIP3   OH229371   0.406   2.959   2.516 -0.6328  0.4281  0.1725
 2579TIP3    H129372   0.457   3.036   2.492  2.5532 -1.2368  1.0984
 2579TIP3    H229373   0.392   2.969   2.610 -0.0801 -0.1532  0.3227
 2580TIP3   OH229374   4.767   4.201   8.303  0.2454  0.1760 -0.0970
 2580TIP3    H129375   4.769   4.106   8.317  1.1607  0.2519  0.3573
 2580TIP3    H229376   4.687   4.230   8.346  0.9149 -0.1489  1.4354
 2581TIP3   OH229377   1.392   3.138   7.631  0.7642 -0.6089  0.0865
 2581TIP3    H129378   1.451   3.066   7.649  1.2930 -0.0890  0.4818
 2581TIP3    H229379   1.448   3.207   7.595  0.2010 -0.5424 -0.6948
 2582TIP3   OH229380   2.227   5.750   0.251  0.7090  0.0383  0.9583
 2582TIP3    H129381   2.305   5.736   0.197  1.2174 -0.2578  1.7571
 2582TIP3    H229382   2.184   5.665   0.254 -0.6793  0.5914 -1.0005
 2583TIP3   OH229383   3.289   4.697   2.180  0.1827 -0.5909  0.5243
 2583TIP3    H129384   3.284   4.622   2.240  1.0489 -0.4440  0.7935
 2583TIP3    H229385   3.382   4.722   2.181 -0.0288  0.2306  0.1282
 2584TIP3   OH229386   6.351   3.762   0.737 -0.7809 -0.0339 -0.1136
 2584TIP3    H129387   6.340   3.670   0.762  0.5855 -0.2169 -0.1114
 2584TIP3    H229388   6.418   3.761   0.669 -0.4307  0.9987  0.1904
 2585TIP3   OH229389   3.056   1.327   3.091 -0.6385  0.0007  0.8776
 2585TIP3    H129390   3.109   1.388   3.143  0.0625  1.5366 -1.4467
 2585TIP3    H229391   2.967   1.363   3.096 -0.3412  0.9284  0.0424
 2586TIP3   OH229392   5.762   1.717   8.320  0.2248  0.2641 -0.1833
 2586TIP3    H129393   5.744   1.806   8.351  2.7902  0.7026  0.2121
 2586TIP3    H229394   5.748   1.661   8.396 -0.2488  0.4454 -0.1300
 2587TIP3   OH229395   1.767   4.525   0.380  0.0597 -0.0561  0.6940
 2587TIP3    H129396   1.717   4.559   0.454 -0.6012  0.9408 -0.1791
 2587TIP3    H229397   1.736   4.435   0.368  1.0379 -0.6536  2.3558
 2588TIP3   OH229398   5.464   5.810   2.618  0.5850  0.2616  0.1425
 2588TIP3    H129399   5.505   5.843   2.698  2.1520 -1.4552  0.1126
 2588TIP3    H229400   5.529   5.826   2.550  0.6665 -1.2809 -0.1657
 2589TIP3   OH229401   5.225   1.096   1.174  1.0467  0.0961 -0.0325
 2589TIP3    H129402   5.134   1.069   1.186  0.8757  0.7027  0.0871
 2589TIP3    H229403   5.268   1.073   1.257  0.7586  0.7453  0.3061
 2590TIP3   OH229404   2.090   3.438   2.674 -0.1387 -0.0598 -0.3737
 2590TIP3    H129405   2.150   3.443   2.600 -0.3282  0.3199 -0.5032
 2590TIP3    H229406   2.144   3.406   2.747  0.2095  0.2410 -0.4992
 2591TIP3   OH229407   3.393   5.059   2.726  0.1557 -0.1180 -0.1596
 2591TIP3    H129408   3.390   5.093   2.816 -0.1744  0.9990 -0.5736
 2591TIP3    H229409   3.484   5.071   2.698  0.3388 -0.7705  0.1177
 2592TIP3   OH229410   6.446   2.698   2.252 -0.7395  0.0836 -0.3257
 2592TIP3    H129411   6.459   2.606   2.275  0.7356 -0.1347 -1.8237
 2592TIP3    H229412   6.421   2.697   2.159 -0.7074  1.1883 -0.3683
 2593TIP3   OH229413   3.307   1.848   2.573 -0.2258  0.2513 -0.2341
 2593TIP3    H129414   3.395   1.833   2.608  0.3652 -1.4858 -2.2117
 2593TIP3    H229415   3.263   1.763   2.582 -1.4936  0.9332  0.1487
 2594TIP3   OH229416   6.140   5.575   2.728 -0.1015  0.0140  0.5650
 2594TIP3    H129417   6.102   5.663   2.727 -0.9934 -0.3509  1.2700
 2594TIP3    H229418   6.124   5.543   2.817  0.2046 -0.8629  0.3106
 2595TIP3   OH229419   3.826   5.246   0.658 -0.7329 -0.3321 -0.2074
 2595TIP3    H129420   3.920   5.247   0.642 -0.9310 -1.2175 -1.5856
 2595TIP3    H229421   3.814   5.299   0.737  0.5500  2.6225 -1.8386
 2596TIP3   OH229422   2.837   4.159   2.020  0.0686  0.1631 -0.2903
 2596TIP3    H129423   2.881   4.190   2.100 -1.5327 -0.5077  0.8983
 2596TIP3    H229424   2.825   4.238   1.968  1.0335  0.6358  0.1775
 2597TIP3   OH229425   4.681   0.372   0.589 -0.2875 -0.5415  0.3676
 2597TIP3    H129426   4.736   0.351   0.514 -1.3841 -1.3691 -0.2333
 2597TIP3    H229427   4.742   0.375   0.663  1.0477  1.7624 -0.7215
 2598TIP3   OH229428   4.837   6.451   8.020 -0.1655  0.1579 -0.4911
 2598TIP3    H129429   4.871   6.473   7.933 -0.4730  1.7400 -0.2336
 2598TIP3    H229430   4.759   6.506   8.029 -0.4208 -0.3690  0.5870
 2599TIP3   OH229431   2.762   0.403   2.691 -0.0953  0.2919  0.1906
 2599TIP3    H129432   2.799   0.325   2.651  0.3483  0.2053  0.7530
 2599TIP3    H229433   2.829   0.433   2.752 -0.5730  0.6735  0.5398
 2600TIP3   OH229434   4.350   4.420   0.872 -0.0069  0.5390  0.2535
 2600TIP3    H129435   4.270   4.399   0.824  0.8497 -1.9296 -0.1903
 2600TIP3    H229436   4.323   4.415   0.964 -0.4532  0.0765  0.1069
 2601TIP3   OH229437   2.976   2.832   1.108 -0.3003 -0.3877 -0.0685
 2601TIP3    H129438   3.060   2.793   1.134 -1.4079 -2.0782  1.2135
 2601TIP3    H229439   2.945   2.776   1.036 -1.2349 -1.0134  0.8025
 2602TIP3   OH229440   0.436   5.390   8.253  0.6588 -0.1622  0.1145
 2602TIP3    H129441   0.379   5.394   8.330  0.1328  0.8069 -0.3062
 2602TIP3    H229442   0.491   5.468   8.260  0.0714  0.3657 -0.8789
 2603TIP3   OH229443   2.932   1.342   2.064 -0.6400  0.5502  0.2310
 2603TIP3    H129444   2.990   1.370   1.993  0.8262 -1.0959  0.6987
 2603TIP3    H229445   2.901   1.255   2.036 -0.6396  0.2066  1.2718
 2604TIP3   OH229446   4.296   6.143   0.861  0.3555  0.7348  0.0084
 2604TIP3    H129447   4.372   6.092   0.891  1.9824  2.3317 -1.1675
 2604TIP3    H229448   4.308   6.229   0.902 -1.8745  0.5133  1.2747
 2605TIP3   OH229449   4.744   1.752   0.440 -0.2490  0.3825 -0.1557
 2605TIP3    H129450   4.732   1.673   0.492  2.0530  0.2606  0.3232
 2605TIP3    H229451   4.714   1.728   0.352  2.3654 -1.8283 -0.5631
 2606TIP3   OH229452   1.184   0.141   2.140  0.5068 -0.0722  0.3683
 2606TIP3    H129453   1.188   0.231   2.171 -0.0448  0.6737 -1.5839
 2606TIP3    H229454   1.210   0.146   2.048  0.8175 -1.9633  0.3139
 2607TIP3   OH229455   2.343   0.002   0.754 -0.0428 -0.0017  0.1808
 2607TIP3    H129456   2.258  -0.021   0.792 -0.2533 -1.1277 -0.8934
 2607TIP3    H229457   2.323   0.073   0.692 -0.9330 -2.5607 -2.7388
 2608TIP3   OH229458   1.318   2.535   8.774 -0.1212  0.3089 -0.1428
 2608TIP3    H129459   1.325   2.454   8.824  2.3103 -0.2597 -1.2708
 2608TIP3    H229460   1.291   2.507   8.687 -0.5560  0.8693 -0.1916
 2609TIP3   OH229461   3.928   0.894   8.190 -0.2431  0.2912  0.2127
 2609TIP3    H129462   3.997   0.831   8.170  0.8794  1.7792 -0.9170
 2609TIP3    H229463   3.963   0.978   8.157 -2.3612  1.1909  0.1229
 2610TIP3   OH229464   5.469   2.953   3.248  0.2097 -0.3729  0.2658
 2610TIP3    H129465   5.535   2.898   3.205  0.0379 -0.5000  0.1649
 2610TIP3    H229466   5.509   3.040   3.252 -0.1667 -0.1136 -1.0612
 2611TIP3   OH229467   2.604   1.826   8.457 -0.0630  0.0416 -0.0463
 2611TIP3    H129468   2.549   1.837   8.379 -1.2707 -1.3452  0.5572
 2611TIP3    H229469   2.660   1.752   8.436  1.9432  1.6601 -0.7934
 2612TIP3   OH229470   4.959   6.358   8.569  0.2227 -0.2777 -0.1339
 2612TIP3    H129471   4.864   6.346   8.571  0.1255  0.3589 -0.6068
 2612TIP3    H229472   4.976   6.399   8.485  0.9207 -0.3523 -0.0359
 2613TIP3   OH229473   3.994   0.546   8.315 -0.0064 -0.4425 -0.1807
 2613TIP3    H129474   3.901   0.529   8.302 -0.4014  0.8289  0.7733
 2613TIP3    H229475   4.028   0.466   8.356 -0.7977 -0.6945  0.0010
 2614TIP3   OH229476   2.994   0.516   8.739 -0.0584 -0.1741 -0.0856
 2614TIP3    H129477   3.067   0.454   8.737 -0.6598 -0.9676  1.5086
 2614TIP3    H229478   3.023   0.588   8.682  1.0015 -1.4985 -1.3012
 2615TIP3   OH229479   4.326   3.731   7.702 -0.0716 -0.0629 -0.2341
 2615TIP3    H129480   4.313   3.707   7.610  0.8737  1.2588 -0.7442
 2615TIP3    H229481   4.254   3.687   7.748  0.4819 -2.2749 -1.3219
 2616TIP3   OH229482   5.622   3.615   1.347  0.0211 -0.0380 -0.6589
 2616TIP3    H129483   5.592   3.573   1.428  1.3456  0.0428 -0.0901
 2616TIP3    H229484   5.688   3.554   1.312  1.3137  1.0950 -0.2978
 2617TIP3   OH229485   1.847   5.703   8.954  0.4016 -0.3564  0.2539
 2617TIP3    H129486   1.792   5.627   8.937  0.7985 -0.6637  0.3174
 2617TIP3    H229487   1.838   5.719   9.048 -1.4064  1.0405 -0.0992
 2618TIP3   OH229488   0.805   1.248   2.996 -0.1832  0.5445  0.0548
 2618TIP3    H129489   0.745   1.180   2.965  0.7212  0.4529 -1.6161
 2618TIP3    H229490   0.749   1.324   3.013 -1.3123 -0.7543  2.6607
 2619TIP3   OH229491   5.329   1.940   2.215 -0.3854 -0.3315 -0.2548
 2619TIP3    H129492   5.423   1.924   2.203  0.2218  2.0309  0.8084
 2619TIP3    H229493   5.304   1.883   2.288  0.5101 -0.0672  0.2701
 2620TIP3   OH229494   1.453   0.047   7.865  0.8747  0.0588 -0.2351
 2620TIP3    H129495   1.465  -0.014   7.938 -0.4096  0.0243 -0.0296
 2620TIP3    H229496   1.442  -0.010   7.788 -1.1637 -0.0519  0.0797
 2621TIP3   OH229497   2.651   4.741   1.295  1.0349  0.6472  0.4927
 2621TIP3    H129498   2.665   4.699   1.210  1.4142  0.5532  0.6018
 2621TIP3    H229499   2.707   4.819   1.292 -0.3122  1.6385 -0.0551
 2622TIP3   OH229500   1.058   4.459   8.876  0.2477  0.0095  0.3962
 2622TIP3    H129501   1.087   4.535   8.826 -0.1602  0.0150  0.1662
 2622TIP3    H229502   1.060   4.387   8.813 -1.7873  0.3186 -0.0659
 2623TIP3   OH229503   6.579   4.675   0.277 -0.3084  0.1886 -0.6264
 2623TIP3    H129504   6.647   4.739   0.255 -1.7510  2.4090  1.0008
 2623TIP3    H229505   6.511   4.690   0.211 -0.3719 -0.0992 -0.6240
 2624TIP3   OH229506   0.176   4.884   2.761  0.1271 -0.0300  0.1491
 2624TIP3    H129507   0.200   4.894   2.853  2.3382  2.2245 -0.5477
 2624TIP3    H229508   0.178   4.973   2.726 -0.6046 -0.8275 -2.1203
 2625TIP3   OH229509   4.954   1.174   2.988 -0.2793 -0.0976  0.6513
 2625TIP3    H129510   4.935   1.090   3.029  0.7366 -0.0341  1.2825
 2625TIP3    H229511   4.943   1.158   2.894 -1.9288 -0.4277  0.8714
 2626TIP3   OH229512   5.675   3.972   2.670 -0.6164  0.5827 -0.1035
 2626TIP3    H129513   5.636   4.055   2.645 -0.1039  1.1982  1.0373
 2626TIP3    H229514   5.654   3.963   2.763  0.4498  0.0835  0.1069
 2627TIP3   OH229515   1.338   0.793   8.730 -0.6286  0.0340 -0.3657
 2627TIP3    H129516   1.369   0.708   8.760  1.5326  1.1303  0.6857
 2627TIP3    H229517   1.328   0.783   8.635  0.7851 -1.0527 -0.4279
 2628TIP3   OH229518   5.264   6.008   7.014  0.8187  0.6867 -0.3439
 2628TIP3    H129519   5.266   5.917   6.985 -1.2434  0.6152 -0.3754
 2628TIP3    H229520   5.293   6.058   6.938  1.0467  0.1229 -0.6343
 2629TIP3   OH229521   3.529   5.290   3.098  0.1120 -0.3480  0.0152
 2629TIP3    H129522   3.500   5.381   3.092 -0.1112 -0.4243 -0.0759
 2629TIP3    H229523   3.619   5.295   3.130  1.2546  0.0448 -3.0183
 2630TIP3   OH229524   4.664   6.375   3.205 -0.4765  0.6096  0.1794
 2630TIP3    H129525   4.582   6.418   3.231 -0.7356  0.2654 -0.0626
 2630TIP3    H229526   4.731   6.441   3.221 -0.8100  0.9238  0.3085
 2631TIP3   OH229527   4.560   3.718   1.231  0.0571  0.1247 -0.7339
 2631TIP3    H129528   4.570   3.754   1.142 -0.0860  1.3022 -0.2882
 2631TIP3    H229529   4.498   3.646   1.220 -0.2060  0.4593 -1.5460
 2632TIP3   OH229530   1.809   2.887   8.702  0.4962 -0.1409 -0.2708
 2632TIP3    H129531   1.884   2.842   8.742 -0.7512 -0.0671  2.3460
 2632TIP3    H229532   1.736   2.826   8.713 -0.0918  0.2530 -1.7652
 2633TIP3   OH229533   4.252   1.690   2.534 -0.4693  0.2393 -0.0378
 2633TIP3    H129534   4.198   1.612   2.550 -0.9905  0.4727 -0.6053
 2633TIP3    H229535   4.342   1.659   2.542 -0.6704 -0.0293  1.5872
 2634TIP3   OH229536   4.585   4.761   8.265 -0.0659  0.5740  0.5784
 2634TIP3    H129537   4.549   4.734   8.349 -0.3975 -0.9739 -0.0284
 2634TIP3    H229538   4.567   4.688   8.206  0.5171  1.4523 -0.7480
 2635TIP3   OH229539   0.000   4.791   2.129 -0.3658  0.4999 -0.9509
 2635TIP3    H129540  -0.071   4.800   2.192 -2.5668 -0.2663 -3.1466
 2635TIP3    H229541   0.046   4.875   2.132 -2.7661  1.9098 -0.9855
 2636TIP3   OH229542   0.697   5.869   2.846  0.0558  0.8241  0.2134
 2636TIP3    H129543   0.627   5.918   2.803 -1.4665 -0.6213  0.9414
 2636TIP3    H229544   0.759   5.936   2.874 -0.9916  2.1475 -0.5211
 2637TIP3   OH229545   4.729   2.653   0.106  0.5626 -0.0863  0.4512
 2637TIP3    H129546   4.761   2.742   0.122  0.2280 -0.0637  1.0051
 2637TIP3    H229547   4.658   2.641   0.169 -0.2886 -0.2724 -0.5155
 2638TIP3   OH229548   5.608   1.381   0.790 -0.2836 -0.9118  0.0099
 2638TIP3    H129549   5.632   1.435   0.714  0.8610 -2.7348 -1.0209
 2638TIP3    H229550   5.603   1.292   0.755  0.2963 -1.8282  2.0846
 2639TIP3   OH229551   3.679   3.525   1.332 -0.7180 -0.1177  0.4678
 2639TIP3    H129552   3.608   3.461   1.335 -0.7776 -0.0470  3.8579
 2639TIP3    H229553   3.755   3.478   1.366  0.3573  0.4782 -0.9725
 2640TIP3   OH229554   6.648   1.592   2.669  0.2539 -0.4917  0.0632
 2640TIP3    H129555   6.585   1.610   2.739 -0.5689 -0.1853 -0.7494
 2640TIP3    H229556   6.733   1.616   2.707 -0.1677 -0.4198  0.9906
 2641TIP3   OH229557   5.403   4.475   2.518  0.2630 -0.1027 -0.1245
 2641TIP3    H129558   5.363   4.531   2.451  0.1829 -0.2396 -0.1910
 2641TIP3    H229559   5.376   4.514   2.601 -0.9357 -0.8308 -0.1481
 2642TIP3   OH229560   1.067   6.110   2.012 -0.4311  0.5969  0.1805
 2642TIP3    H129561   1.149   6.120   2.061 -0.2645  2.4137 -0.3915
 2642TIP3    H229562   1.029   6.028   2.044  1.8279 -0.5504  0.1216
 2643TIP3   OH229563   1.661   1.350   3.742  0.3160  0.6690 -0.1917
 2643TIP3    H129564   1.570   1.379   3.733  0.3896  0.7698 -0.6470
 2643TIP3    H229565   1.655   1.256   3.757  0.0712  0.8889  1.2760
 2644TIP3   OH229566   3.462   5.290   1.829  0.2909 -0.6621  0.4269
 2644TIP3    H129567   3.464   5.303   1.734 -0.7961  1.5140  0.6515
 2644TIP3    H229568   3.419   5.205   1.840 -3.0183  0.6395 -1.0242
 2645TIP3   OH229569   2.890   4.200   0.927  0.4178  0.0458  0.3664
 2645TIP3    H129570   2.978   4.237   0.930 -0.0912  1.2625  2.3383
 2645TIP3    H229571   2.890   4.132   0.994 -0.3413  0.6218  0.9734
 2646TIP3   OH229572   3.517   6.451   0.986 -0.3019  0.1864 -0.3532
 2646TIP3    H129573   3.519   6.544   1.007  0.6757  0.6689 -2.3795
 2646TIP3    H229574   3.424   6.429   0.982 -0.5431  1.1409 -0.1273
 2647TIP3   OH229575   4.799   0.939   3.037 -0.1837 -0.0001 -0.0639
 2647TIP3    H129576   4.811   0.865   3.096  1.3610  1.8071  2.0727
 2647TIP3    H229577   4.705   0.943   3.020 -0.7143 -0.5117  2.4665
 2648TIP3   OH229578   6.044   5.876   1.090  0.3804 -0.3931 -0.2932
 2648TIP3    H129579   6.101   5.952   1.097  1.7421 -1.3320 -0.8263
 2648TIP3    H229580   5.955   5.912   1.098  0.8947  1.4497 -2.1362
 2649TIP3   OH229581   3.585   1.463   1.087 -0.0280  0.0697  0.0971
 2649TIP3    H129582   3.531   1.534   1.121 -0.1513  0.9381 -1.7878
 2649TIP3    H229583   3.539   1.433   1.008  0.9576 -0.8850 -0.1472
 2650TIP3   OH229584   3.009   4.559   8.093  0.0111 -0.2497 -0.1843
 2650TIP3    H129585   3.020   4.556   7.998  0.8894  0.7311 -0.1330
 2650TIP3    H229586   3.096   4.539   8.128 -0.4515 -1.2786  0.4440
 2651TIP3   OH229587   4.939   4.609   1.289 -0.1340  0.1501  0.1363
 2651TIP3    H129588   4.953   4.647   1.375  2.0634 -1.7403  0.7220
 2651TIP3    H229589   5.008   4.646   1.234 -0.9053  0.5873 -0.5627
 2652TIP3   OH229590   1.135   2.807   0.977 -0.0255 -0.1311 -0.2128
 2652TIP3    H129591   1.176   2.869   0.917 -0.0229  1.3006  1.2064
 2652TIP3    H229592   1.050   2.846   0.998 -0.0385 -0.6196  0.6809
 2653TIP3   OH229593   5.704   1.825   1.862  0.2879 -0.0766 -0.2691
 2653TIP3    H129594   5.623   1.841   1.911 -0.0690 -1.1602 -0.4779
 2653TIP3    H229595   5.731   1.737   1.887  2.2921  0.8160  0.9841
 2654TIP3   OH229596   4.308   1.469   0.540 -0.4549  0.2423  0.1618
 2654TIP3    H129597   4.285   1.549   0.493 -0.3438  0.1514 -0.0448
 2654TIP3    H229598   4.258   1.400   0.496 -0.9499  0.2712  0.6607
 2655TIP3   OH229599   1.249   3.064   2.188  0.4521  0.0040  0.5447
 2655TIP3    H129600   1.275   3.151   2.159  2.2785 -0.3117  1.0574
 2655TIP3    H229601   1.293   3.004   2.126  2.2087 -0.5961  2.2554
 2656TIP3   OH229602   0.108   0.395   1.566  0.4669  0.3049  0.2231
 2656TIP3    H129603   0.059   0.466   1.524  1.3287  0.6101 -0.3125
 2656TIP3    H229604   0.066   0.383   1.650 -1.9623 -1.0106 -1.0770
 2657TIP3   OH229605   5.636   6.514   2.592  0.0607  0.3476  0.1746
 2657TIP3    H129606   5.593   6.492   2.675  0.4891 -0.8309  0.1112
 2657TIP3    H229607   5.708   6.451   2.585  0.1243  0.5213 -1.0195
 2658TIP3   OH229608   1.540   5.939   8.772  0.2050  0.5938 -0.1334
 2658TIP3    H129609   1.635   5.938   8.760  0.0752 -0.2473 -1.2799
 2658TIP3    H229610   1.506   5.982   8.693 -0.3681  0.8862  0.2633
 2659TIP3   OH229611   1.651   4.259   0.371 -0.5271  0.0462 -1.3462
 2659TIP3    H129612   1.652   4.176   0.324 -1.2715 -0.8628  0.1803
 2659TIP3    H229613   1.719   4.250   0.438 -1.0299  0.4281 -0.7739
 2660TIP3   OH229614   1.828   0.913   1.803 -0.5624 -0.2176 -0.1413
 2660TIP3    H129615   1.914   0.922   1.761 -0.5479  3.5650  0.3424
 2660TIP3    H229616   1.785   0.843   1.755  1.6545 -0.0956 -2.5020
 2661TIP3   OH229617   1.361   1.233   0.216  0.1677 -0.5732  0.2866
 2661TIP3    H129618   1.309   1.297   0.264  1.9198  1.7884 -0.8027
 2661TIP3    H229619   1.316   1.150   0.232 -0.6542  0.4039  4.0098
 2662TIP3   OH229620   6.599   4.624   8.817  0.0774  0.3812 -0.1367
 2662TIP3    H129621   6.563   4.665   8.896  1.8127  0.2247  0.7852
 2662TIP3    H229622   6.630   4.697   8.764 -0.2758  0.4445 -0.2561
 2663TIP3   OH229623   3.467   4.850   7.902  0.2534  0.2768  0.4331
 2663TIP3    H129624   3.524   4.814   7.834 -1.0154  1.2320 -1.2125
 2663TIP3    H229625   3.379   4.837   7.869 -0.3798  1.3447  1.6085
 2664TIP3   OH229626   4.363   3.640   8.080  0.5321 -0.3037 -0.0409
 2664TIP3    H129627   4.411   3.573   8.129  0.1030 -1.5857 -1.2899
 2664TIP3    H229628   4.427   3.674   8.017  0.2631 -0.8516 -0.6188
 2665TIP3   OH229629   5.311   5.357   0.632  0.0248 -0.9232 -0.4509
 2665TIP3    H129630   5.366   5.380   0.557  2.4019 -0.2781  1.3635
 2665TIP3    H229631   5.258   5.436   0.649  0.4768 -0.5793 -0.6293
 2666TIP3   OH229632   2.147   1.235   0.822 -0.0776 -0.4015 -0.3983
 2666TIP3    H129633   2.209   1.205   0.755 -0.8562 -0.5217 -1.0742
 2666TIP3    H229634   2.202   1.282   0.885  0.5477  0.5697 -1.6200
 2667TIP3   OH229635   6.567   0.604   8.805  0.8333  0.0428 -0.3125
 2667TIP3    H129636   6.600   0.688   8.836 -1.2457  0.5904  0.6593
 2667TIP3    H229637   6.559   0.614   8.710  2.0605  0.3576 -0.3965
 2668TIP3   OH229638   6.184   3.436   1.419  0.2505 -0.9122  0.2949
 2668TIP3    H129639   6.204   3.440   1.513  1.5804 -0.8168  0.0303
 2668TIP3    H229640   6.194   3.526   1.389  2.2147 -1.3208 -0.3706
 2669TIP3   OH229641   2.546   5.385   0.849  0.0029  0.2962  0.4255
 2669TIP3    H129642   2.494   5.315   0.811 -1.6448  1.8042 -0.2230
 2669TIP3    H229643   2.554   5.450   0.779  1.7348  0.6716  0.9106
 2670TIP3   OH229644   6.501   5.110   7.488  0.2053 -0.4499 -0.4488
 2670TIP3    H129645   6.428   5.165   7.515 -0.2398  0.0721 -2.5048
 2670TIP3    H229646   6.459   5.031   7.454  0.5702 -0.1429 -1.6514
 2671TIP3   OH229647   2.692   0.991   2.465 -0.2171  1.1113  0.1519
 2671TIP3    H129648   2.765   0.952   2.416 -0.6086  0.2554  0.2338
 2671TIP3    H229649   2.731   1.067   2.508  1.1123 -0.3807  1.7291
 2672TIP3   OH229650   5.150   2.488   3.244  0.1035 -0.3875  0.5605
 2672TIP3    H129651   5.140   2.393   3.239  0.8642 -0.5406  1.6381
 2672TIP3    H229652   5.180   2.513   3.157 -0.5295 -1.0758  0.1316
 2673TIP3   OH229653   1.373   1.208   8.895  0.2633 -0.7892 -0.1848
 2673TIP3    H129654   1.458   1.224   8.854  0.0363 -0.0747 -0.3920
 2673TIP3    H229655   1.388   1.226   8.988 -0.5040  3.2006 -0.6317
 2674TIP3   OH229656   6.546   0.361   0.504 -0.3392  0.1356  0.2576
 2674TIP3    H129657   6.619   0.374   0.565  0.9252  0.7512 -1.3025
 2674TIP3    H229658   6.476   0.323   0.557  1.2206 -0.7740  1.7511
 2675TIP3   OH229659   4.371   0.112   1.174  0.0683 -0.5358 -0.6723
 2675TIP3    H129660   4.396   0.140   1.262 -3.4743  0.1838  0.2646
 2675TIP3    H229661   4.348   0.193   1.129 -0.8182 -1.1176 -1.2927
 2676TIP3   OH229662   4.304   2.730   3.200 -0.0400  0.3641 -0.6141
 2676TIP3    H129663   4.227   2.742   3.255 -0.2184  1.4038 -1.0621
 2676TIP3    H229664   4.311   2.635   3.189  1.2832 -0.0891  2.9652
 2677TIP3   OH229665   1.620   3.029   0.311 -0.1568 -0.3077 -0.4862
 2677TIP3    H129666   1.698   2.985   0.278 -0.0499  0.5949 -1.5103
 2677TIP3    H229667   1.653   3.104   0.361 -0.3528  0.2018 -1.1024
 2678TIP3   OH229668   6.065   0.815   1.447  0.0348  0.2202  0.7016
 2678TIP3    H129669   5.973   0.791   1.436  0.0793 -1.0937  2.6097
 2678TIP3    H229670   6.113   0.753   1.391 -0.1688 -0.0103  0.7844
 2679TIP3   OH229671   0.008   5.192   0.355 -0.2344 -0.0360 -0.5651
 2679TIP3    H129672   0.047   5.115   0.395 -0.3255  0.5873  0.7755
 2679TIP3    H229673   0.063   5.211   0.279  0.6113 -0.6054 -0.1058
 2680TIP3   OH229674   2.167   2.149   8.295  0.2712 -0.0502 -0.5091
 2680TIP3    H129675   2.169   2.217   8.228  2.5495  0.9047  0.4071
 2680TIP3    H229676   2.078   2.115   8.293 -0.1237  0.9466 -2.9827
 2681TIP3   OH229677   6.429   6.180   8.153 -0.1987  0.4518 -0.0360
 2681TIP3    H129678   6.427   6.098   8.103  0.9000 -0.1454  0.8446
 2681TIP3    H229679   6.414   6.248   8.088 -1.9621 -0.4689 -0.6722
 2682TIP3   OH229680   5.961   4.417   8.337 -0.2019 -0.0643  0.4105
 2682TIP3    H129681   5.867   4.405   8.319  0.0109 -1.3770  0.0457
 2682TIP3    H229682   5.989   4.333   8.375  1.2909 -0.5232 -1.5647
 2683TIP3   OH229683   3.298   1.622   3.655 -0.3212  0.4933 -0.1145
 2683TIP3    H129684   3.337   1.708   3.641 -0.9269  0.6258 -1.1312
 2683TIP3    H229685   3.346   1.565   3.594 -0.4688  0.2841 -0.0335
 2684TIP3   OH229686   4.211   1.282   1.534  0.5589 -0.9217  0.4958
 2684TIP3    H129687   4.213   1.337   1.612  0.4551  1.3007 -0.9872
 2684TIP3    H229688   4.268   1.326   1.471 -1.4581 -1.0901 -1.6075
 2685TIP3   OH229689   1.647   1.715   0.069 -0.3205  0.0059 -0.3949
 2685TIP3    H129690   1.563   1.669   0.071 -0.6435  0.6061  0.7173
 2685TIP3    H229691   1.695   1.681   0.145  0.3435 -0.1179 -0.8540
 2686TIP3   OH229692   3.639   4.270   2.140  0.1582 -0.3004 -0.0436
 2686TIP3    H129693   3.658   4.289   2.048 -0.4423 -1.4284 -0.4171
 2686TIP3    H229694   3.706   4.317   2.189  1.8256 -1.4448 -1.1428
 2687TIP3   OH229695   6.002   2.440   2.315  0.0453  0.0753  0.4477
 2687TIP3    H129696   6.018   2.519   2.263 -1.4046 -0.7522 -1.4001
 2687TIP3    H229697   5.949   2.469   2.389 -0.1581  0.8947 -0.0089
 2688TIP3   OH229698   1.637   6.724   1.665 -0.6394  0.2904  0.1161
 2688TIP3    H129699   1.576   6.796   1.650 -1.7846 -0.0379  2.6471
 2688TIP3    H229700   1.698   6.757   1.731  0.9643  0.0423 -1.1799
 2689TIP3   OH229701   0.531   2.215   1.606 -0.3343 -0.2506 -1.0666
 2689TIP3    H129702   0.614   2.258   1.585  0.2518 -1.1436 -0.6211
 2689TIP3    H229703   0.521   2.227   1.700 -0.8312  0.0448 -1.1522
 2690TIP3   OH229704   3.473   0.769   2.755  0.3873 -0.1719 -0.0290
 2690TIP3    H129705   3.491   0.854   2.717  0.8378 -0.7364 -1.1114
 2690TIP3    H229706   3.394   0.782   2.807  0.4865  0.9106 -0.1406
 2691TIP3   OH229707   6.377   3.597   3.733 -0.4891 -0.4429 -0.1915
 2691TIP3    H129708   6.324   3.525   3.768  0.7183 -1.1681  0.1846
 2691TIP3    H229709   6.400   3.569   3.644  0.7228 -0.9461  0.2660
 2692TIP3   OH229710   3.308   5.870   1.937 -0.3070  0.4236  0.4670
 2692TIP3    H129711   3.395   5.883   1.974 -0.5152  0.1637  1.0618
 2692TIP3    H229712   3.268   5.957   1.938  0.6004  0.9040 -1.5419
 2693TIP3   OH229713   4.568   3.424   8.440  0.1579  0.2567  0.4073
 2693TIP3    H129714   4.588   3.401   8.530  1.5863  1.2228  0.3615
 2693TIP3    H229715   4.472   3.432   8.438 -0.0244 -1.3456  1.4246
 2694TIP3   OH229716   3.274   5.511   7.973 -0.1036 -0.0129  0.5039
 2694TIP3    H129717   3.324   5.585   8.008  0.2769 -0.0602  0.0607
 2694TIP3    H229718   3.222   5.548   7.902 -1.9764  0.3884  2.0018
 2695TIP3   OH229719   6.713   4.454   0.373  0.2199 -0.4821 -0.2285
 2695TIP3    H129720   6.663   4.517   0.321  1.0664  2.0561  1.8674
 2695TIP3    H229721   6.797   4.446   0.327  0.7440  1.2797  0.3571
 2696TIP3   OH229722   1.401   2.971   1.956  0.2439 -0.1029  0.3611
 2696TIP3    H129723   1.345   2.984   1.880  0.1718  1.4755  0.6640
 2696TIP3    H229724   1.457   2.897   1.931  0.9326  1.0248 -1.6623
 2697TIP3   OH229725   5.151   5.787   1.946 -0.0795  0.5666  0.0762
 2697TIP3    H129726   5.174   5.730   2.020 -2.6085  1.8677  2.0348
 2697TIP3    H229727   5.220   5.853   1.944 -0.1264  0.7046  1.5686
 2698TIP3   OH229728   3.108   0.704   8.592 -0.0546 -1.3123  0.6738
 2698TIP3    H129729   3.188   0.751   8.614  1.0395 -2.2494 -1.0635
 2698TIP3    H229730   3.071   0.753   8.518  0.6639 -2.6063 -0.6115
 2699TIP3   OH229731   5.590   4.080   7.954 -0.4417 -0.3361 -0.1962
 2699TIP3    H129732   5.625   4.098   7.866  1.6603 -1.5389  0.3381
 2699TIP3    H229733   5.584   3.984   7.958 -1.4826 -0.2516  0.6387
 2700TIP3   OH229734   3.490   6.695   1.515 -0.0413  0.6811  0.5880
 2700TIP3    H129735   3.547   6.759   1.558  0.1457  0.7842  0.1931
 2700TIP3    H229736   3.488   6.723   1.424  0.3191 -0.0840  0.3452
 2701TIP3   OH229737   5.503   1.990   7.923  0.4958  0.2407  0.3186
 2701TIP3    H129738   5.540   1.930   7.988 -0.3855 -1.3604 -0.5846
 2701TIP3    H229739   5.539   1.960   7.840 -1.2071 -0.1072 -0.3432
 2702TIP3   OH229740   2.989   4.273   0.138  0.2389  0.4873 -0.2777
 2702TIP3    H129741   2.983   4.335   0.210 -0.6670 -0.5608  0.5766
 2702TIP3    H229742   2.981   4.187   0.179 -0.2575 -0.1338 -1.6221
 2703TIP3   OH229743   5.141   6.128   3.152 -0.1829  0.1403 -0.6352
 2703TIP3    H129744   5.103   6.211   3.180 -0.7920 -0.9585  2.2139
 2703TIP3    H229745   5.218   6.152   3.100 -1.0311  2.4300 -0.9543
 2704TIP3   OH229746   3.652   3.166   8.070  0.5299 -0.0472  0.1803
 2704TIP3    H129747   3.598   3.236   8.032 -0.4180 -0.3323  0.9583
 2704TIP3    H229748   3.608   3.085   8.045 -0.2006 -0.2435  1.9243
 2705TIP3   OH229749   4.384   2.805   0.030  0.3704 -0.3642  0.2457
 2705TIP3    H129750   4.350   2.728   0.076  0.5152  0.4620  1.8267
 2705TIP3    H229751   4.470   2.820   0.070  1.7248 -1.1177 -2.1494
 2706TIP3   OH229752   3.565   4.319   8.224  0.1083  0.3835 -0.0757
 2706TIP3    H129753   3.562   4.377   8.148  0.0563 -0.4126 -0.6952
 2706TIP3    H229754   3.473   4.303   8.246 -0.0222 -1.9087 -1.8537
 2707TIP3   OH229755   6.677   1.843   8.571  0.5075 -0.1457  0.4201
 2707TIP3    H129756   6.651   1.796   8.651  0.1228 -1.2065 -0.3116
 2707TIP3    H229757   6.595   1.880   8.539  0.8769  1.4488  1.2308
 2708TIP3   OH229758   4.399   3.116   8.625  0.4102  0.3310  0.2042
 2708TIP3    H129759   4.437   3.171   8.694  0.1996  1.8188 -0.8344
 2708TIP3    H229760   4.346   3.052   8.672  1.2656  0.5204  1.4862
 2709TIP3   OH229761   5.585   2.257   0.252 -0.0417 -0.4885  0.1478
 2709TIP3    H129762   5.593   2.199   0.328 -1.2006 -1.1722 -0.2391
 2709TIP3    H229763   5.551   2.202   0.182  0.6966  0.2112 -0.8003
 2710TIP3   OH229764   0.521   5.019   8.264  0.2163  0.3260  0.0326
 2710TIP3    H129765   0.441   5.035   8.214  1.9014  0.4124 -2.9147
 2710TIP3    H229766   0.570   5.101   8.259  2.0205 -0.7367 -1.4935
 2711TIP3   OH229767   4.721   4.999   8.512  0.7049 -0.4947 -0.1151
 2711TIP3    H129768   4.748   4.988   8.604  1.7362 -0.7052 -0.4236
 2711TIP3    H229769   4.682   4.915   8.488  1.3096 -0.7758 -0.1393
 2712TIP3   OH229770   4.602   6.689   0.180 -0.4561  0.5226 -0.5507
 2712TIP3    H129771   4.511   6.669   0.204 -0.3917 -0.2803 -0.9431
 2712TIP3    H229772   4.653   6.658   0.255 -0.4705  0.5184 -0.5426
 2713TIP3   OH229773   0.933   5.469   0.655 -0.0007  0.1146 -0.1654
 2713TIP3    H129774   0.849   5.425   0.640  1.3870 -2.7520 -0.1300
 2713TIP3    H229775   0.965   5.432   0.738  2.1067 -0.2468 -1.0853
 2714TIP3   OH229776   4.157   0.441   8.101  0.5068  0.4909 -0.0966
 2714TIP3    H129777   4.068   0.447   8.134  0.7237  1.3035  0.3513
 2714TIP3    H229778   4.180   0.349   8.112 -0.2465  0.2899 -0.1524
 2715TIP3   OH229779   5.774   1.028   2.805  0.1192  0.1100  0.2609
 2715TIP3    H129780   5.752   1.116   2.836 -0.8177 -0.2499  0.6295
 2715TIP3    H229781   5.849   1.001   2.859 -0.7256 -0.0281  1.3903
 2716TIP3   OH229782   1.745   5.938   8.457  0.0653  0.2966  0.5071
 2716TIP3    H129783   1.767   5.930   8.550  1.8090 -1.5403  0.0183
 2716TIP3    H229784   1.806   6.004   8.424 -0.4221  0.8072  0.6179
 2717TIP3   OH229785   5.496   2.253   1.016 -0.3899 -0.1287  0.2930
 2717TIP3    H129786   5.507   2.158   1.006  0.3566 -0.3446  2.6126
 2717TIP3    H229787   5.584   2.285   1.034 -0.8998  0.7164  1.4204
 2718TIP3   OH229788   2.759   3.884   8.388  0.0023  0.0204  1.0655
 2718TIP3    H129789   2.681   3.868   8.336  1.3543 -2.2401 -0.4440
 2718TIP3    H229790   2.768   3.805   8.442 -0.0402  1.2922  3.0547
 2719TIP3   OH229791   2.035   1.348   8.061 -0.3835  0.0705 -0.7773
 2719TIP3    H129792   1.951   1.340   8.015 -0.9184 -0.9251  0.3306
 2719TIP3    H229793   2.101   1.342   7.991 -1.2020  0.3928 -1.6054
 2720TIP3   OH229794   6.784   4.050   7.101 -0.0145 -0.0741  0.3417
 2720TIP3    H129795   6.794   4.013   7.189 -0.6122 -0.3873  0.2829
 2720TIP3    H229796   6.697   4.021   7.073  0.3372 -0.3084 -0.5146
 2721TIP3   OH229797   4.133   3.583   7.887 -0.4713 -0.1801  0.1162
 2721TIP3    H129798   4.182   3.629   7.956 -1.7757  3.1964 -1.0059
 2721TIP3    H229799   4.046   3.570   7.924 -1.4442  2.4193 -0.9949
 2722TIP3   OH229800   3.412   4.375   0.745 -0.0085 -0.5995 -0.3723
 2722TIP3    H129801   3.507   4.378   0.731  0.8389 -4.1369  2.8448
 2722TIP3    H229802   3.398   4.419   0.828 -1.2727  0.0553 -0.9056
 2723TIP3   OH229803   1.797   3.780   1.627 -0.1228 -0.0542  0.2306
 2723TIP3    H129804   1.877   3.801   1.580  0.0385  1.9381  1.2549
 2723TIP3    H229805   1.792   3.846   1.697 -2.0764 -0.7967  0.8811
 2724TIP3   OH229806   5.063   5.312   8.721 -0.3056  0.2256  0.5947
 2724TIP3    H129807   5.050   5.368   8.798  0.0856 -1.3946  1.9145
 2724TIP3    H229808   5.158   5.301   8.715 -0.4211 -1.7728  1.5530
 2725TIP3   OH229809   1.078   1.318   0.066  0.5266 -0.4771 -0.2324
 2725TIP3    H129810   1.170   1.305   0.086  0.0065 -1.8730  1.5338
 2725TIP3    H229811   1.064   1.269  -0.015  1.3806 -0.0377 -0.6504
 2726TIP3   OH229812   3.899   0.223   1.535 -0.2235  0.0309 -0.1716
 2726TIP3    H129813   3.942   0.175   1.464 -1.9889 -2.7899  0.4964
 2726TIP3    H229814   3.817   0.175   1.550 -1.5189  2.5505  1.5254
 2727TIP3   OH229815   6.582   4.451   8.276 -0.1210  0.1200  0.1498
 2727TIP3    H129816   6.661   4.434   8.225 -1.4601  1.3322 -2.5662
 2727TIP3    H229817   6.519   4.385   8.244 -0.6251  0.0378  1.2763
 2728TIP3   OH229818   3.066   4.049   0.718  0.3034  0.3815  0.3045
 2728TIP3    H129819   2.993   4.111   0.720 -0.1423  0.0755 -2.5110
 2728TIP3    H229820   3.053   3.994   0.795 -0.8366  2.0586  1.3775
 2729TIP3   OH229821   2.944   4.380   1.501  0.1925  0.0647 -0.2537
 2729TIP3    H129822   3.010   4.311   1.508  0.5551  0.4008 -0.3185
 2729TIP3    H229823   2.934   4.414   1.589 -0.3916 -0.4340 -0.1167
 2730TIP3   OH229824   2.756   1.080   3.733 -0.0750  0.5449 -0.1457
 2730TIP3    H129825   2.662   1.092   3.718 -0.4071 -0.3399  1.0682
 2730TIP3    H229826   2.776   0.995   3.694 -0.4089 -0.5798  2.0124
 2731TIP3   OH229827   6.688   2.852   8.652 -0.3475 -0.3195 -0.1777
 2731TIP3    H129828   6.653   2.765   8.669 -0.5695 -0.4382 -1.1553
 2731TIP3    H229829   6.653   2.876   8.566  1.8199 -0.3797 -1.1574
 2732TIP3   OH229830   1.851   2.275   1.520  0.6016 -0.4162  0.2519
 2732TIP3    H129831   1.906   2.204   1.487  0.5809 -1.9100  3.0479
 2732TIP3    H229832   1.776   2.230   1.559  0.1763  1.1907  1.3892
 2733TIP3   OH229833   2.166   3.119   2.594 -0.6358 -0.5787  0.0388
 2733TIP3    H129834   2.248   3.080   2.563 -0.9229 -2.2896  1.2844
 2733TIP3    H229835   2.190   3.170   2.671 -0.6237 -0.3004 -0.1456
 2734TIP3   OH229836   3.190   0.530   1.443  0.0543  0.5362  0.2109
 2734TIP3    H129837   3.224   0.450   1.484 -0.7062 -0.4746 -1.0443
 2734TIP3    H229838   3.269   0.580   1.421  0.6875 -0.8201 -0.7881
 2735TIP3   OH229839   3.606   5.797   8.496 -0.1351 -0.3433 -0.2372
 2735TIP3    H129840   3.665   5.728   8.467 -0.0850  0.4155 -2.1219
 2735TIP3    H229841   3.519   5.766   8.473 -0.2434 -0.3788  0.2118
 2736TIP3   OH229842   2.133   0.623   8.284  0.1740  0.5289 -0.4616
 2736TIP3    H129843   2.181   0.685   8.229 -0.4291  0.2373 -1.3331
 2736TIP3    H229844   2.198   0.558   8.309  0.3279  0.3469 -1.3119
 2737TIP3   OH229845   3.127   3.723   0.094  1.2224 -0.0992 -0.3924
 2737TIP3    H129846   3.080   3.644   0.067 -2.2195  1.5643  0.2196
 2737TIP3    H229847   3.107   3.732   0.187  2.3934  1.0109 -0.2107
 2738TIP3   OH229848   6.590   0.635   1.241  0.1312 -0.2783 -0.4398
 2738TIP3    H129849   6.498   0.661   1.245 -0.1551 -1.2122 -0.8479
 2738TIP3    H229850   6.620   0.639   1.331 -0.6091 -1.0392 -0.1545
 2739TIP3   OH229851   1.908   1.978   1.948 -0.2904 -0.5182 -0.1852
 2739TIP3    H129852   1.830   1.976   1.893  0.6570 -0.6336 -1.5896
 2739TIP3    H229853   1.889   2.046   2.013 -0.5600  1.3914 -2.1187
 2740TIP3   OH229854   2.124   1.868   1.845 -0.3957  0.0073  0.4159
 2740TIP3    H129855   2.095   1.789   1.797 -1.1649 -1.1344  2.6312
 2740TIP3    H229856   2.042   1.909   1.874  0.0645 -0.0646  1.8476
 2741TIP3   OH229857   1.450   5.212   8.248  0.3648  0.5378 -0.3428
 2741TIP3    H129858   1.414   5.253   8.170  0.1868  0.7421 -0.1524
 2741TIP3    H229859   1.414   5.123   8.247  0.3991  0.5273 -0.5173
 2742TIP3   OH229860   4.458   4.456   7.519 -0.3745 -0.6304  0.2157
 2742TIP3    H129861   4.472   4.549   7.534 -0.5332 -0.5997  0.1757
 2742TIP3    H229862   4.527   4.413   7.571 -0.5882 -0.5089  0.6090
 2743TIP3   OH229863   5.496   3.570   0.679 -0.0095 -0.2594 -0.1865
 2743TIP3    H129864   5.402   3.574   0.694  0.0824 -2.3114  1.4594
 2743TIP3    H229865   5.533   3.636   0.738 -0.3349 -0.9803  0.8688
 2744TIP3   OH229866   6.561   1.171   1.632 -0.5593  0.4052  0.1665
 2744TIP3    H129867   6.555   1.137   1.543  0.3884  1.8859 -0.4988
 2744TIP3    H229868   6.654   1.186   1.647 -0.9228  3.5399  0.0177
 2745TIP3   OH229869   3.080   5.840   0.472 -0.3279  0.3674 -0.1409
 2745TIP3    H129870   3.043   5.782   0.405 -0.0648  0.0624 -0.0273
 2745TIP3    H229871   3.144   5.893   0.425  0.1506 -0.1250 -0.0667
 2746TIP3   OH229872   0.008   5.281   1.520 -0.3088  0.2509 -0.2009
 2746TIP3    H129873  -0.031   5.196   1.501 -1.4639  0.4550  1.1083
 2746TIP3    H229874   0.079   5.289   1.456 -1.2268 -0.9461 -1.4425
 2747TIP3   OH229875   1.331   1.070   2.069  0.0765  0.1312  0.1834
 2747TIP3    H129876   1.307   1.110   2.152 -1.4692 -1.2636  0.4641
 2747TIP3    H229877   1.378   0.990   2.093  2.4253  1.2538 -0.3633
 2748TIP3   OH229878   1.732   3.765   7.915 -0.1873  0.2512  0.2566
 2748TIP3    H129879   1.646   3.782   7.877  0.5771 -0.0770 -1.7383
 2748TIP3    H229880   1.729   3.672   7.939 -0.2855  0.1425 -0.1547
 2749TIP3   OH229881   6.652   2.224   8.776 -0.0611 -0.3104 -0.0238
 2749TIP3    H129882   6.587   2.235   8.707 -0.4111 -0.3625  0.2946
 2749TIP3    H229883   6.648   2.305   8.826 -0.6585 -0.7508  0.6523
 2750TIP3   OH229884   1.180   0.519   2.624  0.7129 -0.7498 -0.0050
 2750TIP3    H129885   1.092   0.558   2.627  1.1404  0.1711  2.0678
 2750TIP3    H229886   1.171   0.437   2.673  0.3612 -2.3008 -2.4325
 2751TIP3   OH229887   0.255   5.904   0.385 -0.1794  0.5004  0.2896
 2751TIP3    H129888   0.289   5.889   0.473  0.9323 -3.3216 -0.5963
 2751TIP3    H229889   0.332   5.911   0.330 -0.8024 -0.6233 -0.7774
 2752TIP3   OH229890   3.176   5.488   3.192 -0.2333 -0.3320 -0.6175
 2752TIP3    H129891   3.236   5.494   3.117 -0.4855  2.8942 -0.7250
 2752TIP3    H229892   3.173   5.578   3.226 -0.0692 -1.6711  3.3470
 2753TIP3   OH229893   0.682   1.554   8.011 -0.1442 -0.1332  0.1603
 2753TIP3    H129894   0.772   1.531   8.035 -0.0557 -0.9165 -0.8118
 2753TIP3    H229895   0.652   1.479   7.958 -0.2683  1.4826 -2.1967
 2754TIP3   OH229896   4.843   1.833   7.262  0.6255 -0.1816 -0.5228
 2754TIP3    H129897   4.876   1.851   7.350 -1.9810 -0.6641  0.6644
 2754TIP3    H229898   4.844   1.738   7.255 -2.9117 -0.4642  0.7363
 2755TIP3   OH229899   5.308   4.026   0.891  0.2106  0.5531 -0.1404
 2755TIP3    H129900   5.263   4.027   0.807  0.4295 -0.8257 -0.3063
 2755TIP3    H229901   5.327   3.933   0.906  1.3164  0.9159  0.8147
 2756TIP3   OH229902   3.756   6.768   7.847  0.6289  0.3631  0.2575
 2756TIP3    H129903   3.726   6.723   7.768  0.4608 -1.5126  1.3400
 2756TIP3    H229904   3.767   6.859   7.819  0.3286 -0.1820 -1.8545
 2757TIP3   OH229905   2.525   0.829   3.559  0.1352  0.5258 -0.0645
 2757TIP3    H129906   2.617   0.814   3.583 -0.0570  1.3272  1.2436
 2757TIP3    H229907   2.505   0.916   3.594 -1.3637  0.0312  0.3564
 2758TIP3   OH229908   5.930   5.523   2.344  0.7127  0.1283 -0.0717
 2758TIP3    H129909   5.864   5.556   2.405  1.2154 -2.8357  2.3063
 2758TIP3    H229910   5.891   5.442   2.308  3.0940 -2.0226  1.8459
 2759TIP3   OH229911   3.478   2.734   0.654 -0.9426 -0.6634 -0.5636
 2759TIP3    H129912   3.495   2.640   0.660  0.3894 -0.6082 -2.4948
 2759TIP3    H229913   3.409   2.751   0.719 -2.3766 -3.2533 -1.2834
 2760TIP3   OH229914   2.716   0.108   2.423  0.6929 -0.0150 -0.2327
 2760TIP3    H129915   2.734   0.018   2.395 -1.6875 -0.7295  0.3197
 2760TIP3    H229916   2.623   0.121   2.404  1.1367  2.6482 -1.0710
 2761TIP3   OH229917   2.627   5.427   2.098  0.3668 -0.1523 -0.0412
 2761TIP3    H129918   2.616   5.520   2.079 -1.9860 -0.1961  0.8610
 2761TIP3    H229919   2.539   5.391   2.098  1.0710 -2.0428  1.3367
 2762TIP3   OH229920   2.379   0.812   1.671 -0.0144  0.1721  0.5616
 2762TIP3    H129921   2.311   0.754   1.705 -0.0604  1.9187  3.8479
 2762TIP3    H229922   2.459   0.760   1.674 -0.4088 -0.4154  1.3465
 2763TIP3   OH229923   3.093   4.668   1.989 -0.0514  0.1764 -0.2947
 2763TIP3    H129924   3.171   4.679   2.044  0.5260 -0.7216 -0.9028
 2763TIP3    H229925   3.115   4.712   1.907 -0.2900  0.1576 -0.3711
 2764TIP3   OH229926   5.225   0.189   1.392 -0.3992  0.2078  0.6410
 2764TIP3    H129927   5.204   0.243   1.468 -0.7868  1.6432 -0.4484
 2764TIP3    H229928   5.314   0.216   1.367 -1.1579  1.5214 -0.8261
 2765TIP3   OH229929   1.294   3.261   1.468  0.3384 -0.6797  0.1370
 2765TIP3    H129930   1.293   3.246   1.374  0.4875  0.6007 -0.0945
 2765TIP3    H229931   1.228   3.328   1.483  0.5267 -0.6471  0.9033
 2766TIP3   OH229932   3.879   5.428   8.460  0.2330  0.0794 -0.3316
 2766TIP3    H129933   3.962   5.406   8.416  2.1024  1.0090  2.4258
 2766TIP3    H229934   3.873   5.523   8.455 -0.1195  0.1027  0.3234
 2767TIP3   OH229935   4.512   3.846   0.922 -0.0466 -0.1378 -0.1093
 2767TIP3    H129936   4.551   3.909   0.982  0.3246  1.7811 -2.2596
 2767TIP3    H229937   4.437   3.891   0.884 -0.7238 -1.5715 -0.5639
 2768TIP3   OH229938   0.541   2.400   2.606  0.1059 -0.2191 -0.4291
 2768TIP3    H129939   0.493   2.471   2.650  0.1572 -0.2827 -0.2720
 2768TIP3    H229940   0.579   2.349   2.677 -0.1408 -0.5518 -0.5338
 2769TIP3   OH229941   2.072   5.519   0.249 -0.1930 -0.2607 -0.5246
 2769TIP3    H129942   2.033   5.520   0.162  0.9919  0.0098 -1.0827
 2769TIP3    H229943   2.000   5.499   0.309 -0.7800 -1.7741 -1.6898
 2770TIP3   OH229944   0.143   2.373   3.323 -0.4072  0.3923  0.0221
 2770TIP3    H129945   0.178   2.453   3.363 -2.7209  2.0864 -1.1145
 2770TIP3    H229946   0.050   2.391   3.311 -0.3854 -1.0542 -3.5395
 2771TIP3   OH229947   2.485   5.415   8.613  0.9494 -0.9788 -0.0450
 2771TIP3    H129948   2.459   5.390   8.524 -0.2582 -0.4031  0.1400
 2771TIP3    H229949   2.578   5.438   8.604  0.8652 -0.9894 -1.1433
 2772TIP3   OH229950   3.586   3.931   2.405  0.2030  0.1460  0.5455
 2772TIP3    H129951   3.644   3.964   2.473 -0.1669  1.4456  0.2576
 2772TIP3    H229952   3.575   3.838   2.426  1.3633  0.1638  1.3195
 2773TIP3   OH229953   5.990   4.310   2.608  0.4145 -0.2401 -0.0582
 2773TIP3    H129954   6.036   4.301   2.524 -1.5141 -0.0364 -1.1830
 2773TIP3    H229955   5.961   4.401   2.610 -1.4785 -0.8043 -0.2509
 2774TIP3   OH229956   3.228   0.649   3.279  0.4375  0.9895 -0.3850
 2774TIP3    H129957   3.160   0.590   3.246  0.2326  1.0076  0.0039
 2774TIP3    H229958   3.180   0.725   3.311  0.5193  0.4324  1.1411
 2775TIP3   OH229959   5.521   6.528   2.328  0.3180 -0.6619  0.0257
 2775TIP3    H129960   5.533   6.525   2.423 -0.3572 -1.1636  0.1015
 2775TIP3    H229961   5.426   6.532   2.316  0.3476  4.3098 -0.5051
 2776TIP3   OH229962   5.274   5.852   7.404 -0.1096  0.3153 -0.7846
 2776TIP3    H129963   5.296   5.940   7.372  1.0782  0.3234 -0.0107
 2776TIP3    H229964   5.190   5.863   7.449  0.4918  1.2937  0.1606
 2777TIP3   OH229965   5.111   5.950   2.244 -0.3499  0.0139  0.5474
 2777TIP3    H129966   5.100   5.996   2.161 -0.9938  0.2670  0.7675
 2777TIP3    H229967   5.147   6.015   2.304  1.4822 -0.5447  0.1027
 2778TIP3   OH229968   6.141   4.026   8.335 -0.1317 -0.1110 -0.1621
 2778TIP3    H129969   6.198   4.052   8.408 -1.6130  0.4057  0.8440
 2778TIP3    H229970   6.171   3.938   8.312 -0.3412 -0.7571  1.8363
 2779TIP3   OH229971   0.796   1.427   2.206  0.3313 -0.3616 -0.5415
 2779TIP3    H129972   0.741   1.395   2.277  0.8356 -3.1844 -1.3099
 2779TIP3    H229973   0.884   1.397   2.228  0.6705 -0.3905 -1.8107
 2780TIP3   OH229974   5.095   6.469   1.052  0.1190  0.0489 -0.1463
 2780TIP3    H129975   5.122   6.405   0.986  0.9227 -1.1692  1.2935
 2780TIP3    H229976   5.172   6.480   1.108 -0.9386 -0.0750  1.4260
 2781TIP3   OH229977   1.465   5.863   0.948  0.2477  0.2717  0.3929
 2781TIP3    H129978   1.370   5.865   0.958  0.3086  1.6455  0.8469
 2781TIP3    H229979   1.498   5.825   1.030  0.0691 -1.0351 -0.1157
 2782TIP3   OH229980   5.565   4.155   0.120 -0.3070 -0.1592 -0.0758
 2782TIP3    H129981   5.596   4.199   0.041  1.2582  0.5094  0.8550
 2782TIP3    H229982   5.514   4.081   0.088  1.3707 -0.6763 -1.7432
 2783TIP3   OH229983   2.220   1.313   8.547  0.1665  0.5647  0.3741
 2783TIP3    H129984   2.184   1.364   8.475 -0.8725  1.1091  1.2539
 2783TIP3    H229985   2.282   1.372   8.590 -0.0913  0.6490  0.6314
 2784TIP3   OH229986   1.270   1.091   8.428 -0.3072 -0.1463  0.5860
 2784TIP3    H129987   1.292   1.020   8.368  0.0707 -0.4006  1.0148
 2784TIP3    H229988   1.331   1.080   8.501 -0.4907  0.4005  0.8266
 2785TIP3   OH229989   3.437   6.715   2.743  0.3841  0.3852 -0.4022
 2785TIP3    H129990   3.369   6.649   2.733 -0.8808  1.0749  2.6165
 2785TIP3    H229991   3.507   6.671   2.791  0.7435  0.5061 -0.8101
 2786TIP3   OH229992   0.518   0.667   7.659 -0.3537  0.0429  0.2416
 2786TIP3    H129993   0.493   0.734   7.723 -0.4634  1.0478 -0.8327
 2786TIP3    H229994   0.567   0.602   7.711 -4.8907 -2.0500  2.5250
 2787TIP3   OH229995   5.654   0.155   0.597  0.0817 -0.6998  0.0426
 2787TIP3    H129996   5.584   0.173   0.660  0.4135 -2.9071  1.1486
 2787TIP3    H229997   5.717   0.226   0.610 -0.8734  0.0588  0.6735
 2788TIP3   OH229998   0.441   6.361   8.943  0.0232  0.3226  0.6982
 2788TIP3    H129999   0.382   6.341   9.016 -3.0388  0.9470 -1.4106
 2788TIP3    H230000   0.429   6.454   8.926  2.4978  0.7366  0.7961
 2789TIP3   OH230001   0.693   0.511   0.094  0.3348  0.5390 -0.1984
 2789TIP3    H130002   0.766   0.460   0.129  0.2508  1.3348  1.1765
 2789TIP3    H230003   0.711   0.517   0.000  1.0612 -0.8352 -0.1765
 2790TIP3   OH230004   0.443   1.147   1.830 -0.0582 -0.2191 -0.0025
 2790TIP3    H130005   0.448   1.067   1.881 -1.4006 -1.1799 -1.3079
 2790TIP3    H230006   0.490   1.212   1.882 -0.6053 -1.3684  2.0041
 2791TIP3   OH230007   6.353   6.626   8.871  0.2995  1.4373  0.1439
 2791TIP3    H130008   6.303   6.563   8.924  0.0819  1.0412 -0.5180
 2791TIP3    H230009   6.356   6.586   8.784  3.0794  0.7114  0.4890
 2792TIP3   OH230010   0.670   3.006   1.930  0.1411  0.0462 -0.0786
 2792TIP3    H130011   0.727   2.946   1.978 -1.5118  0.6268  2.8374
 2792TIP3    H230012   0.644   2.956   1.852  1.5547 -1.6517  0.4605
 2793TIP3   OH230013   6.280   2.523   0.135  0.0406  0.0220 -0.0578
 2793TIP3    H130014   6.250   2.574   0.210  0.5312 -1.6368  1.3385
 2793TIP3    H230015   6.375   2.522   0.143  0.0447 -0.9806 -0.1130
 2794TIP3   OH230016   6.624   1.046   2.656  0.4855  0.0096 -0.0456
 2794TIP3    H130017   6.617   1.052   2.561 -0.3788 -0.8111 -0.0483
 2794TIP3    H230018   6.715   1.022   2.672  0.5272 -0.2756 -0.6928
 2795TIP3   OH230019   6.102   4.559   1.503  0.7932  0.4291 -1.1650
 2795TIP3    H130020   6.058   4.505   1.568  2.4474  0.3045 -0.1105
 2795TIP3    H230021   6.033   4.617   1.469  0.0721  1.2242  1.4573
 2796TIP3   OH230022   2.005   3.268   2.344 -0.3352 -0.1896 -0.6905
 2796TIP3    H130023   2.035   3.189   2.299 -0.2431  0.2518 -1.4126
 2796TIP3    H230024   1.930   3.238   2.395  1.2202 -1.2802  1.0767
 2797TIP3   OH230025   4.508   0.483   8.654  0.4951 -0.3303  0.3763
 2797TIP3    H130026   4.481   0.548   8.720  3.0030  1.0247  0.1881
 2797TIP3    H230027   4.468   0.515   8.573 -0.4482 -0.5394  0.7396
 2798TIP3   OH230028   0.587   3.016   0.613 -0.0815 -0.0795 -0.2306
 2798TIP3    H130029   0.629   3.027   0.698 -1.1855  1.8323  0.1261
 2798TIP3    H230030   0.657   2.983   0.556  0.8152 -0.8550  1.2561
 2799TIP3   OH230031   4.350   1.877   8.837 -0.0596 -0.4744 -0.3458
 2799TIP3    H130032   4.288   1.932   8.789  1.7297  1.0064 -1.0961
 2799TIP3    H230033   4.336   1.901   8.929 -1.0858 -0.7300 -0.4171
 2800TIP3   OH230034   6.772   0.635   1.448  0.1155  0.5783  0.3527
 2800TIP3    H130035   6.835   0.684   1.395 -1.5105  0.3859 -1.8921
 2800TIP3    H230036   6.762   0.687   1.528  1.3827  1.8060 -0.2440
 2801TIP3   OH230037   4.990   1.095   0.853 -0.1183 -0.2636 -0.5396
 2801TIP3    H130038   5.005   1.091   0.758  1.6570 -0.4909 -0.2890
 2801TIP3    H230039   5.004   1.187   0.875  0.8517 -0.4432 -0.3320
 2802TIP3   OH230040   1.133   2.209   0.385 -0.1022  0.2428  0.1637
 2802TIP3    H130041   1.200   2.248   0.442 -1.1841  1.6274  0.5516
 2802TIP3    H230042   1.075   2.282   0.362 -0.9728 -0.7363 -0.8983
 2803TIP3   OH230043   3.146   4.548   1.335  0.0136  0.3365 -0.0549
 2803TIP3    H130044   3.197   4.493   1.276 -0.4876  1.6391 -1.7811
 2803TIP3    H230045   3.089   4.487   1.382 -1.1959 -0.5921 -2.5745
 2804TIP3   OH230046   2.706   3.344   0.088  0.1109 -0.1565  0.0124
 2804TIP3    H130047   2.723   3.335  -0.006 -2.7407  1.3246 -0.7667
 2804TIP3    H230048   2.622   3.391   0.092 -0.2524 -0.8945  3.3050
 2805TIP3   OH230049   4.194   0.638   8.955  0.6291  0.4335  0.7572
 2805TIP3    H130050   4.200   0.714   9.012 -0.6561  0.6049  0.6920
 2805TIP3    H230051   4.127   0.583   8.994  0.6804 -0.0888  0.1389
 2806TIP3   OH230052   6.531   1.743   8.952  0.3236  0.1590 -0.5199
 2806TIP3    H130053   6.529   1.685   8.875 -1.1510 -0.0624 -0.3337
 2806TIP3    H230054   6.454   1.798   8.943  2.3035  3.0506 -1.3391
 2807TIP3   OH230055   4.381   6.448   2.474 -0.5909 -0.4966  0.3572
 2807TIP3    H130056   4.310   6.486   2.423 -0.3743 -2.1664 -1.3184
 2807TIP3    H230057   4.338   6.386   2.532 -0.6052 -0.9067 -0.0783
 2808TIP3   OH230058   1.810   2.877   8.254  0.1121 -0.6479  0.9338
 2808TIP3    H130059   1.720   2.902   8.276  0.7350  2.4967  0.3357
 2808TIP3    H230060   1.840   2.827   8.330 -1.3870  0.2839  2.2061
 2809TIP3   OH230061   3.535   1.969   1.014 -0.1054  0.2503  0.4694
 2809TIP3    H130062   3.629   1.986   1.022  0.2589 -2.1201  2.1978
 2809TIP3    H230063   3.494   2.053   1.029  1.7114  1.1081  0.9043
 2810TIP3   OH230064   3.919   0.149   2.357 -0.5280 -0.3147 -0.0026
 2810TIP3    H130065   3.949   0.166   2.268 -0.0591 -0.0576  0.1979
 2810TIP3    H230066   3.948   0.059   2.375 -1.0422 -0.5355 -0.2764
 2811TIP3   OH230067   2.692   0.356   8.933 -0.2860 -0.7342  0.4020
 2811TIP3    H130068   2.668   0.373   8.842  0.1984  0.2892  0.4510
 2811TIP3    H230069   2.749   0.279   8.928  3.5190  1.8678 -0.7998
 2812TIP3   OH230070   3.459   1.262   2.852 -0.3425  0.1115 -0.1997
 2812TIP3    H130071   3.525   1.294   2.791  0.0993 -0.4927 -0.0478
 2812TIP3    H230072   3.484   1.299   2.937 -1.1662  1.2530 -0.4306
 2813TIP3   OH230073   3.054   0.534   1.822  0.6252  0.8767  0.6205
 2813TIP3    H130074   2.974   0.585   1.806  1.7547  3.4825  2.5081
 2813TIP3    H230075   3.025   0.461   1.877 -0.6801  0.8341 -0.0778
 2814TIP3   OH230076   0.221   1.387   1.839 -0.3424 -0.1043 -0.0778
 2814TIP3    H130077   0.271   1.307   1.826  0.2740  0.3598 -0.6517
 2814TIP3    H230078   0.286   1.457   1.829 -0.7080  0.4458  1.2148
 2815TIP3   OH230079   0.476   5.626   0.924 -0.1428  0.8046 -0.4423
 2815TIP3    H130080   0.422   5.703   0.939 -0.9373  0.2729 -0.4824
 2815TIP3    H230081   0.560   5.660   0.895 -0.5047  1.6487 -0.5169
 2816TIP3   OH230082   4.749   3.148   1.947  0.3016  0.2577 -0.6252
 2816TIP3    H130083   4.815   3.170   2.012 -1.3407  2.2635  0.5055
 2816TIP3    H230084   4.791   3.164   1.863  1.5131  0.6152  0.0229
 2817TIP3   OH230085   3.493   6.044   7.893 -0.1451  0.6033 -0.1671
 2817TIP3    H130086   3.544   6.060   7.813  0.0809  1.3668  0.1206
 2817TIP3    H230087   3.544   6.085   7.962  0.5239 -1.5182  0.6725
 2818TIP3   OH230088   2.897   3.788   7.941  0.4790  0.3637 -0.0444
 2818TIP3    H130089   2.879   3.718   7.878  3.2011  0.7483 -1.3846
 2818TIP3    H230090   2.882   3.748   8.026 -1.8318 -0.6216 -0.8329
 2819TIP3   OH230091   4.767   1.398   7.974 -0.2381 -0.3910 -0.1594
 2819TIP3    H130092   4.680   1.382   8.010  0.4643 -1.1377  1.2725
 2819TIP3    H230093   4.776   1.334   7.904 -0.5801 -0.7716  0.1389
 2820TIP3   OH230094   0.682   2.290   2.859 -0.6825  0.0574 -0.9004
 2820TIP3    H130095   0.659   2.363   2.916 -0.0942 -0.8804  0.5821
 2820TIP3    H230096   0.768   2.262   2.888 -1.8436 -2.7327  0.2214
 2821TIP3   OH230097   2.044   6.711   2.163  0.4159  0.1211  0.6537
 2821TIP3    H130098   2.136   6.719   2.184  0.4842 -1.1097  0.9460
 2821TIP3    H230099   2.040   6.720   2.068  0.9958 -0.8639  0.5199
 2822TIP3   OH230100   4.094   5.482   0.964  0.4364 -0.2690 -0.2058
 2822TIP3    H130101   4.017   5.487   1.020  0.0694 -0.5437 -0.6878
 2822TIP3    H230102   4.167   5.468   1.025  0.2153  0.7399  0.3230
 2823TIP3   OH230103   1.401   6.002   1.977 -0.0549  0.4807 -0.5551
 2823TIP3    H130104   1.492   5.995   2.007  0.1945  1.8090 -0.9410
 2823TIP3    H230105   1.360   5.920   2.006  0.2604  1.4606  3.1255
 2824TIP3   OH230106   6.114   4.598   2.366  0.6611  0.1555  0.4874
 2824TIP3    H130107   6.161   4.516   2.351  0.5936  0.0939  0.6119
 2824TIP3    H230108   6.022   4.572   2.373  0.6158  0.2677  0.3102
 2825TIP3   OH230109   2.924   5.852   2.159  0.2865  0.5558 -0.1262
 2825TIP3    H130110   2.958   5.838   2.248  0.1626  1.6259  0.1075
 2825TIP3    H230111   2.982   5.800   2.103 -0.5554 -1.3848  0.6954
 2826TIP3   OH230112   1.455   2.848   2.583  0.4168  0.0263  0.2550
 2826TIP3    H130113   1.467   2.815   2.494  0.5991 -1.1836  0.6976
 2826TIP3    H230114   1.433   2.770   2.635 -1.2681  0.9401  0.9991
 2827TIP3   OH230115   6.705   4.176   0.220  0.1342  0.0480 -0.3300
 2827TIP3    H130116   6.693   4.261   0.262 -0.1458 -0.5643  0.8724
 2827TIP3    H230117   6.640   4.119   0.261 -2.4566  0.1343 -3.9077
 2828TIP3   OH230118   3.174   6.430   8.503 -0.1005 -0.2155  0.1950
 2828TIP3    H130119   3.176   6.350   8.452 -0.5435  0.4102 -0.8307
 2828TIP3    H230120   3.215   6.496   8.447  0.9527  0.1272  1.3202
 2829TIP3   OH230121   0.824   5.712   8.377 -0.5129 -0.3783  0.0097
 2829TIP3    H130122   0.865   5.644   8.431 -1.0203 -1.0072 -0.3783
 2829TIP3    H230123   0.807   5.784   8.437  1.2527 -0.0495  0.1648
 2830TIP3   OH230124   1.688   3.631   3.505  0.8846  0.5889 -0.0975
 2830TIP3    H130125   1.737   3.605   3.427 -0.3417  1.0986 -1.0803
 2830TIP3    H230126   1.695   3.555   3.564 -0.3288 -0.9391 -1.7789
 2831TIP3   OH230127   5.039   0.291   8.529  0.5474 -0.1840 -0.3639
 2831TIP3    H130128   5.063   0.205   8.565  3.1782  0.1983 -0.9728
 2831TIP3    H230129   5.080   0.354   8.588  2.2754  0.5058 -2.1564
 2832TIP3   OH230130   5.891   6.727   3.282  0.4769 -0.0035 -0.2981
 2832TIP3    H130131   5.973   6.735   3.330 -0.6254  0.0437  1.7089
 2832TIP3    H230132   5.845   6.809   3.300 -0.4310 -0.4558 -0.4948
 2833TIP3   OH230133   1.012   0.581   3.326 -0.3622  0.0289  0.2280
 2833TIP3    H130134   1.083   0.638   3.297 -0.7407 -0.0305 -0.8404
 2833TIP3    H230135   1.008   0.594   3.421  1.4320 -0.3891  0.3846
 2834TIP3   OH230136   5.592   1.966   2.824 -0.4102 -0.5891  0.3681
 2834TIP3    H130137   5.652   1.935   2.892 -0.2104  0.9045  0.9227
 2834TIP3    H230138   5.647   1.974   2.746  0.3025  1.2351  0.9917
 2835TIP3   OH230139   4.881   2.126   1.982  0.0310 -0.5383  0.1037
 2835TIP3    H130140   4.821   2.194   2.012 -1.1536 -1.9011  0.9262
 2835TIP3    H230141   4.945   2.117   2.052 -0.6670 -1.2603  0.6641
 2836TIP3   OH230142   1.322   4.052   2.442 -0.1375  0.2177  0.1546
 2836TIP3    H130143   1.409   4.021   2.465 -0.4492 -1.5273 -0.8665
 2836TIP3    H230144   1.298   4.111   2.513  1.0429 -0.8793  1.5144
 2837TIP3   OH230145   0.445   1.852   8.492 -0.1006  0.1490 -0.1139
 2837TIP3    H130146   0.490   1.801   8.425 -0.0786  0.3443 -0.2501
 2837TIP3    H230147   0.479   1.818   8.575  1.2448  1.1282 -0.2246
 2838TIP3   OH230148   5.350   1.369   0.628  0.0711 -0.5229  0.2987
 2838TIP3    H130149   5.431   1.377   0.578  0.6487 -3.0379  0.6546
 2838TIP3    H230150   5.326   1.276   0.618 -3.4103  0.3402 -0.7120
 2839TIP3   OH230151   4.273   4.537   1.700 -1.6593  0.6357 -0.1135
 2839TIP3    H130152   4.237   4.516   1.786 -1.0476 -1.2832 -0.2767
 2839TIP3    H230153   4.312   4.455   1.670 -0.4583  1.6858 -1.5468
 2840TIP3   OH230154   5.418   3.768   0.915  0.1692  0.0364 -0.3304
 2840TIP3    H130155   5.458   3.767   1.002  2.1321 -0.0862 -1.1926
 2840TIP3    H230156   5.351   3.699   0.919 -0.0651  0.3142  1.1910
 2841TIP3   OH230157   4.732   2.268   1.122 -0.2704  0.1134  0.0773
 2841TIP3    H130158   4.803   2.204   1.130  0.4715  1.0876  1.7107
 2841TIP3    H230159   4.716   2.273   1.028  3.7466  1.8530 -0.7598
 2842TIP3   OH230160   2.797   6.543   1.167 -0.7286  0.0919  0.6145
 2842TIP3    H130161   2.868   6.606   1.151  0.2545 -1.2607 -0.7026
 2842TIP3    H230162   2.722   6.580   1.121 -0.9129  1.5497  2.0231
 2843TIP3   OH230163   4.419   4.513   0.480 -0.2613  0.3233 -0.0073
 2843TIP3    H130164   4.476   4.524   0.557  0.7226  0.4121 -0.7319
 2843TIP3    H230165   4.472   4.545   0.407 -0.6499 -1.0702 -0.9287
 2844TIP3   OH230166   1.611   0.641   2.888 -0.0172 -0.3299  0.8267
 2844TIP3    H130167   1.569   0.682   2.963  0.4537  1.1532  0.3157
 2844TIP3    H230168   1.643   0.557   2.922 -0.9774 -0.2925  1.9135
 2845TIP3   OH230169   0.717   2.622   1.923 -0.3249  0.0964  0.3335
 2845TIP3    H130170   0.774   2.677   1.977 -0.6060  0.9287 -0.1990
 2845TIP3    H230171   0.632   2.625   1.969 -0.4685  0.5114  0.0470
 2846TIP3   OH230172   2.510   2.661   2.937  0.2227  0.6378 -0.1874
 2846TIP3    H130173   2.498   2.744   2.891 -0.0743  0.9688  0.4629
 2846TIP3    H230174   2.435   2.607   2.910 -1.4283  1.7494  1.8205
 2847TIP3   OH230175   1.992   0.603   8.514  0.0442  0.0032  0.1297
 2847TIP3    H130176   2.027   0.613   8.425  1.0039  1.3066  0.6374
 2847TIP3    H230177   1.898   0.594   8.501  0.3246 -1.9531 -1.1534
 2848TIP3   OH230178   2.908   0.327   3.686  0.3669  0.6111 -0.3530
 2848TIP3    H130179   2.851   0.251   3.696 -0.2502  1.2375  1.1549
 2848TIP3    H230180   2.935   0.325   3.594  0.5625 -1.5460 -0.2977
 2849TIP3   OH230181   3.906   4.625   7.851 -0.3416  0.2347  0.3889
 2849TIP3    H130182   3.869   4.582   7.927 -0.3692  1.3147  1.0077
 2849TIP3    H230183   3.834   4.678   7.816 -1.3213 -2.5446 -2.2754
 2850TIP3   OH230184   5.666   2.384   2.465 -1.1093  0.1668 -0.2982
 2850TIP3    H130185   5.729   2.448   2.432 -1.9051  1.4296  0.5569
 2850TIP3    H230186   5.592   2.390   2.405 -1.3570  0.3673  0.0207
 2851TIP3   OH230187   6.347   0.099   2.349 -0.2784  0.5833 -0.3243
 2851TIP3    H130188   6.379   0.183   2.381  1.8947 -0.6885  1.0659
 2851TIP3    H230189   6.413   0.072   2.285 -0.5914 -0.3854 -0.2436
 2852TIP3   OH230190   0.516   4.519   8.728  0.3144 -0.1639 -0.0106
 2852TIP3    H130191   0.543   4.480   8.811  1.1242 -0.9922 -0.6498
 2852TIP3    H230192   0.431   4.560   8.747  0.7104  0.0611  1.3324
 2853TIP3   OH230193   5.022   5.299   7.872 -0.4965 -0.2716  0.0444
 2853TIP3    H130194   5.041   5.388   7.842  0.1882 -0.1992  0.6545
 2853TIP3    H230195   4.964   5.311   7.948 -2.3335 -0.4599 -1.2651
 2854TIP3   OH230196   3.561   2.994   0.903  0.1377  0.1584 -0.3048
 2854TIP3    H130197   3.480   2.991   0.954 -0.1208 -1.5860 -0.7343
 2854TIP3    H230198   3.541   3.051   0.829 -0.2524  0.8293  0.3135
 2855TIP3   OH230199   4.775   5.990   0.903  0.5992  0.4370  0.6632
 2855TIP3    H130200   4.784   6.085   0.913  0.2368  0.7015 -1.2330
 2855TIP3    H230201   4.858   5.955   0.933  0.4447  1.2668  2.1656
 2856TIP3   OH230202   2.943   5.312   1.866  0.1485 -0.3364 -0.6668
 2856TIP3    H130203   2.857   5.272   1.883 -0.2787  1.0415  0.5807
 2856TIP3    H230204   2.925   5.385   1.808  0.3350  0.4621  0.2524
 2857TIP3   OH230205   0.250   0.477   2.194 -0.3123  0.7423 -0.4300
 2857TIP3    H130206   0.332   0.499   2.237  0.0294 -1.3505  0.0781
 2857TIP3    H230207   0.200   0.427   2.259 -0.8766 -0.2472 -1.5793
 2858TIP3   OH230208   1.482   2.414   0.448 -0.4702 -0.2713 -0.2903
 2858TIP3    H130209   1.422   2.432   0.376  0.8921  0.2220 -1.3479
 2858TIP3    H230210   1.564   2.456   0.422  0.7273 -1.9845  0.5007
 2859TIP3   OH230211   1.418   3.920   1.460  0.2781  0.0495 -0.1558
 2859TIP3    H130212   1.497   3.910   1.406 -0.3956  1.5811 -1.5128
 2859TIP3    H230213   1.451   3.917   1.550  1.7946 -0.1182 -0.6761
 2860TIP3   OH230214   2.422   4.803   8.961  0.0537  0.1763 -0.0384
 2860TIP3    H130215   2.480   4.796   9.037  0.0364  0.2563 -0.0178
 2860TIP3    H230216   2.446   4.887   8.920  0.2949 -0.0233 -0.3126
 2861TIP3   OH230217   4.042   5.794   1.784  0.7264  0.0531  0.5742
 2861TIP3    H130218   4.091   5.875   1.789  2.4026 -0.9090  0.4849
 2861TIP3    H230219   3.965   5.815   1.731  1.7310  1.2936 -0.4566
 2862TIP3   OH230220   0.465   2.490   8.071 -0.1302  0.3895  0.4835
 2862TIP3    H130221   0.553   2.498   8.106  0.4054 -1.2132 -0.3937
 2862TIP3    H230222   0.463   2.550   7.997  0.0132  0.8777  0.8719
 2863TIP3   OH230223   4.680   4.355   0.512  0.3692  0.1773 -0.0593
 2863TIP3    H130224   4.648   4.363   0.602 -1.2571  0.7603 -0.6431
 2863TIP3    H230225   4.747   4.422   0.504 -0.2267  0.8442  0.4266
 2864TIP3   OH230226   4.280   4.134   1.190 -0.1387  0.4465  0.1874
 2864TIP3    H130227   4.202   4.148   1.243 -0.9346 -0.4337 -0.7303
 2864TIP3    H230228   4.301   4.221   1.155 -1.4825  0.4704 -0.6194
 2865TIP3   OH230229   0.114   3.987   2.455 -0.7110  0.6769  0.1641
 2865TIP3    H130230   0.142   4.074   2.484  1.0530 -0.5742  2.6300
 2865TIP3    H230231   0.141   3.929   2.526 -2.7741 -1.7836 -0.9060
 2866TIP3   OH230232   1.269   1.982   3.197  0.5565 -0.4880  0.3807
 2866TIP3    H130233   1.323   2.033   3.257  1.5064  0.0006 -0.8566
 2866TIP3    H230234   1.179   1.998   3.227  0.7867  2.1307 -0.0753
 2867TIP3   OH230235   5.187   6.369   0.662  0.1851 -0.0551  0.2213
 2867TIP3    H130236   5.277   6.353   0.635  0.1409 -1.2923  0.7693
 2867TIP3    H230237   5.194   6.406   0.750  0.1777  0.7844 -0.1141
 2868TIP3   OH230238   1.738   0.709   0.565  0.2039 -0.0765  1.0446
 2868TIP3    H130239   1.646   0.708   0.590  0.1229 -1.0139  0.7472
 2868TIP3    H230240   1.739   0.676   0.475  0.9271 -1.1347  1.4275
 2869TIP3   OH230241   6.033   5.998   3.049 -0.0797  0.3467  0.0799
 2869TIP3    H130242   5.962   5.979   2.988  0.1610  0.9396 -0.3980
 2869TIP3    H230243   6.075   6.077   3.013 -0.1203  0.8854  1.1601
 2870TIP3   OH230244   6.655   6.216   8.735 -0.3036 -0.0560  0.2326
 2870TIP3    H130245   6.604   6.176   8.664 -0.7517 -1.9163  1.5212
 2870TIP3    H230246   6.626   6.307   8.737 -1.4983 -0.3796 -0.8791
 2871TIP3   OH230247   3.264   5.307   8.176  0.9989  1.2618  0.3175
 2871TIP3    H130248   3.355   5.306   8.204  0.2516  1.5866  3.0475
 2871TIP3    H230249   3.263   5.362   8.097  3.4563 -0.6887 -1.1911
 2872TIP3   OH230250   5.133   0.771   8.360  0.1160  0.5607  0.2248
 2872TIP3    H130251   5.139   0.824   8.280 -1.0685  0.0051 -0.2571
 2872TIP3    H230252   5.067   0.816   8.413 -0.6898 -0.2468 -0.0643
 2873TIP3   OH230253   4.977   5.612   8.423 -0.4859 -0.1607  0.0670
 2873TIP3    H130254   4.959   5.676   8.491  1.3574  0.9910 -0.4267
 2873TIP3    H230255   5.033   5.660   8.361  1.2297 -2.3215 -0.1647
 2874TIP3   OH230256   2.282   3.026   8.378 -0.2166  0.4630 -0.1388
 2874TIP3    H130257   2.228   3.024   8.299 -2.2132  0.1216  1.1455
 2874TIP3    H230258   2.221   3.052   8.447  1.6795  1.6951  1.1507
 2875TIP3   OH230259   5.284   4.691   0.355 -0.2267 -0.2784 -0.2453
 2875TIP3    H130260   5.237   4.724   0.278  2.7214  1.3998 -1.5185
 2875TIP3    H230261   5.367   4.659   0.320  1.3368  0.7528  2.2160
 2876TIP3   OH230262   0.687   1.467   1.285  0.0393 -0.1134 -0.0400
 2876TIP3    H130263   0.764   1.508   1.325 -0.1174  1.9325 -1.6359
 2876TIP3    H230264   0.613   1.509   1.329 -0.1234  1.3741 -1.6217
 2877TIP3   OH230265   4.416   5.222   2.871 -0.2130  0.0721  0.1132
 2877TIP3    H130266   4.353   5.293   2.855 -0.0367 -0.0354 -1.2175
 2877TIP3    H230267   4.484   5.262   2.925 -0.9222  0.4630  0.7341
 2878TIP3   OH230268   2.491   0.848   2.547 -0.2730 -0.3145 -0.1724
 2878TIP3    H130269   2.517   0.756   2.543 -0.4495 -0.3324 -1.2872
 2878TIP3    H230270   2.570   0.897   2.524 -0.3144 -0.2112 -0.0978
 2879TIP3   OH230271   5.778   1.352   7.906  0.1204  0.6116 -0.5019
 2879TIP3    H130272   5.851   1.293   7.886 -0.2452  0.8407 -2.7541
 2879TIP3    H230273   5.707   1.293   7.930  0.2525  0.2207 -1.0460
 2880TIP3   OH230274   5.655   3.099   1.906 -0.2025 -0.1955 -0.0389
 2880TIP3    H130275   5.739   3.106   1.952 -0.9237 -0.7789  1.4593
 2880TIP3    H230276   5.626   3.009   1.923 -2.2390  0.6827  1.5713
 2881TIP3   OH230277   1.946   2.426   1.766  0.0555 -0.0757  1.2677
 2881TIP3    H130278   1.896   2.429   1.684  0.3271  1.8550  1.1178
 2881TIP3    H230279   1.879   2.409   1.833 -0.3129 -0.6954  0.7594
 2882TIP3   OH230280   6.581   3.194   3.631 -0.1108 -0.0913 -0.4970
 2882TIP3    H130281   6.650   3.246   3.589  1.5353 -1.6233  0.2091
 2882TIP3    H230282   6.514   3.185   3.563  0.8788  0.4847 -1.5934
 2883TIP3   OH230283   3.372   0.404   8.227 -0.1349  0.4069 -0.0251
 2883TIP3    H130284   3.280   0.392   8.200 -0.3407 -1.3786  1.2569
 2883TIP3    H230285   3.369   0.470   8.296 -0.4492  0.4209 -0.0494
 2884TIP3   OH230286   1.528   3.498   1.021  0.2498  0.4171 -0.0840
 2884TIP3    H130287   1.457   3.457   0.972 -0.1297 -1.2881  1.7492
 2884TIP3    H230288   1.503   3.590   1.026 -1.7931 -0.0963  0.3416
 2885TIP3   OH230289   0.092   3.666   8.029  0.1161 -0.1744  0.2521
 2885TIP3    H130290   0.100   3.576   7.997  0.3776  0.1535 -0.6569
 2885TIP3    H230291   0.036   3.708   7.964 -0.6153  0.1351  1.0715
 2886TIP3   OH230292   1.070   1.375   2.279  0.1633  0.0009 -0.1989
 2886TIP3    H130293   1.071   1.356   2.373 -2.0895 -0.7907 -0.2832
 2886TIP3    H230294   1.162   1.366   2.252  0.7687 -0.3228  1.8010
 2887TIP3   OH230295   5.606   4.488   0.998 -0.1186 -0.1322 -0.4894
 2887TIP3    H130296   5.551   4.420   1.038 -2.1857  1.6416 -0.1250
 2887TIP3    H230297   5.627   4.548   1.069  0.4236  0.3996 -1.0803
 2888TIP3   OH230298   3.719   5.258   1.656 -0.1875 -0.0399 -0.0212
 2888TIP3    H130299   3.688   5.187   1.600  1.1278  0.1963 -1.0975
 2888TIP3    H230300   3.651   5.267   1.723 -0.1302 -2.6856  0.5203
 2889TIP3   OH230301   3.999   5.820   3.259 -0.0512  0.1790  0.3568
 2889TIP3    H130302   3.955   5.861   3.334 -1.8675  2.4928 -1.7870
 2889TIP3    H230303   3.944   5.745   3.237 -0.0387  0.0562  0.7300
 2890TIP3   OH230304   2.096   3.569   1.665 -0.1191  0.8506  0.3294
 2890TIP3    H130305   2.103   3.665   1.663  0.0098  0.8931  1.8073
 2890TIP3    H230306   2.122   3.545   1.754  0.7870 -0.6515 -0.3059
 2891TIP3   OH230307   0.622   0.468   1.920 -0.1719  0.4504  0.3648
 2891TIP3    H130308   0.603   0.459   1.827  2.4774  2.8709 -0.5618
 2891TIP3    H230309   0.716   0.454   1.927  0.0180  2.1778  2.3271
 2892TIP3   OH230310   4.682   6.328   0.704 -0.1459 -0.1421 -0.0039
 2892TIP3    H130311   4.765   6.304   0.745 -0.0380 -1.4148 -0.9225
 2892TIP3    H230312   4.640   6.245   0.682 -1.3554  0.4856 -0.1944
 2893TIP3   OH230313   5.884   4.898   1.030 -0.5598  0.6981  0.7559
 2893TIP3    H130314   5.894   4.827   0.967 -0.0511  1.4487 -0.0251
 2893TIP3    H230315   5.952   4.882   1.095  0.4566  1.2159 -0.1538
 2894TIP3   OH230316   4.975   3.507   8.852 -0.0124  0.9900  0.3031
 2894TIP3    H130317   4.893   3.553   8.833  0.3725  1.8514  0.6380
 2894TIP3    H230318   5.036   3.540   8.786 -0.0038  0.1596 -0.1038
 2895TIP3   OH230319   3.502   3.920   0.782  0.0306 -0.1382 -0.2958
 2895TIP3    H130320   3.432   3.857   0.799 -0.4908  0.6738  0.6606
 2895TIP3    H230321   3.472   3.969   0.705  0.8738 -1.6341 -1.6466
 2896TIP3   OH230322   4.055   3.533   0.067 -0.0016  0.0571  0.1394
 2896TIP3    H130323   4.017   3.453   0.030 -2.0537 -0.0905  2.3427
 2896TIP3    H230324   4.103   3.572  -0.006 -3.1531 -0.5856 -2.5376
 2897TIP3   OH230325   6.251   6.019   2.077  0.3752 -0.4591 -0.2655
 2897TIP3    H130326   6.199   6.096   2.098  0.9928  0.2255 -1.1693
 2897TIP3    H230327   6.205   5.947   2.119  0.1396  0.4744  1.1463
 2898TIP3   OH230328   2.766   3.693   2.325  0.0619 -0.5055 -0.1250
 2898TIP3    H130329   2.836   3.700   2.390 -1.6096  0.2715  1.6564
 2898TIP3    H230330   2.789   3.757   2.258 -0.5697  2.1487  2.0636
 2899TIP3   OH230331   6.346   1.669   8.448  0.2143 -0.0518 -0.1481
 2899TIP3    H130332   6.351   1.757   8.409 -1.3938 -1.0330 -2.8141
 2899TIP3    H230333   6.253   1.652   8.457  0.5189 -1.2699  0.8867
 2900TIP3   OH230334   5.094   3.539   8.617 -0.5796 -0.2290  0.4046
 2900TIP3    H130335   5.088   3.617   8.563 -0.7552  0.9392  2.0191
 2900TIP3    H230336   5.075   3.466   8.558  1.0454  0.7893 -1.4911
 2901TIP3   OH230337   5.661   0.897   0.825  0.1431 -0.3255  0.3697
 2901TIP3    H130338   5.619   0.910   0.910  0.0488 -1.8206  0.5935
 2901TIP3    H230339   5.636   0.808   0.800  0.0387  0.1469 -1.3164
 2902TIP3   OH230340   0.848   0.037   8.485 -0.2014 -0.0665  0.1388
 2902TIP3    H130341   0.782   0.097   8.520  1.6399  0.8263  2.2821
 2902TIP3    H230342   0.912   0.093   8.442  0.3819 -0.7097  0.1459
 2903TIP3   OH230343   5.005   6.527   0.492  0.4705  0.1434 -0.1152
 2903TIP3    H130344   5.092   6.493   0.511  0.6278  0.4492 -0.2801
 2903TIP3    H230345   4.981   6.577   0.570  0.6795  0.5258 -0.2908
 2904TIP3   OH230346   1.741   6.241   1.135  0.4367 -0.0882  0.1202
 2904TIP3    H130347   1.661   6.292   1.151  1.4568  1.0885  1.7605
 2904TIP3    H230348   1.713   6.150   1.147 -1.0342  0.1482 -1.1489
 2905TIP3   OH230349   0.186   0.256   0.477  0.2255  0.3003  0.1922
 2905TIP3    H130350   0.250   0.243   0.408  1.0564  0.8005  0.8537
 2905TIP3    H230351   0.135   0.175   0.478 -1.1163  1.0080 -2.2921
 2906TIP3   OH230352   3.821   2.455   2.051  0.2678  0.1505  0.1154
 2906TIP3    H130353   3.767   2.477   2.127  0.8888 -0.0448  0.6270
 2906TIP3    H230354   3.841   2.362   2.062  1.4251  0.4158  0.4179
 2907TIP3   OH230355   6.571   0.736   2.337 -0.3099  0.2878 -0.1250
 2907TIP3    H130356   6.584   0.661   2.281  0.5661  0.5310 -0.2616
 2907TIP3    H230357   6.631   0.723   2.410  1.1409  1.6808 -1.0077
 2908TIP3   OH230358   5.434   4.104   8.273  0.0758 -0.0045  0.2680
 2908TIP3    H130359   5.407   4.179   8.220 -2.5527 -2.5081 -2.3070
 2908TIP3    H230360   5.509   4.068   8.226 -0.4432 -0.5520 -0.1652
 2909TIP3   OH230361   1.328   3.315   1.201 -0.4858 -0.2291 -0.1255
 2909TIP3    H130362   1.325   3.333   1.107  2.1509 -0.2859 -0.3126
 2909TIP3    H230363   1.421   3.302   1.220 -0.6937  1.6466  2.8519
 2910TIP3   OH230364   6.180   4.391   2.980 -0.0848  0.2405  0.4497
 2910TIP3    H130365   6.238   4.395   2.904 -1.3887 -0.0149 -0.5957
 2910TIP3    H230366   6.238   4.372   3.053  1.0773 -0.6425 -0.6567
 2911TIP3   OH230367   5.016   4.006   1.039  0.1099  0.2186  0.5061
 2911TIP3    H130368   5.007   4.061   0.962 -3.7349 -0.0627  0.5579
 2911TIP3    H230369   4.952   4.041   1.101 -1.2371 -3.1018  1.2059
 2912TIP3   OH230370   3.780   0.321   2.041  0.1700  0.8332 -0.5551
 2912TIP3    H130371   3.861   0.272   2.026  0.3086  0.7387  0.4000
 2912TIP3    H230372   3.797   0.408   2.006  1.2609  1.2835  0.9819
 2913TIP3   OH230373   2.337   5.433   2.777  0.5389  0.1554  0.2135
 2913TIP3    H130374   2.295   5.413   2.694 -1.2157  2.5463  0.4226
 2913TIP3    H230375   2.314   5.361   2.835 -0.8125 -0.0266 -0.5304
 2914TIP3   OH230376   0.370   2.501   0.760 -0.2442 -0.5527 -0.3730
 2914TIP3    H130377   0.342   2.517   0.670  0.5735 -1.7862 -0.8633
 2914TIP3    H230378   0.347   2.410   0.777  0.0946 -0.4874  0.4960
 2915TIP3   OH230379   0.445   5.644   2.657 -0.5761 -0.2563  0.4611
 2915TIP3    H130380   0.510   5.623   2.724  0.7229  1.1855 -0.2850
 2915TIP3    H230381   0.413   5.559   2.627  1.7575 -1.0671  0.1172
 2916TIP3   OH230382   5.604   2.487   1.705  0.3128 -0.0851  0.3788
 2916TIP3    H130383   5.604   2.392   1.703  1.8046 -0.1095  0.6205
 2916TIP3    H230384   5.635   2.513   1.618 -3.9942  0.3473 -1.2998
 2917TIP3   OH230385   3.259   0.870   1.081 -0.0852  0.5943 -0.2551
 2917TIP3    H130386   3.286   0.814   1.008  1.0697  0.1226  0.5014
 2917TIP3    H230387   3.281   0.959   1.052 -0.3668  0.4959 -0.7874
 2918TIP3   OH230388   0.533   3.538   0.113  0.3958 -0.0036  0.4977
 2918TIP3    H130389   0.595   3.481   0.158 -0.1386 -1.2704 -0.3300
 2918TIP3    H230390   0.583   3.578   0.042  1.1114  1.6198  1.8277
 2919TIP3   OH230391   4.394   1.569   8.761  0.0360  0.1121  0.1807
 2919TIP3    H130392   4.311   1.521   8.757  0.1664 -0.0948 -0.1226
 2919TIP3    H230393   4.392   1.615   8.845 -0.2765 -0.0877  0.2818
 2920TIP3   OH230394   0.299   2.665   2.431  0.3148  0.4822 -0.1529
 2920TIP3    H130395   0.235   2.695   2.367 -0.1859  1.2325  0.6677
 2920TIP3    H230396   0.338   2.746   2.466 -0.6573  0.2208  1.7011
 2921TIP3   OH230397   1.568   3.510   1.607 -0.0942 -0.0502 -0.9264
 2921TIP3    H130398   1.565   3.544   1.697 -0.3416  1.4337 -1.4752
 2921TIP3    H230399   1.571   3.415   1.618 -1.3556  0.0459  0.6354
 2922TIP3   OH230400   1.886   3.378   1.259 -0.4811 -0.6238  0.0658
 2922TIP3    H130401   1.887   3.381   1.355  1.1501  0.3470  0.0501
 2922TIP3    H230402   1.934   3.456   1.232 -1.6157 -0.4372 -1.5758
 2923TIP3   OH230403   1.862   4.737   8.914  0.4062 -0.1231  0.5474
 2923TIP3    H130404   1.835   4.690   8.834  0.2975 -1.6219  1.4234
 2923TIP3    H230405   1.782   4.779   8.945  0.0552 -0.9179  0.7504
 2924TIP3   OH230406   5.076   0.356   0.801  0.3908 -0.6929 -0.4055
 2924TIP3    H130407   5.062   0.261   0.802  3.0324 -1.1686 -0.6586
 2924TIP3    H230408   5.132   0.372   0.877 -1.7477  1.0562  0.9004
 2925TIP3   OH230409   2.721   5.148   1.969  0.1283 -0.0204 -0.1021
 2925TIP3    H130410   2.701   5.232   2.010  0.3062 -0.3691  0.7091
 2925TIP3    H230411   2.670   5.084   2.018  3.4865 -1.0297  2.4163
 2926TIP3   OH230412   0.319   5.073   2.133  0.2709  0.2440 -0.5203
 2926TIP3    H130413   0.354   5.157   2.162  0.7047  0.7851 -2.4519
 2926TIP3    H230414   0.226   5.077   2.151  0.8591 -0.8255  3.8001
 2927TIP3   OH230415   1.626   1.088   1.576  0.1346  0.2855 -0.0729
 2927TIP3    H130416   1.546   1.125   1.541  0.1176  0.1914 -0.1345
 2927TIP3    H230417   1.608   1.077   1.670 -1.2989 -3.1294 -0.5952
 2928TIP3   OH230418   5.851   5.850   0.763 -0.0272 -0.9398 -0.1680
 2928TIP3    H130419   5.925   5.792   0.780  1.7827  0.8932 -1.3007
 2928TIP3    H230420   5.815   5.871   0.849 -0.3830 -3.2275  0.2909
 2929TIP3   OH230421   2.735   5.029   8.713 -0.2129 -0.1650 -0.0817
 2929TIP3    H130422   2.801   5.089   8.748 -0.8053 -0.1302  1.0146
 2929TIP3    H230423   2.718   5.060   8.624  0.1935  0.6939  0.1379
 2930TIP3   OH230424   6.204   3.526   0.496 -0.4480  0.2564 -0.6261
 2930TIP3    H130425   6.194   3.621   0.499  1.9024  0.5225  1.5965
 2930TIP3    H230426   6.151   3.494   0.569  2.5130  0.4078  1.7730
 2931TIP3   OH230427   0.458   4.166   2.957 -0.0423 -0.2491 -0.1502
 2931TIP3    H130428   0.471   4.093   3.017  2.2547 -0.7669 -1.1625
 2931TIP3    H230429   0.532   4.225   2.974  0.7963 -0.5020 -2.5036
 2932TIP3   OH230430   6.142   5.158   1.498  0.0278  0.2175  0.1857
 2932TIP3    H130431   6.191   5.204   1.566  0.5730  2.1947 -1.4388
 2932TIP3    H230432   6.209   5.128   1.436 -0.5088 -0.9316  0.1303
 2933TIP3   OH230433   6.109   4.634   1.141 -0.2814  0.1911 -0.3684
 2933TIP3    H130434   6.018   4.609   1.151  0.4100 -2.1887  0.5707
 2933TIP3    H230435   6.117   4.715   1.190 -1.6560 -0.1324  0.4331
 2934TIP3   OH230436   2.253   2.061   8.542 -0.2403 -0.3682  0.3973
 2934TIP3    H130437   2.278   2.153   8.550 -1.1584 -0.1790  1.2690
 2934TIP3    H230438   2.207   2.056   8.458  0.1481 -0.1162  0.1678
 2935TIP3   OH230439   5.974   3.445   1.943 -0.7192 -0.3189 -0.3633
 2935TIP3    H130440   6.064   3.460   1.971 -1.0066  0.4274  0.1914
 2935TIP3    H230441   5.945   3.529   1.907 -1.0449 -0.6812 -0.9580
 2936TIP3   OH230442   3.713   6.768   8.604 -0.2094  0.3991 -0.0554
 2936TIP3    H130443   3.682   6.683   8.574 -0.1551  0.3549  0.0124
 2936TIP3    H230444   3.636   6.808   8.646 -0.2669  0.4332 -0.1935
 2937TIP3   OH230445   3.107   1.676   0.214  0.4980 -0.0958 -0.8551
 2937TIP3    H130446   3.118   1.757   0.264 -1.8824 -0.8751  1.1196
 2937TIP3    H230447   3.078   1.704   0.128 -1.0082  1.1814  0.0243
 2938TIP3   OH230448   2.224   0.289   2.338 -0.5913 -0.0756 -0.6774
 2938TIP3    H130449   2.175   0.208   2.353 -0.7476 -0.1800 -1.6906
 2938TIP3    H230450   2.210   0.309   2.245  0.4514  0.4425 -0.7380
 2939TIP3   OH230451   6.507   3.338   0.182 -0.0313  0.4110  0.0324
 2939TIP3    H130452   6.556   3.356   0.262  0.8846  0.7564 -0.5789
 2939TIP3    H230453   6.431   3.395   0.187 -0.3660 -0.1010  0.9853
 2940TIP3   OH230454   2.867   0.344   1.153  0.2727  0.7872  0.5490
 2940TIP3    H130455   2.876   0.369   1.245 -0.4233  1.0758  0.5425
 2940TIP3    H230456   2.940   0.389   1.109  1.0409  0.0601  1.0637
 2941TIP3   OH230457   5.481   0.670   2.402 -0.1913  0.0781 -0.1271
 2941TIP3    H130458   5.481   0.747   2.345 -1.7102 -0.1016 -0.4114
 2941TIP3    H230459   5.491   0.596   2.342 -0.7818 -0.0526 -0.0719
 2942TIP3   OH230460   4.314   2.451   8.569  0.1037  0.3851 -0.7473
 2942TIP3    H130461   4.305   2.369   8.521  0.6173  0.5018 -1.0512
 2942TIP3    H230462   4.306   2.519   8.502  0.5093  0.5581 -0.6226
 2943TIP3   OH230463   5.486   5.556   0.023 -0.1971 -0.2775 -0.8226
 2943TIP3    H130464   5.449   5.543   0.110  0.0433  0.8139 -0.5378
 2943TIP3    H230465   5.474   5.650   0.006  0.2936 -0.3668 -1.7173
 2944TIP3   OH230466   5.921   5.153   8.760  0.1481 -0.0110 -0.6133
 2944TIP3    H130467   5.900   5.077   8.815  0.3085 -0.2852 -0.9292
 2944TIP3    H230468   5.975   5.209   8.815 -0.3445  0.0882 -0.2245
 2945TIP3   OH230469   1.925   1.269   8.587  0.1586 -0.1878  0.4718
 2945TIP3    H130470   2.018   1.276   8.609  0.2253  1.4017 -0.1398
 2945TIP3    H230471   1.925   1.251   8.493 -0.1199  1.1954  0.1802
 2946TIP3   OH230472   6.280   0.977   8.698 -0.4222 -0.3262 -0.1833
 2946TIP3    H130473   6.290   1.071   8.714  1.2911 -0.3077 -1.1606
 2946TIP3    H230474   6.211   0.970   8.632 -1.0435  0.1783  0.3984
 2947TIP3   OH230475   0.041   6.208   0.917  0.2963  0.0629 -0.3441
 2947TIP3    H130476   0.001   6.214   1.004 -0.1514 -0.9033 -0.4639
 2947TIP3    H230477   0.135   6.213   0.933  0.1929  0.5438  0.1309
 2948TIP3   OH230478   6.608   2.196   2.578  0.5510  0.2673 -0.1621
 2948TIP3    H130479   6.613   2.208   2.672 -0.4820  1.3303 -0.2282
 2948TIP3    H230480   6.537   2.133   2.565 -0.4354  1.3835 -0.2990
 2949TIP3   OH230481   1.820   1.976   2.438 -0.0271  0.1644  0.1947
 2949TIP3    H130482   1.801   2.064   2.404 -0.6161  0.1847  0.5606
 2949TIP3    H230483   1.760   1.919   2.390  0.1750 -0.0068  0.1442
 2950TIP3   OH230484   4.810   6.377   2.521 -0.5919 -0.7412 -0.0853
 2950TIP3    H130485   4.761   6.337   2.448  0.2005 -2.9508  0.5254
 2950TIP3    H230486   4.749   6.441   2.558 -3.0158 -3.1510  0.4456
 2951TIP3   OH230487   2.649   4.672   7.699  0.2570 -0.4096  0.9386
 2951TIP3    H130488   2.575   4.714   7.656  0.5540 -0.6104  0.2323
 2951TIP3    H230489   2.725   4.725   7.674  0.5418 -0.9800  0.5721
 2952TIP3   OH230490   0.753   0.521   8.769  0.2796  0.3475 -0.3285
 2952TIP3    H130491   0.695   0.592   8.741  0.6851  0.2780 -1.3986
 2952TIP3    H230492   0.779   0.478   8.687  1.1226 -0.1820  0.2029
 2953TIP3   OH230493   5.450   2.185   2.097  0.4531 -0.0440 -0.0511
 2953TIP3    H130494   5.473   2.108   2.045  0.1727 -0.8668  1.0111
 2953TIP3    H230495   5.405   2.150   2.174 -0.9179  1.2709 -0.2104
 2954TIP3   OH230496   5.014   0.451   3.429 -0.6879  0.2847 -0.3903
 2954TIP3    H130497   4.931   0.411   3.455 -1.8946  2.2698 -0.9610
 2954TIP3    H230498   5.010   0.539   3.465  0.6390  0.7996 -1.4336
 2955TIP3   OH230499   3.519   3.229   0.140 -0.3958 -0.4118  0.3789
 2955TIP3    H130500   3.479   3.194   0.220 -2.5994 -0.0867 -0.5226
 2955TIP3    H230501   3.602   3.181   0.132  1.2763  1.4599  4.2660
 2956TIP3   OH230502   4.636   1.014   1.838  0.2421  0.1359  0.6053
 2956TIP3    H130503   4.659   1.099   1.800  1.6462 -0.7002 -0.4974
 2956TIP3    H230504   4.605   0.962   1.764 -0.4682 -0.3662  1.2430
 2957TIP3   OH230505   1.005   6.023   8.396 -0.3011 -0.1492  0.0507
 2957TIP3    H130506   1.096   6.052   8.388 -0.6973  1.9392  1.8948
 2957TIP3    H230507   0.996   5.997   8.488 -1.5917 -0.1929 -0.0663
 2958TIP3   OH230508   4.440   1.828   7.968 -0.3940  0.1541  0.0433
 2958TIP3    H130509   4.527   1.791   7.951 -0.2112  1.4464 -2.2971
 2958TIP3    H230510   4.411   1.861   7.883 -2.2894  1.6559  1.1841
 2959TIP3   OH230511   3.937   3.629   8.232  0.0703  0.3444  0.1105
 2959TIP3    H130512   3.845   3.653   8.221  0.0216  0.1623  0.1128
 2959TIP3    H230513   3.939   3.534   8.219  0.1566  0.2517  0.7409
 2960TIP3   OH230514   1.498   1.980   1.085 -0.2436 -0.6857 -0.2987
 2960TIP3    H130515   1.472   1.914   1.021  0.1524  0.3425 -1.5651
 2960TIP3    H230516   1.540   1.931   1.156 -1.0940 -1.8879 -0.6140
 2961TIP3   OH230517   5.114   2.652   1.631 -0.3447  0.4165  0.1224
 2961TIP3    H130518   5.090   2.575   1.684 -1.2802 -0.2116 -1.1679
 2961TIP3    H230519   5.128   2.618   1.543 -0.7513  1.7178 -0.4750
 2962TIP3   OH230520   4.091   1.030   8.884  0.3242 -0.2914 -0.1385
 2962TIP3    H130521   4.012   1.066   8.844 -0.5272 -1.2097  0.6469
 2962TIP3    H230522   4.117   0.958   8.826  0.2146 -0.3825 -0.0762
 2963TIP3   OH230523   3.095   5.835   0.113  0.2703 -0.6873  0.2116
 2963TIP3    H130524   3.125   5.839   0.022 -1.6168 -0.3326 -0.4594
 2963TIP3    H230525   3.174   5.842   0.165  1.2684  0.9467 -1.4030
 2964TIP3   OH230526   6.291   2.836   8.729  0.0322  0.4904  0.3127
 2964TIP3    H130527   6.321   2.761   8.679  0.9142  1.0767 -0.0755
 2964TIP3    H230528   6.263   2.899   8.663  1.5677  1.4182  0.4878
 2965TIP3   OH230529   0.604   0.568   8.492  0.0635  0.3279  0.4995
 2965TIP3    H130530   0.602   0.526   8.406  1.1537 -0.2472  0.7429
 2965TIP3    H230531   0.512   0.588   8.510 -0.0983  1.4942 -1.2808
 2966TIP3   OH230532   0.560   4.106   1.261 -0.1557 -0.1254  0.3022
 2966TIP3    H130533   0.560   4.015   1.231 -0.7500 -0.0209 -0.0335
 2966TIP3    H230534   0.490   4.148   1.212 -0.1880  0.4099  0.7851
 2967TIP3   OH230535   4.946   4.592   0.319  0.1057  0.7738  0.3353
 2967TIP3    H130536   4.980   4.531   0.253  1.2855  0.6757  0.9962
 2967TIP3    H230537   4.951   4.678   0.277  0.3546  0.6537  0.1121
 2968TIP3   OH230538   5.919   2.402   1.355  0.3267 -0.1523  0.0146
 2968TIP3    H130539   5.977   2.352   1.413 -0.7064 -0.1593  1.0630
 2968TIP3    H230540   5.923   2.354   1.272  1.0370 -0.7290  0.3613
 2969TIP3   OH230541   5.759   4.866   1.738  0.0502  0.3837  0.5457
 2969TIP3    H130542   5.712   4.860   1.655 -0.5469  0.1133  0.8963
 2969TIP3    H230543   5.847   4.834   1.718 -0.8713 -2.4826  0.6103
 2970TIP3   OH230544   3.765   2.977   2.497 -0.2354  0.2693 -0.1946
 2970TIP3    H130545   3.849   2.964   2.454 -1.2051 -0.8377 -1.8760
 2970TIP3    H230546   3.783   2.961   2.590  1.6567  1.4376 -0.2992
 2971TIP3   OH230547   0.665   6.638   2.611 -0.2071 -0.2958 -0.3280
 2971TIP3    H130548   0.639   6.730   2.611  0.7657  0.0160  1.4414
 2971TIP3    H230549   0.616   6.599   2.683  0.1899 -0.9261 -0.3908
 2972TIP3   OH230550   4.336   1.990   0.183 -0.0201 -0.0860 -0.6071
 2972TIP3    H130551   4.294   1.905   0.199  0.7339 -0.4451 -0.4976
 2972TIP3    H230552   4.428   1.976   0.203  0.1504  0.7142 -0.7721
 2973TIP3   OH230553   0.720   0.004   0.245 -0.8435  0.1975 -0.1054
 2973TIP3    H130554   0.753   0.085   0.205 -2.5973  1.2782  0.5241
 2973TIP3    H230555   0.726  -0.061   0.175  1.0285  0.7093 -0.4909
 2974TIP3   OH230556   5.858   4.692   8.232 -0.2083  0.1535  0.7288
 2974TIP3    H130557   5.871   4.624   8.299 -1.7756  0.0949  1.0045
 2974TIP3    H230558   5.780   4.665   8.185 -0.3227  1.2925  0.2298
 2975TIP3   OH230559   4.354   2.077   0.678  0.2105 -0.2669  0.1000
 2975TIP3    H130560   4.401   2.031   0.748  0.1769  2.2406  1.8885
 2975TIP3    H230561   4.357   2.169   0.703 -0.3282  0.6995 -2.9500
 2976TIP3   OH230562   4.607   0.607   0.270  0.2137  0.1154 -0.2048
 2976TIP3    H130563   4.558   0.533   0.306  0.3194  0.8007  1.4405
 2976TIP3    H230564   4.583   0.609   0.178 -2.2190 -0.1019  0.3436
 2977TIP3   OH230565   4.280   1.465   1.742 -0.2559 -0.2175 -0.4337
 2977TIP3    H130566   4.342   1.535   1.760 -1.4114  0.5182  0.8303
 2977TIP3    H230567   4.235   1.451   1.825 -2.4889 -0.0202 -1.5521
 2978TIP3   OH230568   0.078   1.733   2.049 -0.4648 -0.2374 -0.6149
 2978TIP3    H130569   0.139   1.699   2.114 -0.5539 -1.3054 -1.0664
 2978TIP3    H230570   0.105   1.823   2.035  0.3066 -0.3657  0.0104
 2979TIP3   OH230571   2.339   6.737   2.228 -0.0096 -0.2874  0.0507
 2979TIP3    H130572   2.416   6.718   2.174 -0.3682 -0.7878 -0.2965
 2979TIP3    H230573   2.369   6.804   2.290 -0.0982  1.7596 -1.9793
 2980TIP3   OH230574   6.314   2.665   8.170 -0.7571  0.0912 -0.0010
 2980TIP3    H130575   6.238   2.702   8.215 -1.0550  0.9550 -1.1750
 2980TIP3    H230576   6.292   2.572   8.161 -0.5942 -0.1568  1.7782
 2981TIP3   OH230577   2.295   2.297   2.800  0.5369  0.2437  0.1449
 2981TIP3    H130578   2.278   2.288   2.894  0.5470  1.6669  0.2978
 2981TIP3    H230579   2.314   2.390   2.787 -1.1324  0.4172 -1.5206
 2982TIP3   OH230580   6.605   3.931   3.364  0.0284  0.2107 -0.1754
 2982TIP3    H130581   6.521   3.928   3.409  0.3389 -0.2925  0.3909
 2982TIP3    H230582   6.669   3.903   3.430  0.4049 -1.2716 -1.1135
 2983TIP3   OH230583   1.848   4.963   1.896 -0.4821  0.0124  0.0546
 2983TIP3    H130584   1.924   4.952   1.953 -0.1830  1.0252 -0.1315
 2983TIP3    H230585   1.774   4.965   1.956 -0.3647 -0.8804  0.2455
 2984TIP3   OH230586   1.334   0.277   7.805  0.1588 -0.0007  0.3074
 2984TIP3    H130587   1.388   0.203   7.832  0.4429  0.1275  0.0983
 2984TIP3    H230588   1.296   0.250   7.721  1.0970  0.4910 -0.2968
 2985TIP3   OH230589   5.300   1.205   8.429  1.0456  0.0143  0.3173
 2985TIP3    H130590   5.264   1.257   8.356 -2.1951  0.0004  1.7573
 2985TIP3    H230591   5.245   1.127   8.432 -0.5904  1.0939  4.1534
 2986TIP3   OH230592   2.139   6.488   0.010  0.1476  0.3126  0.2218
 2986TIP3    H130593   2.110   6.414  -0.044  1.2705  0.1366 -0.1629
 2986TIP3    H230594   2.140   6.562  -0.051 -0.7014  0.6018  0.5408
 2987TIP3   OH230595   4.946   2.898   8.865 -0.5068 -0.0397 -0.1368
 2987TIP3    H130596   4.983   2.813   8.843 -0.9027 -0.5867  1.1953
 2987TIP3    H230597   5.018   2.947   8.905 -0.3091  0.2110 -0.7970
 2988TIP3   OH230598   6.682   2.152   0.080 -0.4197 -0.0686 -0.5163
 2988TIP3    H130599   6.589   2.131   0.070 -0.7056  0.3660  0.9504
 2988TIP3    H230600   6.682   2.242   0.113  0.5029 -0.2657  0.0309
 2989TIP3   OH230601   1.198   4.626   1.510 -0.5654  0.3358  0.2031
 2989TIP3    H130602   1.124   4.600   1.455 -0.8086  0.4810  0.4608
 2989TIP3    H230603   1.219   4.548   1.561  0.2184 -0.0746 -0.7040
 2990TIP3   OH230604   5.940   1.101   1.549 -0.0780 -0.4028  0.6297
 2990TIP3    H130605   5.861   1.049   1.538 -0.8369  1.2168 -2.6006
 2990TIP3    H230606   6.011   1.043   1.520 -0.5817 -0.5100 -0.3980
 2991TIP3   OH230607   1.061   3.018   8.797  0.8375  0.1506  0.0530
 2991TIP3    H130608   1.063   3.001   8.891  1.5556  0.3775  0.0879
 2991TIP3    H230609   1.095   2.938   8.757 -2.6918 -1.3750 -0.2769
 2992TIP3   OH230610   6.238   3.740   0.008  0.7236  0.0521  0.1198
 2992TIP3    H130611   6.159   3.736   0.062  1.4192  1.1445  1.2759
 2992TIP3    H230612   6.267   3.831   0.015  3.0038 -0.6741  1.0916
 2993TIP3   OH230613   3.574   3.990   1.687 -0.0545  0.2578  0.5188
 2993TIP3    H130614   3.556   4.076   1.725  1.3894  0.7767  0.0900
 2993TIP3    H230615   3.666   3.993   1.662 -0.4904 -0.6784 -1.4223
 2994TIP3   OH230616   0.651   6.587   0.060 -0.2499  0.2891  0.1478
 2994TIP3    H130617   0.599   6.570  -0.019 -0.4318  1.0712  0.0893
 2994TIP3    H230618   0.588   6.614   0.126  0.1226  1.9399 -0.1251
 2995TIP3   OH230619   1.496   0.035   8.482  0.2376  0.4809 -0.1567
 2995TIP3    H130620   1.565   0.099   8.462  1.5581 -0.6574  0.5989
 2995TIP3    H230621   1.540  -0.050   8.481 -1.6370 -0.5589 -1.8925
 2996TIP3   OH230622   1.949   4.094   2.801  0.1869 -0.1590 -0.6948
 2996TIP3    H130623   2.041   4.087   2.777  0.1239  1.9815 -1.7683
 2996TIP3    H230624   1.925   4.184   2.780 -1.3043  0.3890  2.6338
 2997TIP3   OH230625   3.184   3.080   3.064  0.3166 -0.0675  0.0019
 2997TIP3    H130626   3.218   3.148   3.007  0.6292 -0.9270 -0.8613
 2997TIP3    H230627   3.204   2.998   3.019  0.0868 -0.7442  1.0845
 2998TIP3   OH230628   0.929   2.012   2.319  0.0646 -0.2433 -0.1335
 2998TIP3    H130629   0.997   2.005   2.253 -1.0081  3.1455 -1.8544
 2998TIP3    H230630   0.974   2.000   2.402  2.2916 -0.4780 -1.3065
 2999TIP3   OH230631   1.208   0.674   3.540  0.9597 -0.1328  0.0251
 2999TIP3    H130632   1.304   0.682   3.545  0.9678 -0.1287 -0.1313
 2999TIP3    H230633   1.183   0.636   3.624  0.9694  0.9821  0.5497
 3000TIP3   OH230634   5.773   0.132   1.260  0.6677  0.3746  0.7009
 3000TIP3    H130635   5.771   0.065   1.192 -1.0834  1.2709 -0.1903
 3000TIP3    H230636   5.809   0.087   1.336 -0.0647 -1.4777  0.0134
 3001TIP3   OH230637   3.200   2.587   0.793  0.2281  0.0239 -0.4234
 3001TIP3    H130638   3.115   2.562   0.757  0.5518  0.5343 -1.5632
 3001TIP3    H230639   3.217   2.674   0.757  1.7205 -0.5097 -1.0865
 3002TIP3   OH230640   5.247   6.074   8.929  0.1683  0.4513  0.4554
 3002TIP3    H130641   5.327   6.127   8.927  0.8492 -0.5831 -1.3045
 3002TIP3    H230642   5.207   6.089   8.844 -2.0725  1.6787  1.6265
 3003TIP3   OH230643   2.244   6.504   2.091 -0.1129  0.4597 -0.2026
 3003TIP3    H130644   2.269   6.570   2.155  1.8343 -1.6161  1.3808
 3003TIP3    H230645   2.186   6.445   2.139  0.2117 -0.3548 -0.7884
 3004TIP3   OH230646   2.625   5.162   8.204 -0.9031 -0.5157 -0.4995
 3004TIP3    H130647   2.543   5.202   8.233 -0.7635 -0.7791  0.2619
 3004TIP3    H230648   2.598   5.079   8.164 -0.9729 -0.7919  0.1195
 3005TIP3   OH230649   6.225   6.733   8.026 -0.0495  0.2319  0.0606
 3005TIP3    H130650   6.172   6.673   7.973  0.2805  0.0107 -0.0219
 3005TIP3    H230651   6.262   6.795   7.963  2.2860 -1.4367 -0.3659
 3006TIP3   OH230652   3.730   2.896   1.470 -0.1635  0.2722 -0.1393
 3006TIP3    H130653   3.728   2.839   1.393  1.5547  0.9719 -0.7429
 3006TIP3    H230654   3.712   2.838   1.544  1.1211 -0.9793 -0.7778
 3007TIP3   OH230655   0.632   1.469   8.496 -0.0834  0.2548  0.5889
 3007TIP3    H130656   0.541   1.460   8.466 -0.1496  0.3648  0.7502
 3007TIP3    H230657   0.637   1.412   8.573 -0.4700  1.4658  1.5401
 3008TIP3   OH230658   0.237   2.619   8.163 -0.3139 -0.5816 -0.3088
 3008TIP3    H130659   0.291   2.541   8.165 -1.9090 -1.7629 -0.8380
 3008TIP3    H230660   0.217   2.633   8.070 -0.1843  0.3540 -0.2047
 3009TIP3   OH230661   4.130   6.687   8.964  0.6216  0.2325 -0.0443
 3009TIP3    H130662   4.106   6.629   9.036  0.0412 -1.3302 -1.4522
 3009TIP3    H230663   4.145   6.772   9.006  0.6171 -0.7027  1.9489
 3010TIP3   OH230664   4.275   3.099   0.014  0.8722  0.3486  0.3925
 3010TIP3    H130665   4.333   3.023   0.022  0.7762  0.2786  0.4247
 3010TIP3    H230666   4.194   3.071   0.056  1.0490  0.6948  0.9800
 3011TIP3   OH230667   2.562   1.322   2.594 -0.0353  0.1666 -0.5805
 3011TIP3    H130668   2.636   1.344   2.538  0.2962  0.8567  0.1083
 3011TIP3    H230669   2.572   1.379   2.670 -0.0921 -1.2270  0.5038
 3012TIP3   OH230670   2.510   1.477   2.800 -0.3418  0.0718  0.1728
 3012TIP3    H130671   2.496   1.471   2.895 -0.9141  0.1281  0.0974
 3012TIP3    H230672   2.509   1.570   2.781  0.6007  0.0967  0.2237
 3013TIP3   OH230673   4.041   4.062   0.196 -0.2395 -0.5922  0.5203
 3013TIP3    H130674   4.075   4.112   0.121  0.1064  0.3056  1.2521
 3013TIP3    H230675   4.027   3.974   0.162 -1.2587  0.0895 -0.9325
 3014TIP3   OH230676   0.757   2.302   8.602 -0.3439 -0.3620 -0.8602
 3014TIP3    H130677   0.747   2.383   8.551 -0.9651  0.1630  0.0652
 3014TIP3    H230678   0.701   2.315   8.679  1.1958 -0.7661  0.3836
 3015TIP3   OH230679   3.583   3.870   0.448 -0.6695 -0.2850 -0.8576
 3015TIP3    H130680   3.573   3.943   0.510 -0.5036 -1.0830  0.1408
 3015TIP3    H230681   3.502   3.871   0.397 -0.9571  0.1940 -0.4096
 3016TIP3   OH230682   0.846   0.175   8.944 -0.3671  0.2272  0.4355
 3016TIP3    H130683   0.903   0.245   8.912 -0.6938  1.1770  1.8366
 3016TIP3    H230684   0.841   0.114   8.871  1.4559  0.7113 -0.1697
 3017TIP3   OH230685   6.579   5.876   0.430  0.1339  0.5374  0.2781
 3017TIP3    H130686   6.661   5.925   0.431  0.7497 -0.4109  2.9032
 3017TIP3    H230687   6.560   5.863   0.337  3.1645  0.4119 -0.4132
 3018TIP3   OH230688   6.175   2.255   8.795  0.6601 -0.1115  0.5701
 3018TIP3    H130689   6.162   2.188   8.728  1.0057 -0.4652  0.8507
 3018TIP3    H230690   6.264   2.239   8.828  0.3473 -0.1938  1.3906
 3019TIP3   OH230691   5.582   2.875   0.026 -0.0416  0.0658  0.6427
 3019TIP3    H130692   5.631   2.908   0.101 -0.5149  1.4918  0.3627
 3019TIP3    H230693   5.650   2.852  -0.038  0.3366 -0.4177  1.2083
 3020TIP3   OH230694   3.449   4.634   8.106  0.4006  0.1063  0.2128
 3020TIP3    H130695   3.385   4.671   8.166 -0.4876 -0.8410 -0.1323
 3020TIP3    H230696   3.433   4.680   8.023  0.7106  0.4315  0.3289
 3021TIP3   OH230697   1.617   0.787   0.101  0.4172  0.0417 -0.1166
 3021TIP3    H130698   1.557   0.855   0.067  0.8209 -0.0953 -1.1599
 3021TIP3    H230699   1.567   0.743   0.169 -0.4357  0.3581 -0.5188
 3022TIP3   OH230700   3.046   0.262   0.182  0.3609  0.3626  0.2835
 3022TIP3    H130701   3.137   0.288   0.169  0.8005 -0.4200  1.6221
 3022TIP3    H230702   3.035   0.258   0.277  0.2425 -3.7433  0.2919
 3023TIP3   OH230703   4.022   5.541   1.532 -0.4463  0.5439 -0.9884
 3023TIP3    H130704   3.944   5.556   1.586  0.9429  1.0246  1.0000
 3023TIP3    H230705   4.044   5.449   1.547  0.8399  1.0522  0.6621
 3024TIP3   OH230706   3.740   4.152   0.248 -0.5446 -0.2291  0.1975
 3024TIP3    H130707   3.812   4.103   0.289 -2.1578 -0.7444  2.5999
 3024TIP3    H230708   3.706   4.092   0.182  1.6374  0.3163 -1.5502
 3025TIP3   OH230709   0.988   1.657   2.310 -0.2133  0.0715 -0.5593
 3025TIP3    H130710   1.006   1.701   2.227 -0.6683  0.7008 -0.3342
 3025TIP3    H230711   0.993   1.563   2.289 -1.7364  0.1926 -1.6358
 3026TIP3   OH230712   2.739   4.081   0.158 -0.7294  0.8976 -0.1238
 3026TIP3    H130713   2.649   4.112   0.172 -0.7335  1.5383 -1.3999
 3026TIP3    H230714   2.778   4.081   0.245 -1.8434  1.0115  0.3952
 3027TIP3   OH230715   1.039   0.836   1.619 -0.6633  0.2120 -0.4257
 3027TIP3    H130716   1.062   0.791   1.538  0.1538 -0.0467 -0.0640
 3027TIP3    H230717   1.117   0.827   1.674 -1.1007  0.6362  0.2768
 3028TIP3   OH230718   0.432   5.406   1.908 -0.6109 -1.1743 -0.3132
 3028TIP3    H130719   0.502   5.451   1.861 -0.8127  0.7778  1.1317
 3028TIP3    H230720   0.368   5.384   1.840 -0.9728  1.7048 -1.0659
 3029TIP3   OH230721   2.745   5.712   1.279  0.5341 -0.6626  0.2235
 3029TIP3    H130722   2.754   5.631   1.328  3.1774 -1.3306 -1.1907
 3029TIP3    H230723   2.828   5.722   1.233 -0.6464  1.5530 -1.6384
 3030TIP3   OH230724   5.698   2.788   1.666 -0.2160 -0.0155  0.3175
 3030TIP3    H130725   5.613   2.794   1.712 -0.6930 -0.1254 -0.5297
 3030TIP3    H230726   5.748   2.725   1.718  0.5570  2.3667  2.6581
 3031TIP3   OH230727   6.593   4.363   8.538  0.0621 -0.6137 -0.4242
 3031TIP3    H130728   6.599   4.388   8.446  0.0325  0.9558 -0.0125
 3031TIP3    H230729   6.521   4.416   8.574 -0.2292 -1.5253  0.4138
 3032TIP3   OH230730   1.200   4.184   0.832  0.0480  0.6428 -0.0396
 3032TIP3    H130731   1.295   4.193   0.821  0.5607 -3.4104 -0.2736
 3032TIP3    H230732   1.186   4.195   0.926  1.2194 -1.1325  0.4075
 3033TIP3   OH230733   1.602   2.134   1.497  0.1849 -0.1693  0.1746
 3033TIP3    H130734   1.651   2.066   1.451  0.2975 -0.1721  0.3004
 3033TIP3    H230735   1.523   2.147   1.443  0.8313  0.5844 -0.6214
 3034TIP3   OH230736   0.427   1.386   0.063  0.7490 -0.4256 -0.2027
 3034TIP3    H130737   0.458   1.390   0.153  0.3946 -1.0491 -0.0448
 3034TIP3    H230738   0.335   1.410   0.068  0.5094 -1.2845 -0.2682
 3035TIP3   OH230739   2.920   5.508   0.960 -0.1514 -0.0948 -0.3095
 3035TIP3    H130740   2.847   5.470   1.009 -1.1026  0.2235 -1.4228
 3035TIP3    H230741   2.946   5.584   1.010 -1.9026  0.9317 -0.8579
 3036TIP3   OH230742   3.030   0.959   2.193 -0.0113 -0.4037 -0.3174
 3036TIP3    H130743   2.987   0.931   2.274 -1.1348  0.2371 -0.6664
 3036TIP3    H230744   3.098   1.021   2.223 -0.4949 -0.0773  0.1376
 3037TIP3   OH230745   3.869   4.605   3.070  0.4441 -0.8289 -0.3250
 3037TIP3    H130746   3.822   4.527   3.099 -0.0912 -0.3382  0.1468
 3037TIP3    H230747   3.881   4.657   3.149 -2.2376  1.1845 -1.1174
 3038TIP3   OH230748   3.576   5.265   2.530  0.0064 -0.7016 -0.3835
 3038TIP3    H130749   3.614   5.178   2.526  0.7641 -0.4522  0.8212
 3038TIP3    H230750   3.499   5.261   2.473 -0.4990 -2.4187  0.3679
 3039TIP3   OH230751   1.259   4.138   8.862  0.2739 -0.1654 -0.3588
 3039TIP3    H130752   1.286   4.122   8.952 -0.3437  1.5470  0.1556
 3039TIP3    H230753   1.336   4.176   8.820 -0.0021  0.8007 -0.0199
 3040TIP3   OH230754   0.493   4.610   3.092  0.3242 -0.0309  0.3918
 3040TIP3    H130755   0.513   4.596   3.000  1.1065  0.5053  0.4787
 3040TIP3    H230756   0.504   4.704   3.106  1.2366 -0.2476  1.2705
 3041TIP3   OH230757   5.134   4.235   0.304 -0.8388 -0.1975 -0.1430
 3041TIP3    H130758   5.217   4.213   0.348 -0.4680  0.7712 -0.3304
 3041TIP3    H230759   5.073   4.253   0.376 -0.8957 -0.9345 -0.0038
 3042TIP3   OH230760   0.139   4.789   1.161  0.0194 -0.2508 -0.0165
 3042TIP3    H130761   0.153   4.718   1.098  4.1152  0.4901 -0.1972
 3042TIP3    H230762   0.149   4.869   1.109  0.2978  0.4184  1.0520
 3043TIP3   OH230763   2.547   4.883   1.610 -0.1132 -0.3840 -0.5715
 3043TIP3    H130764   2.527   4.848   1.697 -1.0836  2.2484  0.3718
 3043TIP3    H230765   2.617   4.946   1.625  0.1194 -0.3195 -1.8085
 3044TIP3   OH230766   3.719   1.782   0.703 -0.2297 -0.2513  0.5084
 3044TIP3    H130767   3.658   1.783   0.776 -0.6664 -1.0752  0.1683
 3044TIP3    H230768   3.727   1.689   0.680  0.9874 -0.1469  0.4086
 3045TIP3   OH230769   5.187   4.961   8.782 -0.0804 -0.0312 -0.5363
 3045TIP3    H130770   5.097   4.979   8.809  0.0363 -0.3360  0.0804
 3045TIP3    H230771   5.229   5.048   8.781 -0.4165  0.1270 -0.9707
 3046TIP3   OH230772   1.429   1.441   3.602 -0.1415  0.3926 -0.3351
 3046TIP3    H130773   1.424   1.426   3.508 -0.0564 -0.1337 -0.2595
 3046TIP3    H230774   1.382   1.523   3.616 -0.6908  0.1540 -0.7583
 3047TIP3   OH230775   4.044   5.187   0.381  0.6387 -0.3391  0.3343
 3047TIP3    H130776   4.103   5.130   0.332  0.6317  1.0423 -1.3660
 3047TIP3    H230777   3.957   5.163   0.350  0.6995  1.3565 -1.3714
 3048TIP3   OH230778   5.090   1.634   2.112  0.3241  0.4264  0.2403
 3048TIP3    H130779   5.139   1.587   2.180 -1.2159 -0.0673  1.0644
 3048TIP3    H230780   5.155   1.652   2.043  2.0130  1.2323  1.9515
 3049TIP3   OH230781   2.243   3.372   2.211 -0.4716  0.1342  0.2377
 3049TIP3    H130782   2.150   3.391   2.228 -0.0468  2.3350  0.3095
 3049TIP3    H230783   2.247   3.276   2.207 -2.7298 -0.0141  0.2981
 3050TIP3   OH230784   6.760   3.820   2.003  0.2795 -0.8441 -0.0876
 3050TIP3    H130785   6.822   3.810   1.931 -0.0221 -1.7698 -0.2299
 3050TIP3    H230786   6.801   3.775   2.077  0.2679 -0.5083  0.1259
 3051TIP3   OH230787   3.930   6.381   7.929 -0.3769  0.4152 -0.3527
 3051TIP3    H130788   3.864   6.432   7.977  0.8645  1.7338  0.0156
 3051TIP3    H230789   3.920   6.407   7.838  0.7851  2.0137 -0.0668
 3052TIP3   OH230790   1.760   4.815   2.936 -0.2027  0.9811  0.3963
 3052TIP3    H130791   1.833   4.796   2.994  0.6538  1.1897 -0.5833
 3052TIP3    H230792   1.729   4.729   2.906 -1.2238  0.8251  1.8202
 3053TIP3   OH230793   1.900   6.292   8.887 -0.2249  0.3271 -0.3688
 3053TIP3    H130794   1.880   6.206   8.852 -1.5164  1.0251 -1.4252
 3053TIP3    H230795   1.815   6.329   8.913  0.6045 -0.4655  4.5725
 3054TIP3   OH230796   1.696   0.010   1.957 -0.3048  0.0491 -0.5107
 3054TIP3    H130797   1.686   0.053   2.042 -1.4420 -0.2816 -0.4594
 3054TIP3    H230798   1.787   0.026   1.933  1.5281 -3.6235  2.8418
 3055TIP3   OH230799   4.351   2.886   2.622  0.5567  0.2138  0.0679
 3055TIP3    H130800   4.358   2.917   2.532  0.8253  0.7479  0.2722
 3055TIP3    H230801   4.260   2.903   2.647  0.6584  0.6780  0.1217
 3056TIP3   OH230802   5.947   3.078   8.674  0.5752  0.0492  0.0175
 3056TIP3    H130803   6.037   3.066   8.645  0.5465  0.1231 -0.1015
 3056TIP3    H230804   5.900   3.002   8.641  0.8777 -0.6956  1.2527
 3057TIP3   OH230805   5.942   4.286   2.100  0.4051 -0.2941 -0.1557
 3057TIP3    H130806   5.851   4.308   2.077  0.1605 -0.6711  0.4261
 3057TIP3    H230807   5.991   4.301   2.020 -0.7261 -3.5554 -1.6165
 3058TIP3   OH230808   0.840   0.115   3.680 -0.0162  0.0882  0.4726
 3058TIP3    H130809   0.857   0.090   3.771 -2.2301  1.3942  1.3389
 3058TIP3    H230810   0.862   0.208   3.677 -2.7791  0.8217  0.5807
 3059TIP3   OH230811   1.606   3.798   0.020 -0.3334  0.0872  0.9738
 3059TIP3    H130812   1.654   3.832  -0.056 -1.9605  1.3881  0.4557
 3059TIP3    H230813   1.673   3.779   0.085  1.0616 -0.5402 -0.5847
 3060TIP3   OH230814   3.975   3.298   8.935  0.2087  0.9355  0.5330
 3060TIP3    H130815   3.977   3.310   8.840 -0.6886 -0.9277  0.2160
 3060TIP3    H230816   3.981   3.203   8.947 -4.7977  0.4842  1.9909
 3061TIP3   OH230817   5.526   0.037   1.518  0.3179  0.0186 -0.5059
 3061TIP3    H130818   5.463  -0.025   1.479  1.3707 -0.0875 -2.1402
 3061TIP3    H230819   5.607  -0.014   1.526  0.7423  0.7203 -0.3216
 3062TIP3   OH230820   4.184   5.752   0.900  0.1736 -0.4996 -0.0394
 3062TIP3    H130821   4.231   5.669   0.911  1.0015 -0.0269  0.0533
 3062TIP3    H230822   4.105   5.729   0.850  0.0941 -1.4385  0.5096
 3063TIP3   OH230823   3.873   0.730   0.223 -0.1776 -0.0652 -0.0138
 3063TIP3    H130824   3.938   0.749   0.291  0.7471 -2.1173 -0.2495
 3063TIP3    H230825   3.845   0.816   0.192  1.6518  0.8890  0.8114
 3064TIP3   OH230826   5.242   1.113   2.865 -0.2154 -0.5913  0.1069
 3064TIP3    H130827   5.191   1.092   2.943  0.3648  1.9002  1.2382
 3064TIP3    H230828   5.326   1.070   2.879  0.3276  0.8537  1.4913
 3065TIP3   OH230829   1.452   0.417   2.761  0.4401  0.4398  0.2706
 3065TIP3    H130830   1.478   0.500   2.800 -0.6194  1.9956 -2.1040
 3065TIP3    H230831   1.359   0.408   2.781  0.1883  0.6347 -0.7158
 3066TIP3   OH230832   5.895   2.174   8.262  0.4723 -0.2332 -0.1043
 3066TIP3    H130833   5.948   2.096   8.279 -2.6971 -2.3141  1.2255
 3066TIP3    H230834   5.863   2.200   8.349 -1.0665  0.5588 -0.8722
 3067TIP3   OH230835   3.666   2.711   8.727  0.4511 -0.6746 -0.4464
 3067TIP3    H130836   3.626   2.796   8.710 -0.1856 -1.0988 -1.1065
 3067TIP3    H230837   3.645   2.693   8.819 -1.1455 -1.0203 -0.8603
 3068TIP3   OH230838   5.380   4.401   8.806 -0.1115 -0.8027 -0.1125
 3068TIP3    H130839   5.387   4.383   8.899  0.8582  0.5665  0.1117
 3068TIP3    H230840   5.313   4.470   8.800  0.0799 -0.6361 -0.3856
 3069TIP3   OH230841   3.787   2.008   0.073 -0.4606 -0.0290 -0.1429
 3069TIP3    H130842   3.815   2.000   0.164  0.7004  0.4990 -0.4307
 3069TIP3    H230843   3.692   2.018   0.077 -0.4791 -0.5709  0.9648
 3070TIP3   OH230844   4.612   5.389   3.020 -0.0761 -0.1852  0.3046
 3070TIP3    H130845   4.674   5.331   3.063  1.0300  0.6681 -0.0941
 3070TIP3    H230846   4.666   5.459   2.983 -1.1042 -0.2219 -1.3800
 3071TIP3   OH230847   3.534   0.340   0.615  0.1124  0.0324  0.7403
 3071TIP3    H130848   3.583   0.282   0.556  1.9022  1.5679  0.6353
 3071TIP3    H230849   3.444   0.308   0.610  0.8015 -1.9219 -0.2927
 3072TIP3   OH230850   0.643   6.080   1.644  0.5486 -0.1473 -0.2425
 3072TIP3    H130851   0.596   6.031   1.711  0.2601  2.6371  1.7654
 3072TIP3    H230852   0.735   6.062   1.662  0.4156 -1.7931 -1.0846
 3073TIP3   OH230853   1.786   4.268   7.338 -0.1499  0.2538  0.1594
 3073TIP3    H130854   1.800   4.362   7.340  1.8862 -0.0157  0.9816
 3073TIP3    H230855   1.873   4.230   7.349 -0.8769 -1.7390 -0.4109
 3074TIP3   OH230856   0.013   6.030   0.380 -0.3388 -1.0280  0.1937
 3074TIP3    H130857   0.099   5.988   0.383 -0.3794 -1.0695  0.8545
 3074TIP3    H230858  -0.001   6.047   0.287  0.3268 -1.1359  0.0638
 3075TIP3   OH230859   3.574   3.913   8.156 -0.1040  0.0452 -0.0530
 3075TIP3    H130860   3.623   3.991   8.128 -1.5493  0.6559 -1.0155
 3075TIP3    H230861   3.640   3.856   8.195  1.1060  1.4769  0.0957
 3076TIP3   OH230862   0.996   1.490   8.137  0.3242  0.5144 -0.0145
 3076TIP3    H130863   1.041   1.539   8.207  0.1913 -1.5006  1.5554
 3076TIP3    H230864   1.051   1.504   8.060  0.3842  2.9464  0.3847
 3077TIP3   OH230865   4.824   3.922   0.064 -0.1234 -0.3374 -0.3831
 3077TIP3    H130866   4.846   3.851   0.124 -2.4036 -1.1408 -0.4065
 3077TIP3    H230867   4.873   3.901  -0.016  0.5182 -0.9548  0.1535
 3078TIP3   OH230868   3.130   4.114   1.071 -0.1249  0.6351  0.3386
 3078TIP3    H130869   3.211   4.106   1.021  0.7735 -2.3777  1.9846
 3078TIP3    H230870   3.154   4.165   1.148  0.3072 -0.4024  0.9098
 3079TIP3   OH230871   3.312   5.883   0.296  0.3287 -0.2861  0.1637
 3079TIP3    H130872   3.365   5.820   0.345 -0.0610 -0.5361  0.2687
 3079TIP3    H230873   3.351   5.968   0.317  1.2359 -0.5292 -0.4513
 3080TIP3   OH230874   5.433   3.151   2.691  0.0114 -0.5585 -0.3342
 3080TIP3    H130875   5.477   3.191   2.766  0.5419  0.0294 -0.9416
 3080TIP3    H230876   5.502   3.101   2.647 -0.3711 -1.1564 -0.2565
 3081TIP3   OH230877   5.292   4.070   1.839  0.4313  0.0461 -0.0940
 3081TIP3    H130878   5.388   4.068   1.834  0.5627 -0.0957  1.7942
 3081TIP3    H230879   5.267   3.980   1.859 -0.2400 -0.2272 -1.9931
 3082TIP3   OH230880   4.582   1.975   0.302 -0.0360  0.2109 -0.5494
 3082TIP3    H130881   4.670   2.014   0.301  0.1031 -0.0932 -0.1946
 3082TIP3    H230882   4.576   1.932   0.388 -0.4707  0.0931 -0.6397
 3083TIP3   OH230883   4.974   2.883   1.728 -0.1160  0.3879  0.0002
 3083TIP3    H130884   5.027   2.824   1.674 -1.6237  0.8114 -2.0695
 3083TIP3    H230885   4.930   2.825   1.790 -0.3469 -0.4850 -0.9421
 3084TIP3   OH230886   4.060   2.382   8.927 -0.6360  0.1997 -0.3954
 3084TIP3    H130887   3.972   2.404   8.957 -0.7150  1.3313 -1.4135
 3084TIP3    H230888   4.106   2.465   8.923  0.5247 -0.3857  0.1977
 3085TIP3   OH230889   2.644   1.588   2.053 -0.4846 -0.3997 -0.6457
 3085TIP3    H130890   2.552   1.576   2.032 -0.6452 -2.1882  0.9012
 3085TIP3    H230891   2.665   1.517   2.113  1.0669  1.8566  1.6721
 3086TIP3   OH230892   0.496   5.147   2.769 -0.4641 -0.0029  0.5359
 3086TIP3    H130893   0.506   5.240   2.747 -0.4539 -0.2075 -0.3913
 3086TIP3    H230894   0.428   5.145   2.836 -0.0146  0.7242  1.0209
 3087TIP3   OH230895   4.089   2.177   3.423 -0.2352 -0.1681  0.3118
 3087TIP3    H130896   4.053   2.248   3.371 -1.1097 -0.3637  0.6364
 3087TIP3    H230897   4.184   2.192   3.422 -0.2705  0.0684 -0.9584
 3088TIP3   OH230898   5.151   2.062   7.759  0.3113 -0.2910  0.4374
 3088TIP3    H130899   5.151   2.131   7.825 -0.7964  0.3425 -0.1753
 3088TIP3    H230900   5.160   2.109   7.676  1.3596 -1.0468  0.1176
 3089TIP3   OH230901   2.957   2.632   8.423  0.1389 -0.2306  0.5275
 3089TIP3    H130902   2.946   2.667   8.511  0.4190 -0.2987  0.5932
 3089TIP3    H230903   3.051   2.641   8.405  0.0601 -0.0749  0.1751
 3090TIP3   OH230904   5.433   2.383   1.400 -0.1780 -0.1232  0.4130
 3090TIP3    H130905   5.515   2.424   1.427 -1.0340  2.2153 -0.3041
 3090TIP3    H230906   5.460   2.308   1.348  1.5288  0.7566 -0.0386
 3091TIP3   OH230907   5.176   2.937   8.509  0.3244 -0.1407  1.0117
 3091TIP3    H130908   5.243   2.922   8.576  1.1944 -1.9126 -0.1601
 3091TIP3    H230909   5.209   3.011   8.459  0.3260  0.3550  1.7335
 3092TIP3   OH230910   1.714   4.272   1.938  0.2638  0.0817  0.7463
 3092TIP3    H130911   1.743   4.294   1.849  0.2098 -0.1547  0.6686
 3092TIP3    H230912   1.737   4.180   1.948 -1.0411 -0.3001  0.4378
 3093TIP3   OH230913   3.989   4.229   8.529 -0.1832  0.1828 -0.0930
 3093TIP3    H130914   4.022   4.229   8.619 -1.0942 -1.1851  0.2797
 3093TIP3    H230915   3.939   4.311   8.522  3.6919  2.7735 -0.9459
 3094TIP3   OH230916   4.672   0.550   2.301  0.8627  0.3134 -0.0419
 3094TIP3    H130917   4.637   0.634   2.274 -0.3098 -0.0345  0.3519
 3094TIP3    H230918   4.666   0.551   2.397 -0.1070 -0.6022 -0.0784
 3095TIP3   OH230919   6.702   5.451   1.106 -0.5189 -0.1748  0.7816
 3095TIP3    H130920   6.695   5.487   1.194  1.7434 -0.1614  1.0107
 3095TIP3    H230921   6.682   5.524   1.048 -0.6070  0.1920  1.2696
 3096TIP3   OH230922   5.588   1.115   0.636  0.3784 -0.4695  0.2395
 3096TIP3    H130923   5.503   1.106   0.679  0.3581 -2.9982 -0.1685
 3096TIP3    H230924   5.639   1.041   0.668  1.9081  0.1162 -0.7164
 3097TIP3   OH230925   2.984   2.790   8.055  0.2455 -0.0226 -0.1862
 3097TIP3    H130926   3.034   2.801   8.136  0.8634  1.6573 -0.7517
 3097TIP3    H230927   2.899   2.757   8.083  0.3698  0.7520  1.1716
 3098TIP3   OH230928   6.000   4.940   0.699  0.1907 -0.2820  0.4645
 3098TIP3    H130929   6.093   4.950   0.681 -0.2855  1.9259 -1.3030
 3098TIP3    H230930   5.995   4.869   0.763  3.0473 -0.5137  0.5610
 3099TIP3   OH230931   1.004   4.352   0.359  0.2871  0.5901  1.1059
 3099TIP3    H130932   1.052   4.274   0.387 -0.7277 -0.3842  0.2270
 3099TIP3    H230933   0.940   4.367   0.429 -0.3614 -0.1363  0.6733
 3100TIP3   OH230934   2.300   4.058   1.166  0.2356  0.3699  0.1188
 3100TIP3    H130935   2.389   4.084   1.190  0.1081 -0.1895  1.2563
 3100TIP3    H230936   2.302   3.963   1.162 -0.1865  0.3743 -0.3883
 3101TIP3   OH230937   4.617   1.660   7.594 -0.4662 -0.4285  0.3253
 3101TIP3    H130938   4.609   1.665   7.498  0.1427  0.6013  0.3088
 3101TIP3    H230939   4.582   1.574   7.616  0.5497 -1.2211 -0.9663
 3102TIP3   OH230940   5.519   0.899   1.063  0.3686 -0.3062 -0.0076
 3102TIP3    H130941   5.542   0.906   1.156  1.0465 -0.4551 -0.1566
 3102TIP3    H230942   5.441   0.954   1.053  1.2811  1.1003  0.3246
 3103TIP3   OH230943   4.528   2.691   1.982 -0.3406 -0.2114  0.0304
 3103TIP3    H130944   4.465   2.695   1.911  0.4584  0.2440 -0.6784
 3103TIP3    H230945   4.485   2.736   2.055 -1.2550 -0.8777 -0.0842
 3104TIP3   OH230946   0.498   2.207   0.472 -0.3636  0.2061 -0.0859
 3104TIP3    H130947   0.471   2.176   0.386 -1.7477  2.3952 -0.5318
 3104TIP3    H230948   0.420   2.199   0.527  0.0292  0.3463  0.5097
 3105TIP3   OH230949   2.437   5.018   7.073  0.1692  0.3597  0.1532
 3105TIP3    H130950   2.351   5.044   7.106  0.2967 -0.8473  1.5193
 3105TIP3    H230951   2.434   4.922   7.069  1.1458  0.3450 -0.6447
 3106TIP3   OH230952   4.941   4.693   2.594  0.0268 -0.1139 -0.0223
 3106TIP3    H130953   4.961   4.733   2.509 -0.6802  0.8095  0.2337
 3106TIP3    H230954   4.984   4.749   2.658  0.1927 -0.5620  0.2616
 3107TIP3   OH230955   1.548   2.205   8.956 -1.0219  0.4696 -0.1302
 3107TIP3    H130956   1.622   2.208   8.896 -1.0704  0.5822 -0.1852
 3107TIP3    H230957   1.588   2.191   9.042 -0.9598  0.2224 -0.1994
 3108TIP3   OH230958   5.357   1.338   2.970 -0.1897  0.1953 -0.0162
 3108TIP3    H130959   5.303   1.290   2.907  1.5249  0.1078 -1.4981
 3108TIP3    H230960   5.363   1.426   2.933  2.2317 -0.2998 -0.9766
 3109TIP3   OH230961   2.182   0.292   8.555 -1.0352 -0.0121  0.5983
 3109TIP3    H130962   2.263   0.283   8.506  0.7737  0.7223  3.2674
 3109TIP3    H230963   2.170   0.207   8.597 -1.6732 -0.1181  0.2170
 3110TIP3   OH230964   6.480   5.826   7.723  0.4544 -0.4563  0.0346
 3110TIP3    H130965   6.461   5.759   7.788  0.8592 -0.5029  0.1084
 3110TIP3    H230966   6.460   5.785   7.639  0.1856 -0.4860  0.1121
 3111TIP3   OH230967   0.113   5.253   1.049 -1.0097 -0.6523  0.5253
 3111TIP3    H130968   0.063   5.223   0.974  0.0511 -3.2877  0.7730
 3111TIP3    H230969   0.058   5.321   1.089 -2.3857 -0.4389 -1.5694
 3112TIP3   OH230970   3.902   6.448   8.730  0.3719 -0.1485  0.7059
 3112TIP3    H130971   3.898   6.354   8.747 -0.1399 -0.1644  0.5363
 3112TIP3    H230972   3.902   6.455   8.635  1.1549  0.0012  0.7153
 3113TIP3   OH230973   1.717   2.232   2.373 -0.2273 -0.2013 -0.3093
 3113TIP3    H130974   1.639   2.261   2.324  2.0542  0.2490 -4.1266
 3113TIP3    H230975   1.741   2.308   2.426 -0.4849  1.0084 -1.8281
 3114TIP3   OH230976   3.898   1.941   1.807  0.3259  0.0526  0.0570
 3114TIP3    H130977   3.805   1.961   1.816  0.7706  2.0770  0.5576
 3114TIP3    H230978   3.930   1.932   1.897  0.5542 -1.0619 -0.1197
 3115TIP3   OH230979   1.595   3.568   1.864 -0.3943 -0.8137 -0.2331
 3115TIP3    H130980   1.670   3.621   1.890  0.6846 -2.1231 -0.5106
 3115TIP3    H230981   1.519   3.612   1.902  0.5764  0.2139  0.5745
 3116TIP3   OH230982   3.566   0.830   0.881 -0.2411 -0.5892 -0.1533
 3116TIP3    H130983   3.551   0.739   0.856  1.7195 -1.1440  0.4943
 3116TIP3    H230984   3.622   0.865   0.811  1.6360 -0.8564  1.1507
 3117TIP3   OH230985   0.828   4.492   2.484 -0.1822 -0.5029 -0.0663
 3117TIP3    H130986   0.773   4.489   2.406 -0.9498 -3.0624  0.4749
 3117TIP3    H230987   0.775   4.538   2.549 -0.8856 -1.1875 -0.1429
 3118TIP3   OH230988   2.380   5.930   2.086 -0.0293 -0.5536 -0.2851
 3118TIP3    H130989   2.391   5.977   2.003 -0.8620 -0.8478 -0.5655
 3118TIP3    H230990   2.458   5.954   2.137 -0.6808  1.5686 -0.1902
 3119TIP3   OH230991   0.053   4.495   0.945  0.1251  0.0127 -0.3738
 3119TIP3    H130992   0.019   4.406   0.958 -0.1947  0.1929  0.0586
 3119TIP3    H230993   0.027   4.518   0.856  1.6523 -0.9463 -1.1013
 3120TIP3   OH230994   0.858   5.726   0.622  0.4890  0.2402 -0.1109
 3120TIP3    H130995   0.841   5.738   0.716  0.1527 -1.8406  0.1627
 3120TIP3    H230996   0.876   5.632   0.614 -1.3618 -0.0040 -2.3915
 3121TIP3   OH230997   3.208   6.484   1.618  0.0714 -0.3882  0.4048
 3121TIP3    H130998   3.246   6.486   1.706 -0.3590  0.5338  0.5886
 3121TIP3    H230999   3.122   6.526   1.629 -0.6762 -1.7056 -0.1473
 3122TIP3   OH231000   2.421   2.573   8.459 -0.5841 -0.9340  0.0074
 3122TIP3    H131001   2.418   2.515   8.383 -1.9734 -0.5264 -0.2714
 3122TIP3    H231002   2.503   2.621   8.449 -0.6943 -0.9625 -1.1866
 3123TIP3   OH231003   3.541   6.275   0.088 -0.0393 -0.0704  0.1772
 3123TIP3    H131004   3.465   6.218   0.102  0.0007 -0.1017  0.2656
 3123TIP3    H231005   3.593   6.266   0.168 -0.1355  0.2469  0.2780
 3124TIP3   OH231006   3.970   1.173   0.102 -0.5579  0.1930 -1.0036
 3124TIP3    H131007   4.012   1.258   0.112  0.2830 -0.3419  0.2599
 3124TIP3    H231008   4.022   1.127   0.036 -0.0612  0.0853 -0.5377
 3125TIP3   OH231009   5.844   4.532   7.260  0.1278 -0.3364 -0.1265
 3125TIP3    H131010   5.805   4.523   7.346  1.8106  0.5532  0.7749
 3125TIP3    H231011   5.816   4.454   7.212 -0.3467 -1.1340  1.4071
 3126TIP3   OH231012   0.055   3.556   8.816 -0.0996 -0.2230 -0.6014
 3126TIP3    H131013   0.071   3.622   8.748  1.3509 -0.3067 -0.3820
 3126TIP3    H231014   0.134   3.502   8.815  0.2330  0.1511  1.5570
 3127TIP3   OH231015   6.198   6.696   0.165 -0.1991  0.2776 -0.2573
 3127TIP3    H131016   6.212   6.681   0.258  2.7499  1.1231 -0.4808
 3127TIP3    H231017   6.206   6.609   0.125 -1.5662 -0.1017  0.2223
 3128TIP3   OH231018   1.920   3.286   2.798  0.1611  0.4817  0.0802
 3128TIP3    H131019   1.831   3.278   2.763  0.6978 -1.7487 -1.0212
 3128TIP3    H231020   1.971   3.325   2.727  0.2070  1.0747  0.4361
 3129TIP3   OH231021   4.723   6.304   2.761  0.4488 -0.7984 -0.1548
 3129TIP3    H131022   4.805   6.271   2.798 -0.0841 -1.5524  0.3810
 3129TIP3    H231023   4.741   6.313   2.668  1.4441 -0.0055  0.0931
 3130TIP3   OH231024   1.130   1.151   3.293 -0.8479  0.4305 -0.2541
 3130TIP3    H131025   1.092   1.219   3.349 -0.6275  0.4371 -0.1098
 3130TIP3    H231026   1.203   1.117   3.344 -0.3486  0.7689 -0.7359
 3131TIP3   OH231027   2.689   2.482   1.638  0.9615  0.0146  0.1400
 3131TIP3    H131028   2.660   2.480   1.729 -0.3951 -0.8840 -0.2823
 3131TIP3    H231029   2.697   2.575   1.617 -0.7558  0.2850  0.5611
 3132TIP3   OH231030   3.991   3.362   2.083 -0.0430 -0.3021  0.0225
 3132TIP3    H131031   3.938   3.403   2.151  0.2926 -1.4383  1.0097
 3132TIP3    H231032   3.966   3.406   2.002 -0.9649  0.5947  0.7775
 3133TIP3   OH231033   6.739   5.946   8.783 -0.2112 -0.3674  0.0025
 3133TIP3    H131034   6.729   6.040   8.798 -1.6245 -0.8437  2.8824
 3133TIP3    H231035   6.650   5.913   8.775  0.2959 -1.3515 -2.4948
 3134TIP3   OH231036   3.004   6.298   0.600 -0.0075  0.2950  0.0904
 3134TIP3    H131037   2.971   6.379   0.561 -0.7492 -0.6514 -1.2939
 3134TIP3    H231038   3.002   6.315   0.695  0.1848  2.0108 -0.1793
 3135TIP3   OH231039   6.110   2.554   7.739 -0.1196 -0.0618 -0.9160
 3135TIP3    H131040   6.039   2.607   7.775  1.1581  1.3112 -0.3109
 3135TIP3    H231041   6.188   2.586   7.784  0.6031 -3.2021  0.3057
 3136TIP3   OH231042   1.759   6.712   2.746  0.1155  0.2224 -0.1433
 3136TIP3    H131043   1.733   6.755   2.827 -0.1149  1.9725 -1.0875
 3136TIP3    H231044   1.700   6.637   2.738 -1.5464  1.4505  0.0940
 3137TIP3   OH231045   2.532   5.525   7.739 -0.5746 -0.3808 -0.3399
 3137TIP3    H131046   2.605   5.511   7.679  0.3640 -1.7310  1.0444
 3137TIP3    H231047   2.554   5.606   7.785 -0.5061 -0.1923 -0.7036
 3138TIP3   OH231048   2.376   3.012   1.426  0.1209  0.3720  0.3539
 3138TIP3    H131049   2.411   2.960   1.498  0.3755  1.3875  0.9854
 3138TIP3    H231050   2.332   2.949   1.369  0.8681 -0.5891  0.8248
 3139TIP3   OH231051   6.160   3.795   0.495 -0.4192  0.4358 -0.1936
 3139TIP3    H131052   6.243   3.813   0.539 -1.1958  1.1341  1.0461
 3139TIP3    H231053   6.157   3.858   0.423  1.5261 -1.6588 -2.2932
 3140TIP3   OH231054   0.178   1.918   7.947 -0.0830 -0.1007  0.0364
 3140TIP3    H131055   0.214   1.988   7.894 -1.8517  0.5796 -0.3333
 3140TIP3    H231056   0.246   1.899   8.011  0.8477  1.2290 -0.5156
 3141TIP3   OH231057   4.614   4.542   7.770 -0.2635 -0.8132 -0.3863
 3141TIP3    H131058   4.640   4.472   7.709 -0.0382 -0.8004 -0.3066
 3141TIP3    H231059   4.560   4.601   7.717  0.6690 -0.3254 -0.8161
 3142TIP3   OH231060   1.859   0.156   0.116  0.2849  0.7346  0.5340
 3142TIP3    H131061   1.864   0.061   0.103  0.8252  1.0612 -2.4124
 3142TIP3    H231062   1.950   0.183   0.125  0.2552  1.1326 -0.2987
 3143TIP3   OH231063   3.238   3.217   1.133 -0.6914 -0.1208 -0.2845
 3143TIP3    H131064   3.307   3.209   1.198 -0.7905 -0.8159 -0.2602
 3143TIP3    H231065   3.176   3.147   1.154 -0.8648 -0.1756 -0.9466
 3144TIP3   OH231066   4.087   4.800   1.755  0.2083  0.3080  0.2985
 3144TIP3    H131067   4.106   4.806   1.849 -0.3510  0.4880  0.4008
 3144TIP3    H231068   4.009   4.854   1.743 -1.9388 -2.5461  0.3462
 3145TIP3   OH231069   5.884   6.662   3.009  0.1479  0.0766 -0.0344
 3145TIP3    H131070   5.865   6.651   3.102 -0.7383  0.1342 -0.2054
 3145TIP3    H231071   5.839   6.743   2.984  0.5962  0.2027 -0.4622
 3146TIP3   OH231072   0.603   6.438   1.057 -0.3544  0.0120  0.1562
 3146TIP3    H131073   0.639   6.521   1.027 -2.0110  0.3807 -0.9448
 3146TIP3    H231074   0.581   6.452   1.149 -2.2526  1.4309 -0.4510
 3147TIP3   OH231075   0.272   6.245   2.988 -0.0035 -0.3817  0.1220
 3147TIP3    H131076   0.254   6.308   2.918  1.3712  0.4638  0.5109
 3147TIP3    H231077   0.234   6.163   2.956  0.8612 -0.0950 -1.7772
 3148TIP3   OH231078   0.611   1.116   3.283  0.2553 -0.0255 -0.5717
 3148TIP3    H131079   0.690   1.171   3.281  0.5514 -0.4011  0.3399
 3148TIP3    H231080   0.579   1.124   3.373 -0.7319  0.0864 -0.9275
 3149TIP3   OH231081   6.338   6.640   1.127 -0.2484 -0.1163  0.0266
 3149TIP3    H131082   6.280   6.711   1.100 -1.0334 -0.9332 -0.5269
 3149TIP3    H231083   6.390   6.620   1.049 -0.8949 -0.9478 -0.2054
 3150TIP3   OH231084   3.835   1.234   0.870  0.3898  0.2320  0.2854
 3150TIP3    H131085   3.874   1.287   0.940 -0.8991  3.3036 -1.1162
 3150TIP3    H231086   3.767   1.183   0.914 -1.3896  3.1473  1.2578
 3151TIP3   OH231087   3.781   3.080   0.181  0.3678 -0.0140  0.0844
 3151TIP3    H131088   3.789   3.062   0.087  2.5358 -1.5504  0.5011
 3151TIP3    H231089   3.832   3.160   0.194 -1.9505  1.6428 -0.3517
 3152TIP3   OH231090   6.404   3.389   2.318  0.0173 -0.0593  0.2192
 3152TIP3    H131091   6.434   3.436   2.396  0.8806 -0.4569  0.1459
 3152TIP3    H231092   6.376   3.457   2.258  1.9340  0.4516 -0.1651
 3153TIP3   OH231093   6.148   2.985   2.164  0.1439  0.9880  0.0920
 3153TIP3    H131094   6.154   3.069   2.118 -2.4133  1.0664 -0.2830
 3153TIP3    H231095   6.073   2.996   2.223 -0.5450 -1.1802 -0.3023
 3154TIP3   OH231096   3.865   6.647   7.522  0.1700 -0.8290  0.1445
 3154TIP3    H131097   3.801   6.707   7.560  0.7712  0.2578 -0.5120
 3154TIP3    H231098   3.841   6.640   7.430  0.2434 -1.4277  0.1662
 3155TIP3   OH231099   4.124   1.146   2.053  0.1996  0.0560  0.2658
 3155TIP3    H131100   4.082   1.216   2.002 -1.3650 -1.1043 -0.1024
 3155TIP3    H231101   4.206   1.130   2.008  0.2701  1.1835 -0.0435
 3156TIP3   OH231102   3.772   6.494   8.159  0.7563  0.6926 -0.0752
 3156TIP3    H131103   3.724   6.498   8.241  1.6641  0.1325  0.5043
 3156TIP3    H231104   3.795   6.585   8.140 -3.1310  1.4966 -2.0372
 3157TIP3   OH231105   3.677   4.238   1.206 -0.2206  0.1315 -0.0361
 3157TIP3    H131106   3.704   4.147   1.196 -0.0458  0.0540  1.1092
 3157TIP3    H231107   3.755   4.288   1.182 -0.6753  0.0404 -1.8826
 3158TIP3   OH231108   1.825   3.398   8.435  0.3762 -0.0041 -0.4614
 3158TIP3    H131109   1.820   3.303   8.431  1.8097 -0.1146 -0.2861
 3158TIP3    H231110   1.780   3.422   8.515  0.1662 -0.5446 -0.4137
 3159TIP3   OH231111   1.783   4.304   0.940  0.4030 -0.5393  0.1216
 3159TIP3    H131112   1.826   4.386   0.916  0.8188  0.0886  2.6667
 3159TIP3    H231113   1.830   4.274   1.018  1.1659 -3.9844 -1.4397
 3160TIP3   OH231114   6.701   1.019   0.366 -0.1796 -0.3931 -0.3672
 3160TIP3    H131115   6.644   1.041   0.440  1.6732 -0.9662  1.3345
 3160TIP3    H231116   6.736   1.103   0.336 -0.3744 -0.2168 -0.1014
 3161TIP3   OH231117   3.247   6.785   0.228 -0.2211  0.0417 -0.7516
 3161TIP3    H131118   3.326   6.794   0.282 -1.3828  1.2480  0.8570
 3161TIP3    H231119   3.269   6.828   0.146  1.4064 -1.3228 -1.0902
 3162TIP3   OH231120   0.014   3.973   0.684  0.0949  0.3424  0.2856
 3162TIP3    H131121   0.078   3.947   0.618 -1.0708 -0.2037 -0.6649
 3162TIP3    H231122   0.029   3.914   0.757 -0.9261 -1.4734 -0.9081
 3163TIP3   OH231123   3.466   3.439   8.499  0.2897 -0.0409 -0.5564
 3163TIP3    H131124   3.406   3.483   8.440  0.3868 -0.2524 -0.8154
 3163TIP3    H231125   3.492   3.359   8.453  2.0836  0.8479 -1.2041
 3164TIP3   OH231126   2.569   4.204   3.359  0.4340  0.3981  0.4350
 3164TIP3    H131127   2.540   4.210   3.268 -0.9121 -0.0699  0.8074
 3164TIP3    H231128   2.533   4.282   3.400  0.6232  0.3651  0.6599
 3165TIP3   OH231129   5.721   4.883   3.043  0.3587 -0.2522  0.3858
 3165TIP3    H131130   5.810   4.850   3.036  1.3731  2.2692  0.3766
 3165TIP3    H231131   5.731   4.971   3.079 -2.0095  0.6222 -0.9091
 3166TIP3   OH231132   5.486   0.621   1.105 -0.3930 -0.8946  0.3822
 3166TIP3    H131133   5.397   0.597   1.079 -1.2960  0.4416  2.0159
 3166TIP3    H231134   5.494   0.713   1.081  0.0220 -0.6302  1.4612
 3167TIP3   OH231135   0.626   4.972   0.979 -0.9597  0.4847  0.0873
 3167TIP3    H131136   0.536   4.971   1.012 -1.1170  0.3815 -0.3412
 3167TIP3    H231137   0.676   5.019   1.046 -1.8434  3.1830 -1.0090
 3168TIP3   OH231138   1.618   3.317   1.211  0.1237 -0.9054 -0.0277
 3168TIP3    H131139   1.713   3.306   1.205  0.3204  0.4180  0.4579
 3168TIP3    H231140   1.590   3.334   1.121  0.8850  2.4298  0.2353
 3169TIP3   OH231141   1.635   5.333   1.550 -0.5511  0.5411  0.4924
 3169TIP3    H131142   1.639   5.276   1.473 -0.2271  0.7826  0.3312
 3169TIP3    H231143   1.642   5.274   1.624 -2.3308  0.1283  0.3920
 3170TIP3   OH231144   0.923   5.537   8.581 -0.1024 -0.3276 -0.1907
 3170TIP3    H131145   0.849   5.580   8.625  0.8267  0.1999  0.8968
 3170TIP3    H231146   0.951   5.469   8.643  1.5370  0.7448  0.3157
 3171TIP3   OH231147   2.592   4.110   0.410  0.3413 -0.6579  0.1531
 3171TIP3    H131148   2.596   4.035   0.470 -2.4103 -1.1250 -0.0850
 3171TIP3    H231149   2.522   4.165   0.446 -0.6313 -0.3988 -1.9986
 3172TIP3   OH231150   1.579   2.637   0.758  0.2377  0.7154 -0.0837
 3172TIP3    H131151   1.596   2.724   0.722 -0.7858 -0.2160 -3.1285
 3172TIP3    H231152   1.494   2.644   0.800 -0.2767  0.9993 -1.1405
 3173TIP3   OH231153   3.661   6.567   2.845  0.3034 -0.2258  0.3314
 3173TIP3    H131154   3.642   6.560   2.938  1.7748  0.0968  0.6781
 3173TIP3    H231155   3.744   6.521   2.833  0.7076  0.6964 -0.6085
 3174TIP3   OH231156   2.966   3.953   8.937  0.7898  1.0045  0.4918
 3174TIP3    H131157   2.876   3.972   8.965  1.0127  1.0216  1.2066
 3174TIP3    H231158   2.983   3.865   8.971  1.2800  1.2719  0.9384
 3175TIP3   OH231159   4.537   3.121   8.173  0.0953 -0.1473 -0.0700
 3175TIP3    H131160   4.481   3.047   8.148  0.8903 -2.1133  3.3434
 3175TIP3    H231161   4.579   3.093   8.254  1.8585  3.4172  0.4390
 3176TIP3   OH231162   3.847   4.992   0.608  0.0486 -0.0563  0.3306
 3176TIP3    H131163   3.781   4.969   0.674  0.2874  0.3692  0.7295
 3176TIP3    H231164   3.848   5.088   0.608 -1.8674  0.0484 -2.2456
 3177TIP3   OH231165   3.847   6.073   2.458  0.6998  0.4620 -0.1211
 3177TIP3    H131166   3.822   5.988   2.422  0.6392  0.6807 -0.6023
 3177TIP3    H231167   3.939   6.063   2.481  0.7259  0.3045 -0.2934
 3178TIP3   OH231168   4.468   1.379   8.467 -0.0075  0.3899 -0.0384
 3178TIP3    H131169   4.447   1.287   8.480  1.6179 -0.5634 -3.1547
 3178TIP3    H231170   4.385   1.419   8.439 -0.4422 -0.4031  0.1030
 3179TIP3   OH231171   3.574   1.425   2.627  0.5739  0.1960  0.1502
 3179TIP3    H131172   3.634   1.495   2.651  0.7992 -0.0403  0.2801
 3179TIP3    H231173   3.629   1.360   2.582  0.5005 -0.2224  0.6533
 3180TIP3   OH231174   1.213   4.150   0.259  0.1862  0.6238 -0.0564
 3180TIP3    H131175   1.209   4.242   0.287  2.2238 -0.2092  3.5344
 3180TIP3    H231176   1.286   4.147   0.198  0.0288  1.4079 -0.2960
 3181TIP3   OH231177   4.513   3.737   8.747 -0.1375 -0.0938  1.0204
 3181TIP3    H131178   4.437   3.775   8.790  0.4540  0.7654  1.3267
 3181TIP3    H231179   4.526   3.652   8.790 -0.4345  0.1144  1.5218
 3182TIP3   OH231180   2.330   1.168   1.984 -0.0491  0.0450 -0.2135
 3182TIP3    H131181   2.326   1.185   2.078  0.6437 -0.3407 -0.1063
 3182TIP3    H231182   2.286   1.243   1.944 -1.3832 -0.3505  0.4611
 3183TIP3   OH231183   1.509   2.679   0.334 -0.0239  0.5971 -0.3038
 3183TIP3    H131184   1.518   2.671   0.239 -0.7532  2.3501 -0.5411
 3183TIP3    H231185   1.597   2.702   0.365 -0.0724  1.3613 -0.7187
 3184TIP3   OH231186   2.074   1.596   8.635  0.2098  0.0201 -0.0072
 3184TIP3    H131187   2.032   1.566   8.716 -0.1764  1.3108  0.3011
 3184TIP3    H231188   2.119   1.677   8.660 -0.2305  0.6467 -1.1521
 3185TIP3   OH231189   4.537   2.144   7.998  0.1616  0.5905  0.0852
 3185TIP3    H131190   4.566   2.232   8.019 -1.1448  1.1720 -0.4140
 3185TIP3    H231191   4.451   2.135   8.040 -0.5299  0.2276 -1.3178
 3186TIP3   OH231192   3.363   6.719   2.136  0.4164  0.0692  0.5124
 3186TIP3    H131193   3.351   6.811   2.157  0.1357  0.2106 -0.2405
 3186TIP3    H231194   3.454   6.713   2.105 -0.2106  0.5536 -1.6360
 3187TIP3   OH231195   2.959   2.346   1.703 -0.2451 -0.0269  0.2823
 3187TIP3    H131196   2.874   2.390   1.698 -0.7271 -0.7345  1.7207
 3187TIP3    H231197   2.939   2.253   1.690  0.3994 -0.1328 -0.0048
 3188TIP3   OH231198   5.069   1.293   8.060  0.3180 -0.4249 -0.5055
 3188TIP3    H131199   5.009   1.226   8.028  1.8348 -1.7068 -0.7415
 3188TIP3    H231200   5.154   1.267   8.027  1.1531  0.9194  0.4970
 3189TIP3   OH231201   2.589   0.858   1.183 -0.4995 -0.2151 -0.1008
 3189TIP3    H131202   2.576   0.796   1.112 -1.3198 -0.5830  0.3517
 3189TIP3    H231203   2.625   0.805   1.254  1.6889  0.4139 -0.6714
 3190TIP3   OH231204   2.799   1.285   0.993  0.0259  0.1954  0.0828
 3190TIP3    H131205   2.809   1.258   0.902 -1.4932 -0.3843  0.0568
 3190TIP3    H231206   2.758   1.210   1.036  0.0955  0.7199  1.0810
 3191TIP3   OH231207   2.320   3.464   2.480 -0.1368  0.6140 -0.2050
 3191TIP3    H131208   2.402   3.431   2.443 -0.6311  0.6271 -1.3721
 3191TIP3    H231209   2.264   3.479   2.403 -1.1731  0.7515  0.5585
 3192TIP3   OH231210   5.906   6.469   0.742 -0.2616  0.3229  0.5810
 3192TIP3    H131211   5.821   6.445   0.780  0.4034 -1.0812  1.2492
 3192TIP3    H231212   5.957   6.501   0.816  0.4467 -0.7498  0.5802
 3193TIP3   OH231213   0.552   0.687   0.994  0.5396  0.2006  0.3387
 3193TIP3    H131214   0.613   0.757   0.973  0.7399 -0.6644 -2.3256
 3193TIP3    H231215   0.588   0.610   0.952 -1.4411 -0.7390  0.2466
 3194TIP3   OH231216   2.344   1.666   0.794  0.0312  0.2800  0.0936
 3194TIP3    H131217   2.328   1.756   0.767  2.3952  0.5923 -0.4918
 3194TIP3    H231218   2.313   1.662   0.884 -0.8047  1.4618 -0.1229
 3195TIP3   OH231219   0.407   0.484   8.052 -0.0229  0.2933 -0.3883
 3195TIP3    H131220   0.403   0.393   8.081  4.3585  0.1916  0.6144
 3195TIP3    H231221   0.391   0.535   8.132  0.7619  0.2905 -0.2223
 3196TIP3   OH231222   6.632   2.775   2.571  0.1510  0.3676  0.1320
 3196TIP3    H131223   6.599   2.685   2.574  0.7240  0.1536  0.3108
 3196TIP3    H231224   6.556   2.830   2.587 -0.4160 -0.0415 -1.0432
 3197TIP3   OH231225   6.434   0.772   0.884 -0.1739  0.1209  0.7649
 3197TIP3    H131226   6.505   0.817   0.837 -0.8317  0.4100  0.0339
 3197TIP3    H231227   6.445   0.680   0.860 -0.0181  0.1582  0.6876
 3198TIP3   OH231228   1.736   4.265   1.596  0.0130  0.4126 -0.4606
 3198TIP3    H131229   1.810   4.236   1.649 -1.2296 -1.4893  0.3728
 3198TIP3    H231230   1.719   4.192   1.537 -1.6825  0.4153 -0.0505
 3199TIP3   OH231231   1.326   6.757   2.321  0.4631  0.3373  0.0041
 3199TIP3    H131232   1.265   6.822   2.286  0.1034  0.7600  1.3570
 3199TIP3    H231233   1.364   6.715   2.244 -1.2079  0.3667 -0.8691
 3200TIP3   OH231234   5.735   5.754   7.377 -0.6278  0.3996 -0.4454
 3200TIP3    H131235   5.664   5.695   7.403  0.1185 -1.1155 -1.6499
 3200TIP3    H231236   5.692   5.828   7.336 -1.5430 -0.4556 -1.0809
 3201TIP3   OH231237   5.261   2.052   0.593 -0.1883 -0.2263 -0.4804
 3201TIP3    H131238   5.301   1.976   0.550 -0.0479 -1.3635  1.5777
 3201TIP3    H231239   5.250   2.115   0.522  1.9280 -1.2279 -1.8166
 3202TIP3   OH231240   4.223   0.130   1.498  0.0006  0.0910  0.0157
 3202TIP3    H131241   4.170   0.157   1.423 -0.5151 -1.3538 -0.1712
 3202TIP3    H231242   4.160   0.091   1.559  0.3759  1.4562  1.3322
 3203TIP3   OH231243   0.711   1.166   1.636 -0.2700  0.1044 -0.2037
 3203TIP3    H131244   0.716   1.133   1.726 -0.8831  1.2552  0.2761
 3203TIP3    H231245   0.631   1.219   1.635  0.8088  1.8166 -0.8259
 3204TIP3   OH231246   0.300   4.365   2.779  0.3859 -0.5519  0.0930
 3204TIP3    H131247   0.387   4.387   2.747  0.5060 -0.3544  0.5531
 3204TIP3    H231248   0.315   4.307   2.853  0.1997  0.8643  1.2836
 3205TIP3   OH231249   0.568   6.483   0.669 -0.0313 -0.7130  0.1227
 3205TIP3    H131250   0.552   6.574   0.645  1.2339 -0.3619  0.5786
 3205TIP3    H231251   0.574   6.484   0.764 -0.6223 -1.3881  0.1773
 3206TIP3   OH231252   2.758   6.286   1.070 -0.1604  0.0768  0.3853
 3206TIP3    H131253   2.681   6.279   1.014 -0.8816 -0.2190  1.3990
 3206TIP3    H231254   2.742   6.363   1.124 -0.8890 -1.3418  2.2758
 3207TIP3   OH231255   6.072   6.714   8.548 -0.2912 -0.2452 -0.1796
 3207TIP3    H131256   6.025   6.753   8.622 -0.8591 -0.7452 -0.2680
 3207TIP3    H231257   6.017   6.732   8.472  0.0003 -0.2470 -0.3942
 3208TIP3   OH231258   1.785   6.036   2.567 -0.0452  0.1704 -0.1484
 3208TIP3    H131259   1.696   6.070   2.555  0.4816  2.0999  0.9014
 3208TIP3    H231260   1.805   6.056   2.658  0.4522 -2.8798  0.5207
 3209TIP3   OH231261   2.770   3.776   7.323  0.1484 -0.3121 -0.2140
 3209TIP3    H131262   2.858   3.792   7.290  0.5887 -1.6233  0.2278
 3209TIP3    H231263   2.749   3.687   7.293 -0.5276 -0.4787  0.6895
 3210TIP3   OH231264   0.313   3.917   1.928 -0.3381 -0.3752 -0.9477
 3210TIP3    H131265   0.297   3.916   2.023  1.8765 -2.4170 -0.4999
 3210TIP3    H231266   0.372   3.991   1.915  0.6323 -1.0488 -0.4553
 3211TIP3   OH231267   5.257   0.755   8.907  0.0908  0.0284  0.3153
 3211TIP3    H131268   5.336   0.807   8.893 -0.3066  0.4832 -0.2476
 3211TIP3    H231269   5.226   0.734   8.819 -0.4404 -0.1209  0.5354
 3212TIP3   OH231270   1.225   0.115   8.424  0.5595 -0.2949 -0.7970
 3212TIP3    H131271   1.312   0.097   8.458 -0.0530 -3.2235 -0.4365
 3212TIP3    H231272   1.217   0.058   8.347 -0.5083  1.1036 -1.7767
 3213TIP3   OH231273   1.216   2.424   8.529  0.4250 -0.0066 -0.0374
 3213TIP3    H131274   1.206   2.330   8.514 -0.0086  0.1363 -0.6968
 3213TIP3    H231275   1.141   2.463   8.484 -0.5395  0.5130  1.9378
 3214TIP3   OH231276   5.764   5.306   2.796 -0.3042 -0.1066 -0.6070
 3214TIP3    H131277   5.671   5.320   2.813 -0.7526 -1.9340 -1.3205
 3214TIP3    H231278   5.809   5.349   2.869 -1.7966 -0.9514  0.8570
 3215TIP3   OH231279   3.423   2.869   0.434  0.2998 -0.3745 -0.0127
 3215TIP3    H131280   3.491   2.831   0.379  0.5675 -0.8785  0.6461
 3215TIP3    H231281   3.442   2.835   0.522  0.0275  0.5995  0.4368
 3216TIP3   OH231282   2.406   6.250   2.273 -0.1241  0.5339 -0.3886
 3216TIP3    H131283   2.379   6.219   2.359 -0.0611 -0.9651 -0.8808
 3216TIP3    H231284   2.334   6.226   2.215  1.0832 -1.1824 -1.2577
 3217TIP3   OH231285   4.389   1.165   2.178  0.0296  0.4112  0.3332
 3217TIP3    H131286   4.316   1.213   2.217 -1.1613 -0.6706 -0.4837
 3217TIP3    H231287   4.359   1.142   2.090  0.0444 -2.7277  1.0024
 3218TIP3   OH231288   6.196   1.279   0.698 -0.1763  0.4784  0.2925
 3218TIP3    H131289   6.119   1.271   0.754  0.6410 -2.3172  1.1786
 3218TIP3    H231290   6.195   1.200   0.644 -0.1190  2.3528 -2.7214
 3219TIP3   OH231291   3.019   4.298   8.165  0.0328 -0.4380  0.2557
 3219TIP3    H131292   2.982   4.233   8.105 -1.1295  0.7012 -0.2972
 3219TIP3    H231293   2.968   4.377   8.149  0.3822  0.1799  2.0333
 3220TIP3   OH231294   6.774   1.971   7.777  0.0265 -0.7962  0.1417
 3220TIP3    H131295   6.834   2.045   7.788 -1.3821  0.2393  1.2294
 3220TIP3    H231296   6.828   1.894   7.797  0.8143  0.1606  2.0297
 3221TIP3   OH231297   1.043   2.347   8.962 -0.5264 -0.3347 -0.7096
 3221TIP3    H131298   0.994   2.267   8.942 -1.0303 -0.3360  0.4584
 3221TIP3    H231299   1.129   2.315   8.990 -0.3289 -0.4059 -1.3986
 3222TIP3   OH231300   6.400   2.594   0.635  0.4232 -0.1931 -0.0643
 3222TIP3    H131301   6.339   2.526   0.605  1.8123 -0.8944 -1.4137
 3222TIP3    H231302   6.441   2.558   0.713  0.6968 -0.6572 -0.4180
 3223TIP3   OH231303   3.894   4.876   0.088 -0.3281  0.6565 -0.4855
 3223TIP3    H131304   3.937   4.838   0.165  2.0139  1.0282 -1.5301
 3223TIP3    H231305   3.871   4.801   0.034 -0.8202  0.4628 -0.0154
 3224TIP3   OH231306   1.602   2.296   0.777  0.8123  0.0599 -0.0149
 3224TIP3    H131307   1.650   2.334   0.851  1.8491  0.5193 -0.8842
 3224TIP3    H231308   1.526   2.353   0.766 -0.3138 -1.0072  1.7507
 3225TIP3   OH231309   4.286   4.350   0.227  1.1196 -0.4601 -0.5992
 3225TIP3    H131310   4.265   4.294   0.301 -0.9809 -1.9054 -2.1850
 3225TIP3    H231311   4.313   4.433   0.266 -1.1765 -0.7235  1.7997
 3226TIP3   OH231312   4.857   6.200   0.326  0.0769  0.6223 -0.8624
 3226TIP3    H131313   4.800   6.124   0.321 -0.3422  0.7239  1.3209
 3226TIP3    H231314   4.876   6.222   0.235 -2.2275 -0.2511 -1.6134
 3227TIP3   OH231315   4.951   0.586   1.362 -0.1316  0.1589 -0.0955
 3227TIP3    H131316   4.879   0.646   1.344  1.3463  1.6241 -1.4942
 3227TIP3    H231317   4.978   0.554   1.276  0.5639 -0.7673  0.4459
 3228TIP3   OH231318   1.493   2.390   1.590 -0.5076 -0.3173  0.8903
 3228TIP3    H131319   1.533   2.303   1.584 -0.6249 -0.3004 -0.5656
 3228TIP3    H231320   1.408   2.381   1.547  0.2750  0.9254 -1.0939
 3229TIP3   OH231321   0.410   1.474   8.699  0.5527  0.0433  0.3534
 3229TIP3    H131322   0.358   1.522   8.635  1.6823  0.3851 -0.3283
 3229TIP3    H231323   0.434   1.539   8.765  0.2214 -0.0900  0.6096
 3230TIP3   OH231324   0.985   2.413   0.277 -0.5789  0.2103 -0.3862
 3230TIP3    H131325   0.892   2.407   0.296 -0.3708  0.3832  0.7678
 3230TIP3    H231326   0.992   2.397   0.183 -1.7437 -0.0251 -0.4417
 3231TIP3   OH231327   3.592   5.138   0.043  0.3059  0.4785  0.5872
 3231TIP3    H131328   3.530   5.109  -0.023  0.6768  0.7868  0.0977
 3231TIP3    H231329   3.549   5.119   0.127 -0.7185  1.2602  0.2639
 3232TIP3   OH231330   6.589   4.800   1.389  0.0153  0.5155  0.3425
 3232TIP3    H131331   6.607   4.783   1.296 -0.7055  1.4464  0.0139
 3232TIP3    H231332   6.564   4.715   1.424  1.7880 -0.1615  0.0657
 3233TIP3   OH231333   6.618   0.008   0.116 -0.5110  0.1651  0.6853
 3233TIP3    H131334   6.658  -0.026   0.036 -0.2728  0.0399  0.8548
 3233TIP3    H231335   6.528   0.029   0.091 -0.3206  0.5167  0.2801
 3234TIP3   OH231336   2.677   0.189   1.876 -0.2552  0.3825 -0.6069
 3234TIP3    H131337   2.583   0.198   1.860 -0.6198  0.1826  1.1469
 3234TIP3    H231338   2.712   0.154   1.795 -1.4714  1.7162 -1.7702
 3235TIP3   OH231339   4.952   0.256   1.111 -0.0650 -0.4096 -0.4893
 3235TIP3    H131340   4.943   0.352   1.108  0.4603 -0.3289  0.1418
 3235TIP3    H231341   4.884   0.224   1.053 -1.0627  0.3129  0.2259
 3236TIP3   OH231342   0.241   6.428   0.651  0.4799  0.1645  0.2632
 3236TIP3    H131343   0.146   6.411   0.647  0.6037 -0.3851 -1.6097
 3236TIP3    H231344   0.256   6.462   0.739 -1.3154 -0.6052  0.9163
 3237TIP3   OH231345   5.003   6.604   8.739 -0.9214 -0.3301 -0.1297
 3237TIP3    H131346   4.952   6.534   8.699 -0.4422 -0.0246 -1.3317
 3237TIP3    H231347   5.094   6.583   8.717 -0.8322  1.1320 -1.3588
 3238TIP3   OH231348   1.548   1.925   8.323  0.2452  0.1782  0.3987
 3238TIP3    H131349   1.533   1.994   8.258  1.7629 -0.6979 -0.9824
 3238TIP3    H231350   1.602   1.967   8.390  0.4292  0.5750  0.0119
 3239TIP3   OH231351   0.674   5.248   8.239 -0.1470 -0.6911  0.1156
 3239TIP3    H131352   0.649   5.337   8.216  0.2923 -0.4194  0.6864
 3239TIP3    H231353   0.768   5.252   8.257  0.0556 -1.4400 -0.6884
 3240TIP3   OH231354   0.411   1.569   2.450 -0.0058 -0.3129 -0.2338
 3240TIP3    H131355   0.429   1.662   2.433 -0.4974 -0.3558 -1.0534
 3240TIP3    H231356   0.340   1.570   2.514 -0.1919 -0.1157 -0.4391
 3241TIP3   OH231357   5.084   1.430   8.655  0.3298 -0.0843 -0.4857
 3241TIP3    H131358   5.041   1.354   8.693  2.0495 -1.2533 -0.8096
 3241TIP3    H231359   5.012   1.480   8.616 -0.9733 -0.8917  0.7788
 3242TIP3   OH231360   1.778   3.815   3.107 -0.0208  0.6569  0.4439
 3242TIP3    H131361   1.847   3.795   3.170  1.0809  0.0391 -0.8727
 3242TIP3    H231362   1.710   3.749   3.123  0.6265 -0.0201  0.4599
 3243TIP3   OH231363   6.540   5.258   0.007 -0.6532  0.3235  0.3047
 3243TIP3    H131364   6.557   5.231   0.097  1.2291  0.0200 -0.1134
 3243TIP3    H231365   6.543   5.354   0.010  3.0945  0.3366 -0.0085
 3244TIP3   OH231366   0.320   0.278   2.512  0.0834  0.4154 -0.0053
 3244TIP3    H131367   0.229   0.282   2.543  0.4508  0.7075  1.1104
 3244TIP3    H231368   0.362   0.214   2.570  0.8337  1.0854  0.2176
 3245TIP3   OH231369   4.689   0.214   0.989  0.3213 -0.1810  0.0297
 3245TIP3    H131370   4.600   0.244   0.969  0.2338  0.0460  0.7179
 3245TIP3    H231371   4.745   0.269   0.934  0.0699  0.1353  0.0817
 3246TIP3   OH231372   3.266   0.402   3.422  0.0734  0.1509  0.1594
 3246TIP3    H131373   3.276   0.493   3.392  0.3505  0.5060  1.2969
 3246TIP3    H231374   3.354   0.365   3.415  0.0479  0.0982  0.1168
 3247TIP3   OH231375   2.653   0.073   1.635 -1.1429 -0.1804  0.1235
 3247TIP3    H131376   2.730   0.034   1.594  0.2081  0.4034  1.9647
 3247TIP3    H231377   2.579   0.042   1.582  0.2556 -1.5656 -1.1129
 3248TIP3   OH231378   1.005   6.391   2.488 -0.4552  0.2331  0.4642
 3248TIP3    H131379   0.911   6.410   2.480 -1.3049 -1.0139  4.8111
 3248TIP3    H231380   1.035   6.452   2.556  1.2010 -1.2390  1.0930
 3249TIP3   OH231381   5.048   5.693   0.413  0.3616  0.6212  0.0049
 3249TIP3    H131382   5.008   5.779   0.421 -1.3787 -0.1977  0.4486
 3249TIP3    H231383   5.056   5.662   0.503 -0.8702 -0.4745 -0.2342
 3250TIP3   OH231384   5.526   3.517   2.916  0.4772 -0.2457 -0.1123
 3250TIP3    H131385   5.510   3.423   2.920  0.8324 -0.2971  0.0962
 3250TIP3    H231386   5.492   3.543   2.830  0.9490 -0.6732 -0.4311
 3251TIP3   OH231387   2.157   2.841   7.761 -0.1800  0.1434  0.0408
 3251TIP3    H131388   2.066   2.854   7.789 -0.9954 -1.7909 -1.5218
 3251TIP3    H231389   2.154   2.763   7.706  1.5478  2.6138 -3.9923
 3252TIP3   OH231390   4.743   1.398   0.860 -0.1739 -0.2480 -0.3240
 3252TIP3    H131391   4.777   1.479   0.822 -2.2740  1.3838  1.0289
 3252TIP3    H231392   4.649   1.403   0.844 -0.3534 -2.4845 -0.2287
 3253TIP3   OH231393   1.376   2.131   1.337  0.8167 -0.1433  0.0862
 3253TIP3    H131394   1.423   2.093   1.263  0.3903  0.6306 -0.6097
 3253TIP3    H231395   1.283   2.126   1.312  0.7904  2.3977 -0.6134
 3254TIP3   OH231396   0.298   1.003   0.848  0.5630  0.5810 -0.1157
 3254TIP3    H131397   0.366   0.976   0.910 -0.5688  1.4945  1.5809
 3254TIP3    H231398   0.247   0.924   0.833 -0.3992  0.8073  1.7803
 3255TIP3   OH231399   3.976   6.067   1.131  0.4577 -0.0950 -0.0402
 3255TIP3    H131400   3.951   6.070   1.223 -1.4025 -0.0076 -0.4966
 3255TIP3    H231401   4.040   5.996   1.125  2.9644  1.8291  1.7763
 3256TIP3   OH231402   4.094   0.155   3.703 -0.3305  0.6270  0.0892
 3256TIP3    H131403   4.065   0.066   3.683  2.3275 -1.0131  2.7134
 3256TIP3    H231404   4.166   0.172   3.643  0.1297  0.3639  0.5553
 3257TIP3   OH231405   0.801   0.910   3.196 -0.3857  0.4862 -0.1984
 3257TIP3    H131406   0.817   0.865   3.114 -1.3061  0.3362 -0.3112
 3257TIP3    H231407   0.769   0.997   3.170 -1.7467  0.0680 -0.0476
 3258TIP3   OH231408   2.939   6.594   0.803 -0.1580  0.4923  0.6254
 3258TIP3    H131409   2.977   6.677   0.773  0.1883  0.9566  2.2879
 3258TIP3    H231410   2.964   6.587   0.895  0.6847 -1.9579  0.2914
 3259TIP3   OH231411   3.001   4.916   0.130 -0.1478 -0.5211  0.1694
 3259TIP3    H131412   2.924   4.957   0.168  0.1620  0.2116  0.0108
 3259TIP3    H231413   2.967   4.839   0.084 -0.5991 -1.0717  1.3873
 3260TIP3   OH231414   2.074   1.735   1.569 -0.2519 -0.1987 -0.9728
 3260TIP3    H131415   2.101   1.644   1.581  1.0667  0.0593 -1.7805
 3260TIP3    H231416   1.979   1.730   1.556 -0.4037 -1.3040  0.3478
 3261TIP3   OH231417   4.033   3.952   2.379 -0.2907  0.4277 -0.0221
 3261TIP3    H131418   4.009   4.039   2.412 -2.4193 -0.3903  0.7647
 3261TIP3    H231419   4.041   3.898   2.458 -0.9468 -0.5421 -0.6058
 3262TIP3   OH231420   6.645   5.213   0.603  0.0946 -0.0649  0.6359
 3262TIP3    H131421   6.629   5.124   0.572 -1.0636  0.9072 -1.8556
 3262TIP3    H231422   6.704   5.250   0.538  2.5799  0.3260  2.9549
 3263TIP3   OH231423   1.693   5.574   2.175 -0.2936  0.2634 -0.0271
 3263TIP3    H131424   1.697   5.660   2.218 -1.2742 -0.0806  0.7658
 3263TIP3    H231425   1.726   5.513   2.240 -1.6346 -0.2387  0.2123
 3264TIP3   OH231426   4.647   4.410   1.994 -0.3720  0.3198 -0.1106
 3264TIP3    H131427   4.683   4.322   1.992  0.0383  0.3962  1.9404
 3264TIP3    H231428   4.660   4.444   1.905 -0.4282 -1.6114 -0.8986
 3265TIP3   OH231429   2.758   4.197   7.457  0.0525  0.3740  0.1347
 3265TIP3    H131430   2.793   4.135   7.393  1.2896  0.3318  0.8061
 3265TIP3    H231431   2.663   4.188   7.451  0.0621  1.1627 -2.4620
 3266TIP3   OH231432   0.316   5.164   2.995 -0.4545 -0.3878  0.0721
 3266TIP3    H131433   0.295   5.241   3.048 -0.7208  0.1121 -0.7367
 3266TIP3    H231434   0.276   5.090   3.042 -0.4210 -0.0004  0.7197
 3267TIP3   OH231435   1.972   5.283   1.448  0.1410 -0.4149 -0.2544
 3267TIP3    H131436   1.903   5.223   1.423  0.6108 -0.1567 -2.3336
 3267TIP3    H231437   1.935   5.370   1.433  0.3841 -0.2428  0.1230
 3268TIP3   OH231438   3.231   5.127   1.603 -0.3144 -0.5100  0.2734
 3268TIP3    H131439   3.206   5.106   1.513  1.0920 -0.3021 -0.1876
 3268TIP3    H231440   3.170   5.196   1.630  0.4620  0.8210 -1.2201
 3269TIP3   OH231441   0.333   4.909   1.909 -0.5020 -0.7479  0.0525
 3269TIP3    H131442   0.338   4.968   1.984 -0.6521 -0.6051 -0.0504
 3269TIP3    H231443   0.247   4.925   1.871 -0.5932 -1.1197  0.0949
 3270TIP3   OH231444   4.404   3.012   0.370 -0.2055  0.4098 -0.2665
 3270TIP3    H131445   4.319   2.974   0.349  0.3266 -0.3125 -1.1701
 3270TIP3    H231446   4.385   3.077   0.439 -1.0752 -1.9240  1.8516
 3271TIP3   OH231447   3.537   1.350   0.447 -0.3550  0.0052  0.3012
 3271TIP3    H131448   3.443   1.332   0.440 -0.3904  0.0293  0.7143
 3271TIP3    H231449   3.561   1.384   0.361 -0.1170 -2.8253 -0.8544
 3272TIP3   OH231450   1.201   2.290   1.006  0.7182 -0.9077  0.3688
 3272TIP3    H131451   1.142   2.364   1.024  0.5005 -1.5330  2.5197
 3272TIP3    H231452   1.288   2.324   1.029  0.6489 -1.2324  1.1251
 3273TIP3   OH231453   0.206   1.463   3.430  0.5083  0.1511 -0.0041
 3273TIP3    H131454   0.284   1.427   3.387  0.0437  0.5496 -1.2462
 3273TIP3    H231455   0.224   1.557   3.436 -0.5394  0.5142 -1.8689
 3274TIP3   OH231456   1.628   1.736   3.637  0.0798 -0.4217  0.3050
 3274TIP3    H131457   1.559   1.688   3.683 -1.0850  0.0771 -0.8628
 3274TIP3    H231458   1.583   1.778   3.563  1.3112  1.2824  0.4526
 3275TIP3   OH231459   3.859   5.191   1.056  0.3305 -0.0227  0.5335
 3275TIP3    H131460   3.775   5.149   1.074  0.1650 -0.2249 -0.6601
 3275TIP3    H231461   3.836   5.271   1.009  0.8730 -0.9330 -1.3398
 3276TIP3   OH231462   0.190   5.374   1.325 -0.1777  0.0189 -0.3089
 3276TIP3    H131463   0.245   5.366   1.247  1.7687  1.6451  0.7974
 3276TIP3    H231464   0.233   5.318   1.390 -2.2288 -1.9608 -0.5320
 3277TIP3   OH231465   4.037   2.953   2.493  0.3894  0.1731  0.1210
 3277TIP3    H131466   4.049   2.899   2.570 -0.1585 -1.1543 -0.6867
 3277TIP3    H231467   4.073   2.901   2.421  3.3144  2.4640 -0.2249
 3278TIP3   OH231468   2.002   5.652   1.061  0.3383  0.1860  0.3178
 3278TIP3    H131469   2.090   5.618   1.078 -0.0761 -1.4497 -0.6078
 3278TIP3    H231470   1.975   5.609   0.980 -1.0565  1.1863  0.2185
 3279TIP3   OH231471   1.265   4.436   1.696  0.0550 -0.4415  0.4932
 3279TIP3    H131472   1.334   4.378   1.727  1.4749  2.5108  3.5075
 3279TIP3    H231473   1.199   4.434   1.765 -0.8220  0.0301 -0.3093
 3280TIP3   OH231474   5.259   2.723   0.569 -0.2558 -0.5896  0.4481
 3280TIP3    H131475   5.336   2.770   0.602 -0.5383 -0.3088  0.7120
 3280TIP3    H231476   5.261   2.737   0.475  0.4057 -1.1673  0.3678
 3281TIP3   OH231477   0.079   4.916   2.465  0.4102 -0.6943  0.4238
 3281TIP3    H131478  -0.002   4.875   2.496  0.0539  0.7729  1.5269
 3281TIP3    H231479   0.092   4.991   2.522  1.8470 -0.1228 -0.5847
 3282TIP3   OH231480   1.122   5.543   2.211  0.5170 -0.5733  0.4882
 3282TIP3    H131481   1.060   5.596   2.260  0.4727 -0.2615  0.0995
 3282TIP3    H231482   1.068   5.484   2.159  0.4497  0.9886 -1.3248
 3283TIP3   OH231483   3.075   4.160   8.799  0.1639  0.2411  0.5039
 3283TIP3    H131484   3.035   4.105   8.866 -0.2395 -0.2648 -0.1436
 3283TIP3    H231485   3.057   4.115   8.717  0.8711  0.7238  0.0731
 3284TIP3   OH231486   3.289   3.109   0.850 -0.3683 -0.0954  0.2779
 3284TIP3    H131487   3.297   3.096   0.945  0.1557 -0.5495  0.1706
 3284TIP3    H231488   3.266   3.202   0.842  0.2300  0.1112  0.8212
 3285TIP3   OH231489   0.415   5.339   2.188 -0.0209 -0.2699  0.3583
 3285TIP3    H131490   0.446   5.373   2.104  0.9141  0.6091  1.0333
 3285TIP3    H231491   0.320   5.335   2.178  0.0022  0.6886 -0.4251
 3286TIP3   OH231492   0.353   4.066   0.089 -0.7350  0.2987  0.5422
 3286TIP3    H131493   0.279   4.014   0.120 -0.4912 -0.0783  0.5006
 3286TIP3    H231494   0.409   4.003   0.043 -1.2455  0.9002 -0.9613
 3287TIP3   OH231495   1.891   4.083   3.075  0.2732  0.0353  0.1423
 3287TIP3    H131496   1.922   4.077   2.984 -0.3317 -0.5252 -0.0278
 3287TIP3    H231497   1.857   3.996   3.095  0.6522  0.0781  1.0027
 3288TIP3   OH231498   1.557   3.667   3.142  0.0163  0.0639 -0.0775
 3288TIP3    H131499   1.597   3.591   3.100 -0.6911  0.4119 -1.4386
 3288TIP3    H231500   1.465   3.644   3.151 -0.1302  0.6134 -0.1434
 3289TIP3   OH231501   4.354   4.118   0.103  0.0508 -0.5991  0.6384
 3289TIP3    H131502   4.313   4.196   0.142  1.6026  0.9260 -0.6306
 3289TIP3    H231503   4.341   4.050   0.169 -0.3914  1.0031  2.3226
 3290TIP3   OH231504   4.211   3.587   3.069  0.0687  0.1867  0.1080
 3290TIP3    H131505   4.293   3.590   3.020  1.8121 -3.0754  2.4164
 3290TIP3    H231506   4.148   3.550   3.007  1.2101 -0.2792 -0.8182
 3291TIP3   OH231507   1.758   3.900   2.090  0.6052  0.0530  0.2323
 3291TIP3    H131508   1.787   3.939   2.008 -0.6400  1.1746  0.3016
 3291TIP3    H231509   1.783   3.964   2.157  2.9947 -1.5034  0.9835
 3292TIP3   OH231510   5.367   1.436   8.605  0.1605 -0.2851 -0.0382
 3292TIP3    H131511   5.280   1.403   8.631  0.3163 -0.2725  0.5084
 3292TIP3    H231512   5.388   1.386   8.526  0.5231 -1.7628  0.9425
 3293TIP3   OH231513   0.503   3.178   1.808  0.2420  0.1498 -0.3106
 3293TIP3    H131514   0.565   3.136   1.868 -2.6523 -1.9244  1.4679
 3293TIP3    H231515   0.491   3.266   1.843 -0.3451 -0.5703  1.4101
 3294TIP3   OH231516   3.367   1.747   7.689 -0.4303 -0.3698 -0.3180
 3294TIP3    H131517   3.304   1.675   7.686 -1.0433 -0.1051  3.0459
 3294TIP3    H231518   3.313   1.826   7.684 -0.4954 -0.1441  2.4547
 3295TIP3   OH231519   2.913   0.188   8.087  0.5877 -0.1135 -0.2202
 3295TIP3    H131520   2.891   0.097   8.110 -0.0261  0.0251 -0.2356
 3295TIP3    H231521   2.901   0.192   7.992 -2.7836  0.8236  0.0951
 3296TIP3   OH231522   1.175   5.871   0.935  0.3418 -0.5290  0.3744
 3296TIP3    H131523   1.109   5.908   0.876  2.3671  1.7036 -0.6380
 3296TIP3    H231524   1.161   5.918   1.018 -0.9412 -1.9335  1.0007
 3297TIP3   OH231525   1.825   3.097   8.417  0.1534  0.4502 -0.2249
 3297TIP3    H131526   1.846   3.054   8.334 -1.5860  0.1197 -0.5350
 3297TIP3    H231527   1.749   3.049   8.450  1.1975  0.1630  1.9103
 3298TIP3   OH231528   3.213   1.995   1.288  0.3817  0.6267  0.2622
 3298TIP3    H131529   3.290   1.939   1.290  1.4790  2.1060  0.7425
 3298TIP3    H231530   3.208   2.032   1.376  1.3964  3.4900 -0.8017
 3299TIP3   OH231531   0.391   0.209   2.820  0.5992 -0.0944 -0.5542
 3299TIP3    H131532   0.377   0.129   2.770 -0.2483  1.4478 -3.0077
 3299TIP3    H231533   0.345   0.195   2.902  0.7629 -2.2299 -0.7817
 3300TIP3   OH231534   3.347   4.015   2.787  0.0752  0.3117 -0.3984
 3300TIP3    H131535   3.410   4.062   2.731  1.6433 -1.1078  0.0825
 3300TIP3    H231536   3.318   4.080   2.850 -0.0548  1.3805 -1.5218
 3301TIP3   OH231537   0.942   4.839   0.939 -0.4671  0.2506 -0.1111
 3301TIP3    H131538   1.013   4.903   0.935  1.4569 -1.8185 -2.4609
 3301TIP3    H231539   0.895   4.861   1.019  1.7597  2.8276  0.6513
 3302TIP3   OH231540   2.398   5.188   0.722 -0.0462  0.9316 -0.1142
 3302TIP3    H131541   2.350   5.193   0.639  1.8261 -3.8318 -1.8397
 3302TIP3    H231542   2.349   5.126   0.775  0.7255  1.1094  0.8482
 3303TIP3   OH231543   3.550   2.442   8.442  0.2337  0.6045  0.0944
 3303TIP3    H131544   3.625   2.404   8.396 -0.2598  0.6876 -0.8085
 3303TIP3    H231545   3.489   2.465   8.372 -0.1179  1.6738  0.7254
 3304TIP3   OH231546   2.528   6.153   0.102  0.1260 -0.4853 -0.4944
 3304TIP3    H131547   2.477   6.147   0.021 -0.9593  1.1950  0.0294
 3304TIP3    H231548   2.616   6.123   0.077 -0.1457  0.1169 -2.3288
 3305TIP3   OH231549   4.846   0.057   2.210  0.6745 -0.1698 -0.6072
 3305TIP3    H131550   4.766   0.063   2.262 -0.3820 -2.5022 -1.8198
 3305TIP3    H231551   4.839   0.128   2.147 -0.8502 -0.8025 -1.1903
 3306TIP3   OH231552   3.022   4.272   8.445 -0.0056  0.1432 -0.1062
 3306TIP3    H131553   3.114   4.269   8.471  0.1831  1.3023 -0.5831
 3306TIP3    H231554   3.024   4.266   8.349 -0.3820  0.8466 -0.1631
 3307TIP3   OH231555   1.556   3.192   1.509 -0.1290 -0.9383  0.4303
 3307TIP3    H131556   1.460   3.195   1.499 -0.3286 -1.4928  1.8770
 3307TIP3    H231557   1.570   3.184   1.604  1.3844 -0.2078  0.2988
 3308TIP3   OH231558   2.068   2.797   7.305  0.0781  0.7193 -0.1168
 3308TIP3    H131559   1.977   2.825   7.295  0.2783  1.4941  0.1276
 3308TIP3    H231560   2.120   2.871   7.272  0.6152 -0.0905 -1.1560
 3309TIP3   OH231561   0.360   1.859   8.141  0.5672  0.0186  0.1360
 3309TIP3    H131562   0.422   1.807   8.192  0.3542  1.1998  1.6706
 3309TIP3    H231563   0.413   1.897   8.070  1.3033 -0.1023  0.6150
 3310TIP3   OH231564   3.269   4.989   2.184 -0.4156  0.3590 -0.1773
 3310TIP3    H131565   3.255   4.895   2.170  0.1849  0.0318  1.3328
 3310TIP3    H231566   3.215   5.010   2.260 -1.0164  1.3875 -0.8643
 3311TIP3   OH231567   5.472   2.892   2.930 -0.7181 -0.2305 -0.0952
 3311TIP3    H131568   5.548   2.947   2.947 -1.8869  0.8926  1.8021
 3311TIP3    H231569   5.504   2.803   2.941  0.8090  0.0811 -1.5719
 3312TIP3   OH231570   6.748   2.961   0.575  0.4764 -0.2115 -0.0692
 3312TIP3    H131571   6.743   2.881   0.628  2.6738 -0.1553  0.3274
 3312TIP3    H231572   6.832   3.001   0.600 -0.5532  2.2563 -0.2286
 3313TIP3   OH231573   3.544   5.086   8.075  0.2430 -0.3094 -0.3919
 3313TIP3    H131574   3.550   4.998   8.038  3.0783 -1.2243  1.8342
 3313TIP3    H231575   3.463   5.121   8.040 -1.7276 -4.2772 -0.3829
 3314TIP3   OH231576   4.197   1.807   1.213 -0.4457  0.7051  0.0495
 3314TIP3    H131577   4.167   1.894   1.240 -1.0553  0.6026 -0.2773
 3314TIP3    H231578   4.129   1.747   1.243 -0.5655  0.4669 -0.6636
 3315TIP3   OH231579   6.499   3.070   0.134 -0.4407  0.2278  0.7786
 3315TIP3    H131580   6.499   3.166   0.140  1.8044  0.4256 -1.1190
 3315TIP3    H231581   6.576   3.043   0.184 -1.3408 -0.6877  1.7263
 3316TIP3   OH231582   6.251   3.480   1.982  0.5172  0.0781  0.1408
 3316TIP3    H131583   6.336   3.453   1.948  0.9302  1.0457  0.3502
 3316TIP3    H231584   6.265   3.571   2.011 -0.6183  0.3028  0.0396
 3317TIP3   OH231585   1.659   6.293   0.075  0.0234 -0.2203 -0.4374
 3317TIP3    H131586   1.702   6.212   0.104 -0.7105  0.0125  1.4669
 3317TIP3    H231587   1.688   6.359   0.138 -1.8184  0.2985 -0.0803
 3318TIP3   OH231588   4.111   6.638   8.676 -0.0455  0.3161  0.1446
 3318TIP3    H131589   4.186   6.662   8.732 -1.0743  0.2215  1.6310
 3318TIP3    H231590   4.040   6.622   8.738 -1.9582  2.5981 -1.3015
 3319TIP3   OH231591   3.608   2.788   3.432  0.0600 -0.4557 -0.4035
 3319TIP3    H131592   3.627   2.872   3.392  0.0964 -0.8855 -1.3093
 3319TIP3    H231593   3.674   2.728   3.397  0.0692 -0.8534  0.2681
 3320TIP3   OH231594   2.004   4.746   1.047 -0.1197 -0.5913 -0.0826
 3320TIP3    H131595   1.935   4.780   1.104  0.4630  1.2503 -0.4350
 3320TIP3    H231596   2.075   4.809   1.054  1.6673 -2.5289  0.4037
 3321TIP3   OH231597   2.854   2.899   8.929 -0.3608  0.1106  0.0731
 3321TIP3    H131598   2.871   2.991   8.913 -0.2389  0.1234  0.2706
 3321TIP3    H231599   2.919   2.873   8.995 -1.1615  0.1967  0.9338
 3322TIP3   OH231600   4.596   2.195   0.064 -0.2274  0.0715 -0.0669
 3322TIP3    H131601   4.617   2.170  -0.026 -3.9346  0.0659 -1.1010
 3322TIP3    H231602   4.583   2.112   0.110 -0.2636  0.0779 -0.0657
 3323TIP3   OH231603   3.422   5.057   0.909  0.4532 -0.7793 -0.0146
 3323TIP3    H131604   3.327   5.050   0.923  0.7230 -1.1717  1.9001
 3323TIP3    H231605   3.431   5.066   0.814 -1.5744  0.8148 -0.1403
 3324TIP3   OH231606   0.271   1.704   1.490 -0.1599  0.3991 -0.5057
 3324TIP3    H131607   0.232   1.702   1.403  1.0635  0.0231 -1.0707
 3324TIP3    H231608   0.222   1.772   1.537  0.2602  1.8335 -2.0345
 3325TIP3   OH231609   4.592   0.672   7.392  0.3896  0.6474 -0.0442
 3325TIP3    H131610   4.499   0.690   7.381  0.0457 -1.1274 -0.3726
 3325TIP3    H231611   4.601   0.644   7.483  0.2911 -0.7071 -0.4263
 3326TIP3   OH231612   3.363   3.506   2.785 -0.2994 -0.1016 -0.4062
 3326TIP3    H131613   3.340   3.521   2.877 -1.0239 -0.3325 -0.5398
 3326TIP3    H231614   3.398   3.590   2.756 -1.9713  0.6172 -0.4605
 3327TIP3   OH231615   3.033   4.647   0.350  0.4601  0.6747 -0.1150
 3327TIP3    H131616   3.077   4.710   0.293  0.7985  1.3628  0.8845
 3327TIP3    H231617   2.947   4.685   0.366 -0.1220 -0.1294 -1.1525
 3328TIP3   OH231618   5.847   3.198   3.312  0.2134  0.2279  0.0077
 3328TIP3    H131619   5.903   3.275   3.305  3.5782 -2.1146 -4.5943
 3328TIP3    H231620   5.784   3.206   3.241  1.7158 -1.7786 -1.6949
 3329TIP3   OH231621   4.513   3.412   8.726 -0.1620  0.1094 -0.3441
 3329TIP3    H131622   4.568   3.355   8.780 -0.0925  0.0685 -0.4576
 3329TIP3    H231623   4.424   3.397   8.758 -0.1554 -0.1374 -0.4371
 3330TIP3   OH231624   4.975   3.213   1.132 -0.3784  0.2237  0.2129
 3330TIP3    H131625   4.891   3.210   1.086 -0.4843  2.4502  0.1853
 3330TIP3    H231626   4.971   3.292   1.186  1.4567  0.0274  0.7067
 3331TIP3   OH231627   5.883   0.378   1.368  0.4501 -0.0841  0.6778
 3331TIP3    H131628   5.962   0.353   1.415 -0.9065 -1.9493  2.1524
 3331TIP3    H231629   5.839   0.295   1.348 -0.1992  0.7890 -1.8706
 3332TIP3   OH231630   6.511   0.232   8.236 -0.7090 -0.1305  0.3358
 3332TIP3    H131631   6.468   0.172   8.297 -1.9286 -0.6995 -1.0242
 3332TIP3    H231632   6.575   0.177   8.189 -1.7693 -0.4028 -0.8539
 3333TIP3   OH231633   6.176   6.122   1.071 -0.2377  0.3306  0.7018
 3333TIP3    H131634   6.229   6.097   0.995 -2.8348 -0.3571 -1.0147
 3333TIP3    H231635   6.221   6.198   1.107  1.3295  0.4415 -1.2890
 3334TIP3   OH231636   3.467   1.725   8.509 -0.2077  0.0007  0.0575
 3334TIP3    H131637   3.389   1.681   8.544 -0.6516 -0.8684 -1.9185
 3334TIP3    H231638   3.529   1.724   8.582 -0.9294 -2.1049  0.7155
 3335TIP3   OH231639   4.202   5.724   2.886 -0.4470  0.4799 -0.5283
 3335TIP3    H131640   4.211   5.631   2.864 -0.0239  0.3228  0.2483
 3335TIP3    H231641   4.211   5.726   2.981 -1.8916  1.1548 -0.3842
 3336TIP3   OH231642   0.129   4.216   2.605  0.1731  0.0443 -0.2976
 3336TIP3    H131643   0.058   4.271   2.637 -0.3894 -0.2845 -0.9476
 3336TIP3    H231644   0.207   4.247   2.651 -0.2707  0.8717 -0.0932
 3337TIP3   OH231645   5.461   0.220   7.814 -0.2329  0.1966 -0.7060
 3337TIP3    H131646   5.475   0.225   7.720  0.4713  1.0358 -0.5674
 3337TIP3    H231647   5.366   0.225   7.824 -0.4491 -1.6325 -1.4474
 3338TIP3   OH231648   3.666   4.645   8.508  0.2598 -0.2159 -0.2582
 3338TIP3    H131649   3.711   4.727   8.486 -1.3978  0.7341 -0.2155
 3338TIP3    H231650   3.638   4.656   8.599 -0.2872 -0.6951 -0.3644
 3339TIP3   OH231651   6.643   6.099   3.126  0.3813 -0.4054 -0.4816
 3339TIP3    H131652   6.660   6.150   3.046 -0.6859 -1.7667 -1.6280
 3339TIP3    H231653   6.549   6.083   3.124 -0.2826  2.1473  2.7197
 3340TIP3   OH231654   3.918   3.742   1.515  0.3887 -1.0163  0.0565
 3340TIP3    H131655   4.006   3.777   1.500  1.0932 -2.4405  0.5928
 3340TIP3    H231656   3.922   3.653   1.480 -0.9456 -1.0002 -0.1754
 3341TIP3   OH231657   1.001   2.210   3.219  0.1251 -0.1596 -0.1417
 3341TIP3    H131658   1.049   2.147   3.272 -1.4817  1.3134  3.3963
 3341TIP3    H231659   1.067   2.250   3.163  2.3259 -0.6690  1.9599
 3342TIP3   OH231660   2.552   2.404   8.649  0.2908 -0.5109 -0.4996
 3342TIP3    H131661   2.541   2.481   8.593 -0.4906 -1.9105 -2.3995
 3342TIP3    H231662   2.613   2.348   8.600  1.5816 -0.7329  1.2780
 3343TIP3   OH231663   3.139   0.152   1.032 -0.5138 -0.0823 -0.1788
 3343TIP3    H131664   3.124   0.247   1.035 -1.5991 -0.2360 -0.4372
 3343TIP3    H231665   3.226   0.141   1.071 -0.6994  0.9523  0.5846
 3344TIP3   OH231666   4.219   4.781   1.120  0.5063 -0.2312  0.2218
 3344TIP3    H131667   4.139   4.832   1.104 -0.9018 -2.1905  0.7438
 3344TIP3    H231668   4.282   4.816   1.057 -1.8745 -1.0950 -2.8764
 3345TIP3   OH231669   3.506   0.414   2.511 -0.8997 -0.0624  0.0551
 3345TIP3    H131670   3.529   0.347   2.447  0.2142 -0.1282  0.5057
 3345TIP3    H231671   3.455   0.367   2.577  0.2191 -0.5825  0.5800
 3346TIP3   OH231672   6.248   4.287   8.490 -0.5169  0.4186 -0.0554
 3346TIP3    H131673   6.308   4.271   8.417 -1.6509 -0.5664 -0.8121
 3346TIP3    H231674   6.275   4.224   8.558 -0.4251  0.2712 -0.2281
 3347TIP3   OH231675   2.897   0.655   2.093  0.3963 -0.8415 -0.5581
 3347TIP3    H131676   2.850   0.574   2.071  0.8140 -0.9665 -0.9999
 3347TIP3    H231677   2.904   0.653   2.188 -0.3318 -0.9158 -0.5000
 3348TIP3   OH231678   6.510   1.559   7.723 -0.2020 -0.4153 -0.4904
 3348TIP3    H131679   6.491   1.481   7.671  1.4468 -2.9478  2.3360
 3348TIP3    H231680   6.606   1.568   7.719 -0.2825  0.9380 -0.0329
 3349TIP3   OH231681   0.030   3.445   2.819  0.2577  0.0839 -0.3023
 3349TIP3    H131682  -0.016   3.499   2.883  0.0792 -1.8947  1.3465
 3349TIP3    H231683  -0.007   3.472   2.734 -1.6196  0.7913  0.6712
 3350TIP3   OH231684   2.832   4.960   0.841  0.6277 -0.6366 -0.1252
 3350TIP3    H131685   2.769   4.899   0.881  1.7692 -2.0176 -0.3519
 3350TIP3    H231686   2.779   5.014   0.782 -1.1928  1.6301  3.2183
 3351TIP3   OH231687   0.065   0.659   2.793  0.3815  0.4667 -0.1262
 3351TIP3    H131688  -0.017   0.658   2.744  0.4993  0.3942 -0.3216
 3351TIP3    H231689   0.097   0.570   2.788 -0.1124  0.2181  0.9471
 3352TIP3   OH231690   0.604   4.792   0.770  0.2101  0.4843 -0.6313
 3352TIP3    H131691   0.682   4.821   0.724  0.8077  0.2624  0.2151
 3352TIP3    H231692   0.600   4.847   0.848  0.9348 -1.1073  0.6001
 3353TIP3   OH231693   5.089   0.834   7.429 -0.2375 -0.5106 -0.2764
 3353TIP3    H131694   5.033   0.772   7.383  0.8470 -0.9045 -1.1054
 3353TIP3    H231695   5.034   0.911   7.442 -1.1818 -1.1496 -0.4365
 3354TIP3   OH231696   6.519   3.382   1.999  0.1253  0.4746 -0.2630
 3354TIP3    H131697   6.595   3.440   1.990 -0.4215  1.3082  0.3129
 3354TIP3    H231698   6.548   3.313   2.059  1.3778 -0.9345 -2.3484
 3355TIP3   OH231699   6.179   3.032   1.755 -0.4126  0.9179  0.7216
 3355TIP3    H131700   6.088   3.038   1.725 -0.7256  0.9437  1.6334
 3355TIP3    H231701   6.214   3.120   1.746  0.0330  0.5943 -1.1212
 3356TIP3   OH231702   4.299   5.026   8.573  0.2460  0.0774  0.5193
 3356TIP3    H131703   4.362   5.035   8.502  0.9496 -1.1911  0.9455
 3356TIP3    H231704   4.235   5.095   8.558 -1.7860 -2.2686 -3.5251
 3357TIP3   OH231705   2.422   6.552   0.508 -0.2785 -0.6461  0.2439
 3357TIP3    H131706   2.452   6.596   0.587 -0.7551 -1.6181  0.9787
 3357TIP3    H231707   2.487   6.577   0.441  0.0348  0.3086  0.8819
 3358TIP3   OH231708   0.893   1.010   3.485 -0.5020  0.4785  0.4424
 3358TIP3    H131709   0.885   1.046   3.397  0.8327 -0.4986 -0.1114
 3358TIP3    H231710   0.946   1.074   3.533 -0.0241  0.3362  0.1127
 3359TIP3   OH231711   2.709   5.345   1.075  0.1518  0.0100  0.6410
 3359TIP3    H131712   2.641   5.350   1.008  1.2468 -0.6342 -0.5580
 3359TIP3    H231713   2.661   5.344   1.158 -1.1953  2.2336 -0.0142
 3360TIP3   OH231714   6.267   4.635   2.653  0.2753  0.1604 -0.3180
 3360TIP3    H131715   6.336   4.645   2.588 -0.5743  1.4146 -1.0633
 3360TIP3    H231716   6.187   4.658   2.607 -0.3560  1.0709  1.1523
 3361TIP3   OH231717   4.049   5.831   2.355  0.3847  0.4744  0.3281
 3361TIP3    H131718   4.013   5.743   2.365  0.2864  0.4913  0.1300
 3361TIP3    H231719   4.073   5.858   2.444  0.4198  0.2461  0.3882
 3362TIP3   OH231720   5.296   6.625   8.407  0.0658 -0.3900  0.0668
 3362TIP3    H131721   5.294   6.536   8.372 -0.2402 -0.4768  0.3007
 3362TIP3    H231722   5.332   6.615   8.495  2.3810  0.0120 -0.7404
 3363TIP3   OH231723   2.118   6.631   0.764  0.0478  0.6619 -0.1503
 3363TIP3    H131724   2.122   6.538   0.742 -0.0767  0.8565 -1.0459
 3363TIP3    H231725   2.052   6.667   0.705  1.3983  1.6490 -1.1293
 3364TIP3   OH231726   6.334   3.153   0.583  0.7283  0.3787 -0.3268
 3364TIP3    H131727   6.311   3.118   0.497  1.1614 -1.5251  0.2800
 3364TIP3    H231728   6.429   3.157   0.583  0.7869 -0.5099  0.3416
 3365TIP3   OH231729   4.528   4.411   8.768  0.2325  0.3918 -0.2356
 3365TIP3    H131730   4.513   4.316   8.769 -1.3643  0.5850  2.3391
 3365TIP3    H231731   4.568   4.428   8.682  1.4747 -2.7144 -0.4013
 3366TIP3   OH231732   4.850   1.106   2.035 -0.3329  0.4208 -0.2769
 3366TIP3    H131733   4.782   1.152   2.085 -0.8249 -0.3614 -0.2139
 3366TIP3    H231734   4.809   1.085   1.951 -0.4867 -0.8150  0.0783
 3367TIP3   OH231735   2.060   3.202   1.140  0.2557  0.2113  0.0643
 3367TIP3    H131736   2.131   3.219   1.202  0.0511  1.5932 -0.0330
 3367TIP3    H231737   1.985   3.248   1.177 -0.2756 -0.2589 -0.4229
 3368TIP3   OH231738   0.999   0.205   0.451  0.3430  0.5442 -0.0332
 3368TIP3    H131739   1.083   0.207   0.496  0.4693  0.6384 -0.2685
 3368TIP3    H231740   0.942   0.154   0.508  0.1039  1.8215  0.9019
 3369TIP3   OH231741   6.529   1.480   1.218 -0.1438 -0.3829 -0.5917
 3369TIP3    H131742   6.606   1.432   1.187  0.5399 -0.3513  0.9168
 3369TIP3    H231743   6.520   1.452   1.309 -0.0119  1.9284  0.1928
 3370TIP3   OH231744   4.830   5.832   0.671  0.2882 -1.0584 -1.0112
 3370TIP3    H131745   4.894   5.884   0.623  0.7273 -1.6949 -1.1343
 3370TIP3    H231746   4.779   5.896   0.721  0.3968 -0.4643 -1.6460
 3371TIP3   OH231747   5.896   0.049   1.492 -0.0915  0.7928 -0.3137
 3371TIP3    H131748   5.821  -0.003   1.523  1.1473 -0.5107  0.6091
 3371TIP3    H231749   5.966  -0.015   1.481  1.6939  2.3467  1.5064
 3372TIP3   OH231750   2.520   4.130   7.309  0.0692 -0.0655 -0.1377
 3372TIP3    H131751   2.572   4.204   7.276 -0.7178 -0.1762 -1.7038
 3372TIP3    H231752   2.435   4.168   7.331  0.0761 -0.2831  0.2723
 3373TIP3   OH231753   4.487   2.427   0.171 -0.2385 -0.3739 -0.0336
 3373TIP3    H131754   4.429   2.364   0.213  0.0032 -0.7994 -0.3253
 3373TIP3    H231755   4.558   2.373   0.134  1.3694  0.2841  1.9355
 3374TIP3   OH231756   5.894   5.463   1.233  0.5357 -0.4096  0.0737
 3374TIP3    H131757   5.850   5.431   1.154  0.8487  0.0087 -0.2751
 3374TIP3    H231758   5.985   5.475   1.207  1.2393 -2.6950  1.1806
 3375TIP3   OH231759   5.855   0.483   0.257  0.0970  0.5672  0.0071
 3375TIP3    H131760   5.811   0.539   0.322  1.4669  0.4539  1.0897
 3375TIP3    H231761   5.887   0.544   0.191  0.6016  0.9604  0.5966
 3376TIP3   OH231762   3.869   1.709   0.089  0.2499  0.7899  0.2692
 3376TIP3    H131763   3.895   1.617   0.083 -1.3372  0.3655 -1.2408
 3376TIP3    H231764   3.893   1.746   0.004 -2.3173  0.7727 -0.5656
 3377TIP3   OH231765   2.388   5.312   7.850  0.0006 -0.2737 -0.6550
 3377TIP3    H131766   2.442   5.384   7.818 -0.9980  0.2665 -1.1500
 3377TIP3    H231767   2.355   5.342   7.935  1.4245 -1.0955  0.2291
 3378TIP3   OH231768   5.686   3.400   0.583  0.2264  0.0059  0.2763
 3378TIP3    H131769   5.635   3.460   0.638 -0.5670  0.1093 -0.5468
 3378TIP3    H231770   5.630   3.384   0.507  0.8458 -1.0037  0.0176
 3379TIP3   OH231771   1.383   3.483   8.297 -0.3152  0.0927  0.2714
 3379TIP3    H131772   1.354   3.415   8.357 -0.9758 -0.0798 -0.2229
 3379TIP3    H231773   1.440   3.437   8.235 -1.7948 -0.3217 -0.8506
 3380TIP3   OH231774   2.557   1.908   0.447  0.1729  0.3581  0.5736
 3380TIP3    H131775   2.621   1.920   0.377  0.2024  0.7648  0.6665
 3380TIP3    H231776   2.512   1.992   0.452 -0.2030  0.1503  0.6733
 3381TIP3   OH231777   2.761   4.504   0.127  0.3137 -0.2998 -0.0834
 3381TIP3    H131778   2.706   4.463   0.194  0.3926 -1.1576 -0.5204
 3381TIP3    H231779   2.767   4.596   0.153 -1.2678 -0.1908  0.0025
 3382TIP3   OH231780   2.763   3.211   0.902 -0.3404 -0.3597 -0.1484
 3382TIP3    H131781   2.721   3.126   0.890 -0.6107 -0.0698 -1.4626
 3382TIP3    H231782   2.788   3.237   0.813  1.3353  0.1309  0.4422
 3383TIP3   OH231783   3.671   0.085   2.918  0.0597  0.1060  0.1770
 3383TIP3    H131784   3.740   0.034   2.960  0.7241  1.6487  1.0560
 3383TIP3    H231785   3.687   0.075   2.824  0.1635 -1.2702  0.3323
 3384TIP3   OH231786   4.075   3.646   8.472  0.1832 -0.0799  0.1719
 3384TIP3    H131787   4.026   3.619   8.395 -0.5480 -2.1389  1.2633
 3384TIP3    H231788   4.049   3.737   8.488 -0.8494 -0.1392 -1.0801
 3385TIP3   OH231789   0.772   5.709   8.934 -0.1084 -0.6678  0.1220
 3385TIP3    H131790   0.698   5.659   8.967 -0.0142  0.2345  1.8492
 3385TIP3    H231791   0.770   5.791   8.984  0.2160  0.7356 -2.0163
 3386TIP3   OH231792   1.907   5.468   0.849 -0.2472  0.1278 -0.1902
 3386TIP3    H131793   1.970   5.405   0.811 -1.6436 -1.9072  0.7033
 3386TIP3    H231794   1.865   5.420   0.920 -1.9037  1.8743  0.0848
 3387TIP3   OH231795   4.079   3.645   2.440 -0.2701  0.3260  0.4133
 3387TIP3    H131796   4.009   3.593   2.479  1.1641 -1.4468  0.7211
 3387TIP3    H231797   4.058   3.647   2.346  1.3980 -3.9693 -0.2903
 3388TIP3   OH231798   2.964   2.898   0.235  0.2559  0.2305  0.7105
 3388TIP3    H131799   3.053   2.863   0.238 -0.2501 -1.0875  1.2612
 3388TIP3    H231800   2.908   2.824   0.258 -0.9250  1.2828  1.4060
 3389TIP3   OH231801   4.986   4.985   1.639  0.0716 -0.4861  0.4786
 3389TIP3    H131802   5.021   4.946   1.719  1.0014 -0.3660  0.1439
 3389TIP3    H231803   5.010   5.078   1.646  1.5655 -0.7555 -0.6572
 3390TIP3   OH231804   1.617   3.441   2.986  0.0791 -0.0441 -0.4700
 3390TIP3    H131805   1.558   3.373   2.953 -1.2162  0.6298  0.3665
 3390TIP3    H231806   1.693   3.393   3.018 -0.3966 -1.0168 -0.7519
 3391TIP3   OH231807   0.935   1.634   1.374  0.8084  0.2143  0.7010
 3391TIP3    H131808   0.915   1.728   1.378  0.5070  0.2016 -0.2821
 3391TIP3    H231809   1.004   1.621   1.439  1.3802  1.2549  0.3212
 3392TIP3   OH231810   4.847   6.578   3.240  0.4021  0.4359 -0.0444
 3392TIP3    H131811   4.882   6.644   3.299 -0.3666 -0.2841  1.2583
 3392TIP3    H231812   4.899   6.587   3.160  1.7841  1.1126  0.9033
 3393TIP3   OH231813   4.695   3.856   0.682  0.4110 -0.4852  0.4484
 3393TIP3    H131814   4.638   3.875   0.756  0.7014 -1.3543  0.9095
 3393TIP3    H231815   4.648   3.889   0.606  1.3478  3.1157  1.2261
 3394TIP3   OH231816   0.681   0.958   3.651 -0.0777 -0.0314 -0.2506
 3394TIP3    H131817   0.752   1.002   3.604  0.5293 -1.6714 -0.9300
 3394TIP3    H231818   0.602   1.005   3.625  0.5129  0.5011 -1.1310
 3395TIP3   OH231819   0.488   3.815   0.330 -0.3159  0.0217 -0.2078
 3395TIP3    H131820   0.461   3.778   0.414  0.6528 -0.9948 -0.3131
 3395TIP3    H231821   0.430   3.774   0.266 -0.3639 -0.0178 -0.1395
 3396TIP3   OH231822   0.851   1.407   2.761  0.2817  0.6877 -0.3853
 3396TIP3    H131823   0.797   1.466   2.708  0.5355 -1.2029 -2.9597
 3396TIP3    H231824   0.794   1.380   2.833 -1.0476  1.3534 -1.1488
 3397TIP3   OH231825   2.975   2.264   1.035  0.3672 -0.0199  0.4154
 3397TIP3    H131826   2.940   2.244   1.122  0.5479 -0.1317  0.4620
 3397TIP3    H231827   2.899   2.257   0.977 -0.2162  2.0050  0.8224
 3398TIP3   OH231828   5.319   2.516   3.006 -0.4083  0.1132  0.5169
 3398TIP3    H131829   5.408   2.552   3.004 -1.1454  2.0427  0.5759
 3398TIP3    H231830   5.322   2.442   2.946  0.1361  2.9370 -3.2580
 3399TIP3   OH231831   1.806   0.449   2.880  0.2817 -0.1661  0.2096
 3399TIP3    H131832   1.880   0.398   2.914 -0.1987 -1.0752 -0.0555
 3399TIP3    H231833   1.780   0.505   2.953  0.5761 -0.5872  0.6490
 3400TIP3   OH231834   0.783   6.547   1.296  0.3455  0.3951  0.3044
 3400TIP3    H131835   0.778   6.642   1.305  0.0296  0.3565  0.5469
 3400TIP3    H231836   0.695   6.516   1.317  0.1113  0.1449 -0.9449
 3401TIP3   OH231837   0.832   1.258   3.309 -0.0202  0.4390  0.2998
 3401TIP3    H131838   0.918   1.235   3.275 -0.5788  1.9308 -2.3732
 3401TIP3    H231839   0.848   1.338   3.360  0.3533 -0.0078  0.8942
 3402TIP3   OH231840   0.901   5.413   2.076  0.2908  0.1554  0.7477
 3402TIP3    H131841   0.858   5.480   2.023 -0.9688  0.2468  1.8438
 3402TIP3    H231842   0.832   5.378   2.132  0.8687 -2.2004  0.0978
 3403TIP3   OH231843   2.614   6.074   8.828 -0.2261 -0.0529 -0.5029
 3403TIP3    H131844   2.682   6.011   8.806  0.3378 -0.4212  1.9579
 3403TIP3    H231845   2.618   6.140   8.759  1.2484 -1.1261 -1.4854
 3404TIP3   OH231846   0.415   0.706   2.630  0.2098 -0.4462 -0.0238
 3404TIP3    H131847   0.341   0.753   2.593 -2.4627 -3.9595  0.3143
 3404TIP3    H231848   0.445   0.649   2.559  1.0405 -0.7291  0.5414
 3405TIP3   OH231849   3.697   3.963   1.160 -0.1492  0.0468 -0.4448
 3405TIP3    H131850   3.691   3.988   1.068 -0.5833 -0.1434 -0.4673
 3405TIP3    H231851   3.624   3.903   1.175 -1.1417  1.4189  0.4502
 3406TIP3   OH231852   0.584   6.022   3.137  0.4983 -0.2241  0.8093
 3406TIP3    H131853   0.639   6.050   3.063  0.0736  0.5422  0.7663
 3406TIP3    H231854   0.646   6.003   3.207  0.8105  1.0008  0.8878
 3407TIP3   OH231855   2.930   3.500   7.828  0.6948  0.1003  0.3744
 3407TIP3    H131856   2.993   3.484   7.898 -0.6736 -1.4401  1.3329
 3407TIP3    H231857   2.983   3.526   7.753  2.3054  0.5823  1.6169
 3408TIP3   OH231858   5.581   4.186   0.769 -0.4618  0.2565  0.2528
 3408TIP3    H131859   5.556   4.095   0.753  1.1317 -0.3804  1.1194
 3408TIP3    H231860   5.510   4.222   0.822 -1.6747 -0.1028 -1.0594
 3409TIP3   OH231861   1.080   3.309   2.294  0.2642 -0.0626  0.3655
 3409TIP3    H131862   1.033   3.234   2.257  0.7847  0.3496 -1.2233
 3409TIP3    H231863   1.171   3.296   2.267  0.9082 -0.2634  2.4331
 3410TIP3   OH231864   6.588   2.504   2.656  0.0393 -0.1333  0.1148
 3410TIP3    H131865   6.567   2.509   2.749 -0.0752  1.5630  0.0291
 3410TIP3    H231866   6.678   2.473   2.653 -0.0134 -0.3560  0.7900
 3411TIP3   OH231867   6.073   3.445   8.932  0.0038  0.0879  0.4885
 3411TIP3    H131868   6.061   3.516   8.868  2.2024  0.5331  0.4980
 3411TIP3    H231869   6.167   3.446   8.952  0.1467 -2.9546  0.3871
 3412TIP3   OH231870   1.933   1.223   7.649 -0.0138 -0.1674 -0.0504
 3412TIP3    H131871   1.919   1.289   7.582  1.7210 -0.3804 -0.6870
 3412TIP3    H231872   1.895   1.260   7.729 -1.6815  0.2916 -1.0236
 3413TIP3   OH231873   5.201   3.729   1.269 -0.0126  0.1028  0.3404
 3413TIP3    H131874   5.188   3.739   1.175 -0.2294 -1.2079  0.2022
 3413TIP3    H231875   5.199   3.634   1.283 -1.7604  0.3114  1.8959
 3414TIP3   OH231876   3.375   5.857   7.720 -0.0451  0.0006  0.3179
 3414TIP3    H131877   3.303   5.807   7.758  1.8709 -1.6165  2.0318
 3414TIP3    H231878   3.398   5.921   7.787 -1.3720  2.1892 -1.1954
 3415TIP3   OH231879   1.782   1.548   0.630  0.2134  0.1059  0.3557
 3415TIP3    H131880   1.720   1.497   0.578  0.6241  1.7350 -1.9147
 3415TIP3    H231881   1.816   1.486   0.695 -2.8226 -1.1490  0.9136
 3416TIP3   OH231882   1.218   4.213   2.630  0.0892 -0.2518 -0.9337
 3416TIP3    H131883   1.125   4.232   2.629  0.2224  0.4443 -2.6198
 3416TIP3    H231884   1.255   4.281   2.687 -0.3882 -0.3027 -0.5588
 3417TIP3   OH231885   0.826   5.623   3.172 -0.3228  0.5405  0.0547
 3417TIP3    H131886   0.818   5.576   3.255  0.2626  1.0367  0.4085
 3417TIP3    H231887   0.920   5.640   3.163  0.0003 -1.7863 -2.0149
 3418TIP3   OH231888   1.677   1.014   2.064  0.4183  0.5640 -0.4007
 3418TIP3    H131889   1.767   0.982   2.074  0.6085  0.6491 -1.6727
 3418TIP3    H231890   1.666   1.079   2.133  1.1988  0.2500  0.0219
 3419TIP3   OH231891   4.285   3.308   1.426 -0.6376 -0.2507  0.1416
 3419TIP3    H131892   4.234   3.322   1.346 -0.9800 -1.1291  0.1848
 3419TIP3    H231893   4.313   3.216   1.420  4.6517  1.1381 -1.9794
 3420TIP3   OH231894   1.059   3.743   2.753  0.0125  0.4175 -0.3344
 3420TIP3    H131895   1.102   3.691   2.821 -2.0192 -1.6844 -0.5517
 3420TIP3    H231896   0.966   3.724   2.763 -0.3848 -0.1210 -3.7301
 3421TIP3   OH231897   2.483   1.028   0.504  0.3335  0.7662 -0.4271
 3421TIP3    H131898   2.451   0.969   0.436 -1.0084  1.5110 -0.4843
 3421TIP3    H231899   2.571   1.052   0.476  0.4502 -0.2622 -1.0045
 3422TIP3   OH231900   5.919   4.311   0.045 -0.0678  0.1478  0.5498
 3422TIP3    H131901   5.853   4.292  -0.021 -0.9250 -1.7305  1.8378
 3422TIP3    H231902   5.911   4.405   0.061 -1.1565  0.2791 -0.6355
 3423TIP3   OH231903   0.686   1.782   7.879 -0.1668 -0.0004 -0.1875
 3423TIP3    H131904   0.767   1.768   7.830  0.0870 -0.6341  0.3789
 3423TIP3    H231905   0.694   1.722   7.954 -0.6784  0.7135  0.4480
 3424TIP3   OH231906   4.386   3.510   1.137  0.2132  0.3814  0.1263
 3424TIP3    H131907   4.354   3.460   1.212  0.2362  1.4248  0.8588
 3424TIP3    H231908   4.310   3.561   1.109  0.0501 -0.4221 -0.9321
 3425TIP3   OH231909   3.526   6.264   0.526 -0.1430  0.2519 -0.0028
 3425TIP3    H131910   3.571   6.189   0.565  0.2084  0.1698 -0.5542
 3425TIP3    H231911   3.449   6.276   0.580 -1.3673 -1.8527 -1.1356
 3426TIP3   OH231912   4.313   0.704   1.916 -0.0543  0.2306 -0.1949
 3426TIP3    H131913   4.243   0.764   1.890 -0.9260 -0.4357  0.5561
 3426TIP3    H231914   4.272   0.645   1.978  1.1206 -0.3483  0.0564
 3427TIP3   OH231915   1.106   4.601   0.261 -0.2061  0.6194 -0.0318
 3427TIP3    H131916   1.101   4.506   0.249 -1.2438  0.5923  0.4778
 3427TIP3    H231917   1.130   4.612   0.353 -0.1477  0.8455 -0.0748
 3428TIP3   OH231918   4.131   6.606   7.610 -0.0040 -0.1375 -0.3477
 3428TIP3    H131919   4.197   6.655   7.560  1.0904  1.5680  2.5112
 3428TIP3    H231920   4.047   6.633   7.572  0.7319  1.8210 -0.6899
 3429TIP3   OH231921   3.180   6.515   0.238  0.1329  0.6137 -0.0694
 3429TIP3    H131922   3.260   6.466   0.259 -0.8898 -0.2526  2.0348
 3429TIP3    H231923   3.211   6.604   0.219  1.8086 -0.2587 -1.8367
 3430TIP3   OH231924   6.506   0.408   0.960  0.2412 -0.2886  0.4287
 3430TIP3    H131925   6.576   0.470   0.980  0.0031 -0.3590  1.5917
 3430TIP3    H231926   6.543   0.348   0.895  1.3577 -0.4859  1.2259
 3431TIP3   OH231927   1.470   0.826   2.131  0.5020  0.0110  0.0609
 3431TIP3    H131928   1.449   0.759   2.067  1.0096 -0.0113 -0.0917
 3431TIP3    H231929   1.555   0.861   2.102  0.6751  0.0899  0.6415
 3432TIP3   OH231930   5.277   4.541   2.239 -0.2774 -0.6011 -0.2948
 3432TIP3    H131931   5.355   4.553   2.186  1.0363 -1.0982  1.4157
 3432TIP3    H231932   5.260   4.447   2.237 -0.2075 -0.6258  0.1668
 3433TIP3   OH231933   2.352   0.919   2.769  0.2719  0.1135  0.6521
 3433TIP3    H131934   2.418   0.908   2.701 -0.5984  2.6187 -0.7470
 3433TIP3    H231935   2.362   0.842   2.826  1.2020 -1.9685 -2.1239
 3434TIP3   OH231936   5.648   2.699   0.918 -0.2239  0.0282  0.6011
 3434TIP3    H131937   5.734   2.658   0.922  1.4822  3.0590 -1.0666
 3434TIP3    H231938   5.592   2.636   0.873  1.7355 -1.1859 -0.2351
 3435TIP3   OH231939   1.304   3.400   0.935  0.3022 -0.1794  0.1639
 3435TIP3    H131940   1.242   3.451   0.988  1.3162  2.1490 -0.7553
 3435TIP3    H231941   1.266   3.401   0.847  0.5115 -0.7248  0.0653
 3436TIP3   OH231942   4.630   5.214   1.576  0.4691  0.5000  0.3487
 3436TIP3    H131943   4.554   5.235   1.522 -0.0194 -0.2549  0.7264
 3436TIP3    H231944   4.705   5.231   1.519 -0.0460 -0.6440 -0.7256
 3437TIP3   OH231945   5.245   3.993   2.441 -0.2167  0.1568 -0.3934
 3437TIP3    H131946   5.320   4.052   2.427  0.6156 -0.9771 -0.8286
 3437TIP3    H231947   5.193   4.037   2.509  2.0823 -0.1410  1.7076
 3438TIP3   OH231948   4.975   5.864   7.445  0.2089 -0.1285  0.5591
 3438TIP3    H131949   4.975   5.869   7.350  0.3453  0.2225  0.5771
 3438TIP3    H231950   4.904   5.923   7.472 -0.4478 -0.9346  0.6424
 3439TIP3   OH231951   6.404   4.441   8.754 -0.1327 -0.6240  0.3402
 3439TIP3    H131952   6.477   4.502   8.763  1.0023 -1.8656 -0.0603
 3439TIP3    H231953   6.397   4.399   8.840 -2.2836  1.4751  1.2853
 3440TIP3   OH231954   1.517   0.659   7.812  0.0796 -0.5122  0.1061
 3440TIP3    H131955   1.506   0.720   7.885 -1.2574 -0.4050 -0.1676
 3440TIP3    H231956   1.612   0.658   7.795  0.2339  0.6158  0.8415
 3441TIP3   OH231957   2.976   5.165   8.483  0.0507 -0.3440 -0.3009
 3441TIP3    H131958   2.980   5.260   8.467 -0.4997 -0.3203 -0.3333
 3441TIP3    H231959   3.022   5.153   8.566 -1.3684  0.2000  0.6217
 3442TIP3   OH231960   5.585   2.200   8.271 -0.6564 -0.0835 -0.6392
 3442TIP3    H131961   5.556   2.178   8.182  0.0723 -3.5855 -0.1564
 3442TIP3    H231962   5.679   2.216   8.262 -0.5298 -0.7142 -0.4913
 3443TIP3   OH231963   6.531   3.316   2.920 -0.1982  0.8113  0.0525
 3443TIP3    H131964   6.482   3.357   2.848 -1.0861 -1.0164 -0.4730
 3443TIP3    H231965   6.586   3.250   2.876 -0.4456 -0.0485  1.0001
 3444TIP3   OH231966   2.302   2.341   0.295 -1.0360 -0.1778 -0.2410
 3444TIP3    H131967   2.349   2.325   0.213 -1.1126  0.2742 -0.3773
 3444TIP3    H231968   2.241   2.412   0.274  0.3211  1.3492  0.7119
 3445TIP3   OH231969   4.924   5.253   0.705 -0.8561  0.2331 -0.1303
 3445TIP3    H131970   4.833   5.255   0.736 -0.5850 -1.4345  0.8678
 3445TIP3    H231971   4.977   5.255   0.785 -0.0502 -0.4360 -0.6256
 3446TIP3   OH231972   1.545   6.201   2.169  0.2354  0.2184 -0.5204
 3446TIP3    H131973   1.600   6.141   2.118 -0.7460 -0.1197 -1.2020
 3446TIP3    H231974   1.598   6.221   2.246  1.3233 -0.0858 -1.1625
 3447TIP3   OH231975   6.253   5.794   8.144  0.1237  0.3134 -0.8817
 3447TIP3    H131976   6.249   5.709   8.100 -1.0166  1.0561 -2.2893
 3447TIP3    H231977   6.303   5.850   8.083 -2.2601  1.6112 -1.7555
 3448TIP3   OH231978   3.197   2.217   8.360  0.1149 -0.2045 -0.0969
 3448TIP3    H131979   3.211   2.243   8.451 -0.7053  0.6118 -0.1753
 3448TIP3    H231980   3.243   2.284   8.309  1.8965 -1.5283 -0.2958
 3449TIP3   OH231981   6.593   2.598   0.904 -0.2320 -0.2015 -0.4532
 3449TIP3    H131982   6.659   2.639   0.960 -0.7615  0.8486 -0.5868
 3449TIP3    H231983   6.615   2.504   0.908  0.3981 -0.0377  0.6379
 3450TIP3   OH231984   0.277   0.077   3.744  0.6087 -0.0251 -0.5620
 3450TIP3    H131985   0.337   0.141   3.707  0.8178 -0.3605 -0.8045
 3450TIP3    H231986   0.300   0.073   3.837 -0.4681  1.4384 -0.1879
 3451TIP3   OH231987   6.390   2.067   0.095 -0.1011  0.6847 -0.0004
 3451TIP3    H131988   6.389   2.081   0.001  0.7410  0.0907 -0.1038
 3451TIP3    H231989   6.308   2.021   0.114  0.8702 -1.4909 -0.8230
 3452TIP3   OH231990   2.919   1.143   2.899  0.0889 -0.5099 -0.3419
 3452TIP3    H131991   2.851   1.106   2.955 -0.6209  2.1641  0.7327
 3452TIP3    H231992   2.969   1.202   2.956  0.9302  0.4269 -1.9501
 3453TIP3   OH231993   6.361   5.976   7.955 -0.1706 -0.3800 -0.2592
 3453TIP3    H131994   6.394   5.950   7.869 -0.4682  0.3686 -0.6057
 3453TIP3    H231995   6.300   6.047   7.937 -1.4208 -1.2403  0.4360
 3454TIP3   OH231996   3.944   1.226   8.780  0.2554 -0.0031  0.1904
 3454TIP3    H131997   3.859   1.207   8.741  0.3515  1.5373 -0.8621
 3454TIP3    H231998   3.928   1.302   8.836  0.8712  0.0618  0.2875
 3455TIP3   OH231999   3.528   2.039   1.681 -0.4843  0.4517 -0.2485
 3455TIP3    H132000   3.603   2.065   1.626  0.1042  1.6955  1.0883
 3455TIP3    H232001   3.453   2.045   1.622  0.4413 -0.9174 -1.6500
 3456TIP3   OH232002   1.190   1.534   0.942  0.3097  0.4761  0.4215
 3456TIP3    H132003   1.168   1.627   0.948 -0.2113  0.3792  0.0852
 3456TIP3    H232004   1.169   1.499   1.028 -4.3377 -0.3168 -0.7564
 3457TIP3   OH232005   3.576   5.899   1.986 -0.3118  0.2832 -0.3878
 3457TIP3    H132006   3.643   5.957   1.950 -1.1207  0.8486 -1.0386
 3457TIP3    H232007   3.619   5.854   2.058  0.4315  1.4697 -0.0557
 3458TIP3   OH232008   4.104   2.908   2.764  0.3526  0.1286 -0.0954
 3458TIP3    H132009   4.115   2.830   2.817  0.2719  0.5164  0.4961
 3458TIP3    H232010   4.107   2.980   2.826  1.0491  0.6418 -0.7080
 3459TIP3   OH232011   5.128   0.038   8.615 -0.0079 -0.6914 -0.2626
 3459TIP3    H132012   5.105  -0.007   8.696 -0.5694 -0.0381 -0.0489
 3459TIP3    H232013   5.218   0.067   8.628  0.5545 -2.1913 -0.6144
 3460TIP3   OH232014   5.511   3.556   8.965 -0.2665  0.3368 -0.0158
 3460TIP3    H132015   5.432   3.597   8.930  0.7364  0.2248 -2.7277
 3460TIP3    H232016   5.538   3.612   9.037 -1.6953  1.5198 -0.3547
 3461TIP3   OH232017   2.109   3.342   8.379  0.1220  0.2484  0.3903
 3461TIP3    H132018   2.076   3.266   8.332 -0.8508  0.2475  1.0416
 3461TIP3    H232019   2.032   3.396   8.395  0.8605  1.6130 -0.4600
 3462TIP3   OH232020   3.865   4.285   8.886  0.2169 -0.0277  0.1951
 3462TIP3    H132021   3.811   4.315   8.959  0.2644 -2.2126  1.2316
 3462TIP3    H232022   3.802   4.256   8.820  0.1634  0.5776 -0.0237
 3463TIP3   OH232023   2.016   4.393   1.927 -0.0273 -0.6506 -0.9585
 3463TIP3    H132024   2.023   4.393   2.023 -0.8972 -0.3486 -0.8871
 3463TIP3    H232025   2.056   4.475   1.900 -0.1731 -0.5338 -0.8212
 3464TIP3   OH232026   4.966   0.366   2.299 -0.4079 -0.3702 -0.5489
 3464TIP3    H132027   4.924   0.452   2.294  1.9361  0.8996  0.0257
 3464TIP3    H232028   5.049   0.377   2.253  0.4591 -1.9864  0.5362
 3465TIP3   OH232029   3.857   4.409   7.640 -0.2583 -0.0536 -0.2318
 3465TIP3    H132030   3.802   4.488   7.633 -1.1104 -0.6776 -0.7055
 3465TIP3    H232031   3.795   4.338   7.657  0.5349 -0.5838  0.5804
 3466TIP3   OH232032   6.519   2.059   7.694  0.0786 -0.2561 -0.0088
 3466TIP3    H132033   6.609   2.027   7.705 -0.0021 -0.5125 -0.0874
 3466TIP3    H232034   6.484   2.006   7.622 -0.1198 -0.1238 -0.0089
 3467TIP3   OH232035   6.461   1.561   1.944  0.0640 -0.1741 -0.2847
 3467TIP3    H132036   6.421   1.476   1.924  1.0853 -0.6017 -0.6197
 3467TIP3    H232037   6.507   1.547   2.027  0.1456  0.0866 -0.2854
 3468TIP3   OH232038   3.162   5.546   0.847  0.0526  0.4541  0.1384
 3468TIP3    H132039   3.191   5.518   0.934  0.2917  1.6495  0.4630
 3468TIP3    H232040   3.066   5.539   0.850  0.0384  0.7750  0.6121
 3469TIP3   OH232041   3.397   6.117   0.875 -0.0376 -0.1917  0.1149
 3469TIP3    H132042   3.376   6.136   0.783 -2.3566 -0.1381  0.5923
 3469TIP3    H232043   3.408   6.204   0.915  1.4523 -0.2268 -0.1948
 3470TIP3   OH232044   1.691   4.025   8.027 -0.2854 -0.0098 -0.1319
 3470TIP3    H132045   1.772   4.073   8.042  0.5073 -1.5559  0.8553
 3470TIP3    H232046   1.692   4.005   7.934  0.3769  0.1466 -0.1626
 3471TIP3   OH232047   2.788   1.390   3.130  0.0680  0.0966 -0.0300
 3471TIP3    H132048   2.811   1.482   3.137  0.6517 -0.0493  0.0952
 3471TIP3    H232049   2.706   1.389   3.081 -0.3228  0.7162  0.6075
 3472TIP3   OH232050   1.350   6.280   1.447  0.0848 -0.3316 -0.0556
 3472TIP3    H132051   1.388   6.220   1.383  0.6801 -0.2430  0.2015
 3472TIP3    H232052   1.409   6.274   1.522 -1.6209 -1.8777  1.2541
 3473TIP3   OH232053   5.749   5.133   3.145 -0.7767 -0.5162  0.6200
 3473TIP3    H132054   5.720   5.148   3.235 -0.4896 -1.2303  0.8385
 3473TIP3    H232055   5.813   5.202   3.128 -1.3211  0.0250  0.7286
 3474TIP3   OH232056   2.108   5.766   8.942 -0.4849  1.0014  0.8970
 3474TIP3    H132057   2.144   5.751   9.029 -0.9992  0.1643  0.9776
 3474TIP3    H232058   2.023   5.722   8.943  0.0101 -0.0580 -0.3965
 3475TIP3   OH232059   3.545   1.367   2.250 -0.5454  0.1024 -0.2688
 3475TIP3    H132060   3.613   1.428   2.223  0.3870 -0.5796  0.4937
 3475TIP3    H232061   3.476   1.378   2.184  0.7232  0.0613 -1.6738
 3476TIP3   OH232062   4.626   0.110   0.010 -0.2448 -0.1289  0.5542
 3476TIP3    H132063   4.709   0.114  -0.038 -0.7768 -1.8426 -0.5647
 3476TIP3    H232064   4.625   0.023   0.050 -2.5011 -1.1490 -1.4298
 3477TIP3   OH232065   3.758   6.465   2.513  0.1165 -0.2337 -0.2452
 3477TIP3    H132066   3.843   6.472   2.469 -0.5241 -0.4321 -1.5675
 3477TIP3    H232067   3.780   6.440   2.603  1.3902 -2.1361 -1.0140
 3478TIP3   OH232068   0.354   2.668   3.154 -0.0181  0.4985 -0.1588
 3478TIP3    H132069   0.352   2.714   3.237  0.2511 -1.7294  1.1717
 3478TIP3    H232070   0.262   2.656   3.131 -0.0956  1.0005 -0.1242
 3479TIP3   OH232071   1.697   0.455   1.244  0.4294  0.2434  0.3764
 3479TIP3    H132072   1.734   0.409   1.319  0.5608 -0.3509 -0.0521
 3479TIP3    H232073   1.650   0.388   1.195  2.7668 -0.0476 -1.6497
 3480TIP3   OH232074   0.468   6.046   0.591  0.3409  0.0626  0.3238
 3480TIP3    H132075   0.476   6.128   0.541  2.2164  0.3337  1.0002
 3480TIP3    H232076   0.547   6.043   0.645 -1.4372 -0.3830  3.0814
 3481TIP3   OH232077   3.816   5.105   0.251 -0.4973  0.1536  0.0691
 3481TIP3    H132078   3.731   5.119   0.292 -0.6838  0.8342 -0.5284
 3481TIP3    H232079   3.801   5.036   0.187 -1.2174  1.9575 -1.7912
 3482TIP3   OH232080   2.654   4.767   8.746  0.5218  0.0986  0.0279
 3482TIP3    H132081   2.669   4.860   8.728  0.5802  0.5660  2.2020
 3482TIP3    H232082   2.563   4.752   8.722  1.0833  0.1208 -2.3901
 3483TIP3   OH232083   5.923   0.867   8.002  0.0269 -0.0080 -0.4108
 3483TIP3    H132084   6.018   0.857   7.996 -0.0107  0.1499 -1.4937
 3483TIP3    H232085   5.891   0.782   8.032  0.5268  0.0188  0.2080
 3484TIP3   OH232086   6.226   0.103   1.292  0.2391 -0.0732 -0.1534
 3484TIP3    H132087   6.270   0.122   1.209  1.0425 -1.3571 -0.0413
 3484TIP3    H232088   6.144   0.152   1.287  0.7895  0.7826 -1.2073
 3485TIP3   OH232089   1.470   1.807   1.292  0.2046  0.3540  0.1511
 3485TIP3    H132090   1.525   1.739   1.253 -0.9057 -0.4158 -0.1619
 3485TIP3    H232091   1.383   1.791   1.254 -0.4984  0.7649  1.5082
 3486TIP3   OH232092   2.362   2.297   2.361  0.1396  0.3923  0.5793
 3486TIP3    H132093   2.301   2.291   2.434  1.7116 -0.8809  1.8770
 3486TIP3    H232094   2.445   2.265   2.397  1.7121  2.4853 -0.9666
 3487TIP3   OH232095   2.136   2.951   0.956  0.0910 -0.2221  0.7109
 3487TIP3    H132096   2.222   2.966   0.916 -0.7062  1.1365 -0.5901
 3487TIP3    H232097   2.114   3.036   0.996 -1.5001  0.0722 -0.7105
 3488TIP3   OH232098   4.481   3.874   7.241  0.1587 -0.2775 -0.2566
 3488TIP3    H132099   4.551   3.919   7.193  0.9671 -1.2496 -0.0240
 3488TIP3    H232100   4.425   3.838   7.173  0.5025 -0.4358 -0.4592
 3489TIP3   OH232101   5.607   5.521   1.546  0.0332 -0.9256  0.0771
 3489TIP3    H132102   5.616   5.588   1.479  1.8374  0.2948  1.4294
 3489TIP3    H232103   5.532   5.548   1.598  1.2080  0.6077  1.0913
 3490TIP3   OH232104   2.939   1.058   1.925  0.8428 -0.4776 -0.4243
 3490TIP3    H132105   2.970   1.051   2.015  3.2876 -1.5058 -1.2474
 3490TIP3    H232106   2.885   0.980   1.912 -1.0808  0.6073  0.6224
 3491TIP3   OH232107   1.550   3.913   2.505 -0.5505  0.1395  0.0715
 3491TIP3    H132108   1.627   3.948   2.550 -0.7287 -0.4165  0.8181
 3491TIP3    H232109   1.586   3.869   2.428 -0.1372  0.0342  0.3207
 3492TIP3   OH232110   1.216   2.470   1.559  0.1586  0.8731  0.1209
 3492TIP3    H132111   1.246   2.499   1.473  0.4085  2.3725  0.6929
 3492TIP3    H232112   1.129   2.433   1.543  1.5426 -2.1056 -1.3155
 3493TIP3   OH232113   4.448   1.933   1.606  0.6895  0.7608  0.4380
 3493TIP3    H132114   4.380   1.948   1.672  0.5453  0.1176  0.4410
 3493TIP3    H232115   4.400   1.905   1.528  0.9512  0.2770  0.4471
 3494TIP3   OH232116   0.129   5.152   2.637  0.2396 -0.3716 -0.3419
 3494TIP3    H132117   0.188   5.227   2.629  0.8158 -0.4853  2.0809
 3494TIP3    H232118   0.045   5.190   2.661  0.8985 -0.4999  2.4312
 3495TIP3   OH232119   3.025   2.494   8.851 -0.0684 -0.0525  0.1470
 3495TIP3    H132120   3.109   2.540   8.860  1.1643 -1.7314 -1.8232
 3495TIP3    H232121   3.046   2.402   8.865 -1.0701 -0.7957 -2.5825
 3496TIP3   OH232122   3.522   0.619   2.303  0.3264 -0.2287  0.1853
 3496TIP3    H132123   3.616   0.613   2.320  0.3437 -0.8881 -0.1172
 3496TIP3    H232124   3.481   0.583   2.382  0.3910 -2.4812 -0.7491
 3497TIP3   OH232125   5.315   5.267   1.746  0.4719  0.0225 -1.3082
 3497TIP3    H132126   5.355   5.190   1.787 -0.1324  0.3348 -0.1051
 3497TIP3    H232127   5.234   5.235   1.707 -1.2952  0.5165  1.6998
 3498TIP3   OH232128   4.570   4.491   8.176  0.1383 -0.6100 -0.5371
 3498TIP3    H132129   4.654   4.506   8.218  0.6155 -0.0292 -1.6498
 3498TIP3    H232130   4.590   4.440   8.098 -0.6266 -1.0314 -0.4724
 3499TIP3   OH232131   4.220   5.018   7.864  0.2048  1.1800 -0.2492
 3499TIP3    H132132   4.284   5.074   7.907  1.7793 -0.8095  0.1774
 3499TIP3    H232133   4.227   5.039   7.771 -0.3658  2.7424  0.0442
 3500TIP3   OH232134   3.621   1.892   2.203  0.5809 -0.1982  0.4485
 3500TIP3    H132135   3.569   1.895   2.123 -0.7350 -1.2260  1.2214
 3500TIP3    H232136   3.650   1.982   2.216 -1.8439  0.6565  0.4648
 3501TIP3   OH232137   1.712   1.778   2.299 -0.1549 -0.1772  0.0004
 3501TIP3    H132138   1.706   1.736   2.213  0.9068 -0.2491 -0.0640
 3501TIP3    H232139   1.694   1.708   2.362  1.9906 -0.8991 -0.0909
 3502TIP3   OH232140   5.452   3.129   8.882 -0.0537 -0.3823 -0.1111
 3502TIP3    H132141   5.507   3.200   8.848  0.5032 -0.7650 -0.0305
 3502TIP3    H232142   5.467   3.131   8.976 -1.1344  0.2923  0.0645
 3503TIP3   OH232143   4.283   5.817   1.950  0.4380  0.6122  0.8261
 3503TIP3    H132144   4.196   5.843   1.981 -1.2338 -1.4244 -1.7409
 3503TIP3    H232145   4.342   5.879   1.992 -2.2085  2.1215  2.6814
 3504TIP3   OH232146   5.430   6.334   2.024 -0.2039 -0.3374  0.7021
 3504TIP3    H132147   5.360   6.277   1.991 -0.0714  0.6769 -1.4914
 3504TIP3    H232148   5.473   6.366   1.945  1.8658  0.1742  1.9766
 3505TIP3   OH232149   4.364   3.461   1.637 -0.4423  0.2938 -0.6018
 3505TIP3    H132150   4.329   3.394   1.578  1.2523  0.1624 -1.5095
 3505TIP3    H232151   4.418   3.516   1.581 -1.7402  2.4466  0.1273
 3506TIP3   OH232152   1.152   4.998   8.868 -0.5520  0.3103 -0.7785
 3506TIP3    H132153   1.223   5.049   8.829  0.0183  1.0932  1.1775
 3506TIP3    H232154   1.184   4.975   8.955 -2.2208 -0.3766 -0.3113
 3507TIP3   OH232155   5.978   0.620   2.390 -0.4287 -0.0623  0.0995
 3507TIP3    H132156   5.942   0.578   2.312  0.8589  0.4209 -0.7868
 3507TIP3    H232157   5.922   0.697   2.403  0.3118  0.7775 -1.3624
 3508TIP3   OH232158   3.654   3.414   0.543 -0.4806 -0.3044  0.2753
 3508TIP3    H132159   3.729   3.466   0.572 -0.6871 -0.2891  0.7961
 3508TIP3    H232160   3.589   3.478   0.517  0.3871 -0.3036 -2.1085
 3509TIP3   OH232161   4.403   3.582   0.862  0.4123  0.0202  0.1548
 3509TIP3    H132162   4.400   3.552   0.952  0.9918 -0.5943 -0.0198
 3509TIP3    H232163   4.427   3.675   0.868  0.3831 -0.0010  0.6285
 3510TIP3   OH232164   5.245   3.218   2.958  0.2924  0.1580 -0.3913
 3510TIP3    H132165   5.209   3.290   2.906 -0.5330  0.3217  0.3711
 3510TIP3    H232166   5.339   3.234   2.961  0.3051  0.3403 -1.5192
 3511TIP3   OH232167   4.598   6.378   0.315  0.0734 -0.8789  0.0851
 3511TIP3    H132168   4.666   6.312   0.307  0.6286 -0.1211 -2.5121
 3511TIP3    H232169   4.644   6.456   0.346  0.1687 -0.7366 -0.3936
 3512TIP3   OH232170   2.932   0.082   1.755  0.3353  0.0248 -0.0792
 3512TIP3    H132171   2.937   0.003   1.701  2.4123 -0.7782  1.1818
 3512TIP3    H232172   3.008   0.077   1.812 -0.8764  1.6770  1.8066
 3513TIP3   OH232173   0.875   4.308   0.811 -0.1738 -0.5375  0.3212
 3513TIP3    H132174   0.859   4.388   0.761 -0.5363 -0.9453 -0.2179
 3513TIP3    H232175   0.961   4.322   0.850 -0.5323  0.4226  0.8303
 3514TIP3   OH232176   1.498   2.905   7.735  0.4685 -0.0838  0.2048
 3514TIP3    H132177   1.434   2.844   7.699  0.3286  0.5926 -0.7340
 3514TIP3    H232178   1.583   2.864   7.717  0.3430 -0.4207  0.3801
 3515TIP3   OH232179   1.928   2.747   1.121  0.1202  0.1445  0.4303
 3515TIP3    H132180   1.945   2.679   1.057 -1.0228 -0.2684  0.5373
 3515TIP3    H232181   1.854   2.714   1.172  0.9948  0.4466  1.9838
 3516TIP3   OH232182   2.493   1.118   3.672 -0.2459  0.0752  0.6686
 3516TIP3    H132183   2.407   1.133   3.709  0.0593 -1.5061  2.1602
 3516TIP3    H232184   2.510   1.194   3.617 -2.2799  0.7369  0.8995
 3517TIP3   OH232185   4.636   4.541   1.341  0.0466  0.5345 -0.0867
 3517TIP3    H132186   4.608   4.611   1.283  0.0619  0.2108 -0.4899
 3517TIP3    H232187   4.732   4.549   1.343  0.3240 -1.1767 -2.3748
 3518TIP3   OH232188   0.720   1.480   1.800 -0.0900  0.2271 -0.4852
 3518TIP3    H132189   0.734   1.449   1.711  2.2891  1.0212 -0.4557
 3518TIP3    H232190   0.725   1.576   1.794  2.4651  0.2584  0.7535
 3519TIP3   OH232191   6.353   0.861   3.031 -0.0870  0.0871 -0.1189
 3519TIP3    H132192   6.311   0.928   3.086 -0.7854  0.0732 -0.6231
 3519TIP3    H232193   6.289   0.790   3.027  0.3124 -0.2661 -0.2676
 3520TIP3   OH232194   5.919   6.575   8.923  0.1215 -0.4623  0.8268
 3520TIP3    H132195   5.910   6.605   8.832  1.6761 -0.1917  0.7326
 3520TIP3    H232196   5.838   6.604   8.966  0.3706  1.5093  0.0839
 3521TIP3   OH232197   6.398   0.414   1.428  0.3603 -0.0731 -0.5062
 3521TIP3    H132198   6.436   0.470   1.496 -1.2462  2.2792 -1.3925
 3521TIP3    H232199   6.432   0.449   1.346 -2.1771  1.0005 -1.2051
 3522TIP3   OH232200   1.422   1.765   0.897 -0.6258  0.2757  0.3954
 3522TIP3    H132201   1.474   1.728   0.825 -0.5250  1.0150  0.0748
 3522TIP3    H232202   1.342   1.797   0.855 -0.6040  0.6337  0.6179
 3523TIP3   OH232203   3.148   5.120   8.709 -0.4734 -0.3926 -0.1423
 3523TIP3    H132204   3.231   5.153   8.674 -0.9565  0.7814 -0.2444
 3523TIP3    H232205   3.148   5.027   8.687  0.5050 -0.2623 -0.7598
 3524TIP3   OH232206   5.657   4.481   2.626  0.3126  0.4315  0.6641
 3524TIP3    H132207   5.600   4.528   2.565 -0.0353 -0.6476  0.1277
 3524TIP3    H232208   5.691   4.548   2.685 -0.4895  1.2789  0.1740
 3525TIP3   OH232209   3.663   2.205   8.773 -0.3646  0.1154 -0.2463
 3525TIP3    H132210   3.661   2.185   8.680 -0.2154 -1.0717 -0.0124
 3525TIP3    H232211   3.622   2.129   8.815  2.6916 -1.0831  0.8872
 3526TIP3   OH232212   4.220   1.464   0.821 -0.1664  0.6423  0.0163
 3526TIP3    H132213   4.139   1.451   0.771 -0.9079  0.9142  1.0993
 3526TIP3    H232214   4.227   1.559   0.831 -0.8185  0.5609  1.6177
 3527TIP3   OH232215   0.009   5.867   7.498 -0.0061 -0.8235  0.0866
 3527TIP3    H132216  -0.041   5.921   7.558 -0.1421 -0.6553 -0.1741
 3527TIP3    H232217   0.100   5.878   7.525 -0.0456 -0.5725  0.1199
 3528TIP3   OH232218   3.770   3.200   8.315 -0.1695 -0.2170  0.0542
 3528TIP3    H132219   3.702   3.177   8.379 -0.5371 -3.9487 -1.3733
 3528TIP3    H232220   3.727   3.185   8.230  1.8097 -0.6224 -0.9197
 3529TIP3   OH232221   5.311   0.323   8.352 -0.2564  0.0088  0.4898
 3529TIP3    H132222   5.255   0.389   8.310  0.7364  1.3703  1.2140
 3529TIP3    H232223   5.275   0.313   8.440  1.1769  1.7280  1.3602
 3530TIP3   OH232224   2.024   3.905   8.272 -0.1846 -0.0245 -0.8282
 3530TIP3    H132225   1.981   3.887   8.355 -0.8997  2.5036 -0.5564
 3530TIP3    H232226   1.954   3.899   8.207  0.0483 -0.4775 -1.0396
 3531TIP3   OH232227   0.255   2.471   1.896  0.1802 -0.4329 -0.0140
 3531TIP3    H132228   0.209   2.419   1.963 -0.8437 -1.2188 -1.2855
 3531TIP3    H232229   0.324   2.413   1.864  0.4919 -0.1596  0.1592
 3532TIP3   OH232230   4.041   0.196   2.060 -0.4750 -0.1410  0.4220
 3532TIP3    H132231   4.090   0.252   2.121 -0.6372 -1.7449  2.1368
 3532TIP3    H232232   4.108   0.150   2.010 -0.1149 -1.8565  2.3238
 3533TIP3   OH232233   0.747   2.761   2.613  0.6061  0.4923 -0.3637
 3533TIP3    H132234   0.753   2.678   2.566  0.8546  0.6004 -0.5227
 3533TIP3    H232235   0.758   2.737   2.705  0.9856  0.3859 -0.4352
 3534TIP3   OH232236   2.095   4.587   0.015  0.3177 -0.3152 -0.5309
 3534TIP3    H132237   2.009   4.607  -0.023 -0.3775  0.0032  1.1243
 3534TIP3    H232238   2.077   4.525   0.085  1.2263  0.9189  0.8502
 3535TIP3   OH232239   5.414   6.496   7.732 -0.4711  0.4640  0.0841
 3535TIP3    H132240   5.405   6.570   7.672 -0.2502  0.6610  0.2919
 3535TIP3    H232241   5.423   6.420   7.675  0.4977  0.7406 -0.1423
 3536TIP3   OH232242   3.522   2.184   7.774  0.3019 -0.3662  0.1542
 3536TIP3    H132243   3.516   2.108   7.832  1.2483  0.9707  2.1453
 3536TIP3    H232244   3.608   2.222   7.793 -0.9509  2.3950  0.8571
 3537TIP3   OH232245   3.495   6.370   8.776 -0.5669  0.5501 -0.2797
 3537TIP3    H132246   3.449   6.305   8.723  0.8896  0.0419 -0.9799
 3537TIP3    H232247   3.499   6.331   8.863 -0.4496  0.0857 -0.4893
 3538TIP3   OH232248   0.128   5.796   1.703  0.1045 -0.7564  0.3077
 3538TIP3    H132249   0.092   5.885   1.710  0.1035 -0.8600  2.0449
 3538TIP3    H232250   0.191   5.801   1.631 -2.0789 -0.1405 -1.7116
 3539TIP3   OH232251   2.425   0.955   7.614  0.0664 -0.3185  0.1535
 3539TIP3    H132252   2.460   0.866   7.605  0.6721 -0.0217 -0.4791
 3539TIP3    H232253   2.418   0.988   7.525  0.9013  0.6709  0.4276
 3540TIP3   OH232254   1.436   3.716   3.395 -0.3364  0.4872 -0.1389
 3540TIP3    H132255   1.503   3.696   3.461 -0.5042  1.0589  0.2113
 3540TIP3    H232256   1.480   3.702   3.311  0.2646  0.9845  0.0872
 3541TIP3   OH232257   1.979   2.765   8.885  0.3044 -0.0677  0.5545
 3541TIP3    H132258   1.951   2.775   8.975  2.4320  2.5217  1.0619
 3541TIP3    H232259   2.003   2.672   8.877 -3.4838 -1.2758  1.3958
 3542TIP3   OH232260   4.158   1.390   0.104  0.0222  1.1988  0.1503
 3542TIP3    H132261   4.134   1.468   0.054  2.0016  0.2028 -2.5939
 3542TIP3    H232262   4.243   1.363   0.068 -0.0040 -1.5438  1.8296
 3543TIP3   OH232263   1.984   5.278   2.130 -0.2232  0.1306  0.2954
 3543TIP3    H132264   2.068   5.314   2.159 -1.0948 -0.5409  4.2165
 3543TIP3    H232265   2.000   5.184   2.124 -0.6330  0.0039  1.0365
 3544TIP3   OH232266   0.856   1.070   0.208  0.2072 -0.4239  0.3376
 3544TIP3    H132267   0.903   1.066   0.291 -1.5173 -0.1475  1.3582
 3544TIP3    H232268   0.787   1.134   0.222 -0.3347 -0.6283 -1.2035
 3545TIP3   OH232269   2.209   1.635   0.207 -0.0320  0.3557 -0.6241
 3545TIP3    H132270   2.166   1.565   0.158  0.9913 -0.4732 -0.3754
 3545TIP3    H232271   2.283   1.592   0.251  0.6192  1.5912 -0.4621
 3546TIP3   OH232272   3.803   1.180   2.846  0.1203 -0.0436 -0.2844
 3546TIP3    H132273   3.837   1.134   2.922  0.2511  1.1034  0.3690
 3546TIP3    H232274   3.864   1.157   2.775  1.3849  0.7229  0.5062
 3547TIP3   OH232275   4.132   3.222   2.474  0.0142 -0.2831  0.6979
 3547TIP3    H132276   4.129   3.131   2.444 -0.1814 -0.1279  0.2319
 3547TIP3    H232277   4.162   3.271   2.397 -1.9632  0.3206  0.2707
 3548TIP3   OH232278   2.719   4.241   8.899 -0.0048  0.1743  0.0440
 3548TIP3    H132279   2.780   4.312   8.916 -0.8731  0.2721  3.3656
 3548TIP3    H232280   2.733   4.178   8.970 -1.7389 -1.2103 -0.7445
 3549TIP3   OH232281   0.805   5.876   1.476 -0.3164  0.3011  0.1656
 3549TIP3    H132282   0.738   5.910   1.417  0.9805  0.2242 -1.4139
 3549TIP3    H232283   0.764   5.798   1.515 -0.9419 -0.1114 -1.2408
 3550TIP3   OH232284   1.388   4.308   8.167 -0.2889  0.3056  0.1095
 3550TIP3    H132285   1.293   4.294   8.160 -0.2785 -0.0888  0.7365
 3550TIP3    H232286   1.419   4.302   8.076 -1.1446  2.6745 -0.4167
 3551TIP3   OH232287   1.246   0.515   0.906 -0.4841  1.0727  0.0498
 3551TIP3    H132288   1.337   0.523   0.876  0.2422 -0.5229  1.5777
 3551TIP3    H232289   1.223   0.602   0.937  0.9133  1.2956  0.5549
 3552TIP3   OH232290   6.379   4.631   8.382  0.2858  0.6241 -0.1786
 3552TIP3    H132291   6.445   4.563   8.368  0.0448 -0.1113  1.8924
 3552TIP3    H232292   6.336   4.640   8.298  1.5826 -0.4367 -0.9999
 3553TIP3   OH232293   2.618   2.533   0.421  0.0540 -0.8412  0.3830
 3553TIP3    H132294   2.633   2.439   0.413  1.6882 -0.5258 -0.6239
 3553TIP3    H232295   2.616   2.564   0.330 -0.2406  0.1334  0.7134
 3554TIP3   OH232296   2.812   1.507   8.599 -0.2318  0.2892 -0.5707
 3554TIP3    H132297   2.757   1.431   8.579  1.2734 -0.5060 -1.9155
 3554TIP3    H232298   2.756   1.563   8.653 -1.5825 -1.4978 -0.0009
 3555TIP3   OH232299   1.054   3.846   8.573 -0.4824 -0.4495  0.4702
 3555TIP3    H132300   0.963   3.834   8.545  0.4444 -0.0141 -3.1820
 3555TIP3    H232301   1.101   3.772   8.535  1.2603  1.3292 -1.0281
 3556TIP3   OH232302   1.653   0.890   3.868  0.4243 -0.0002  0.5603
 3556TIP3    H132303   1.719   0.911   3.802 -0.0920 -1.0149 -0.3001
 3556TIP3    H232304   1.675   0.801   3.897 -0.8467 -0.5531 -0.1098
 3557TIP3   OH232305   2.215   4.778   8.269 -0.2288  0.7529  0.0634
 3557TIP3    H132306   2.186   4.719   8.338  1.3756  0.5544  0.6040
 3557TIP3    H232307   2.301   4.745   8.243 -0.6302  1.0553 -1.7730
 3558TIP3   OH232308   6.269   5.760   1.874 -0.5258  0.0885 -0.5582
 3558TIP3    H132309   6.256   5.812   1.795 -2.1693  0.0089 -0.3640
 3558TIP3    H232310   6.183   5.757   1.916  0.1828 -0.3239  0.9602
 3559TIP3   OH232311   0.102   2.342   2.100  0.1213  0.5404 -0.3550
 3559TIP3    H132312   0.061   2.412   2.151  1.1836  0.8324  0.1095
 3559TIP3    H232313   0.108   2.268   2.162  1.4573  0.9109 -0.0148
 3560TIP3   OH232314   5.666   0.419   1.915 -0.1937 -0.2846  1.0009
 3560TIP3    H132315   5.627   0.341   1.955 -0.7305  0.3450  1.7287
 3560TIP3    H232316   5.734   0.385   1.857 -0.6117 -1.3091  1.0930
 3561TIP3   OH232317   3.581   6.206   2.044 -0.6774 -0.2775 -0.2542
 3561TIP3    H132318   3.559   6.244   2.130 -1.5447  0.6089 -0.8416
 3561TIP3    H232319   3.532   6.124   2.041  1.7235 -1.8692  1.2982
 3562TIP3   OH232320   3.952   4.263   0.855  0.1159  0.1429 -0.1483
 3562TIP3    H132321   3.984   4.347   0.887  0.1315  0.1598 -0.2099
 3562TIP3    H232322   3.977   4.260   0.763 -0.5855  0.4147 -0.3545
 3563TIP3   OH232323   5.376   2.467   0.509 -0.2336  0.0246 -0.2044
 3563TIP3    H132324   5.391   2.527   0.437  0.1250 -0.3699 -0.4634
 3563TIP3    H232325   5.462   2.429   0.528 -0.2650  0.3308  0.6206
 3564TIP3   OH232326   2.320   4.026   2.004 -0.0952 -0.6210 -0.0376
 3564TIP3    H132327   2.320   4.119   1.984 -1.6880 -0.3852  0.8476
 3564TIP3    H232328   2.398   3.991   1.962  0.3612  1.0599 -0.6229
 3565TIP3   OH232329   5.187   4.424   8.072 -0.5806  0.5342 -0.4985
 3565TIP3    H132330   5.173   4.445   7.979 -1.2106  0.1460 -0.4953
 3565TIP3    H232331   5.273   4.382   8.074 -1.4680 -1.4664 -1.2523
 3566TIP3   OH232332   5.116   6.220   0.924 -0.5018 -0.1328  0.4923
 3566TIP3    H132333   5.061   6.207   0.847 -2.2210 -2.4273  1.9703
 3566TIP3    H232334   5.199   6.180   0.901 -0.5999  0.2292 -0.5397
 3567TIP3   OH232335   5.869   3.183   2.032  0.3156 -0.0384  0.5664
 3567TIP3    H132336   5.850   3.225   2.116 -1.3498  1.0497 -0.2998
 3567TIP3    H232337   5.920   3.247   1.983  0.6077 -0.3561  0.4494
 3568TIP3   OH232338   0.524   6.684   8.497  0.1589  0.6179  0.0995
 3568TIP3    H132339   0.570   6.672   8.414 -0.7490  2.6361 -0.7559
 3568TIP3    H232340   0.502   6.595   8.525  1.4011 -0.1624 -1.2674
 3569TIP3   OH232341   4.503   6.762   0.980  0.5509  0.3044  0.0332
 3569TIP3    H132342   4.496   6.842   1.031  0.5275  1.2207 -1.3716
 3569TIP3    H232343   4.549   6.788   0.901  2.2039 -1.4574  0.3441
 3570TIP3   OH232344   5.484   6.312   8.567 -0.0433  0.0550  0.0918
 3570TIP3    H132345   5.463   6.314   8.660  1.9494 -0.7244  0.6155
 3570TIP3    H232346   5.528   6.395   8.550  0.5561 -0.2426  0.1317
 3571TIP3   OH232347   5.372   5.437   1.956 -0.4959  0.0525 -0.5206
 3571TIP3    H132348   5.284   5.441   1.994 -0.3872  0.6791 -0.3244
 3571TIP3    H232349   5.363   5.375   1.884 -0.4511 -1.9624  1.1322
 3572TIP3   OH232350   0.412   1.138   8.541 -0.4915 -0.2052  0.1701
 3572TIP3    H132351   0.426   1.148   8.447 -2.4577 -0.2268 -0.1792
 3572TIP3    H232352   0.361   1.058   8.549 -1.0343  0.2217  1.1701
 3573TIP3   OH232353   6.479   3.511   0.728  0.2033  0.1474  0.1070
 3573TIP3    H132354   6.572   3.489   0.738  0.1909  0.1489  0.2336
 3573TIP3    H232355   6.456   3.479   0.641  0.0204 -0.9367  0.5309
 3574TIP3   OH232356   2.933   4.408   8.884 -0.0360 -0.3416 -0.3590
 3574TIP3    H132357   2.923   4.384   8.976 -0.9771 -1.6709 -0.7716
 3574TIP3    H232358   2.976   4.333   8.843  0.0298  0.0701 -1.0760
 3575TIP3   OH232359   0.268   2.657   0.982  0.3164  0.7606 -0.2805
 3575TIP3    H132360   0.188   2.683   0.935  0.2617 -0.5500 -0.9513
 3575TIP3    H232361   0.310   2.593   0.925  0.4709 -0.5713  1.2426
 3576TIP3   OH232362   0.036   0.469   0.513 -0.7495  0.2130 -0.1892
 3576TIP3    H132363   0.111   0.409   0.512 -0.2622  0.8090  0.1759
 3576TIP3    H232364   0.014   0.481   0.421 -0.6392 -0.2653 -0.2806
 3577TIP3   OH232365   6.052   4.704   0.409 -0.7848 -0.3040 -0.0820
 3577TIP3    H132366   6.045   4.733   0.500  1.9769  0.5303 -0.0536
 3577TIP3    H232367   6.092   4.778   0.363  0.6192 -1.7804 -1.3459
 3578TIP3   OH232368   6.150   1.192   2.851 -0.7240  0.5163  0.4269
 3578TIP3    H132369   6.153   1.115   2.908 -0.2166  0.0201 -0.2536
 3578TIP3    H232370   6.218   1.250   2.884  0.7511 -0.5030 -0.6625
 3579TIP3   OH232371   2.952   6.605   8.248  0.5171 -0.4631  0.4436
 3579TIP3    H132372   3.016   6.548   8.205  1.2335  0.2525  0.5327
 3579TIP3    H232373   2.905   6.547   8.308  1.8028 -0.8233  1.1590
 3580TIP3   OH232374   2.477   3.760   1.862  0.7966  0.0663  0.1062
 3580TIP3    H132375   2.570   3.751   1.883  0.5065  0.3838  1.6198
 3580TIP3    H232376   2.431   3.730   1.941 -0.3816  0.4498 -0.4062
 3581TIP3   OH232377   4.507   6.135   7.851 -0.0231  0.4116  0.7216
 3581TIP3    H132378   4.457   6.179   7.919  0.1475  0.6540  0.6897
 3581TIP3    H232379   4.452   6.061   7.824 -0.5322  0.9062  0.4041
 3582TIP3   OH232380   5.267   1.866   0.796 -0.2332  0.7937  0.1643
 3582TIP3    H132381   5.250   1.942   0.741 -0.2216  1.1318  0.6213
 3582TIP3    H232382   5.256   1.791   0.738  0.1404  1.1591 -0.3878
 3583TIP3   OH232383   3.254   3.436   0.455  0.0109  0.0523  0.5536
 3583TIP3    H132384   3.347   3.451   0.474  0.1208  0.3668 -0.2081
 3583TIP3    H232385   3.219   3.522   0.434  0.0079 -0.3105 -1.0987
 3584TIP3   OH232386   2.485   4.258   0.140 -0.4076 -0.5810  0.1394
 3584TIP3    H132387   2.430   4.311   0.082  1.0161  0.2515 -0.4945
 3584TIP3    H232388   2.467   4.292   0.228 -0.0829  0.4474 -0.1816
 3585TIP3   OH232389   0.019   5.823   2.000 -0.7838  0.4046 -0.0053
 3585TIP3    H132390  -0.070   5.790   2.005 -0.4951 -0.3213  0.4335
 3585TIP3    H232391   0.026   5.886   2.072 -0.7744  0.0550  0.2991
 3586TIP3   OH232392   3.754   3.927   8.488 -0.2416 -0.3053  0.1910
 3586TIP3    H132393   3.727   4.012   8.454  0.4376 -0.5801 -1.1097
 3586TIP3    H232394   3.847   3.938   8.510 -0.5345 -0.2816  1.5419
 3587TIP3   OH232395   0.182   6.698   2.178  0.3393  0.1667  0.4941
 3587TIP3    H132396   0.182   6.794   2.176 -0.4074  0.1789  0.7542
 3587TIP3    H232397   0.183   6.672   2.086 -0.9251  0.4402  0.3906
 3588TIP3   OH232398   0.215   3.988   1.684  0.2778 -0.1861  0.4454
 3588TIP3    H132399   0.282   3.949   1.739  0.5196  0.4949  0.6516
 3588TIP3    H232400   0.156   4.033   1.746  0.6299  0.7006  0.1559
 3589TIP3   OH232401   2.142   2.902   1.880 -0.0593  0.1520  0.5754
 3589TIP3    H132402   2.097   2.934   1.958  0.9086  2.1696  0.3746
 3589TIP3    H232403   2.079   2.845   1.837 -1.4751  0.8814  1.6105
 3590TIP3   OH232404   3.763   6.575   8.928 -0.4484  0.1918 -0.3674
 3590TIP3    H132405   3.683   6.524   8.938  0.6159 -1.5311 -0.0532
 3590TIP3    H232406   3.818   6.521   8.871  0.7159  1.0107 -0.0476
 3591TIP3   OH232407   0.097   6.147   8.488  0.1860  0.4008 -0.4941
 3591TIP3    H132408   0.095   6.052   8.476 -0.2668  0.4489 -0.8178
 3591TIP3    H232409   0.052   6.162   8.571  1.7259  0.2083  0.4039
 3592TIP3   OH232410   3.666   2.823   0.329 -0.7297  0.8171  0.9560
 3592TIP3    H132411   3.700   2.899   0.377  1.1946 -0.0858  1.1043
 3592TIP3    H232412   3.633   2.859   0.247  0.5133  1.7717  0.8509
 3593TIP3   OH232413   2.049   6.140   8.570  0.1260  0.6080 -0.0390
 3593TIP3    H132414   2.008   6.154   8.485  0.7478 -0.1816 -0.4862
 3593TIP3    H232415   1.979   6.102   8.624 -0.0065  0.1632 -0.5087
 3594TIP3   OH232416   0.987   3.792   7.448 -0.4669 -0.2573 -0.1312
 3594TIP3    H132417   1.026   3.878   7.432 -0.4135 -0.2782 -0.1136
 3594TIP3    H232418   1.062   3.734   7.464 -0.4702 -0.4373 -0.7397
 3595TIP3   OH232419   5.266   6.612   1.712  0.4127 -0.1267  0.3569
 3595TIP3    H132420   5.284   6.706   1.717 -0.5093  0.0701  0.1267
 3595TIP3    H232421   5.192   6.598   1.771 -1.7609 -0.0737 -2.1609
 3596TIP3   OH232422   1.143   5.645   3.042 -0.0018  0.4594 -0.4349
 3596TIP3    H132423   1.117   5.564   3.086  1.0399 -0.3563 -1.2698
 3596TIP3    H232424   1.196   5.616   2.968 -1.7162  1.7784 -2.2828
 3597TIP3   OH232425   4.896   5.518   0.203 -0.1928  0.2611 -0.5627
 3597TIP3    H132426   4.918   5.581   0.273 -1.4445 -0.4468  0.5117
 3597TIP3    H232427   4.804   5.534   0.185 -0.8125 -1.8448  0.4001
 3598TIP3   OH232428   1.736   1.554   3.414 -0.8455  0.9478  0.1198
 3598TIP3    H132429   1.648   1.568   3.378 -1.5156 -1.3715  0.6504
 3598TIP3    H232430   1.729   1.579   3.506 -1.7336 -1.5485  0.8032
 3599TIP3   OH232431   4.466   3.187   2.414 -0.3258 -0.0825  0.4085
 3599TIP3    H132432   4.431   3.100   2.398  1.1978 -0.7985  0.8022
 3599TIP3    H232433   4.507   3.213   2.332  0.7730 -0.5099  0.8042
 3600TIP3   OH232434   0.206   2.854   0.378  0.1766  0.1103 -0.0594
 3600TIP3    H132435   0.244   2.882   0.461  0.8055 -1.3948  0.1809
 3600TIP3    H232436   0.282   2.837   0.322 -0.1599 -1.3165 -0.1128
 3601TIP3   OH232437   5.180   1.294   3.782  0.1552 -0.0826  0.3084
 3601TIP3    H132438   5.269   1.273   3.753  0.1970  1.1336 -0.5218
 3601TIP3    H232439   5.190   1.375   3.832 -0.4062 -0.2844  0.7565
 3602TIP3   OH232440   4.152   5.403   8.393  0.1178 -0.1587  0.4028
 3602TIP3    H132441   4.122   5.485   8.432 -0.8229 -0.4716  0.3580
 3602TIP3    H232442   4.221   5.372   8.452  0.8921  0.9496  0.1019
 3603TIP3   OH232443   6.505   0.665   1.902 -0.3691  0.4144  0.0478
 3603TIP3    H132444   6.438   0.718   1.946 -0.4144 -0.0318  0.5380
 3603TIP3    H232445   6.535   0.605   1.970  0.3558  0.4465 -0.2412
 3604TIP3   OH232446   3.947   2.706   2.629  0.7288  0.3520  0.1893
 3604TIP3    H132447   4.016   2.651   2.593 -0.9702 -1.5703 -0.2803
 3604TIP3    H232448   3.987   2.746   2.707  2.8472  0.6239 -0.9453
 3605TIP3   OH232449   6.423   4.626   0.884 -0.2339  0.6267  0.2547
 3605TIP3    H132450   6.338   4.587   0.864 -0.1967 -0.1986  1.5773
 3605TIP3    H232451   6.487   4.568   0.842 -0.2924  0.8630 -0.1633
 3606TIP3   OH232452   3.377   3.901   0.299 -0.1882  0.2746 -0.1815
 3606TIP3    H132453   3.313   3.842   0.259  0.0213  0.3178 -0.5813
 3606TIP3    H232454   3.369   3.982   0.249  0.7620  0.0187 -0.7729
 3607TIP3   OH232455   3.916   4.749   2.654  0.4257 -0.0843 -0.1999
 3607TIP3    H132456   3.937   4.837   2.622  1.7995  0.3817  1.7411
 3607TIP3    H232457   3.993   4.724   2.706  0.6144 -2.9846 -1.7100
 3608TIP3   OH232458   5.412   5.495   0.426 -0.4871  0.3354  0.4294
 3608TIP3    H132459   5.421   5.589   0.439  0.1358  0.2265  0.8206
 3608TIP3    H232460   5.326   5.485   0.384  0.4082  1.2776 -1.7537
 3609TIP3   OH232461   5.740   3.336   1.689 -0.1749 -0.2869  0.1640
 3609TIP3    H132462   5.832   3.362   1.681 -0.3675  0.6330  0.8445
 3609TIP3    H232463   5.740   3.271   1.760 -0.1457  0.2282  0.6381
 3610TIP3   OH232464   1.038   0.734   1.366  0.0945 -0.0184 -0.0342
 3610TIP3    H132465   0.966   0.790   1.339  0.6496  1.5634  1.5444
 3610TIP3    H232466   1.105   0.746   1.299 -0.7320 -0.7806 -1.0196
 3611TIP3   OH232467   2.913   2.675   7.503 -0.1513 -0.9866 -0.3804
 3611TIP3    H132468   2.949   2.616   7.438  0.1512 -0.4642 -0.6981
 3611TIP3    H232469   2.927   2.631   7.587 -1.0391 -1.9136 -0.6939
 3612TIP3   OH232470   3.348   1.074   0.406 -0.0324 -0.0950  0.3151
 3612TIP3    H132471   3.436   1.082   0.443 -0.5570 -0.2847  1.6367
 3612TIP3    H232472   3.304   1.155   0.432 -1.3597 -1.5015  2.7955
 3613TIP3   OH232473   5.635   1.723   1.210  0.5823 -0.3108  0.1522
 3613TIP3    H132474   5.679   1.662   1.150  0.5330 -1.9317  1.6755
 3613TIP3    H232475   5.665   1.697   1.297 -2.3072 -0.6269  1.1784
 3614TIP3   OH232476   3.958   1.921   2.655  0.1734  0.5447 -0.4236
 3614TIP3    H132477   4.010   1.863   2.710 -2.1488 -2.2703 -0.9651
 3614TIP3    H232478   3.894   1.959   2.716  0.0544  0.5058 -0.5252
 3615TIP3   OH232479   0.584   0.452   0.845  0.2683 -0.3304 -0.6777
 3615TIP3    H132480   0.649   0.399   0.892  0.0380  0.2774  0.3660
 3615TIP3    H232481   0.512   0.391   0.828 -0.1912 -0.2883  0.9114
 3616TIP3   OH232482   5.475   2.911   7.971  0.2063 -0.2277  0.3993
 3616TIP3    H132483   5.398   2.958   7.938  1.8401  1.5813 -1.0326
 3616TIP3    H232484   5.475   2.829   7.922  1.4725  1.5645 -2.8906
 3617TIP3   OH232485   5.505   2.420   8.447  0.3968 -0.2456  0.1954
 3617TIP3    H132486   5.561   2.343   8.437  0.5100 -0.2706  0.9212
 3617TIP3    H232487   5.565   2.494   8.439  0.6408 -0.2802  1.4552
 3618TIP3   OH232488   3.937   2.714   2.148  0.6251  0.0740 -0.0704
 3618TIP3    H132489   3.917   2.626   2.118  1.9015 -0.0688 -0.5808
 3618TIP3    H232490   4.020   2.705   2.195  0.3123  0.8597  0.6599
 3619TIP3   OH232491   1.892   2.970   0.188 -0.3556  0.2108  0.2225
 3619TIP3    H132492   1.871   2.882   0.158 -0.7251  1.1809 -2.6129
 3619TIP3    H232493   1.984   2.964   0.217 -0.1982 -0.9627 -0.4573
 3620TIP3   OH232494   2.166   5.626   1.394 -0.1747  0.5386  0.1115
 3620TIP3    H132495   2.246   5.574   1.391 -0.0804  0.4415  2.3735
 3620TIP3    H232496   2.116   5.599   1.317  0.5174 -1.8610  0.4099
 3621TIP3   OH232497   4.146   6.354   3.006  0.0261  0.3866 -0.2874
 3621TIP3    H132498   4.069   6.366   2.950  0.9792 -1.2941 -2.0402
 3621TIP3    H232499   4.182   6.442   3.016 -1.4062  1.0173 -0.4644
 3622TIP3   OH232500   2.399   5.039   2.955 -0.1273  0.0409  0.3948
 3622TIP3    H132501   2.345   4.966   2.983 -0.0535 -0.8350 -1.5826
 3622TIP3    H232502   2.337   5.105   2.923 -0.1929 -1.4384 -3.0189
 3623TIP3   OH232503   4.970   1.274   1.398  0.1536  0.3664 -0.2280
 3623TIP3    H132504   4.955   1.197   1.344  3.3236 -0.2329 -0.4430
 3623TIP3    H232505   4.960   1.242   1.488 -0.4637  0.2223 -0.3396
 3624TIP3   OH232506   3.995   6.456   1.902  0.3072 -0.2064 -0.1059
 3624TIP3    H132507   3.939   6.378   1.901 -0.1848 -0.0200  3.0177
 3624TIP3    H232508   3.941   6.524   1.862 -0.6342 -0.7086  0.2586
 3625TIP3   OH232509   1.330   3.955   8.335 -0.4107 -0.2928  0.1822
 3625TIP3    H132510   1.302   3.863   8.338 -0.2822 -0.3050  1.0192
 3625TIP3    H232511   1.364   3.966   8.246  1.9105 -1.7503  0.8025
 3626TIP3   OH232512   6.126   1.421   1.555  0.0311 -0.3691 -0.0565
 3626TIP3    H132513   6.161   1.508   1.539  0.0454 -0.4319 -0.3695
 3626TIP3    H232514   6.192   1.361   1.519 -0.2283 -0.4944 -0.3308
 3627TIP3   OH232515   4.615   0.055   2.438  0.0470  0.3174  0.1378
 3627TIP3    H132516   4.698   0.089   2.473  0.4720  0.4995 -1.0244
 3627TIP3    H232517   4.613  -0.036   2.467 -0.2269  0.7833  1.7057
 3628TIP3   OH232518   6.641   2.551   1.515 -0.3286  0.3226  0.0978
 3628TIP3    H132519   6.706   2.546   1.584 -0.9289  0.4405  0.6771
 3628TIP3    H232520   6.650   2.468   1.468  0.0640  0.2366  0.3188
 3629TIP3   OH232521   0.209   0.657   7.764 -0.2028  0.2369 -0.0809
 3629TIP3    H132522   0.292   0.701   7.751  0.3137 -0.4405  0.8580
 3629TIP3    H232523   0.220   0.571   7.722 -0.0840 -0.2114  0.8279
 3630TIP3   OH232524   4.227   5.104   8.193  0.1058  0.2299 -0.5196
 3630TIP3    H132525   4.285   5.149   8.131  2.9951 -1.9825  0.3555
 3630TIP3    H232526   4.287   5.060   8.253 -2.5615 -1.4047  1.0939
 3631TIP3   OH232527   3.592   3.038   1.918  0.2137  0.3574 -0.7729
 3631TIP3    H132528   3.538   3.052   1.840  1.3339  0.4731 -1.5603
 3631TIP3    H232529   3.636   3.122   1.931  1.6626 -0.2780 -1.3278
 3632TIP3   OH232530   0.459   0.498   2.391 -0.0693  0.4321  0.1136
 3632TIP3    H132531   0.547   0.478   2.359 -0.5446 -0.8815 -0.4398
 3632TIP3    H232532   0.429   0.417   2.432 -1.2303  0.6754 -0.2029
 3633TIP3   OH232533   3.405   4.534   7.074 -0.5225  0.0397  0.4349
 3633TIP3    H132534   3.329   4.593   7.071  0.3613  1.1930 -0.7049
 3633TIP3    H232535   3.473   4.586   7.117  0.2818 -0.1020 -0.6147
 3634TIP3   OH232536   2.730   3.998   1.076 -0.3848  0.3447 -0.3477
 3634TIP3    H132537   2.698   4.083   1.105  0.5326  0.2197  1.1346
 3634TIP3    H232538   2.778   3.963   1.151  2.2119  0.0302 -1.9963
 3635TIP3   OH232539   6.584   1.161   0.605 -0.4011  0.0724 -0.3684
 3635TIP3    H132540   6.672   1.198   0.595 -0.9317  1.2768 -0.8542
 3635TIP3    H232541   6.526   1.229   0.570 -1.5218 -0.7222 -0.1009
 3636TIP3   OH232542   6.733   0.582   1.020 -0.4353 -0.4214  0.3739
 3636TIP3    H132543   6.680   0.608   1.096 -0.1853  0.0955  0.3742
 3636TIP3    H232544   6.708   0.643   0.951 -0.4440 -0.7024  0.1276
 3637TIP3   OH232545   1.084   6.422   3.214  0.2991  0.2317  0.1651
 3637TIP3    H132546   1.022   6.480   3.258 -0.5331 -0.3543 -0.1934
 3637TIP3    H232547   1.039   6.338   3.211  1.6085 -0.5151  0.9408
 3638TIP3   OH232548   4.312   0.282   2.075  0.4991  0.1789  1.0655
 3638TIP3    H132549   4.344   0.313   1.991  0.9696 -0.7550  0.8904
 3638TIP3    H232550   4.283   0.192   2.059  1.8223 -0.4916  2.1571
 3639TIP3   OH232551   4.061   5.593   0.716 -0.8033  0.2413  0.2540
 3639TIP3    H132552   4.085   5.523   0.656 -0.8315 -1.3517  1.9772
 3639TIP3    H232553   4.059   5.551   0.802 -0.7159  2.4067  1.3971
 3640TIP3   OH232554   2.171   2.561   7.687  0.1001 -0.2561 -0.0281
 3640TIP3    H132555   2.259   2.530   7.669 -0.0335 -0.0007 -1.1777
 3640TIP3    H232556   2.136   2.498   7.750  0.0002 -2.2217 -1.9213
 3641TIP3   OH232557   4.824   6.608   0.728 -0.3200 -1.0758  0.2925
 3641TIP3    H132558   4.785   6.544   0.669 -0.2463 -0.4370 -0.4789
 3641TIP3    H232559   4.813   6.571   0.815  0.8256 -2.7209 -0.2149
 3642TIP3   OH232560   1.901   4.436   0.149  0.1458 -1.1335  0.4205
 3642TIP3    H132561   1.836   4.497   0.184  1.1480  0.5357 -0.5307
 3642TIP3    H232562   1.850   4.373   0.099 -0.8698 -0.8177  1.0302
 3643TIP3   OH232563   4.584   0.695   1.066  0.3153 -0.1428 -0.3983
 3643TIP3    H132564   4.509   0.636   1.056  1.7601 -1.7783 -2.3603
 3643TIP3    H232565   4.591   0.740   0.982  1.2237  0.3873 -0.0523
 3644TIP3   OH232566   4.307   5.530   1.870 -0.1685 -0.3093  0.2923
 3644TIP3    H132567   4.293   5.617   1.906 -0.3851 -0.7188  1.2509
 3644TIP3    H232568   4.315   5.543   1.775  2.0778  1.0246  0.5844
 3645TIP3   OH232569   4.385   0.600   8.430  0.0561  0.1991 -0.0589
 3645TIP3    H132570   4.438   0.556   8.365 -0.9438  0.6394 -1.2030
 3645TIP3    H232571   4.399   0.693   8.415  1.9694  0.3683  2.1875
 3646TIP3   OH232572   4.194   0.868   0.134  0.5306 -0.2250  0.2910
 3646TIP3    H132573   4.222   0.930   0.201 -0.4852 -1.7966  2.2925
 3646TIP3    H232574   4.153   0.921   0.066  1.6500  1.4345  0.8476
 3647TIP3   OH232575   2.811   3.366   1.430  0.6279 -0.0660  0.0491
 3647TIP3    H132576   2.835   3.308   1.358  1.5101 -0.7502  0.8707
 3647TIP3    H232577   2.729   3.329   1.463 -0.4777  0.9923 -1.3663
 3648TIP3   OH232578   6.455   0.815   8.561 -0.3799 -0.1124  0.1539
 3648TIP3    H132579   6.461   0.890   8.502  2.0337  0.3556  0.8762
 3648TIP3    H232580   6.417   0.851   8.642 -0.4999  0.0161  0.0415
 3649TIP3   OH232581   6.031   0.883   2.878  0.2319 -0.5418 -0.9995
 3649TIP3    H132582   5.979   0.813   2.838 -0.1752 -0.9794  0.2706
 3649TIP3    H232583   6.045   0.855   2.968 -0.2340  1.1649 -0.3529
 3650TIP3   OH232584   0.763   4.750   2.632 -0.0519  0.3795  0.3325
 3650TIP3    H132585   0.847   4.794   2.644 -0.2676  0.7619  0.4468
 3650TIP3    H232586   0.700   4.821   2.619 -0.1952  0.0711 -0.7637
 3651TIP3   OH232587   1.009   3.465   2.622  0.2869  0.0171  0.2531
 3651TIP3    H132588   1.055   3.536   2.575  0.5982 -0.6107 -0.4202
 3651TIP3    H232589   0.979   3.406   2.552 -1.6857  0.4660  0.6670
 3652TIP3   OH232590   1.138   3.044   7.716  0.2691  0.5969  0.2586
 3652TIP3    H132591   1.068   3.105   7.691  0.3825  0.6589  0.0856
 3652TIP3    H232592   1.217   3.081   7.675  0.1094 -0.3898 -1.0017
 3653TIP3   OH232593   6.684   5.914   0.158  0.2217  0.8294  0.4106
 3653TIP3    H132594   6.716   5.826   0.137  1.0514  1.0754  0.6020
 3653TIP3    H232595   6.597   5.918   0.118  0.9915  0.6271 -1.3966
 3654TIP3   OH232596   3.743   3.607   1.985 -0.0245 -0.0386 -0.0150
 3654TIP3    H132597   3.816   3.664   2.008 -0.5382  0.5508  0.1904
 3654TIP3    H232598   3.716   3.567   2.068 -0.3585  0.2532  0.0168
 3655TIP3   OH232599   2.945   4.478   0.779 -0.1628 -0.8032  0.8796
 3655TIP3    H132600   3.008   4.409   0.758 -0.2148 -0.4298 -0.6852
 3655TIP3    H232601   2.984   4.525   0.852  1.2718 -0.7605  0.1330
 3656TIP3   OH232602   3.125   3.601   0.682 -0.0475  0.0743  0.5783
 3656TIP3    H132603   3.165   3.685   0.661 -0.6443  0.1310 -0.3831
 3656TIP3    H232604   3.036   3.623   0.709  0.0543 -0.1892  1.1553
 3657TIP3   OH232605   4.605   1.689   8.356 -0.2924  0.2709  0.0016
 3657TIP3    H132606   4.643   1.741   8.427 -1.3870  0.0870  0.7527
 3657TIP3    H232607   4.515   1.672   8.384  0.0630 -2.2452 -0.0691
 3658TIP3   OH232608   2.111   4.677   1.426  0.0536  0.7609 -0.6077
 3658TIP3    H132609   2.075   4.766   1.428  0.9815  1.2085 -2.1702
 3658TIP3    H232610   2.038   4.623   1.395 -1.1775  0.5641  2.3688
 3659TIP3   OH232611   0.821   1.728   0.609  0.2851  0.0313 -0.0165
 3659TIP3    H132612   0.728   1.710   0.616  0.4573 -0.9792 -0.2268
 3659TIP3    H232613   0.845   1.766   0.693 -0.0167 -1.1113  0.6039
 3660TIP3   OH232614   3.511   2.834   2.495  0.0498  0.0607  0.1767
 3660TIP3    H132615   3.528   2.825   2.589 -0.5231 -1.6241  0.1386
 3660TIP3    H232616   3.597   2.822   2.454  0.1182 -0.3141  0.4234
 3661TIP3   OH232617   6.537   5.406   2.575  0.3598 -0.5005 -0.2503
 3661TIP3    H132618   6.478   5.412   2.500 -1.7847 -2.4560  1.1257
 3661TIP3    H232619   6.517   5.483   2.627 -1.3397 -1.2978  0.3584
 3662TIP3   OH232620   2.464   4.893   1.927 -0.4738  0.4412  0.3442
 3662TIP3    H132621   2.523   4.833   1.971  1.6772  1.6344 -0.7466
 3662TIP3    H232622   2.377   4.857   1.943  0.6590 -2.9506 -0.2678
 3663TIP3   OH232623   0.410   5.419   2.471  0.0769  0.1714  0.1988
 3663TIP3    H132624   0.322   5.397   2.499 -0.5622  1.0761 -0.9825
 3663TIP3    H232625   0.409   5.406   2.376  1.9158 -2.0325  0.3807
 3664TIP3   OH232626   4.753   4.175   2.863  0.8326 -0.0409  0.5600
 3664TIP3    H132627   4.833   4.124   2.874  1.5422  0.9124  0.0380
 3664TIP3    H232628   4.683   4.119   2.895  1.5227 -1.5206 -0.4353
 3665TIP3   OH232629   3.557   0.731   2.033  0.3229 -0.4820  0.2921
 3665TIP3    H132630   3.468   0.760   2.054  0.6898  0.0301  1.1994
 3665TIP3    H232631   3.579   0.668   2.102  0.4046 -1.1509 -0.3386
 3666TIP3   OH232632   4.895   0.613   2.103 -0.8454 -0.1255 -0.4599
 3666TIP3    H132633   4.848   0.584   2.182  1.6997 -2.4165  0.3764
 3666TIP3    H232634   4.841   0.684   2.068 -1.7116  1.6352  3.8027
 3667TIP3   OH232635   2.068   2.875   8.102  0.3175 -0.1222 -0.1050
 3667TIP3    H132636   2.000   2.897   8.040 -0.2331  3.1097  1.4503
 3667TIP3    H232637   2.023   2.873   8.187  1.6969 -0.5464  0.6456
 3668TIP3   OH232638   0.647   5.199   1.968  0.5876  0.1646 -0.2011
 3668TIP3    H132639   0.711   5.212   1.899  1.9624  1.7776  1.2764
 3668TIP3    H232640   0.574   5.257   1.945  1.2978  1.1518 -0.0370
 3669TIP3   OH232641   5.247   1.621   0.630  0.2098 -0.1115 -0.1788
 3669TIP3    H132642   5.154   1.610   0.606 -0.0008  0.2644  0.4455
 3669TIP3    H232643   5.284   1.533   0.621 -0.1517 -0.2226 -0.6554
 3670TIP3   OH232644   3.901   2.343   2.403  0.3679  0.2233 -0.2736
 3670TIP3    H132645   3.954   2.410   2.446  1.2337 -0.1558 -0.7263
 3670TIP3    H232646   3.930   2.260   2.442 -2.1548  0.1942  1.8363
 3671TIP3   OH232647   0.112   5.902   1.021 -0.3789 -0.1375 -0.4666
 3671TIP3    H132648   0.100   5.978   1.077  0.9200 -1.6769  2.1517
 3671TIP3    H232649   0.027   5.887   0.980 -1.5979  0.7939  1.5790
 3672TIP3   OH232650   0.072   6.442   8.319 -0.0957  0.1523  0.7713
 3672TIP3    H132651   0.097   6.469   8.407  0.7504  0.0246  0.5843
 3672TIP3    H232652   0.155   6.426   8.274 -0.5198 -0.1763  0.0719
 3673TIP3   OH232653   5.155   3.445   7.606  0.0834  0.1758 -0.4791
 3673TIP3    H132654   5.082   3.456   7.667 -0.2074  0.1920 -0.8262
 3673TIP3    H232655   5.129   3.496   7.529  0.1821 -0.3155 -0.8402
 3674TIP3   OH232656   1.170   0.325   2.824  0.3190 -0.2381  0.2365
 3674TIP3    H132657   1.104   0.256   2.828  0.9549 -0.8232  0.8400
 3674TIP3    H232658   1.133   0.397   2.874  0.4480 -0.8464  1.2433
 3675TIP3   OH232659   3.421   3.726   7.332 -0.1635  0.1245 -0.2695
 3675TIP3    H132660   3.436   3.815   7.363  1.4733 -0.0063 -0.5749
 3675TIP3    H232661   3.381   3.681   7.407  1.4574  0.4445  0.8494
 3676TIP3   OH232662   2.588   1.983   0.889  0.2775  0.2458  1.0786
 3676TIP3    H132663   2.672   1.976   0.936  0.0967 -1.3463  1.2304
 3676TIP3    H232664   2.549   1.896   0.898  0.7849 -0.6248 -3.0800
 3677TIP3   OH232665   6.399   6.554   2.588  0.4098  0.0582  0.2137
 3677TIP3    H132666   6.464   6.510   2.533 -0.3294 -0.9961  0.1528
 3677TIP3    H232667   6.345   6.603   2.527  0.3909 -0.0576  0.1374
 3678TIP3   OH232668   5.768   3.021   7.842  0.6426  0.0904  0.4978
 3678TIP3    H132669   5.799   3.035   7.931 -1.3559 -0.7663  1.4047
 3678TIP3    H232670   5.717   2.940   7.847  0.3041  0.1409 -1.3763
 3679TIP3   OH232671   5.318   4.618   2.798 -0.4025 -0.6278  0.1430
 3679TIP3    H132672   5.268   4.678   2.854 -1.9218 -0.7651 -1.0100
 3679TIP3    H232673   5.408   4.651   2.802 -0.9441  0.8816  0.6364
 3680TIP3   OH232674   5.972   6.104   2.652 -0.5276  0.1734 -0.5493
 3680TIP3    H132675   5.926   6.084   2.734  1.1187 -0.0145  0.3721
 3680TIP3    H232676   6.064   6.088   2.672  0.0498  1.4011 -2.0652
 3681TIP3   OH232677   1.804   1.467   1.402 -0.3000 -0.7346 -0.4637
 3681TIP3    H132678   1.722   1.493   1.445 -1.0416  0.2137 -2.3209
 3681TIP3    H232679   1.821   1.378   1.434 -1.3739 -0.4732  0.9217
 3682TIP3   OH232680   5.180   5.127   7.813  0.3594  0.4410 -0.7084
 3682TIP3    H132681   5.132   5.195   7.861 -0.0834 -0.6336  0.4254
 3682TIP3    H232682   5.201   5.167   7.729  0.5424  2.1543  0.1196
 3683TIP3   OH232683   5.602   6.172   2.528 -0.2485 -0.2946  0.0161
 3683TIP3    H132684   5.605   6.254   2.479 -1.8127 -0.1050  0.1956
 3683TIP3    H232685   5.613   6.199   2.619  2.8839 -0.6670 -0.1410
 3684TIP3   OH232686   6.770   0.387   8.563 -0.0754 -0.0677  0.2093
 3684TIP3    H132687   6.675   0.386   8.576  0.1001 -0.8656  1.6242
 3684TIP3    H232688   6.786   0.467   8.513 -1.7175 -1.1177 -2.2201
 3685TIP3   OH232689   6.725   4.420   2.651 -0.0856  0.0348  0.0832
 3685TIP3    H132690   6.782   4.424   2.574 -2.9926  0.9102 -2.2058
 3685TIP3    H232691   6.728   4.508   2.688 -1.1724  0.6079 -1.0931
 3686TIP3   OH232692   6.159   4.387   1.937  0.5886  0.3035 -0.0137
 3686TIP3    H132693   6.190   4.434   2.015  1.4572 -2.5834  1.5863
 3686TIP3    H232694   6.234   4.388   1.878  0.7743  0.5005  0.2204
 3687TIP3   OH232695   4.943   3.463   7.774 -0.0048  0.0039  0.1782
 3687TIP3    H132696   4.927   3.548   7.815  0.8279  0.4587 -0.4161
 3687TIP3    H232697   4.919   3.399   7.841 -2.5566  0.6427 -0.0536
 3688TIP3   OH232698   6.626   4.927   0.625  0.0212 -0.3045  0.2249
 3688TIP3    H132699   6.706   4.881   0.651 -0.4465 -0.6099  1.1556
 3688TIP3    H232700   6.565   4.858   0.600  0.7118 -0.0232 -2.6385
 3689TIP3   OH232701   0.589   4.299   7.995  0.0715  0.1992 -0.4202
 3689TIP3    H132702   0.564   4.333   8.081 -1.6661  0.3152 -0.9218
 3689TIP3    H232703   0.523   4.335   7.935  0.6133 -0.7379 -1.6311
 3690TIP3   OH232704   4.325   6.115   1.773 -0.2911 -0.2802 -0.2814
 3690TIP3    H132705   4.377   6.161   1.839 -0.5850 -1.0412  0.4968
 3690TIP3    H232706   4.374   6.034   1.755 -0.6993 -0.5301 -0.2863
 3691TIP3   OH232707   0.537   0.002   1.450  0.2506 -0.1350  0.5705
 3691TIP3    H132708   0.520   0.093   1.427  1.1382  0.2460  1.3560
 3691TIP3    H232709   0.543   0.002   1.545 -3.0035 -1.5975  0.9252
 3692TIP3   OH232710   4.601   4.291   0.790  0.7688  0.5161 -0.0573
 3692TIP3    H132711   4.554   4.374   0.783  1.6865  1.1460  0.9153
 3692TIP3    H232712   4.625   4.284   0.882 -0.2668 -1.4084  0.1121
 3693TIP3   OH232713   4.160   0.423   0.856 -0.1641 -0.2578 -0.2764
 3693TIP3    H132714   4.174   0.337   0.815 -0.1788 -0.1145 -0.5822
 3693TIP3    H232715   4.208   0.484   0.801 -0.9836  0.0709 -0.6381
 3694TIP3   OH232716   2.749   3.425   8.548  0.7173 -0.0174 -0.0250
 3694TIP3    H132717   2.837   3.389   8.561  1.3806  1.3412 -0.5663
 3694TIP3    H232718   2.719   3.387   8.466  0.3854 -1.2080  0.6130
 3695TIP3   OH232719   2.479   4.570   8.432  0.1541  0.0915  0.3638
 3695TIP3    H132720   2.451   4.634   8.497 -1.1480 -1.1093  1.0281
 3695TIP3    H232721   2.552   4.524   8.474  0.0936  0.1242  0.5075
 3696TIP3   OH232722   4.484   2.364   8.766  0.4642  0.0573 -0.1726
 3696TIP3    H132723   4.420   2.409   8.711  1.1449 -0.9936 -1.9226
 3696TIP3    H232724   4.433   2.298   8.813 -0.2814  1.5697  1.2349
 3697TIP3   OH232725   0.847   1.559   1.056 -0.0298  0.5680  0.1420
 3697TIP3    H132726   0.854   1.644   1.100  1.7441  0.8293 -0.5380
 3697TIP3    H232727   0.772   1.516   1.097  1.7548  0.5809  3.8521
 3698TIP3   OH232728   2.088   6.230   0.435 -0.3115  0.2337 -0.1024
 3698TIP3    H132729   2.047   6.289   0.497 -3.9529 -0.2223 -1.8218
 3698TIP3    H232730   2.058   6.260   0.349  1.6358 -1.2495 -1.4047
 3699TIP3   OH232731   2.707   5.138   0.656 -0.1696 -0.1420 -0.0215
 3699TIP3    H132732   2.637   5.196   0.685  0.6967  0.0695  1.7331
 3699TIP3    H232733   2.752   5.186   0.586 -0.2301  0.7742  0.5624
 3700TIP3   OH232734   1.155   4.224   1.139 -0.4482  0.5940  0.3603
 3700TIP3    H132735   1.186   4.270   1.217  0.0680  0.5294  0.1967
 3700TIP3    H232736   1.099   4.288   1.094  2.5907  2.2262 -1.4300
 3701TIP3   OH232737   3.917   4.012   1.829  0.1133  0.2910  0.3813
 3701TIP3    H132738   3.978   3.938   1.828  0.0439  0.2272 -1.2264
 3701TIP3    H232739   3.913   4.038   1.921  0.0081 -1.7974  1.0126
 3702TIP3   OH232740   1.875   4.269   7.639 -0.4924 -0.5455 -0.4127
 3702TIP3    H132741   1.965   4.295   7.620 -0.3364 -0.7744  0.0251
 3702TIP3    H232742   1.856   4.307   7.724 -1.1224  0.2735 -0.8940
 3703TIP3   OH232743   2.487   6.204   0.940  0.1256  0.0739  0.0601
 3703TIP3    H132744   2.406   6.252   0.956 -1.4261 -2.4010  0.2273
 3703TIP3    H232745   2.499   6.152   1.020  0.5913 -1.2738 -0.8629
 3704TIP3   OH232746   4.756   2.373   2.093  0.0957 -0.5306  0.4227
 3704TIP3    H132747   4.671   2.410   2.118 -0.7366 -2.8630  1.2231
 3704TIP3    H232748   4.804   2.366   2.175  0.6375 -0.3125  0.1296
 3705TIP3   OH232749   1.082   1.573   0.675 -0.5739  0.1612 -0.4554
 3705TIP3    H132750   1.107   1.561   0.767  1.9403  1.0816 -0.9448
 3705TIP3    H232751   1.031   1.654   0.675  0.4716  0.8406 -0.0069
 3706TIP3   OH232752   5.224   0.211   0.588  0.4179 -0.1250  0.4099
 3706TIP3    H132753   5.228   0.219   0.492  2.2472 -1.8099  0.2937
 3706TIP3    H232754   5.135   0.183   0.606 -0.0392  0.5064 -0.7589
 3707TIP3   OH232755   6.360   4.954   0.132 -0.2424 -0.2257 -0.6221
 3707TIP3    H132756   6.306   4.935   0.209 -0.4496  1.0225 -0.4218
 3707TIP3    H232757   6.339   5.045   0.111  2.4053  0.6435  0.0146
 3708TIP3   OH232758   2.437   4.513   1.327 -0.3362 -0.2559 -0.3948
 3708TIP3    H132759   2.427   4.494   1.234 -1.7058 -0.3596 -0.2452
 3708TIP3    H232760   2.440   4.427   1.369  0.7477 -0.2190 -0.3707
 3709TIP3   OH232761   4.471   2.941   1.334  0.3875  0.2081  0.2446
 3709TIP3    H132762   4.475   2.857   1.380  0.1620  0.0473 -0.0213
 3709TIP3    H232763   4.465   3.006   1.404 -0.7372 -0.0832  0.4411
 3710TIP3   OH232764   3.979   3.936   1.126  0.5183 -0.1601  0.5457
 3710TIP3    H132765   3.885   3.953   1.134  0.5047 -0.4920  1.1539
 3710TIP3    H232766   4.021   4.011   1.168  0.4714 -1.1915  2.5306
 3711TIP3   OH232767   5.235   5.219   1.144  0.2767 -0.0696 -0.5329
 3711TIP3    H132768   5.260   5.192   1.232  0.5525 -0.5372 -0.7570
 3711TIP3    H232769   5.302   5.281   1.117 -0.4296  0.9750  0.0343
 3712TIP3   OH232770   1.393   5.671   7.963  0.5299 -0.5736 -0.9414
 3712TIP3    H132771   1.404   5.753   7.915 -0.6529  0.7306  0.8875
 3712TIP3    H232772   1.300   5.652   7.958  0.5287 -0.9010 -0.0001
 3713TIP3   OH232773   4.023   5.869   2.093 -0.0793 -0.0869 -0.1997
 3713TIP3    H132774   3.951   5.806   2.088 -0.2858 -0.0612  1.6849
 3713TIP3    H232775   4.048   5.870   2.186  0.9490  1.4623 -0.4495
 3714TIP3   OH232776   5.667   4.914   0.142 -0.0342 -0.4087 -0.3222
 3714TIP3    H132777   5.663   5.001   0.182 -1.5314  0.3282 -1.9411
 3714TIP3    H232778   5.616   4.923   0.062  1.0743 -2.3924 -1.3038
 3715TIP3   OH232779   2.055   0.039   0.944  0.5277 -0.3181  0.2110
 3715TIP3    H132780   1.984   0.077   0.892 -0.2220 -1.8091  0.1064
 3715TIP3    H232781   2.081  -0.039   0.896  1.6721 -0.2536  0.6989
 3716TIP3   OH232782   2.025   6.380   0.673  0.2716  0.3784  0.1554
 3716TIP3    H132783   1.955   6.362   0.735  1.0025  2.0996  1.5588
 3716TIP3    H232784   2.101   6.333   0.709  0.3729  0.2905 -0.1709
 3717TIP3   OH232785   5.620   2.364   3.028  0.0576 -0.5682 -0.3223
 3717TIP3    H132786   5.662   2.323   2.952 -0.4446 -1.4228 -0.1554
 3717TIP3    H232787   5.614   2.294   3.093  1.5546  0.4226  0.9856
 3718TIP3   OH232788   2.969   0.656   0.468  0.9378  0.2544  0.1977
 3718TIP3    H132789   3.043   0.708   0.435  1.4925 -1.0243 -0.6365
 3718TIP3    H232790   3.010   0.579   0.507  0.0132 -0.9047 -1.0690
 3719TIP3   OH232791   4.444   2.676   8.662 -0.6489  0.4564  0.3125
 3719TIP3    H132792   4.421   2.596   8.616  1.7859  0.5195 -1.2545
 3719TIP3    H232793   4.493   2.647   8.739  0.3358  0.3813 -0.3179
 3720TIP3   OH232794   5.797   3.689   2.483  0.3600 -0.1164  1.0731
 3720TIP3    H132795   5.757   3.662   2.400  2.1394 -0.8350  0.3870
 3720TIP3    H232796   5.860   3.756   2.458  1.3155 -0.7309  1.7329
 3721TIP3   OH232797   0.879   1.439   0.375  0.0764  0.0337 -0.3686
 3721TIP3    H132798   0.839   1.432   0.461  0.2366 -2.3821 -0.4092
 3721TIP3    H232799   0.826   1.383   0.319  1.8867 -1.1258 -1.0257
 3722TIP3   OH232800   4.034   2.282   1.885 -0.6870  0.0176  0.3761
 3722TIP3    H132801   4.069   2.215   1.826  0.7876  0.5367  0.6155
 3722TIP3    H232802   3.977   2.234   1.945  0.6332 -1.1201  0.7821
 3723TIP3   OH232803   4.148   4.311   8.313 -0.1981  0.1840 -0.0046
 3723TIP3    H132804   4.081   4.359   8.264 -0.5631  1.0780  1.3293
 3723TIP3    H232805   4.100   4.270   8.385  0.2841 -1.3791 -0.5304
 3724TIP3   OH232806   2.914   2.501   7.832 -0.1117 -0.3051  0.6220
 3724TIP3    H132807   2.903   2.437   7.761 -0.5026 -0.2047  0.5934
 3724TIP3    H232808   2.842   2.483   7.891  0.6731 -0.9357  1.4182
 3725TIP3   OH232809   0.138   5.553   8.691  0.1792  0.5030  0.3221
 3725TIP3    H132810   0.071   5.540   8.758  0.4222 -0.3780  0.4104
 3725TIP3    H232811   0.164   5.645   8.701 -2.2436  1.4031 -0.8968
 3726TIP3   OH232812   3.978   4.076   8.276  0.8478 -0.1931 -0.1664
 3726TIP3    H132813   4.016   4.163   8.288 -0.1140  0.6579 -2.6980
 3726TIP3    H232814   3.940   4.054   8.362  1.5233  1.6432  0.6504
 3727TIP3   OH232815   2.042   5.434   8.968  0.0229 -0.1039 -0.4238
 3727TIP3    H132816   2.002   5.351   8.943  0.3137 -0.0322 -1.1368
 3727TIP3    H232817   2.082   5.468   8.888  3.4200 -1.2153  0.6277
 3728TIP3   OH232818   1.274   1.335   0.634  0.2855 -0.8270  0.6316
 3728TIP3    H132819   1.268   1.250   0.678  0.2890 -0.7224  0.8377
 3728TIP3    H232820   1.191   1.378   0.656  0.2539 -0.8057  0.4692
 3729TIP3   OH232821   2.713   5.164   8.494  0.4417  0.7425  0.1919
 3729TIP3    H132822   2.808   5.172   8.486  0.4484  0.0640 -0.5196
 3729TIP3    H232823   2.678   5.206   8.416  0.3774 -3.1489 -2.1441
 3730TIP3   OH232824   2.939   0.891   8.944  0.4446  0.1399 -0.5074
 3730TIP3    H132825   2.881   0.925   9.012  2.1862  1.5151  0.3623
 3730TIP3    H232826   2.954   0.800   8.968  1.5015  0.7469  1.3672
 3731TIP3   OH232827   1.119   6.247   2.941 -0.0779 -0.1376  0.5375
 3731TIP3    H132828   1.084   6.312   3.002 -1.8375 -0.0574 -0.5017
 3731TIP3    H232829   1.192   6.207   2.988 -1.1155  0.2045  2.5168
 3732TIP3   OH232830   3.614   0.296   8.288  0.1944 -0.2173 -0.3302
 3732TIP3    H132831   3.636   0.226   8.227  0.6463 -0.3148 -0.0637
 3732TIP3    H232832   3.531   0.331   8.256 -0.0650 -0.9100 -0.4366
 3733TIP3   OH232833   5.707   5.380   2.204 -0.2212 -0.2866  0.3043
 3733TIP3    H132834   5.645   5.319   2.243  0.7976 -1.0331  0.8280
 3733TIP3    H232835   5.665   5.466   2.210 -0.6184 -0.5639  1.9168
 3734TIP3   OH232836   0.205   1.768   8.835  0.1838 -0.2731 -1.0360
 3734TIP3    H132837   0.214   1.738   8.744  0.6772  2.8866 -2.1403
 3734TIP3    H232838   0.125   1.821   8.835 -0.0438 -0.5631  0.5351
 3735TIP3   OH232839   2.798   4.803   0.348  0.3869 -0.2194 -0.4562
 3735TIP3    H132840   2.783   4.894   0.324  3.6053  1.0060  1.5607
 3735TIP3    H232841   2.725   4.781   0.406  0.2824  1.5827  0.1551
 3736TIP3   OH232842   3.880   3.637   1.141 -0.6662  0.4653 -0.0491
 3736TIP3    H132843   3.807   3.610   1.196 -1.5591  0.6488 -1.1021
 3736TIP3    H232844   3.911   3.719   1.180 -0.1873 -0.2667  1.1355
 3737TIP3   OH232845   0.387   0.881   8.601 -0.5867 -0.0763 -0.0137
 3737TIP3    H132846   0.337   0.808   8.565 -2.7083  0.8662  0.8753
 3737TIP3    H232847   0.381   0.869   8.696  1.1438 -0.0663  0.1249
 3738TIP3   OH232848   2.359   0.429   0.637  0.4844 -0.1743 -0.7454
 3738TIP3    H132849   2.310   0.511   0.626  0.3679 -0.4256 -2.3645
 3738TIP3    H232850   2.292   0.360   0.631  0.5975 -0.4180  0.4799
 3739TIP3   OH232851   0.289   4.440   3.117 -0.1943 -0.7112  0.1965
 3739TIP3    H132852   0.337   4.366   3.154  0.7757  0.3830  1.2022
 3739TIP3    H232853   0.355   4.508   3.104 -1.0952  0.0450 -0.5535
 3740TIP3   OH232854   0.011   1.889   1.110 -0.0919  0.2390  0.3299
 3740TIP3    H132855  -0.005   1.936   1.192  1.3497  0.8603  0.3028
 3740TIP3    H232856  -0.006   1.954   1.042 -1.5499 -0.3559  0.0982
 3741TIP3   OH232857   0.462   2.154   0.207 -0.5810 -0.4088  0.0137
 3741TIP3    H132858   0.527   2.208   0.163 -0.8886  1.0301  1.2570
 3741TIP3    H232859   0.381   2.171   0.159 -1.0495  1.6384  1.4343
 3742TIP3   OH232860   3.535   5.816   0.434 -0.1907 -0.3698 -0.5825
 3742TIP3    H132861   3.551   5.760   0.510 -1.3926 -0.5560 -0.4453
 3742TIP3    H232862   3.608   5.877   0.432  0.6793 -1.3851 -0.2109
 3743TIP3   OH232863   5.614   0.786   8.126  0.5757  0.5343  0.3675
 3743TIP3    H132864   5.650   0.704   8.160 -0.3813 -0.4293 -0.8434
 3743TIP3    H232865   5.530   0.795   8.171  0.4887  0.6236  0.1865
 3744TIP3   OH232866   6.007   5.834   0.247 -0.2342 -0.1949 -0.1280
 3744TIP3    H132867   5.917   5.804   0.244 -0.1967 -0.3288  0.0480
 3744TIP3    H232868   6.009   5.897   0.319 -0.5164  0.9259 -1.0721
 3745TIP3   OH232869   5.319   4.247   3.434 -0.1644  0.0190  0.1072
 3745TIP3    H132870   5.301   4.340   3.416 -0.5464  0.3181  1.9102
 3745TIP3    H232871   5.414   4.243   3.440 -0.2219  0.8215  2.4385
 3746TIP3   OH232872   0.696   5.628   1.575  0.3010  0.0213  0.0868
 3746TIP3    H132873   0.604   5.601   1.577 -0.5316  2.1183 -2.6518
 3746TIP3    H232874   0.742   5.555   1.535 -0.5257 -0.3614 -0.1912
 3747TIP3   OH232875   3.299   6.628   2.458 -0.3802  0.4497 -0.0521
 3747TIP3    H132876   3.392   6.638   2.439 -0.2817 -0.1203  0.0897
 3747TIP3    H232877   3.297   6.601   2.550 -0.6572  0.0218 -0.1804
 3748TIP3   OH232878   3.597   4.127   8.425  0.0007  0.0171  0.1140
 3748TIP3    H132879   3.596   4.207   8.372 -1.8416  0.5503  0.8971
 3748TIP3    H232880   3.518   4.080   8.399  0.1802 -0.7348  0.8982
 3749TIP3   OH232881   2.151   1.770   3.238  0.0187  0.8234  0.2933
 3749TIP3    H132882   2.166   1.852   3.284 -0.7812  0.5197  1.1249
 3749TIP3    H232883   2.112   1.712   3.304  0.5337 -0.2080 -0.2882
 3750TIP3   OH232884   0.783   1.131   2.555 -0.5890  0.8310 -0.7141
 3750TIP3    H132885   0.730   1.188   2.612 -1.1320 -0.7675  0.4521
 3750TIP3    H232886   0.729   1.119   2.477 -0.9803  1.0040 -0.4744
 3751TIP3   OH232887   5.710   6.638   1.607  0.3827 -0.3535  0.5794
 3751TIP3    H132888   5.771   6.609   1.675 -1.0343  0.1149  2.1110
 3751TIP3    H232889   5.681   6.556   1.565 -0.0924 -0.8302  1.7776
 3752TIP3   OH232890   0.247   5.668   1.132 -0.9195 -0.5932  0.4389
 3752TIP3    H132891   0.202   5.734   1.079 -0.6563  0.3708  1.3986
 3752TIP3    H232892   0.244   5.702   1.221  1.3109 -0.6985  0.6106
 3753TIP3   OH232893   3.161   5.079   2.455 -0.2177  0.3042 -0.3291
 3753TIP3    H132894   3.147   5.023   2.531 -2.5445 -0.6283 -1.3734
 3753TIP3    H232895   3.174   5.167   2.493 -1.7476 -0.0502  1.1657
 3754TIP3   OH232896   5.349   5.495   8.621  0.0784  0.3870  0.5003
 3754TIP3    H132897   5.337   5.523   8.530 -0.4312  0.5433  0.6136
 3754TIP3    H232898   5.329   5.573   8.672  0.6540  0.3846  0.7405
 3755TIP3   OH232899   0.317   2.572   0.508  0.3922 -0.4110 -0.2071
 3755TIP3    H132900   0.395   2.593   0.456  0.5881  0.1427  0.3086
 3755TIP3    H232901   0.244   2.586   0.447  0.4260  2.6594  0.3094
 3756TIP3   OH232902   4.505   2.429   2.221  0.0883 -0.4953  0.6336
 3756TIP3    H132903   4.573   2.454   2.283  0.5352 -1.4277  0.5373
 3756TIP3    H232904   4.423   2.437   2.270  0.2624  0.5172  0.7834
 3757TIP3   OH232905   0.629   1.726   8.651 -0.1910 -0.0011  0.4183
 3757TIP3    H132906   0.625   1.641   8.608 -1.9272 -0.2578  0.9950
 3757TIP3    H232907   0.658   1.706   8.740  0.2735  0.1284  0.2974
 3758TIP3   OH232908   2.771   1.217   7.872 -0.1072  0.3877  0.4759
 3758TIP3    H132909   2.858   1.211   7.912 -0.4460 -0.5729  1.1306
 3758TIP3    H232910   2.771   1.147   7.806 -0.0549  1.0224 -0.2038
 3759TIP3   OH232911   4.523   4.711   7.576  0.4817 -0.3800  0.2904
 3759TIP3    H132912   4.509   4.777   7.645  0.4793 -0.2546  0.1693
 3759TIP3    H232913   4.570   4.757   7.508  2.0531 -0.9565  0.9452
 3760TIP3   OH232914   4.520   0.958   1.582 -0.3676  0.3572 -0.5033
 3760TIP3    H132915   4.451   0.995   1.527 -0.6551 -0.4299 -0.6747
 3760TIP3    H232916   4.522   0.865   1.560  1.3556  0.5188 -1.1448
 3761TIP3   OH232917   5.227   1.417   8.240  0.3844  0.3522 -0.1363
 3761TIP3    H132918   5.275   1.491   8.202  1.6978 -0.4092 -0.0121
 3761TIP3    H232919   5.157   1.399   8.176  1.4339  0.2522 -1.2948
 3762TIP3   OH232920   0.486   3.827   1.241 -0.5539 -0.1210 -0.4697
 3762TIP3    H132921   0.429   3.855   1.313  1.3432  0.2436  0.9867
 3762TIP3    H232922   0.537   3.756   1.279  0.9014  0.4744 -1.2500
 3763TIP3   OH232923   1.389   4.354   0.335 -0.3902 -0.1579  0.3470
 3763TIP3    H132924   1.358   4.396   0.415  0.0828  0.2310  0.3379
 3763TIP3    H232925   1.475   4.318   0.358 -0.5784 -0.6977  0.2167
 3764TIP3   OH232926   0.439   3.927   0.594  0.1179  0.0784 -0.3885
 3764TIP3    H132927   0.411   4.010   0.632  1.2660  0.0065  0.6748
 3764TIP3    H232928   0.528   3.943   0.563  0.0768 -0.5566 -0.8671
 3765TIP3   OH232929   2.758   1.446   0.510 -0.8981  0.3551 -0.3965
 3765TIP3    H132930   2.768   1.464   0.416  0.9806 -0.5445 -0.4141
 3765TIP3    H232931   2.676   1.489   0.534  0.6121  4.3894 -1.5164
 3766TIP3   OH232932   1.562   2.759   1.445 -0.0088  0.4186 -0.8041
 3766TIP3    H132933   1.598   2.759   1.534 -1.3932  0.5609 -0.2202
 3766TIP3    H232934   1.574   2.849   1.414 -1.3744  0.9256  0.0515
 3767TIP3   OH232935   0.807   1.433   0.075 -0.3889  0.8834 -0.8325
 3767TIP3    H132936   0.888   1.385   0.053 -0.8345 -0.1601 -0.2679
 3767TIP3    H232937   0.832   1.525   0.070  0.2153  0.6670 -3.0625
 3768TIP3   OH232938   6.104   2.014   1.393 -0.0697 -0.0043 -0.3565
 3768TIP3    H132939   6.099   1.982   1.303 -0.7716  0.2805 -0.4314
 3768TIP3    H232940   6.170   1.959   1.435 -1.9162 -2.2640 -0.1960
 3769TIP3   OH232941   1.723   1.925   7.685 -0.3307 -0.2281  0.5882
 3769TIP3    H132942   1.716   1.995   7.750  1.3227  1.1145 -0.6094
 3769TIP3    H232943   1.633   1.893   7.675 -1.3196  2.3931  0.4802
 3770TIP3   OH232944   4.234   1.212   3.242 -0.5393  0.2994  0.5562
 3770TIP3    H132945   4.269   1.268   3.312 -0.8591  1.0226  0.1393
 3770TIP3    H232946   4.308   1.157   3.217 -0.2334  0.5027  1.0057
 3771TIP3   OH232947   4.086   1.869   0.002  0.3930  0.3814 -0.1620
 3771TIP3    H132948   4.078   1.890   0.095 -0.9269  0.9214 -0.3785
 3771TIP3    H232949   4.046   1.944  -0.043  0.5427 -0.1160 -1.1481
 3772TIP3   OH232950   1.938   2.328   1.135  0.0744 -0.4552 -0.3719
 3772TIP3    H132951   1.979   2.273   1.202 -0.8186 -2.1729 -1.1640
 3772TIP3    H232952   1.844   2.314   1.147 -0.1486  0.4756 -0.9601
 3773TIP3   OH232953   6.649   4.882   8.683  0.1567 -0.8917  0.2944
 3773TIP3    H132954   6.733   4.886   8.638  0.1670 -1.4360  0.2595
 3773TIP3    H232955   6.639   4.969   8.722  0.6539 -0.7666  0.1533
 3774TIP3   OH232956   6.735   1.572   0.936 -0.6823  0.2282  0.6152
 3774TIP3    H132957   6.772   1.609   0.857  0.7232 -0.8694  0.7265
 3774TIP3    H232958   6.653   1.531   0.907 -0.0029 -0.4810 -0.3355
 3775TIP3   OH232959   1.680   0.211   8.394 -0.4936  0.9884 -0.5876
 3775TIP3    H132960   1.770   0.244   8.391 -0.0405 -0.1721 -0.1847
 3775TIP3    H232961   1.653   0.210   8.302  0.0574  0.9409 -0.7572
 3776TIP3   OH232962   5.958   4.787   7.213  0.2424  0.6878 -0.3895
 3776TIP3    H132963   5.898   4.713   7.216  0.3168  0.6653  0.8840
 3776TIP3    H232964   5.921   4.851   7.274  2.2857  0.0472  1.6842
 3777TIP3   OH232965   3.922   1.720   0.444  0.1689 -0.0704  0.3173
 3777TIP3    H132966   3.968   1.747   0.524 -0.8425  0.3480  0.7688
 3777TIP3    H232967   3.974   1.758   0.373  0.6528  0.1950  0.8051
 3778TIP3   OH232968   5.587   1.838   3.641 -0.1688 -0.5901 -0.0617
 3778TIP3    H132969   5.671   1.880   3.659 -1.4542  1.4307  1.6786
 3778TIP3    H232970   5.611   1.751   3.609  2.5681 -0.4119  1.1587
 3779TIP3   OH232971   3.926   2.631   8.631 -0.1325  0.2473  0.4298
 3779TIP3    H132972   3.840   2.642   8.671  0.2752  0.3261  1.3166
 3779TIP3    H232973   3.986   2.675   8.690  0.4858  0.4843 -0.3535
 3780TIP3   OH232974   4.868   3.493   8.138  0.2646  0.1590 -0.0224
 3780TIP3    H132975   4.815   3.535   8.070  0.9653  0.2005 -0.5573
 3780TIP3    H232976   4.876   3.402   8.109 -0.0112  0.0004  0.3758
 3781TIP3   OH232977   3.446   3.706   0.040  0.2600 -0.0537 -0.3029
 3781TIP3    H132978   3.391   3.627   0.045  1.0121 -0.6841 -1.5890
 3781TIP3    H232979   3.528   3.681   0.083 -0.1398  0.6304  0.9031
 3782TIP3   OH232980   6.747   0.663   2.520 -0.3488  0.3613 -0.5331
 3782TIP3    H132981   6.757   0.569   2.501 -0.5313  0.2266  0.0223
 3782TIP3    H232982   6.835   0.699   2.508  0.2020 -0.2631  1.3361
 3783TIP3   OH232983   2.801   5.279   7.985 -0.1568 -0.5557  0.2009
 3783TIP3    H132984   2.886   5.249   8.017  0.3340  1.0543  0.4551
 3783TIP3    H232985   2.743   5.273   8.061 -0.3197 -1.7372  0.0061
 3784TIP3   OH232986   0.050   4.094   3.003 -0.2650 -0.5915 -0.1237
 3784TIP3    H132987   0.066   4.035   2.929 -0.1719 -0.4276 -0.2343
 3784TIP3    H232988   0.128   4.083   3.059  1.4245  1.9184 -1.7854
 3785TIP3   OH232989   6.400   3.644   8.376  0.3886 -0.2648  0.2684
 3785TIP3    H132990   6.390   3.560   8.331  0.2722  1.0998 -2.5022
 3785TIP3    H232991   6.494   3.660   8.377  0.3484  0.0610 -0.2913
 3786TIP3   OH232992   3.057   5.050   1.864 -0.1224 -0.2098  0.1637
 3786TIP3    H132993   3.050   5.015   1.953  0.2007 -1.3303 -0.2338
 3786TIP3    H232994   3.029   5.142   1.872  1.5037  0.2136  1.7442
 3787TIP3   OH232995   6.498   1.943   3.463  0.4098  0.2936  0.2265
 3787TIP3    H132996   6.478   1.850   3.458  0.4874  0.2607  0.5038
 3787TIP3    H232997   6.594   1.948   3.455  0.2712  0.5204 -2.0826
 3788TIP3   OH232998   1.732   4.398   2.222  0.0654 -0.1854 -0.3467
 3788TIP3    H132999   1.650   4.361   2.254  0.8163 -3.5241 -1.8313
 3788TIP3    H233000   1.734   4.374   2.129  2.2524  0.7805 -0.6096
 3789TIP3   OH233001   4.509   6.543   0.698  0.1699 -0.6894  0.3224
 3789TIP3    H133002   4.578   6.478   0.713  0.8098  0.0748  0.8073
 3789TIP3    H233003   4.443   6.497   0.647  2.4671 -0.6156 -3.0155
 3790TIP3   OH233004   0.841   1.792   2.037  0.2545  0.2009 -0.5639
 3790TIP3    H133005   0.835   1.888   2.039  0.0350  0.1693  1.1400
 3790TIP3    H233006   0.752   1.762   2.058  0.1010 -0.4023 -1.9661
 3791TIP3   OH233007   5.230   0.859   3.470 -0.3196 -0.1095 -0.4170
 3791TIP3    H133008   5.268   0.897   3.549 -0.4007 -0.4381 -0.2162
 3791TIP3    H233009   5.142   0.831   3.498 -0.0673 -0.9141 -0.4194
 3792TIP3   OH233010   2.346   3.420   8.258 -0.0120 -0.1245  0.2699
 3792TIP3    H133011   2.254   3.442   8.275  0.1387  1.1224 -0.4479
 3792TIP3    H233012   2.342   3.356   8.187 -0.3222 -0.2552  0.3995
 3793TIP3   OH233013   0.916   0.538   1.516 -0.1300  0.4980 -0.5601
 3793TIP3    H133014   0.952   0.619   1.479  0.5832  0.2917 -0.3324
 3793TIP3    H233015   0.855   0.506   1.450  1.1404  0.1158 -1.5928
 3794TIP3   OH233016   1.006   0.406   8.871  0.1191 -0.2628  0.4566
 3794TIP3    H133017   1.008   0.435   8.779 -0.7745  2.1478  1.1208
 3794TIP3    H233018   1.078   0.452   8.913  0.5203 -1.3488  0.9963
 3795TIP3   OH233019   0.172   0.815   0.537 -0.6947 -0.0271 -0.3662
 3795TIP3    H133020   0.192   0.798   0.630  0.0857 -2.0794 -0.8529
 3795TIP3    H233021   0.080   0.793   0.528 -0.1078 -2.7863 -0.6138
 3796TIP3   OH233022   0.976   1.080   0.467 -0.4958  0.5386  0.0844
 3796TIP3    H133023   1.015   1.017   0.528 -0.4562 -0.1869 -0.6646
 3796TIP3    H233024   0.930   1.143   0.523 -1.1644 -0.5785  0.8269
 3797TIP3   OH233025   2.168   2.833   2.354 -0.4223  0.1920  0.1860
 3797TIP3    H133026   2.137   2.907   2.302  1.3933  2.2807  1.8526
 3797TIP3    H233027   2.204   2.772   2.291  1.4685  2.5052 -1.1330
 3798TIP3   OH233028   4.038   1.285   1.819  0.2178 -0.1991 -0.7047
 3798TIP3    H133029   4.006   1.203   1.782 -0.1708 -0.1400 -0.5015
 3798TIP3    H233030   3.975   1.351   1.791  1.6957  0.4403 -2.7464
 3799TIP3   OH233031   1.125   0.893   0.037 -0.0836 -0.0204 -0.2019
 3799TIP3    H133032   1.164   0.929   0.116 -1.5394  1.8851 -0.2753
 3799TIP3    H233033   1.180   0.925  -0.034 -0.8560  1.4064 -0.1959
 3800TIP3   OH233034   2.016   4.983   1.398  0.3474  0.4003 -0.3176
 3800TIP3    H133035   1.936   5.034   1.382  0.6877  1.0483  0.0197
 3800TIP3    H233036   2.020   4.973   1.493 -1.0017 -2.3708 -0.4421
 3801TIP3   OH233037   5.229   2.066   1.903  0.0713 -0.0927  0.4042
 3801TIP3    H133038   5.181   2.090   1.824 -0.6593  1.2709  1.2098
 3801TIP3    H233039   5.316   2.039   1.871 -0.0025  0.9940 -0.8323
 3802TIP3   OH233040   2.665   3.142   3.507 -0.0812  0.2967 -0.2399
 3802TIP3    H133041   2.747   3.100   3.482  1.1437  1.5885  1.3336
 3802TIP3    H233042   2.619   3.076   3.559  0.0003 -0.4000 -1.0431
 3803TIP3   OH233043   3.965   3.352   8.226  0.0581  0.0517  0.1646
 3803TIP3    H133044   4.007   3.309   8.151 -0.6257 -0.0300 -0.1773
 3803TIP3    H233045   3.921   3.281   8.273 -0.4686  0.2655  0.0022
 3804TIP3   OH233046   0.816   3.376   7.844  0.1434  0.5146  0.3000
 3804TIP3    H133047   0.729   3.337   7.831 -0.2267  0.7471  1.8470
 3804TIP3    H233048   0.869   3.305   7.880  0.8090  0.1858 -1.2838
 3805TIP3   OH233049   2.275   5.049   7.921  0.3162 -0.1321 -0.4694
 3805TIP3    H133050   2.300   5.123   7.977  0.7801  0.5458 -1.5440
 3805TIP3    H233051   2.200   5.080   7.871 -0.4065 -0.9047  0.1076
 3806TIP3   OH233052   6.343   0.089   2.747  0.0672 -0.2613 -0.1875
 3806TIP3    H133053   6.400   0.037   2.803  0.3310  1.2444  0.9942
 3806TIP3    H233054   6.391   0.096   2.664  1.5175  0.7077  0.6777
 3807TIP3   OH233055   4.422   4.958   8.811 -0.1408  0.4718 -0.7125
 3807TIP3    H133056   4.517   4.971   8.806  0.0548  0.2610  1.4324
 3807TIP3    H233057   4.390   4.981   8.724  1.8392  0.8315 -1.3969
 3808TIP3   OH233058   1.233   0.413   3.178 -0.1440 -0.0476  0.2172
 3808TIP3    H133059   1.294   0.460   3.234  0.5694 -0.6129 -0.0695
 3808TIP3    H233060   1.172   0.371   3.239  0.0629  0.0938  0.5230
 3809TIP3   OH233061   6.254   3.548   1.032 -0.2303 -0.1504 -0.3821
 3809TIP3    H133062   6.172   3.528   1.078  0.1326 -2.4906 -0.6244
 3809TIP3    H233063   6.237   3.524   0.941 -0.1278  2.0491 -1.0346
 3810TIP3   OH233064   4.039   6.644   7.889 -0.6325  0.7821  0.0571
 3810TIP3    H133065   4.037   6.618   7.797  0.7940  1.5575 -0.2074
 3810TIP3    H233066   3.950   6.675   7.907 -1.3581 -0.7806 -0.6114
 3811TIP3   OH233067   4.021   3.225   0.657 -0.4530  0.0106 -0.6398
 3811TIP3    H133068   3.937   3.267   0.639 -0.5956  0.5512  1.1529
 3811TIP3    H233069   4.009   3.134   0.629 -0.6960  0.6954 -2.9562
 3812TIP3   OH233070   2.447   5.270   1.212 -1.1405 -0.3406 -0.1562
 3812TIP3    H133071   2.443   5.211   1.287 -1.9222 -0.2237 -0.0915
 3812TIP3    H233072   2.460   5.212   1.137 -3.8655 -0.8591 -0.3390
 3813TIP3   OH233073   4.477   5.678   0.991  0.1689 -0.2024 -0.3228
 3813TIP3    H133074   4.476   5.760   0.943  1.9390  0.4057  0.5963
 3813TIP3    H233075   4.479   5.704   1.083  0.6293 -1.2613 -0.0129
 3814TIP3   OH233076   3.558   2.885   0.085 -0.5028  0.2541  0.4616
 3814TIP3    H133077   3.480   2.895   0.030 -0.4498  1.5819  0.6168
 3814TIP3    H233078   3.581   2.792   0.076 -2.9497 -0.5326  1.5853
 3815TIP3   OH233079   0.958   0.742   1.973  0.0198  0.5681  0.7278
 3815TIP3    H133080   0.997   0.829   1.972  2.3111 -0.3748  1.2328
 3815TIP3    H233081   0.916   0.735   2.060  1.0760  0.6731  1.2560
 3816TIP3   OH233082   2.902   0.273   0.446 -0.3346 -0.0521  0.0634
 3816TIP3    H133083   2.910   0.305   0.536  0.6132  3.1188 -1.0282
 3816TIP3    H233084   2.811   0.291   0.422 -0.8718 -1.8189  0.6417
 3817TIP3   OH233085   5.894   3.152   0.187 -0.2026  0.6952  0.0147
 3817TIP3    H133086   5.851   3.087   0.243 -1.4267  1.0857 -0.4375
 3817TIP3    H233087   5.942   3.100   0.122  2.3428  0.2002  2.1407
 3818TIP3   OH233088   4.594   3.927   0.414  0.0113  0.3168 -0.1237
 3818TIP3    H133089   4.498   3.924   0.419  0.0844  0.1671  2.1788
 3818TIP3    H233090   4.614   4.017   0.386 -0.8092  0.9885  1.3037
 3819TIP3   OH233091   5.642   6.142   8.168  0.2485  0.0563  0.3459
 3819TIP3    H133092   5.626   6.236   8.177 -0.4317  0.0313 -0.4002
 3819TIP3    H233093   5.707   6.122   8.234 -1.3425  0.6064  2.1726
 3820TIP3   OH233094   1.075   2.966   1.483 -0.2094 -0.2416  0.1788
 3820TIP3    H133095   1.003   3.024   1.462 -0.4796 -0.3229  0.8426
 3820TIP3    H233096   1.110   2.938   1.398 -1.4318 -0.7974 -0.1627
 3821TIP3   OH233097   4.857   4.389   1.499 -0.1887  0.1790  0.6360
 3821TIP3    H133098   4.928   4.346   1.450  0.4519  1.1485  0.6838
 3821TIP3    H233099   4.794   4.319   1.517  1.6359 -1.1785  2.2602
 3822TIP3   OH233100   0.680   6.404   2.449  0.2288  0.3914 -0.0202
 3822TIP3    H133101   0.677   6.483   2.503 -0.6518  2.2991 -2.6689
 3822TIP3    H233102   0.600   6.357   2.472 -1.1867  2.1924 -1.0112
 3823TIP3   OH233103   5.482   6.443   1.757 -0.2969  0.6504  0.2558
 3823TIP3    H133104   5.556   6.489   1.796  1.6809 -0.4312 -1.9564
 3823TIP3    H233105   5.438   6.509   1.704  0.7596  0.7266 -0.5641
 3824TIP3   OH233106   3.280   5.022   1.349  0.2750  0.0764 -0.0918
 3824TIP3    H133107   3.348   4.980   1.296 -0.3785  1.4397 -2.1134
 3824TIP3    H233108   3.209   4.958   1.351  0.7408 -0.4479  0.1476
 3825TIP3   OH233109   1.664   3.460   7.579 -0.2362 -0.5436  0.3671
 3825TIP3    H133110   1.611   3.535   7.550 -0.7580 -1.0284  0.0540
 3825TIP3    H233111   1.744   3.466   7.527 -0.3802 -0.3426  0.1659
 3826TIP3   OH233112   0.460   5.305   0.819  0.4991 -0.1355  0.3446
 3826TIP3    H133113   0.485   5.394   0.844  2.6696 -0.7426  0.5484
 3826TIP3    H233114   0.503   5.249   0.884 -0.7501 -1.3591  0.1617
 3827TIP3   OH233115   2.661   2.305   0.250 -0.3934  0.2425  0.0063
 3827TIP3    H133116   2.618   2.219   0.245  0.9372 -0.4281 -0.7166
 3827TIP3    H233117   2.745   2.291   0.205 -0.2812  2.0117 -0.3845
 3828TIP3   OH233118   4.504   5.370   1.265 -0.2308  0.0620 -0.5640
 3828TIP3    H133119   4.552   5.435   1.317 -1.2577  1.6862 -1.5748
 3828TIP3    H233120   4.537   5.382   1.176 -3.1478  1.9605 -1.5072
 3829TIP3   OH233121   3.381   3.699   0.898  0.5945  0.0425 -0.1381
 3829TIP3    H133122   3.357   3.623   0.951  0.5429  0.1934  0.0555
 3829TIP3    H233123   3.300   3.749   0.890  1.2122  1.6087  2.2312
 3830TIP3   OH233124   5.454   4.319   8.063 -0.3390  0.9596 -0.1632
 3830TIP3    H133125   5.505   4.395   8.035  0.2601  1.1487  1.3371
 3830TIP3    H233126   5.499   4.244   8.024  0.1927  1.2397 -0.0914
 3831TIP3   OH233127   5.377   4.240   2.070 -0.2553  0.3579  0.1557
 3831TIP3    H133128   5.370   4.334   2.055  1.6465  0.2827 -1.7223
 3831TIP3    H233129   5.305   4.202   2.019  0.6286  0.6811 -1.3916
 3832TIP3   OH233130   3.873   3.441   3.388 -0.3152 -0.3086 -0.2977
 3832TIP3    H133131   3.859   3.347   3.396 -0.6089 -0.4354 -1.9748
 3832TIP3    H233132   3.965   3.450   3.363  1.1397  0.1766  4.3947
 3833TIP3   OH233133   3.912   1.878   8.330 -0.1520 -0.0960  1.1444
 3833TIP3    H133134   3.823   1.903   8.305  1.2880  1.5815 -3.1403
 3833TIP3    H233135   3.937   1.942   8.397 -0.5724  2.8549 -1.3055
 3834TIP3   OH233136   5.258   1.754   2.506 -0.4113 -0.2430  0.0338
 3834TIP3    H133137   5.283   1.796   2.588 -1.9401  0.8403 -0.0210
 3834TIP3    H233138   5.177   1.708   2.527  0.1398 -1.4732 -0.4398
 3835TIP3   OH233139   2.002   1.516   8.885 -0.0015  0.0494 -0.0990
 3835TIP3    H133140   1.913   1.482   8.883 -0.0888  0.2722 -0.0540
 3835TIP3    H233141   2.038   1.485   8.969 -0.1875  0.3357  0.0886
 3836TIP3   OH233142   0.064   4.372   8.222 -0.6776  0.1685 -0.3086
 3836TIP3    H133143   0.131   4.427   8.263 -3.1047  4.2410 -1.2674
 3836TIP3    H233144   0.089   4.367   8.130 -1.3392  1.2864 -0.5718
 3837TIP3   OH233145   6.106   1.706   1.627  0.3032 -0.2966 -0.1469
 3837TIP3    H133146   6.051   1.778   1.659 -0.1590 -0.6679 -0.0997
 3837TIP3    H233147   6.195   1.731   1.652 -0.1345 -1.2289  2.7739
 3838TIP3   OH233148   0.457   4.418   1.216  0.3427  0.2785  0.3025
 3838TIP3    H133149   0.373   4.464   1.217 -0.0393 -0.4263  0.6290
 3838TIP3    H233150   0.492   4.434   1.128  0.9017  2.4170  0.8494
 3839TIP3   OH233151   6.779   5.102   0.847 -0.0265 -0.3118 -0.3407
 3839TIP3    H133152   6.866   5.072   0.819 -0.4355  0.1738 -2.2374
 3839TIP3    H233153   6.721   5.078   0.775 -0.5625  4.0625 -1.6604
 3840TIP3   OH233154   1.221   6.543   3.024  0.0291  0.4734 -0.3008
 3840TIP3    H133155   1.304   6.496   3.014  1.1826  2.1123  0.9243
 3840TIP3    H233156   1.177   6.500   3.097  0.2227  0.1586 -0.3681
 3841TIP3   OH233157   2.768   4.385   1.856  0.3462 -0.3701 -0.4547
 3841TIP3    H133158   2.847   4.409   1.808  1.2364 -1.0802  0.5740
 3841TIP3    H233159   2.707   4.356   1.789  0.6609  0.9494 -1.3426
 3842TIP3   OH233160   5.460   6.742   0.637  0.3173  0.2392  0.8519
 3842TIP3    H133161   5.439   6.831   0.666  0.4636  0.5543  0.0250
 3842TIP3    H233162   5.538   6.753   0.582  0.3646 -0.4086  0.7824
 3843TIP3   OH233163   4.368   6.516   1.877  0.3055  0.0436 -0.0287
 3843TIP3    H133164   4.408   6.496   1.961  0.7812 -2.3045 -0.7326
 3843TIP3    H233165   4.420   6.588   1.842  2.6163 -1.4793  0.0663
 3844TIP3   OH233166   5.279   4.097   1.139  0.0385 -0.1021 -0.5716
 3844TIP3    H133167   5.297   4.070   1.049 -0.0624  0.2284 -0.6920
 3844TIP3    H233168   5.187   4.076   1.152  0.8363 -3.6267  0.6845
 3845TIP3   OH233169   5.017   0.905   8.947 -0.0946  0.0260 -0.5692
 3845TIP3    H133170   5.059   0.820   8.942  1.5161  0.5524  2.1279
 3845TIP3    H233171   5.081   0.966   8.910  0.4111  0.4939  1.0206
 3846TIP3   OH233172   3.639   3.972   0.061  0.1185  0.1954  0.2826
 3846TIP3    H133173   3.607   3.883   0.078  1.8621 -0.1200  2.2476
 3846TIP3    H233174   3.704   3.961  -0.009  0.2038 -0.0448  0.3981
 3847TIP3   OH233175   6.773   4.040   8.120 -0.1529 -0.6292 -0.5894
 3847TIP3    H133176   6.839   4.089   8.071 -1.4308  0.9839 -0.7690
 3847TIP3    H233177   6.697   4.037   8.062 -0.7142 -1.2645  0.1529
 3848TIP3   OH233178   5.434   4.711   7.476  0.5433  0.9687 -0.3693
 3848TIP3    H133179   5.517   4.749   7.504  0.7997  1.1535 -1.3761
 3848TIP3    H233180   5.372   4.784   7.477 -0.2828  0.4047  2.8012
 3849TIP3   OH233181   5.969   2.923   3.350 -0.2992  0.4583 -0.4205
 3849TIP3    H133182   5.910   2.989   3.315 -0.8173  0.0706 -0.2849
 3849TIP3    H233183   5.927   2.892   3.431 -1.2994 -1.7461 -1.6895
 3850TIP3   OH233184   0.473   1.130   3.529 -0.0476 -0.0557 -0.0255
 3850TIP3    H133185   0.379   1.134   3.544  0.2665  2.4361  1.9748
 3850TIP3    H233186   0.501   1.222   3.531  2.2444 -0.6163 -2.0893
 3851TIP3   OH233187   6.003   6.704   8.231 -0.2326  0.1018  0.3449
 3851TIP3    H133188   6.078   6.739   8.183 -0.5199 -1.1587 -1.0901
 3851TIP3    H233189   5.992   6.615   8.198 -1.9347  0.0209  1.0145
 3852TIP3   OH233190   2.184   4.772   8.828  0.1965 -0.1567 -0.0551
 3852TIP3    H133191   2.267   4.805   8.865  1.1934 -0.3898 -1.9715
 3852TIP3    H233192   2.161   4.698   8.884  0.1089  1.1847  1.8052
 3853TIP3   OH233193   6.749   4.995   7.559 -0.3628 -0.2434  0.3355
 3853TIP3    H133194   6.673   5.042   7.527 -0.1716 -0.6375 -0.7289
 3853TIP3    H233195   6.761   4.923   7.497  0.8802 -0.1848  0.4740
 3854TIP3   OH233196   0.117   6.390   1.268 -0.1692 -0.1849 -0.2318
 3854TIP3    H133197   0.043   6.342   1.306  0.4499 -0.6567  0.3968
 3854TIP3    H233198   0.173   6.411   1.343  2.4413 -3.4525 -0.9924
 3855TIP3   OH233199   0.588   0.997   0.038  0.1850 -0.4482 -0.3310
 3855TIP3    H133200   0.521   1.023   0.101  2.7580 -0.9539  2.8926
 3855TIP3    H233201   0.603   1.076  -0.014 -0.2983  0.8714  1.4169
 3856TIP3   OH233202   6.635   3.488   8.188 -0.2839  0.3089  0.3791
 3856TIP3    H133203   6.712   3.468   8.136 -0.8240 -1.4499  0.1608
 3856TIP3    H233204   6.589   3.556   8.139  0.0387 -0.1696 -0.6108
 3857TIP3   OH233205   2.072   1.180   1.192 -0.3027 -0.5037  0.1304
 3857TIP3    H133206   2.148   1.193   1.248 -0.9853  1.2965  0.7086
 3857TIP3    H233207   2.053   1.267   1.156 -2.9329 -0.5505  1.1557
 3858TIP3   OH233208   1.037   6.519   8.880 -0.0186 -0.6894  0.3106
 3858TIP3    H133209   0.980   6.513   8.957  0.8878 -0.1367  1.0320
 3858TIP3    H233210   1.007   6.447   8.824 -2.5660  0.6129 -0.1246
 3859TIP3   OH233211   3.821   1.742   2.086  0.8218  0.2752  0.4728
 3859TIP3    H133212   3.785   1.766   2.172 -1.1401 -1.1790  0.1237
 3859TIP3    H233213   3.763   1.786   2.023  2.4699  1.6369 -0.1581
 3860TIP3   OH233214   3.928   4.647   1.576 -0.2557  0.0922  0.6513
 3860TIP3    H133215   3.901   4.616   1.662  2.6714 -0.3523  1.5040
 3860TIP3    H233216   3.989   4.718   1.594  0.3507  0.0501 -1.0537
 3861TIP3   OH233217   5.613   3.095   0.502 -0.3122 -0.2442  0.5144
 3861TIP3    H133218   5.633   3.179   0.462 -1.0161 -0.7486 -0.9638
 3861TIP3    H233219   5.611   3.113   0.596 -1.7061  1.6905  0.1809
 3862TIP3   OH233220   1.844   2.105   8.868  0.1347 -0.1140  0.1189
 3862TIP3    H133221   1.848   2.043   8.940 -0.0280  0.1851  0.3889
 3862TIP3    H233222   1.933   2.138   8.860  0.1692 -0.2035  0.1333
 3863TIP3   OH233223   6.274   0.278   0.615  0.7645 -0.0919  0.2585
 3863TIP3    H133224   6.187   0.317   0.625  0.9549  0.0724  1.3279
 3863TIP3    H233225   6.265   0.221   0.538  0.2005  1.2386 -0.6978
 3864TIP3   OH233226   0.397   4.250   3.299  0.1604  0.6878 -0.0287
 3864TIP3    H133227   0.443   4.166   3.309 -0.4936  0.0902 -1.6137
 3864TIP3    H233228   0.357   4.265   3.384 -0.3589 -1.0271  0.0825
 3865TIP3   OH233229   0.268   0.891   8.873 -0.0470 -0.3725 -0.7764
 3865TIP3    H133230   0.187   0.844   8.852  0.0763 -1.4875  1.0461
 3865TIP3    H233231   0.315   0.833   8.933  2.1433  0.2373 -1.7873
 3866TIP3   OH233232   0.869   5.147   3.375  0.1201 -0.0777  0.3155
 3866TIP3    H133233   0.859   5.053   3.389 -3.5949 -0.2018 -1.7574
 3866TIP3    H233234   0.895   5.155   3.284 -0.0882  0.8865  0.3279
 3867TIP3   OH233235   5.587   3.906   0.480 -0.2710  0.2448 -0.3767
 3867TIP3    H133236   5.578   3.892   0.574 -0.7514  1.3567 -0.2425
 3867TIP3    H233237   5.658   3.970   0.472  0.5993 -0.7500 -0.8540
 3868TIP3   OH233238   5.870   1.310   1.143 -0.3760 -0.3103 -0.7029
 3868TIP3    H133239   5.878   1.351   1.229  0.3938 -0.6270 -0.6149
 3868TIP3    H233240   5.915   1.225   1.153 -0.9417 -0.6734 -1.2020
 3869TIP3   OH233241   4.788   5.860   0.367  0.2523 -0.1646 -0.1490
 3869TIP3    H133242   4.779   5.782   0.422  0.1782 -0.3848 -0.4722
 3869TIP3    H233243   4.700   5.898   0.364  0.1677 -0.3803 -0.4494
 3870TIP3   OH233244   6.656   5.852   1.262 -0.4091 -0.1199  0.2457
 3870TIP3    H133245   6.722   5.803   1.312 -1.5480 -1.4457  0.5268
 3870TIP3    H233246   6.667   5.822   1.172 -1.0172 -0.8381  0.3961
 3871TIP3   OH233247   0.695   2.868   1.166 -0.0853 -0.0233  0.8827
 3871TIP3    H133248   0.735   2.816   1.235  1.0170  0.4440  0.6167
 3871TIP3    H233249   0.613   2.900   1.204 -0.4174 -1.3186  1.3038
 3872TIP3   OH233250   1.120   1.237   2.537 -0.5700  0.1595  0.0095
 3872TIP3    H133251   1.061   1.177   2.584 -0.8196 -1.1460 -1.8763
 3872TIP3    H233252   1.189   1.255   2.600 -1.2258 -1.0047  1.1261
 3873TIP3   OH233253   3.881   5.995   0.895  0.0487  0.0476 -0.4376
 3873TIP3    H133254   3.918   6.022   0.979  1.1832  1.1285 -1.2455
 3873TIP3    H233255   3.954   5.999   0.834 -0.8855 -0.1247 -1.6050
 3874TIP3   OH233256   0.298   2.378   2.434  0.3103  0.1553 -0.4871
 3874TIP3    H133257   0.383   2.388   2.475  0.4097  0.4291 -0.7545
 3874TIP3    H233258   0.272   2.467   2.409 -0.8701  0.3305  1.2023
 3875TIP3   OH233259   1.998   5.647   2.370 -0.3684 -0.4477  0.3353
 3875TIP3    H133260   2.087   5.611   2.371  0.3201  1.1925  1.2480
 3875TIP3    H233261   1.996   5.705   2.294  0.1298  1.2931  1.5941
 3876TIP3   OH233262   6.664   3.235   0.825 -0.2078  0.0296  0.1383
 3876TIP3    H133263   6.716   3.315   0.828  0.3620 -0.3422  0.4500
 3876TIP3    H233264   6.639   3.226   0.733  0.2718  0.2196 -0.0147
 3877TIP3   OH233265   6.146   4.824   2.208  0.0607 -0.4883  0.1110
 3877TIP3    H133266   6.059   4.863   2.221  1.0208  1.2236  1.8378
 3877TIP3    H233267   6.136   4.734   2.240 -1.3726 -0.7082 -0.8708
 3878TIP3   OH233268   3.778   2.259   0.945 -0.1077 -0.5724 -0.0962
 3878TIP3    H133269   3.701   2.315   0.935 -0.7105 -1.2738  0.5196
 3878TIP3    H233270   3.815   2.252   0.857 -0.1812  0.5567 -0.2298
 3879TIP3   OH233271   5.300   4.593   0.805  0.1316  0.1172 -0.0877
 3879TIP3    H133272   5.330   4.518   0.858  0.3198 -0.3716 -0.8755
 3879TIP3    H233273   5.232   4.634   0.858  0.7824  0.0443  0.8446
 3880TIP3   OH233274   1.736   5.422   0.614  0.0758 -0.7068  0.0953
 3880TIP3    H133275   1.789   5.347   0.637  1.9412  0.1259 -1.2068
 3880TIP3    H233276   1.751   5.485   0.684  0.0588 -0.8302  0.2092
 3881TIP3   OH233277   4.882   6.570   7.741  0.1584 -0.2907  0.8632
 3881TIP3    H133278   4.964   6.598   7.782  0.3842  0.5087 -0.0745
 3881TIP3    H233279   4.910   6.510   7.672 -0.1755 -1.2379  1.5394
 3882TIP3   OH233280   2.860   6.118   1.970  0.7214  0.1049 -0.1427
 3882TIP3    H133281   2.856   6.133   2.065  0.8941  1.6404 -0.3596
 3882TIP3    H233282   2.846   6.024   1.961  1.2542 -0.1595  1.4392
 3883TIP3   OH233283   1.090   0.317   0.979 -0.4685 -0.2253 -0.1466
 3883TIP3    H133284   1.169   0.370   0.962 -0.6922 -0.1559 -1.0574
 3883TIP3    H233285   1.066   0.339   1.069  0.3346  0.0430  0.0200
 3884TIP3   OH233286   2.350   5.513   7.359 -0.7191 -0.0430  0.0006
 3884TIP3    H133287   2.315   5.580   7.301 -2.4126 -0.4654  0.4752
 3884TIP3    H233288   2.418   5.558   7.410 -0.5207  0.7981 -0.9853
 3885TIP3   OH233289   2.262   3.137   1.754 -0.0619  0.9194  0.5503
 3885TIP3    H133290   2.251   3.048   1.788 -1.4297 -0.5047 -3.1102
 3885TIP3    H233291   2.179   3.181   1.772 -0.2178  0.6797  0.4252
 3886TIP3   OH233292   5.092   5.958   0.549 -0.1253 -0.1077 -0.4819
 3886TIP3    H133293   5.138   5.985   0.469  0.4983 -1.1043 -0.4771
 3886TIP3    H233294   5.037   6.033   0.571  0.7053  0.7059 -1.0870
 3887TIP3   OH233295   3.379   0.793   8.626  0.8773  0.0943  0.7929
 3887TIP3    H133296   3.414   0.871   8.584 -1.1951  0.5672 -0.1944
 3887TIP3    H233297   3.434   0.780   8.703  1.2818  2.5265  0.9789
 3888TIP3   OH233298   2.848   0.333   2.336 -0.0317 -0.2476 -0.4870
 3888TIP3    H133299   2.825   0.251   2.380 -0.7360 -0.8079 -1.8657
 3888TIP3    H233300   2.765   0.366   2.301  0.3831  0.6404 -0.6624
 3889TIP3   OH233301   2.955   0.849   2.436 -0.0843  0.0744  0.3911
 3889TIP3    H133302   2.979   0.756   2.439 -0.2252  0.0492  2.7725
 3889TIP3    H233303   2.990   0.886   2.517 -2.5461  1.4197  0.9664
 3890TIP3   OH233304   3.147   3.889   1.343 -0.2032 -0.5438 -0.3258
 3890TIP3    H133305   3.163   3.799   1.315 -0.5746 -0.1755 -1.8616
 3890TIP3    H233306   3.233   3.930   1.343 -0.3284 -0.1120 -2.7542
 3891TIP3   OH233307   4.176   3.748   0.451  0.0114 -0.1834  0.3345
 3891TIP3    H133308   4.218   3.745   0.536 -0.4566 -1.7615  0.5486
 3891TIP3    H233309   4.118   3.672   0.450 -1.2797  0.7716 -0.7397
 3892TIP3   OH233310   0.815   6.095   2.923 -0.0828 -0.7571 -0.1501
 3892TIP3    H133311   0.858   6.138   2.997  0.5927  0.1373 -1.0240
 3892TIP3    H233312   0.869   6.120   2.847 -0.8449 -1.5181 -0.9610
 3893TIP3   OH233313   0.175   1.531   0.059  0.0002 -0.2367  0.0469
 3893TIP3    H133314   0.098   1.575   0.095  0.9240  1.1217  0.4407
 3893TIP3    H233315   0.189   1.574  -0.026  0.4862 -0.2982  0.0957
 3894TIP3   OH233316   4.566   2.808   3.062  0.1701 -0.1707  0.5893
 3894TIP3    H133317   4.570   2.892   3.016 -0.7234 -0.6359 -0.3482
 3894TIP3    H233318   4.481   2.809   3.106 -0.7734 -1.4214 -1.1001
 3895TIP3   OH233319   2.716   4.283   2.777  0.1101  0.9192 -0.4014
 3895TIP3    H133320   2.638   4.333   2.752  0.2774  0.9081 -0.9508
 3895TIP3    H233321   2.681   4.204   2.819 -0.1579  1.4280  0.3679
 3896TIP3   OH233322   4.516   5.221   8.967  0.0331  0.3529  0.0758
 3896TIP3    H133323   4.477   5.272   8.896  0.6686  1.9780  0.8486
 3896TIP3    H233324   4.460   5.240   9.043  0.4224  0.0830  0.4305
 3897TIP3   OH233325   6.172   0.781   0.039  0.1273 -0.4819 -0.3805
 3897TIP3    H133326   6.083   0.748   0.053  1.1016 -2.4611  1.9869
 3897TIP3    H233327   6.200   0.740  -0.043 -0.5633 -1.2505 -0.2479
 3898TIP3   OH233328   3.828   1.079   7.826 -0.8667  0.2120  0.3482
 3898TIP3    H133329   3.760   1.124   7.775  0.0115  1.1897 -0.0130
 3898TIP3    H233330   3.842   1.135   7.902  0.2225  0.5660 -0.0907
 3899TIP3   OH233331   0.512   1.102   2.475  0.2381  0.2362 -0.2990
 3899TIP3    H133332   0.521   1.007   2.485 -0.2614  0.1465 -0.6405
 3899TIP3    H233333   0.518   1.136   2.565  0.3615 -0.1243 -0.1692
 3900TIP3   OH233334   6.106   5.794   2.246  0.0411  0.2402  0.2858
 3900TIP3    H133335   6.111   5.857   2.318  0.8567  1.6041 -0.9275
 3900TIP3    H233336   6.158   5.719   2.276  2.0643  1.6043  0.3493
 3901TIP3   OH233337   6.033   2.620   3.183  0.3411  0.0907  0.1405
 3901TIP3    H133338   5.991   2.561   3.246  0.4416  0.8217  0.9092
 3901TIP3    H233339   6.047   2.566   3.106 -0.9551 -0.4822  0.2812
 3902TIP3   OH233340   4.972   2.141   2.471  0.1567  0.0992  0.2337
 3902TIP3    H133341   5.065   2.161   2.475  1.2193 -3.7463 -1.3324
 3902TIP3    H233342   4.952   2.103   2.557 -0.2174  1.5102  0.8057
 3903TIP3   OH233343   5.735   5.688   1.304  0.0494  0.4077 -0.5798
 3903TIP3    H133344   5.779   5.770   1.327  0.3833 -0.3579  1.8555
 3903TIP3    H233345   5.807   5.624   1.299 -0.5391 -0.5846  2.0870
 3904TIP3   OH233346   6.431   4.630   3.034 -0.5975  0.2179  0.0696
 3904TIP3    H133347   6.356   4.689   3.027 -0.7138 -0.0907 -1.7782
 3904TIP3    H233348   6.396   4.544   3.013 -0.1288 -0.3046  1.3096
 3905TIP3   OH233349   1.429   3.523   7.902  0.8155  0.0395  0.8383
 3905TIP3    H133350   1.484   3.445   7.894  0.6532 -0.0164  0.2745
 3905TIP3    H233351   1.467   3.585   7.841 -1.6590 -1.1065 -2.1205
 3906TIP3   OH233352   3.404   4.092   0.991  0.0254  0.0779 -0.2142
 3906TIP3    H133353   3.476   4.151   1.014  0.7839 -1.1588  0.7570
 3906TIP3    H233354   3.435   4.045   0.914  0.4852 -0.7676  0.4613
 3907TIP3   OH233355   2.128   3.025   7.181 -0.0318 -0.0377  0.3531
 3907TIP3    H133356   2.145   3.119   7.174  0.1957 -0.0827  0.3093
 3907TIP3    H233357   2.037   3.015   7.151  0.2351  0.0496 -0.5246
 3908TIP3   OH233358   3.573   2.831   2.749  0.1785  0.1628 -0.0990
 3908TIP3    H133359   3.640   2.830   2.816  0.9553  0.3185 -0.8535
 3908TIP3    H233360   3.504   2.773   2.782  1.1288 -0.7997  0.2472
 3909TIP3   OH233361   1.470   6.400   1.986 -0.4288  0.6323  0.2366
 3909TIP3    H133362   1.504   6.333   2.045  2.7711 -0.8029 -2.8433
 3909TIP3    H233363   1.413   6.352   1.926 -0.3164  1.2326 -0.3633
 3910TIP3   OH233364   0.358   1.707   0.184 -0.3950  0.3651 -0.1596
 3910TIP3    H133365   0.327   1.624   0.148  1.2088 -0.0476 -0.6645
 3910TIP3    H233366   0.375   1.761   0.107  0.3587  0.4843  0.0801
 3911TIP3   OH233367   3.553   0.144   8.755 -0.4942  0.3460 -0.1026
 3911TIP3    H133368   3.527   0.198   8.680  1.6254  0.2129 -1.0264
 3911TIP3    H233369   3.540   0.201   8.831 -2.1070  0.7042 -0.6109
 3912TIP3   OH233370   6.086   4.224   1.060  0.2533  0.1996 -0.5139
 3912TIP3    H133371   6.078   4.139   1.104  0.1925  0.5170  0.0969
 3912TIP3    H233372   6.000   4.238   1.020  0.3727 -0.1849 -0.9220
 3913TIP3   OH233373   2.720   4.990   2.695 -0.4371  0.2994  0.0160
 3913TIP3    H133374   2.704   5.003   2.789  0.8279  1.2814  0.1143
 3913TIP3    H233375   2.640   4.948   2.663 -0.8275 -0.1806  1.5575
 3914TIP3   OH233376   1.023   2.462   2.900 -0.4555  0.2317 -0.3127
 3914TIP3    H133377   0.972   2.502   2.970  1.8151  1.2693  0.8255
 3914TIP3    H233378   1.035   2.532   2.836  1.9256  0.9296  0.8006
 3915TIP3   OH233379   5.039   5.793   8.213  0.1189 -0.1893 -0.0163
 3915TIP3    H133380   5.066   5.879   8.244  2.0888 -0.2911 -1.2669
 3915TIP3    H233381   5.065   5.791   8.121 -1.7872 -1.3901 -0.6029
 3916TIP3   OH233382   4.729   3.537   0.750  0.4435 -0.5161 -0.1992
 3916TIP3    H133383   4.765   3.538   0.661  2.1418 -0.3274  0.4472
 3916TIP3    H233384   4.666   3.609   0.751  2.2938  1.2019 -0.5548
 3917TIP3   OH233385   6.490   2.785   7.812  0.2040 -0.2255 -0.1908
 3917TIP3    H133386   6.568   2.733   7.831 -0.0268 -1.6277 -2.7081
 3917TIP3    H233387   6.520   2.854   7.753 -0.2997 -0.1685 -0.3884
 3918TIP3   OH233388   6.763   6.127   1.188  0.0886 -1.0014  0.0497
 3918TIP3    H133389   6.709   6.204   1.172  1.9062  0.5319  0.9257
 3918TIP3    H233390   6.732   6.094   1.272 -0.9881 -1.5242 -0.5323
 3919TIP3   OH233391   3.672   1.517   8.773  0.0770  0.3885 -0.3302
 3919TIP3    H133392   3.663   1.612   8.765  0.6762  0.4131 -0.8455
 3919TIP3    H233393   3.587   1.482   8.746  0.3963  0.7165 -1.8311
 3920TIP3   OH233394   6.436   4.849   2.813  0.6255  0.2462 -0.1913
 3920TIP3    H133395   6.433   4.788   2.739 -0.2846 -0.0326  0.0687
 3920TIP3    H233396   6.354   4.835   2.860  1.1667  0.4477  0.8567
 3921TIP3   OH233397   2.382   2.457   0.551 -0.7587 -0.4368  0.0459
 3921TIP3    H133398   2.338   2.433   0.470  0.7419 -0.3536 -0.8263
 3921TIP3    H233399   2.472   2.475   0.525 -0.6913  1.4651  1.4352
 3922TIP3   OH233400   2.826   0.684   1.658 -0.5979 -0.4422  0.4902
 3922TIP3    H133401   2.870   0.713   1.579  0.1085 -1.5699  0.4595
 3922TIP3    H233402   2.749   0.637   1.627 -1.4272  0.8117  0.5343
 3923TIP3   OH233403   5.984   2.134   8.568  0.4223  0.5985  1.2560
 3923TIP3    H133404   6.042   2.084   8.625  0.7608 -1.1712 -0.5105
 3923TIP3    H233405   5.982   2.084   8.486 -0.8281  2.4740  0.0534
 3924TIP3   OH233406   3.190   1.621   2.594  0.4684 -0.3483 -0.0932
 3924TIP3    H133407   3.196   1.538   2.642  1.0206 -1.1750 -1.5179
 3924TIP3    H233408   3.097   1.642   2.593 -0.0110 -2.2196 -1.7008
 3925TIP3   OH233409   6.526   2.150   1.546  0.2552  0.2150  0.5321
 3925TIP3    H133410   6.516   2.245   1.534 -1.1803  0.1783  1.2504
 3925TIP3    H233411   6.447   2.113   1.507  0.6176 -0.6754  0.6225
 3926TIP3   OH233412   0.811   3.362   8.835  0.5451 -0.1759  0.0279
 3926TIP3    H133413   0.812   3.297   8.764 -0.7015  1.2537 -1.3752
 3926TIP3    H233414   0.869   3.432   8.805  0.6862  0.0613  0.8222
 3927TIP3   OH233415   0.513   1.664   8.250 -0.2170 -0.3407 -0.7463
 3927TIP3    H133416   0.563   1.643   8.171 -1.6846 -0.0411 -1.7907
 3927TIP3    H233417   0.530   1.590   8.309 -0.5270 -1.4861 -2.0426
 3928TIP3   OH233418   2.051   2.401   2.347  0.3060 -0.1288 -0.1646
 3928TIP3    H133419   2.064   2.355   2.265 -1.0177 -1.9234  0.5549
 3928TIP3    H233420   2.012   2.336   2.405 -0.6655  1.6241  1.2701
 3929TIP3   OH233421   5.571   0.656   0.716 -0.1518  0.1659 -0.2664
 3929TIP3    H133422   5.600   0.622   0.632  1.1347 -0.3647  0.3629
 3929TIP3    H233423   5.481   0.625   0.726  0.2005 -1.0541 -0.7631
 3930TIP3   OH233424   0.883   1.926   1.476  0.0068  0.0200 -0.4223
 3930TIP3    H133425   0.795   1.965   1.469 -0.7812 -1.7373 -0.9091
 3930TIP3    H233426   0.909   1.942   1.566 -1.7020 -1.1651  0.3361
 3931TIP3   OH233427   4.494   6.334   8.319  0.6580  0.0328 -0.1669
 3931TIP3    H133428   4.399   6.329   8.317  0.7118 -1.7299 -0.2091
 3931TIP3    H233429   4.521   6.266   8.381  1.8861  0.5575 -0.0868
 3932TIP3   OH233430   0.413   4.994   0.069 -0.0644 -0.4150 -0.3644
 3932TIP3    H133431   0.483   4.935   0.038 -0.5596 -0.7127 -0.9418
 3932TIP3    H233432   0.407   4.977   0.163  1.4432  0.4638 -0.0699
 3933TIP3   OH233433   0.771   6.637   0.954  0.2153 -0.4316 -0.0916
 3933TIP3    H133434   0.740   6.725   0.934 -0.3571 -0.7097 -0.4700
 3933TIP3    H233435   0.827   6.614   0.880 -0.4558 -0.7674 -0.5105
 3934TIP3   OH233436   6.583   0.827   0.206  0.3057 -1.0647  0.3763
 3934TIP3    H133437   6.649   0.800   0.141  1.1904 -1.8985  1.5809
 3934TIP3    H233438   6.626   0.896   0.256 -0.9618  0.7352 -0.9176
 3935TIP3   OH233439   1.927   0.482   8.764 -0.2595 -0.2983 -0.5026
 3935TIP3    H133440   1.845   0.531   8.772  0.5231  0.9958  0.0729
 3935TIP3    H233441   1.965   0.513   8.682  0.0534 -0.2483 -0.3387
 3936TIP3   OH233442   2.149   4.329   2.521 -0.6140 -0.0877  0.1553
 3936TIP3    H133443   2.058   4.314   2.497 -0.6048  0.3278 -0.1571
 3936TIP3    H233444   2.144   4.375   2.605 -0.6919 -0.0189  0.1129
 3937TIP3   OH233445   2.860   2.082   1.669 -0.1537 -1.2968 -0.0825
 3937TIP3    H133446   2.805   2.134   1.611  1.4053  1.9480  1.0853
 3937TIP3    H233447   2.805   2.062   1.744 -0.2625  0.6906  0.4352
 3938TIP3   OH233448   3.063   0.446   3.154  0.4140 -0.0298  0.5276
 3938TIP3    H133449   3.018   0.510   3.098  1.3267  0.7303  0.6409
 3938TIP3    H233450   3.097   0.381   3.093  0.7696  0.4057  0.2498
 3939TIP3   OH233451   2.557   5.522   0.542 -0.0315  0.7667  0.3931
 3939TIP3    H133452   2.622   5.592   0.540 -0.1522  0.8899  0.6615
 3939TIP3    H233453   2.553   5.490   0.452  1.2618 -0.0323  0.5874
 3940TIP3   OH233454   0.693   3.795   0.913 -0.1364 -0.4102 -0.0353
 3940TIP3    H133455   0.661   3.885   0.914 -1.2040 -0.7555 -1.1476
 3940TIP3    H233456   0.729   3.781   1.001 -1.3307  0.6133  0.6450
 3941TIP3   OH233457   3.879   5.591   3.185  0.2839 -0.3376 -0.1672
 3941TIP3    H133458   3.958   5.539   3.171 -0.0024 -1.0138  0.6233
 3941TIP3    H233459   3.807   5.528   3.178 -0.3077  0.4735 -2.0964
 3942TIP3   OH233460   1.678   2.718   3.269  0.4210 -0.5953 -0.0969
 3942TIP3    H133461   1.617   2.787   3.297  1.4443 -0.3469  1.6427
 3942TIP3    H233462   1.758   2.735   3.319  1.7342 -1.2868 -1.8582
 3943TIP3   OH233463   0.782   5.937   3.325  0.3173 -0.0871 -0.6321
 3943TIP3    H133464   0.809   6.004   3.387  2.4966 -0.0330 -1.5657
 3943TIP3    H233465   0.857   5.878   3.319 -0.4430 -0.9740 -2.0137
 3944TIP3   OH233466   0.348   6.105   3.356  0.2841  0.1811  0.0766
 3944TIP3    H133467   0.382   6.139   3.439 -0.2023  0.2887  0.2398
 3944TIP3    H233468   0.268   6.058   3.381  0.6188 -0.5576 -0.2244
 3945TIP3   OH233469   2.921   0.286   8.403  0.1694  0.3826  0.0671
 3945TIP3    H133470   2.944   0.196   8.380  2.3252  1.0959 -0.8240
 3945TIP3    H233471   3.002   0.323   8.439 -0.7115  1.9469  0.5495
 3946TIP3   OH233472   3.288   0.659   1.793  0.0650  0.7224 -0.3064
 3946TIP3    H133473   3.273   0.730   1.855 -0.1850  1.2226 -0.9215
 3946TIP3    H233474   3.205   0.611   1.791 -0.5595  1.7971 -1.5946
 3947TIP3   OH233475   0.164   3.661   2.404 -0.0389  0.0540 -0.0281
 3947TIP3    H133476   0.198   3.734   2.352  0.9946  0.2548  0.8890
 3947TIP3    H233477   0.183   3.583   2.352 -0.3668  0.3662 -0.6205
 3948TIP3   OH233478   6.214   3.200   2.014 -0.0764 -0.3379 -0.0039
 3948TIP3    H133479   6.203   3.292   1.990  3.5345  0.3378  0.4293
 3948TIP3    H233480   6.190   3.152   1.935 -4.0293  0.6658  0.3481
 3949TIP3   OH233481   3.849   1.442   8.966  0.0821 -0.6475  0.3915
 3949TIP3    H133482   3.786   1.472   9.031 -0.6792 -1.1875 -0.0874
 3949TIP3    H233483   3.806   1.456   8.881  1.1795  0.3554 -0.0466
 3950TIP3   OH233484   1.682   0.190   2.163  0.1515 -0.6058 -0.0720
 3950TIP3    H133485   1.616   0.179   2.231 -2.8310  0.8728 -2.4694
 3950TIP3    H233486   1.733   0.267   2.191 -2.3464  1.2629 -0.3346
 3951TIP3   OH233487   2.094   6.093   7.579  0.1593  0.4307 -0.1744
 3951TIP3    H133488   2.007   6.112   7.613  0.6061  1.3359  0.5288
 3951TIP3    H233489   2.081   6.081   7.485 -0.9435 -1.0282  0.1309
 3952TIP3   OH233490   5.028   0.264   8.962 -0.4859  0.1644  0.1880
 3952TIP3    H133491   5.010   0.186   8.910 -0.2206  1.0764 -1.3413
 3952TIP3    H233492   4.956   0.269   9.025  0.1401 -1.9581  1.1704
 3953TIP3   OH233493   1.339   0.758   8.471 -0.2314  0.0367 -0.4201
 3953TIP3    H133494   1.425   0.718   8.486 -0.7477 -1.3844 -1.0177
 3953TIP3    H233495   1.347   0.801   8.385  0.0451  0.3867 -0.2199
 3954TIP3   OH233496   1.563   5.702   1.962 -0.2731 -0.2573  0.1026
 3954TIP3    H133497   1.564   5.793   1.993  0.1855 -0.5142  0.8568
 3954TIP3    H233498   1.583   5.650   2.039  2.3011 -0.8454 -0.8384
 3955TIP3   OH233499   6.182   4.272   8.840  0.0437  0.7313 -0.2837
 3955TIP3    H133500   6.255   4.252   8.900  0.3911  0.9276 -0.6335
 3955TIP3    H233501   6.104   4.260   8.893  0.3092 -0.0042 -0.0466
 3956TIP3   OH233502   6.713   2.089   1.333  0.1487 -0.4337  0.0643
 3956TIP3    H133503   6.656   2.118   1.403 -0.1599  0.2789 -0.4684
 3956TIP3    H233504   6.766   2.166   1.311  0.3308 -0.6850 -0.4005
 3957TIP3   OH233505   2.860   1.272   8.251  0.5660 -0.0382  0.2458
 3957TIP3    H133506   2.810   1.223   8.316  1.0733 -2.0548 -0.7754
 3957TIP3    H233507   2.890   1.205   8.190  1.7011  1.5446 -1.0073
 3958TIP3   OH233508   1.983   1.125   2.435 -0.3024  0.3465 -0.4561
 3958TIP3    H133509   1.944   1.052   2.483  0.8270 -1.0552 -1.5788
 3958TIP3    H233510   2.050   1.160   2.493 -1.1545  0.8138  0.2673
 3959TIP3   OH233511   1.411   6.340   8.692  0.0781  0.2493 -0.4277
 3959TIP3    H133512   1.380   6.293   8.769 -0.5393 -0.1875 -0.9400
 3959TIP3    H233513   1.497   6.302   8.674  0.5255  0.8163  0.4319
 3960TIP3   OH233514   4.814   4.802   7.217 -0.3104  0.0250  0.1306
 3960TIP3    H133515   4.813   4.898   7.206 -2.1668 -0.0104 -0.2396
 3960TIP3    H233516   4.748   4.785   7.284 -1.3181 -1.1301 -1.1190
 3961TIP3   OH233517   4.649   4.969   0.077 -0.4210  0.4517 -0.6895
 3961TIP3    H133518   4.701   4.906   0.027  0.1727  0.5792 -0.2447
 3961TIP3    H233519   4.598   5.015   0.011 -2.6285 -2.0420 -0.8592
 3962TIP3   OH233520   3.062   1.691   2.894  0.2515 -0.6173 -0.5313
 3962TIP3    H133521   3.115   1.725   2.966 -1.5896  0.4696  0.3876
 3962TIP3    H233522   3.102   1.607   2.871  2.4475  0.2460 -0.0484
 3963TIP3   OH233523   0.414   0.216   0.789  0.0885  0.5165  0.6449
 3963TIP3    H133524   0.347   0.281   0.768 -0.3726 -0.1573 -0.0418
 3963TIP3    H233525   0.407   0.151   0.719  2.1620  0.9426 -0.0327
 3964TIP3   OH233526   1.589   4.491   8.497 -0.4279  0.1280  0.3942
 3964TIP3    H133527   1.608   4.401   8.473  0.3559  0.1781  0.8059
 3964TIP3    H233528   1.548   4.485   8.583  0.4346  0.2174  0.8186
 3965TIP3   OH233529   2.160   1.760   1.277 -0.0992  0.1418 -0.5420
 3965TIP3    H133530   2.185   1.762   1.369 -1.8199 -1.6210  0.0323
 3965TIP3    H233531   2.069   1.790   1.277 -0.3794 -0.6725 -1.5466
 3966TIP3   OH233532   6.150   2.920   8.506  0.0587  0.2256 -0.1271
 3966TIP3    H133533   6.134   2.850   8.443 -1.4438  2.3053 -2.2039
 3966TIP3    H233534   6.213   2.978   8.462 -1.9092  2.3362 -0.3437
 3967TIP3   OH233535   4.818   4.042   2.384 -0.5260  0.6120 -0.3280
 3967TIP3    H133536   4.854   4.123   2.347  1.9455  0.3630  1.3346
 3967TIP3    H233537   4.845   3.974   2.323  0.3554  0.6566 -0.0069
 3968TIP3   OH233538   4.192   1.774   2.284 -0.6243 -0.2981 -0.0448
 3968TIP3    H133539   4.156   1.856   2.318  1.1534  1.1254 -1.3409
 3968TIP3    H233540   4.206   1.719   2.361  1.4915  2.0301  1.3762
 3969TIP3   OH233541   4.275   1.636   1.516  0.0678 -0.0578  0.5581
 3969TIP3    H133542   4.198   1.678   1.552 -0.8022 -0.5996 -0.6048
 3969TIP3    H233543   4.287   1.557   1.569 -1.2754 -0.9175 -0.3489
 3970TIP3   OH233544   2.156   2.837   2.863  0.4941  0.3793 -0.6748
 3970TIP3    H133545   2.076   2.884   2.839 -0.5701 -0.7190  0.5255
 3970TIP3    H233546   2.212   2.903   2.903 -0.7591  0.7687  0.5160
 3971TIP3   OH233547   0.671   2.200   8.251 -0.8592  0.2058  0.3428
 3971TIP3    H133548   0.661   2.289   8.285 -1.4684  0.8320 -1.3671
 3971TIP3    H233549   0.587   2.181   8.209  0.2393  0.0025 -1.8904
 3972TIP3   OH233550   0.711   5.890   0.432 -0.6362  0.4559 -0.4678
 3972TIP3    H133551   0.750   5.815   0.476 -0.3445  0.5383 -0.5817
 3972TIP3    H233552   0.783   5.953   0.426 -0.8550  0.7054 -0.4577
 3973TIP3   OH233553   5.399   1.854   1.219  0.8440  0.3806 -0.3078
 3973TIP3    H133554   5.341   1.781   1.241  0.3337  0.8628 -0.0208
 3973TIP3    H233555   5.487   1.817   1.221  0.6290 -0.1109  0.3294
 3974TIP3   OH233556   5.151   1.371   3.485 -0.0681 -0.3491 -0.2540
 3974TIP3    H133557   5.219   1.334   3.542  0.1861  0.0892 -0.2659
 3974TIP3    H233558   5.166   1.465   3.489 -0.1382 -0.3086 -0.9388
 3975TIP3   OH233559   5.830   2.559   8.482  0.3942 -0.2001  0.9077
 3975TIP3    H133560   5.803   2.478   8.523 -2.0073 -0.6496 -1.2674
 3975TIP3    H233561   5.908   2.536   8.432  0.9316 -0.6265  1.9236
 3976TIP3   OH233562   6.720   1.423   2.007 -0.1376  0.3438 -0.4966
 3976TIP3    H133563   6.800   1.457   2.046 -0.4672  1.5965 -0.8704
 3976TIP3    H233564   6.669   1.391   2.082  0.9991 -1.1432 -0.3278
 3977TIP3   OH233565   5.302   3.424   1.836  1.1639  0.4648 -0.0557
 3977TIP3    H133566   5.277   3.363   1.905  1.0397  1.8136  1.1394
 3977TIP3    H233567   5.380   3.469   1.870  0.4374  1.9500 -0.2684
 3978TIP3   OH233568   5.192   2.943   7.530  0.2651  0.3765 -0.4467
 3978TIP3    H133569   5.243   3.024   7.533  1.0942 -0.1342 -0.3538
 3978TIP3    H233570   5.101   2.972   7.537  0.5245  1.3231 -0.8142
 3979TIP3   OH233571   0.905   1.778   0.348  0.6090 -0.5636  0.0148
 3979TIP3    H133572   0.867   1.694   0.321  0.8521 -0.9802  0.9377
 3979TIP3    H233573   0.877   1.789   0.439  2.5508 -0.8086  0.6819
 3980TIP3   OH233574   6.598   3.200   0.565 -0.1433  0.3519 -0.0795
 3980TIP3    H133575   6.632   3.274   0.514  1.2805 -0.3544 -0.2202
 3980TIP3    H233576   6.659   3.129   0.546 -1.6816 -0.9870 -0.2322
 3981TIP3   OH233577   2.391   3.976   0.883 -0.6148  0.2345 -0.5174
 3981TIP3    H133578   2.471   3.943   0.924  0.0092  0.6029 -1.4117
 3981TIP3    H233579   2.320   3.944   0.939  0.2381  1.2832  1.2621
 3982TIP3   OH233580   1.599   1.440   2.344  0.6967 -0.3361  0.1051
 3982TIP3    H133581   1.649   1.492   2.281  0.1400  0.7711  0.5582
 3982TIP3    H233582   1.627   1.350   2.327  1.1705  0.0237 -1.1539
 3983TIP3   OH233583   5.753   6.284   8.801  0.1655  0.1475  0.1486
 3983TIP3    H133584   5.776   6.268   8.892 -2.1473  0.4368  0.8326
 3983TIP3    H233585   5.709   6.204   8.772  2.5607 -0.7462 -1.4081
 3984TIP3   OH233586   6.712   3.518   8.482 -0.3332 -1.0762  0.1848
 3984TIP3    H133587   6.710   3.482   8.394 -0.4410 -0.5228 -0.0428
 3984TIP3    H233588   6.776   3.589   8.478 -3.3222  1.8679 -0.6259
 3985TIP3   OH233589   0.226   1.102   0.416 -0.0594  0.2151  0.2849
 3985TIP3    H133590   0.199   1.011   0.429 -1.8425  0.5158 -0.9438
 3985TIP3    H233591   0.284   1.099   0.340  0.3321  0.0594  0.5822
 3986TIP3   OH233592   6.340   3.702   1.808  0.4423  0.4393 -0.2576
 3986TIP3    H133593   6.305   3.742   1.888  0.2513  2.3893 -1.2441
 3986TIP3    H233594   6.364   3.777   1.753  1.2151 -0.8525 -1.7539
 3987TIP3   OH233595   6.600   5.081   2.399  0.5259  0.5621 -0.1036
 3987TIP3    H133596   6.623   5.170   2.423  1.4646  0.5405 -0.8724
 3987TIP3    H233597   6.546   5.050   2.471  0.0086  1.8195  0.0719
 3988TIP3   OH233598   2.079   1.626   3.018 -0.4202  0.2168 -0.0499
 3988TIP3    H133599   2.130   1.684   3.074  1.1789 -2.3160  1.3055
 3988TIP3    H233600   2.131   1.620   2.937  1.2089 -1.7550  1.0396
 3989TIP3   OH233601   5.433   4.081   7.418 -0.6666 -0.8450  0.2085
 3989TIP3    H133602   5.364   4.038   7.468 -2.2027 -1.1069 -1.9608
 3989TIP3    H233603   5.477   4.009   7.372  0.3192 -0.5646  0.6878
 3990TIP3   OH233604   2.859   5.828   3.213 -0.0759 -0.1197 -0.3950
 3990TIP3    H133605   2.784   5.816   3.156 -1.5670  2.6257  0.8050
 3990TIP3    H233606   2.847   5.764   3.283 -2.8618  1.8447  1.1441
 3991TIP3   OH233607   3.698   4.501   8.015 -0.1149 -0.8791 -0.2888
 3991TIP3    H133608   3.632   4.549   8.065  0.9739 -1.2172  1.5749
 3991TIP3    H233609   3.654   4.478   7.933 -2.6056 -1.7869  1.1902
 3992TIP3   OH233610   5.137   4.753   1.025 -0.3286 -0.4021  0.5150
 3992TIP3    H133611   5.071   4.711   0.970 -1.7706  0.6119  1.4167
 3992TIP3    H233612   5.189   4.680   1.059  0.0441 -1.1139 -1.4253
 3993TIP3   OH233613   2.347   6.088   0.303 -0.3244  0.0971 -0.2023
 3993TIP3    H133614   2.425   6.089   0.248 -0.6137 -0.9501 -0.6527
 3993TIP3    H233615   2.275   6.109   0.243 -0.4489  0.6001  0.1167
 3994TIP3   OH233616   6.657   4.459   0.045  0.8364  0.5800  0.3291
 3994TIP3    H133617   6.596   4.507   0.101  0.4822  0.0910  0.3727
 3994TIP3    H233618   6.664   4.512  -0.034 -1.3446 -0.3841 -0.5949
 3995TIP3   OH233619   4.220   1.975   8.108 -0.3526 -0.0522  0.4414
 3995TIP3    H133620   4.260   2.059   8.132 -0.3475 -0.0535  0.4377
 3995TIP3    H233621   4.291   1.925   8.070 -0.7878  0.7109 -1.5051
 3996TIP3   OH233622   0.799   5.911   2.069 -0.0302 -0.7821  0.3197
 3996TIP3    H133623   0.791   5.822   2.105 -1.2800 -0.0243  2.0363
 3996TIP3    H233624   0.791   5.899   1.975 -1.2078 -2.4246  0.5767
 3997TIP3   OH233625   6.704   2.999   2.858  0.0550 -0.4741  0.1051
 3997TIP3    H133626   6.710   3.048   2.940  0.9573 -1.9241  0.9500
 3997TIP3    H233627   6.701   2.907   2.885 -1.4295 -0.9352 -1.4286
 3998TIP3   OH233628   1.455   6.273   8.384 -0.5220 -0.2948  0.0986
 3998TIP3    H133629   1.548   6.260   8.400 -0.5855 -1.5455 -0.4148
 3998TIP3    H233630   1.451   6.335   8.311 -0.1341  0.7296  0.9264
 3999TIP3   OH233631   2.668   2.945   0.853  0.0266  0.2823 -0.1614
 3999TIP3    H133632   2.662   2.944   0.757  2.7334  1.8184 -0.4452
 3999TIP3    H233633   2.709   2.861   0.875  1.1459  0.7238 -0.5394
 4000TIP3   OH233634   3.791   2.152   1.630  0.4284  0.0658 -0.1598
 4000TIP3    H133635   3.854   2.100   1.680  0.5369  0.1143 -0.2485
 4000TIP3    H233636   3.805   2.242   1.659  1.4089  0.2795 -1.2567
 4001TIP3   OH233637   4.030   6.257   1.596 -0.7482 -0.3993 -0.2136
 4001TIP3    H133638   4.077   6.332   1.633 -1.6882  0.1269 -0.0705
 4001TIP3    H233639   4.027   6.193   1.667 -0.7730 -0.1959 -0.0299
 4002TIP3   OH233640   4.234   1.543   8.396  0.2706 -0.0497  0.3721
 4002TIP3    H133641   4.150   1.543   8.443 -0.7249  0.7089 -1.3240
 4002TIP3    H233642   4.222   1.608   8.327  1.6528 -1.1763 -0.9691
 4003TIP3   OH233643   1.148   3.879   3.391  0.1544 -0.1616  0.0413
 4003TIP3    H133644   1.240   3.907   3.390  0.6689 -1.2213  3.7323
 4003TIP3    H233645   1.144   3.807   3.328  1.9688 -0.4076  0.1522
 4004TIP3   OH233646   0.166   5.872   8.457  0.1661  0.5378 -0.0839
 4004TIP3    H133647   0.187   5.846   8.547  0.0386 -0.8466 -0.4313
 4004TIP3    H233648   0.079   5.834   8.441 -0.5566  2.1514 -0.2700
 4005TIP3   OH233649   1.299   1.748   0.247 -0.0002  0.7430 -0.3258
 4005TIP3    H133650   1.301   1.701   0.164  0.4986  0.6406 -0.2560
 4005TIP3    H233651   1.231   1.704   0.298  0.2043  0.3326 -0.4010
 4006TIP3   OH233652   1.218   6.755   0.630 -0.1059 -0.0601 -0.1777
 4006TIP3    H133653   1.250   6.826   0.575 -1.0201  0.3878 -0.1557
 4006TIP3    H233654   1.222   6.790   0.719  1.4204 -0.8007  0.0802
 4007TIP3   OH233655   4.150   5.134   1.412  0.2685  0.0016 -0.1773
 4007TIP3    H133656   4.216   5.200   1.436 -0.2730  0.2098  0.8015
 4007TIP3    H233657   4.071   5.162   1.459 -0.0977 -1.0844 -0.1301
 4008TIP3   OH233658   6.440   3.061   7.959  0.4549 -0.1754  0.7929
 4008TIP3    H133659   6.482   3.070   7.874  1.7610  1.4575  1.5577
 4008TIP3    H233660   6.477   2.981   7.996  1.3840  0.1614  0.6173
 4009TIP3   OH233661   2.124   0.902   3.067 -0.2971  0.1627 -0.7028
 4009TIP3    H133662   2.053   0.960   3.038 -0.6041  0.5797  0.7801
 4009TIP3    H233663   2.080   0.831   3.113  0.1457 -0.6914 -1.5829
 4010TIP3   OH233664   3.140   5.659   2.017  0.5621 -0.3530  0.0054
 4010TIP3    H133665   3.211   5.723   2.027 -0.0342  0.3405 -0.0976
 4010TIP3    H233666   3.164   5.610   1.938 -0.4729  1.7759 -1.7155
 4011TIP3   OH233667   3.006   3.354   2.393 -0.0262 -0.5096 -0.2685
 4011TIP3    H133668   3.050   3.407   2.327 -0.4991  1.0883  0.6458
 4011TIP3    H233669   3.054   3.372   2.474 -0.8022 -0.7120  0.2473
 4012TIP3   OH233670   2.576   1.645   2.486  0.1545 -0.4401 -0.3136
 4012TIP3    H133671   2.501   1.626   2.430 -0.4246  2.8191 -0.8294
 4012TIP3    H233672   2.538   1.671   2.569  0.6312  1.3721 -0.6189
 4013TIP3   OH233673   5.552   0.723   1.426 -0.2924 -0.5096  0.3983
 4013TIP3    H133674   5.512   0.763   1.503  1.1760  0.8688  0.4914
 4013TIP3    H233675   5.508   0.764   1.351 -0.4114 -0.4594  0.4961
 4014TIP3   OH233676   0.208   0.463   1.163  0.4338  0.0335  0.0323
 4014TIP3    H133677   0.117   0.493   1.156 -0.2157 -1.4490  1.5521
 4014TIP3    H233678   0.239   0.497   1.247  0.7786 -0.7161  0.2177
 4015TIP3   OH233679   3.859   0.175   3.570 -0.2601 -0.4361 -0.4627
 4015TIP3    H133680   3.813   0.211   3.494 -0.6460 -1.0499 -0.5296
 4015TIP3    H233681   3.905   0.250   3.608 -2.3457  0.4918  0.3790
 4016TIP3   OH233682   1.505   6.582   8.847 -0.0379 -0.0396  0.0797
 4016TIP3    H133683   1.497   6.506   8.789 -0.3413  0.2502 -0.2658
 4016TIP3    H233684   1.447   6.562   8.920  0.2481 -0.3522  0.2236
 4017TIP3   OH233685   2.882   5.297   2.214 -0.1456  0.1190 -0.1381
 4017TIP3    H133686   2.951   5.362   2.199  1.3724 -1.0434  1.4488
 4017TIP3    H233687   2.803   5.338   2.178  1.0893  2.0562 -0.8219
 4018TIP3   OH233688   5.577   2.036   0.486  0.6183 -0.1063  0.0290
 4018TIP3    H133689   5.656   1.993   0.518  0.6371 -1.0921 -1.2550
 4018TIP3    H233690   5.509   1.969   0.492  0.1679  0.3366 -0.0470
 4019TIP3   OH233691   0.390   1.166   8.277  0.5188  0.4187  0.0015
 4019TIP3    H133692   0.310   1.116   8.258  0.1541  1.5751 -1.7515
 4019TIP3    H233693   0.447   1.149   8.202  1.3758  0.6964  0.5775
 4020TIP3   OH233694   4.130   6.356   8.928 -0.2448  0.6334  0.2059
 4020TIP3    H133695   4.194   6.406   8.979 -0.4329  0.5874  0.4888
 4020TIP3    H233696   4.085   6.422   8.874  0.1544  0.6440 -0.1170
 4021TIP3   OH233697   6.210   2.151   7.967 -0.1548  0.7967 -0.0094
 4021TIP3    H133698   6.293   2.185   7.934  1.3210 -1.5820  0.9476
 4021TIP3    H233699   6.233   2.106   8.048 -2.6788  1.4174  1.1491
 4022TIP3   OH233700   1.199   2.562   0.351 -0.5552 -0.6473  0.6252
 4022TIP3    H133701   1.142   2.511   0.294 -1.5685 -0.1365  1.1589
 4022TIP3    H233702   1.265   2.598   0.292 -2.5973  1.3524 -0.6101
 4023TIP3   OH233703   5.792   6.673   1.096 -0.5729 -0.0749  0.0105
 4023TIP3    H133704   5.868   6.712   1.052 -1.3132  1.9056  0.3728
 4023TIP3    H233705   5.829   6.599   1.145  1.3429  1.4536  1.0295
 4024TIP3   OH233706   0.891   0.692   8.944  0.4264 -0.2123  0.0358
 4024TIP3    H133707   0.834   0.655   8.877  0.5626 -0.5515  0.1058
 4024TIP3    H233708   0.975   0.648   8.932  1.0851  1.2423 -0.9335
 4025TIP3   OH233709   5.831   5.637   2.052  0.0384 -0.9675  0.2912
 4025TIP3    H133710   5.869   5.611   2.136 -1.3450 -0.4824  1.1149
 4025TIP3    H233711   5.737   5.644   2.070 -0.0510  1.3705 -0.6986
 4026TIP3   OH233712   4.142   2.846   1.690 -0.1737 -0.1272  0.2252
 4026TIP3    H133713   4.099   2.761   1.683 -1.8171  0.5826  1.1786
 4026TIP3    H233714   4.136   2.869   1.782  0.9753  0.6710  0.1264
 4027TIP3   OH233715   3.154   6.138   3.296 -0.1854  0.0900 -0.0919
 4027TIP3    H133716   3.218   6.139   3.225 -1.1330 -0.2033 -0.9918
 4027TIP3    H233717   3.070   6.128   3.251 -0.7274 -1.2390  1.1455
 4028TIP3   OH233718   4.349   0.138   0.050  0.0645 -0.0855  0.2112
 4028TIP3    H133719   4.362   0.141   0.145  1.3672  0.1728  0.0376
 4028TIP3    H233720   4.437   0.143   0.013 -0.5002  1.7805 -1.0521
 4029TIP3   OH233721   1.730   1.551   0.296  0.3618  0.6885  0.0226
 4029TIP3    H133722   1.641   1.533   0.326  0.2393  0.2138 -0.5974
 4029TIP3    H233723   1.787   1.521   0.367  0.0449  0.5507  0.2176
 4030TIP3   OH233724   1.569   4.468   0.584 -0.3791 -0.4303 -0.2799
 4030TIP3    H133725   1.561   4.554   0.625 -1.4117 -1.4762  1.8339
 4030TIP3    H233726   1.491   4.421   0.611 -0.3013 -1.7578 -2.1739
 4031TIP3   OH233727   6.222   4.569   0.173  0.1037 -0.2503 -0.2631
 4031TIP3    H133728   6.261   4.484   0.190  0.1998 -0.4921 -1.5878
 4031TIP3    H233729   6.158   4.581   0.243  0.9909 -0.8360  0.6601
 4032TIP3   OH233730   1.396   0.854   3.352 -0.4142  0.0931  0.3152
 4032TIP3    H133731   1.326   0.837   3.288 -0.6684  0.7221  0.4158
 4032TIP3    H233732   1.376   0.941   3.386 -0.2874 -0.2306  1.2621
 4033TIP3   OH233733   3.414   0.995   0.143 -0.2844 -0.2753  0.4629
 4033TIP3    H133734   3.478   1.063   0.124 -0.8617  0.0179 -0.4878
 4033TIP3    H233735   3.374   1.023   0.225  0.4030 -0.1679  0.7720
 4034TIP3   OH233736   4.011   2.881   0.081  0.0164 -0.2025  0.0543
 4034TIP3    H133737   4.032   2.874  -0.012  0.6345 -1.1560  0.2478
 4034TIP3    H233738   3.928   2.833   0.090  1.0340 -2.0082  0.3197
 4035TIP3   OH233739   2.827   5.687   1.620  0.2337 -0.1649 -0.8246
 4035TIP3    H133740   2.813   5.618   1.555  2.2413 -0.2665 -1.2263
 4035TIP3    H233741   2.922   5.702   1.618  0.3326  0.0403  1.8758
 4036TIP3   OH233742   5.115   6.478   2.736 -0.2867 -0.0085 -0.1583
 4036TIP3    H133743   5.132   6.534   2.812 -0.7748  0.4613 -0.3874
 4036TIP3    H233744   5.056   6.411   2.768  0.7938 -0.7853  0.2757
 4037TIP3   OH233745   1.280   4.395   7.888  0.1196 -0.3252  0.1352
 4037TIP3    H133746   1.274   4.380   7.794  0.4188  0.8424 -0.0838
 4037TIP3    H233747   1.190   4.398   7.918  0.0136 -0.1870 -0.1956
 4038TIP3   OH233748   5.732   5.709   0.296  0.2188 -0.3259 -0.6949
 4038TIP3    H133749   5.658   5.725   0.355  0.9864 -0.8417  0.4441
 4038TIP3    H233750   5.692   5.680   0.214 -0.8226 -1.2884  0.1297
 4039TIP3   OH233751   5.415   3.858   8.522 -0.6555  0.3801 -0.6149
 4039TIP3    H133752   5.377   3.852   8.610 -1.4150 -1.5467 -1.0316
 4039TIP3    H233753   5.419   3.768   8.491  1.0060  0.8730 -1.9990
 4040TIP3   OH233754   3.665   5.503   0.380  0.2152 -0.4585 -1.0621
 4040TIP3    H133755   3.727   5.538   0.444  1.6655 -1.6162 -1.7791
 4040TIP3    H233756   3.647   5.577   0.321  2.7753 -0.6506 -2.2116
 4041TIP3   OH233757   1.067   6.609   2.731  0.3409 -0.4077  0.2848
 4041TIP3    H133758   1.096   6.661   2.656  0.1881 -1.0277 -0.2061
 4041TIP3    H233759   1.123   6.638   2.803  2.2987 -1.6575 -0.6683
 4042TIP3   OH233760   1.488   2.999   2.827 -0.6512  0.0496  0.4462
 4042TIP3    H133761   1.452   2.955   2.750 -0.5183 -1.2317  1.0690
 4042TIP3    H233762   1.420   3.061   2.853 -1.0792 -0.1431 -0.1827
 4043TIP3   OH233763   3.796   0.277   0.485 -0.0871  0.4326  0.5387
 4043TIP3    H133764   3.887   0.305   0.496 -0.2074  0.4791  1.5172
 4043TIP3    H233765   3.753   0.351   0.441  0.0467  0.9797  1.3122
 4044TIP3   OH233766   0.404   3.138   0.414  0.3532  0.1943 -0.3082
 4044TIP3    H133767   0.462   3.120   0.339 -1.4061  0.0213 -1.6907
 4044TIP3    H233768   0.442   3.086   0.485  1.6525 -0.2571 -1.2710
 4045TIP3   OH233769   3.286   6.633   0.687  0.2104  0.1217  0.0539
 4045TIP3    H133770   3.370   6.656   0.648  0.8210 -0.4152  0.9965
 4045TIP3    H233771   3.293   6.539   0.707 -1.0728 -0.2215 -0.9416
 4046TIP3   OH233772   4.679   5.937   8.541 -0.3753  0.2978 -0.0244
 4046TIP3    H133773   4.672   6.032   8.545  0.4126  0.3542  0.1976
 4046TIP3    H233774   4.612   5.905   8.601 -0.0858  0.7381  0.5443
 4047TIP3   OH233775   0.236   6.004   1.979  0.1017  0.0180  0.2331
 4047TIP3    H133776   0.158   5.950   1.965  0.0183 -1.0271  3.7664
 4047TIP3    H233777   0.202   6.093   1.983 -0.1784  0.1319 -2.7081
 4048TIP3   OH233778   3.231   6.567   2.749  0.0816  0.0273 -0.5149
 4048TIP3    H133779   3.153   6.602   2.792 -1.0861  0.3296 -2.7533
 4048TIP3    H233780   3.251   6.487   2.798  0.1879  1.4341  1.9336
 4049TIP3   OH233781   5.317   4.513   7.624 -0.1726  0.3652 -0.7456
 4049TIP3    H133782   5.322   4.441   7.561  1.5273 -0.1124 -0.1321
 4049TIP3    H233783   5.378   4.578   7.591  0.7621  0.0961  0.3822
 4050TIP3   OH233784   1.340   5.272   0.822  0.5705  0.0232 -0.1641
 4050TIP3    H133785   1.392   5.240   0.895  1.6892  1.3936 -0.3356
 4050TIP3    H233786   1.251   5.279   0.857  0.7793 -0.8554  0.5818
 4051TIP3   OH233787   2.769   5.072   1.694  0.3941  0.4203 -0.2592
 4051TIP3    H133788   2.863   5.052   1.691  0.2363 -0.3202 -0.3647
 4051TIP3    H233789   2.753   5.097   1.785 -0.0697 -3.3809  0.8638
 4052TIP3   OH233790   2.065   4.704   2.595  0.2622 -0.0467  0.8877
 4052TIP3    H133791   2.096   4.654   2.520 -1.5611  1.3318 -0.9019
 4052TIP3    H233792   2.139   4.761   2.618  0.4029  0.4631 -0.7504
 4053TIP3   OH233793   0.128   6.249   2.013 -0.7055 -0.0815  0.2731
 4053TIP3    H133794   0.045   6.249   1.964 -0.7139  1.1250  0.2508
 4053TIP3    H233795   0.101   6.259   2.105 -0.6060 -0.3322  0.3304
 4054TIP3   OH233796   6.043   6.190   7.997  0.4888 -0.1049  0.1919
 4054TIP3    H133797   6.044   6.227   7.908  2.5013  1.0345  0.6373
 4054TIP3    H233798   6.056   6.096   7.983  2.8574  0.2774 -0.7001
 4055TIP3   OH233799   2.555   2.477   0.982 -0.3042 -0.1337 -0.2781
 4055TIP3    H133800   2.569   2.553   1.039  0.7832  0.7342 -1.6505
 4055TIP3    H233801   2.496   2.421   1.032  1.5424 -0.0018  2.2461
 4056TIP3   OH233802   5.172   5.452   0.326 -0.2889 -0.5589 -0.4874
 4056TIP3    H133803   5.110   5.399   0.375  0.7503 -0.3793  1.0887
 4056TIP3    H233804   5.138   5.541   0.333  0.9059 -0.2055  1.7654
 4057TIP3   OH233805   0.279   6.615   1.317 -0.2113 -0.0145  0.1108
 4057TIP3    H133806   0.331   6.667   1.255  0.8349 -2.5137 -1.2470
 4057TIP3    H233807   0.252   6.677   1.384  1.3866  2.1458 -1.1343
 4058TIP3   OH233808   4.269   6.409   8.590  0.3532 -0.1704 -0.3132
 4058TIP3    H133809   4.201   6.472   8.615 -0.3783 -0.9542 -0.3007
 4058TIP3    H233810   4.251   6.390   8.498  2.0310  1.4365 -1.0506
 4059TIP3   OH233811   6.487   1.196   1.889  0.1024  0.0275  0.0385
 4059TIP3    H133812   6.410   1.139   1.890  1.2184 -1.5522  0.3551
 4059TIP3    H233813   6.513   1.199   1.797  0.9300 -1.2950  0.1999
 4060TIP3   OH233814   5.569   1.644   1.469 -0.0477  0.4296 -0.4506
 4060TIP3    H133815   5.524   1.582   1.411  1.3154  0.9984 -2.2221
 4060TIP3    H233816   5.501   1.704   1.498 -0.6160  0.7810 -2.3934
 4061TIP3   OH233817   6.577   5.488   1.509  0.6285  0.3827  0.1251
 4061TIP3    H133818   6.607   5.579   1.502  0.3891  0.4373 -0.2178
 4061TIP3    H233819   6.657   5.437   1.521  0.8034  0.5899 -0.1465
 4062TIP3   OH233820   4.051   4.240   3.152  0.5127 -0.0798 -0.1381
 4062TIP3    H133821   3.968   4.192   3.146 -0.3865  1.0390  1.9940
 4062TIP3    H233822   4.114   4.177   3.186  0.2545 -0.6491 -0.7057
 4063TIP3   OH233823   1.489   0.677   3.564 -0.1816 -0.0536  0.1184
 4063TIP3    H133824   1.462   0.718   3.646  0.0877 -0.5586  0.4633
 4063TIP3    H233825   1.473   0.744   3.498 -0.5502  0.3057  0.5578
 4064TIP3   OH233826   2.439   5.806   8.787  0.6148  0.0079  0.0377
 4064TIP3    H133827   2.356   5.853   8.778  0.1930 -0.6059  0.6435
 4064TIP3    H233828   2.503   5.874   8.807  0.3569  0.5508 -0.8963
 4065TIP3   OH233829   4.411   2.459   8.180 -0.1408  0.2197 -0.3742
 4065TIP3    H133830   4.362   2.394   8.229  1.7633 -0.2699  1.0042
 4065TIP3    H233831   4.496   2.417   8.162  0.6427  1.8210 -0.6188
 4066TIP3   OH233832   3.596   4.449   0.405  0.2953 -0.6460 -0.7748
 4066TIP3    H133833   3.502   4.461   0.419  0.4190  0.0019 -0.4345
 4066TIP3    H233834   3.631   4.432   0.493  0.4760 -0.9925 -0.9163
 4067TIP3   OH233835   4.717   0.904   8.610  0.2667 -0.4916  0.3499
 4067TIP3    H133836   4.710   0.858   8.694 -2.1307 -1.8293 -0.4654
 4067TIP3    H233837   4.702   0.996   8.631 -1.2942 -0.9310  1.3091
 4068TIP3   OH233838   0.240   0.395   8.670  0.0302  0.2246 -0.5623
 4068TIP3    H133839   0.220   0.447   8.748  2.1767  1.1542 -0.5767
 4068TIP3    H233840   0.156   0.389   8.624 -1.5279 -1.2156  2.2450
 4069TIP3   OH233841   0.991   5.379   1.696 -0.0427 -0.2157 -0.2881
 4069TIP3    H133842   0.976   5.469   1.725  1.1098  0.7029 -2.3522
 4069TIP3    H233843   1.084   5.364   1.711 -0.1670 -0.9661 -0.2222
 4070TIP3   OH233844   4.044   4.523   2.390 -0.2296 -0.2452  0.1365
 4070TIP3    H133845   4.015   4.494   2.477 -1.7605 -2.3669 -0.9819
 4070TIP3    H233846   4.094   4.603   2.407 -1.2015 -0.0988  2.8711
 4071TIP3   OH233847   5.020   4.452   0.104  0.7068  0.1950 -0.1764
 4071TIP3    H133848   5.114   4.433   0.101  0.8110  0.7708 -1.2611
 4071TIP3    H233849   4.987   4.422   0.019  0.0711  0.7563 -0.1337
 4072TIP3   OH233850   3.110   2.822   1.455 -0.2699  0.4354 -0.6033
 4072TIP3    H133851   3.136   2.779   1.374 -0.3413 -0.3831 -0.1990
 4072TIP3    H233852   3.092   2.750   1.516  3.4903  0.9316  1.3731
 4073TIP3   OH233853   0.147   2.537   8.696 -0.4837 -0.2823  0.1550
 4073TIP3    H133854   0.078   2.556   8.633 -0.1309  0.8677  0.0927
 4073TIP3    H233855   0.162   2.443   8.688 -1.0036 -0.2846 -0.8890
 4074TIP3   OH233856   4.852   5.727   8.841 -0.1591 -0.3323  0.0288
 4074TIP3    H133857   4.863   5.778   8.761  1.2671 -0.7635 -0.0783
 4074TIP3    H233858   4.774   5.765   8.883 -0.5630  0.2999 -1.2424
 4075TIP3   OH233859   6.598   0.498   8.242 -0.2483  0.5603  0.2944
 4075TIP3    H133860   6.566   0.408   8.244  1.5892 -0.3129 -2.5416
 4075TIP3    H233861   6.534   0.545   8.188  0.6946 -0.0323 -1.4048
 4076TIP3   OH233862   5.922   5.228   8.078 -0.0161  0.1624 -0.2458
 4076TIP3    H133863   5.900   5.226   8.171 -3.0292 -0.2296 -0.8349
 4076TIP3    H233864   5.952   5.317   8.062  0.3243  0.3025  1.0585
 4077TIP3   OH233865   0.085   4.790   0.664 -0.0123 -0.7489  0.4719
 4077TIP3    H133866   0.037   4.708   0.666  0.8121 -1.3177 -1.3442
 4077TIP3    H233867   0.175   4.767   0.688  0.4297 -0.5601 -0.9386
 4078TIP3   OH233868   2.212   5.140   0.525  0.5769  0.0177 -0.1608
 4078TIP3    H133869   2.127   5.097   0.521 -0.7492  2.4413  0.2491
 4078TIP3    H233870   2.249   5.129   0.438 -0.7820  0.1176 -0.7706
 4079TIP3   OH233871   2.305   0.335   8.188  0.6125 -0.2480 -0.1885
 4079TIP3    H133872   2.335   0.402   8.249 -1.9780  0.5226  0.3725
 4079TIP3    H233873   2.276   0.384   8.111 -0.1828 -0.8261 -0.2698
 4080TIP3   OH233874   3.366   1.748   1.389 -0.3257 -0.2354 -0.2935
 4080TIP3    H133875   3.278   1.725   1.419 -0.2184 -1.6377 -0.9504
 4080TIP3    H233876   3.381   1.691   1.313  2.2161 -2.1820  1.4989
 4081TIP3   OH233877   0.700   4.344   8.931 -0.9507  0.2539 -0.0111
 4081TIP3    H133878   0.786   4.322   8.966 -0.3785  1.6516 -0.4517
 4081TIP3    H233879   0.641   4.336   9.006 -0.5266 -1.0637  0.2110
 4082TIP3   OH233880   4.264   5.856   3.296 -0.4108 -0.1196  0.3324
 4082TIP3    H133881   4.273   5.940   3.341 -0.2427 -0.9062  1.8451
 4082TIP3    H233882   4.171   5.849   3.276 -0.1992  1.0929 -1.2057
 4083TIP3   OH233883   5.734   6.214   1.142  0.1819 -0.4254 -0.3439
 4083TIP3    H133884   5.762   6.305   1.156  0.8440 -0.8796  1.5636
 4083TIP3    H233885   5.795   6.180   1.077  0.8672  0.0862  0.0166
 4084TIP3   OH233886   0.622   4.144   2.343  0.0517 -0.0544 -0.2468
 4084TIP3    H133887   0.585   4.230   2.364  1.0707  0.2677  0.3529
 4084TIP3    H233888   0.588   4.086   2.411  1.5305  0.5000  1.0418
 4085TIP3   OH233889   5.870   4.630   2.863 -0.6700  0.4134  0.4658
 4085TIP3    H133890   5.934   4.558   2.860 -2.1031 -0.8916 -0.7705
 4085TIP3    H233891   5.900   4.686   2.934  1.4992 -0.4607  0.3087
 4086TIP3   OH233892   0.087   5.980   3.424 -0.1702 -0.2026  0.0759
 4086TIP3    H133893   0.037   6.060   3.407 -2.0004 -1.3527 -0.2406
 4086TIP3    H233894   0.020   5.913   3.442  1.3368 -1.3881  1.6025
 4087TIP3   OH233895   0.570   3.478   3.420  0.5166  0.3061  0.1236
 4087TIP3    H133896   0.571   3.475   3.516  1.0681  2.8846  0.2644
 4087TIP3    H233897   0.551   3.569   3.399 -0.4682 -0.3784 -2.2581
 4088TIP3   OH233898   2.447   1.424   3.063 -0.2282 -0.1983 -0.5040
 4088TIP3    H133899   2.391   1.348   3.048 -0.1681 -0.4480  0.4758
 4088TIP3    H233900   2.436   1.443   3.156  1.5940 -0.4763 -0.2107
 4089TIP3   OH233901   6.454   2.130   4.214  0.0924  0.5818  0.5578
 4089TIP3    H133902   6.514   2.061   4.242 -1.1893 -0.6855  0.2322
 4089TIP3    H233903   6.468   2.138   4.120  0.1523  0.6956  0.5759
 4090TIP3   OH233904   1.025   2.575   8.342  0.3648  0.0455  0.8562
 4090TIP3    H133905   0.938   2.536   8.342  0.3910 -0.0197  0.3684
 4090TIP3    H233906   1.042   2.594   8.250  0.4390  1.0000  1.0560
 4091TIP3   OH233907   3.516   3.815   8.642  0.3236 -0.3145 -0.9492
 4091TIP3    H133908   3.590   3.863   8.604  1.7019 -0.7068  1.0644
 4091TIP3    H233909   3.551   3.728   8.660 -0.7713 -0.6628 -0.4296
 4092TIP3   OH233910   4.248   4.997   2.268  0.2863  0.1310 -0.4034
 4092TIP3    H133911   4.303   4.936   2.316 -0.4327 -0.5451 -0.4284
 4092TIP3    H233912   4.239   5.072   2.327  1.4518  0.3827 -0.5131
 4093TIP3   OH233913   3.751   5.749   0.938 -0.2874 -0.4724 -0.3786
 4093TIP3    H133914   3.663   5.785   0.924 -0.5154 -0.2411  1.3428
 4093TIP3    H233915   3.809   5.825   0.934 -0.1689 -0.5995 -1.3308
 4094TIP3   OH233916   5.384   5.967   1.336 -0.6225  0.6343  0.8328
 4094TIP3    H133917   5.381   6.042   1.276 -0.2506 -0.3941 -0.5036
 4094TIP3    H233918   5.356   5.893   1.284 -0.4139 -0.2802  1.9791
 4095TIP3   OH233919   6.725   0.625   3.027  0.2792 -0.1215  0.3655
 4095TIP3    H133920   6.781   0.663   2.960 -0.2073 -1.7018 -0.9865
 4095TIP3    H233921   6.757   0.662   3.109  1.2814  1.3833 -0.6632
 4096TIP3   OH233922   4.578   2.865   7.684  0.0912  0.1085 -0.7057
 4096TIP3    H133923   4.666   2.884   7.716 -0.7341 -1.9514  3.3228
 4096TIP3    H233924   4.580   2.892   7.592  3.6744  3.8242  0.1819
 4097TIP3   OH233925   3.027   0.761   1.443  0.5064  0.2044 -0.2493
 4097TIP3    H133926   3.084   0.686   1.461  0.7199  0.1956 -0.9315
 4097TIP3    H233927   3.060   0.831   1.500 -0.9419 -0.7580  1.9158
 4098TIP3   OH233928   5.472   1.096   8.673 -0.0259  0.1822  0.0476
 4098TIP3    H133929   5.553   1.047   8.662  0.1525 -0.0555  2.0544
 4098TIP3    H233930   5.487   1.180   8.628  0.4314 -0.7405 -1.5908
 4099TIP3   OH233931   0.353   2.004   8.927 -0.0073  0.2708 -0.0538
 4099TIP3    H133932   0.298   1.945   8.875  0.3358  0.9078 -1.1598
 4099TIP3    H233933   0.297   2.079   8.945 -0.4756 -0.3823  1.4399
 4100TIP3   OH233934   6.489   2.319   8.567  0.2213  0.2215 -0.1632
 4100TIP3    H133935   6.468   2.402   8.523 -2.0509  0.2107  0.7383
 4100TIP3    H233936   6.430   2.255   8.526  1.5914 -0.8691 -0.5033
 4101TIP3   OH233937   5.313   0.124   2.738  0.1065  0.1691  0.2642
 4101TIP3    H133938   5.294   0.077   2.819 -0.5972  1.5014  0.9127
 4101TIP3    H233939   5.238   0.106   2.681  0.3195 -0.2860  0.1206
 4102TIP3   OH233940   6.637   4.808   8.265 -0.2963  0.1430 -0.6834
 4102TIP3    H133941   6.564   4.750   8.288 -0.6792  0.5946 -0.7513
 4102TIP3    H233942   6.664   4.780   8.178  2.3576 -2.8119  0.8629
 4103TIP3   OH233943   3.759   0.976   0.100  0.1532 -0.1507 -0.3401
 4103TIP3    H133944   3.844   1.019   0.102 -0.1952  0.8063 -2.7544
 4103TIP3    H233945   3.741   0.962   0.007 -1.8641 -1.2844  0.1579
 4104TIP3   OH233946   5.620   3.780   8.768 -0.7111  0.0964  0.6739
 4104TIP3    H133947   5.665   3.747   8.845  0.6829  1.5066  0.5007
 4104TIP3    H233948   5.622   3.706   8.706 -0.7400 -0.6190  1.5079
 4105TIP3   OH233949   1.942   5.157   1.051  0.7902 -0.0969  0.5589
 4105TIP3    H133950   1.876   5.174   1.118 -0.0535 -1.0212  0.0049
 4105TIP3    H233951   2.019   5.206   1.079  1.1571 -2.0023  3.3004
 4106TIP3   OH233952   3.296   5.440   2.251 -0.5666 -0.3265 -0.0991
 4106TIP3    H133953   3.220   5.432   2.193 -2.1208  1.4805  1.5831
 4106TIP3    H233954   3.311   5.351   2.283 -1.8374 -0.7496 -0.6338
 4107TIP3   OH233955   6.015   0.908   0.424  0.2474  0.1357  0.0381
 4107TIP3    H133956   5.921   0.897   0.411  0.7423 -2.5207 -2.1069
 4107TIP3    H233957   6.043   0.826   0.466  1.7250  0.5467 -0.0863
 4108TIP3   OH233958   0.939   1.258   1.013  0.2655  0.0766  0.2493
 4108TIP3    H133959   1.018   1.275   1.064 -0.8684 -0.2565  2.2415
 4108TIP3    H233960   0.899   1.344   1.002 -1.0807 -0.1107  2.8068
 4109TIP3   OH233961   2.591   4.430   0.348 -0.2855 -0.2067  0.3355
 4109TIP3    H133962   2.584   4.520   0.381  0.9916  0.3027 -0.7066
 4109TIP3    H233963   2.649   4.386   0.410  1.1722  0.4282 -0.5242
 4110TIP3   OH233964   3.852   5.953   7.242  0.8468  0.1841  0.0689
 4110TIP3    H133965   3.777   5.952   7.301 -0.2536 -2.2538 -1.2311
 4110TIP3    H233966   3.864   6.045   7.219 -0.2766  0.8847  2.0540
 4111TIP3   OH233967   5.754   3.299   2.257 -0.1142  0.3116 -0.1027
 4111TIP3    H133968   5.744   3.384   2.215  1.6704  0.7523  0.3094
 4111TIP3    H233969   5.718   3.310   2.345 -2.5996 -0.2350 -0.9652
 4112TIP3   OH233970   3.663   1.185   8.728  0.0683 -0.2551 -0.0378
 4112TIP3    H133971   3.674   1.275   8.697  2.5377 -0.5804 -0.3491
 4112TIP3    H233972   3.648   1.194   8.822 -3.7831  0.5751 -0.5839
 4113TIP3   OH233973   6.140   0.054   2.047  0.3623 -0.8133  0.0325
 4113TIP3    H133974   6.084   0.097   1.983  0.8350  0.5277  0.4944
 4113TIP3    H233975   6.080   0.006   2.103 -0.5636  1.8063  1.4594
 4114TIP3   OH233976   4.210   6.340   1.307  0.4395  0.0555 -0.6803
 4114TIP3    H133977   4.121   6.319   1.335  0.2847 -0.1147 -1.2794
 4114TIP3    H233978   4.216   6.435   1.317  0.4979 -0.0355  0.2162
 4115TIP3   OH233979   6.425   2.083   8.802  0.4984 -0.1904 -0.5052
 4115TIP3    H133980   6.519   2.085   8.815  0.2949 -0.8221  1.3872
 4115TIP3    H233981   6.413   2.069   8.708  2.3056 -2.0092 -0.5184
 4116TIP3   OH233982   2.653   5.903   1.547 -0.1552 -0.4952  0.1026
 4116TIP3    H133983   2.693   5.886   1.462  1.9708  0.0847  0.9337
 4116TIP3    H233984   2.704   5.851   1.609 -0.3707  0.6136  1.2625
 4117TIP3   OH233985   4.460   0.719   2.491  0.3137  0.5092 -0.2881
 4117TIP3    H133986   4.473   0.646   2.552  0.9422 -0.1398 -1.1739
 4117TIP3    H233987   4.366   0.733   2.490  0.1192 -0.7232 -0.5751
 4118TIP3   OH233988   1.724   6.309   2.335 -0.6589 -0.0477  0.2123
 4118TIP3    H133989   1.762   6.395   2.316 -2.4773  0.2200 -2.8808
 4118TIP3    H233990   1.799   6.254   2.357  0.7789  1.8582  0.3432
 4119TIP3   OH233991   6.538   3.873   2.144 -0.4545  0.1138 -0.3761
 4119TIP3    H133992   6.579   3.907   2.223 -2.2231 -1.0500  1.1359
 4119TIP3    H233993   6.610   3.838   2.092  0.5714 -1.9836  2.2033
 4120TIP3   OH233994   3.435   3.532   7.767  0.1666 -0.4020  0.4050
 4120TIP3    H133995   3.382   3.507   7.691 -1.7181 -1.0897  1.8702
 4120TIP3    H233996   3.474   3.616   7.742 -1.7520  0.2317 -0.7086
 4121TIP3   OH233997   4.610   2.982   0.793 -0.1618  0.9937 -0.3054
 4121TIP3    H133998   4.574   3.071   0.794  1.2129  1.6046 -1.9592
 4121TIP3    H233999   4.601   2.952   0.884 -0.5944  2.8277  0.2973
 4122TIP3   OH234000   0.420   1.712   7.830 -0.2365  0.3407 -0.3116
 4122TIP3    H134001   0.452   1.632   7.872 -1.2870 -0.4452 -0.9555
 4122TIP3    H234002   0.500   1.762   7.809  0.4255 -0.4713  0.2158
 4123TIP3   OH234003   5.299   3.346   0.643  0.0154  0.0520 -0.3277
 4123TIP3    H134004   5.296   3.414   0.711 -0.8970 -1.1211  0.8414
 4123TIP3    H234005   5.217   3.299   0.652 -0.7366  0.6296 -3.1163
 4124TIP3   OH234006   5.657   5.905   2.443 -0.3836  0.0083 -0.0665
 4124TIP3    H134007   5.709   5.915   2.363  0.0774  0.8100  0.3246
 4124TIP3    H234008   5.650   5.993   2.478  0.2965 -0.4755  1.3382
 4125TIP3   OH234009   1.703   3.384   3.680 -0.1141 -0.3900 -0.6720
 4125TIP3    H134010   1.748   3.309   3.719  0.0304  0.2458  0.4436
 4125TIP3    H234011   1.622   3.347   3.644 -0.4973 -0.9447  0.6947
 4126TIP3   OH234012   5.825   0.971   0.100 -0.4943  0.1141  0.4324
 4126TIP3    H134013   5.867   0.975   0.014 -0.2259 -0.1326  0.5517
 4126TIP3    H234014   5.733   0.989   0.082 -0.1715  1.8047  0.3163
 4127TIP3   OH234015   5.082   0.559   0.423  0.2153 -0.4433  0.2648
 4127TIP3    H134016   5.072   0.581   0.331 -1.1590  1.4370  0.7959
 4127TIP3    H234017   5.159   0.502   0.426  0.8999  0.2641 -1.9020
 4128TIP3   OH234018   5.800   2.058   1.448 -0.4197 -0.2468  0.2561
 4128TIP3    H134019   5.891   2.051   1.475 -0.1960  3.2166  0.8995
 4128TIP3    H234020   5.802   2.049   1.353  0.8943  1.3963  0.0821
 4129TIP3   OH234021   3.031   1.059   1.156 -0.5267  0.0673  0.1564
 4129TIP3    H134022   3.044   0.965   1.162 -1.6197 -0.0364  1.1087
 4129TIP3    H234023   2.994   1.073   1.069 -0.7949 -0.4273  0.1917
 4130TIP3   OH234024   3.646   5.667   0.180  0.1164  0.1549 -0.2716
 4130TIP3    H134025   3.654   5.646   0.087  3.0010  1.2932 -0.3834
 4130TIP3    H234026   3.636   5.762   0.183  2.2122  0.4078  0.5559
 4131TIP3   OH234027   1.674   2.190   1.108 -0.0514  0.3797  0.5884
 4131TIP3    H134028   1.629   2.264   1.068 -1.3448  1.0726  3.1229
 4131TIP3    H234029   1.609   2.119   1.106  0.9494 -0.5726 -1.2181
 4132TIP3   OH234030   1.886   0.492   2.542  0.1270 -1.1228 -0.4907
 4132TIP3    H134031   1.976   0.464   2.556  0.8657  1.5979  0.8540
 4132TIP3    H234032   1.838   0.458   2.618  1.1097  1.3763  1.3849
 4133TIP3   OH234033   5.367   0.146   8.660 -0.2197  0.2294  0.0824
 4133TIP3    H134034   5.426   0.106   8.596  0.0386  1.2371 -0.3275
 4133TIP3    H234035   5.387   0.240   8.656  0.2470  0.2732  2.0790
 4134TIP3   OH234036   5.760   0.098   0.125  0.4399 -0.2306  0.2403
 4134TIP3    H134037   5.855   0.107   0.118  0.3910 -0.6281 -1.2491
 4134TIP3    H234038   5.744   0.004   0.115 -0.3111  0.1292 -3.2262
 4135TIP3   OH234039   2.187   0.527   0.229  0.1903  0.0646  0.1536
 4135TIP3    H134040   2.143   0.442   0.227 -0.8526  0.5888 -1.0857
 4135TIP3    H234041   2.191   0.550   0.321 -0.0096 -1.0812  0.4691
 4136TIP3   OH234042   5.585   3.038   2.298  0.2713  0.1681 -0.3218
 4136TIP3    H134043   5.565   3.098   2.226 -3.4894  1.4867  1.5138
 4136TIP3    H234044   5.613   3.094   2.370  0.1485 -0.6401  0.3822
 4137TIP3   OH234045   4.926   1.755   8.652 -0.5827 -0.1640 -0.5762
 4137TIP3    H134046   4.837   1.747   8.685 -0.8927  1.1825 -0.9970
 4137TIP3    H234047   4.917   1.750   8.557  0.0758 -2.1436 -0.5770
 4138TIP3   OH234048   6.333   1.830   1.753 -0.6834 -0.2380 -0.1639
 4138TIP3    H134049   6.355   1.893   1.684  0.1039  1.2694  1.3736
 4138TIP3    H234050   6.389   1.754   1.736  0.5475  0.6867 -0.4077
 4139TIP3   OH234051   5.384   3.720   1.650  0.0975  0.5076  0.0038
 4139TIP3    H134052   5.390   3.731   1.745  1.8913 -2.5354  0.3688
 4139TIP3    H234053   5.448   3.653   1.629 -3.8380 -2.9360 -2.6041
 4140TIP3   OH234054   4.935   1.540   1.545  0.4554 -0.2962 -0.1497
 4140TIP3    H134055   4.857   1.591   1.568  1.2318  0.9137 -0.1178
 4140TIP3    H234056   4.984   1.532   1.627 -0.7258 -3.1472  0.4181
 4141TIP3   OH234057   6.004   1.071   8.172  0.1430 -0.6328 -0.3993
 4141TIP3    H134058   6.087   1.116   8.186  0.2352 -1.0672  0.4965
 4141TIP3    H234059   6.025   1.000   8.113  0.1853 -0.0949 -1.0460
 4142TIP3   OH234060   1.361   2.492   0.664 -0.2379  0.5185 -0.1307
 4142TIP3    H134061   1.297   2.423   0.684  0.0020  0.6439  1.1642
 4142TIP3    H234062   1.399   2.466   0.581 -0.1663 -0.9041  0.3199
 4143TIP3   OH234063   1.744   4.961   0.276  0.0646 -0.6149 -0.2126
 4143TIP3    H134064   1.690   4.893   0.235  0.1753 -1.1530  0.5020
 4143TIP3    H234065   1.775   5.014   0.203 -0.4492 -1.0254 -0.7409
 4144TIP3   OH234066   5.655   6.739   2.241  0.2376 -0.1857 -0.9631
 4144TIP3    H134067   5.681   6.793   2.316  0.7532  0.2071 -1.4111
 4144TIP3    H234068   5.603   6.668   2.279 -0.5267  0.6730 -0.3769
 4145TIP3   OH234069   2.563   6.395   0.258  0.1818  0.2144  0.4226
 4145TIP3    H134070   2.500   6.454   0.219  0.4438  0.6336  0.6298
 4145TIP3    H234071   2.554   6.314   0.208 -0.1176  0.4547  0.0842
 4146TIP3   OH234072   4.682   1.869   8.549 -0.0019  0.7092  0.5776
 4146TIP3    H134073   4.646   1.902   8.632 -1.0486  0.6680  0.1496
 4146TIP3    H234074   4.651   1.932   8.483  0.3447  0.4232  0.1393
 4147TIP3   OH234075   5.301   2.839   2.705  0.0147 -0.5561 -0.4658
 4147TIP3    H134076   5.356   2.848   2.627 -1.1719 -0.6882 -1.3477
 4147TIP3    H234077   5.355   2.875   2.776  1.0410 -0.2259 -1.3741
 4148TIP3   OH234078   2.072   0.115   3.361 -0.5479 -0.4705  0.1205
 4148TIP3    H134079   1.977   0.107   3.352 -0.5786 -0.8336  0.7487
 4148TIP3    H234080   2.107   0.040   3.313 -0.6717 -1.6760  1.8265
 4149TIP3   OH234081   0.285   3.589   3.191  0.4875 -0.1949 -0.2212
 4149TIP3    H134082   0.292   3.684   3.194 -0.8347 -0.1050  1.4358
 4149TIP3    H234083   0.282   3.562   3.283 -1.1205 -1.6398 -0.6422
 4150TIP3   OH234084   6.324   6.279   0.522  0.1661  0.5064 -0.1563
 4150TIP3    H134085   6.235   6.313   0.513 -0.1939 -0.3436  0.0724
 4150TIP3    H234086   6.344   6.240   0.437 -0.4139 -0.9515  0.3303
 4151TIP3   OH234087   1.750   2.013   1.303 -0.2206  0.0025  0.5824
 4151TIP3    H134088   1.747   2.073   1.229 -2.0171 -2.6594 -1.7147
 4151TIP3    H234089   1.795   1.936   1.270  1.0180 -0.4387  3.0620
 4152TIP3   OH234090   4.512   4.636   0.246  0.0296  0.0291  0.2293
 4152TIP3    H134091   4.571   4.600   0.180  0.5902  0.5698  0.4258
 4152TIP3    H234092   4.559   4.711   0.283 -0.1122 -0.4933  1.5180
 4153TIP3   OH234093   2.170   2.633   3.172 -0.0039 -0.0644  0.0638
 4153TIP3    H134094   2.140   2.669   3.089 -0.5601  1.6579  0.9721
 4153TIP3    H234095   2.145   2.541   3.168  0.0516 -0.0528 -1.6907
 4154TIP3   OH234096   4.727   1.242   1.728  0.5429  0.1562  0.0747
 4154TIP3    H134097   4.776   1.268   1.806  1.7613 -0.4202 -0.4568
 4154TIP3    H234098   4.701   1.324   1.687 -2.2684  0.5341  2.2912
 4155TIP3   OH234099   1.249   5.538   1.927  0.0941 -0.1861 -0.3913
 4155TIP3    H134100   1.205   5.462   1.965  1.0774 -0.4209  0.2981
 4155TIP3    H234101   1.321   5.501   1.876 -0.3780  0.2049 -1.3662
 4156TIP3   OH234102   5.556   4.692   8.544 -0.2346  0.1718 -0.1651
 4156TIP3    H134103   5.561   4.602   8.577  1.2019  0.4633  0.5073
 4156TIP3    H234104   5.470   4.698   8.502 -0.6740 -1.2730  0.4695
 4157TIP3   OH234105   5.839   3.662   0.293  0.8360  0.0368 -0.4703
 4157TIP3    H134106   5.877   3.581   0.259  0.6188 -2.2884  4.0420
 4157TIP3    H234107   5.746   3.654   0.274  0.2461 -2.6369  2.5755
 4158TIP3   OH234108   2.710   0.464   8.361  0.4570 -0.3182  0.4530
 4158TIP3    H134109   2.782   0.408   8.388  0.4202  0.3250  2.0180
 4158TIP3    H234110   2.724   0.478   8.268  2.2859 -0.3172  0.6883
 4159TIP3   OH234111   5.723   6.534   1.886  0.2779  0.3607  0.0713
 4159TIP3    H134112   5.803   6.495   1.922 -0.6971 -0.8994  0.9764
 4159TIP3    H234113   5.718   6.620   1.927  0.5557 -0.0348  0.9710
 4160TIP3   OH234114   3.305   1.490   8.260  0.1432 -0.4851 -0.0276
 4160TIP3    H134115   3.387   1.461   8.220  0.3273 -1.7133  1.1708
 4160TIP3    H234116   3.237   1.455   8.203  0.4294  0.5186 -1.0185
 4161TIP3   OH234117   3.758   0.578   1.908  0.2776 -0.0063 -0.4550
 4161TIP3    H134118   3.724   0.665   1.929  0.7848  0.2032 -0.4848
 4161TIP3    H234119   3.703   0.548   1.836 -0.4223 -0.0515  0.0909
 4162TIP3   OH234120   0.834   2.966   3.053  0.6791  0.0959 -0.3050
 4162TIP3    H134121   0.746   2.944   3.081  0.5683 -1.7091 -1.8390
 4162TIP3    H234122   0.892   2.922   3.115  0.4949  0.3325  0.0337
 4163TIP3   OH234123   3.784   3.982   7.671  0.1115  0.2210 -0.1342
 4163TIP3    H134124   3.799   3.968   7.578  0.3131 -0.0496 -0.0620
 4163TIP3    H234125   3.798   3.896   7.711  0.1287  0.3581  0.1589
 4164TIP3   OH234126   1.307   0.350   8.904  0.0270  0.5288  0.7131
 4164TIP3    H134127   1.276   0.280   8.845  1.0615  0.3506  0.3709
 4164TIP3    H234128   1.328   0.423   8.846 -1.6395  1.3888  1.1163
 4165TIP3   OH234129   1.319   3.392   1.838 -0.0104 -0.0199  0.3623
 4165TIP3    H134130   1.384   3.332   1.802 -0.4852  1.0917 -2.7091
 4165TIP3    H234131   1.364   3.477   1.840 -0.4322  0.1898  1.1672
 4166TIP3   OH234132   5.620   4.409   1.415 -0.0394  0.1844  0.4466
 4166TIP3    H134133   5.680   4.483   1.423  1.3660 -0.4585 -2.6672
 4166TIP3    H234134   5.564   4.431   1.341 -1.3755 -0.7813  1.1062
 4167TIP3   OH234135   2.410   0.276   8.790 -0.5369  0.1834 -0.0043
 4167TIP3    H134136   2.452   0.360   8.773 -0.8634  0.5349  0.8626
 4167TIP3    H234137   2.410   0.231   8.705 -0.8351  1.2658 -0.5923
 4168TIP3   OH234138   4.042   1.842   8.639 -0.2940  0.3013  0.5855
 4168TIP3    H134139   4.108   1.896   8.594  0.5889 -0.8150  0.5106
 4168TIP3    H234140   3.960   1.890   8.627  0.2047  0.8553 -0.8118
 4169TIP3   OH234141   5.053   2.632   0.300  0.7524  0.0795 -0.5402
 4169TIP3    H134142   5.109   2.622   0.377  0.1041  1.0134  0.0765
 4169TIP3    H234143   4.965   2.611   0.331  0.6283 -0.6177 -1.3098
 4170TIP3   OH234144   1.868   3.076   2.528  0.2038  0.0561 -0.1912
 4170TIP3    H134145   1.818   3.098   2.607 -0.5514 -0.4651 -0.5167
 4170TIP3    H234146   1.959   3.095   2.552 -0.2031  1.6492  0.1773
 4171TIP3   OH234147   0.481   0.304   0.077  0.3351  0.6346 -0.0277
 4171TIP3    H134148   0.499   0.275  -0.012  1.0262  0.5103  0.1496
 4171TIP3    H234149   0.562   0.344   0.107  0.1329  0.6112  0.5717
 4172TIP3   OH234150   6.099   2.816   2.641 -0.2186 -0.0726  0.1933
 4172TIP3    H134151   6.113   2.741   2.700 -1.2939  1.6419  2.8159
 4172TIP3    H234152   6.142   2.790   2.559  1.5946 -2.5381  1.7635
 4173TIP3   OH234153   5.602   4.009   7.671  0.0820  0.9996 -0.1334
 4173TIP3    H134154   5.655   3.938   7.636  1.5616  0.3002  3.1921
 4173TIP3    H234155   5.516   3.969   7.687  0.2748  0.5490 -0.2109
 4174TIP3   OH234156   4.196   1.023   1.642 -0.2784  0.0393 -0.3792
 4174TIP3    H134157   4.176   1.115   1.627 -2.4511 -0.5579 -1.5250
 4174TIP3    H234158   4.236   0.994   1.560  1.4526  0.1646  0.3669
 4175TIP3   OH234159   3.985   6.716   3.601 -0.2550  0.2552 -0.4915
 4175TIP3    H134160   3.952   6.643   3.549 -0.6649 -0.5909  0.9055
 4175TIP3    H234161   3.933   6.791   3.573 -1.5892 -0.5183 -0.1834
 4176TIP3   OH234162   3.154   6.089   8.142  0.7705  0.3464  0.1364
 4176TIP3    H134163   3.124   5.999   8.127 -0.6737  0.6320  1.1271
 4176TIP3    H234164   3.186   6.118   8.057  1.2496 -1.0925 -0.2018
 4177TIP3   OH234165   2.827   2.251   7.723 -0.0545 -0.3593  0.1620
 4177TIP3    H134166   2.755   2.279   7.665  0.1852  0.5269  0.2718
 4177TIP3    H234167   2.784   2.233   7.807 -0.0110  1.4119  0.6030
 4178TIP3   OH234168   4.342   3.461   3.394  0.2192 -0.4280  0.2402
 4178TIP3    H134169   4.423   3.497   3.358 -0.1093 -0.7460 -0.8442
 4178TIP3    H234170   4.370   3.410   3.470  0.6789  2.3577  2.0873
 4179TIP3   OH234171   5.730   5.889   1.027 -0.4050  0.2257  0.4027
 4179TIP3    H134172   5.635   5.876   1.029 -0.4828  0.8553  1.1030
 4179TIP3    H234173   5.760   5.865   1.114  0.0779  0.0757  0.1974
 4180TIP3   OH234174   1.635   1.209   0.264 -0.0920  0.1344  0.0436
 4180TIP3    H134175   1.542   1.191   0.257 -0.5469  2.4601 -0.7977
 4180TIP3    H234176   1.651   1.223   0.357 -0.4843 -0.6365  0.2305
 4181TIP3   OH234177   6.301   1.688   0.374  0.2832 -0.4380  0.6563
 4181TIP3    H134178   6.282   1.773   0.334  0.3309 -0.5688  0.3447
 4181TIP3    H234179   6.245   1.684   0.451  0.7501  0.1426  1.0328
 4182TIP3   OH234180   0.311   3.702   0.183  0.2569 -0.1794  0.4708
 4182TIP3    H134181   0.361   3.635   0.135 -0.8566 -1.1750  0.6458
 4182TIP3    H234182   0.237   3.722   0.125  0.5116  0.8284  0.4768
 4183TIP3   OH234183   2.921   2.175   3.044  0.5068 -0.1877  0.1804
 4183TIP3    H134184   2.981   2.114   3.087  0.7928  0.4518  0.7037
 4183TIP3    H234185   2.948   2.174   2.952  0.7408 -0.5650  0.2486
 4184TIP3   OH234186   5.521   2.125   1.312  0.1496 -0.3180 -0.2323
 4184TIP3    H134187   5.454   2.072   1.354  1.0757  0.6299  2.6554
 4184TIP3    H234188   5.588   2.062   1.285  0.5560 -0.8114  1.8010
 4185TIP3   OH234189   5.149   1.369   1.189  0.1827 -0.1465  0.4355
 4185TIP3    H134190   5.206   1.296   1.214 -2.2675 -1.7442  1.7221
 4185TIP3    H234191   5.098   1.336   1.115  0.3464  0.9961 -0.2274
 4186TIP3   OH234192   5.067   0.080   8.058 -0.6195  0.0323  0.1259
 4186TIP3    H134193   5.033   0.041   8.138  0.1668 -3.2908 -0.9928
 4186TIP3    H234194   4.995   0.133   8.024 -2.3846 -1.6959  1.0141
 4187TIP3   OH234195   1.687   4.405   3.136 -0.6617  0.9048 -0.0486
 4187TIP3    H134196   1.754   4.414   3.203  1.3239  3.2236 -2.1157
 4187TIP3    H234197   1.668   4.311   3.133  2.7577  0.0435  0.4677
 4188TIP3   OH234198   4.562   6.054   1.343  0.3455 -0.0918 -0.4295
 4188TIP3    H134199   4.583   6.113   1.271 -1.1914  0.8196 -0.1791
 4188TIP3    H234200   4.589   6.102   1.421 -2.7808  1.3206 -0.0602
 4189TIP3   OH234201   1.432   5.413   0.623  0.3179 -0.0800 -0.2004
 4189TIP3    H134202   1.513   5.387   0.579  0.8843  0.0434  0.7382
 4189TIP3    H234203   1.414   5.343   0.686 -0.1633  0.0261 -0.2119
 4190TIP3   OH234204   0.267   2.220   0.668  0.1671  0.1847  0.2377
 4190TIP3    H134205   0.218   2.232   0.587 -0.3119  0.4779  0.5671
 4190TIP3    H234206   0.201   2.195   0.733  0.7375 -1.5295  0.2179
 4191TIP3   OH234207   2.646   1.405   8.040 -0.6886 -0.9076 -0.1344
 4191TIP3    H134208   2.712   1.411   8.109 -1.1495 -0.7571  0.2967
 4191TIP3    H234209   2.683   1.344   7.977  0.7821  0.7156 -0.9310
 4192TIP3   OH234210   0.421   5.731   1.781 -0.0602 -0.3598  0.2075
 4192TIP3    H134211   0.428   5.661   1.716 -2.0222  0.8642 -1.4586
 4192TIP3    H234212   0.328   5.734   1.803  0.1381  1.0493  0.9981
 4193TIP3   OH234213   6.196   6.435   2.015  0.7621  0.3549  0.3781
 4193TIP3    H134214   6.100   6.436   2.013  0.6001 -2.2607  2.5045
 4193TIP3    H234215   6.220   6.527   2.026 -1.7214  0.8032  3.7126
 4194TIP3   OH234216   3.252   4.249   1.779  0.1615 -0.1554 -0.5695
 4194TIP3    H134217   3.242   4.230   1.872 -1.6601  1.1273 -0.4561
 4194TIP3    H234218   3.340   4.286   1.772 -0.6737  2.4382  1.1835
 4195TIP3   OH234219   1.313   0.118   3.397 -0.4233 -0.0094 -0.5971
 4195TIP3    H134220   1.329   0.122   3.302  2.2204  0.6120 -0.1880
 4195TIP3    H234221   1.400   0.111   3.436 -1.5283 -2.3934  1.7374
 4196TIP3   OH234222   4.041   6.238   8.150  0.3815 -0.4761  0.2157
 4196TIP3    H134223   3.992   6.307   8.104  2.4071  0.5191 -0.5811
 4196TIP3    H234224   4.039   6.265   8.242  0.4239  0.1933  0.0313
 4197TIP3   OH234225   0.674   0.860   2.710 -0.2882 -0.2779 -0.4160
 4197TIP3    H134226   0.590   0.852   2.665 -0.2339  0.2659 -0.6230
 4197TIP3    H234227   0.656   0.917   2.784  0.2198  1.0916 -1.3189
 4198TIP3   OH234228   3.758   4.997   1.963  0.1846  0.5491 -0.0984
 4198TIP3    H134229   3.789   5.061   2.027  2.2635 -0.0403 -0.4372
 4198TIP3    H234230   3.833   4.981   1.906 -1.3011  0.3121 -2.1208
 4199TIP3   OH234231   4.839   3.140   0.856 -0.3401  0.5572 -0.1530
 4199TIP3    H134232   4.862   3.056   0.898  1.3409  1.3932  0.6959
 4199TIP3    H234233   4.748   3.153   0.880 -0.6239 -0.9949 -0.2355
 4200TIP3   OH234234   5.700   0.621   0.441  0.3489 -0.5245  0.0231
 4200TIP3    H134235   5.613   0.606   0.405  0.0561 -0.4264  0.6631
 4200TIP3    H234236   5.727   0.706   0.406  0.3023 -0.6830 -0.3955
 4201TIP3   OH234237   6.053   3.811   0.211  0.1169 -0.2166  0.7272
 4201TIP3    H134238   6.024   3.900   0.232  1.6081  0.1906  1.1472
 4201TIP3    H234239   5.996   3.755   0.264  0.1596  0.5559  1.6218
 4202TIP3   OH234240   4.348   6.365   7.574  0.3602 -0.2306  0.2186
 4202TIP3    H134241   4.329   6.275   7.601  0.5695 -0.1436  0.6740
 4202TIP3    H234242   4.266   6.412   7.588  0.3135 -0.3059  0.1970
 4203TIP3   OH234243   6.322   5.012   2.294  0.5581 -0.0165  0.1462
 4203TIP3    H134244   6.269   5.056   2.361  0.8967 -0.3338  0.6306
 4203TIP3    H234245   6.267   4.940   2.263 -0.2423  1.0801 -1.0859
 4204TIP3   OH234246   6.367   5.814   0.608  0.2958  0.0533  0.3213
 4204TIP3    H134247   6.404   5.830   0.521 -0.4879 -1.1149 -0.2507
 4204TIP3    H234248   6.409   5.734   0.638 -1.1781 -0.9128 -0.0497
 4205TIP3   OH234249   5.600   1.144   0.355  0.1691 -0.0777 -0.3990
 4205TIP3    H134250   5.517   1.191   0.362  0.1635  0.0103 -0.9924
 4205TIP3    H234251   5.631   1.136   0.445  0.0133  0.7751 -0.2630
 4206TIP3   OH234252   5.057   3.703   7.935  0.1199  0.1148 -0.4321
 4206TIP3    H134253   5.100   3.709   8.020  0.5423 -1.7063 -0.4818
 4206TIP3    H234254   4.965   3.725   7.954  0.6416  2.0338  0.0366
 4207TIP3   OH234255   3.177   4.674   8.922  0.3486 -0.2303  0.3890
 4207TIP3    H134256   3.084   4.665   8.940  0.2102 -0.8401 -0.5271
 4207TIP3    H234257   3.220   4.618   8.987  0.0277 -0.5076  0.3620
 4208TIP3   OH234258   1.112   2.624   8.083  0.0161  0.0539 -0.3007
 4208TIP3    H134259   1.136   2.705   8.039  1.4513 -0.7627 -1.1328
 4208TIP3    H234260   1.091   2.563   8.012  0.3330 -0.6912  0.2248
 4209TIP3   OH234261   1.409   4.051   2.171 -0.2486 -0.0186  0.6020
 4209TIP3    H134262   1.365   4.115   2.227  0.6059 -0.2176  1.5284
 4209TIP3    H234263   1.433   3.980   2.230 -0.7568 -0.9989 -0.3238
 4210TIP3   OH234264   3.384   6.089   2.210  0.4901  0.3094  0.2113
 4210TIP3    H134265   3.323   6.142   2.262  1.8185  0.8409  1.2918
 4210TIP3    H234266   3.356   6.103   2.120 -0.6506  0.9680  0.6312
 4211TIP3   OH234267   0.124   4.464   2.423  0.3047 -0.2622  0.2861
 4211TIP3    H134268   0.213   4.485   2.453  0.4356 -0.1654 -0.1564
 4211TIP3    H234269   0.120   4.501   2.334  1.0868 -3.4477 -1.2025
 4212TIP3   OH234270   4.014   5.987   0.368  0.4214  0.1570 -0.2019
 4212TIP3    H134271   4.103   6.018   0.353  0.4936  0.0369 -0.0167
 4212TIP3    H234272   4.020   5.892   0.355  0.6956 -0.0996  1.5671
 4213TIP3   OH234273   2.606   1.086   8.801 -0.1811  0.0402 -0.1062
 4213TIP3    H134274   2.686   1.056   8.757 -0.1063 -0.2493  0.2261
 4213TIP3    H234275   2.539   1.024   8.775  0.1968 -1.0443  1.3965
 4214TIP3   OH234276   0.973   0.901   0.678  0.3906  0.2886  0.0533
 4214TIP3    H134277   0.887   0.943   0.686  0.5349  0.4955  0.5841
 4214TIP3    H234278   0.967   0.823   0.733  0.2195 -0.2377 -0.7003
 4215TIP3   OH234279   3.333   6.056   3.513 -0.1669 -0.2329 -0.0951
 4215TIP3    H134280   3.372   6.137   3.546 -0.2569  0.3055 -1.2784
 4215TIP3    H234281   3.277   6.083   3.441  1.5057 -1.5197 -1.9992
 4216TIP3   OH234282   2.286   2.331   8.571 -0.5150  0.3255 -0.1052
 4216TIP3    H134283   2.300   2.319   8.665 -1.2947  3.2518  0.4802
 4216TIP3    H234284   2.350   2.397   8.545 -2.4599  2.0122 -0.8456
 4217TIP3   OH234285   1.830   6.398   0.475 -0.2111  0.0587 -0.0292
 4217TIP3    H134286   1.875   6.399   0.559  0.8773 -0.0588 -0.5807
 4217TIP3    H234287   1.766   6.328   0.482 -0.2778  0.1956  0.7715
 4218TIP3   OH234288   3.618   5.836   8.156 -0.4455 -0.0638 -0.1358
 4218TIP3    H134289   3.705   5.864   8.128 -1.0801  1.4466 -0.7067
 4218TIP3    H234290   3.590   5.902   8.220  0.1617 -2.3849  2.7302
 4219TIP3   OH234291   4.981   2.423   2.524  0.5978  0.2933 -0.0858
 4219TIP3    H134292   4.954   2.336   2.494 -0.7575  0.3606  0.8519
 4219TIP3    H234293   5.001   2.411   2.617 -2.7374  1.5147  0.9611
 4220TIP3   OH234294   2.072   6.339   8.039 -0.1965 -0.0723 -0.3002
 4220TIP3    H134295   2.155   6.306   8.007  1.2683  1.8650  1.2469
 4220TIP3    H234296   2.040   6.397   7.970 -0.4794 -1.1138 -1.0581
 4221TIP3   OH234297   5.298   2.493   2.510  0.0448  0.2824  0.5485
 4221TIP3    H134298   5.365   2.469   2.574  0.3453  1.0111  0.5203
 4221TIP3    H234299   5.240   2.551   2.558  1.4458  2.5693 -0.3494
 4222TIP3   OH234300   2.692   3.207   2.222 -0.2301  0.1085  0.7160
 4222TIP3    H134301   2.604   3.243   2.228 -0.7287 -1.0855  0.8505
 4222TIP3    H234302   2.744   3.261   2.281 -0.4576  1.9675 -0.7053
 4223TIP3   OH234303   5.692   6.298   0.522 -0.0772 -0.6824  0.4615
 4223TIP3    H134304   5.663   6.370   0.577 -0.3347 -0.2151 -0.2650
 4223TIP3    H234305   5.744   6.243   0.580 -0.6167 -0.3841  1.2451
 4224TIP3   OH234306   0.183   5.819   8.730 -0.4893  0.7196  0.1749
 4224TIP3    H134307   0.103   5.869   8.743 -0.2357  1.0161  0.5895
 4224TIP3    H234308   0.245   5.854   8.794  0.4382  1.4679 -1.0763
 4225TIP3   OH234309   0.007   0.388   2.579 -0.7420  0.1709  0.7987
 4225TIP3    H134310  -0.080   0.349   2.569 -0.7463 -0.0197  1.5606
 4225TIP3    H234311   0.033   0.368   2.669 -0.7811  2.0023  1.2547
 4226TIP3   OH234312   2.075   0.328   2.667  0.1011 -0.3964  0.1301
 4226TIP3    H134313   2.032   0.246   2.691 -1.0966  0.7755  2.2424
 4226TIP3    H234314   2.144   0.339   2.732 -1.3928  1.4755  1.5075
 4227TIP3   OH234315   2.493   5.747   1.220  0.1066 -0.0731  0.4937
 4227TIP3    H134316   2.588   5.747   1.227  0.2523  0.0997 -1.1234
 4227TIP3    H234317   2.466   5.669   1.269  1.0771 -0.1601  0.9130
 4228TIP3   OH234318   6.711   3.864   3.113 -0.5515 -0.2241 -0.1719
 4228TIP3    H134319   6.689   3.891   3.202  0.3440 -0.0345  0.0040
 4228TIP3    H234320   6.748   3.943   3.073  0.8599 -0.8000 -0.0793
 4229TIP3   OH234321   4.342   1.736   0.447  0.1927 -0.6489  0.1583
 4229TIP3    H134322   4.325   1.829   0.460 -0.4421 -0.8676  0.9774
 4229TIP3    H234323   4.334   1.724   0.352 -1.5765 -0.1932  0.2039
 4230TIP3   OH234324   0.303   3.216   2.480  0.4548 -0.3255  0.1483
 4230TIP3    H134325   0.272   3.180   2.564  1.7253  0.6992  1.0963
 4230TIP3    H234326   0.237   3.187   2.416 -2.1195  1.1744  1.9268
 4231TIP3   OH234327   2.369   5.647   8.425  0.2170  0.0702  0.2054
 4231TIP3    H134328   2.349   5.717   8.487 -0.5698  1.5651 -1.6055
 4231TIP3    H234329   2.285   5.628   8.382  0.8716 -0.2809 -0.9812
 4232TIP3   OH234330   5.470   6.620   2.787  0.1270  0.1473  0.0963
 4232TIP3    H134331   5.501   6.671   2.712 -0.0639 -0.3534 -0.3268
 4232TIP3    H234332   5.388   6.663   2.813  1.2338  1.6391  1.3850
 4233TIP3   OH234333   5.174   2.571   0.042 -0.0554  0.0923  0.4146
 4233TIP3    H134334   5.143   2.611   0.123  0.0222  2.0966 -0.4763
 4233TIP3    H234335   5.265   2.598   0.035  0.5148 -1.6609  0.5670
 4234TIP3   OH234336   2.647   5.809   0.195  0.0126  0.3588 -0.5592
 4234TIP3    H134337   2.622   5.859   0.273 -0.4411  0.2611 -0.6381
 4234TIP3    H234338   2.575   5.748   0.182  0.9327 -0.8876  0.0097
 4235TIP3   OH234339   6.636   4.814   7.762  0.1401  0.4219 -0.4868
 4235TIP3    H134340   6.573   4.796   7.693 -0.5386  0.9991 -0.0294
 4235TIP3    H234341   6.681   4.894   7.734 -0.0177  0.5609 -0.3470
 4236TIP3   OH234342   1.028   3.695   2.080  0.3499 -0.0552  0.4157
 4236TIP3    H134343   0.982   3.636   2.138  1.2383 -1.5761 -0.3499
 4236TIP3    H234344   1.043   3.644   2.000  2.2913  0.7517  0.2005
 4237TIP3   OH234345   5.056   5.232   0.447 -0.1660 -0.3743  0.0250
 4237TIP3    H134346   5.124   5.169   0.425 -1.5578 -1.7603 -0.5270
 4237TIP3    H234347   5.058   5.238   0.542 -0.6988 -2.1199  0.1850
 4238TIP3   OH234348   2.827   2.507   2.808  0.8885  0.2146 -0.5896
 4238TIP3    H134349   2.887   2.446   2.765  1.0327 -0.9353  1.1527
 4238TIP3    H234350   2.883   2.557   2.867  0.3494  0.0400  0.0802
 4239TIP3   OH234351   0.685   6.063   2.454 -0.3047  0.4227  0.1905
 4239TIP3    H134352   0.692   6.120   2.377 -2.0703  1.5458  0.8024
 4239TIP3    H234353   0.752   5.996   2.440 -0.2870  0.8288 -2.1159
 4240TIP3   OH234354   0.621   5.912   1.285  0.5296  0.3969  0.3384
 4240TIP3    H134355   0.550   5.903   1.348  1.1993 -0.4207  1.0037
 4240TIP3    H234356   0.578   5.931   1.202 -0.5652 -1.3397  0.4687
 4241TIP3   OH234357   4.728   3.548   3.040 -0.0308 -0.1115  0.2241
 4241TIP3    H134358   4.820   3.557   3.015 -0.9424  0.4756 -3.4385
 4241TIP3    H234359   4.703   3.460   3.010 -1.2532  0.6811 -1.2115
 4242TIP3   OH234360   5.887   6.425   1.171 -0.0259 -0.3265  0.4072
 4242TIP3    H134361   5.947   6.400   1.100 -0.8485 -0.4284 -0.2648
 4242TIP3    H234362   5.932   6.398   1.251  0.2181 -1.6682 -0.1641
 4243TIP3   OH234363   0.454   5.923   2.763  0.4987 -0.8159 -0.2021
 4243TIP3    H134364   0.439   5.893   2.673  1.1383 -2.0041  0.0576
 4243TIP3    H234365   0.437   5.845   2.817 -0.4978  0.0485  0.7675
 4244TIP3   OH234366   4.307   6.286   2.759  0.7169 -0.2036  0.4633
 4244TIP3    H134367   4.378   6.319   2.814 -0.2774  0.3878  1.4301
 4244TIP3    H234368   4.227   6.310   2.806 -0.3625  3.0485 -2.6427
 4245TIP3   OH234369   2.892   5.466   7.788  0.1577 -0.5022  0.2638
 4245TIP3    H134370   2.844   5.404   7.843 -0.6105  0.8837  1.2201
 4245TIP3    H234371   2.855   5.456   7.701 -1.4622  0.0646  0.8501
 4246TIP3   OH234372   3.834   5.151   8.897 -0.3723 -0.0331  0.2848
 4246TIP3    H134373   3.751   5.143   8.944  0.4779  0.3473  1.9283
 4246TIP3    H234374   3.811   5.137   8.805 -1.9135 -1.9961  0.9084
 4247TIP3   OH234375   2.779   3.627   8.166 -0.0391 -0.3354  0.5661
 4247TIP3    H134376   2.792   3.533   8.166 -1.8947 -0.6485 -0.6512
 4247TIP3    H234377   2.725   3.644   8.244  0.3817 -0.2407  0.8441
 4248TIP3   OH234378   4.666   2.691   1.104 -0.1649 -0.3151 -0.1206
 4248TIP3    H134379   4.636   2.782   1.107  0.8915  0.0661 -0.8623
 4248TIP3    H234380   4.713   2.679   1.187 -4.1203 -1.6165  2.2048
 4249TIP3   OH234381   5.565   4.207   2.616 -0.2606 -0.2768  0.3959
 4249TIP3    H134382   5.523   4.219   2.531  0.0759  2.4443  0.5134
 4249TIP3    H234383   5.618   4.286   2.628 -1.0119 -0.1147  3.5202
 4250TIP3   OH234384   2.269   2.151   1.721 -0.1544 -0.0507 -0.2627
 4250TIP3    H134385   2.323   2.213   1.770 -0.2151 -0.6930  0.6462
 4250TIP3    H234386   2.179   2.178   1.739 -0.1683  0.8431 -1.5451
 4251TIP3   OH234387   4.507   2.457   1.029 -0.1324  0.1516 -0.5843
 4251TIP3    H134388   4.570   2.527   1.042  0.6383 -0.4326 -1.1377
 4251TIP3    H234389   4.437   2.476   1.092  0.0581  1.4154 -0.7384
 4252TIP3   OH234390   3.858   6.435   7.673 -0.7152 -0.2680  0.0337
 4252TIP3    H134391   3.857   6.357   7.617 -1.3832  0.3234 -0.8095
 4252TIP3    H234392   3.889   6.505   7.616  0.4936 -0.0216  0.9546
 4253TIP3   OH234393   1.436   3.134   0.927  0.4177  0.0085  0.3333
 4253TIP3    H134394   1.406   3.225   0.926 -1.2424 -0.5237 -0.9919
 4253TIP3    H234395   1.509   3.133   0.865  0.4623  0.4371  0.3723
 4254TIP3   OH234396   6.598   2.952   8.392 -0.3497  0.0051 -0.0540
 4254TIP3    H134397   6.633   3.040   8.404  1.8834 -0.8093 -0.1509
 4254TIP3    H234398   6.537   2.960   8.318  0.9454  1.1963 -1.0399
 4255TIP3   OH234399   0.124   5.707   2.663  1.2491 -0.1246 -0.0919
 4255TIP3    H134400   0.094   5.689   2.752  0.7911  1.2904  0.0716
 4255TIP3    H234401   0.215   5.678   2.662  1.0728 -0.7157  0.6562
 4256TIP3   OH234402   4.633   1.829   1.910 -0.4403 -0.4619 -0.5947
 4256TIP3    H134403   4.689   1.794   1.979 -0.5944  2.0515  0.9385
 4256TIP3    H234404   4.563   1.874   1.957 -0.0766  2.0969 -2.3219
 4257TIP3   OH234405   2.614   0.390   2.224  0.5973  0.3012  0.0567
 4257TIP3    H134406   2.597   0.468   2.172  0.3036  0.4099  0.3163
 4257TIP3    H234407   2.529   0.365   2.258  0.5711 -0.5205 -0.5718
 4258TIP3   OH234408   3.053   5.025   2.936 -0.5915 -0.0373 -0.3272
 4258TIP3    H134409   3.063   4.974   2.856 -0.2664 -0.5523  0.0363
 4258TIP3    H234410   3.137   5.070   2.946  0.0765 -1.4279  0.7071
 4259TIP3   OH234411   1.435   4.621   0.251 -0.6534  0.1306 -0.2181
 4259TIP3    H134412   1.467   4.692   0.307 -0.7472 -0.9270  1.2287
 4259TIP3    H234413   1.438   4.543   0.306 -0.1344 -1.1036 -1.8959
 4260TIP3   OH234414   3.765   2.388   1.754 -0.2571 -0.3211 -0.3475
 4260TIP3    H134415   3.791   2.478   1.774 -1.0441  0.2104 -1.5689
 4260TIP3    H234416   3.762   2.344   1.839  0.7848  0.6173  0.2087
 4261TIP3   OH234417   1.805   2.771   2.466  0.2557  0.5375  0.6814
 4261TIP3    H134418   1.827   2.857   2.428  0.8521 -0.1874 -0.6754
 4261TIP3    H234419   1.886   2.742   2.508  0.7743 -0.3390 -0.8344
 4262TIP3   OH234420   4.408   1.355   1.108 -0.2061  0.4302 -0.2193
 4262TIP3    H134421   4.370   1.439   1.084 -0.4028  0.0168 -1.4138
 4262TIP3    H234422   4.498   1.375   1.133  0.4568  0.7517 -2.6466
 4263TIP3   OH234423   6.217   5.622   0.264  0.4090  0.0360 -0.0591
 4263TIP3    H134424   6.230   5.539   0.310  0.2173  0.4327  0.7317
 4263TIP3    H234425   6.143   5.662   0.310 -0.3956  0.0265 -1.3127
 4264TIP3   OH234426   1.349   3.080   0.284  0.6037  0.7990 -0.2410
 4264TIP3    H134427   1.441   3.054   0.288  0.8020  1.6252  1.1626
 4264TIP3    H234428   1.350   3.175   0.282 -0.2163  0.9670  2.5486
 4265TIP3   OH234429   0.126   0.221   0.038  0.0822 -0.5621  0.4975
 4265TIP3    H134430   0.037   0.253   0.021  0.4123  0.3169  0.3810
 4265TIP3    H234431   0.140   0.239   0.131  0.6390  0.6214  0.2114
 4266TIP3   OH234432   5.610   0.640   2.986 -0.2429 -0.1471  0.7828
 4266TIP3    H134433   5.590   0.546   2.994 -2.1815  0.3189  1.8707
 4266TIP3    H234434   5.530   0.679   2.952  0.2668  1.2490  1.1226
 4267TIP3   OH234435   5.778   5.981   0.442  0.5192 -0.7376  0.0793
 4267TIP3    H134436   5.717   6.050   0.415  0.4537 -0.8196  0.0155
 4267TIP3    H234437   5.739   5.945   0.522  1.3196  0.2997  0.9698
 4268TIP3   OH234438   6.099   1.848   3.551 -0.0744 -0.2728  0.0905
 4268TIP3    H134439   6.023   1.826   3.497 -0.1054 -0.6202  0.2714
 4268TIP3    H234440   6.104   1.778   3.615  1.2394 -1.0627 -0.8109
 4269TIP3   OH234441   5.650   4.522   7.518 -0.5912  0.0968 -0.0085
 4269TIP3    H134442   5.673   4.433   7.545 -1.8087  0.0105  0.7769
 4269TIP3    H234443   5.681   4.577   7.590  1.4395  0.4967 -1.1141
 4270TIP3   OH234444   5.682   3.358   2.514 -0.0071  0.2381  0.2097
 4270TIP3    H134445   5.589   3.383   2.516 -0.2228 -0.1377 -2.1709
 4270TIP3    H234446   5.728   3.437   2.543 -1.0341  0.4392  1.4128
 4271TIP3   OH234447   0.542   0.350   2.153  0.0895  0.4179 -0.1577
 4271TIP3    H134448   0.467   0.291   2.154 -0.0205  0.5628  0.1568
 4271TIP3    H234449   0.542   0.387   2.064  1.5525 -1.8069 -1.1639
 4272TIP3   OH234450   2.157   0.936   0.606 -0.1318  0.6753  0.2979
 4272TIP3    H134451   2.174   1.029   0.621 -0.0788  0.7961 -0.4569
 4272TIP3    H234452   2.062   0.931   0.594  0.1798  1.3407 -3.8981
 4273TIP3   OH234453   0.611   3.053   3.397 -0.4454 -0.7998 -0.2085
 4273TIP3    H134454   0.561   2.977   3.365  1.0325 -1.2092 -1.6742
 4273TIP3    H234455   0.642   3.026   3.483 -1.0136 -1.3407 -0.1606
 4274TIP3   OH234456   5.188   0.241   7.870 -0.1779 -0.4841  0.2853
 4274TIP3    H134457   5.177   0.196   7.953 -2.5147 -1.6384 -0.5773
 4274TIP3    H234458   5.100   0.267   7.844  0.8350  3.4604  0.0096
 4275TIP3   OH234459   4.280   1.330   2.850  0.4182  0.0049 -0.0991
 4275TIP3    H134460   4.346   1.260   2.845  0.5292  0.1675 -1.5044
 4275TIP3    H234461   4.209   1.293   2.902  1.0500 -0.6592  0.3130
 4276TIP3   OH234462   6.421   2.752   8.494 -0.6664 -0.5382 -0.3182
 4276TIP3    H134463   6.376   2.700   8.427  1.2870 -1.7600 -0.7350
 4276TIP3    H234464   6.466   2.821   8.444  0.3444 -1.1205 -0.2239
 4277TIP3   OH234465   2.890   2.969   7.872 -0.2043  0.5189 -0.0955
 4277TIP3    H134466   2.862   3.061   7.868 -0.3279  0.5277  0.7631
 4277TIP3    H234467   2.893   2.949   7.965  0.3196 -0.2049 -0.2565
 4278TIP3   OH234468   6.201   1.253   7.400 -0.0903  0.0470 -0.1505
 4278TIP3    H134469   6.254   1.184   7.439 -0.1207 -0.4113 -0.8941
 4278TIP3    H234470   6.131   1.269   7.464 -0.8108 -1.5028 -0.4951
 4279TIP3   OH234471   4.476   0.449   8.182  0.6021  0.0490  0.2034
 4279TIP3    H134472   4.513   0.361   8.180 -2.4544 -1.3264 -0.6224
 4279TIP3    H234473   4.473   0.476   8.090  0.0033  0.3206  0.2989
 4280TIP3   OH234474   1.126   1.468   8.585  0.1150  0.0461 -0.0667
 4280TIP3    H134475   1.145   1.378   8.558  0.0783  0.1281 -0.3780
 4280TIP3    H234476   1.045   1.491   8.539  0.4586  0.4471 -0.4920
 4281TIP3   OH234477   6.147   4.099   1.940  0.3899 -0.2940  0.1267
 4281TIP3    H134478   6.171   4.139   2.024  1.9734 -1.2890  0.1873
 4281TIP3    H234479   6.192   4.151   1.875  0.6705 -0.6507  0.0359
 4282TIP3   OH234480   1.123   4.439   2.449  0.0324  0.7863 -0.5803
 4282TIP3    H134481   1.077   4.509   2.402 -0.7501 -0.4758 -1.7555
 4282TIP3    H234482   1.126   4.469   2.540 -0.8878  2.0370 -0.9386
 4283TIP3   OH234483   5.804   4.683   0.316 -0.1842  0.0468  0.2024
 4283TIP3    H134484   5.763   4.763   0.347  0.0050  0.3482 -0.3028
 4283TIP3    H234485   5.893   4.686   0.351  0.5112  1.1204 -1.5308
 4284TIP3   OH234486   4.846   3.903   8.107  0.0225  0.3815  0.1776
 4284TIP3    H134487   4.938   3.883   8.126  0.4387  0.9481 -1.1311
 4284TIP3    H234488   4.809   3.928   8.191  0.2704 -2.6935  1.3431
 4285TIP3   OH234489   5.900   2.912   1.020 -0.5229 -0.6514 -0.2567
 4285TIP3    H134490   5.861   2.953   1.097 -0.9703 -1.2017 -0.1846
 4285TIP3    H234491   5.991   2.894   1.046 -0.3146  0.3058 -0.3019
 4286TIP3   OH234492   0.118   6.494   8.024 -0.1157  1.0342  0.0784
 4286TIP3    H134493   0.123   6.581   7.983  0.8251  1.2099  0.5424
 4286TIP3    H234494   0.193   6.491   8.083 -0.5729  0.1895  0.6391
 4287TIP3   OH234495   1.190   5.439   3.214 -0.5605  0.0149 -0.2161
 4287TIP3    H134496   1.273   5.404   3.182 -0.5552 -1.8158  1.6132
 4287TIP3    H234497   1.129   5.365   3.210 -1.9440  1.1290 -0.8284
 4288TIP3   OH234498   1.638   2.254   2.862  0.1860 -0.2095  0.1836
 4288TIP3    H134499   1.629   2.166   2.827 -0.0492 -0.2763  0.4154
 4288TIP3    H234500   1.610   2.247   2.953  1.5019 -0.2021  0.6217
 4289TIP3   OH234501   1.701   0.711   8.837 -0.1151 -0.0091 -0.9255
 4289TIP3    H134502   1.673   0.620   8.839 -1.8720  0.5038 -0.3587
 4289TIP3    H234503   1.677   0.746   8.923 -1.5042  1.5091 -1.8533
 4290TIP3   OH234504   3.171   3.368   2.608  0.6442 -0.0509  0.1513
 4290TIP3    H134505   3.253   3.410   2.634  1.7202 -1.8254 -0.2148
 4290TIP3    H234506   3.189   3.274   2.615 -0.6259 -0.5373 -2.0285
 4291TIP3   OH234507   1.436   5.199   1.234 -0.2673 -0.0903  0.2286
 4291TIP3    H134508   1.527   5.176   1.251 -0.4751 -1.4411 -0.3947
 4291TIP3    H234509   1.440   5.261   1.161  0.1881  0.4199  0.6828
 4292TIP3   OH234510   2.190   1.054   1.631  0.4371 -0.1543 -0.4319
 4292TIP3    H134511   2.238   1.040   1.549 -0.7541 -1.6141 -0.9101
 4292TIP3    H234512   2.119   0.990   1.629 -0.7214  1.0154  0.8992
 4293TIP3   OH234513   6.447   1.877   2.289 -0.9412 -0.7741 -0.1593
 4293TIP3    H134514   6.388   1.877   2.213  0.5083  1.3822 -1.3924
 4293TIP3    H234515   6.408   1.941   2.349 -0.0034  0.6037 -0.9470
 4294TIP3   OH234516   0.767   5.211   1.197 -0.5046 -0.0824  0.0915
 4294TIP3    H134517   0.848   5.260   1.214  2.1409 -2.5305 -3.7374
 4294TIP3    H234518   0.717   5.268   1.139  0.7970 -0.3256 -1.3363
 4295TIP3   OH234519   6.673   1.585   8.402 -0.1148  0.4613  0.2322
 4295TIP3    H134520   6.697   1.670   8.438  2.6621 -0.2622  0.2975
 4295TIP3    H234521   6.693   1.592   8.308  3.5447 -1.0559  0.7325
 4296TIP3   OH234522   3.747   5.699   2.137  0.5640  0.1011  0.4810
 4296TIP3    H134523   3.806   5.675   2.066 -0.5195  1.3663 -0.9194
 4296TIP3    H234524   3.711   5.615   2.167 -0.2406 -0.3832 -1.6457
 4297TIP3   OH234525   5.079   0.084   2.581 -0.2800 -0.2433 -1.1664
 4297TIP3    H134526   5.111   0.070   2.492  2.2606 -1.5876 -0.1206
 4297TIP3    H234527   5.031   0.004   2.602  1.3551 -1.0942 -0.4802
 4298TIP3   OH234528   0.792   5.597   1.922 -0.2613  0.3732 -0.0061
 4298TIP3    H134529   0.765   5.687   1.906  0.4663  0.2493 -2.1942
 4298TIP3    H234530   0.882   5.592   1.889 -0.0187 -0.9824  0.7574
 4299TIP3   OH234531   1.569   6.426   1.269 -0.2186 -0.3751 -0.1268
 4299TIP3    H134532   1.493   6.483   1.268 -0.2385 -0.4024 -1.5094
 4299TIP3    H234533   1.610   6.443   1.354 -0.1196  1.8106 -0.5583
 4300TIP3   OH234534   2.965   1.833   1.666 -0.1726  0.8511 -0.0456
 4300TIP3    H134535   2.972   1.818   1.760  2.1406  2.0552  0.0404
 4300TIP3    H234536   2.923   1.918   1.658  1.0501  1.4749 -0.0205
 4301TIP3   OH234537   2.933   6.015   0.793 -0.5114  0.2936 -0.0007
 4301TIP3    H134538   2.838   6.015   0.807 -0.7197  0.0433 -1.2456
 4301TIP3    H234539   2.943   6.004   0.698  0.7553  1.3682 -0.0216
 4302TIP3   OH234540   6.447   3.677   3.230 -0.1107  0.0493 -0.1960
 4302TIP3    H134541   6.519   3.738   3.244  0.3241  0.0917 -2.3093
 4302TIP3    H234542   6.388   3.722   3.170 -0.1445 -1.3155 -1.2214
 4303TIP3   OH234543   0.455   6.702   3.339  0.0393  0.2579  0.1127
 4303TIP3    H134544   0.371   6.672   3.373 -1.6958  2.4273 -1.8890
 4303TIP3    H234545   0.446   6.798   3.335  2.8105  0.5996  0.2477
 4304TIP3   OH234546   5.692   6.443   0.270 -0.5476  0.2270 -0.1409
 4304TIP3    H134547   5.662   6.432   0.360 -1.6600 -0.2259 -0.5438
 4304TIP3    H234548   5.782   6.473   0.278  0.1458 -1.9546  1.1248
 4305TIP3   OH234549   1.962   5.810   2.125 -0.1012 -0.3178  0.5928
 4305TIP3    H134550   1.888   5.870   2.116 -1.2386 -1.8411 -1.0692
 4305TIP3    H234551   2.009   5.817   2.042  1.8118  0.7927  1.7087
 4306TIP3   OH234552   3.089   5.812   8.072 -0.3830 -0.2485 -0.5136
 4306TIP3    H134553   3.034   5.763   8.132  1.8906 -2.3808  0.0072
 4306TIP3    H234554   3.177   5.777   8.086  1.0701  2.6369 -1.6062
 4307TIP3   OH234555   0.440   4.118   8.358 -0.4393  0.1369  0.5498
 4307TIP3    H134556   0.482   4.032   8.357  1.7830  1.1309 -0.6385
 4307TIP3    H234557   0.498   4.172   8.411  0.7855  1.9400 -2.3396
 4308TIP3   OH234558   6.510   3.747   0.511 -0.1364  0.6947  0.0772
 4308TIP3    H134559   6.497   3.742   0.416 -1.0855  1.0625  0.1809
 4308TIP3    H234560   6.603   3.728   0.523 -0.2296 -0.4692 -0.8364
 4309TIP3   OH234561   2.003   6.305   1.291 -0.2104 -0.0602 -0.0676
 4309TIP3    H134562   2.012   6.210   1.288  2.0326  0.0605  0.6680
 4309TIP3    H234563   1.934   6.325   1.228 -0.1935 -2.1134 -0.8080
 4310TIP3   OH234564   2.223   4.408   0.499  0.0730 -0.2887  0.2914
 4310TIP3    H134565   2.234   4.365   0.414  1.4801  2.1737 -0.8824
 4310TIP3    H234566   2.256   4.345   0.562  1.1785 -1.3139 -1.2412
 4311TIP3   OH234567   4.146   4.663   2.830 -0.2996  0.0001 -0.4052
 4311TIP3    H134568   4.118   4.583   2.875  0.5334 -0.8319 -1.3285
 4311TIP3    H234569   4.226   4.689   2.877 -0.5518  0.2848 -0.1264
 4312TIP3   OH234570   5.808   1.927   2.649  0.2188  0.2163 -0.0044
 4312TIP3    H134571   5.855   1.997   2.603  0.1078  0.7797  0.7218
 4312TIP3    H234572   5.825   1.849   2.597 -1.6938  1.1952 -2.3328
 4313TIP3   OH234573   4.928   4.124   1.663  0.1652 -0.3154  0.2040
 4313TIP3    H134574   4.936   4.101   1.755  0.1803 -1.4219 -0.0619
 4313TIP3    H234575   5.015   4.110   1.627  0.0318 -0.3854 -0.0938
 4314TIP3   OH234576   4.541   0.690   1.534 -0.0967 -0.1389  0.8745
 4314TIP3    H134577   4.608   0.680   1.466 -1.3016 -0.4535 -0.3111
 4314TIP3    H234578   4.463   0.649   1.497 -0.6899 -0.6867  2.6424
 4315TIP3   OH234579   6.131   3.129   1.433  0.3610  0.2351  0.0050
 4315TIP3    H134580   6.212   3.080   1.444  0.6957  0.8583  0.3649
 4315TIP3    H234581   6.146   3.211   1.479 -0.3034  0.5541 -0.3335
 4316TIP3   OH234582   5.684   5.394   0.467 -0.4644  0.1817  0.1192
 4316TIP3    H134583   5.706   5.413   0.558  0.3214  1.5815 -0.3375
 4316TIP3    H234584   5.597   5.431   0.455 -0.3535  0.4500  0.1521
 4317TIP3   OH234585   3.750   3.968   1.447  0.3385 -0.0279 -0.3644
 4317TIP3    H134586   3.807   3.894   1.468 -2.2076 -1.8187  0.6825
 4317TIP3    H234587   3.725   3.954   1.356  0.3047 -0.1330 -0.3387
 4318TIP3   OH234588   6.634   1.771   1.861 -0.0332 -0.1412  0.0943
 4318TIP3    H134589   6.594   1.685   1.868 -0.1851 -0.0555  0.2795
 4318TIP3    H234590   6.713   1.766   1.915 -1.2353  0.5407  2.0113
 4319TIP3   OH234591   2.081   1.072   8.243 -0.2689 -0.1272  0.0164
 4319TIP3    H134592   2.160   1.094   8.292  0.3124 -1.5181 -0.2566
 4319TIP3    H234593   2.112   1.022   8.168 -1.2437  1.0657 -1.2337
 4320TIP3   OH234594   1.703   5.809   8.217 -0.0771 -0.4917 -0.2606
 4320TIP3    H134595   1.757   5.850   8.150  0.4900  1.1062  1.1043
 4320TIP3    H234596   1.740   5.840   8.300 -0.3628 -2.8810  0.8457
 4321TIP3   OH234597   2.352   4.677   2.406 -0.3134  0.0672  0.2213
 4321TIP3    H134598   2.368   4.651   2.497  1.1157 -0.9424 -0.2683
 4321TIP3    H234599   2.286   4.615   2.375  0.3789 -0.6419  0.1276
 4322TIP3   OH234600   3.545   1.249   0.003  0.5358  0.2317  0.0487
 4322TIP3    H134601   3.579   1.319   0.058 -0.8888 -0.1387  1.5009
 4322TIP3    H234602   3.450   1.257   0.010  0.3263 -0.6106 -1.3902
 4323TIP3   OH234603   2.233   4.322   8.398 -0.2398  0.5338  0.3157
 4323TIP3    H134604   2.243   4.376   8.477  0.8284 -2.9293  2.8130
 4323TIP3    H234605   2.139   4.307   8.391 -0.3162  0.5641  1.1753
 4324TIP3   OH234606   4.728   3.062   8.897  0.3071  0.1141  0.1973
 4324TIP3    H134607   4.804   3.008   8.874  0.4164  0.4911 -0.3580
 4324TIP3    H234608   4.692   3.021   8.976 -0.0271 -1.1739 -0.5939
 4325TIP3   OH234609   1.380   0.930   8.939 -0.4974 -0.5672  0.0766
 4325TIP3    H134610   1.378   0.865   8.869 -0.5409 -0.1138 -0.3549
 4325TIP3    H234611   1.401   1.012   8.894  1.8207 -0.6442  0.9098
 4326TIP3   OH234612   0.855   3.032   7.624 -0.5744 -0.3272 -0.3362
 4326TIP3    H134613   0.877   3.106   7.567 -0.4121  0.7623  1.1088
 4326TIP3    H234614   0.798   3.069   7.691 -2.0033 -1.8963 -0.6104
 4327TIP3   OH234615   6.381   6.435   7.995 -0.4946 -0.7704  0.2705
 4327TIP3    H134616   6.440   6.487   7.940 -0.9810  0.3774  0.7852
 4327TIP3    H234617   6.296   6.478   7.985 -0.4866 -0.1492  2.3716
 4328TIP3   OH234618   4.067   0.219   8.873 -0.7205 -0.1556 -0.4768
 4328TIP3    H134619   3.983   0.175   8.858 -0.4261 -0.8000 -0.2725
 4328TIP3    H234620   4.133   0.152   8.854 -0.2409  0.4163 -0.8831
 4329TIP3   OH234621   6.721   3.187   2.470  0.1942 -0.0315  0.6528
 4329TIP3    H134622   6.709   3.123   2.399  1.0464  0.8539 -0.3280
 4329TIP3    H234623   6.721   3.272   2.426 -1.4768  0.7263  1.9907
 4330TIP3   OH234624   2.337   3.292   0.433  0.2489 -0.9087  0.3311
 4330TIP3    H134625   2.414   3.251   0.474  1.0960  1.0058  0.8016
 4330TIP3    H234626   2.269   3.287   0.501  0.6650 -0.5946  0.7779
 4331TIP3   OH234627   6.147   1.972   8.706 -0.3914 -0.0019 -0.2776
 4331TIP3    H134628   6.228   1.969   8.653 -0.5225  3.8661 -1.0341
 4331TIP3    H234629   6.159   1.903   8.771  1.6610 -2.2779 -2.7733
 4332TIP3   OH234630   2.281   4.453   8.675 -0.3135 -0.4783 -0.0766
 4332TIP3    H134631   2.206   4.424   8.728 -0.0421 -2.1912 -0.5744
 4332TIP3    H234632   2.357   4.440   8.731 -0.3109  0.5394  0.1603
 4333TIP3   OH234633   4.668   3.934   8.333  0.1697  0.1788 -0.1861
 4333TIP3    H134634   4.670   3.839   8.347  1.6156 -0.3388 -3.1437
 4333TIP3    H234635   4.578   3.959   8.351  0.1285 -1.4178  2.2459
 4334TIP3   OH234636   4.461   1.370   0.779 -0.2173  0.1740  0.8474
 4334TIP3    H134637   4.384   1.407   0.822  0.0635 -0.8836  2.3057
 4334TIP3    H234638   4.426   1.327   0.700 -1.0166  0.2824  1.1317
 4335TIP3   OH234639   0.746   2.940   8.570 -0.0068 -0.1222 -0.3042
 4335TIP3    H134640   0.651   2.928   8.566  0.0072 -0.7318  0.8214
 4335TIP3    H234641   0.781   2.852   8.577  0.6560  0.1032 -0.6758
 4336TIP3   OH234642   2.170   6.262   1.726  0.8105 -0.4949 -0.4989
 4336TIP3    H134643   2.240   6.291   1.784  1.2595  2.2000 -2.2021
 4336TIP3    H234644   2.212   6.247   1.642 -0.5970  1.3878 -1.6233
 4337TIP3   OH234645   1.321   4.877   2.525  0.8313 -0.1435  0.2784
 4337TIP3    H134646   1.343   4.909   2.438  1.0798  0.5060  0.5691
 4337TIP3    H234647   1.321   4.782   2.517  0.5828 -0.0811 -0.4883
 4338TIP3   OH234648   3.299   3.466   1.837  0.3349  0.2967 -0.3902
 4338TIP3    H134649   3.246   3.460   1.917 -0.0532  0.9484 -0.5875
 4338TIP3    H234650   3.376   3.516   1.862  1.1924 -1.2103  0.0579
 4339TIP3   OH234651   0.973   6.503   1.100 -0.2597 -0.8808 -0.0171
 4339TIP3    H134652   0.883   6.513   1.070 -0.2468  0.6216  0.3874
 4339TIP3    H234653   0.971   6.529   1.192  0.6486 -0.5315 -0.0855
 4340TIP3   OH234654   0.405   6.323   2.455 -0.2608  0.2063  0.8552
 4340TIP3    H134655   0.409   6.242   2.404  3.0136  0.0660  1.1175
 4340TIP3    H234656   0.418   6.295   2.546 -1.7286  0.8304  1.2819
 4341TIP3   OH234657   4.226   5.208   2.426  0.7169  0.7693  0.3867
 4341TIP3    H134658   4.318   5.236   2.428  0.7481  0.8151 -0.7307
 4341TIP3    H234659   4.193   5.229   2.513  1.7053  0.9572  0.7378
 4342TIP3   OH234660   1.942   4.509   0.881  0.2498  0.0466 -0.3323
 4342TIP3    H134661   1.963   4.575   0.947 -0.4729 -0.3951  0.3579
 4342TIP3    H234662   1.927   4.559   0.801  0.6780  0.6290 -0.0595
 4343TIP3   OH234663   6.233   2.118   1.964  0.0263  0.1602  0.0622
 4343TIP3    H134664   6.312   2.163   1.935  0.2561  0.2835  0.8493
 4343TIP3    H234665   6.203   2.170   2.039 -0.3183 -0.3761  0.2972
 4344TIP3   OH234666   1.017   6.029   8.889 -0.5382 -0.1237 -0.5743
 4344TIP3    H134667   0.983   6.045   8.977  1.9387 -0.9303  0.6136
 4344TIP3    H234668   1.112   6.030   8.899 -0.1709 -0.3130 -3.2518
 4345TIP3   OH234669   4.853   5.354   1.413  0.2459 -0.3552 -0.8895
 4345TIP3    H134670   4.923   5.419   1.413 -1.6589  1.8286 -1.4824
 4345TIP3    H234671   4.820   5.355   1.323 -0.3513 -1.5710 -0.7064
 4346TIP3   OH234672   3.478   4.885   1.220  0.5046  0.2290  0.0950
 4346TIP3    H134673   3.471   4.858   1.128 -3.1522  1.0754  0.0023
 4346TIP3    H234674   3.458   4.806   1.270 -1.6734  0.6453 -0.0133
 4347TIP3   OH234675   4.534   6.525   1.401  0.0558  0.4887  0.2577
 4347TIP3    H134676   4.495   6.441   1.426  0.1745  0.3614  0.0197
 4347TIP3    H234677   4.541   6.520   1.305  2.7950 -0.4363  0.4285
 4348TIP3   OH234678   6.644   5.845   3.459  0.2051 -0.3142  0.3480
 4348TIP3    H134679   6.584   5.895   3.514  0.9775  0.2094  0.7409
 4348TIP3    H234680   6.589   5.782   3.414 -0.7860  0.8488 -0.1121
 4349TIP3   OH234681   5.154   0.887   0.320 -0.3756  0.3694  0.2195
 4349TIP3    H134682   5.158   0.792   0.318  0.7911  0.4022 -2.4119
 4349TIP3    H234683   5.241   0.916   0.295 -0.5548  2.1753  1.4831
 4350TIP3   OH234684   0.313   0.155   8.811  0.2256 -0.0442 -0.1716
 4350TIP3    H134685   0.287   0.180   8.900  0.7124  1.2733 -0.3894
 4350TIP3    H234686   0.317   0.237   8.763  1.3191 -0.6013 -1.0626
 4351TIP3   OH234687   5.615   1.222   1.210  0.7860  0.4356 -0.3930
 4351TIP3    H134688   5.700   1.245   1.171  0.4824 -0.6119 -1.7569
 4351TIP3    H234689   5.632   1.140   1.256  0.3570 -0.1925 -1.3318
 4352TIP3   OH234690   4.264   6.771   2.785 -0.3649  0.3673 -0.3933
 4352TIP3    H134691   4.335   6.707   2.777  0.4911  1.2608 -0.1226
 4352TIP3    H234692   4.301   6.841   2.838 -1.6144  0.6432  0.1329
 4353TIP3   OH234693   2.156   0.681   8.916  0.2828 -0.3036  0.2720
 4353TIP3    H134694   2.102   0.607   8.888  0.1056 -0.5926  1.3282
 4353TIP3    H234695   2.106   0.721   8.987  2.2954 -1.7702  2.6709
 4354TIP3   OH234696   0.157   6.659   0.012  0.0990 -0.1150 -0.1974
 4354TIP3    H134697   0.087   6.686  -0.047 -0.4611  0.2533  0.5995
 4354TIP3    H234698   0.130   6.573   0.043 -0.4387  0.3598  0.7209
 4355TIP3   OH234699   1.302   1.233   3.723 -0.1116  0.6933  0.0072
 4355TIP3    H134700   1.359   1.184   3.782  0.4776  1.1060 -0.2104
 4355TIP3    H234701   1.361   1.289   3.673 -0.5441  0.0118 -1.3244
 4356TIP3   OH234702   2.453   3.740   0.514 -0.0695  0.4127 -0.5069
 4356TIP3    H134703   2.505   3.721   0.436  1.0857 -1.2326  0.5921
 4356TIP3    H234704   2.363   3.746   0.482  0.2883 -0.9843 -1.8790
 4357TIP3   OH234705   6.381   1.256   0.902  0.1572 -0.3730 -0.7626
 4357TIP3    H134706   6.310   1.300   0.854  0.0817 -0.3813 -0.6586
 4357TIP3    H234707   6.403   1.180   0.848 -0.1992 -0.6021 -0.5837
 4358TIP3   OH234708   1.823   2.696   0.124 -0.1917 -0.0486  0.5426
 4358TIP3    H134709   1.781   2.638   0.187 -0.6231  2.3902  2.6920
 4358TIP3    H234710   1.750   2.744   0.084  0.2333  0.4121  0.3133
 4359TIP3   OH234711   5.110   1.955   1.009  0.2225  0.1323 -0.4410
 4359TIP3    H134712   5.139   1.972   1.099  1.5270  2.8102 -1.2410
 4359TIP3    H234713   5.152   1.873   0.985 -0.4846 -0.8504  1.4958
 4360TIP3   OH234714   3.188   3.514   2.091 -0.0724 -0.9405 -0.2250
 4360TIP3    H134715   3.163   3.603   2.118 -1.9079 -1.8736  1.3863
 4360TIP3    H234716   3.236   3.479   2.166  1.1867 -1.1580 -1.0933
 4361TIP3   OH234717   2.923   4.247   2.565  0.1593  0.0575  0.0777
 4361TIP3    H134718   2.863   4.250   2.639  1.7437  0.5416  1.4250
 4361TIP3    H234719   3.007   4.275   2.602  0.7070  1.7955 -2.2529
 4362TIP3   OH234720   3.450   2.113   2.754 -0.2125  0.5680  0.0245
 4362TIP3    H134721   3.368   2.146   2.790 -1.1317 -0.3253 -1.1604
 4362TIP3    H234722   3.474   2.176   2.687  0.7249  1.4561  1.1591
 4363TIP3   OH234723   2.287   2.695   2.135 -0.3545  0.2968 -0.3157
 4363TIP3    H134724   2.338   2.618   2.160  2.7402  2.2582 -0.1280
 4363TIP3    H234725   2.274   2.686   2.041  1.8436  0.4819 -0.6850
 4364TIP3   OH234726   1.452   4.210   1.699 -0.5383 -0.2277  0.2786
 4364TIP3    H134727   1.530   4.200   1.643 -2.0688 -0.8950 -1.8633
 4364TIP3    H234728   1.453   4.134   1.756  1.0055  0.4100  1.1709
 4365TIP3   OH234729   5.395   1.783   0.198 -0.3174 -0.1954  0.3096
 4365TIP3    H134730   5.461   1.738   0.145  0.5741 -0.0610  1.2841
 4365TIP3    H234731   5.372   1.861   0.147  0.3038 -0.2169 -0.0083
 4366TIP3   OH234732   0.823   2.769   7.647 -0.0824  0.2874 -0.3171
 4366TIP3    H134733   0.800   2.768   7.740 -0.3674  0.2240 -0.3891
 4366TIP3    H234734   0.800   2.857   7.617 -0.4376  0.1541 -0.4399
 4367TIP3   OH234735   1.798   0.800   1.004  0.0610  0.2184  0.3080
 4367TIP3    H134736   1.816   0.799   1.098  0.3090 -0.4393  0.2566
 4367TIP3    H234737   1.837   0.882   0.973  0.7430  0.0278  0.6415
 4368TIP3   OH234738   1.062   4.016   2.345 -0.0792  0.3921 -0.7987
 4368TIP3    H134739   1.020   4.083   2.399 -0.2153 -0.1259 -0.2536
 4368TIP3    H234740   1.155   4.038   2.347  0.6354 -2.0156  3.2528
 4369TIP3   OH234741   3.959   0.663   1.736 -0.4845 -0.7009  0.0109
 4369TIP3    H134742   3.993   0.585   1.693  1.0392 -1.4340  2.3817
 4369TIP3    H234743   3.880   0.632   1.782  1.4537 -1.5919  2.9980
 4370TIP3   OH234744   5.353   5.236   7.998 -0.4093 -0.3438  0.6111
 4370TIP3    H134745   5.297   5.194   7.932  0.1152 -0.7537  0.4167
 4370TIP3    H234746   5.380   5.164   8.056 -0.1860 -0.1275  0.7809
 4371TIP3   OH234747   0.596   6.272   3.370  0.9485  0.1769 -0.0688
 4371TIP3    H134748   0.687   6.259   3.399  0.3566 -2.1897  0.9043
 4371TIP3    H234749   0.547   6.285   3.451  0.4414  2.0099 -0.6228
 4372TIP3   OH234750   5.817   0.310   1.676  0.6618  0.0038  0.0580
 4372TIP3    H134751   5.746   0.335   1.617  2.0191  2.1569 -0.8098
 4372TIP3    H234752   5.888   0.284   1.617  2.0760  2.2723  0.6279
 4373TIP3   OH234753   5.650   5.145   8.119  0.1444 -0.1379  0.1912
 4373TIP3    H134754   5.726   5.195   8.088  1.0095 -1.0198  0.8000
 4373TIP3    H234755   5.601   5.207   8.173 -0.2417  0.7915 -1.1717
 4374TIP3   OH234756   2.219   1.155   3.123  0.7912  0.1541 -0.2409
 4374TIP3    H134757   2.177   1.069   3.125 -1.6135  1.1961 -1.7120
 4374TIP3    H234758   2.246   1.167   3.032 -0.6761  1.7030 -0.5155
 4375TIP3   OH234759   3.626   3.681   2.278  0.0523  0.2126 -0.5075
 4375TIP3    H134760   3.605   3.761   2.230 -1.9268 -0.9098 -1.6191
 4375TIP3    H234761   3.542   3.649   2.311  1.1425  0.1295  2.5592
 4376TIP3   OH234762   2.917   2.710   8.680  0.1833  0.5487 -0.2540
 4376TIP3    H134763   2.955   2.631   8.719 -0.9240 -0.3663 -0.9690
 4376TIP3    H234764   2.892   2.764   8.755  0.1102 -0.1988  0.2702
 4377TIP3   OH234765   1.495   0.322   1.665  0.3309 -0.3112  0.2481
 4377TIP3    H134766   1.413   0.370   1.670  0.0226 -0.7779 -0.3430
 4377TIP3    H234767   1.525   0.318   1.756  0.6371  1.4558  0.2653
 4378TIP3   OH234768   4.618   3.863   2.076  0.3811 -0.4479  0.6899
 4378TIP3    H134769   4.713   3.856   2.084  0.4148  0.1208  0.8932
 4378TIP3    H234770   4.592   3.917   2.151 -0.2407 -1.5559  1.3037
 4379TIP3   OH234771   2.623   6.498   0.716 -0.1854  0.0661 -0.0959
 4379TIP3    H134772   2.687   6.568   0.729  0.4072 -0.3802 -0.5671
 4379TIP3    H234773   2.628   6.478   0.622  1.0601 -1.9280  0.3523
 4380TIP3   OH234774   4.224   5.068   1.149  0.6656 -1.0676 -0.2153
 4380TIP3    H134775   4.194   5.076   1.240  2.5210 -1.0115  0.4343
 4380TIP3    H234776   4.294   5.133   1.141  1.9530 -2.4933 -1.0546
 4381TIP3   OH234777   6.232   0.612   8.503 -0.1056 -0.4918  0.4485
 4381TIP3    H134778   6.169   0.605   8.431  0.2718 -0.0297  0.0731
 4381TIP3    H234779   6.297   0.675   8.473  0.6038 -1.0434  0.7941
 4382TIP3   OH234780   6.708   3.353   1.367  0.1792  0.2000 -0.0291
 4382TIP3    H134781   6.620   3.361   1.328  0.1462  1.2306  0.2301
 4382TIP3    H234782   6.703   3.272   1.419 -1.1818  1.1270  1.3767
 4383TIP3   OH234783   0.670   5.418   0.600  0.1285 -0.3240 -0.4123
 4383TIP3    H134784   0.587   5.464   0.590  0.0854 -0.1402  0.5915
 4383TIP3    H234785   0.646   5.333   0.636  0.3605 -0.2935 -0.1814
 4384TIP3   OH234786   4.323   0.084   2.433  0.1312 -0.0687 -0.4833
 4384TIP3    H134787   4.324   0.175   2.462 -1.4957 -0.0533 -0.3909
 4384TIP3    H234788   4.416   0.060   2.426  0.5939  1.7640 -1.1016
 4385TIP3   OH234789   3.817   5.397   0.146  0.2968  0.2309  0.2708
 4385TIP3    H134790   3.822   5.302   0.150  0.1028  0.0490 -2.1424
 4385TIP3    H234791   3.733   5.419   0.185 -1.1625 -0.9257 -2.0089
 4386TIP3   OH234792   0.117   3.431   8.274 -0.4150  0.0236 -0.0628
 4386TIP3    H134793   0.080   3.420   8.186 -0.9809  1.3745 -0.0088
 4386TIP3    H234794   0.212   3.430   8.261 -0.4763 -0.9606 -0.5264
 4387TIP3   OH234795   0.302   1.451   0.533 -0.0502 -0.1135 -0.2229
 4387TIP3    H134796   0.322   1.473   0.624  0.4937 -1.1997 -0.0621
 4387TIP3    H234797   0.224   1.397   0.538  0.6133 -1.1029 -0.2842
 4388TIP3   OH234798   1.881   3.306   7.377 -0.5759 -0.2368 -0.8868
 4388TIP3    H134799   1.958   3.295   7.322 -0.7443 -0.1423 -1.1411
 4388TIP3    H234800   1.898   3.386   7.427 -1.0031  0.4206 -1.7667
 4389TIP3   OH234801   0.598   0.938   0.371  0.9806  0.3969  0.1922
 4389TIP3    H134802   0.511   0.902   0.386  0.7853  0.5475 -0.5469
 4389TIP3    H234803   0.634   0.883   0.301  1.3244  0.5878  0.2175
 4390TIP3   OH234804   2.238   2.711   8.623  0.2030 -0.6197 -0.1262
 4390TIP3    H134805   2.288   2.665   8.557 -0.2717  0.8840 -1.5982
 4390TIP3    H234806   2.281   2.689   8.706  2.2089 -0.7479 -1.1505
 4391TIP3   OH234807   4.127   5.380   2.006 -0.2460  0.6873  0.0929
 4391TIP3    H134808   4.195   5.435   1.966 -0.9436  1.6673  0.2186
 4391TIP3    H234809   4.172   5.335   2.077  0.4945  0.5775 -0.4257
 4392TIP3   OH234810   2.022   3.862   1.237 -0.3907  0.5306  0.0760
 4392TIP3    H134811   1.987   3.775   1.215 -0.7716  0.7259 -0.0915
 4392TIP3    H234812   1.957   3.923   1.205 -0.5013  0.8594  0.9118
 4393TIP3   OH234813   3.100   6.243   2.791 -0.1029  0.5313  0.2849
 4393TIP3    H134814   3.049   6.268   2.868  0.8015 -2.2413  1.9514
 4393TIP3    H234815   3.168   6.309   2.784  0.2476  0.4461  2.3793
 4394TIP3   OH234816   2.480   5.128   1.445 -0.1573  0.4275 -0.6637
 4394TIP3    H134817   2.506   5.056   1.503 -0.5377 -0.9806 -2.1913
 4394TIP3    H234818   2.396   5.157   1.481 -0.2701 -0.2557 -0.3466
 4395TIP3   OH234819   4.309   5.018   0.503 -0.0596 -0.2193  0.0960
 4395TIP3    H134820   4.240   4.998   0.566  0.3093  1.1027  0.9465
 4395TIP3    H234821   4.267   5.007   0.417 -1.3412  0.6091  0.5978
 4396TIP3   OH234822   0.448   6.548   3.583  0.2615  0.8199  0.1916
 4396TIP3    H134823   0.358   6.577   3.567 -0.3063 -0.0242  1.6436
 4396TIP3    H234824   0.466   6.576   3.673  1.0554  0.0351  0.2828
 4397TIP3   OH234825   1.282   6.417   0.804 -0.2195  0.3347 -0.6753
 4397TIP3    H134826   1.222   6.413   0.729  1.8147 -0.4524 -2.3499
 4397TIP3    H234827   1.311   6.326   0.815  0.1026  0.5868  0.5943
 4398TIP3   OH234828   5.056   2.730   3.332  0.0800  0.2760  0.3833
 4398TIP3    H134829   4.973   2.722   3.285 -1.1454  1.1108  2.3014
 4398TIP3    H234830   5.101   2.648   3.313 -1.0652 -0.1018 -0.8976
 4399TIP3   OH234831   5.465   3.922   8.932  0.1274  0.4114 -0.0098
 4399TIP3    H134832   5.423   3.994   8.886  0.5442  0.0494 -0.9722
 4399TIP3    H234833   5.521   3.880   8.866  1.5251  0.4940  1.0664
 4400TIP3   OH234834   2.967   6.185   1.714 -0.0468 -0.5200 -0.1945
 4400TIP3    H134835   2.945   6.160   1.804  1.5304  1.1041  0.6961
 4400TIP3    H234836   3.044   6.240   1.722 -0.5215  0.6108 -2.4612
 4401TIP3   OH234837   2.796   3.967   1.826 -0.7713 -0.1082  0.1175
 4401TIP3    H134838   2.787   4.022   1.904  0.2266  2.1243 -1.2328
 4401TIP3    H234839   2.888   3.940   1.827  0.1895  2.5735 -1.7695
 4402TIP3   OH234840   1.202   6.425   2.284  0.2568 -0.4774 -0.0643
 4402TIP3    H134841   1.131   6.425   2.348  0.1236 -1.7619 -0.1762
 4402TIP3    H234842   1.169   6.477   2.210  0.2430  0.6400  0.7091
 4403TIP3   OH234843   4.950   5.903   7.872  0.3539 -0.9788 -0.1946
 4403TIP3    H134844   4.885   5.953   7.921  1.2170 -0.3552  0.3408
 4403TIP3    H234845   5.001   5.969   7.824  1.5587 -1.3109  0.5862
 4404TIP3   OH234846   3.428   5.815   1.357 -0.0715  0.4846  0.0785
 4404TIP3    H134847   3.481   5.776   1.427  0.4861  0.6828 -0.2296
 4404TIP3    H234848   3.490   5.868   1.307 -0.6434  1.0262 -0.0585
 4405TIP3   OH234849   0.671   4.042   8.806 -0.0545 -0.1914  0.7366
 4405TIP3    H134850   0.629   3.960   8.833  0.0543 -1.1646 -1.8143
 4405TIP3    H234851   0.737   4.058   8.874 -0.3975 -1.9511  1.5568
 4406TIP3   OH234852   0.301   3.237   2.096  0.2498 -0.0801 -0.2303
 4406TIP3    H134853   0.273   3.242   2.005 -0.4298 -0.7248 -0.0664
 4406TIP3    H234854   0.233   3.185   2.140 -1.3161  2.9937  1.3759
 4407TIP3   OH234855   5.007   5.620   7.877 -0.2259 -0.2386  0.0827
 4407TIP3    H134856   4.989   5.712   7.896  1.6414  0.0863  0.4843
 4407TIP3    H234857   5.102   5.612   7.886 -0.2302 -1.9766 -0.9825
 4408TIP3   OH234858   4.846   1.974   1.155 -0.5232 -0.4083 -0.3503
 4408TIP3    H134859   4.937   1.981   1.128 -0.6316 -1.7398 -1.1271
 4408TIP3    H234860   4.848   1.925   1.238 -0.4012  1.3857  0.7631
 4409TIP3   OH234861   0.082   2.884   2.435  0.3821 -0.1825 -0.1932
 4409TIP3    H134862  -0.009   2.854   2.440 -0.5463  2.1127 -1.4919
 4409TIP3    H234863   0.113   2.882   2.525 -1.6585  0.9265  0.6045
 4410TIP3   OH234864   0.630   2.841   1.681 -0.2641 -0.0215  0.3324
 4410TIP3    H134865   0.578   2.783   1.624 -3.4006  1.9270  0.9853
 4410TIP3    H234866   0.636   2.923   1.632  5.4021 -0.9506 -1.2553
 4411TIP3   OH234867   4.160   0.450   8.765 -0.0723  0.1157 -0.0126
 4411TIP3    H134868   4.183   0.518   8.828 -0.2917 -0.1967  0.4144
 4411TIP3    H234869   4.148   0.371   8.819 -2.5757  0.3413 -0.1272
 4412TIP3   OH234870   0.392   3.015   8.797  0.0880  0.1368  0.1488
 4412TIP3    H134871   0.332   2.941   8.793  0.3052 -0.0664  0.6564
 4412TIP3    H234872   0.335   3.091   8.807 -0.1873  0.1391 -1.2221
 4413TIP3   OH234873   3.288   3.680   1.653  0.2402  0.0012  0.1484
 4413TIP3    H134874   3.303   3.636   1.737  0.6171  0.9955  0.6227
 4413TIP3    H234875   3.375   3.710   1.626 -0.0428  0.6822 -0.0201
 4414TIP3   OH234876   1.452   5.974   8.129  0.1963 -0.0825  0.1168
 4414TIP3    H134877   1.517   5.989   8.060  1.4665  2.9926  1.7678
 4414TIP3    H234878   1.499   5.926   8.196  0.4930  1.1302  0.8138
 4415TIP3   OH234879   5.938   5.526   0.808  0.3924 -0.0833  0.2478
 4415TIP3    H134880   5.991   5.604   0.826  1.6740 -0.8810  0.0002
 4415TIP3    H234881   5.990   5.453   0.840 -0.7729 -0.8704  0.4258
 4416TIP3   OH234882   3.482   5.034   8.728  0.2229  0.0127  0.5769
 4416TIP3    H134883   3.546   4.965   8.746  1.1582  0.4666 -0.9421
 4416TIP3    H234884   3.453   5.018   8.639  0.4694  1.6025  0.1837
 4417TIP3   OH234885   4.483   0.764   2.778  0.5414 -0.9228 -0.8928
 4417TIP3    H134886   4.512   0.816   2.853 -2.2619 -1.5115  0.7444
 4417TIP3    H234887   4.554   0.703   2.762  1.4627 -0.4016  0.9241
 4418TIP3   OH234888   3.487   0.296   8.542 -0.3949  0.2855  0.3097
 4418TIP3    H134889   3.497   0.361   8.612 -0.9250  1.2298 -0.4520
 4418TIP3    H234890   3.521   0.340   8.464 -3.6716  0.9862 -0.9104
 4419TIP3   OH234891   3.692   1.738   0.314  0.1088 -0.3045 -0.1302
 4419TIP3    H134892   3.750   1.741   0.390 -0.9066 -1.0818  0.7053
 4419TIP3    H234893   3.751   1.739   0.239  1.2309 -1.5156  0.6821
 4420TIP3   OH234894   3.753   0.430   8.494 -0.1802  0.2562 -0.3851
 4420TIP3    H134895   3.789   0.405   8.579 -0.0296 -1.3950 -0.8893
 4420TIP3    H234896   3.718   0.348   8.458 -2.0896  1.2974 -1.0472
 4421TIP3   OH234897   2.246   1.310   7.841 -0.4321 -0.6030 -0.3165
 4421TIP3    H134898   2.298   1.276   7.915 -1.7321 -0.2696  0.7946
 4421TIP3    H234899   2.215   1.231   7.796 -0.0348 -0.8213 -0.2163
 4422TIP3   OH234900   6.407   0.594   0.342 -0.1929  0.3151  0.5324
 4422TIP3    H134901   6.455   0.677   0.339 -0.2346  0.3200 -0.2933
 4422TIP3    H234902   6.467   0.532   0.383  0.2013  0.5213  0.2678
 4423TIP3   OH234903   1.091   0.039   8.770 -0.1823  0.7758  0.4863
 4423TIP3    H134904   1.073  -0.052   8.792 -2.2857  1.5383  2.3300
 4423TIP3    H234905   1.187   0.046   8.770 -0.0061 -0.9911  2.3502
 4424TIP3   OH234906   5.883   1.979   1.199  0.3437  0.1677 -0.7287
 4424TIP3    H134907   5.932   1.897   1.200  1.9093  1.0612 -1.8732
 4424TIP3    H234908   5.830   1.975   1.119 -1.3564 -0.6801  0.3702
 4425TIP3   OH234909   3.472   1.729   1.120 -0.4370 -0.1336 -0.1169
 4425TIP3    H134910   3.380   1.705   1.108 -0.9771  1.0617  1.3867
 4425TIP3    H234911   3.486   1.800   1.057 -1.2917  1.3814  1.3232
 4426TIP3   OH234912   0.260   4.033   3.160  0.2990  0.6218 -0.0962
 4426TIP3    H134913   0.305   4.113   3.186 -0.7901  2.2261 -2.7079
 4426TIP3    H234914   0.320   3.963   3.183  2.0933  2.3082  0.6363
 4427TIP3   OH234915   4.342   5.485   3.074 -0.3064  0.6315 -0.3053
 4427TIP3    H134916   4.412   5.434   3.033 -1.8774 -0.5961 -1.5970
 4427TIP3    H234917   4.382   5.521   3.153  1.6902 -0.2526 -0.8425
 4428TIP3   OH234918   1.038   5.877   0.214  0.1988 -0.3790 -0.2247
 4428TIP3    H134919   1.116   5.908   0.260 -1.2343  0.8804  1.4877
 4428TIP3    H234920   1.010   5.800   0.262 -0.8039  0.4266  0.5213
 4429TIP3   OH234921   0.290   6.391   3.281 -0.3567 -0.3346 -0.2297
 4429TIP3    H134922   0.272   6.479   3.247  1.3845 -0.8340 -2.6441
 4429TIP3    H234923   0.209   6.367   3.326 -2.0610  1.2880 -2.2010
 4430TIP3   OH234924   4.573   5.082   2.356  0.3756  0.0315  0.0655
 4430TIP3    H134925   4.590   5.088   2.262  2.7720  3.4414  0.5181
 4430TIP3    H234926   4.624   5.007   2.385 -1.8016 -2.1907 -1.4730
 4431TIP3   OH234927   2.062   5.428   0.543  0.0193 -0.2348 -0.3001
 4431TIP3    H134928   2.006   5.370   0.492  0.0947 -0.5942  0.0185
 4431TIP3    H234929   2.084   5.378   0.621 -1.2210  0.8081  0.7670
 4432TIP3   OH234930   0.654   0.871   2.426 -0.7317  0.7907  0.8108
 4432TIP3    H134931   0.688   0.839   2.510 -0.8235 -0.5072  0.3691
 4432TIP3    H234932   0.716   0.838   2.361 -1.3414  0.7269  0.2585
 4433TIP3   OH234933   4.596   0.038   0.668 -0.3909  0.4364 -0.4538
 4433TIP3    H134934   4.663   0.071   0.608  1.3514 -0.1225  1.0944
 4433TIP3    H234935   4.621  -0.053   0.684  0.2280  1.0277  2.4103
 4434TIP3   OH234936   4.138   5.740   0.310 -0.7257  0.0980  0.7466
 4434TIP3    H134937   4.232   5.737   0.293 -0.9102  1.0223 -0.5968
 4434TIP3    H234938   4.108   5.649   0.299 -0.3499  0.1751 -1.1930
 4435TIP3   OH234939   4.695   2.287   8.403  0.0693 -0.0446  0.0041
 4435TIP3    H134940   4.707   2.291   8.308  0.6910  1.1245  0.1220
 4435TIP3    H234941   4.773   2.241   8.435 -0.9701 -2.0800 -0.1698
 4436TIP3   OH234942   6.549   2.705   0.220 -0.4016  0.2079  0.2847
 4436TIP3    H134943   6.578   2.652   0.294 -0.1061 -1.8208 -1.1960
 4436TIP3    H234944   6.585   2.792   0.237  1.2372 -0.6628  1.5925
 4437TIP3   OH234945   5.536   4.997   0.942 -0.2943 -0.1620  0.1409
 4437TIP3    H134946   5.483   5.075   0.960 -1.4057 -0.6653 -0.8229
 4437TIP3    H234947   5.578   5.014   0.858  1.0952  0.2176  0.8826
 4438TIP3   OH234948   2.529   3.248   1.506 -0.3042 -0.1173  0.1371
 4438TIP3    H134949   2.507   3.286   1.591  0.2988  0.6049 -0.0171
 4438TIP3    H234950   2.468   3.175   1.495 -1.0640  0.4202  0.7286
 4439TIP3   OH234951   2.512   2.807   1.557 -0.5179 -0.5051 -0.6289
 4439TIP3    H134952   2.558   2.791   1.475  0.8218  0.5137 -0.1171
 4439TIP3    H234953   2.492   2.720   1.591  2.5052 -1.1034 -0.1092
 4440TIP3   OH234954   2.595   2.839   0.619  0.6875  0.7299  0.1368
 4440TIP3    H134955   2.525   2.774   0.624  0.0535  1.3115 -0.8267
 4440TIP3    H234956   2.628   2.831   0.530 -0.0914  2.4098 -0.3377
 4441TIP3   OH234957   3.540   1.351   3.144  0.3267 -0.6184 -0.0043
 4441TIP3    H134958   3.585   1.435   3.137  0.5992 -0.7873 -0.2981
 4441TIP3    H234959   3.528   1.338   3.238 -0.1630 -0.0148  0.0195
 4442TIP3   OH234960   4.627   5.678   1.308 -0.0520 -0.4470 -0.1334
 4442TIP3    H134961   4.552   5.737   1.304 -0.3132 -0.7508  0.2592
 4442TIP3    H234962   4.701   5.735   1.327 -0.3404 -0.2725  0.4818
 4443TIP3   OH234963   0.441   6.270   3.584  0.0939 -0.5731  0.5878
 4443TIP3    H134964   0.408   6.357   3.561  2.2341  0.4266  1.0358
 4443TIP3    H234965   0.444   6.270   3.680  1.4329 -0.5823  0.5617
 4444TIP3   OH234966   5.127   4.773   1.443  0.3183  0.0707  0.0470
 4444TIP3    H134967   5.043   4.771   1.491 -0.0887 -0.5806 -0.6761
 4444TIP3    H234968   5.122   4.853   1.390  0.7582  0.7816  1.0396
 4445TIP3   OH234969   0.638   3.488   1.003 -0.4582  0.1371  0.5028
 4445TIP3    H134970   0.705   3.421   1.010  0.1052  0.7341  0.8998
 4445TIP3    H234971   0.660   3.552   1.070 -0.4726  1.1658 -0.4403
 4446TIP3   OH234972   2.104   5.271   0.776 -0.9716 -0.1828  0.4602
 4446TIP3    H134973   2.144   5.283   0.862 -0.7617 -1.1313  0.5073
 4446TIP3    H234974   2.146   5.192   0.741  0.3849  1.2292 -1.3376
 4447TIP3   OH234975   3.888   2.903   8.162 -0.1350  0.9498  0.7738
 4447TIP3    H134976   3.896   2.994   8.132  2.0056  1.3426  2.2465
 4447TIP3    H234977   3.880   2.852   8.081  3.0351  2.1350 -0.4728
 4448TIP3   OH234978   3.577   1.769   8.762 -0.4153  0.1422 -0.0690
 4448TIP3    H134979   3.649   1.830   8.777 -1.1674  1.2548 -0.8368
 4448TIP3    H234980   3.517   1.783   8.835 -0.0596 -0.5050  0.3602
 4449TIP3   OH234981   3.258   3.095   2.530  0.1726 -0.6614  0.1136
 4449TIP3    H134982   3.346   3.132   2.537 -0.9533  2.6940 -1.1623
 4449TIP3    H234983   3.271   3.008   2.492  2.8789  0.4953 -1.9531
 4450TIP3   OH234984   6.560   0.887   8.220 -0.2131  0.5792 -0.0387
 4450TIP3    H134985   6.634   0.943   8.197 -1.0409  1.1351 -1.5512
 4450TIP3    H234986   6.511   0.878   8.138 -0.6974 -1.5013  0.4228
 4451TIP3   OH234987   6.618   6.720   8.313  0.4660  0.1392  0.4583
 4451TIP3    H134988   6.638   6.763   8.230 -0.2897  0.9062  0.6586
 4451TIP3    H234989   6.626   6.627   8.294  1.9151  0.3403 -0.0412
 4452TIP3   OH234990   3.922   4.570   1.849  0.3519  0.3838  0.0018
 4452TIP3    H134991   4.013   4.590   1.873  0.9171 -2.5973  0.7711
 4452TIP3    H234992   3.869   4.620   1.910  1.6624 -1.6106  3.0232
 4453TIP3   OH234993   4.938   1.361   1.885  0.1930  0.2797  0.6019
 4453TIP3    H134994   4.934   1.366   1.981 -2.3469  1.4631  0.5067
 4453TIP3    H234995   4.973   1.446   1.859  0.0980  0.2791  0.4734
 4454TIP3   OH234996   4.291   2.556   1.717 -0.2975 -0.3599 -0.0710
 4454TIP3    H134997   4.284   2.544   1.812 -1.6570 -1.8464 -0.3001
 4454TIP3    H234998   4.306   2.649   1.705  0.6941 -0.2632  1.6356
 4455TIP3   OH234999   4.301   0.545   0.675 -0.4838  0.0655 -0.2180
 4455TIP3    H135000   4.347   0.525   0.594  0.6412 -1.1594  0.6914
 4455TIP3    H235001   4.320   0.638   0.691 -0.2277  0.1593 -1.0334
 4456TIP3   OH235002   6.548   6.612   7.878 -0.0338 -0.8867 -0.5753
 4456TIP3    H135003   6.602   6.561   7.817 -0.4430 -2.1955  0.1298
 4456TIP3    H235004   6.500   6.673   7.822  2.7612  0.9785 -1.1921
 4457TIP3   OH235005   0.598   3.423   0.343 -0.3451  0.0526 -0.1688
 4457TIP3    H135006   0.600   3.335   0.382 -0.8969  0.6241  1.1863
 4457TIP3    H235007   0.686   3.458   0.357  0.6193 -1.0843 -2.7315
 4458TIP3   OH235008   5.491   2.213   0.720  0.2937 -0.1815  0.3248
 4458TIP3    H135009   5.401   2.187   0.701  0.9709 -1.9748 -0.6754
 4458TIP3    H235010   5.544   2.165   0.656  2.1380 -0.9207  2.2781
 4459TIP3   OH235011   5.150   6.738   1.244  0.1650  0.2511  0.2639
 4459TIP3    H135012   5.141   6.827   1.278 -0.0020  0.1510  0.4793
 4459TIP3    H235013   5.231   6.705   1.283  0.3785  0.4080 -0.0391
 4460TIP3   OH235014   3.582   6.665   0.126  0.8343  0.3117 -0.4978
 4460TIP3    H135015   3.571   6.608   0.203  0.2710 -0.4927 -1.1574
 4460TIP3    H235016   3.661   6.631   0.083  0.1933 -0.3464 -1.1878
 4461TIP3   OH235017   3.307   3.345   2.271 -0.1412  0.0906  0.1166
 4461TIP3    H135018   3.358   3.309   2.343  1.2594  2.0425  0.1763
 4461TIP3    H235019   3.297   3.272   2.210  1.6355 -0.6967  0.7045
 4462TIP3   OH235020   6.764   2.421   1.098  0.0792 -0.2305 -1.1456
 4462TIP3    H135021   6.817   2.344   1.081  3.0482  1.5793 -0.6689
 4462TIP3    H235022   6.750   2.421   1.192  0.4300  0.0198 -1.0927
 4463TIP3   OH235023   0.705   5.184   0.755  0.7507 -0.1726 -0.1253
 4463TIP3    H135024   0.696   5.104   0.807  0.5699 -0.3060 -0.3572
 4463TIP3    H235025   0.748   5.246   0.813 -1.1135  0.2939  0.8387
 4464TIP3   OH235026   5.760   0.005   8.689 -0.5357  0.1153  0.6586
 4464TIP3    H135027   5.787  -0.086   8.680 -0.1663  0.2557  0.3306
 4464TIP3    H235028   5.831   0.047   8.738  0.1417  0.6115 -0.6962
 4465TIP3   OH235029   5.549   2.095   0.031  0.1779  0.1300  0.3785
 4465TIP3    H135030   5.614   2.025   0.022  1.1984  1.2700 -1.7248
 4465TIP3    H235031   5.465   2.051   0.016  0.8692 -0.5371 -1.8390
 4466TIP3   OH235032   6.389   4.640   7.869  0.9456  0.0663 -0.1493
 4466TIP3    H135033   6.461   4.578   7.877 -0.2237 -1.8252 -2.6717
 4466TIP3    H235034   6.412   4.694   7.794  1.1260  1.5534  0.9442
 4467TIP3   OH235035   6.278   4.772   1.555  0.0365 -0.1838 -0.0264
 4467TIP3    H135036   6.357   4.732   1.590  0.5180 -0.4484 -1.3622
 4467TIP3    H235037   6.226   4.699   1.523 -1.2729 -0.1172  1.7783
 4468TIP3   OH235038   3.564   4.458   7.780 -0.4623  0.4218  0.4154
 4468TIP3    H135039   3.595   4.502   7.700 -0.6044 -0.0648  0.0866
 4468TIP3    H235040   3.599   4.369   7.773  0.5294  0.7036  1.4781
 4469TIP3   OH235041   2.117   2.283   1.988 -0.0216 -0.3786 -0.4648
 4469TIP3    H135042   2.041   2.237   2.022  0.0142 -0.3249 -0.3112
 4469TIP3    H235043   2.084   2.369   1.962 -0.5390 -1.1864 -2.7258
 4470TIP3   OH235044   2.868   1.339   2.366 -0.1453 -0.3420  0.2600
 4470TIP3    H135045   2.821   1.258   2.389  0.8173 -2.0480 -3.0167
 4470TIP3    H235046   2.825   1.368   2.285  0.8796  1.2634  0.2642
 4471TIP3   OH235047   5.869   6.110   1.998 -0.1135 -0.5500  0.5681
 4471TIP3    H135048   5.851   6.063   1.916 -0.6364 -0.6906  0.7536
 4471TIP3    H235049   5.822   6.059   2.065  1.0556 -0.9587  1.0949
 4472TIP3   OH235050   6.667   5.525   7.733 -0.3746  0.1257 -0.8935
 4472TIP3    H135051   6.591   5.551   7.785  1.0836 -0.8697  1.9239
 4472TIP3    H235052   6.660   5.577   7.653 -3.0159  1.3970  0.0523
 4473TIP3   OH235053   3.003   6.534   0.457 -0.0457  0.4709 -0.3529
 4473TIP3    H135054   3.074   6.477   0.428 -0.2408  0.1376 -0.1698
 4473TIP3    H235055   3.045   6.619   0.470  0.4837  0.0726  0.5702
 4474TIP3   OH235056   4.897   0.075   0.447 -0.7248 -0.2892 -0.2830
 4474TIP3    H135057   4.898   0.169   0.427 -0.3871 -0.2912 -0.2805
 4474TIP3    H235058   4.931   0.069   0.536 -2.2248 -0.2810  0.3277
 4475TIP3   OH235059   2.929   5.759   8.500 -0.1089  0.2411 -0.3335
 4475TIP3    H135060   3.008   5.797   8.538 -0.7164 -0.8130  2.1478
 4475TIP3    H235061   2.951   5.747   8.407  1.9372  1.6956 -0.1067
 4476TIP3   OH235062   0.312   4.584   1.048 -0.7522 -0.3209  0.4580
 4476TIP3    H135063   0.400   4.587   1.010 -0.2207 -0.7423  1.6054
 4476TIP3    H235064   0.256   4.556   0.976 -0.1084  0.9041 -0.5442
 4477TIP3   OH235065   0.248   5.404   2.736 -0.0878  0.4894  0.2471
 4477TIP3    H135066   0.323   5.387   2.793 -0.3552 -4.3623 -0.4169
 4477TIP3    H235067   0.175   5.420   2.796  0.8030  2.2267  0.9493
 4478TIP3   OH235068   4.081   2.454   2.573 -0.2482 -0.2820 -0.3892
 4478TIP3    H135069   4.096   2.361   2.589  0.4988 -0.0022  0.7058
 4478TIP3    H235070   4.114   2.497   2.652 -1.2050  0.8669 -0.5873
 4479TIP3   OH235071   3.777   6.276   1.849 -0.3050 -0.1126  0.0079
 4479TIP3    H135072   3.695   6.289   1.897 -0.8589  0.0530 -0.9636
 4479TIP3    H235073   3.800   6.184   1.866 -1.6360 -0.6847 -1.1363
 4480TIP3   OH235074   4.622   5.437   7.828  0.4526  0.5563 -0.1371
 4480TIP3    H135075   4.559   5.401   7.766 -0.0268  0.0634  0.6117
 4480TIP3    H235076   4.655   5.360   7.875  1.3813  0.8408 -0.2998
 4481TIP3   OH235077   2.893   4.092   0.375 -0.1853 -0.3150  0.2731
 4481TIP3    H135078   2.862   4.015   0.423  1.1171  0.3056  2.2042
 4481TIP3    H235079   2.981   4.108   0.409 -0.0858  1.5251 -0.7244
 4482TIP3   OH235080   4.323   2.888   2.090 -0.2750  0.0253  0.1405
 4482TIP3    H135081   4.357   2.969   2.053 -1.3596  0.4344  0.0049
 4482TIP3    H235082   4.240   2.875   2.046  0.7412 -2.2328 -1.2761
 4483TIP3   OH235083   0.964   4.268   2.170  0.1832  0.4480  0.0868
 4483TIP3    H135084   1.058   4.251   2.172 -0.2361 -2.6527 -0.9993
 4483TIP3    H235085   0.934   4.249   2.259  0.3689 -0.0575  0.0410
 4484TIP3   OH235086   5.755   5.383   1.723 -0.0720 -0.6262  0.0750
 4484TIP3    H135087   5.832   5.359   1.672  0.9583  2.3051  0.0759
 4484TIP3    H235088   5.698   5.428   1.660 -0.9861 -1.1854  0.4776
 4485TIP3   OH235089   3.652   0.962   0.340  0.3658  0.3108  0.4736
 4485TIP3    H135090   3.732   1.000   0.376  0.7028 -0.5816  0.7158
 4485TIP3    H235091   3.670   0.954   0.246  1.6417 -2.2438  0.8367
 4486TIP3   OH235092   2.120   3.696   2.199  0.5141  0.1187 -0.8077
 4486TIP3    H135093   2.065   3.767   2.231  1.6578  0.7845 -0.2333
 4486TIP3    H235094   2.100   3.622   2.256  0.3634  0.4154 -0.4701
 4487TIP3   OH235095   4.640   5.791   1.937 -0.0569  0.3878  0.2936
 4487TIP3    H135096   4.568   5.855   1.937  0.6846  1.2469  0.0741
 4487TIP3    H235097   4.693   5.814   1.860 -0.1706 -0.9695 -0.2180
 4488TIP3   OH235098   2.464   1.916   2.354  0.0475 -0.0525  0.2370
 4488TIP3    H135099   2.398   1.906   2.423 -1.1232  3.2662 -0.2199
 4488TIP3    H235100   2.415   1.905   2.272  0.5282  0.2464 -0.0953
 4489TIP3   OH235101   2.855   1.265   0.718 -0.0341 -0.2026 -0.2984
 4489TIP3    H135102   2.946   1.240   0.701 -0.2954 -1.4086  0.0172
 4489TIP3    H235103   2.850   1.356   0.688  1.9085  0.7493  1.9818
 4490TIP3   OH235104   5.329   1.108   0.725 -0.1244  0.2598  0.0139
 4490TIP3    H135105   5.298   1.130   0.813  0.2215  1.3570 -0.1160
 4490TIP3    H235106   5.268   1.041   0.694  0.9282 -1.6620  1.8301
 4491TIP3   OH235107   0.618   4.501   0.398  0.3810  0.3429 -0.4864
 4491TIP3    H135108   0.524   4.507   0.381  0.1178 -2.9252 -0.8309
 4491TIP3    H235109   0.654   4.457   0.321  1.7610 -0.7352  0.7219
 4492TIP3   OH235110   0.754   2.053   2.091  0.0296  0.0870 -0.1972
 4492TIP3    H135111   0.835   2.059   2.143 -1.2881  0.3095  1.9364
 4492TIP3    H235112   0.689   2.099   2.144 -1.7320 -0.9469 -1.3878
 4493TIP3   OH235113   5.464   1.462   1.240  0.2695  0.5686  0.1753
 4493TIP3    H135114   5.447   1.474   1.146 -0.2632 -1.0600  0.0443
 4493TIP3    H235115   5.513   1.380   1.245  0.3938  0.7040  1.3206
 4494TIP3   OH235116   3.777   5.538   1.675  0.3275  0.1975  0.0949
 4494TIP3    H135117   3.714   5.467   1.665  0.5735 -0.2142  1.4029
 4494TIP3    H235118   3.730   5.605   1.725  0.1641  0.8941 -0.9564
 4495TIP3   OH235119   2.204   0.174   8.925 -0.3173 -0.0150  0.1215
 4495TIP3    H135120   2.283   0.180   8.873 -0.2351 -1.1131  0.1010
 4495TIP3    H235121   2.132   0.180   8.862 -0.3217  2.3463  0.2645
 4496TIP3   OH235122   0.844   4.838   0.630 -0.1637  0.0078 -0.3178
 4496TIP3    H135123   0.897   4.828   0.710  0.7825 -0.0996 -0.9408
 4496TIP3    H235124   0.907   4.825   0.559 -1.2703 -1.3670 -1.0927
 4497TIP3   OH235125   4.921   3.101   0.351  0.4000 -0.1552 -0.1888
 4497TIP3    H135126   4.905   3.052   0.431 -1.7420 -0.0697 -0.5094
 4497TIP3    H235127   4.951   3.036   0.288  0.5348 -0.4961  0.2225
 4498TIP3   OH235128   4.941   2.168   8.494  0.0809  0.1542  0.2171
 4498TIP3    H135129   5.002   2.099   8.469  0.5606  0.4356  0.5882
 4498TIP3    H235130   4.967   2.243   8.441 -0.0041  0.2468  0.3070
 4499TIP3   OH235131   3.296   5.784   3.560 -0.2622 -0.4742  0.2586
 4499TIP3    H135132   3.295   5.878   3.541 -0.4803 -0.6226 -0.4722
 4499TIP3    H235133   3.380   5.770   3.603 -0.0899 -0.0010  0.0856
 4500TIP3   OH235134   2.250   2.479   1.652  0.3641  0.6822  0.2430
 4500TIP3    H135135   2.163   2.463   1.687  0.2655 -0.7073 -0.5757
 4500TIP3    H235136   2.306   2.415   1.696  0.9059  1.3357  0.5115
 4501TIP3   OH235137   3.276   5.461   7.514 -0.1700  0.0023 -0.9576
 4501TIP3    H135138   3.212   5.497   7.452  0.4996  1.2554 -0.9508
 4501TIP3    H235139   3.290   5.371   7.484 -0.8025  0.1839 -1.8589
 4502TIP3   OH235140   6.414   4.186   1.492 -0.2634 -0.0652 -0.0802
 4502TIP3    H135141   6.321   4.199   1.513  0.1997  1.8054  1.0352
 4502TIP3    H235142   6.428   4.235   1.411  0.3195  2.1277  1.2740
 4503TIP3   OH235143   2.573   0.749   2.851  0.2528  0.1741 -0.3567
 4503TIP3    H135144   2.593   0.720   2.940  0.9694  2.6088  0.3671
 4503TIP3    H235145   2.487   0.712   2.832  0.6476 -1.4316  0.8382
 4504TIP3   OH235146   6.381   3.497   7.795 -0.1504 -0.1433 -0.8883
 4504TIP3    H135147   6.389   3.499   7.699  0.8217  0.0783 -0.8172
 4504TIP3    H235148   6.296   3.456   7.811 -0.3021 -0.2368 -1.8454
 4505TIP3   OH235149   0.720   0.291   8.541 -0.4806  0.3643  0.0907
 4505TIP3    H135150   0.637   0.243   8.545  0.1805 -0.9720 -1.0246
 4505TIP3    H235151   0.710   0.351   8.468 -0.3869 -0.0098 -0.2372
 4506TIP3   OH235152   1.291   1.899   8.416 -0.1977 -0.3255 -0.5080
 4506TIP3    H135153   1.385   1.884   8.406  0.2401 -0.7206  2.7668
 4506TIP3    H235154   1.283   1.993   8.435 -0.2772 -0.4823  0.3008
 4507TIP3   OH235155   2.877   1.573   2.513 -0.0454 -0.2621 -0.2580
 4507TIP3    H135156   2.902   1.491   2.471 -1.5777 -0.5186 -0.7270
 4507TIP3    H235157   2.781   1.571   2.516 -0.0954  1.2389  0.2717
 4508TIP3   OH235158   2.767   1.582   1.779  0.3622  0.3504 -0.2317
 4508TIP3    H135159   2.736   1.673   1.773  0.6840  0.4708 -0.1118
 4508TIP3    H235160   2.716   1.545   1.851  0.0024  0.3418 -0.4896
 4509TIP3   OH235161   0.390   3.725   0.848  0.3704  0.2650 -0.4451
 4509TIP3    H135162   0.439   3.643   0.846 -0.0133  0.0278 -2.6674
 4509TIP3    H235163   0.416   3.771   0.768 -0.7482  1.5257 -0.1338
 4510TIP3   OH235164   4.674   0.561   2.776 -0.4062  0.0130 -0.5433
 4510TIP3    H135165   4.735   0.591   2.709 -1.9998 -0.3187 -2.2175
 4510TIP3    H235166   4.662   0.468   2.757  0.9417 -0.6983  1.7306
 4511TIP3   OH235167   3.590   4.225   3.512 -0.5226 -0.2415  0.0309
 4511TIP3    H135168   3.539   4.295   3.554 -1.6933  0.8963 -2.9948
 4511TIP3    H235169   3.681   4.246   3.533 -0.8277  2.3532 -0.8709
 4512TIP3   OH235170   5.180   0.540   7.852 -0.1156 -0.2106 -0.3355
 4512TIP3    H135171   5.090   0.563   7.831 -0.0833 -0.7417 -1.0897
 4512TIP3    H235172   5.181   0.445   7.854  0.4931 -0.2171 -0.6368
 4513TIP3   OH235173   2.290   6.175   8.388 -0.5711 -0.1052  0.0855
 4513TIP3    H135174   2.203   6.188   8.425 -0.6052  0.4467 -0.1783
 4513TIP3    H235175   2.331   6.109   8.445 -0.9237  0.1141  0.5968
 4514TIP3   OH235176   1.391   5.180   8.949 -0.3127 -0.1451  0.6744
 4514TIP3    H135177   1.418   5.123   9.021 -0.3903  0.6602  1.3495
 4514TIP3    H235178   1.322   5.234   8.986  0.0128  0.6416  0.1482
 4515TIP3   OH235179   3.568   2.404   1.568 -0.6675 -0.4393  0.5559
 4515TIP3    H135180   3.650   2.387   1.614  0.7713  1.7445 -1.0066
 4515TIP3    H235181   3.524   2.471   1.621 -0.4803 -0.1603  0.3599
 4516TIP3   OH235182   3.959   2.601   1.509  0.9381 -0.0750 -0.4184
 4516TIP3    H135183   3.890   2.653   1.551  2.4743 -0.5688  3.0541
 4516TIP3    H235184   3.922   2.513   1.501  0.2425  0.2751 -1.1697
 4517TIP3   OH235185   4.061   6.162   2.123 -0.5739  0.4030 -0.0173
 4517TIP3    H135186   4.039   6.070   2.140 -2.3056 -0.0656 -3.8522
 4517TIP3    H235187   3.988   6.211   2.161 -0.4788  0.1059  0.5740
 4518TIP3   OH235188   6.543   6.254   7.663 -0.6483  0.9885 -0.1539
 4518TIP3    H135189   6.604   6.326   7.652 -0.8300  1.5838  2.1068
 4518TIP3    H235190   6.597   6.179   7.686 -0.6583  1.4206  1.4489
 4519TIP3   OH235191   0.252   4.300   8.955  0.3826  0.2145  0.9937
 4519TIP3    H135192   0.302   4.220   8.971  0.6689 -0.3715 -2.1882
 4519TIP3    H235193   0.167   4.269   8.924  0.8389  1.0415 -1.2819
 4520TIP3   OH235194   1.824   0.560   0.115 -0.2913  0.7160  0.4326
 4520TIP3    H135195   1.895   0.510   0.075  0.3045  0.1550  2.1036
 4520TIP3    H235196   1.866   0.641   0.145 -0.8203  1.3266 -0.4296
 4521TIP3   OH235197   1.972   1.088   2.934 -0.0147  0.5092 -0.0344
 4521TIP3    H135198   1.878   1.079   2.918 -0.2084  1.6425  0.3604
 4521TIP3    H235199   1.992   1.177   2.907  1.0892  0.0780 -0.6910
 4522TIP3   OH235200   6.197   2.460   8.038  0.0457 -0.0126  0.0651
 4522TIP3    H135201   6.121   2.515   8.023  0.6898  1.0025  0.3965
 4522TIP3    H235202   6.222   2.429   7.951 -0.8536 -0.5256 -0.0214
 4523TIP3   OH235203   1.856   6.031   0.078 -0.0316  0.9925 -0.7176
 4523TIP3    H135204   1.877   5.997  -0.009  0.3714  0.0635 -0.2770
 4523TIP3    H235205   1.834   5.953   0.129 -1.0309  1.6039 -0.1904
 4524TIP3   OH235206   6.007   0.824   0.849 -0.4181 -0.6919 -0.2722
 4524TIP3    H135207   6.081   0.849   0.904 -0.8293 -1.3617  0.6207
 4524TIP3    H235208   6.044   0.813   0.761  0.6612 -1.5814  0.2731
 4525TIP3   OH235209   6.770   4.716   2.680 -0.3532  0.0631  0.3899
 4525TIP3    H135210   6.732   4.701   2.767  1.4803 -1.2335  1.0329
 4525TIP3    H235211   6.840   4.779   2.696 -0.1782  0.0249 -0.2138
 4526TIP3   OH235212   6.407   3.139   2.229  0.2066 -0.1044 -0.3855
 4526TIP3    H135213   6.340   3.147   2.161  1.4233 -2.7320 -2.0574
 4526TIP3    H235214   6.422   3.229   2.258 -2.4306  0.8049 -1.4817
 4527TIP3   OH235215   1.253   2.974   0.794  0.2823  0.3381 -0.6074
 4527TIP3    H135216   1.318   3.018   0.848 -0.3281 -1.1626  1.4496
 4527TIP3    H235217   1.303   2.913   0.740  1.1024  3.0719 -3.2592
 4528TIP3   OH235218   6.069   0.378   8.732 -0.3059  0.1181  0.7295
 4528TIP3    H135219   6.116   0.386   8.648 -2.9061 -1.3715 -0.9963
 4528TIP3    H235220   5.982   0.415   8.715 -0.7989  0.1173  2.9342
 4529TIP3   OH235221   6.666   0.967   2.983  0.5474 -0.5474  0.1588
 4529TIP3    H135222   6.753   0.988   3.016  1.0799 -0.3737 -1.2902
 4529TIP3    H235223   6.661   0.871   2.986 -0.3103 -0.5021  2.8572
 4530TIP3   OH235224   6.019   6.316   8.678  0.4365  0.5937 -0.4585
 4530TIP3    H135225   5.937   6.364   8.693 -1.0102 -2.0414  0.8179
 4530TIP3    H235226   6.049   6.291   8.766  2.3073  0.9954 -0.9505
 4531TIP3   OH235227   4.945   0.404   8.040  0.2083  0.6716 -0.5682
 4531TIP3    H135228   4.891   0.377   7.966 -1.3212  1.4508  0.1993
 4531TIP3    H235229   4.939   0.331   8.102  1.4642  0.0320 -1.1800
 4532TIP3   OH235230   2.627   2.331   2.919  0.5258 -0.3742 -0.5738
 4532TIP3    H135231   2.593   2.276   2.849 -1.7221  2.3174 -1.7801
 4532TIP3    H235232   2.675   2.401   2.874 -0.3405  1.0134  0.5529
 4533TIP3   OH235233   3.623   5.004   2.580 -0.6994  0.2527 -0.4909
 4533TIP3    H135234   3.715   4.986   2.560 -0.6027  0.2784 -0.0847
 4533TIP3    H235235   3.574   4.939   2.530 -0.3846 -0.7145  0.4337
 4534TIP3   OH235236   5.806   5.974   1.267  0.6986 -0.2233 -0.2658
 4534TIP3    H135237   5.835   5.967   1.358 -0.1541 -1.2548 -0.0526
 4534TIP3    H235238   5.796   6.068   1.252 -1.2593 -0.1109  1.4143
 4535TIP3   OH235239   3.451   1.360   8.614  0.4998 -0.2285  0.5027
 4535TIP3    H135240   3.412   1.278   8.644  0.8996 -0.1030  1.4327
 4535TIP3    H235241   3.377   1.421   8.606  0.3322 -0.3668  0.9393
 4536TIP3   OH235242   2.418   3.935   0.224 -0.4851  0.0164 -0.3706
 4536TIP3    H135243   2.384   4.011   0.176 -0.3322 -0.5032 -1.3102
 4536TIP3    H235244   2.511   3.933   0.202 -0.2150  0.3295  0.7082
 4537TIP3   OH235245   5.848   5.112   0.841 -0.3751 -0.0569 -0.0983
 4537TIP3    H135246   5.904   5.085   0.768  1.9252  2.1758  0.7056
 4537TIP3    H235247   5.849   5.039   0.901 -0.0056 -0.8302 -1.0198
 4538TIP3   OH235248   0.767   2.718   2.885  0.0592  0.0920  0.3626
 4538TIP3    H135249   0.678   2.734   2.914 -0.5247 -2.1168 -0.0721
 4538TIP3    H235250   0.813   2.686   2.963  0.7764  2.0130  0.8073
 4539TIP3   OH235251   3.750   0.509   8.187 -0.5323 -0.6236  0.4956
 4539TIP3    H135252   3.702   0.578   8.233  0.1014 -0.9202  1.6356
 4539TIP3    H235253   3.719   0.427   8.226  1.8306 -0.7778  2.2894
 4540TIP3   OH235254   1.838   5.532   1.729 -0.1878 -0.4491 -0.5924
 4540TIP3    H135255   1.866   5.482   1.806  0.2995 -0.2736 -0.6545
 4540TIP3    H235256   1.756   5.573   1.756 -0.1192 -0.5459 -0.2320
 4541TIP3   OH235257   3.613   2.067   8.463 -0.1049  0.2779 -0.0298
 4541TIP3    H135258   3.652   1.993   8.417  0.9123 -0.6237  2.1452
 4541TIP3    H235259   3.528   2.035   8.492 -0.4013  0.5741 -0.5488
 4542TIP3   OH235260   2.335   0.155   1.878  0.6999  0.4037  0.0995
 4542TIP3    H135261   2.253   0.107   1.879  1.0926 -0.2829  0.7533
 4542TIP3    H235262   2.402   0.088   1.896  1.2233  1.2356  1.4052
 4543TIP3   OH235263   2.323   4.785   1.297  0.0218  0.4186  0.4835
 4543TIP3    H135264   2.239   4.741   1.313  0.3760 -0.5189 -0.1474
 4543TIP3    H235265   2.300   4.868   1.256 -0.5608 -0.3716 -0.8427
 4544TIP3   OH235266   3.999   0.363   2.793  0.2285  0.6703 -0.7663
 4544TIP3    H135267   3.958   0.442   2.830  0.5583  0.2045  0.6654
 4544TIP3    H235268   3.959   0.353   2.707 -2.0652  0.7227  0.2111
 4545TIP3   OH235269   2.342   2.731   8.014  0.3159  0.4921  0.0214
 4545TIP3    H135270   2.409   2.757   8.077  0.3100 -1.3471  0.8451
 4545TIP3    H235271   2.260   2.734   8.064  0.0547  0.7161 -0.4107
 4546TIP3   OH235272   0.185   4.038   8.516 -0.5875  0.3618 -0.0165
 4546TIP3    H135273   0.171   4.130   8.494  1.5489  0.7189 -0.1416
 4546TIP3    H235274   0.261   4.012   8.463  0.8120 -0.5464  2.2928
 4547TIP3   OH235275   4.606   1.190   1.349  0.2425 -1.2920 -0.0391
 4547TIP3    H135276   4.646   1.158   1.430 -1.1208 -1.8022  0.4675
 4547TIP3    H235277   4.553   1.264   1.377 -0.6309 -1.7772 -0.3606
 4548TIP3   OH235278   5.773   2.789   8.819  0.1207  0.2171  0.3817
 4548TIP3    H135279   5.792   2.696   8.832  1.7698  0.4852  0.0875
 4548TIP3    H235280   5.788   2.804   8.725 -0.7799  0.6524  0.2927
 4549TIP3   OH235281   2.120   5.338   7.284 -0.5428 -0.1345 -0.1069
 4549TIP3    H135282   2.051   5.367   7.344 -0.3645  2.6369 -1.1081
 4549TIP3    H235283   2.190   5.402   7.295  1.1848 -1.8775 -0.4117
 4550TIP3   OH235284   0.028   3.767   8.595  0.3994 -0.0160  0.4152
 4550TIP3    H135285  -0.064   3.791   8.579 -0.0856 -0.1817  2.6197
 4550TIP3    H235286   0.076   3.850   8.591  0.5807 -0.1617 -2.8621
 4551TIP3   OH235287   2.805   6.042   2.900  0.1743 -0.3388  0.1483
 4551TIP3    H135288   2.752   5.968   2.930 -1.0759 -0.4185 -2.0376
 4551TIP3    H235289   2.760   6.119   2.933 -0.8775 -0.4413 -0.9805
 4552TIP3   OH235290   2.342   0.772   0.719 -0.4034  0.2379 -0.0186
 4552TIP3    H135291   2.262   0.824   0.716 -0.7033 -0.0521  1.8249
 4552TIP3    H235292   2.391   0.800   0.641 -1.4583  1.7635 -0.1896
 4553TIP3   OH235293   4.260   3.332   8.815 -0.1872  0.0826  0.0489
 4553TIP3    H135294   4.170   3.337   8.785 -1.0427 -0.1743  2.3719
 4553TIP3    H235295   4.262   3.256   8.873  0.5846  1.9890  2.7485
 4554TIP3   OH235296   1.107   3.502   1.113 -0.0343  0.0062  0.2117
 4554TIP3    H135297   1.024   3.493   1.160 -0.3034  0.5449 -0.1646
 4554TIP3    H235298   1.172   3.516   1.182 -0.2623 -0.3349  0.4995
 4555TIP3   OH235299   4.817   0.440   1.557  0.5035  0.3544  0.3989
 4555TIP3    H135300   4.814   0.461   1.650  1.0073 -1.3517  0.8324
 4555TIP3    H235301   4.855   0.518   1.516 -2.2722  2.3028  1.1791
 4556TIP3   OH235302   1.409   4.918   1.799  0.0728 -0.0688 -0.4513
 4556TIP3    H135303   1.463   4.915   1.879 -1.5717 -0.3198  0.6920
 4556TIP3    H235304   1.443   4.847   1.745  1.5083  0.3854 -0.1875
 4557TIP3   OH235305   6.039   2.394   7.526 -0.2211  0.1182 -0.1313
 4557TIP3    H135306   6.111   2.331   7.526 -0.9513 -0.7619  0.8642
 4557TIP3    H235307   6.056   2.449   7.603  0.1990  0.8999 -0.7701
 4558TIP3   OH235308   3.004   4.610   1.094  0.3285  0.5823 -0.2617
 4558TIP3    H135309   2.920   4.565   1.084  0.5873  0.4335 -2.3128
 4558TIP3    H235310   3.030   4.592   1.184 -1.5825  0.1933  0.2664
 4559TIP3   OH235311   1.540   4.984   8.542  0.4209  0.3527  0.0215
 4559TIP3    H135312   1.544   5.061   8.486  2.5447  2.0720  2.3791
 4559TIP3    H235313   1.600   4.921   8.501 -0.7185  0.1837 -1.4717
 4560TIP3   OH235314   3.263   6.210   2.433 -0.1637  0.2681  0.1924
 4560TIP3    H135315   3.327   6.201   2.503 -0.8890  0.2944  0.8774
 4560TIP3    H235316   3.185   6.166   2.466  0.5935 -3.2918 -2.1466
 4561TIP3   OH235317   5.505   3.127   0.181  0.1440  0.3579 -0.6473
 4561TIP3    H135318   5.585   3.086   0.214  0.3104 -0.1162 -1.5820
 4561TIP3    H235319   5.456   3.151   0.259  0.2887 -1.1436 -0.0670
 4562TIP3   OH235320   4.013   4.524   0.966 -0.6028  0.1351  0.6430
 4562TIP3    H135321   4.021   4.612   0.927  0.8595 -0.2616 -0.0143
 4562TIP3    H235322   4.078   4.522   1.035  0.9544 -1.1423 -0.7780
 4563TIP3   OH235323   2.628   2.892   8.768 -0.1614 -0.3499  0.8895
 4563TIP3    H135324   2.683   2.914   8.843  1.2078  2.0465 -0.6865
 4563TIP3    H235325   2.571   2.968   8.757 -1.6917 -1.4867  0.6169
 4564TIP3   OH235326   5.565   6.497   0.681  0.2254  0.3318  0.6227
 4564TIP3    H135327   5.519   6.580   0.673  1.1461  0.8470  0.5720
 4564TIP3    H235328   5.526   6.455   0.758  1.2694  1.8087  2.0084
 4565TIP3   OH235329   4.840   4.856   8.187 -0.0413  0.5682  0.2434
 4565TIP3    H135330   4.768   4.839   8.247 -1.4965 -2.7020 -2.1128
 4565TIP3    H235331   4.900   4.783   8.200  1.0064  1.2859 -0.3638
 4566TIP3   OH235332   4.434   0.437   2.587  0.3593 -0.0444 -0.1507
 4566TIP3    H135333   4.406   0.447   2.496 -0.8288  3.9276  0.4617
 4566TIP3    H235334   4.353   0.417   2.635  1.3060 -4.7463 -0.0191
 4567TIP3   OH235335   1.576   1.542   1.566  0.0851 -0.2459  0.4461
 4567TIP3    H135336   1.508   1.564   1.502 -0.8583 -3.1043  0.3352
 4567TIP3    H235337   1.538   1.567   1.650 -0.3865 -0.2761  0.2445
 4568TIP3   OH235338   6.748   2.620   8.197  0.0953  0.8523  0.0468
 4568TIP3    H135339   6.840   2.601   8.217  0.1311  2.0262  1.1054
 4568TIP3    H235340   6.733   2.577   8.113  0.7699 -1.8702  1.1783
 4569TIP3   OH235341   6.509   2.400   2.304  0.3052  0.0277  0.3414
 4569TIP3    H135342   6.512   2.327   2.243  3.5245  0.8749 -0.6961
 4569TIP3    H235343   6.486   2.361   2.388 -4.4885 -1.1626 -1.1905
 4570TIP3   OH235344   3.216   5.376   2.844 -0.6178  0.1108 -0.8038
 4570TIP3    H135345   3.212   5.298   2.900  1.7255 -0.4949 -1.3460
 4570TIP3    H235346   3.277   5.434   2.890 -0.5467  0.6300 -1.5365
 4571TIP3   OH235347   4.091   3.361   1.181  0.3125 -0.3768  0.3350
 4571TIP3    H135348   4.078   3.395   1.093  1.3463  0.5781  0.5365
 4571TIP3    H235349   4.055   3.428   1.239  1.6596  0.0577  0.7065
 4572TIP3   OH235350   6.154   6.426   8.457  0.5225  0.0916  0.0043
 4572TIP3    H135351   6.155   6.513   8.418 -1.0210 -0.3782 -1.1905
 4572TIP3    H235352   6.096   6.435   8.534 -0.7260 -0.1340 -0.8740
 4573TIP3   OH235353   4.446   3.559   2.306  0.7504  0.4744 -0.1712
 4573TIP3    H135354   4.385   3.509   2.360  0.5493  1.7911  0.9093
 4573TIP3    H235355   4.425   3.535   2.216  0.7532 -1.4195  0.3017
 4574TIP3   OH235356   1.646   4.984   0.671 -0.2679 -0.1840  0.5475
 4574TIP3    H135357   1.708   5.038   0.621 -1.4078  1.1457  0.4942
 4574TIP3    H235358   1.696   4.954   0.746  0.1041  2.1104  1.3073
 4575TIP3   OH235359   1.448   4.249   8.684  0.2332 -0.5131  0.2196
 4575TIP3    H135360   1.537   4.236   8.714  0.5370  0.8878  0.0189
 4575TIP3    H235361   1.449   4.223   8.592  0.9514  1.3139 -0.3269
 4576TIP3   OH235362   6.603   4.179   1.273 -0.0662  0.5285  0.2711
 4576TIP3    H135363   6.619   4.115   1.204 -1.0313  0.3614  0.1868
 4576TIP3    H235364   6.652   4.146   1.348 -0.9770 -0.6033  0.3867
 4577TIP3   OH235365   4.552   5.009   1.301  0.9559 -0.0494 -0.2372
 4577TIP3    H135366   4.627   4.996   1.359  2.3702  1.2748 -1.6544
 4577TIP3    H235367   4.582   5.075   1.238 -0.4474 -1.4880 -2.5578
 4578TIP3   OH235368   3.196   1.279   1.113  0.2034  0.2026 -0.2067
 4578TIP3    H135369   3.155   1.195   1.137  0.5877  0.1975  0.4615
 4578TIP3    H235370   3.288   1.268   1.135  0.5888  0.2021 -1.7502
 4579TIP3   OH235371   0.665   4.566   1.866 -0.4924  0.2301 -0.2747
 4579TIP3    H135372   0.748   4.569   1.914 -0.4323  2.2195 -0.4005
 4579TIP3    H235373   0.652   4.474   1.846  1.3116 -0.2174  0.4112
 4580TIP3   OH235374   4.334   3.647   0.102  0.0218 -0.4486  0.3834
 4580TIP3    H135375   4.425   3.648   0.073 -0.0947  0.9904  0.0094
 4580TIP3    H235376   4.330   3.577   0.167  0.8828 -2.0334 -1.1768
 4581TIP3   OH235377   3.727   4.623   2.533 -0.2732 -0.4274 -0.1104
 4581TIP3    H135378   3.654   4.642   2.591 -2.0267  2.3088 -2.8802
 4581TIP3    H235379   3.797   4.683   2.561 -0.8461  0.3511 -0.2983
 4582TIP3   OH235380   3.807   6.173   8.795  0.1605  0.3916  0.2137
 4582TIP3    H135381   3.852   6.100   8.839 -2.2994 -0.9811  0.6240
 4582TIP3    H235382   3.728   6.188   8.847  0.2572  2.9598 -0.2535
 4583TIP3   OH235383   2.589   1.599   0.979 -0.3279 -0.2816 -0.1510
 4583TIP3    H135384   2.541   1.676   1.010 -1.4849 -0.6807 -0.8711
 4583TIP3    H235385   2.639   1.570   1.054 -0.0485  1.0353  0.2063
 4584TIP3   OH235386   0.493   3.930   2.201  0.2199 -0.6935  0.0817
 4584TIP3    H135387   0.571   3.943   2.148 -0.1245  1.9055  0.0772
 4584TIP3    H235388   0.512   3.975   2.283 -0.7335 -1.2984  0.6612
 4585TIP3   OH235389   0.762   4.141   7.871  0.0043 -0.2187  0.2544
 4585TIP3    H135390   0.810   4.198   7.812 -1.0141 -0.4395 -0.8199
 4585TIP3    H235391   0.697   4.199   7.912  0.8607 -0.0091  1.3966
 4586TIP3   OH235392   2.894   6.118   3.205 -0.0233 -0.0857  0.0014
 4586TIP3    H135393   2.815   6.139   3.256 -0.4428 -1.2256 -0.1574
 4586TIP3    H235394   2.883   6.026   3.181  1.2400 -0.1798 -0.2545
 4587TIP3   OH235395   3.123   3.959   2.484 -0.5888  0.1216  0.2006
 4587TIP3    H135396   3.205   3.959   2.534 -0.4984  1.1905  0.0897
 4587TIP3    H235397   3.055   3.938   2.548 -0.2280 -0.9169  0.2637
 4588TIP3   OH235398   4.088   0.383   3.440 -0.1157  0.3943 -0.3985
 4588TIP3    H135399   4.106   0.290   3.432 -1.0807  0.2353 -0.9678
 4588TIP3    H235400   4.047   0.392   3.526  0.2821  0.3446 -0.2045
 4589TIP3   OH235401   2.903   3.397   8.218 -0.0185  0.1052  0.0884
 4589TIP3    H135402   2.954   3.378   8.140 -0.3919 -0.1453 -0.0956
 4589TIP3    H235403   2.964   3.383   8.291  0.2602  0.1126 -0.1448
 4590TIP3   OH235404   4.919   6.129   8.808  0.2437 -0.2030  0.1871
 4590TIP3    H135405   5.006   6.167   8.794  0.3646 -0.9966 -1.6206
 4590TIP3    H235406   4.887   6.110   8.719 -1.9332  0.3626  0.7809
 4591TIP3   OH235407   1.149   1.800   1.504 -0.4728  0.1857 -0.2717
 4591TIP3    H135408   1.143   1.804   1.600  4.4946  1.9039  0.2750
 4591TIP3    H235409   1.138   1.891   1.476 -0.1474 -0.0133 -1.0834
 4592TIP3   OH235410   1.433   1.903   0.503  0.2461  0.2054  0.5727
 4592TIP3    H135411   1.517   1.903   0.456 -0.0577  0.0508  0.0237
 4592TIP3    H235412   1.438   1.826   0.560  1.0005  0.9204  1.5079
 4593TIP3   OH235413   3.689   3.267   2.379 -0.2950 -0.0917 -0.2992
 4593TIP3    H135414   3.710   3.202   2.446 -0.5718  0.3605  0.2348
 4593TIP3    H235415   3.697   3.220   2.297  0.2218 -0.6110  0.0430
 4594TIP3   OH235416   4.978   6.638   2.328  0.3172 -0.6409  0.4304
 4594TIP3    H135417   4.951   6.556   2.287 -0.6287 -0.0609 -0.1463
 4594TIP3    H235418   4.924   6.705   2.287  3.3978  0.8139 -1.6315
 4595TIP3   OH235419   1.864   3.220   0.371  0.9444  0.1593 -0.0075
 4595TIP3    H135420   1.925   3.294   0.372  1.7698 -0.5274  0.9128
 4595TIP3    H235421   1.864   3.192   0.279  1.2553  0.7703 -0.2072
 4596TIP3   OH235422   2.784   0.041   2.080  0.0248  0.4405 -0.2858
 4596TIP3    H135423   2.706  -0.012   2.092 -0.1222  0.3086 -1.7385
 4596TIP3    H235424   2.771   0.086   1.997  1.2984  0.7427 -0.3440
 4597TIP3   OH235425   1.170   3.831   1.879  0.2422  0.4571  0.5045
 4597TIP3    H135426   1.158   3.743   1.844  0.8310  0.4691  0.2560
 4597TIP3    H235427   1.142   3.825   1.970  0.5679 -0.0683  0.5750
 4598TIP3   OH235428   0.694   0.379   2.460 -0.0599 -0.0462  0.2447
 4598TIP3    H135429   0.749   0.429   2.520  1.2651 -0.3170 -0.7089
 4598TIP3    H235430   0.735   0.389   2.375 -0.5740 -1.5867 -0.2212
 4599TIP3   OH235431   5.588   0.048   1.823  0.0303  0.1198  0.0389
 4599TIP3    H135432   5.647   0.027   1.750  0.8750  2.3602 -0.0016
 4599TIP3    H235433   5.536   0.121   1.792 -3.6570 -2.3877 -0.2800
 4600TIP3   OH235434   6.031   3.388   2.462 -0.2212  0.4440 -0.0996
 4600TIP3    H135435   6.039   3.483   2.459  1.4642  0.3387 -3.1859
 4600TIP3    H235436   6.118   3.357   2.490  0.2889 -0.1764 -2.2007
 4601TIP3   OH235437   4.646   3.361   8.956  0.0206 -0.2443 -0.3092
 4601TIP3    H135438   4.707   3.321   9.018 -0.8147 -0.4941  0.3921
 4601TIP3    H235439   4.560   3.330   8.985 -0.3396 -1.1032 -2.1450
 4602TIP3   OH235440   3.897   6.290   1.349 -0.0187 -0.3784 -0.2639
 4602TIP3    H135441   3.919   6.246   1.431  2.1438 -2.2859 -1.7181
 4602TIP3    H235442   3.867   6.377   1.375  1.0157 -0.7508  2.5014
 4603TIP3   OH235443   4.365   1.618   2.904  0.5751  0.3398 -0.3096
 4603TIP3    H135444   4.323   1.541   2.868 -0.0862  0.0221  1.0584
 4603TIP3    H235445   4.355   1.608   2.999  1.0687  1.7729 -0.0853
 4604TIP3   OH235446   3.340   5.733   8.179  0.6166 -0.3933  0.0690
 4604TIP3    H135447   3.431   5.756   8.158  0.9840 -2.5510 -0.9574
 4604TIP3    H235448   3.328   5.763   8.269  1.5455  2.0755 -0.5587
 4605TIP3   OH235449   3.241   2.264   7.745  0.0332 -0.1344  0.1138
 4605TIP3    H135450   3.334   2.251   7.729 -0.0478  0.6602 -1.1075
 4605TIP3    H235451   3.234   2.350   7.786 -0.1424 -0.3375  0.5207
 4606TIP3   OH235452   0.374   4.175   0.753  0.3507 -0.7918  0.1966
 4606TIP3    H135453   0.278   4.174   0.758  0.3043  0.7053  0.0360
 4606TIP3    H235454   0.403   4.200   0.841  0.4463  1.5996 -0.4445
 4607TIP3   OH235455   0.972   6.401   1.674 -0.7359  0.0390  0.2007
 4607TIP3    H135456   0.935   6.475   1.626 -0.3814 -0.2195 -0.4837
 4607TIP3    H235457   0.931   6.406   1.760 -1.3271  0.5568 -0.0976
 4608TIP3   OH235458   0.433   3.585   0.491 -0.2395  0.5198  0.0816
 4608TIP3    H135459   0.491   3.578   0.566 -1.9709 -0.4960  1.3758
 4608TIP3    H235460   0.487   3.558   0.416  0.9160 -0.4573  1.2377
 4609TIP3   OH235461   0.665   5.728   2.278 -0.1168  0.0760  0.0682
 4609TIP3    H135462   0.602   5.780   2.328  0.4570  1.7764 -0.8848
 4609TIP3    H235463   0.615   5.695   2.203 -0.2273  0.1803  0.0964
 4610TIP3   OH235464   3.533   3.416   2.075  0.2482 -0.4513  0.0594
 4610TIP3    H135465   3.483   3.415   2.156  1.2156  0.9600  0.7143
 4610TIP3    H235466   3.502   3.494   2.028  0.5709 -0.5595 -0.3425
 4611TIP3   OH235467   2.823   6.320   0.041 -0.2910 -0.1906  0.1679
 4611TIP3    H135468   2.865   6.236   0.061  1.0875  0.7701  1.5024
 4611TIP3    H235469   2.778   6.304  -0.042 -0.2544 -2.3047  0.4789
 4612TIP3   OH235470   5.616   5.397   7.918  0.3989 -0.1961  0.1524
 4612TIP3    H135471   5.544   5.356   7.964  0.3039 -0.2173 -0.0142
 4612TIP3    H235472   5.575   5.465   7.864  0.5967  0.4015  0.7356
 4613TIP3   OH235473   5.850   2.855   2.385  0.4747  0.4507 -0.5711
 4613TIP3    H135474   5.814   2.940   2.413 -1.0027  0.0075 -1.0276
 4613TIP3    H235475   5.938   2.854   2.421  0.9662  2.6886 -1.5381
 4614TIP3   OH235476   5.788   1.810   1.609 -0.0412 -0.1476  0.0995
 4614TIP3    H135477   5.768   1.839   1.698  0.8089  0.4184  0.1210
 4614TIP3    H235478   5.821   1.889   1.566 -2.2767  0.0854 -1.3109
 4615TIP3   OH235479   4.709   0.698   1.315 -0.0966  0.0405  0.0828
 4615TIP3    H135480   4.687   0.679   1.224 -0.4804 -0.3729  0.2586
 4615TIP3    H235481   4.704   0.793   1.322 -0.2965  0.0547 -0.2693
 4616TIP3   OH235482   3.738   4.129   8.134  0.3544  0.1515 -0.7870
 4616TIP3    H135483   3.702   4.190   8.198 -1.3247 -1.3852 -0.1666
 4616TIP3    H235484   3.832   4.147   8.133 -0.0020  2.3445 -0.2529
 4617TIP3   OH235485   5.029   2.214   8.887  0.3254  0.2994  0.3994
 4617TIP3    H135486   4.973   2.155   8.836 -0.3295  1.1211  0.1395
 4617TIP3    H235487   4.971   2.286   8.911  1.4207  1.4526 -0.3367
 4618TIP3   OH235488   1.485   0.480   8.326  0.3020  0.5763  0.5468
 4618TIP3    H135489   1.511   0.511   8.240  1.2727 -0.0355  0.5942
 4618TIP3    H235490   1.390   0.470   8.321  0.5134 -1.1558 -1.0406
 4619TIP3   OH235491   3.828   5.363   2.479 -0.1887  0.3830  0.1521
 4619TIP3    H135492   3.739   5.337   2.503 -0.0405 -0.1551  0.1348
 4619TIP3    H235493   3.873   5.376   2.563 -0.2465  0.5054  0.1627
 4620TIP3   OH235494   2.552   1.682   7.998 -0.1551  0.5489 -0.6327
 4620TIP3    H135495   2.469   1.671   7.953 -0.8216 -0.3207  0.7160
 4620TIP3    H235496   2.593   1.595   7.995 -0.2850  0.4243  0.5010
 4621TIP3   OH235497   6.398   1.195   2.719  0.4983 -0.0906  0.1213
 4621TIP3    H135498   6.489   1.168   2.706  0.2848  0.0285 -1.9128
 4621TIP3    H235499   6.346   1.119   2.690 -0.0534  0.1823  0.3772
 4622TIP3   OH235500   6.701   1.380   0.367  0.4345 -0.0723  0.0089
 4622TIP3    H135501   6.698   1.475   0.357 -1.6750 -0.0142  0.5502
 4622TIP3    H235502   6.770   1.364   0.431  0.7986  1.1056 -0.0746
 4623TIP3   OH235503   0.692   4.006   2.071  0.3573  0.1912  0.1575
 4623TIP3    H135504   0.660   4.078   2.125  0.4453  2.2299 -2.3824
 4623TIP3    H235505   0.787   4.014   2.075  0.3885 -0.2656  0.4480
 4624TIP3   OH235506   5.878   5.956   8.580  0.2369  0.4328 -0.0587
 4624TIP3    H135507   5.964   5.985   8.612  0.1669  0.3957  0.1669
 4624TIP3    H235508   5.883   5.860   8.583 -0.1389  0.4283  0.8580
 4625TIP3   OH235509   1.900   5.787   2.601  0.2739 -0.0666 -0.3932
 4625TIP3    H135510   1.866   5.871   2.572  0.3937  1.4762  3.4504
 4625TIP3    H235511   1.995   5.794   2.589  0.2545  0.2255 -0.3843
 4626TIP3   OH235512   6.510   5.050   8.305 -0.2903 -0.1982  0.0289
 4626TIP3    H135513   6.573   4.979   8.299 -1.1163 -0.9067 -0.5248
 4626TIP3    H235514   6.563   5.130   8.296  0.3624 -0.8053 -2.1637
 4627TIP3   OH235515   5.822   3.026   8.100  0.2972  0.0469  0.4410
 4627TIP3    H135516   5.896   3.070   8.141  0.7330  1.2265 -1.4650
 4627TIP3    H235517   5.752   3.029   8.165  1.3312  0.6019  1.5644
 4628TIP3   OH235518   6.165   5.755   1.309  0.3602  0.3045 -0.2510
 4628TIP3    H135519   6.247   5.803   1.299 -0.3364  1.3124 -1.3524
 4628TIP3    H235520   6.109   5.786   1.237 -0.9419 -0.4609  0.3820
 4629TIP3   OH235521   5.330   3.076   0.410  0.2401  0.7663 -0.0065
 4629TIP3    H135522   5.255   3.091   0.469  0.8471 -0.5715  1.1590
 4629TIP3    H235523   5.407   3.083   0.466  1.0580  2.5255 -1.2719
 4630TIP3   OH235524   6.434   2.981   0.841  0.0519 -0.0956  0.1107
 4630TIP3    H135525   6.390   2.958   0.759  0.0560 -1.7430  0.5382
 4630TIP3    H235526   6.458   3.073   0.830 -1.6543  0.2699 -0.9575
 4631TIP3   OH235527   3.574   1.171   1.559 -0.2752 -0.3102 -0.3791
 4631TIP3    H135528   3.628   1.168   1.639 -0.2127  0.7405 -0.3770
 4631TIP3    H235529   3.637   1.188   1.489 -0.2279 -1.9480 -0.7770
 4632TIP3   OH235530   1.212   2.785   8.706 -0.2301 -0.0553  0.3080
 4632TIP3    H135531   1.251   2.733   8.635 -0.1628  0.9092 -0.3944
 4632TIP3    H235532   1.174   2.721   8.765 -0.3590 -0.8970 -0.6525
 4633TIP3   OH235533   5.463   3.463   2.570  0.0524 -0.2086 -0.1692
 4633TIP3    H135534   5.374   3.438   2.593 -0.5046  0.4610 -1.4770
 4633TIP3    H235535   5.470   3.555   2.598  0.8006 -0.6450  1.1457
 4634TIP3   OH235536   3.756   5.480   7.832 -0.3406 -0.2166  0.6936
 4634TIP3    H135537   3.829   5.424   7.858  0.3595  0.9965  1.4036
 4634TIP3    H235538   3.722   5.516   7.913 -0.9647  0.1748  0.2721
 4635TIP3   OH235539   5.647   4.034   3.195  0.5416 -0.1766  0.3016
 4635TIP3    H135540   5.655   3.953   3.245 -2.7012 -0.7972 -0.0033
 4635TIP3    H235541   5.621   4.100   3.260  0.9114  0.1183  0.1576
 4636TIP3   OH235542   3.204   5.533   1.779  0.0818 -0.1076 -0.1126
 4636TIP3    H135543   3.227   5.618   1.742  1.6054 -0.8056 -0.8499
 4636TIP3    H235544   3.180   5.480   1.704 -0.4824 -0.4599  0.3050
 4637TIP3   OH235545   1.873   3.351   3.050  0.3402  0.2763  0.1728
 4637TIP3    H135546   1.887   3.335   2.957 -1.3134 -0.3633 -0.0030
 4637TIP3    H235547   1.894   3.268   3.093 -2.4202 -0.6820 -0.0895
 4638TIP3   OH235548   0.828   3.641   2.854 -0.8982 -0.2732  0.3481
 4638TIP3    H135549   0.847   3.582   2.927 -2.2830 -1.1373  0.0425
 4638TIP3    H235550   0.746   3.608   2.817 -2.8621  3.0284  1.3931
 4639TIP3   OH235551   1.940   4.506   0.590  0.0346 -0.1125  0.5220
 4639TIP3    H135552   2.019   4.458   0.566  0.3676  0.5856  0.1981
 4639TIP3    H235553   1.882   4.497   0.514 -0.1744 -0.5610  0.7298
 4640TIP3   OH235554   4.678   3.426   7.690 -0.1547 -0.3725  0.3157
 4640TIP3    H135555   4.641   3.419   7.602  2.5348  0.9039 -1.0676
 4640TIP3    H235556   4.709   3.338   7.710  1.8188 -0.1614 -1.3936
 4641TIP3   OH235557   3.576   2.440   0.604  0.3101  0.0278  0.0495
 4641TIP3    H135558   3.647   2.504   0.611  0.7090 -0.5374  1.4968
 4641TIP3    H235559   3.528   2.449   0.687 -0.3043 -0.7573 -0.2148
 4642TIP3   OH235560   2.329   3.238   0.180  0.5684  0.4126  0.2634
 4642TIP3    H135561   2.267   3.168   0.202  0.6211  0.1148 -0.5148
 4642TIP3    H235562   2.349   3.279   0.264  2.4559 -2.0672  1.1462
 4643TIP3   OH235563   5.041   1.751   7.985  0.1760  0.1211  0.4038
 4643TIP3    H135564   5.059   1.829   8.038 -0.6472  0.1997  0.5864
 4643TIP3    H235565   5.000   1.785   7.905  0.3565 -0.0779  0.2266
 4644TIP3   OH235566   5.399   2.942   8.685  0.3548 -0.0041 -0.1260
 4644TIP3    H135567   5.479   2.919   8.638  1.7850  1.0644  1.6559
 4644TIP3    H235568   5.429   2.997   8.758 -2.1763  1.7641 -0.3055
 4645TIP3   OH235569   0.950   3.198   8.139 -0.6231  0.2389 -0.5057
 4645TIP3    H135570   0.867   3.156   8.162  0.1898 -0.5260  1.2617
 4645TIP3    H235571   0.931   3.292   8.142 -1.5331  0.0689 -0.6476
 4646TIP3   OH235572   2.567   3.160   0.479 -0.0632  0.4278 -0.0682
 4646TIP3    H135573   2.610   3.221   0.419  1.2494 -0.3960 -0.0143
 4646TIP3    H235574   2.560   3.078   0.429 -1.4206  0.4873 -0.0009
 4647TIP3   OH235575   0.810   2.459   7.765  0.0917 -0.8135 -0.4273
 4647TIP3    H135576   0.817   2.501   7.851  1.0676  0.7002 -1.1988
 4647TIP3    H235577   0.806   2.532   7.703  0.6051 -1.8648 -1.7472
 4648TIP3   OH235578   5.665   4.082   1.225 -0.2587 -0.5510 -0.2514
 4648TIP3    H135579   5.661   4.109   1.317 -0.8894  1.9802 -0.9538
 4648TIP3    H235580   5.755   4.104   1.198  0.3901 -2.6115  0.0772
 4649TIP3   OH235581   0.819   3.876   1.398  0.3658 -0.5013 -0.3390
 4649TIP3    H135582   0.902   3.836   1.373  0.7534  0.9190 -1.4946
 4649TIP3    H235583   0.755   3.836   1.339  0.6598  0.1610 -1.1232
 4650TIP3   OH235584   0.624   1.461   2.981 -0.8332  0.1965 -0.3371
 4650TIP3    H135585   0.555   1.520   2.951 -1.2476  0.6901  1.4834
 4650TIP3    H235586   0.631   1.477   3.075  0.6645 -0.9976 -0.1985
 4651TIP3   OH235587   6.488   1.434   0.580  0.3621  0.2316 -0.2711
 4651TIP3    H135588   6.556   1.479   0.529  1.5133  0.1634  1.1513
 4651TIP3    H235589   6.478   1.487   0.659  0.7577 -1.2592  0.8143
 4652TIP3   OH235590   0.963   6.212   0.121 -0.3282  0.4483  1.2219
 4652TIP3    H135591   0.916   6.295   0.126  0.8440  1.2484 -0.1978
 4652TIP3    H235592   1.045   6.228   0.168  0.0768  0.2326  0.5996
 4653TIP3   OH235593   5.692   0.946   8.640  0.2238 -0.4231 -0.0874
 4653TIP3    H135594   5.764   0.929   8.701 -0.3157 -1.0216  0.3979
 4653TIP3    H235595   5.731   1.000   8.572  0.8332  0.2808  0.7976
 4654TIP3   OH235596   6.234   0.174   7.853 -0.0322  0.4068  0.3908
 4654TIP3    H135597   6.156   0.193   7.800 -1.4396  0.0263  2.2155
 4654TIP3    H235598   6.304   0.224   7.811 -1.3860  1.2749 -0.9553
 4655TIP3   OH235599   1.335   1.222   0.978 -0.1017 -0.2143  0.7188
 4655TIP3    H135600   1.403   1.156   0.966  1.4462  1.4282  0.0441
 4655TIP3    H235601   1.281   1.215   0.899  0.4041 -0.3055  0.3749
 4656TIP3   OH235602   6.566   6.588   0.971 -0.0228 -0.3771 -0.1335
 4656TIP3    H135603   6.581   6.668   0.921  0.6514 -1.8798 -2.5072
 4656TIP3    H235604   6.642   6.581   1.029  0.0881  0.4890 -0.1662
 4657TIP3   OH235605   6.744   3.304   8.945 -0.3330 -0.3303 -0.0178
 4657TIP3    H135606   6.759   3.398   8.959  0.3132 -0.5445  0.8111
 4657TIP3    H235607   6.672   3.283   9.004 -2.2702  0.1427 -2.0657
 4658TIP3   OH235608   0.215   4.255   1.247  0.1034  0.2528  0.1408
 4658TIP3    H135609   0.144   4.294   1.297  0.1036 -0.4716  0.7144
 4658TIP3    H235610   0.295   4.284   1.291  0.1529  0.7500 -0.2722
 4659TIP3   OH235611   3.398   3.799   2.134  0.5256 -0.4270  0.5479
 4659TIP3    H135612   3.308   3.777   2.157  0.9502 -1.9830  0.8714
 4659TIP3    H235613   3.412   3.887   2.170 -1.3056  0.4820 -0.8361
 4660TIP3   OH235614   6.403   5.436   2.344  0.2836  0.0943  0.2859
 4660TIP3    H135615   6.400   5.477   2.258  2.2636  0.1423  0.2023
 4660TIP3    H235616   6.314   5.402   2.357 -0.8966  2.6220 -0.4814
 4661TIP3   OH235617   0.657   6.386   2.782 -0.3678 -0.5661  0.5323
 4661TIP3    H135618   0.750   6.364   2.787 -0.3287 -0.4543  0.2999
 4661TIP3    H235619   0.616   6.307   2.747 -0.2047 -0.2306 -0.4673
 4662TIP3   OH235620   0.071   0.573   8.347  0.1373 -0.1446  0.0470
 4662TIP3    H135621   0.024   0.644   8.390  0.7999  0.7604 -0.6869
 4662TIP3    H235622   0.002   0.517   8.312 -0.3981  0.6335 -0.1632
 4663TIP3   OH235623   0.447   1.617   1.019  0.1544  0.0174 -0.1559
 4663TIP3    H135624   0.537   1.645   1.002 -0.1251  0.1683 -1.5768
 4663TIP3    H235625   0.422   1.661   1.100  0.4630  2.1593 -1.1587
 4664TIP3   OH235626   3.963   0.978   1.471  0.4761  0.2237  0.2906
 4664TIP3    H135627   4.005   0.893   1.484  1.2006  0.3359 -1.1656
 4664TIP3    H235628   3.887   0.960   1.416  0.8495  0.5626 -0.3453
 4665TIP3   OH235629   6.215   6.643   0.439 -0.0861 -0.3215  0.2898
 4665TIP3    H135630   6.151   6.578   0.467  0.0150 -0.6513 -0.2367
 4665TIP3    H235631   6.299   6.612   0.473 -0.3124  0.6012  1.8109
 4666TIP3   OH235632   6.333   1.585   0.115 -0.1986 -0.5968 -0.7808
 4666TIP3    H135633   6.307   1.593   0.206 -0.4787 -2.7045 -0.6279
 4666TIP3    H235634   6.400   1.518   0.114  0.7691  0.3244 -1.9892
 4667TIP3   OH235635   3.246   5.775   0.693 -0.4307  0.5076  0.1474
 4667TIP3    H135636   3.169   5.779   0.637 -0.5301 -2.0541 -0.0269
 4667TIP3    H235637   3.230   5.700   0.750  1.2283  0.9217  1.2355
 4668TIP3   OH235638   0.942   4.293   0.067 -0.3276  0.3313  0.3096
 4668TIP3    H135639   0.979   4.356   0.005  0.3240  1.3259  1.6549
 4668TIP3    H235640   0.994   4.304   0.146 -0.4074 -1.6970  0.7082
 4669TIP3   OH235641   1.875   3.648   0.609 -0.4031 -0.1506  0.2637
 4669TIP3    H135642   1.933   3.573   0.595 -0.7648 -0.4325  0.2542
 4669TIP3    H235643   1.810   3.640   0.539  0.4197  1.0287 -0.6940
 4670TIP3   OH235644   6.165   4.768   0.844  0.4412  0.3010 -0.0644
 4670TIP3    H135645   6.198   4.818   0.920 -0.8776  1.1661 -0.0393
 4670TIP3    H235646   6.217   4.799   0.771  0.1425  1.1769  0.0881
 4671TIP3   OH235647   4.751   6.602   1.563  0.0307  0.3261 -0.1939
 4671TIP3    H135648   4.660   6.593   1.534  0.0003 -2.2513  0.4386
 4671TIP3    H235649   4.762   6.533   1.628  1.7587  2.2315  1.6784
 4672TIP3   OH235650   4.616   2.424   2.839  0.6632  0.0980 -0.2789
 4672TIP3    H135651   4.693   2.471   2.807  1.4280 -1.3554 -0.6698
 4672TIP3    H235652   4.653   2.352   2.890 -0.4493 -0.5684 -0.4030
 4673TIP3   OH235653   6.024   1.082   1.187 -0.4669 -0.4683  0.5125
 4673TIP3    H135654   5.990   1.014   1.130  2.6147 -0.6369 -1.3634
 4673TIP3    H235655   6.091   1.038   1.239  0.0081  0.6659  0.8947
 4674TIP3   OH235656   6.147   1.348   2.199  0.5172  0.3355 -0.2715
 4674TIP3    H135657   6.137   1.413   2.268  0.7562  0.5757 -0.4588
 4674TIP3    H235658   6.216   1.384   2.142 -0.0698  0.4108 -0.9452
 4675TIP3   OH235659   1.982   1.573   2.581 -0.1683 -0.1006  0.1632
 4675TIP3    H135660   2.008   1.536   2.497 -1.8633  1.5222 -1.1664
 4675TIP3    H235661   1.961   1.664   2.561 -0.6146  0.3334  2.3736
 4676TIP3   OH235662   5.934   1.014   3.160 -0.5469 -0.5294  0.0170
 4676TIP3    H135663   5.937   0.922   3.133 -0.8126 -0.7900  0.8263
 4676TIP3    H235664   5.964   1.013   3.251 -1.1228  0.0986  0.2265
 4677TIP3   OH235665   5.192   1.638   1.072 -0.0156 -0.8904  0.2615
 4677TIP3    H135666   5.176   1.553   1.112  1.0108 -1.2185 -0.0169
 4677TIP3    H235667   5.284   1.638   1.049  0.3378  0.7851  1.4400
 4678TIP3   OH235668   3.556   6.618   3.529  0.1018 -0.5724  0.1307
 4678TIP3    H135669   3.562   6.702   3.573 -1.9772 -0.1616 -0.2697
 4678TIP3    H235670   3.586   6.635   3.440  1.4325 -0.7152  0.5284
 4679TIP3   OH235671   2.135   4.678   8.522 -0.5598 -0.2717  0.0605
 4679TIP3    H135672   2.049   4.667   8.562 -0.3195  0.7134  0.9005
 4679TIP3    H235673   2.195   4.636   8.583 -0.5744 -2.5666 -1.3921
 4680TIP3   OH235674   0.475   3.319   2.661 -0.4364  0.2110  0.7272
 4680TIP3    H135675   0.406   3.308   2.596 -1.0123 -0.0818  1.3873
 4680TIP3    H235676   0.440   3.282   2.741 -0.0565  1.3208  1.4404
 4681TIP3   OH235677   5.155   4.392   1.944 -0.0221  0.3040  0.3645
 4681TIP3    H135678   5.152   4.478   1.987  1.8148 -0.0068  1.2091
 4681TIP3    H235679   5.143   4.412   1.851  0.3971  1.4848  0.5400
 4682TIP3   OH235680   4.131   2.979   0.326  0.4706  0.0252  0.2216
 4682TIP3    H135681   4.080   2.923   0.267  0.6593 -1.0394  1.0319
 4682TIP3    H235682   4.083   2.976   0.409  1.0016  0.2925  0.5462
 4683TIP3   OH235683   0.528   5.217   8.515 -0.0205 -0.2791 -0.3730
 4683TIP3    H135684   0.615   5.254   8.530 -0.7079  2.1830 -1.9240
 4683TIP3    H235685   0.518   5.215   8.420 -2.1207  0.7542 -0.2405
 4684TIP3   OH235686   4.983   6.756   0.177  0.0201 -0.3667 -0.0103
 4684TIP3    H135687   5.029   6.733   0.258  1.8228  1.9862 -0.2596
 4684TIP3    H235688   4.922   6.825   0.204  1.8963  1.7521 -0.8106
 4685TIP3   OH235689   4.328   4.174   7.683 -1.1014  0.3873  0.2726
 4685TIP3    H135690   4.345   4.115   7.610  1.5816  1.3375 -0.0016
 4685TIP3    H235691   4.264   4.237   7.650 -0.4656  0.3744 -1.0346
 4686TIP3   OH235692   1.587   6.478   0.803 -0.2944  0.5623 -0.2607
 4686TIP3    H135693   1.621   6.395   0.771  0.5715  1.1382 -0.8981
 4686TIP3    H235694   1.492   6.471   0.793 -0.2986 -0.6478  0.4614
 4687TIP3   OH235695   4.387   6.396   0.103  0.2121 -0.2125 -0.0736
 4687TIP3    H135696   4.406   6.481   0.144 -0.8773  0.8484 -1.6570
 4687TIP3    H235697   4.415   6.407   0.012  0.3479 -1.6784 -0.2214
 4688TIP3   OH235698   1.895   0.727   2.836 -0.1399 -0.0245 -0.0459
 4688TIP3    H135699   1.805   0.695   2.843  0.2999 -1.3968 -0.3198
 4688TIP3    H235700   1.928   0.725   2.926  0.1474 -1.2243 -0.1564
 4689TIP3   OH235701   0.891   3.179   8.642  0.7728  0.6543  0.2653
 4689TIP3    H135702   0.828   3.107   8.635 -0.0280  1.4448 -0.8654
 4689TIP3    H235703   0.965   3.140   8.689 -0.4940 -0.3121  1.5564
 4690TIP3   OH235704   5.732   2.286   8.535 -0.7416 -0.1468 -0.9386
 4690TIP3    H135705   5.660   2.267   8.594 -0.3311  1.5697  0.1939
 4690TIP3    H235706   5.807   2.241   8.574  0.3438  3.6775  2.0165
 4691TIP3   OH235707   6.565   5.673   2.010  0.0408 -0.1953  0.1172
 4691TIP3    H135708   6.518   5.614   1.951  0.1197 -1.4473  1.2725
 4691TIP3    H235709   6.501   5.698   2.076 -0.1707  1.5567 -0.6746
 4692TIP3   OH235710   1.363   0.082   8.838  0.2473 -0.1971 -0.1511
 4692TIP3    H135711   1.380   0.056   8.928 -0.9238 -2.0329 -0.4220
 4692TIP3    H235712   1.449   0.081   8.796  0.5943 -0.9102  0.5623
 4693TIP3   OH235713   6.085   2.281   1.542 -0.4857  0.3079  0.1287
 4693TIP3    H135714   6.125   2.199   1.514 -0.0512  0.1178  1.2486
 4693TIP3    H235715   6.045   2.260   1.627 -2.6883  0.5733 -0.7693
 4694TIP3   OH235716   4.270   2.639   8.375  0.0067 -0.2825 -0.3211
 4694TIP3    H135717   4.221   2.661   8.296 -1.5702 -1.8817  0.1382
 4694TIP3    H235718   4.281   2.722   8.421  2.7919  1.0744 -3.1121
 4695TIP3   OH235719   5.843   3.192   0.943 -0.2351 -0.0513  0.0481
 4695TIP3    H135720   5.902   3.210   1.016  0.8614  2.0365 -1.2480
 4695TIP3    H235721   5.763   3.241   0.965 -0.4884 -0.6662  0.5309
 4696TIP3   OH235722   4.767   0.079   1.699  0.3764  0.9717 -0.4886
 4696TIP3    H135723   4.759  -0.005   1.654 -1.7510  0.9053 -0.0848
 4696TIP3    H235724   4.837   0.066   1.763 -0.0490 -0.5671 -0.2993
 4697TIP3   OH235725   0.326   2.922   0.930  0.5466  0.4426 -0.1195
 4697TIP3    H135726   0.284   2.925   1.016 -1.4137  0.4235 -1.0123
 4697TIP3    H235727   0.354   2.832   0.919  1.8176  0.6886  0.9247
 4698TIP3   OH235728   4.568   4.154   2.200  0.1259  0.0711 -0.2321
 4698TIP3    H135729   4.593   4.231   2.251  1.1788 -1.5777  1.8989
 4698TIP3    H235730   4.490   4.120   2.244  0.2363 -0.6180 -0.5626
 4699TIP3   OH235731   3.508   0.644   3.154 -0.2932  0.5725  0.3569
 4699TIP3    H135732   3.507   0.678   3.243 -1.1823 -1.4052  1.1407
 4699TIP3    H235733   3.572   0.573   3.156 -1.6830 -0.7322 -0.0545
 4700TIP3   OH235734   0.002   0.020   0.887 -0.8607  0.0835 -0.1396
 4700TIP3    H135735   0.092   0.008   0.858 -1.2208  0.2735 -1.3819
 4700TIP3    H235736   0.007   0.015   0.983  0.7878  2.3048 -0.0274
 4701TIP3   OH235737   0.907   4.383   1.665 -0.4654  0.2066 -0.1856
 4701TIP3    H135738   0.919   4.310   1.604 -0.5571  0.3133 -0.3325
 4701TIP3    H235739   0.834   4.354   1.721 -1.0311  0.5120 -0.7491
 4702TIP3   OH235740   6.048   2.110   0.419 -0.0309  0.4786  0.1151
 4702TIP3    H135741   6.092   2.194   0.429  0.6544 -0.0017  1.3098
 4702TIP3    H235742   6.040   2.075   0.509 -2.7452  0.4843 -0.0205
 4703TIP3   OH235743   1.119   3.655   2.402 -0.2471 -0.5558  0.1380
 4703TIP3    H135744   1.058   3.639   2.330 -0.0060 -0.7196 -0.0319
 4703TIP3    H235745   1.187   3.589   2.391 -0.3604 -0.7737  0.6897
 4704TIP3   OH235746   3.986   3.842   8.086  0.4847  0.0383  0.2462
 4704TIP3    H135747   3.986   3.764   8.142  1.3984  0.8265  1.4076
 4704TIP3    H235748   3.976   3.915   8.147 -1.2212  0.8166 -0.9065
 4705TIP3   OH235749   3.054   4.901   1.598 -0.2982 -0.1135 -0.5341
 4705TIP3    H135750   3.125   4.839   1.615  0.7086  0.3358 -2.7076
 4705TIP3    H235751   3.083   4.982   1.639  0.2494 -0.0563 -1.0236
 4706TIP3   OH235752   1.706   3.581   2.239  0.2720  0.0612  0.0683
 4706TIP3    H135753   1.793   3.599   2.204  0.7035  0.6480  1.4194
 4706TIP3    H235754   1.721   3.517   2.309 -0.1892  1.3048  1.3276
 4707TIP3   OH235755   1.191   1.606   8.308  0.2695 -0.3178  0.9888
 4707TIP3    H135756   1.226   1.672   8.369  0.2360 -0.3604  1.0538
 4707TIP3    H235757   1.180   1.527   8.361 -1.9141  0.2500  1.5118
 4708TIP3   OH235758   5.784   0.435   8.644 -0.8794 -0.0319 -0.2996
 4708TIP3    H135759   5.738   0.380   8.581 -1.6547  1.0968 -0.7465
 4708TIP3    H235760   5.833   0.497   8.590  0.8265 -0.8797  0.1760
 4709TIP3   OH235761   2.673   5.017   2.965 -0.3217 -0.0001 -0.1951
 4709TIP3    H135762   2.577   5.025   2.965 -0.3117  0.2414 -1.1517
 4709TIP3    H235763   2.700   5.050   3.051 -0.9708  1.5643 -0.5579
 4710TIP3   OH235764   2.763   0.588   3.376  0.1599 -0.0214 -0.0296
 4710TIP3    H135765   2.815   0.668   3.377  0.6796 -0.3571  0.4332
 4710TIP3    H235766   2.828   0.518   3.384 -0.3472 -0.4497  0.3904
 4711TIP3   OH235767   4.157   3.713   2.103 -0.4223  0.8798  0.1486
 4711TIP3    H135768   4.072   3.683   2.074  0.5165 -3.3665  1.1448
 4711TIP3    H235769   4.219   3.677   2.039  0.8424  0.6509  1.4297
 4712TIP3   OH235770   2.076   4.317   3.094 -0.2888  0.2202 -0.3023
 4712TIP3    H135771   2.019   4.241   3.084 -0.7332  0.5126 -0.0119
 4712TIP3    H235772   2.148   4.301   3.034 -1.4861  0.6329 -1.9039
 4713TIP3   OH235773   3.547   3.082   1.386 -0.4393  0.2817 -0.3447
 4713TIP3    H135774   3.468   3.030   1.377 -0.7673  0.7295 -0.1172
 4713TIP3    H235775   3.607   3.027   1.436 -0.6348 -0.0314 -0.4559
 4714TIP3   OH235776   6.204   0.544   0.190 -0.5449  0.3630  0.4285
 4714TIP3    H135777   6.189   0.622   0.136  0.1537 -0.3165 -0.7959
 4714TIP3    H235778   6.282   0.567   0.242  1.4619 -0.4596 -1.9876
 4715TIP3   OH235779   6.540   2.137   0.934 -0.1050  0.0605  0.4514
 4715TIP3    H135780   6.552   2.184   1.017  0.6189 -0.1726  0.4924
 4715TIP3    H235781   6.453   2.097   0.941 -1.2782  2.3636 -0.0892
 4716TIP3   OH235782   5.014   0.060   0.739 -0.5459 -0.3390 -0.6778
 4716TIP3    H135783   4.943  -0.004   0.752 -1.7549  1.1138  0.1651
 4716TIP3    H235784   5.084   0.029   0.797 -1.7878  0.0277  1.1242
 4717TIP3   OH235785   4.939   4.226   0.520  0.1667 -0.1458 -0.3875
 4717TIP3    H135786   4.932   4.134   0.495  0.9443  0.7555 -4.5874
 4717TIP3    H235787   4.848   4.254   0.534 -0.3146 -0.9458 -1.7893
 4718TIP3   OH235788   1.288   3.985   1.183 -0.2693 -0.1336  0.1900
 4718TIP3    H135789   1.261   4.053   1.122 -1.8018 -0.9694 -0.1092
 4718TIP3    H235790   1.237   4.003   1.262  0.7463  0.1707  0.8047
 4719TIP3   OH235791   3.901   1.440   0.429 -0.4144 -0.1248  0.1749
 4719TIP3    H135792   3.828   1.441   0.368 -0.5827  1.1453  0.3622
 4719TIP3    H235793   3.912   1.532   0.455  0.7260 -0.4044  0.7642
 4720TIP3   OH235794   1.612   4.421   2.696 -0.7172  0.3321  0.0278
 4720TIP3    H135795   1.623   4.340   2.746  0.9801  0.8719  0.6045
 4720TIP3    H235796   1.603   4.489   2.762 -1.0175  0.7500 -0.4360
 4721TIP3   OH235797   0.615   6.139   8.898  0.4303 -0.5267  0.0894
 4721TIP3    H135798   0.557   6.215   8.903 -0.8764 -1.5677  2.5981
 4721TIP3    H235799   0.621   6.120   8.804 -0.0292  2.0101 -0.5315
 4722TIP3   OH235800   6.375   5.828   2.858  0.2439  0.1224  0.0949
 4722TIP3    H135801   6.397   5.913   2.896 -0.6848 -0.0862  1.1953
 4722TIP3    H235802   6.315   5.789   2.922 -0.3967 -0.7970 -1.0283
 4723TIP3   OH235803   4.364   0.808   0.753 -0.0646 -0.1088  0.5295
 4723TIP3    H135804   4.455   0.838   0.743  0.1916 -1.1800 -0.7034
 4723TIP3    H235805   4.314   0.866   0.696 -0.1292  0.3432  1.0409
 4724TIP3   OH235806   5.709   2.323   2.738 -0.1362  0.9832  0.5084
 4724TIP3    H135807   5.649   2.250   2.724  0.9722 -0.1017  1.2206
 4724TIP3    H235808   5.726   2.357   2.651 -1.4920  1.0821  0.2630
 4725TIP3   OH235809   1.939   0.577   0.662 -0.8979  0.3456  0.0801
 4725TIP3    H135810   1.933   0.581   0.758  0.3391  0.7308  0.1557
 4725TIP3    H235811   1.856   0.614   0.632 -1.1535  0.5650  0.9986
 4726TIP3   OH235812   0.623   2.374   0.110  0.6337 -0.1164  0.4461
 4726TIP3    H135813   0.705   2.402   0.068  0.7146  0.7836  1.1918
 4726TIP3    H235814   0.638   2.388   0.203 -0.6217  0.6931  0.5369
 4727TIP3   OH235815   2.703   2.238   1.495  0.0277  0.1679  0.0577
 4727TIP3    H135816   2.700   2.316   1.550  0.4864 -0.0262  0.3592
 4727TIP3    H235817   2.614   2.230   1.460  0.1101  1.1436 -0.4251
 4728TIP3   OH235818   1.095   6.772   0.283  0.3208  0.4886  0.0973
 4728TIP3    H135819   1.054   6.765   0.196 -0.6538  1.2478  0.4770
 4728TIP3    H235820   1.084   6.864   0.307  1.0102  0.3878  0.8311
 4729TIP3   OH235821   6.409   6.293   1.927 -0.0136 -0.0805  0.1184
 4729TIP3    H135822   6.352   6.360   1.964 -1.2332 -0.7726 -0.4500
 4729TIP3    H235823   6.349   6.232   1.884  1.0189 -1.6971  0.8730
 4730TIP3   OH235824   3.439   2.678   1.377  0.2929 -0.4736  0.0664
 4730TIP3    H135825   3.527   2.705   1.351 -0.2612  0.5488 -0.8718
 4730TIP3    H235826   3.432   2.705   1.469  1.2703 -1.4373  0.4392
 4731TIP3   OH235827   6.224   5.193   1.061  0.2526 -0.3475 -0.2658
 4731TIP3    H135828   6.237   5.114   1.009  1.0321  0.1352 -0.8252
 4731TIP3    H235829   6.310   5.214   1.095 -0.0921 -0.1639  0.5225
 4732TIP3   OH235830   2.667   6.408   2.033  0.1881 -0.3601  0.1930
 4732TIP3    H135831   2.742   6.429   2.089 -1.6191 -0.7451  2.9483
 4732TIP3    H235832   2.649   6.316   2.051 -1.3569 -0.0881  0.1251
 4733TIP3   OH235833   2.450   5.793   0.881 -0.3759 -0.0737  0.6824
 4733TIP3    H135834   2.448   5.842   0.962  2.0715 -1.1694  1.5070
 4733TIP3    H235835   2.387   5.722   0.894 -2.0549  1.3180  0.4618
 4734TIP3   OH235836   0.195   4.896   0.909  0.3212  0.2665  0.0739
 4734TIP3    H135837   0.167   4.860   0.824  0.4446  2.5194 -0.9966
 4734TIP3    H235838   0.281   4.935   0.891  0.9739 -0.3736  1.6037
 4735TIP3   OH235839   1.315   1.396   1.664  0.1989  0.1738 -0.1728
 4735TIP3    H135840   1.229   1.355   1.658  1.3865 -2.3035 -1.5015
 4735TIP3    H235841   1.312   1.467   1.599 -0.9956  0.5232  0.2353
 4736TIP3   OH235842   4.745   4.148   1.984  0.2502 -0.2465  0.0401
 4736TIP3    H135843   4.711   4.117   2.068 -0.1612 -0.9451 -0.3698
 4736TIP3    H235844   4.832   4.108   1.978  2.4231  3.5829  2.2682
 4737TIP3   OH235845   5.492   5.548   7.724 -0.6387  0.1171 -0.4928
 4737TIP3    H135846   5.427   5.502   7.672  0.4423 -1.2135 -0.7259
 4737TIP3    H235847   5.500   5.634   7.683 -0.7777 -0.4360 -1.7170
 4738TIP3   OH235848   5.296   5.623   7.930  0.1797 -0.3683  0.1719
 4738TIP3    H135849   5.332   5.576   7.854  1.0903  2.0541 -0.9991
 4738TIP3    H235850   5.325   5.572   8.006 -1.5443 -3.4144 -1.0271
 4739TIP3   OH235851   1.978   2.516   2.074 -0.0662  0.0169 -0.2589
 4739TIP3    H135852   2.014   2.532   2.161 -0.0491  1.3161 -0.4733
 4739TIP3    H235853   1.906   2.579   2.066 -1.0858 -1.1578 -0.6039
 4740TIP3   OH235854   0.743   5.418   3.335  0.3431 -0.5056  0.2837
 4740TIP3    H135855   0.672   5.396   3.276  1.1122  0.0120 -0.8570
 4740TIP3    H235856   0.785   5.334   3.354  0.4700 -0.6015 -0.4049
 4741TIP3   OH235857   5.133   3.775   8.419 -0.4711  0.1983 -0.3033
 4741TIP3    H135858   5.088   3.716   8.358  2.2592 -0.4517 -1.8984
 4741TIP3    H235859   5.206   3.810   8.368  2.2665 -0.7061  2.6556
 4742TIP3   OH235860   5.340   6.227   7.648 -0.0429  0.3675 -0.3429
 4742TIP3    H135861   5.358   6.161   7.582  1.0139  0.4116 -0.1190
 4742TIP3    H235862   5.269   6.281   7.611 -0.3707 -0.4051 -0.8529
 4743TIP3   OH235863   3.164   4.922   2.692  0.6944 -0.1582  0.1822
 4743TIP3    H135864   3.248   4.967   2.696  1.2588 -1.1347 -0.4235
 4743TIP3    H235865   3.184   4.832   2.718 -0.2273 -0.3204  0.3652
 4744TIP3   OH235866   1.406   6.333   3.032 -0.0124 -0.1640 -0.2579
 4744TIP3    H135867   1.383   6.312   3.122 -0.4578 -0.7096 -0.4941
 4744TIP3    H235868   1.485   6.388   3.039  0.1213 -0.4428  0.4441
 4745TIP3   OH235869   6.017   3.249   1.133  0.7198 -0.3512  0.3911
 4745TIP3    H135870   6.074   3.204   1.195  1.6421  0.6427  0.2875
 4745TIP3    H235871   6.076   3.305   1.082 -0.1301 -0.5156 -0.8140
 4746TIP3   OH235872   1.811   1.023   3.664  0.2647 -0.0278 -0.7152
 4746TIP3    H135873   1.906   1.026   3.663  0.2667  3.7726 -1.0355
 4746TIP3    H235874   1.784   1.043   3.574 -0.8055  0.2743 -0.3528
 4747TIP3   OH235875   1.155   1.531   0.373 -0.0222  0.1571  0.1106
 4747TIP3    H135876   1.162   1.524   0.468  1.9544 -2.9370 -0.1061
 4747TIP3    H235877   1.068   1.498   0.353 -0.2940  0.4244  0.8340
 4748TIP3   OH235878   5.702   3.769   1.574 -0.2195  0.1753 -0.0343
 4748TIP3    H135879   5.759   3.775   1.650 -0.6093  0.1773  0.2649
 4748TIP3    H235880   5.669   3.679   1.575 -0.9020  0.4221  0.3049
 4749TIP3   OH235881   1.728   2.519   1.524  0.1394 -0.5155 -0.5516
 4749TIP3    H135882   1.766   2.433   1.510 -1.3446 -1.1836 -0.6366
 4749TIP3    H235883   1.639   2.502   1.554  1.4325  0.8557  5.1730
 4750TIP3   OH235884   1.789   5.706   0.810  0.6906  0.1902 -0.0948
 4750TIP3    H135885   1.698   5.675   0.810  1.1464 -1.2313 -1.2069
 4750TIP3    H235886   1.841   5.629   0.832  1.6782  0.8594 -0.0339
 4751TIP3   OH235887   1.795   4.891   8.449 -0.2004 -0.4646 -0.4638
 4751TIP3    H135888   1.821   4.799   8.443 -3.0720 -1.5510  1.4563
 4751TIP3    H235889   1.826   4.919   8.535  1.3931  0.7224 -1.3648
 4752TIP3   OH235890   3.644   6.149   8.091 -0.0534 -0.0285 -0.2025
 4752TIP3    H135891   3.609   6.137   8.179 -0.0940  0.4065 -0.1560
 4752TIP3    H235892   3.734   6.116   8.096 -0.7390 -2.1107 -0.5768
 4753TIP3   OH235893   6.698   2.010   1.722 -1.0286 -0.1157  0.1158
 4753TIP3    H135894   6.630   2.027   1.657 -0.0083 -1.7777 -1.4725
 4753TIP3    H235895   6.659   1.947   1.782 -0.7581 -1.5233 -1.1273
 4754TIP3   OH235896   1.941   6.142   3.131  0.0080 -0.0460  0.0774
 4754TIP3    H135897   2.018   6.193   3.154 -1.2542  1.3704  1.4094
 4754TIP3    H235898   1.887   6.203   3.079 -1.4891  0.0029  1.6169
 4755TIP3   OH235899   2.771   3.657   2.698  0.6797  0.1374 -0.0650
 4755TIP3    H135900   2.826   3.589   2.739 -0.3807 -0.9122 -0.3173
 4755TIP3    H235901   2.704   3.607   2.651  1.6512  1.3125 -2.8353
 4756TIP3   OH235902   5.612   4.631   3.103  0.3723  0.1099  0.3691
 4756TIP3    H135903   5.651   4.576   3.171  1.0945 -1.0084 -0.8918
 4756TIP3    H235904   5.663   4.712   3.106  0.2912  0.1439  1.2385
 4757TIP3   OH235905   5.390   0.753   2.650  0.6031 -0.3335  0.1176
 4757TIP3    H135906   5.437   0.774   2.569  1.0419 -0.3631  0.3667
 4757TIP3    H235907   5.418   0.819   2.713 -1.7056  1.3073 -0.4578
 4758TIP3   OH235908   1.214   1.994   1.018  0.2741 -0.1943 -1.2001
 4758TIP3    H135909   1.310   1.998   1.015  0.3198  1.8710  0.6373
 4758TIP3    H235910   1.186   2.075   0.976 -0.5769  0.0852 -0.1277
 4759TIP3   OH235911   4.606   4.862   2.829 -0.4349  0.0584 -0.3542
 4759TIP3    H135912   4.618   4.770   2.855  0.1899 -0.0923 -1.1404
 4759TIP3    H235913   4.683   4.906   2.863 -1.7058  0.7341  1.8558
 4760TIP3   OH235914   4.103   3.444   3.271 -0.5442  0.1185  0.3577
 4760TIP3    H135915   4.130   3.492   3.193  0.1144  0.1569  0.6017
 4760TIP3    H235916   4.185   3.422   3.315 -0.8840 -0.4064  0.7394
 4761TIP3   OH235917   0.642   2.134   3.639 -0.3639 -0.3642 -0.4227
 4761TIP3    H135918   0.725   2.090   3.624 -1.0850 -1.9578  0.1043
 4761TIP3    H235919   0.605   2.147   3.551  1.0727  1.7709 -0.8032
 4762TIP3   OH235920   5.872   0.014   0.447  0.0105  0.0215 -0.1207
 4762TIP3    H135921   5.827   0.065   0.513  0.4404 -1.6335  1.5328
 4762TIP3    H235922   5.961   0.049   0.446 -0.2904  0.8104 -0.6994
 4763TIP3   OH235923   6.317   0.731   1.226 -0.2470 -0.9563  0.0708
 4763TIP3    H135924   6.344   0.760   1.139  1.6765 -1.3850  0.4986
 4763TIP3    H235925   6.227   0.699   1.213 -0.7631  0.8710 -1.3199
 4764TIP3   OH235926   2.748   4.460   1.330  0.5259  0.0303 -0.4586
 4764TIP3    H135927   2.825   4.432   1.379  0.1491 -0.0276  0.1081
 4764TIP3    H235928   2.709   4.529   1.383 -0.8729 -1.2300  0.2126
 4765TIP3   OH235929   1.904   3.120   3.200  0.7749 -0.0115 -0.4433
 4765TIP3    H135930   1.879   3.033   3.168 -0.0924 -0.6279  1.6814
 4765TIP3    H235931   1.894   3.114   3.295 -2.1316  3.2340 -0.3475
 4766TIP3   OH235932   6.200   2.779   2.364  0.0384  1.1321 -0.1826
 4766TIP3    H135933   6.213   2.811   2.274  1.5243 -0.1107 -0.4525
 4766TIP3    H235934   6.286   2.746   2.390 -0.7862 -0.1155  1.0728
 4767TIP3   OH235935   5.750   0.111   2.952 -0.0596 -0.0874 -0.1905
 4767TIP3    H135936   5.681   0.177   2.957 -0.2062 -0.2863  0.7165
 4767TIP3    H235937   5.827   0.153   2.989  0.1047 -0.1078 -0.5106
 4768TIP3   OH235938   4.005   0.471   0.549  0.0741  0.0505  0.3645
 4768TIP3    H135939   4.091   0.441   0.579  0.8254  0.9299 -0.8213
 4768TIP3    H235940   4.002   0.564   0.572 -0.2126  0.2165 -0.3135
 4769TIP3   OH235941   0.571   4.262   8.581 -0.6351 -0.3416 -0.0222
 4769TIP3    H135942   0.620   4.342   8.601 -1.1396  0.3198 -1.3004
 4769TIP3    H235943   0.599   4.200   8.647 -0.9648  1.1762  1.6223
 4770TIP3   OH235944   2.178   3.694   8.394 -0.0838  0.4190  0.6714
 4770TIP3    H135945   2.146   3.774   8.352 -0.3634 -0.1998 -0.3036
 4770TIP3    H235946   2.158   3.624   8.332 -2.6605 -0.8915  2.8052
 4771TIP3   OH235947   0.973   0.120   2.874 -0.0545 -0.3701 -0.4748
 4771TIP3    H135948   0.930   0.037   2.893  1.0610 -0.5639  1.4626
 4771TIP3    H235949   0.990   0.158   2.960  0.1911  1.4989 -1.3009
 4772TIP3   OH235950   5.794   5.266   1.965  0.0643  0.0799 -0.7846
 4772TIP3    H135951   5.765   5.319   1.891 -1.1186 -1.1138 -1.2105
 4772TIP3    H235952   5.754   5.307   2.041 -0.2894  0.1985 -1.0332
 4773TIP3   OH235953   0.563   1.677   0.362 -0.3374  0.2265  0.1315
 4773TIP3    H135954   0.604   1.763   0.355  0.8329 -0.2580  0.7832
 4773TIP3    H235955   0.506   1.671   0.285  0.3864  1.1499 -0.4897
 4774TIP3   OH235956   4.853   3.621   0.995 -0.2162 -0.0374 -0.2685
 4774TIP3    H135957   4.766   3.587   0.973 -0.6215 -1.3986  2.9615
 4774TIP3    H235958   4.910   3.545   0.992  0.0511  0.0738  1.3502
 4775TIP3   OH235959   5.378   6.637   1.407 -0.2159  0.4192  0.1237
 4775TIP3    H135960   5.413   6.559   1.366  0.1414 -0.1885  1.5183
 4775TIP3    H235961   5.318   6.604   1.474 -1.1601  1.3767 -0.2390
 4776TIP3   OH235962   2.421   1.689   0.037  0.1993 -0.8645  0.3216
 4776TIP3    H135963   2.421   1.595   0.019 -1.1861 -0.8612  0.1848
 4776TIP3    H235964   2.359   1.699   0.110  1.0629 -0.1595  0.9806
 4777TIP3   OH235965   5.997   5.941   8.971  0.9348  0.4149 -0.3360
 4777TIP3    H135966   6.009   5.914   9.062  1.4730  0.4357 -0.3999
 4777TIP3    H235967   5.991   5.858   8.922 -0.5827  0.3714 -0.1451
 4778TIP3   OH235968   0.546   1.341   7.891  0.0138 -0.0822  0.1857
 4778TIP3    H135969   0.566   1.266   7.947 -0.7523 -1.1074 -0.8813
 4778TIP3    H235970   0.535   1.304   7.804  0.5984  1.4142 -0.5554
 4779TIP3   OH235971   1.763   4.879   1.145 -0.2060 -0.2282  0.9191
 4779TIP3    H135972   1.673   4.845   1.143  0.0059 -0.7557 -0.6186
 4779TIP3    H235973   1.753   4.972   1.165 -1.1207 -0.2070  0.4020
 4780TIP3   OH235974   4.977   0.040   1.886  0.3402 -0.2245  0.1640
 4780TIP3    H135975   5.042   0.106   1.865  0.1122  0.4603  1.5140
 4780TIP3    H235976   5.028  -0.038   1.909  0.6442 -0.0761 -0.0069
 4781TIP3   OH235977   3.431   0.197   2.666  0.2015 -0.1051 -0.4716
 4781TIP3    H135978   3.371   0.125   2.648  0.6392 -0.9131  1.1534
 4781TIP3    H235979   3.503   0.157   2.716  0.5933  1.4014  0.2346
 4782TIP3   OH235980   2.860   0.736   2.706  0.1919  0.2811 -0.1565
 4782TIP3    H135981   2.767   0.734   2.729  0.6235 -0.9860  1.7349
 4782TIP3    H235982   2.872   0.659   2.650  0.0012  0.8363 -0.9842
 4783TIP3   OH235983   5.332   0.689   2.967 -0.6849  0.1002 -0.0797
 4783TIP3    H135984   5.337   0.783   2.952  1.1133  0.3308  1.6392
 4783TIP3    H235985   5.293   0.680   3.054  0.7772 -0.6566  0.5233
 4784TIP3   OH235986   3.380   3.595   2.426  0.3503  0.2660  0.7323
 4784TIP3    H135987   3.395   3.501   2.429  2.4575  0.4766 -0.6321
 4784TIP3    H235988   3.410   3.627   2.511  0.8877 -0.1790  0.7197
 4785TIP3   OH235989   1.101   3.016   0.101  0.1318  0.3791  0.4300
 4785TIP3    H135990   1.023   3.070   0.111  0.3144  0.5239  1.1905
 4785TIP3    H235991   1.141   3.016   0.188  1.8046  1.5786 -0.2859
 4786TIP3   OH235992   0.187   1.900   0.619 -0.2850 -0.0737 -0.0790
 4786TIP3    H135993   0.271   1.893   0.664  0.4502  1.5769 -1.0944
 4786TIP3    H235994   0.191   1.832   0.551  0.0489 -0.2602  0.1243
 4787TIP3   OH235995   6.407   4.284   0.036  0.1308 -0.0042 -0.4189
 4787TIP3    H135996   6.370   4.275   0.124 -1.1326 -1.1822 -1.0414
 4787TIP3    H235997   6.495   4.247   0.043  0.8114  1.6766  0.7799
 4788TIP3   OH235998   4.924   5.852   8.603 -0.4182 -0.8936 -0.4143
 4788TIP3    H135999   4.839   5.861   8.560 -1.2387  1.1363  1.4645
 4788TIP3    H236000   4.982   5.909   8.554 -0.8620 -0.1028 -0.0355
 4789TIP3   OH236001   1.560   3.193   8.798  0.3463 -0.5139 -0.3027
 4789TIP3    H136002   1.528   3.119   8.849 -2.1930 -0.3233 -1.4365
 4789TIP3    H236003   1.645   3.165   8.766  0.1065 -2.3385  0.5246
 4790TIP3   OH236004   3.516   2.927   8.690 -0.2373  0.3759 -0.2446
 4790TIP3    H136005   3.425   2.909   8.666  0.1288 -0.0896 -1.3344
 4790TIP3    H236006   3.510   2.999   8.753 -1.5342 -1.6112  2.0597
 4791TIP3   OH236007   5.340   3.819   8.212  0.6576 -0.5123  0.2537
 4791TIP3    H136008   5.354   3.892   8.272 -1.1053  0.4046 -0.3925
 4791TIP3    H236009   5.376   3.743   8.257  4.3054  0.9680  0.1884
 4792TIP3   OH236010   2.419   0.954   2.201 -0.2333  0.1137 -0.3319
 4792TIP3    H136011   2.337   0.906   2.208 -0.8462  1.2859  0.9223
 4792TIP3    H236012   2.483   0.898   2.246 -0.8298  0.2338  0.6817
 4793TIP3   OH236013   6.338   2.411   1.828 -0.2156 -0.4323 -0.2796
 4793TIP3    H136014   6.303   2.430   1.915 -2.7538 -4.2705 -0.2309
 4793TIP3    H236015   6.410   2.350   1.845  0.4647  0.1958 -0.8434
 4794TIP3   OH236016   2.984   5.253   8.214  0.0915  0.0051  0.4004
 4794TIP3    H136017   2.949   5.327   8.263 -0.2053  0.2739 -0.2089
 4794TIP3    H236018   3.077   5.275   8.201 -0.2275  0.7818 -0.6843
 4795TIP3   OH236019   2.461   6.707   1.520  0.1394 -0.3084  0.1980
 4795TIP3    H136020   2.375   6.736   1.489 -0.3227 -1.0645  0.7478
 4795TIP3    H236021   2.518   6.714   1.443 -0.3519  0.4041 -0.1127
 4796TIP3   OH236022   3.254   1.304   0.496 -0.2550 -0.8539  0.2045
 4796TIP3    H136023   3.216   1.302   0.583 -0.9261 -1.1471 -0.0895
 4796TIP3    H236024   3.199   1.364   0.446 -0.8891 -1.9394 -0.4604
 4797TIP3   OH236025   6.710   0.973   2.238  0.3826 -0.5238 -0.0102
 4797TIP3    H136026   6.713   0.880   2.214  0.0753 -0.8667  1.2216
 4797TIP3    H236027   6.618   0.991   2.254  0.7244 -0.8334  2.7325
 4798TIP3   OH236028   2.940   0.045   8.627  0.6017 -0.1353  1.3788
 4798TIP3    H136029   2.992   0.064   8.549 -0.9820  1.2664  0.5952
 4798TIP3    H236030   2.962  -0.046   8.649 -0.5278 -1.4054 -2.0467
 4799TIP3   OH236031   0.348   2.068   2.738 -0.3087 -0.1998  0.5169
 4799TIP3    H136032   0.369   1.978   2.716  0.7924 -0.0434  0.8807
 4799TIP3    H236033   0.259   2.081   2.703 -0.7765 -1.6248  1.0832
 4800TIP3   OH236034   6.349   4.381   0.362  0.0371 -0.0797  0.1936
 4800TIP3    H136035   6.399   4.327   0.424 -0.1455 -1.6524 -0.9898
 4800TIP3    H236036   6.300   4.441   0.418  0.2359 -1.1466  1.5740
 4801TIP3   OH236037   2.301   2.260   0.927  0.1204  0.3399 -0.5348
 4801TIP3    H136038   2.331   2.276   1.016 -0.3972  0.2824 -0.3426
 4801TIP3    H236039   2.248   2.180   0.933 -0.0207  0.4030 -0.8680
 4802TIP3   OH236040   1.558   0.490   0.049 -0.3604  0.0340 -0.3069
 4802TIP3    H136041   1.491   0.558   0.043 -0.4055 -0.0277 -0.5241
 4802TIP3    H236042   1.638   0.537   0.071 -0.4467  0.1252 -0.1887
 4803TIP3   OH236043   1.355   6.631   1.266  0.2974 -0.0902  0.3866
 4803TIP3    H136044   1.320   6.588   1.188  0.6357 -1.6930  1.0862
 4803TIP3    H236045   1.286   6.621   1.331  0.3602  0.4890  0.5422
 4804TIP3   OH236046   4.197   4.910   8.973  0.2891 -0.7775  0.1125
 4804TIP3    H136047   4.124   4.887   8.915 -1.6129  2.4773  0.9243
 4804TIP3    H236048   4.275   4.903   8.918 -0.8105 -2.6349 -1.3248
 4805TIP3   OH236049   5.505   5.754   0.465  1.0489  0.1209 -0.7032
 4805TIP3    H136050   5.499   5.818   0.536  1.9601 -1.2208  0.6499
 4805TIP3    H236051   5.460   5.796   0.392  0.8041  1.9129  0.3932
 4806TIP3   OH236052   4.258   3.614   7.452  0.0153  0.7217 -0.0593
 4806TIP3    H136053   4.249   3.647   7.363 -0.5879  2.1764  0.5109
 4806TIP3    H236054   4.220   3.526   7.449 -2.3648  1.7045 -0.6836
 4807TIP3   OH236055   1.568   4.507   7.676 -0.4765 -0.3330 -0.5256
 4807TIP3    H136056   1.484   4.550   7.660 -0.1593  1.1247  1.3655
 4807TIP3    H236057   1.633   4.570   7.646 -0.0283 -0.2356  0.6189
 4808TIP3   OH236058   5.387   6.485   7.345  0.0750 -0.3945  0.5025
 4808TIP3    H136059   5.360   6.403   7.302 -0.0219  0.3039 -0.8296
 4808TIP3    H236060   5.309   6.515   7.390 -0.5264  0.0205 -0.7594
 4809TIP3   OH236061   5.708   1.747   0.629  0.0525 -0.1397 -0.5522
 4809TIP3    H136062   5.623   1.710   0.604 -0.2662 -0.4221  0.8426
 4809TIP3    H236063   5.770   1.707   0.569 -0.5048 -1.7903 -0.0899
 4810TIP3   OH236064   1.183   4.654   8.706 -0.3496 -0.3812 -0.4381
 4810TIP3    H136065   1.160   4.606   8.626  0.1671  0.2147 -0.9511
 4810TIP3    H236066   1.270   4.689   8.689 -0.5691  0.4301  0.0757
 4811TIP3   OH236067   3.870   3.304   2.821  0.0459  0.4800 -0.0262
 4811TIP3    H136068   3.850   3.316   2.914 -1.3063 -1.6266  0.0376
 4811TIP3    H236069   3.786   3.320   2.777 -0.5111 -2.6765 -0.3800
 4812TIP3   OH236070   4.837   4.144   0.834  0.8172  0.1449  0.3801
 4812TIP3    H136071   4.760   4.187   0.870  2.0639  2.1599  0.7901
 4812TIP3    H236072   4.813   4.051   0.830 -2.1488  0.8576 -0.9555
 4813TIP3   OH236073   4.209   0.141   0.784  0.4528  0.0568  0.7106
 4813TIP3    H136074   4.228   0.062   0.734  1.0764  0.8615 -0.3515
 4813TIP3    H236075   4.170   0.109   0.865  1.4371 -1.3907  0.6533
 4814TIP3   OH236076   4.185   3.996   7.850 -0.0230 -0.0370  0.5052
 4814TIP3    H136077   4.243   4.040   7.788 -1.3783  1.2050  0.0393
 4814TIP3    H236078   4.169   3.910   7.811 -0.0837  0.3694 -0.3910
 4815TIP3   OH236079   0.120   0.146   3.389  0.8123 -0.2171 -0.0968
 4815TIP3    H136080   0.040   0.104   3.358  1.2473 -0.6366 -0.6843
 4815TIP3    H236081   0.093   0.233   3.417  0.0712 -0.5245  0.1659
 4816TIP3   OH236082   4.864   6.279   3.053 -0.7049  0.0570 -0.6416
 4816TIP3    H136083   4.945   6.330   3.055 -1.5336  1.4291 -0.9032
 4816TIP3    H236084   4.820   6.300   3.135 -2.6785  2.6235 -2.1764
 4817TIP3   OH236085   0.938   0.883   2.648  0.4925 -0.2205 -0.3347
 4817TIP3    H136086   0.963   0.961   2.699  1.3268 -1.1499  0.7321
 4817TIP3    H236087   0.843   0.886   2.645  0.2328 -1.0629  2.9365
 4818TIP3   OH236088   2.398   2.359   1.195 -0.1637  0.2200  0.3824
 4818TIP3    H136089   2.376   2.429   1.257  1.5557 -0.5399  1.9332
 4818TIP3    H236090   2.409   2.282   1.250 -0.0003 -0.8220 -1.0747
 4819TIP3   OH236091   3.999   3.800   0.157 -0.4043  0.1182  0.6100
 4819TIP3    H136092   3.969   3.757   0.237  0.6332 -0.4942  0.6956
 4819TIP3    H236093   4.049   3.732   0.111  0.3722  0.9249  0.2289
 4820TIP3   OH236094   3.657   4.192   8.705  0.3383 -0.4965 -0.1153
 4820TIP3    H136095   3.580   4.154   8.747 -0.8195  1.2989 -0.4833
 4820TIP3    H236096   3.643   4.177   8.612  0.4639 -0.2344 -0.1763
 4821TIP3   OH236097   6.440   5.532   1.752  0.2313 -1.1495  0.1983
 4821TIP3    H136098   6.514   5.515   1.695  0.3026 -1.8963  0.5015
 4821TIP3    H236099   6.374   5.571   1.695  1.0144 -0.0506  0.0175
 4822TIP3   OH236100   4.634   2.941   0.162 -0.1089  0.4308 -0.0596
 4822TIP3    H136101   4.559   2.987   0.200  1.2213  2.6602  0.0488
 4822TIP3    H236102   4.681   2.905   0.238 -1.0677 -1.0498 -0.1341
 4823TIP3   OH236103   3.853   3.262   7.790  0.0780 -0.4354  0.1531
 4823TIP3    H136104   3.761   3.236   7.788  0.7703 -3.3727  1.1564
 4823TIP3    H236105   3.884   3.249   7.700 -0.2602 -0.3894  0.0320
 4824TIP3   OH236106   6.137   3.211   0.252  0.2590  0.2942  0.6008
 4824TIP3    H136107   6.046   3.213   0.222  0.4410 -1.4263 -0.1348
 4824TIP3    H236108   6.174   3.294   0.222 -0.1608 -0.4204 -2.1106
 4825TIP3   OH236109   2.191   3.942   7.620  0.0970  0.4960  0.5915
 4825TIP3    H136110   2.160   3.873   7.562  1.4120 -0.6557  1.1868
 4825TIP3    H236111   2.179   4.023   7.571  0.9381 -0.4169 -1.1963
 4826TIP3   OH236112   5.193   4.423   1.666 -0.6602 -0.0321 -0.5544
 4826TIP3    H136113   5.151   4.337   1.657  0.1106 -0.8589  2.4488
 4826TIP3    H236114   5.286   4.405   1.656 -0.5472  0.6337 -0.7438
 4827TIP3   OH236115   5.491   2.146   3.168 -0.0712  0.7906  0.4668
 4827TIP3    H136116   5.402   2.160   3.135 -0.1306 -1.0877 -0.3268
 4827TIP3    H236117   5.490   2.181   3.257 -1.7625  0.4004  0.6413
 4828TIP3   OH236118   5.778   3.701   2.824 -0.2124 -0.0595  0.7463
 4828TIP3    H136119   5.736   3.778   2.863 -0.0287  0.5444 -0.1809
 4828TIP3    H236120   5.762   3.711   2.730  0.4824 -0.7475  0.5423
 4829TIP3   OH236121   2.594   3.934   3.311  0.5112 -0.1947  1.1451
 4829TIP3    H136122   2.574   4.022   3.343  0.7198  0.3065 -0.0131
 4829TIP3    H236123   2.688   3.924   3.327  0.8197  0.4354 -0.0847
 4830TIP3   OH236124   5.948   3.904   7.943  0.3363 -0.2712  0.0793
 4830TIP3    H136125   6.020   3.841   7.954  1.2006  0.3302 -1.6237
 4830TIP3    H236126   5.889   3.887   8.015  1.6400 -1.5715  0.8879
 4831TIP3   OH236127   5.866   0.444   3.399  0.0183  0.5440  0.2036
 4831TIP3    H136128   5.891   0.488   3.318 -2.2178 -0.0852 -0.9163
 4831TIP3    H236129   5.855   0.352   3.375 -1.4872  0.4794  0.9914
 4832TIP3   OH236130   5.533   3.504   1.580  0.5459 -0.3781 -0.5242
 4832TIP3    H136131   5.588   3.449   1.636  0.5637  1.7763  1.7570
 4832TIP3    H236132   5.455   3.450   1.563  0.9711 -1.4725  0.7934
 4833TIP3   OH236133   0.199   6.628   8.491  0.1530 -0.2519  0.1582
 4833TIP3    H136134   0.278   6.576   8.508 -0.7392 -1.7537 -0.0824
 4833TIP3    H236135   0.222   6.682   8.416  0.7218 -1.2341 -0.4080
 4834TIP3   OH236136   3.479   0.139   1.890  0.5198 -0.3080  0.3678
 4834TIP3    H136137   3.395   0.096   1.905  1.2234 -1.5098  0.9688
 4834TIP3    H236138   3.456   0.231   1.875 -0.8699 -0.5430  0.9059
 4835TIP3   OH236139   6.455   4.668   0.516  0.1590 -0.4145  0.0591
 4835TIP3    H136140   6.400   4.590   0.512 -1.4659  0.7221 -2.5618
 4835TIP3    H236141   6.502   4.668   0.433 -1.0313  2.1004 -0.7205
 4836TIP3   OH236142   3.884   3.824   2.090  0.1638  0.0423  0.1729
 4836TIP3    H136143   3.941   3.901   2.101 -0.7246  0.6239  0.8054
 4836TIP3    H236144   3.796   3.857   2.108 -0.3118 -0.9726 -0.2571
 4837TIP3   OH236145   4.366   5.158   1.762 -0.2348  1.0924  0.0955
 4837TIP3    H136146   4.275   5.142   1.785 -0.0306 -1.5835 -0.6121
 4837TIP3    H236147   4.404   5.200   1.839 -1.3375 -0.6105  1.6327
 4838TIP3   OH236148   1.724   1.102   2.819  0.1272  0.1098  0.0089
 4838TIP3    H136149   1.698   1.187   2.786 -1.3748 -0.7343 -1.0932
 4838TIP3    H236150   1.742   1.050   2.741  1.0182 -0.6107  0.6627
 4839TIP3   OH236151   0.292   5.234   7.797  0.0856  0.0795  0.1911
 4839TIP3    H136152   0.236   5.307   7.824  0.0693  0.1712 -0.0856
 4839TIP3    H236153   0.350   5.272   7.732  0.9653  0.1686  1.0060
 4840TIP3   OH236154   1.303   1.647   2.333 -0.7579  0.3658  0.3623
 4840TIP3    H136155   1.289   1.627   2.240 -1.5528 -0.9903  0.7523
 4840TIP3    H236156   1.355   1.574   2.365  1.1240  1.7329  0.6107
 4841TIP3   OH236157   2.101   3.555   8.176 -0.7960 -0.3510 -0.6975
 4841TIP3    H136158   2.007   3.548   8.189 -1.2034  2.8327 -1.2159
 4841TIP3    H236159   2.111   3.567   8.082 -0.3825  3.4142 -0.3325
 4842TIP3   OH236160   6.256   6.402   1.515 -0.2590  0.2015 -0.4279
 4842TIP3    H136161   6.320   6.468   1.489 -1.9291  1.0929 -2.6812
 4842TIP3    H236162   6.295   6.319   1.489  1.5602  0.2935  1.7743
 4843TIP3   OH236163   5.147   2.610   8.374 -0.2696 -0.3791 -0.2516
 4843TIP3    H136164   5.188   2.526   8.353 -0.2481 -0.5136  0.3132
 4843TIP3    H236165   5.135   2.608   8.469  0.0066  0.3859 -0.1951
 4844TIP3   OH236166   5.533   2.842   2.506 -0.4567 -0.3338  0.2635
 4844TIP3    H136167   5.504   2.767   2.454 -0.4347  0.0396 -0.2932
 4844TIP3    H236168   5.558   2.908   2.442 -1.1238  0.4049  0.7432
 4845TIP3   OH236169   5.577   5.607   1.096  0.2475  0.3520  0.2950
 4845TIP3    H136170   5.552   5.679   1.038 -0.5582  0.3866  0.6656
 4845TIP3    H236171   5.643   5.644   1.154  1.4899  0.1664 -0.9405
 4846TIP3   OH236172   5.608   5.141   0.652 -0.3855  0.3167 -0.3246
 4846TIP3    H136173   5.663   5.090   0.593  0.7172 -0.4850  1.3067
 4846TIP3    H236174   5.658   5.222   0.667  0.0294 -0.0919  0.5797
 4847TIP3   OH236175   2.876   0.778   7.979  0.0573  0.3142  0.0966
 4847TIP3    H136176   2.805   0.777   7.914 -0.3875 -0.9949  0.5684
 4847TIP3    H236177   2.941   0.838   7.943 -1.8457  2.6586  0.2772
 4848TIP3   OH236178   1.100   1.985   1.293 -0.2049 -0.6880 -0.2710
 4848TIP3    H136179   1.086   2.017   1.204  0.9466 -0.4366 -0.3816
 4848TIP3    H236180   1.012   1.964   1.325 -0.9907  1.9270 -0.4413
 4849TIP3   OH236181   2.526   6.778   0.112 -0.2547  0.3956  0.1327
 4849TIP3    H136182   2.609   6.735   0.092 -0.1503  0.6752 -0.0484
 4849TIP3    H236183   2.464   6.707   0.123 -0.2317  0.2136 -0.8134
 4850TIP3   OH236184   5.881   6.455   2.263 -0.3429 -0.6077 -0.1109
 4850TIP3    H136185   5.804   6.404   2.241 -0.4252 -0.3064 -0.5456
 4850TIP3    H236186   5.935   6.453   2.184 -1.7161  2.4548 -1.3096
 4851TIP3   OH236187   2.468   5.060   8.874  0.7057  0.2936 -0.3333
 4851TIP3    H136188   2.406   5.099   8.812  0.3783  0.2297 -0.0492
 4851TIP3    H236189   2.554   5.076   8.835  0.5520  0.9447 -0.4106
 4852TIP3   OH236190   4.383   1.253   0.062 -0.3650  0.2487 -0.5004
 4852TIP3    H136191   4.357   1.170   0.102 -1.8160  0.2539 -1.3655
 4852TIP3    H236192   4.372   1.238  -0.032  0.2684  1.1250 -0.7203
 4853TIP3   OH236193   4.050   3.068   2.184  0.2392  0.2404 -0.0037
 4853TIP3    H136194   4.144   3.067   2.167 -0.1213 -0.0617 -2.4685
 4853TIP3    H236195   4.028   3.161   2.191  0.4424  0.4484 -1.6586
 4854TIP3   OH236196   5.062   0.369   1.885  0.1671 -0.9260 -0.3860
 4854TIP3    H136197   5.118   0.380   1.807  0.3633  0.0561 -0.1239
 4854TIP3    H236198   4.983   0.418   1.864 -0.2632 -1.6243 -0.4204
 4855TIP3   OH236199   1.722   5.398   1.038  0.4180  0.1125 -0.3384
 4855TIP3    H136200   1.630   5.411   1.014  0.1231  0.4832  0.8863
 4855TIP3    H236201   1.718   5.356   1.125  1.4035 -0.0607 -0.3684
 4856TIP3   OH236202   4.981   3.472   1.970 -0.0725 -0.1579  0.2760
 4856TIP3    H136203   4.981   3.411   1.897 -0.3600 -1.0508  1.0093
 4856TIP3    H236204   5.070   3.467   2.006  0.2132  0.6353 -0.2851
 4857TIP3   OH236205   0.330   4.161   2.110  0.7446  0.0285 -0.2217
 4857TIP3    H136206   0.382   4.226   2.158  1.6885 -0.6341 -0.3092
 4857TIP3    H236207   0.239   4.186   2.125  1.0472  0.3771  1.1240
 4858TIP3   OH236208   4.363   0.197   0.320 -0.3586 -0.3060  0.4154
 4858TIP3    H136209   4.347   0.132   0.388 -0.5313  1.2968  1.9753
 4858TIP3    H236210   4.278   0.241   0.309 -0.1975 -0.2054 -0.4891
 4859TIP3   OH236211   4.999   0.528   1.073 -0.3432  0.4557 -0.1694
 4859TIP3    H136212   4.959   0.586   1.008 -0.7064  1.2847  0.7580
 4859TIP3    H236213   5.092   0.549   1.072 -0.7114  2.5118  1.5032
 4860TIP3   OH236214   0.037   2.100   0.865  0.0093 -0.4390  0.0650
 4860TIP3    H136215  -0.055   2.087   0.887 -0.8770  1.6406 -1.9984
 4860TIP3    H236216   0.062   2.180   0.912 -0.0973  0.5153 -1.4059
 4861TIP3   OH236217   6.754   2.723   7.863  0.2697 -0.5915 -0.1098
 4861TIP3    H136218   6.738   2.628   7.865 -0.8316 -0.4641 -1.2228
 4861TIP3    H236219   6.849   2.731   7.866  0.3780 -1.7278  0.1850
 4862TIP3   OH236220   1.913   5.783   0.244 -0.2073 -0.2205  0.2048
 4862TIP3    H136221   2.000   5.796   0.279 -0.2967 -1.0715  0.7612
 4862TIP3    H236222   1.866   5.734   0.311 -0.6220 -1.1879 -0.7552
 4863TIP3   OH236223   2.776   6.535   8.583 -0.0405 -0.0136  0.2878
 4863TIP3    H136224   2.782   6.474   8.509 -0.2572 -1.9593  1.7846
 4863TIP3    H236225   2.721   6.607   8.550 -0.5623 -1.0617 -1.2716
 4864TIP3   OH236226   2.602   4.000   1.335  0.2380  0.0008  0.1051
 4864TIP3    H136227   2.589   3.906   1.350  1.4235 -0.2823 -0.5392
 4864TIP3    H236228   2.633   4.034   1.418  0.6081 -0.3357  0.1048
 4865TIP3   OH236229   0.855   5.284   0.009 -0.0153 -0.4145 -0.2039
 4865TIP3    H136230   0.764   5.300   0.031 -0.7414 -1.2785 -2.3365
 4865TIP3    H236231   0.881   5.212   0.067 -0.6233 -0.0686  0.5128
 4866TIP3   OH236232   2.338   1.123   8.306 -0.1123 -0.0540  0.6475
 4866TIP3    H136233   2.344   1.160   8.394  2.2348  1.0810  0.0909
 4866TIP3    H236234   2.374   1.035   8.314  0.8259  0.3201  0.7265
 4867TIP3   OH236235   3.602   1.884   1.315  0.2547 -0.5990 -0.4579
 4867TIP3    H136236   3.528   1.853   1.368 -0.1290  0.5004 -0.3161
 4867TIP3    H236237   3.595   1.836   1.233 -0.2803 -0.9291 -0.2206
 4868TIP3   OH236238   4.969   0.688   0.626 -0.0770  0.0558  0.2086
 4868TIP3    H136239   5.013   0.623   0.572  0.2483 -0.4581  1.0783
 4868TIP3    H236240   4.903   0.726   0.568  0.6130 -0.1060 -0.7043
 4869TIP3   OH236241   1.441   3.471   2.233  0.2796 -0.1931 -0.1148
 4869TIP3    H136242   1.508   3.406   2.254  2.1239  1.4097 -0.7605
 4869TIP3    H236243   1.429   3.520   2.314  1.9195  1.2304 -0.6861
 4870TIP3   OH236244   0.045   2.438   0.637  0.4585  0.0362  0.2280
 4870TIP3    H136245  -0.022   2.402   0.694 -1.7691  3.0029 -0.2698
 4870TIP3    H236246   0.057   2.373   0.568  0.2821 -1.8177  1.8634
 4871TIP3   OH236247   5.436   4.444   0.572  0.4258  0.4313 -0.5822
 4871TIP3    H136248   5.515   4.398   0.544  1.3013  1.7125 -0.3085
 4871TIP3    H236249   5.380   4.375   0.609  2.1720 -0.2785  0.8967
 4872TIP3   OH236250   4.393   4.396   1.166 -0.2740  0.0087 -0.6614
 4872TIP3    H136251   4.313   4.441   1.193 -0.7612 -2.0641  1.6665
 4872TIP3    H236252   4.431   4.363   1.248  1.7081 -1.0724 -1.9396
 4873TIP3   OH236253   2.936   0.991   0.388  0.2233 -0.0596  0.0870
 4873TIP3    H136254   2.902   0.951   0.308 -0.4885  1.0094 -0.1785
 4873TIP3    H236255   2.957   0.918   0.445  2.4934 -0.9567 -1.7360
 4874TIP3   OH236256   4.348   3.889   8.573  0.6803 -0.9068  0.3833
 4874TIP3    H136257   4.386   3.817   8.623  0.8437 -0.9241  0.2322
 4874TIP3    H236258   4.361   3.864   8.481  0.9857 -0.5505  0.3316
 4875TIP3   OH236259   6.082   1.948   1.762 -0.0079 -0.1854  0.1675
 4875TIP3    H136260   6.018   2.019   1.761  0.1803  0.0017 -0.8865
 4875TIP3    H236261   6.163   1.989   1.791 -0.3557 -0.4244  1.5086
 4876TIP3   OH236262   2.820   1.675   3.181 -0.6187  0.5343 -0.0892
 4876TIP3    H136263   2.909   1.698   3.206 -0.3453 -0.2476 -0.3483
 4876TIP3    H236264   2.766   1.743   3.222  0.0102  0.5071  0.8173
 4877TIP3   OH236265   4.986   2.077   8.074 -0.4123 -0.9427  0.2770
 4877TIP3    H136266   4.927   2.152   8.067 -0.8112 -1.2219  0.5957
 4877TIP3    H236267   4.928   2.002   8.092  0.1808 -0.8611  2.9155
 4878TIP3   OH236268   1.316   6.013   8.933 -0.4028 -0.2221 -0.4679
 4878TIP3    H136269   1.323   6.107   8.950  0.2074 -0.6563  2.0484
 4878TIP3    H236270   1.378   5.997   8.862  0.7662  1.0507  0.2139
 4879TIP3   OH236271   5.705   0.883   1.870 -0.1846 -0.2089 -0.7550
 4879TIP3    H136272   5.658   0.966   1.872 -1.9436 -1.1700 -0.3603
 4879TIP3    H236273   5.776   0.894   1.932 -2.1304  0.0448  1.5501
 4880TIP3   OH236274   3.185   4.643   1.633  0.0682  0.6315  0.1469
 4880TIP3    H136275   3.252   4.647   1.700  0.2709  2.4047 -0.1230
 4880TIP3    H236276   3.232   4.624   1.552 -0.0590 -0.5020  0.3253
 4881TIP3   OH236277   2.485   0.285   3.496  0.0966  0.1328  0.1724
 4881TIP3    H136278   2.523   0.237   3.569 -0.5103  0.2147  0.5426
 4881TIP3    H236279   2.399   0.246   3.482  0.2595  0.0202 -0.5943
 4882TIP3   OH236280   6.404   0.006   1.983  0.5565  0.0498  0.4060
 4882TIP3    H136281   6.458   0.085   1.976 -0.0342  0.3070 -2.5303
 4882TIP3    H236282   6.326   0.034   2.031  0.3770  1.2649 -0.5625
 4883TIP3   OH236283   1.504   2.950   1.113  0.2573  0.1198 -0.0126
 4883TIP3    H136284   1.576   2.991   1.162  0.6383 -0.1229 -0.3628
 4883TIP3    H236285   1.476   3.018   1.051  0.1179  0.2497  0.1936
 4884TIP3   OH236286   5.312   2.824   1.316 -0.4765 -0.0555 -0.5518
 4884TIP3    H136287   5.403   2.852   1.308 -0.0795 -1.1717 -0.1002
 4884TIP3    H236288   5.284   2.854   1.402 -0.2474 -0.5134 -0.3186
 4885TIP3   OH236289   3.343   0.065   8.491  0.0804  0.6399  0.1418
 4885TIP3    H136290   3.410   0.124   8.526  1.9966 -0.0939 -2.0887
 4885TIP3    H236291   3.328   0.002   8.562 -0.1216  2.2593  1.5995
 4886TIP3   OH236292   4.377   6.654   8.343  0.4616  0.2572  0.6236
 4886TIP3    H136293   4.371   6.560   8.329  0.0131  0.5671 -1.6642
 4886TIP3    H236294   4.437   6.684   8.275  0.9751  1.5814  1.6242
 4887TIP3   OH236295   2.295   1.896   2.133 -0.3149  0.2792  0.4091
 4887TIP3    H136296   2.291   1.934   2.045  0.3518  0.3126  0.3898
 4887TIP3    H236297   2.259   1.965   2.190 -1.2153  0.0678  0.1159
 4888TIP3   OH236298   0.951   1.518   1.633  0.2361 -0.0162 -0.0730
 4888TIP3    H136299   0.962   1.454   1.703  0.2541  0.0827  0.0139
 4888TIP3    H236300   0.980   1.601   1.670  1.4146 -0.1805 -0.5927
 4889TIP3   OH236301   3.082   3.297   2.025 -0.1514 -0.1509  0.2005
 4889TIP3    H136302   3.110   3.383   2.054  0.3361 -0.3994  0.4785
 4889TIP3    H236303   3.138   3.236   2.073  0.8009 -0.5805 -1.3785
 4890TIP3   OH236304   4.721   0.775   7.947  0.0963  0.2893  0.3208
 4890TIP3    H136305   4.722   0.715   7.872 -0.2353  0.5866  0.0749
 4890TIP3    H236306   4.798   0.751   7.998  0.1981 -0.0686  0.0026
 4891TIP3   OH236307   5.394   2.634   2.006 -0.3037 -0.2094  0.4738
 4891TIP3    H136308   5.338   2.557   2.015 -0.7271  0.1069  0.5443
 4891TIP3    H236309   5.374   2.669   1.919  0.2387 -0.4514  0.2451
 4892TIP3   OH236310   4.431   3.276   0.166 -0.5284 -0.4945  0.0865
 4892TIP3    H136311   4.361   3.211   0.160 -1.6385  0.7046 -0.3559
 4892TIP3    H236312   4.391   3.351   0.210  0.0698  0.7110 -1.3231
 4893TIP3   OH236313   3.090   5.787   1.734  0.2657 -0.1656 -0.2250
 4893TIP3    H136314   3.150   5.795   1.808 -1.8896  1.7110  1.4751
 4893TIP3    H236315   3.133   5.834   1.663  1.1536  0.4218  0.6742
 4894TIP3   OH236316   5.526   5.652   1.832  0.5104 -0.2639 -0.0600
 4894TIP3    H136317   5.537   5.564   1.867  0.8101 -0.4925 -0.7079
 4894TIP3    H236318   5.567   5.710   1.896 -0.6310 -0.4764  0.9137
 4895TIP3   OH236319   2.786   0.743   8.448 -0.4272  0.3371 -0.0819
 4895TIP3    H136320   2.862   0.687   8.430 -1.3466 -0.7749 -0.6096
 4895TIP3    H236321   2.753   0.712   8.532 -0.4617  0.6446  0.0195
 4896TIP3   OH236322   3.607   1.272   8.369  0.2390  0.2669  0.1784
 4896TIP3    H136323   3.582   1.329   8.297 -1.4340  0.6231  0.9985
 4896TIP3    H236324   3.546   1.294   8.440  0.5512 -1.4461  1.0379
 4897TIP3   OH236325   0.169   4.825   3.044 -0.0941 -0.0937  0.0568
 4897TIP3    H136326   0.181   4.750   3.103 -0.3676  0.2718  0.5838
 4897TIP3    H236327   0.086   4.806   2.999  0.2923 -0.5447 -0.4769
 4898TIP3   OH236328   1.628   2.840   0.042  0.0054 -0.3264  0.2050
 4898TIP3    H136329   1.598   2.806  -0.042  0.9657  0.3061 -0.4043
 4898TIP3    H236330   1.557   2.898   0.071  0.1123  0.2394 -0.6467
 4899TIP3   OH236331   3.415   6.437   1.897 -0.0657 -0.0302  0.5747
 4899TIP3    H136332   3.478   6.425   1.969  0.3529 -0.8381  0.0963
 4899TIP3    H236333   3.394   6.348   1.869 -0.7118  0.2625  0.1163
 4900TIP3   OH236334   0.424   5.036   0.368 -0.0839 -0.2116 -0.0194
 4900TIP3    H136335   0.409   5.130   0.369 -0.7271 -0.3065  0.7798
 4900TIP3    H236336   0.510   5.024   0.408  0.3611  0.0804 -0.8696
 4901TIP3   OH236337   2.976   1.801   3.575  0.3762  0.8848  0.1843
 4901TIP3    H136338   3.061   1.776   3.538  0.1702 -0.3611  0.4832
 4901TIP3    H236339   2.949   1.878   3.525  0.6251 -0.0636 -1.5090
 4902TIP3   OH236340   0.187   4.328   7.273  0.6057 -0.1789 -0.2738
 4902TIP3    H136341   0.246   4.257   7.300  0.4600 -0.7981 -1.5011
 4902TIP3    H236342   0.209   4.343   7.181  0.0244  0.7818 -0.2662
 4903TIP3   OH236343   2.944   2.386   3.268 -0.0665 -0.4590  0.0982
 4903TIP3    H136344   2.999   2.345   3.335 -1.7574  1.2641  2.7516
 4903TIP3    H236345   2.973   2.477   3.266 -2.5835  0.4733  1.4989
 4904TIP3   OH236346   0.042   2.229   1.848 -0.2934 -0.5111  0.2851
 4904TIP3    H136347   0.013   2.145   1.813 -0.2975 -0.6960  0.7284
 4904TIP3    H236348   0.084   2.208   1.932  0.7298 -0.1942 -0.1342
 4905TIP3   OH236349   6.532   4.826   2.253  0.0340 -0.3591  0.3120
 4905TIP3    H136350   6.478   4.777   2.190  0.6978 -1.7558  0.7827
 4905TIP3    H236351   6.480   4.903   2.274 -0.4430 -0.1257 -1.5338
 4906TIP3   OH236352   2.623   4.913   8.067  0.9088  0.4138 -0.1147
 4906TIP3    H136353   2.583   4.900   7.981 -1.4388  0.8634  0.8271
 4906TIP3    H236354   2.647   4.824   8.096  0.9046  0.1635 -0.8605
 4907TIP3   OH236355   1.938   2.068   2.763 -0.3457 -0.2255  0.4470
 4907TIP3    H136356   1.952   2.106   2.849  0.5515 -3.2144  1.7467
 4907TIP3    H236357   1.846   2.040   2.764 -1.3969  2.7955 -0.9924
 4908TIP3   OH236358   3.241   0.251   1.619  0.1530  0.0505 -0.2077
 4908TIP3    H136359   3.159   0.283   1.657  0.1658 -1.5737  1.3355
 4908TIP3    H236360   3.234   0.155   1.626  1.5907 -0.1789 -1.3742
 4909TIP3   OH236361   5.041   5.200   0.146  0.1322  0.5552 -0.3610
 4909TIP3    H136362   5.129   5.239   0.148  0.2366  0.3358  1.6016
 4909TIP3    H236363   5.009   5.210   0.236 -1.0470 -1.1897 -0.5520
 4910TIP3   OH236364   1.269   5.977   0.326  0.1505 -0.0298  0.0457
 4910TIP3    H136365   1.278   5.959   0.420  1.0663  1.1479  0.2024
 4910TIP3    H236366   1.358   5.971   0.292  0.0933  1.4175 -0.3940
 4911TIP3   OH236367   3.983   1.029   3.025  0.4031 -0.3481 -0.3376
 4911TIP3    H136368   3.951   0.955   3.077  0.2695 -0.7761 -1.0117
 4911TIP3    H236369   4.073   1.004   3.001  1.0651  0.5872  1.0610
 4912TIP3   OH236370   5.250   0.717   8.646  0.3169  0.1933  0.2948
 4912TIP3    H136371   5.343   0.719   8.622  0.4571  2.9498  0.7556
 4912TIP3    H236372   5.205   0.747   8.567 -0.5328 -3.4448 -0.7825
 4913TIP3   OH236373   5.881   1.495   1.686 -0.4506  0.0002  0.1111
 4913TIP3    H136374   5.883   1.590   1.687  0.6633 -0.0144  0.8149
 4913TIP3    H236375   5.965   1.469   1.648 -0.5127 -0.6997  0.4289
 4914TIP3   OH236376   5.366   5.043   1.907  0.4497 -0.0023  0.1420
 4914TIP3    H136377   5.362   4.989   1.986  0.9006  0.3324  0.3947
 4914TIP3    H236378   5.459   5.051   1.887  0.3084 -0.9340 -1.0186
 4915TIP3   OH236379   5.259   4.993   0.413 -0.2266  0.0769 -0.0003
 4915TIP3    H136380   5.218   4.999   0.499 -0.8550 -0.3166 -0.2618
 4915TIP3    H236381   5.271   4.899   0.398 -1.0621  0.0824 -0.7618
 4916TIP3   OH236382   2.176   0.609   0.522 -0.3253  0.1985 -0.2358
 4916TIP3    H136383   2.207   0.699   0.533  1.5541 -0.5867  1.8769
 4916TIP3    H236384   2.089   0.609   0.562 -0.7714  1.2598 -1.1471
 4917TIP3   OH236385   1.185   3.670   3.603 -0.1845  0.1124 -0.2180
 4917TIP3    H136386   1.127   3.606   3.561  0.3501 -0.5587  0.0517
 4917TIP3    H236387   1.183   3.746   3.545 -0.9460 -0.0910 -0.4670
 4918TIP3   OH236388   1.784   3.101   1.723  0.1755 -0.2423 -0.3822
 4918TIP3    H136389   1.817   3.020   1.685 -0.4188 -1.2867  1.2488
 4918TIP3    H236390   1.861   3.156   1.732  0.2549  0.4887 -3.8828
 4919TIP3   OH236391   2.499   2.899   2.244 -0.8724 -0.6534 -0.1255
 4919TIP3    H136392   2.486   2.990   2.216  0.2209  0.0903  1.6617
 4919TIP3    H236393   2.423   2.853   2.209 -0.5902  0.5565 -2.5848
 4920TIP3   OH236394   5.560   4.618   1.261  0.0048  0.5744 -0.0484
 4920TIP3    H136395   5.563   4.712   1.243  2.2916  0.4807 -0.5806
 4920TIP3    H236396   5.490   4.607   1.325 -1.1124  2.4612 -0.8844
 4921TIP3   OH236397   2.934   6.068   0.125 -0.0793 -0.1667  0.0387
 4921TIP3    H136398   2.918   6.073   0.219  0.6111 -1.0307  0.2125
 4921TIP3    H236399   2.970   5.981   0.111  0.5948  0.2413 -0.9134
 4922TIP3   OH236400   2.680   1.704   8.908 -0.3475  0.6769  0.6312
 4922TIP3    H136401   2.712   1.614   8.920 -2.2215 -0.2070 -0.6620
 4922TIP3    H236402   2.592   1.703   8.946 -0.5642  1.8565  0.1863
 4923TIP3   OH236403   1.589   3.564   0.635  0.5757 -0.1080 -0.3971
 4923TIP3    H136404   1.517   3.624   0.616 -0.2937 -0.9053  0.2599
 4923TIP3    H236405   1.639   3.607   0.704  0.1702  0.0317 -0.1892
 4924TIP3   OH236406   0.025   6.591   1.099 -0.5872  1.0260  0.0131
 4924TIP3    H136407   0.072   6.658   1.148 -1.3798  1.1266  0.6584
 4924TIP3    H236408   0.052   6.508   1.139 -0.2237  1.0125 -0.2559
 4925TIP3   OH236409   4.536   2.953   1.064 -0.3130 -0.8653  0.2692
 4925TIP3    H136410   4.450   2.944   1.022  0.6062 -0.8841 -1.7360
 4925TIP3    H236411   4.516   2.965   1.157 -2.5475  0.7493 -0.3271
 4926TIP3   OH236412   4.602   2.469   2.478  0.7201 -1.0434  0.8107
 4926TIP3    H136413   4.557   2.434   2.555 -2.1719  1.1349  0.2953
 4926TIP3    H236414   4.674   2.408   2.462 -0.3766 -3.2226  3.4372
 4927TIP3   OH236415   4.408   5.877   1.538  0.3959 -0.0899 -0.0418
 4927TIP3    H136416   4.355   5.944   1.495  2.3739  1.1001 -0.7375
 4927TIP3    H236417   4.492   5.919   1.555  1.3363 -2.0600  0.5231
 4928TIP3   OH236418   0.277   6.761   8.245 -0.5977 -0.0771  0.2114
 4928TIP3    H136419   0.360   6.721   8.220 -0.4293 -0.0175  0.6682
 4928TIP3    H236420   0.211   6.716   8.192 -0.1884  0.4271 -0.7483
 4929TIP3   OH236421   6.308   2.662   1.361 -0.6686 -0.0487 -0.2381
 4929TIP3    H136422   6.222   2.622   1.362 -0.5513 -0.4552  2.8133
 4929TIP3    H236423   6.307   2.725   1.433  2.0176 -1.2369  1.0190
 4930TIP3   OH236424   0.043   5.896   3.101  0.0930 -0.6244  0.3244
 4930TIP3    H136425   0.059   5.853   3.184 -3.3359 -1.6395  0.5974
 4930TIP3    H236426  -0.005   5.976   3.124 -1.4134 -1.2103 -0.6448
 4931TIP3   OH236427   1.157   3.416   0.105  0.3003 -0.8783 -0.4793
 4931TIP3    H136428   1.159   3.406   0.200 -0.1770  0.1864 -0.3423
 4931TIP3    H236429   1.233   3.367   0.074  2.5530  1.5899  0.7169
 4932TIP3   OH236430   0.150   1.490   3.707  0.3230  0.3861 -0.3518
 4932TIP3    H136431   0.177   1.581   3.700 -3.3813  1.6871  0.1727
 4932TIP3    H236432   0.163   1.455   3.618  0.7425  1.7606 -0.8619
 4933TIP3   OH236433   0.609   0.008   8.720  0.1869 -0.3769 -0.2632
 4933TIP3    H136434   0.684  -0.034   8.761  0.3723 -0.7595 -1.0003
 4933TIP3    H236435   0.572  -0.058   8.661  0.9228  0.6909 -1.9945
 4934TIP3   OH236436   3.360   3.909   3.340 -0.2422  0.2855  0.2720
 4934TIP3    H136437   3.422   3.882   3.407 -0.5180  0.4896  0.6095
 4934TIP3    H236438   3.275   3.912   3.385 -0.4015  0.5756 -0.0455
 4935TIP3   OH236439   0.599   1.090   1.385  0.2477  0.1498 -0.5813
 4935TIP3    H136440   0.645   1.139   1.317  1.0483 -0.4385 -0.4827
 4935TIP3    H236441   0.636   1.123   1.467  1.4261 -1.1802 -0.5345
 4936TIP3   OH236442   4.580   3.987   2.938  0.6799 -0.0405  1.0697
 4936TIP3    H136443   4.486   3.986   2.921  0.8158  0.1357  0.2424
 4936TIP3    H236444   4.595   3.914   2.998  0.0126 -0.0602  1.2173
 4937TIP3   OH236445   0.523   3.382   1.355  0.5055 -0.2266 -0.3911
 4937TIP3    H136446   0.566   3.304   1.321 -0.7301 -0.4968 -1.3778
 4937TIP3    H236447   0.462   3.408   1.286  0.9828  1.6956 -0.1482
 4938TIP3   OH236448   1.806   1.077   0.094 -0.0710 -1.0897 -0.1222
 4938TIP3    H136449   1.800   1.001   0.151  0.2121  0.3644  1.9557
 4938TIP3    H236450   1.754   1.144   0.138  0.2402  0.1397 -1.5395
 4939TIP3   OH236451   4.966   6.191   0.603  0.3280 -0.2664  0.2561
 4939TIP3    H136452   4.920   6.206   0.520 -0.6304  0.6164  0.9160
 4939TIP3    H236453   5.041   6.250   0.600 -0.1147  0.3059  0.3247
 4940TIP3   OH236454   2.645   0.143   7.791 -0.2286 -0.3030 -0.4181
 4940TIP3    H136455   2.726   0.097   7.766 -0.8080 -1.6005  0.0298
 4940TIP3    H236456   2.666   0.183   7.875 -0.3593 -1.5605  0.2460
 4941TIP3   OH236457   0.233   4.931   7.884  0.4184  0.6586 -0.7079
 4941TIP3    H136458   0.327   4.938   7.897  0.5305  1.7961 -1.9711
 4941TIP3    H236459   0.206   4.862   7.945  2.1378 -0.0694 -0.7056
 4942TIP3   OH236460   3.820   3.250   1.335 -0.0774 -0.0293  0.3331
 4942TIP3    H136461   3.730   3.227   1.356  0.2282  0.1333  1.9567
 4942TIP3    H236462   3.832   3.220   1.245 -2.0021  0.7412 -0.2425
 4943TIP3   OH236463   6.183   4.007   8.962  0.2506  0.0172  0.2808
 4943TIP3    H136464   6.158   4.019   8.871  0.7455  1.4272  0.3150
 4943TIP3    H236465   6.107   4.040   9.012 -0.1524 -1.0417  0.4027
 4944TIP3   OH236466   2.047   1.586   3.397 -0.0965 -0.0712 -0.0915
 4944TIP3    H136467   1.994   1.559   3.471 -1.9317 -1.1994 -1.7095
 4944TIP3    H236468   2.057   1.507   3.344  1.0800  0.7015 -1.0909
 4945TIP3   OH236469   1.163   0.786   0.496  0.3457  0.0900  0.0878
 4945TIP3    H136470   1.127   0.702   0.468  0.5167  0.1241 -0.2397
 4945TIP3    H236471   1.093   0.826   0.548 -0.0822  0.1446 -0.5169
 4946TIP3   OH236472   0.221   6.686   3.503  0.3955 -0.6868  0.1695
 4946TIP3    H136473   0.237   6.742   3.579 -0.0722 -1.1542  0.6224
 4946TIP3    H236474   0.197   6.747   3.433  1.1671 -0.2249  0.2968
 4947TIP3   OH236475   0.858   3.489   0.548  0.0471  0.5283  0.2488
 4947TIP3    H136476   0.844   3.449   0.634 -0.2854  0.5887  0.2223
 4947TIP3    H236477   0.824   3.578   0.557 -1.7459 -0.0303 -0.4889
 4948TIP3   OH236478   2.050   1.542   2.302  0.1425  0.5135 -0.3599
 4948TIP3    H136479   2.059   1.587   2.219 -0.6466  0.4289 -0.5010
 4948TIP3    H236480   2.024   1.452   2.278  1.5517  0.0146 -0.0827
 4949TIP3   OH236481   2.546   5.816   8.084  0.0577  0.3649 -0.1135
 4949TIP3    H136482   2.544   5.812   7.988  1.1994 -1.1158 -0.1080
 4949TIP3    H236483   2.487   5.888   8.106  0.3915  1.2558 -1.9563
 4950TIP3   OH236484   5.510   4.980   8.892  0.0726 -0.2499 -0.3761
 4950TIP3    H136485   5.549   4.939   8.814  0.1374  0.8681 -0.9491
 4950TIP3    H236486   5.510   5.074   8.872 -0.5288 -0.0103  0.7015
 4951TIP3   OH236487   6.303   1.243   1.448  0.2260  0.1180  0.2433
 4951TIP3    H136488   6.335   1.217   1.362  1.4355  0.3250  0.6083
 4951TIP3    H236489   6.266   1.163   1.485 -1.7148  0.3542 -1.0359
 4952TIP3   OH236490   5.875   4.867   2.275 -0.3040  0.0598  0.0314
 4952TIP3    H136491   5.857   4.941   2.334 -2.3420 -0.7084  0.4512
 4952TIP3    H236492   5.844   4.897   2.190 -1.5548 -0.4606  0.2952
 4953TIP3   OH236493   3.546   6.217   3.354 -0.6598 -0.1988  0.2302
 4953TIP3    H136494   3.493   6.265   3.418 -1.8804  1.1418 -1.6755
 4953TIP3    H236495   3.636   6.224   3.388 -1.4503 -1.4338  2.8744
 4954TIP3   OH236496   0.706   4.863   1.414 -0.0438  0.3348 -0.0397
 4954TIP3    H136497   0.628   4.808   1.405 -0.2149  0.6256 -0.3715
 4954TIP3    H236498   0.741   4.842   1.501 -0.3551  0.0283  0.0133
 4955TIP3   OH236499   6.651   1.115   0.889 -0.4603 -0.0025  0.2034
 4955TIP3    H136500   6.594   1.169   0.944 -2.8500 -2.2725  0.1788
 4955TIP3    H236501   6.624   1.137   0.799 -1.3692 -1.0796  0.1914
 4956TIP3   OH236502   6.032   3.976   1.175  0.3216  0.5654  0.2312
 4956TIP3    H136503   5.962   3.916   1.202 -0.0922  0.1862 -1.5730
 4956TIP3    H236504   6.101   3.919   1.141 -0.4832  1.0526 -2.4412
 4957TIP3   OH236505   1.736   3.115   3.771  1.0556  0.4313  0.2392
 4957TIP3    H136506   1.686   3.093   3.849 -0.0377  2.8857  0.3249
 4957TIP3    H236507   1.681   3.086   3.698  0.9986  0.2493  0.3547
 4958TIP3   OH236508   2.789   5.687   7.959  0.4376 -0.2211  1.0218
 4958TIP3    H136509   2.724   5.729   7.903 -1.2858 -1.8078  1.7264
 4958TIP3    H236510   2.829   5.620   7.903 -0.5995 -1.1556  1.3620
 4959TIP3   OH236511   6.220   2.968   0.077  0.2370 -0.3590 -0.5586
 4959TIP3    H136512   6.144   2.984   0.021  1.4845  1.4071 -1.8439
 4959TIP3    H236513   6.219   3.039   0.141  1.1432  0.0748 -1.0007
 4960TIP3   OH236514   1.411   2.875   8.166  0.0007  0.1106  0.0506
 4960TIP3    H136515   1.334   2.827   8.198  1.1350 -2.0586 -0.2420
 4960TIP3    H236516   1.374   2.949   8.117 -1.8278  0.4616  1.8081
 4961TIP3   OH236517   4.113   0.823   8.435 -0.1253  0.3161 -0.3177
 4961TIP3    H136518   4.143   0.789   8.519  0.8480 -0.1154 -0.8175
 4961TIP3    H236519   4.084   0.745   8.387 -2.0362  0.7084  0.1120
 4962TIP3   OH236520   3.953   4.383   1.473  0.1502  0.2738  0.3415
 4962TIP3    H136521   4.037   4.341   1.491  0.2670 -0.2183 -1.2182
 4962TIP3    H236522   3.946   4.452   1.538  1.4069 -0.1769  0.9748
 4963TIP3   OH236523   4.453   4.248   8.447  0.0531  0.0035  0.3708
 4963TIP3    H136524   4.453   4.323   8.506  2.0512 -0.3719  0.9040
 4963TIP3    H236525   4.426   4.174   8.502 -0.9455  0.1316  0.0791
 4964TIP3   OH236526   2.001   0.846   1.564 -0.3614  0.3266 -0.3019
 4964TIP3    H136527   1.992   0.899   1.484  1.0384  0.8851 -0.1222
 4964TIP3    H236528   1.983   0.756   1.535  0.5784  0.4536 -1.3612
 4965TIP3   OH236529   6.139   4.845   7.876  0.0428  0.5226  0.3998
 4965TIP3    H136530   6.177   4.761   7.852  0.5837  0.8082  0.2215
 4965TIP3    H236531   6.045   4.836   7.859  0.2001  0.1942 -0.2978
 4966TIP3   OH236532   4.287   0.804   2.261 -0.3730 -0.4862  0.4428
 4966TIP3    H136533   4.224   0.824   2.191  0.3043 -2.0410 -0.6811
 4966TIP3    H236534   4.255   0.722   2.299 -0.7725  0.3803  2.0576
 4967TIP3   OH236535   2.372   3.236   0.744 -0.2417  0.3081 -0.3757
 4967TIP3    H136536   2.279   3.235   0.724 -0.2522 -0.3415 -0.3153
 4967TIP3    H236537   2.394   3.329   0.751 -0.3813  0.5783 -2.6737
 4968TIP3   OH236538   0.020   1.494   2.404  0.3878 -0.2131  0.3498
 4968TIP3    H136539   0.007   1.519   2.495 -1.4382  1.8553 -0.4027
 4968TIP3    H236540  -0.029   1.559   2.354 -0.0595 -2.2504 -2.0454
 4969TIP3   OH236541   2.968   5.454   2.508 -0.2315  0.3700  0.0891
 4969TIP3    H136542   2.997   5.465   2.417  1.7366 -1.9811  0.3077
 4969TIP3    H236543   2.924   5.369   2.509  0.0617  0.2126  1.3617
 4970TIP3   OH236544   5.322   4.661   7.182  0.0606  0.4546 -0.0067
 4970TIP3    H136545   5.332   4.755   7.169 -0.7116  0.7395  1.3136
 4970TIP3    H236546   5.228   4.645   7.172  0.2361 -0.2608 -0.6450
 4971TIP3   OH236547   5.628   5.121   1.765 -0.2214 -0.5762  0.7283
 4971TIP3    H136548   5.673   5.206   1.762 -1.3827  0.0356  0.2616
 4971TIP3    H236549   5.699   5.057   1.752  0.2269  0.4528 -4.0479
 4972TIP3   OH236550   3.829   6.539   1.502  0.2419  0.2117 -0.6603
 4972TIP3    H136551   3.756   6.576   1.552 -0.5918 -3.0506  0.8105
 4972TIP3    H236552   3.904   6.595   1.524 -1.1766  1.9155  0.1220
 4973TIP3   OH236553   4.625   5.189   0.270 -0.1475  0.1235  0.5934
 4973TIP3    H136554   4.689   5.255   0.244  0.6742 -0.7306  0.4324
 4973TIP3    H236555   4.628   5.123   0.201 -1.1546  0.0372  0.6140
 4974TIP3   OH236556   3.032   6.684   3.204  0.6801  0.6063 -0.1649
 4974TIP3    H136557   2.995   6.772   3.202  0.3711  0.4891 -2.7410
 4974TIP3    H236558   3.016   6.653   3.293  0.2235  2.8931  0.5996
 4975TIP3   OH236559   3.244   6.167   7.884 -0.3510 -0.0309 -0.6197
 4975TIP3    H136560   3.177   6.098   7.882 -1.1553  0.7292 -0.4479
 4975TIP3    H236561   3.327   6.119   7.882 -0.8724 -0.9530 -2.2610
 4976TIP3   OH236562   0.073   1.669   0.700  0.2850 -0.4472 -0.3076
 4976TIP3    H136563   0.135   1.597   0.714  1.0762 -0.4590 -3.1708
 4976TIP3    H236564   0.129   1.747   0.691 -0.4523  0.2856  1.0950
 4977TIP3   OH236565   1.159   2.303   0.727 -0.0146 -0.3458 -0.2535
 4977TIP3    H136566   1.181   2.262   0.811  0.9535 -0.3170 -0.4834
 4977TIP3    H236567   1.147   2.229   0.667 -0.4379 -0.3560 -0.1627
 4978TIP3   OH236568   4.751   0.789   1.905  0.0885  0.2076 -0.3910
 4978TIP3    H136569   4.704   0.870   1.886 -0.1202 -0.2243 -1.7889
 4978TIP3    H236570   4.684   0.728   1.935 -0.2554 -0.3243 -2.1282
 4979TIP3   OH236571   3.651   0.723   1.216 -0.0182 -0.1874  0.2928
 4979TIP3    H136572   3.581   0.698   1.156  0.8404 -1.3896 -0.2380
 4979TIP3    H236573   3.630   0.677   1.297  1.9098 -3.4504 -0.8725
 4980TIP3   OH236574   4.942   0.212   1.402 -0.0578 -0.1592 -0.4759
 4980TIP3    H136575   5.022   0.171   1.369  0.1103 -0.1267 -0.1186
 4980TIP3    H236576   4.895   0.240   1.324 -0.5369 -1.7133 -0.7836
 4981TIP3   OH236577   3.355   2.257   8.566 -0.0065 -0.7019 -0.4156
 4981TIP3    H136578   3.411   2.249   8.489 -1.0534  0.5843 -1.3517
 4981TIP3    H236579   3.383   2.339   8.607 -1.3497  0.1025 -1.0521
 4982TIP3   OH236580   5.851   6.527   8.655 -0.0489  0.1437  0.0346
 4982TIP3    H136581   5.811   6.477   8.726  2.1907 -0.6160  0.8700
 4982TIP3    H236582   5.850   6.467   8.581 -0.4604  0.1412  0.0392
 4983TIP3   OH236583   3.456   2.471   8.705 -0.3655 -0.1724  0.2091
 4983TIP3    H136584   3.512   2.499   8.778  1.7910 -0.2666 -1.2996
 4983TIP3    H236585   3.510   2.486   8.627 -2.3756 -0.5777 -1.3462
 4984TIP3   OH236586   0.342   2.902   0.619  0.0013  0.3565 -0.4184
 4984TIP3    H136587   0.436   2.912   0.636 -0.0938  0.8186 -0.1340
 4984TIP3    H236588   0.303   2.903   0.707 -0.2219 -0.3702 -0.5054
 4985TIP3   OH236589   4.243   3.103   2.939 -0.4150 -0.5902 -0.3847
 4985TIP3    H136590   4.314   3.144   2.988  0.4975 -1.4117 -0.9943
 4985TIP3    H236591   4.239   3.151   2.856  1.0767 -2.0587 -1.3667
 4986TIP3   OH236592   3.759   3.791   0.713  0.4658 -0.3038 -0.2542
 4986TIP3    H136593   3.694   3.721   0.716  0.6011 -0.4524 -0.7023
 4986TIP3    H236594   3.709   3.868   0.685  0.2886 -0.1870  0.3836
 4987TIP3   OH236595   6.486   5.368   0.288  0.1542 -0.6061  0.3295
 4987TIP3    H136596   6.513   5.426   0.360  1.8859 -0.3961 -0.4338
 4987TIP3    H236597   6.509   5.280   0.319 -1.0035 -0.7491  0.8383
 4988TIP3   OH236598   3.932   3.018   2.972  0.0118 -0.2149 -0.2740
 4988TIP3    H136599   3.923   3.085   2.904 -0.7860  0.0713  0.1035
 4988TIP3    H236600   3.929   3.066   3.054  1.8568 -0.4571 -0.0100
 4989TIP3   OH236601   6.397   5.764   2.188  0.1892  0.6932 -0.0123
 4989TIP3    H136602   6.433   5.785   2.275  1.0326  0.5987 -0.3331
 4989TIP3    H236603   6.383   5.850   2.148 -0.7721  0.7598  0.4305
 4990TIP3   OH236604   3.525   4.424   8.770  0.3643  0.5516  0.1779
 4990TIP3    H136605   3.437   4.397   8.796  0.1665 -0.0653 -1.0454
 4990TIP3    H236606   3.567   4.343   8.741  0.9110  1.0374 -0.4090
 4991TIP3   OH236607   4.062   2.729   3.346  0.8856  0.4604  0.0354
 4991TIP3    H136608   3.997   2.799   3.357  0.8997  0.5882 -0.6368
 4991TIP3    H236609   4.011   2.649   3.347  0.8961  0.4541  1.0634
 4992TIP3   OH236610   1.387   5.239   2.071 -0.6098 -0.2662  0.7928
 4992TIP3    H136611   1.309   5.230   2.016 -0.6734  0.2505  0.7977
 4992TIP3    H236612   1.459   5.247   2.010 -0.6456 -0.0040  0.7833
 4993TIP3   OH236613   6.475   4.609   1.792  0.4641 -0.0110  0.3954
 4993TIP3    H136614   6.465   4.514   1.792 -1.5354  0.1606 -0.4222
 4993TIP3    H236615   6.552   4.625   1.736  1.7956 -1.1645  1.7995
 4994TIP3   OH236616   5.121   5.280   0.900  0.5111  0.2707  0.6856
 4994TIP3    H136617   5.164   5.362   0.924  2.2353 -0.4306  0.1485
 4994TIP3    H236618   5.181   5.211   0.930  0.4020 -0.7256 -1.1843
 4995TIP3   OH236619   1.437   4.654   1.665 -0.4549 -0.7244  0.9380
 4995TIP3    H136620   1.350   4.672   1.630 -1.0430 -0.6970  2.3553
 4995TIP3    H236621   1.475   4.591   1.603 -0.9618  0.2415 -0.3997
 4996TIP3   OH236622   0.761   3.074   8.291  0.3216 -0.1147  0.4112
 4996TIP3    H136623   0.702   3.009   8.252 -0.3483  0.8319 -0.1980
 4996TIP3    H236624   0.770   3.047   8.382  0.7323 -1.5300 -0.0322
 4997TIP3   OH236625   4.259   6.010   8.258  0.2699  0.4271 -0.1555
 4997TIP3    H136626   4.233   6.059   8.336  1.3769  1.1820 -0.2465
 4997TIP3    H236627   4.338   5.963   8.283 -0.9202 -1.6178  0.0190
 4998TIP3   OH236628   2.966   2.044   2.776  0.3892  0.4700 -0.9623
 4998TIP3    H136629   2.931   1.962   2.741  0.9920 -0.4338  0.4559
 4998TIP3    H236630   3.055   2.023   2.803  1.4612  2.2618 -2.8267
 4999TIP3   OH236631   2.328   6.708   1.075  0.0173 -0.1752  0.2648
 4999TIP3    H136632   2.250   6.702   1.130  0.3071  0.9276  0.8228
 4999TIP3    H236633   2.320   6.793   1.031 -0.4384 -1.2052 -1.7940
 5000TIP3   OH236634   4.111   2.173   2.542  0.2577 -0.2003  0.2151
 5000TIP3    H136635   4.115   2.113   2.617  1.6064 -0.8427 -0.3342
 5000TIP3    H236636   4.124   2.117   2.466 -0.5361  0.5304 -0.4739
 5001TIP3   OH236637   6.084   5.869   7.648  0.0529  0.5434  0.3799
 5001TIP3    H136638   5.990   5.862   7.630  0.3349 -1.0773 -0.6629
 5001TIP3    H236639   6.115   5.936   7.588 -0.3161  0.5233  0.1638
 5002TIP3   OH236640   1.637   6.013   1.214 -0.1514 -0.2338 -0.9212
 5002TIP3    H136641   1.542   6.028   1.218  0.0644  1.2372 -0.7477
 5002TIP3    H236642   1.659   5.976   1.300 -0.6467 -1.1741 -1.1878
 5003TIP3   OH236643   1.234   6.576   1.892 -0.1270  0.2061 -0.3105
 5003TIP3    H136644   1.306   6.521   1.924 -0.0070 -0.0664 -1.0367
 5003TIP3    H236645   1.173   6.579   1.966  0.6305  0.4586  0.3229
 5004TIP3   OH236646   5.881   4.380   0.419  0.0774 -0.0385 -0.1934
 5004TIP3    H136647   5.862   4.461   0.373  0.4098  0.1712  0.0348
 5004TIP3    H236648   5.825   4.382   0.496  0.6690  0.3564  0.2322
 5005TIP3   OH236649   2.941   5.427   8.420  0.1142 -0.3092  0.0767
 5005TIP3    H136650   2.857   5.427   8.465  2.0986  0.3458  4.2695
 5005TIP3    H236651   2.981   5.511   8.443  2.0711 -0.6926 -1.5581
 5006TIP3   OH236652   3.527   6.699   0.606  0.0627 -0.2196  0.1574
 5006TIP3    H136653   3.559   6.616   0.572  0.8586 -0.0305  0.4190
 5006TIP3    H236654   3.606   6.752   0.619 -0.4023  0.4625  0.2946
 5007TIP3   OH236655   6.252   1.065   2.154  0.4846  0.0875 -0.0071
 5007TIP3    H136656   6.209   1.145   2.186  1.5800  0.9209 -0.5408
 5007TIP3    H236657   6.250   1.074   2.058 -1.5567 -1.7261 -0.1974
 5008TIP3   OH236658   4.059   1.812   0.686 -0.3803  0.5968  0.2367
 5008TIP3    H136659   3.981   1.769   0.721  0.7905 -0.3762  1.8044
 5008TIP3    H236660   4.116   1.822   0.762  1.3153  0.6134 -0.9957
 5009TIP3   OH236661   4.995   1.390   0.948 -0.1649 -0.5574  0.4655
 5009TIP3    H136662   5.037   1.470   0.917  0.7568 -0.8192  0.9833
 5009TIP3    H236663   4.902   1.404   0.933 -0.2328  1.3496  2.1513
 5010TIP3   OH236664   1.899   2.980   7.887 -0.7977  0.3902 -0.1467
 5010TIP3    H136665   1.834   3.033   7.932 -0.1512  0.9816  0.1216
 5010TIP3    H236666   1.865   2.970   7.798 -1.8136 -0.3178  0.2978
 5011TIP3   OH236667   3.446   1.802   0.013 -0.0027 -0.0063 -0.0331
 5011TIP3    H136668   3.363   1.842  -0.012 -0.9260 -2.1251 -0.5638
 5011TIP3    H236669   3.485   1.865   0.074  1.2776  4.3287 -4.6505
 5012TIP3   OH236670   2.305   3.512   7.371 -0.0447  0.2807 -0.5245
 5012TIP3    H136671   2.263   3.598   7.365 -0.4692  0.0652 -0.6302
 5012TIP3    H236672   2.388   3.529   7.416  0.3106  0.9031 -1.3857
 5013TIP3   OH236673   3.471   5.483   2.029  0.4977  0.4169 -0.4229
 5013TIP3    H136674   3.472   5.401   1.979  0.5187  0.6892 -0.8741
 5013TIP3    H236675   3.404   5.470   2.096  0.5046  0.0288 -0.4914
 5014TIP3   OH236676   4.870   4.938   0.606 -0.3144 -0.1708  0.3012
 5014TIP3    H136677   4.868   5.033   0.596 -1.2687  0.0283  1.8778
 5014TIP3    H236678   4.843   4.924   0.697 -1.4498 -1.9966 -0.2692
 5015TIP3   OH236679   0.849   0.894   1.245  0.0822  0.6116  0.6137
 5015TIP3    H136680   0.769   0.936   1.277  0.9337  2.1790  0.7680
 5015TIP3    H236681   0.907   0.966   1.224  1.3510 -0.4979  0.1779
 5016TIP3   OH236682   4.443   1.679   1.778  0.2477  0.6388 -0.9716
 5016TIP3    H136683   4.508   1.737   1.818 -0.9491 -0.0761  2.3267
 5016TIP3    H236684   4.363   1.732   1.773 -0.0226  0.2418 -0.9266
 5017TIP3   OH236685   1.620   4.911   2.047 -0.5537  0.1772 -0.7004
 5017TIP3    H136686   1.592   4.953   2.128  0.0303 -0.3089 -0.2422
 5017TIP3    H236687   1.606   4.818   2.062 -0.8153  0.1157 -1.3080
 5018TIP3   OH236688   5.153   2.253   1.066 -0.0372 -0.2472  0.4313
 5018TIP3    H136689   5.243   2.267   1.097  0.4120  0.7765 -1.1984
 5018TIP3    H236690   5.151   2.162   1.038  1.1477  0.2070 -1.3417
 5019TIP3   OH236691   2.102   1.713   2.102 -0.1873  0.0540  0.5518
 5019TIP3    H136692   2.158   1.785   2.132 -0.2974  1.1254 -1.5843
 5019TIP3    H236693   2.063   1.746   2.021 -2.1450 -1.5336  0.7740
 5020TIP3   OH236694   2.864   2.031   8.367 -0.2138  0.4156 -0.1014
 5020TIP3    H136695   2.957   2.016   8.347 -0.3076  1.1698 -1.1687
 5020TIP3    H236696   2.820   2.029   8.283 -1.2242 -0.1867  0.4237
 5021TIP3   OH236697   2.319   3.679   0.229 -0.2044  0.0831 -0.1528
 5021TIP3    H136698   2.361   3.765   0.227  1.1228 -0.4692  1.7885
 5021TIP3    H236699   2.227   3.697   0.210  0.2080  1.8021 -0.6997
 5022TIP3   OH236700   4.533   1.623   0.660 -0.6369  0.7149  0.5569
 5022TIP3    H136701   4.518   1.529   0.670  0.2893  0.5296  0.3600
 5022TIP3    H236702   4.466   1.652   0.598 -0.3315 -0.0202 -0.1420
 5023TIP3   OH236703   0.137   5.470   0.579 -0.2019  0.8306  0.6060
 5023TIP3    H136704   0.044   5.489   0.562  0.2342  0.4700 -2.9483
 5023TIP3    H236705   0.159   5.526   0.654 -3.3152  0.6843  1.8004
 5024TIP3   OH236706   2.148   0.967   7.447  0.1158 -0.0559 -0.2450
 5024TIP3    H136707   2.156   0.878   7.482 -2.5532 -1.1180 -1.9324
 5024TIP3    H236708   2.186   0.961   7.359  0.7549  0.7261 -0.0226
 5025TIP3   OH236709   1.256   1.841   8.131  0.1521 -0.5980 -0.7523
 5025TIP3    H136710   1.278   1.842   8.224 -4.8645  3.0611  0.8109
 5025TIP3    H236711   1.325   1.892   8.090  1.9551 -1.4460  1.0224
 5026TIP3   OH236712   0.962   4.914   7.792  0.7784 -0.3150  0.1122
 5026TIP3    H136713   0.980   4.822   7.812 -1.4144 -0.7227  0.4698
 5026TIP3    H236714   0.953   4.917   7.697  0.3858 -0.5921  0.1359
 5027TIP3   OH236715   3.887   5.015   7.308 -0.4942  0.4216  0.1457
 5027TIP3    H136716   3.857   4.931   7.274  0.6506  0.1299 -0.1752
 5027TIP3    H236717   3.972   4.996   7.348 -0.3531  1.3718  0.3172
 5028TIP3   OH236718   6.353   0.554   0.704 -0.1264 -0.1167  0.1898
 5028TIP3    H136719   6.443   0.566   0.673 -0.1122  2.0968  0.8948
 5028TIP3    H236720   6.328   0.467   0.673  1.5630  0.0042 -1.7370
 5029TIP3   OH236721   2.697   4.498   8.624 -0.1529 -0.7723 -0.0743
 5029TIP3    H136722   2.693   4.585   8.663  1.4753 -0.6691 -0.0598
 5029TIP3    H236723   2.642   4.444   8.681  0.2761 -0.1246  0.9812
 5030TIP3   OH236724   3.260   1.560   8.553 -0.0036 -0.3157  0.3695
 5030TIP3    H136725   3.285   1.521   8.470 -0.5081 -0.0185  0.0705
 5030TIP3    H236726   3.164   1.559   8.553 -0.0268 -1.7704  1.6447
 5031TIP3   OH236727   3.001   0.673   8.256 -0.5362 -0.1232  0.3541
 5031TIP3    H136728   2.927   0.653   8.198 -0.4791  1.1716 -0.1913
 5031TIP3    H236729   3.023   0.764   8.237  0.8571 -0.3206  0.9068
 5032TIP3   OH236730   6.565   1.665   3.462  0.6711 -0.0587 -0.0235
 5032TIP3    H136731   6.649   1.669   3.507  0.7306  0.8057 -0.2071
 5032TIP3    H236732   6.588   1.663   3.369  0.5139 -0.8938 -0.0572
 5033TIP3   OH236733   3.035   0.934   2.743  0.3192 -0.2816 -0.1033
 5033TIP3    H136734   2.966   0.876   2.710 -0.3785  0.2663  0.3392
 5033TIP3    H236735   2.987   1.002   2.791  1.0716  0.9836 -1.0924
 5034TIP3   OH236736   1.196   1.812   8.692  0.4297  0.0627 -0.7569
 5034TIP3    H136737   1.172   1.898   8.725  0.5369 -0.1883  0.0034
 5034TIP3    H236738   1.180   1.816   8.598 -0.2736  0.6742 -0.6157
 5035TIP3   OH236739   3.026   0.712   2.975  0.5729  0.2470  0.6629
 5035TIP3    H136740   2.999   0.759   2.896  0.5693 -0.7677  0.0334
 5035TIP3    H236741   3.120   0.697   2.963  0.6176  0.2840  0.9566
 5036TIP3   OH236742   5.839   4.691   0.856  0.0154 -0.5114 -0.1331
 5036TIP3    H136743   5.789   4.633   0.913 -0.7072  1.3804  1.2832
 5036TIP3    H236744   5.776   4.720   0.790  0.4596 -1.5450 -1.0353
 5037TIP3   OH236745   1.695   0.388   0.893 -0.3432  0.1226 -0.4425
 5037TIP3    H136746   1.691   0.327   0.818 -0.4222 -0.0697 -0.2832
 5037TIP3    H236747   1.686   0.332   0.970 -1.2378  0.4202 -0.3196
 5038TIP3   OH236748   5.268   0.688   3.248 -0.4256 -0.2440  0.1205
 5038TIP3    H136749   5.235   0.722   3.332 -1.4247  0.1762 -0.4243
 5038TIP3    H236750   5.250   0.594   3.252  0.4262 -0.4023  0.7617
 5039TIP3   OH236751   3.538   2.540   2.078  0.6434  0.0110  0.4453
 5039TIP3    H136752   3.568   2.618   2.032  0.6364 -0.5293 -0.4833
 5039TIP3    H236753   3.541   2.470   2.013 -0.7047 -0.4740  0.8671
 5040TIP3   OH236754   5.451   6.179   1.137 -0.1580  0.3638  0.2992
 5040TIP3    H136755   5.546   6.191   1.128 -0.0463 -0.6681  0.0079
 5040TIP3    H236756   5.423   6.147   1.051 -0.6977  0.2116  0.5281
 5041TIP3   OH236757   0.548   4.897   2.229 -0.4595 -0.1442 -0.4278
 5041TIP3    H136758   0.516   4.966   2.170 -1.0973 -0.6024 -0.6230
 5041TIP3    H236759   0.474   4.880   2.287  0.5483  1.1878  1.3583
 5042TIP3   OH236760   3.259   5.832   8.864  0.4133  0.4473  0.0488
 5042TIP3    H136761   3.293   5.745   8.882  0.4813  0.4224 -0.1988
 5042TIP3    H236762   3.337   5.883   8.839  0.5811  0.9137  1.4170
 5043TIP3   OH236763   4.335   3.486   0.334  0.6707 -0.1763 -0.1028
 5043TIP3    H136764   4.241   3.475   0.343  0.2030  2.1670 -1.2052
 5043TIP3    H236765   4.369   3.480   0.423 -0.9348  1.7020  0.7245
 5044TIP3   OH236766   2.157   1.331   3.339 -0.1543 -0.0141 -0.4024
 5044TIP3    H136767   2.209   1.276   3.281  1.7837 -1.3688  2.4041
 5044TIP3    H236768   2.218   1.397   3.371 -0.6114 -0.4840  1.5406
 5045TIP3   OH236769   4.343   4.301   7.324  0.0326  0.5422 -0.1920
 5045TIP3    H136770   4.356   4.213   7.360 -1.5388  0.2255 -0.3305
 5045TIP3    H236771   4.341   4.358   7.400  0.0967  0.3276 -0.0274
 5046TIP3   OH236772   0.477   1.332   1.550  0.1472  0.4601  0.1162
 5046TIP3    H136773   0.541   1.372   1.491  0.7726  1.1188  1.2070
 5046TIP3    H236774   0.448   1.404   1.606 -0.0613 -0.2521  0.9412
 5047TIP3   OH236775   4.099   4.774   7.979 -0.3177 -0.3730 -0.2265
 5047TIP3    H136776   4.142   4.826   7.912  1.1520 -2.1586 -0.7671
 5047TIP3    H236777   4.027   4.730   7.934 -0.8860  0.3332 -0.0229
 5048TIP3   OH236778   6.170   0.326   2.275 -0.4538  0.1992 -0.6341
 5048TIP3    H136779   6.095   0.275   2.307 -0.9726  1.6278  0.5115
 5048TIP3    H236780   6.246   0.284   2.316 -0.9157  0.6074  0.6924
 5049TIP3   OH236781   2.901   5.726   0.272  0.2670 -0.0038  0.5586
 5049TIP3    H136782   2.821   5.713   0.221  0.7799 -1.2894  0.0345
 5049TIP3    H236783   2.967   5.747   0.207  0.7317 -0.7343  0.7852
 5050TIP3   OH236784   2.293   1.883   2.544  0.7672 -0.2124  0.5810
 5050TIP3    H136785   2.205   1.847   2.553 -0.1818  1.2462 -1.7967
 5050TIP3    H236786   2.292   1.964   2.595  1.1778 -0.8590  1.6277
 5051TIP3   OH236787   3.675   4.303   0.697  0.0058  0.1623  0.0918
 5051TIP3    H136788   3.733   4.306   0.620  1.3435 -0.8986  1.0117
 5051TIP3    H236789   3.723   4.351   0.765 -2.3685  3.5687 -0.3951
 5052TIP3   OH236790   0.182   2.598   1.309 -0.1075  0.4449 -0.4284
 5052TIP3    H136791   0.259   2.568   1.262  0.4451  1.3029 -0.0919
 5052TIP3    H236792   0.136   2.655   1.246  0.5567  1.4772 -0.0067
 5053TIP3   OH236793   4.311   4.533   8.416 -0.2954 -0.1504  0.4360
 5053TIP3    H136794   4.227   4.569   8.444 -0.5777 -1.9053  2.1213
 5053TIP3    H236795   4.376   4.583   8.466 -0.4845 -0.0753  0.6094
 5054TIP3   OH236796   5.500   0.716   2.061 -0.4954 -0.2384 -0.2855
 5054TIP3    H136797   5.442   0.670   2.000 -0.8817  0.4209 -0.4233
 5054TIP3    H236798   5.588   0.702   2.025 -0.5129 -1.5148  0.1027
 5055TIP3   OH236799   5.879   4.749   8.811  0.2558 -0.0217 -0.2275
 5055TIP3    H136800   5.898   4.798   8.891  1.6059  3.0059 -2.2372
 5055TIP3    H236801   5.953   4.690   8.801 -0.6515 -1.5558  1.4361
 5056TIP3   OH236802   2.025   4.443   7.265  0.2632  0.2585  0.2634
 5056TIP3    H136803   2.109   4.405   7.290 -0.9793 -1.9557  1.3541
 5056TIP3    H236804   2.003   4.502   7.337  0.9609  1.0632 -0.1561
 5057TIP3   OH236805   4.060   2.727   1.295  0.1469 -0.2077  0.4258
 5057TIP3    H136806   4.065   2.822   1.306 -0.4281 -0.2337  0.9729
 5057TIP3    H236807   4.009   2.697   1.370  0.4403 -0.9643  0.3260
 5058TIP3   OH236808   0.993   1.795   0.828 -0.2644 -0.5690  0.0233
 5058TIP3    H136809   0.946   1.816   0.909 -0.2855 -0.6135  0.0228
 5058TIP3    H236810   1.071   1.850   0.830  0.6698 -1.8792  0.9519
 5059TIP3   OH236811   5.211   2.700   7.450  0.0458 -0.0821  0.2048
 5059TIP3    H136812   5.197   2.791   7.476 -2.8232 -0.1944 -0.6908
 5059TIP3    H236813   5.275   2.706   7.379  2.0032  0.9083  1.9273
 5060TIP3   OH236814   1.691   5.404   8.853  0.2993 -0.4731 -0.3967
 5060TIP3    H136815   1.621   5.398   8.918  2.0009 -0.9531  1.5208
 5060TIP3    H236816   1.726   5.314   8.848  2.4184  0.2218  0.7030
 5061TIP3   OH236817   1.330   3.355   0.354 -0.7686  0.0724 -0.1797
 5061TIP3    H136818   1.406   3.394   0.397 -0.6356  0.5590 -0.8305
 5061TIP3    H236819   1.255   3.399   0.394 -0.6336  0.7639 -0.6604
 5062TIP3   OH236820   2.208   1.981   1.496  0.3053 -0.1623  0.2122
 5062TIP3    H136821   2.198   2.024   1.582  1.3270 -0.5762  0.5539
 5062TIP3    H236822   2.173   1.893   1.509  0.2109 -0.1371  0.1281
 5063TIP3   OH236823   4.120   4.129   2.639 -0.2321  0.2260 -0.2390
 5063TIP3    H136824   4.026   4.121   2.656  0.1791 -0.2404  2.2681
 5063TIP3    H236825   4.147   4.040   2.613 -0.1872 -0.1300  0.9694
 5064TIP3   OH236826   1.064   0.389   0.684 -0.2989  0.3739 -0.5207
 5064TIP3    H136827   1.035   0.324   0.748  0.0517 -0.6642 -1.3797
 5064TIP3    H236828   1.121   0.447   0.734  0.6000 -0.8764 -0.0364
 5065TIP3   OH236829   0.230   5.150   0.693  0.0195  0.4339  0.5306
 5065TIP3    H136830   0.189   5.226   0.653  2.0440  0.2931 -2.0839
 5065TIP3    H236831   0.312   5.183   0.729  1.3385 -0.5552 -1.3957
 5066TIP3   OH236832   6.387   1.157   1.185 -0.4158  0.2564  0.4517
 5066TIP3    H136833   6.456   1.091   1.187  0.3520  1.0207  0.1733
 5066TIP3    H236834   6.402   1.205   1.104 -2.4278 -0.7188 -0.5826
 5067TIP3   OH236835   3.053   0.060   0.758  0.4375 -0.3642  0.1264
 5067TIP3    H136836   3.123   0.053   0.693  1.7859  3.7674  0.8501
 5067TIP3    H236837   3.098   0.068   0.842 -0.9005  1.0934  0.7643
 5068TIP3   OH236838   1.422   3.308   0.049  0.5239  0.3542  0.4693
 5068TIP3    H136839   1.457   3.313  -0.040  2.0870 -1.4712  0.9181
 5068TIP3    H236840   1.435   3.217   0.075  0.2458  0.8815  2.6237
 5069TIP3   OH236841   5.568   5.986   1.548 -0.0162 -0.2141  0.5528
 5069TIP3    H136842   5.517   5.930   1.607 -0.4276  0.2633  0.6571
 5069TIP3    H236843   5.519   5.985   1.466 -1.3754  1.8887  1.2432
 5070TIP3   OH236844   2.438   4.652   8.175 -0.5708 -0.4318 -0.2121
 5070TIP3    H136845   2.455   4.633   8.267 -0.2014 -0.4929 -0.2948
 5070TIP3    H236846   2.524   4.661   8.135 -0.7292 -0.4655 -0.5670
 5071TIP3   OH236847   3.339   1.623   0.667  0.3511  0.4867  0.8557
 5071TIP3    H136848   3.363   1.590   0.580 -1.9130 -0.1305  0.3981
 5071TIP3    H236849   3.385   1.707   0.674  0.0730  0.8686 -1.2183
 5072TIP3   OH236850   2.469   3.979   1.658 -0.2927  0.0078  0.6324
 5072TIP3    H136851   2.472   3.888   1.688  0.8120  0.1143  0.9037
 5072TIP3    H236852   2.555   3.993   1.617 -0.2914  1.0445  0.9619
 5073TIP3   OH236853   4.616   5.814   7.575  0.3398 -0.2605 -0.2147
 5073TIP3    H136854   4.582   5.735   7.532 -0.3970  0.5036 -1.0833
 5073TIP3    H236855   4.543   5.844   7.629  0.1928  0.4715 -0.8060
 5074TIP3   OH236856   2.707   0.171   0.247  0.4138 -0.2570  0.2204
 5074TIP3    H136857   2.798   0.142   0.240  0.4434 -0.8806  2.3696
 5074TIP3    H236858   2.657   0.100   0.207  0.8588  0.1692 -1.1310
 5075TIP3   OH236859   3.685   4.363   2.837  0.3862  0.0782 -0.3430
 5075TIP3    H136860   3.623   4.351   2.909 -0.4043 -0.7807 -1.1386
 5075TIP3    H236861   3.697   4.458   2.831 -1.8203  0.3738 -0.9612
 5076TIP3   OH236862   4.230   1.147   7.441 -0.5974 -0.0182  0.6282
 5076TIP3    H136863   4.302   1.202   7.471  0.0187 -0.8779  0.7453
 5076TIP3    H236864   4.177   1.132   7.520 -1.3317  1.2030  0.4024
 5077TIP3   OH236865   6.489   0.770   1.636 -0.5736 -0.4096  0.3932
 5077TIP3    H136866   6.396   0.791   1.649 -0.8626 -1.4697  0.1321
 5077TIP3    H236867   6.516   0.728   1.717 -0.6242 -1.0905  0.0656
 5078TIP3   OH236868   1.253   0.510   1.594  0.2271 -0.2792 -0.1694
 5078TIP3    H136869   1.205   0.523   1.676 -0.1695  2.3969 -0.7472
 5078TIP3    H236870   1.186   0.486   1.530 -0.0914  1.4502 -0.5236
 5079TIP3   OH236871   1.982   6.007   1.317 -0.1828  0.7527 -0.4392
 5079TIP3    H136872   2.012   5.992   1.227 -1.1693  0.7360 -0.7774
 5079TIP3    H236873   1.909   5.947   1.328  0.5322  0.0573  0.7162
 5080TIP3   OH236874   6.009   1.601   8.716  0.1120  0.0657 -0.0586
 5080TIP3    H136875   6.045   1.514   8.731  1.5352  0.7245  0.5137
 5080TIP3    H236876   6.073   1.661   8.754 -0.9308  1.3638 -0.2592
 5081TIP3   OH236877   1.869   6.088   1.637 -0.4295 -0.4255  0.0296
 5081TIP3    H136878   1.886   6.067   1.545  0.2040 -0.6478  0.1951
 5081TIP3    H236879   1.834   6.007   1.674 -0.9044 -0.2698 -0.0601
 5082TIP3   OH236880   6.531   2.576   2.915 -0.5978 -0.0444 -0.4784
 5082TIP3    H136881   6.525   2.534   3.001  0.7433  1.7642  0.5581
 5082TIP3    H236882   6.492   2.662   2.927  0.1952  0.4773 -1.5003
 5083TIP3   OH236883   6.630   0.211   0.807  0.2917 -0.2516 -0.1414
 5083TIP3    H136884   6.544   0.174   0.825 -0.1900  0.9053  0.0249
 5083TIP3    H236885   6.692   0.143   0.835 -0.5534 -0.8886  0.2148
 5084TIP3   OH236886   0.284   3.610   3.509  0.0049 -0.4801  0.7729
 5084TIP3    H136887   0.351   3.670   3.542  1.3277 -1.9727  0.9343
 5084TIP3    H236888   0.284   3.538   3.572 -0.4232 -1.3735 -0.2311
 5085TIP3   OH236889   6.362   4.764   2.002  0.1022  0.3937  0.4136
 5085TIP3    H136890   6.402   4.725   1.924 -1.2874 -2.3928  0.9747
 5085TIP3    H236891   6.293   4.821   1.968 -0.6842 -1.0162 -0.4170
 5086TIP3   OH236892   4.441   4.130   8.707 -0.6539  0.0174 -0.3892
 5086TIP3    H136893   4.493   4.095   8.780  1.3704  0.1308 -1.6884
 5086TIP3    H236894   4.394   4.053   8.673 -0.7486 -0.2577  0.3477
 5087TIP3   OH236895   3.459   1.887   0.761  0.7406  0.2214 -0.3231
 5087TIP3    H136896   3.463   1.960   0.700 -0.8058  0.8634  0.3040
 5087TIP3    H236897   3.481   1.925   0.846 -0.9668  0.1975  0.1669
 5088TIP3   OH236898   4.291   2.630   2.724 -0.0860 -0.8806 -0.0237
 5088TIP3    H136899   4.327   2.706   2.680  1.4142 -1.9973 -0.8035
 5088TIP3    H236900   4.287   2.655   2.816 -2.3834  1.1518 -0.5446
 5089TIP3   OH236901   4.464   0.416   0.442  0.3214  0.3338 -0.6467
 5089TIP3    H136902   4.528   0.382   0.504 -1.2724  2.0825  2.1324
 5089TIP3    H236903   4.407   0.341   0.424  0.5835 -0.1072  0.3032
 5090TIP3   OH236904   6.544   5.521   8.732 -0.2783  0.1454  0.2825
 5090TIP3    H136905   6.587   5.497   8.650 -1.2827 -1.0048  0.0644
 5090TIP3    H236906   6.528   5.615   8.725  0.4926  0.2276 -0.4270
 5091TIP3   OH236907   1.306   1.085   0.719 -0.1161 -0.1807  0.2314
 5091TIP3    H136908   1.391   1.041   0.727 -0.5301 -1.3361 -1.2629
 5091TIP3    H236909   1.246   1.031   0.770 -0.4172 -0.7795 -0.7336
 5092TIP3   OH236910   0.443   5.810   8.443 -0.2723  0.3720  0.0581
 5092TIP3    H136911   0.448   5.720   8.474  0.2752  1.1615  2.5303
 5092TIP3    H236912   0.349   5.826   8.431 -0.4202 -0.3267  0.2606
 5093TIP3   OH236913   2.720   4.172   8.269  0.1617  0.4310 -0.1422
 5093TIP3    H136914   2.730   4.135   8.181  1.4726  0.9732 -0.2453
 5093TIP3    H236915   2.627   4.163   8.288  0.1625 -1.4614 -0.7975
 5094TIP3   OH236916   2.983   6.678   8.921 -0.6448 -0.2977 -0.1597
 5094TIP3    H136917   2.910   6.621   8.897 -1.3119  1.1589 -1.7256
 5094TIP3    H236918   2.947   6.767   8.918  0.3322  0.2795  2.3269
 5095TIP3   OH236919   5.585   1.582   1.765  0.0511 -0.2914 -0.3089
 5095TIP3    H136920   5.578   1.618   1.677 -0.1397 -0.9437 -0.5689
 5095TIP3    H236921   5.666   1.530   1.764  1.8793  2.3272  0.8938
 5096TIP3   OH236922   2.658   0.158   8.317  0.1265 -0.2256 -0.1259
 5096TIP3    H136923   2.696   0.083   8.273  0.0451 -0.2683 -0.1239
 5096TIP3    H236924   2.732   0.214   8.339 -0.0017  1.2808 -3.0255
 5097TIP3   OH236925   3.188   0.365   8.489  0.4641  0.1598 -0.5222
 5097TIP3    H136926   3.242   0.438   8.519 -0.1671  1.3189 -2.0685
 5097TIP3    H236927   3.245   0.316   8.429  0.5621 -0.0274 -0.2773
 5098TIP3   OH236928   1.019   3.316   1.769  0.5087 -0.0875 -0.3922
 5098TIP3    H136929   0.983   3.291   1.854  1.3888 -0.2063 -0.0439
 5098TIP3    H236930   1.107   3.280   1.769  1.2991  1.7501 -0.4885
 5099TIP3   OH236931   2.646   6.583   7.661 -0.6187  0.0769  0.5240
 5099TIP3    H136932   2.717   6.645   7.645 -1.1920  0.5359 -0.2628
 5099TIP3    H236933   2.674   6.502   7.618 -0.5632  0.2461  0.2481
 5100TIP3   OH236934   5.794   0.532   1.080  0.3279  0.0231 -0.1059
 5100TIP3    H136935   5.777   0.626   1.066  2.8170  0.7890  1.3266
 5100TIP3    H236936   5.713   0.498   1.116 -0.1332  2.0358  0.9101
 5101TIP3   OH236937   3.745   0.046   2.644 -0.5212  0.3510 -0.4585
 5101TIP3    H136938   3.823  -0.009   2.655  0.1992  1.3987 -0.2073
 5101TIP3    H236939   3.680  -0.013   2.607 -0.5584 -1.3081  2.0011
 5102TIP3   OH236940   3.253   4.167   2.041  0.1761 -0.3674  0.2093
 5102TIP3    H136941   3.318   4.121   2.094 -1.6246 -0.4028  2.5166
 5102TIP3    H236942   3.172   4.161   2.091 -1.1764  1.4186 -1.6015
 5103TIP3   OH236943   2.847   1.030   8.499  0.3238  0.7045 -0.2141
 5103TIP3    H136944   2.861   1.045   8.592  1.2091 -0.4030 -0.1503
 5103TIP3    H236945   2.824   0.937   8.493 -0.5820  0.9674 -1.0190
 5104TIP3   OH236946   0.500   4.349   8.272 -0.9262 -0.0317 -0.5809
 5104TIP3    H136947   0.450   4.269   8.289 -0.1256 -0.2748  0.7333
 5104TIP3    H236948   0.490   4.401   8.352 -0.0333  0.4245 -0.7566
 5105TIP3   OH236949   0.015   6.056   1.660 -0.3982  0.3749  0.0616
 5105TIP3    H136950  -0.032   6.099   1.731 -1.5496  2.0287 -1.6158
 5105TIP3    H236951   0.080   6.120   1.631  0.2025 -0.3558 -0.2505
 5106TIP3   OH236952   0.857   0.653   1.069  0.0943 -0.0737  0.1721
 5106TIP3    H136953   0.835   0.584   1.131  0.0783  0.4552  0.7601
 5106TIP3    H236954   0.837   0.734   1.114 -0.1994  0.3179 -0.6353
 5107TIP3   OH236955   0.222   5.664   2.140  0.6543 -0.2518  0.2861
 5107TIP3    H136956   0.167   5.724   2.091 -0.1765  0.1603  1.6574
 5107TIP3    H236957   0.198   5.577   2.107  0.0398  0.0100  0.0219
 5108TIP3   OH236958   5.516   2.035   1.828  0.0846  0.0763 -0.0600
 5108TIP3    H136959   5.501   2.120   1.787 -0.2310  0.9318  1.7277
 5108TIP3    H236960   5.591   1.999   1.781  1.0729  1.9327 -0.0229
 5109TIP3   OH236961   2.136   2.184   8.871  0.3997 -0.5583 -0.1031
 5109TIP3    H136962   2.163   2.267   8.910 -0.3071  1.0105 -2.6786
 5109TIP3    H236963   2.218   2.142   8.846  0.7886 -0.9463  1.6802
 5110TIP3   OH236964   4.961   0.838   1.710  0.0194  0.5976  0.3575
 5110TIP3    H136965   4.903   0.833   1.786  0.6850  0.4947  0.8672
 5110TIP3    H236966   5.043   0.798   1.739  0.2092  0.3378 -0.4922
 5111TIP3   OH236967   1.341   5.910   1.690  0.1329  0.4644 -0.2100
 5111TIP3    H136968   1.300   5.989   1.655  0.5016  0.8313  0.1715
 5111TIP3    H236969   1.308   5.903   1.780  0.7481  0.6552  0.0365
 5112TIP3   OH236970   0.904   6.501   0.135 -0.6469  0.0998 -0.3007
 5112TIP3    H136971   0.811   6.520   0.145 -0.8491 -1.1260  0.2483
 5112TIP3    H236972   0.943   6.521   0.220  0.3414  4.2720 -1.4733
 5113TIP3   OH236973   6.329   5.131   0.489 -0.2877  0.4480 -0.2353
 5113TIP3    H136974   6.419   5.132   0.456 -0.1219  0.7318  0.2216
 5113TIP3    H236975   6.313   5.220   0.520 -0.3833  0.1452  0.6043
 5114TIP3   OH236976   3.887   6.324   1.038  0.3895  0.2782  0.1682
 5114TIP3    H136977   3.944   6.392   1.075  0.0614 -0.3128  1.8770
 5114TIP3    H236978   3.915   6.243   1.081 -1.1593 -0.1589  0.4151
 5115TIP3   OH236979   4.534   1.643   2.513 -0.0582 -0.2019  0.3498
 5115TIP3    H136980   4.624   1.612   2.511  0.6116  1.4692  1.6999
 5115TIP3    H236981   4.517   1.675   2.424  0.5869 -0.7615  0.0225
 5116TIP3   OH236982   2.121   2.141   1.228  0.4363  0.0961  0.2928
 5116TIP3    H136983   2.138   2.100   1.143  0.7189  1.4770 -0.3497
 5116TIP3    H236984   2.161   2.082   1.292 -0.9734 -1.6849 -0.3823
 5117TIP3   OH236985   2.825   4.824   7.559  0.2650 -0.1436  0.2036
 5117TIP3    H136986   2.790   4.886   7.495  0.2359 -0.7948 -0.4200
 5117TIP3    H236987   2.903   4.788   7.517  0.3684 -0.4151  0.6252
 5118TIP3   OH236988   3.718   4.367   2.449  0.0866  0.6384 -0.0236
 5118TIP3    H136989   3.629   4.364   2.484  0.3255  1.5964  0.6969
 5118TIP3    H236990   3.738   4.460   2.441  1.4812  0.4722  1.0385
 5119TIP3   OH236991   4.652   3.378   1.364  0.7158  0.1125  0.2937
 5119TIP3    H136992   4.604   3.349   1.441  0.6391  0.4323  0.3694
 5119TIP3    H236993   4.649   3.304   1.304 -1.7048  0.8022 -0.5738
 5120TIP3   OH236994   3.054   6.585   2.949  0.6130  0.4068 -0.3205
 5120TIP3    H136995   3.043   6.625   3.035  1.2548  1.6211 -0.7767
 5120TIP3    H236996   3.002   6.505   2.953 -2.1544  2.0726  0.1069
 5121TIP3   OH236997   5.114   2.749   2.048 -0.6212  0.4208  0.4911
 5121TIP3    H136998   5.061   2.679   2.011  0.5153 -0.5058  0.5364
 5121TIP3    H236999   5.134   2.720   2.137  0.0525  0.6670  0.4320
 5122TIP3   OH237000   1.427   4.034   0.126  0.1191 -0.6363  0.1521
 5122TIP3    H137001   1.419   3.942   0.103 -0.4495 -0.0609 -2.2384
 5122TIP3    H237002   1.521   4.053   0.120  0.2227 -1.0214  0.5411
 5123TIP3   OH237003   3.900   0.587   1.182  0.3319  0.1688 -0.0057
 5123TIP3    H137004   3.824   0.645   1.173 -1.4054 -1.9922 -0.1207
 5123TIP3    H237005   3.867   0.501   1.155  2.3619 -1.1967  1.6147
 5124TIP3   OH237006   3.125   6.536   8.049 -0.1318 -0.4902  0.0341
 5124TIP3    H137007   3.060   6.585   7.999  0.5465 -0.8509 -1.2231
 5124TIP3    H237008   3.195   6.517   7.987  0.9580 -0.5551  1.2293
 5125TIP3   OH237009   4.678   1.006   1.167  0.1320 -0.3493 -0.2506
 5125TIP3    H137010   4.654   1.075   1.229  0.8898 -1.3758  1.2481
 5125TIP3    H237011   4.655   1.042   1.081  3.2226  3.0580  0.0731
 5126TIP3   OH237012   6.124   1.504   2.426  0.0988 -0.0179  0.3564
 5126TIP3    H137013   6.197   1.500   2.488  1.7507  0.4924 -1.4680
 5126TIP3    H237014   6.049   1.531   2.479  1.3394  0.0110  2.1842
 5127TIP3   OH237015   6.148   3.772   2.416 -0.1511  0.7584 -0.0280
 5127TIP3    H137016   6.109   3.766   2.328  1.0605 -0.6950 -0.5009
 5127TIP3    H237017   6.076   3.801   2.472 -1.1105  1.1116 -1.3925
 5128TIP3   OH237018   5.319   4.877   2.121  0.5027 -0.2630 -0.5518
 5128TIP3    H137019   5.233   4.905   2.154  0.8983 -0.4213  0.6556
 5128TIP3    H237020   5.298   4.811   2.055 -0.3216 -0.0134 -0.5578
 5129TIP3   OH237021   3.172   3.732   2.264  0.0528  0.1404  0.3023
 5129TIP3    H137022   3.221   3.680   2.327 -1.1172  0.2595  1.3494
 5129TIP3    H237023   3.095   3.763   2.312 -0.8878  0.2274 -1.1783
 5130TIP3   OH237024   3.001   2.834   1.761 -0.1497  0.2402  0.2704
 5130TIP3    H137025   2.966   2.773   1.697  0.6595  0.2896 -0.2343
 5130TIP3    H237026   2.932   2.898   1.775 -0.4758  0.0023 -0.2498
 5131TIP3   OH237027   5.727   4.439   0.639 -0.0389  0.6841  0.5117
 5131TIP3    H137028   5.683   4.517   0.673 -1.1236 -0.6141  2.2370
 5131TIP3    H237029   5.693   4.367   0.692  1.1489 -0.9426 -0.8294
 5132TIP3   OH237030   0.636   1.201   8.651  0.1557 -0.2482 -0.1216
 5132TIP3    H137031   0.628   1.208   8.746  0.4168 -2.2027  0.0790
 5132TIP3    H237032   0.551   1.170   8.622  0.0911  0.3024 -0.5338
 5133TIP3   OH237033   6.272   1.773   8.125 -0.0717 -0.8807  0.2721
 5133TIP3    H137034   6.298   1.764   8.033 -1.1524  1.4364 -0.3356
 5133TIP3    H237035   6.179   1.751   8.126  0.0402 -1.3529  0.9257
 5134TIP3   OH237036   2.853   4.697   1.743 -0.4431  0.2186  0.0712
 5134TIP3    H137037   2.878   4.723   1.832 -2.3594  2.5435  0.0290
 5134TIP3    H237038   2.899   4.757   1.685 -1.0533  0.2905 -0.3525
 5135TIP3   OH237039   6.257   3.481   0.219 -0.1497  0.0410  0.0525
 5135TIP3    H137040   6.275   3.489   0.313  2.2064 -1.6161 -0.1596
 5135TIP3    H237041   6.261   3.571   0.186  0.7821  0.4876  1.2766
 5136TIP3   OH237042   5.551   4.087   1.763  0.1704  0.1659 -0.8870
 5136TIP3    H137043   5.589   4.062   1.678  1.3171 -1.8878  0.1669
 5136TIP3    H237044   5.626   4.090   1.822 -0.9040 -0.7418  0.5672
 5137TIP3   OH237045   0.401   5.558   0.511 -0.3740  0.5344  0.0202
 5137TIP3    H137046   0.319   5.517   0.540  0.0290  0.1162  0.6027
 5137TIP3    H237047   0.403   5.642   0.556  0.0840  0.0315  0.9754
 5138TIP3   OH237048   5.974   3.113   2.359 -0.4398 -0.5328 -0.2538
 5138TIP3    H137049   5.934   3.195   2.330  0.0444 -0.2647 -0.1683
 5138TIP3    H237050   6.053   3.139   2.406 -2.0933 -0.8454  2.9598
 5139TIP3   OH237051   6.153   4.269   8.157  0.1268  0.1874  0.1111
 5139TIP3    H137052   6.133   4.193   8.211 -1.4048 -0.2955 -1.0662
 5139TIP3    H237053   6.080   4.330   8.172  0.7563  0.9441  0.1818
 5140TIP3   OH237054   1.812   3.938   8.573 -0.6968 -0.1593 -0.4134
 5140TIP3    H137055   1.727   3.934   8.528 -0.6777 -1.3662 -0.3935
 5140TIP3    H237056   1.841   4.029   8.563 -1.9041  0.2206 -0.5765
 5141TIP3   OH237057   5.515   4.511   7.828 -0.2355  0.5630 -0.6186
 5141TIP3    H137058   5.443   4.498   7.766 -0.1452 -1.1739 -0.4150
 5141TIP3    H237059   5.593   4.518   7.774 -0.2222 -0.4292 -0.7497
 5142TIP3   OH237060   3.879   0.352   8.737 -0.4921 -0.2122  0.3333
 5142TIP3    H137061   3.830   0.421   8.781  1.0874  0.3918  1.2041
 5142TIP3    H237062   3.970   0.366   8.763  0.2799 -0.8619 -1.8044
 5143TIP3   OH237063   3.037   4.424   2.048 -0.7398  0.7400 -0.2882
 5143TIP3    H137064   3.053   4.516   2.025  0.8454  0.2280 -1.4417
 5143TIP3    H237065   3.025   4.380   1.964 -1.8338 -0.0781  0.2708
 5144TIP3   OH237066   3.146   5.779   3.206  0.2512  0.1391 -0.4473
 5144TIP3    H137067   3.189   5.822   3.279  1.6509 -1.9236  0.0329
 5144TIP3    H237068   3.053   5.802   3.215  0.8732  2.7267 -0.1026
 5145TIP3   OH237069   1.346   2.655   0.058 -0.6714  0.0854  0.0935
 5145TIP3    H137070   1.342   2.654  -0.037  0.4809  0.2593  0.0288
 5145TIP3    H237071   1.376   2.567   0.082  0.8092  0.5881  0.1763
 5146TIP3   OH237072   6.677   4.564   7.641 -0.2617  0.3821  0.0264
 5146TIP3    H137073   6.658   4.639   7.584  0.0826  0.9934  0.7054
 5146TIP3    H237074   6.693   4.492   7.580  0.4996  1.1158 -0.6818
 5147TIP3   OH237075   0.667   3.132   0.292  0.0824  0.0392 -0.7159
 5147TIP3    H137076   0.739   3.099   0.346  1.5333  1.0816 -1.9452
 5147TIP3    H237077   0.683   3.096   0.205 -2.4895 -2.0072 -0.4599
 5148TIP3   OH237078   3.228   2.222   1.089 -0.0557 -0.2960  0.5935
 5148TIP3    H137079   3.227   2.159   1.161  0.6180 -0.8221  0.1590
 5148TIP3    H237080   3.136   2.236   1.068 -0.2162 -1.0847  0.7446
 5149TIP3   OH237081   0.290   5.722   1.384  0.2963  0.2156 -0.6481
 5149TIP3    H137082   0.314   5.813   1.401  1.5067 -0.2793  0.4570
 5149TIP3    H237083   0.374   5.676   1.375 -0.2383 -1.1246  0.7248
 5150TIP3   OH237084   1.205   2.786   3.633 -0.4189  0.4783 -0.2665
 5150TIP3    H137085   1.239   2.698   3.652 -0.5510  0.1665 -1.3901
 5150TIP3    H237086   1.283   2.840   3.621 -0.3065  0.0508 -1.5690
 5151TIP3   OH237087   1.203   4.353   1.394  0.0330  0.2083 -0.8120
 5151TIP3    H137088   1.232   4.325   1.482 -1.5816 -1.3029 -0.6956
 5151TIP3    H237089   1.117   4.393   1.409 -0.4377 -0.4263 -1.7204
 5152TIP3   OH237090   1.717   5.784   2.352 -0.3479 -0.0948  0.1695
 5152TIP3    H137091   1.718   5.826   2.266 -2.7735 -1.0431 -0.4077
 5152TIP3    H237092   1.700   5.856   2.414  0.7875  0.4929 -0.1694
 5153TIP3   OH237093   5.966   2.177   3.796  0.3055 -0.3266 -0.3514
 5153TIP3    H137094   5.901   2.242   3.771  0.1066 -0.4295 -0.1107
 5153TIP3    H237095   6.047   2.205   3.753  0.1908  0.0127 -0.3463
 5154TIP3   OH237096   3.614   0.374   2.928 -0.2672 -0.3104  0.1786
 5154TIP3    H137097   3.621   0.387   3.022 -1.4211 -0.8074  0.3592
 5154TIP3    H237098   3.629   0.280   2.915  1.9668  0.0797 -0.3960
 5155TIP3   OH237099   1.471   4.230   1.190  0.0414 -0.0368  0.0275
 5155TIP3    H137100   1.414   4.153   1.200 -0.7584  0.6774  1.1695
 5155TIP3    H237101   1.553   4.204   1.230 -0.0385 -0.4784 -0.0800
 5156TIP3   OH237102   5.192   2.320   0.820 -0.0343  0.1404 -0.0257
 5156TIP3    H137103   5.201   2.298   0.913  0.8968 -0.2884 -0.2015
 5156TIP3    H237104   5.107   2.284   0.795  0.1128 -0.5601  0.4387
 5157TIP3   OH237105   4.242   5.435   1.191 -0.1882 -0.2025 -0.7883
 5157TIP3    H137106   4.172   5.409   1.251 -0.1060  2.0080  0.3541
 5157TIP3    H237107   4.322   5.399   1.228  0.3676  3.6307  2.3959
 5158TIP3   OH237108   2.433   5.427   8.125  0.0146  0.2668  0.2424
 5158TIP3    H137109   2.517   5.471   8.110  1.3154 -1.0765  2.8623
 5158TIP3    H237110   2.371   5.499   8.140  1.2974  1.3011  0.8463
 5159TIP3   OH237111   2.734   3.343   0.352 -0.3023 -0.0778 -0.1028
 5159TIP3    H137112   2.820   3.353   0.394 -1.1031 -0.8593  1.8288
 5159TIP3    H237113   2.754   3.336   0.258  1.8707 -1.5948  0.3918
 5160TIP3   OH237114   2.501   0.964   0.912  0.8850 -0.0126  0.2393
 5160TIP3    H137115   2.410   0.946   0.936 -0.9609  2.2619 -3.9986
 5160TIP3    H237116   2.518   1.051   0.947  0.1947  0.9238 -1.6557
 5161TIP3   OH237117   2.055   4.053   0.568  0.4153 -0.3167  0.4063
 5161TIP3    H137118   2.056   4.111   0.644 -1.9560  0.1264  0.1592
 5161TIP3    H237119   1.964   4.053   0.539  1.5625  1.5139 -3.9653
 5162TIP3   OH237120   5.349   4.361   7.354  0.1523  0.0470 -0.2425
 5162TIP3    H137121   5.361   4.266   7.351 -0.8506 -0.2484  2.3834
 5162TIP3    H237122   5.257   4.374   7.331  0.1353  0.3194 -0.0162
 5163TIP3   OH237123   4.235   3.075   1.590  0.2317 -0.3270 -0.5829
 5163TIP3    H137124   4.321   3.093   1.627 -1.2799  2.3921  1.9371
 5163TIP3    H237125   4.208   2.992   1.631  1.0584 -0.4879 -0.3474
 5164TIP3   OH237126   3.414   3.967   1.374  0.1011  0.2293 -0.4197
 5164TIP3    H137127   3.467   4.004   1.445  0.6447  2.4545 -1.8623
 5164TIP3    H237128   3.458   3.885   1.352  0.6980  0.1610  0.9163
 5165TIP3   OH237129   4.159   4.789   8.646  0.1768  0.7795  0.7174
 5165TIP3    H137130   4.225   4.858   8.643  0.1559  0.8447  1.3995
 5165TIP3    H237131   4.089   4.819   8.588 -0.6477  2.2333  2.3341
 5166TIP3   OH237132   4.800   0.250   2.518  0.3290  1.0734 -0.6616
 5166TIP3    H137133   4.871   0.269   2.579  1.6097 -0.7251 -1.5146
 5166TIP3    H237134   4.838   0.267   2.431  0.1676 -1.1256 -1.2035
 5167TIP3   OH237135   4.659   1.468   8.830 -0.0365  0.0929  0.0195
 5167TIP3    H137136   4.746   1.457   8.869  0.3310 -1.0990 -1.0544
 5167TIP3    H237137   4.675   1.465   8.736 -1.1761  0.5743 -0.2087
 5168TIP3   OH237138   6.419   0.980   2.448 -0.2446 -0.4318  0.0879
 5168TIP3    H137139   6.336   0.945   2.481 -0.8392 -0.8236 -1.6958
 5168TIP3    H237140   6.448   0.915   2.384  1.3677 -0.1949  0.5285
 5169TIP3   OH237141   2.081   3.420   0.348 -0.5334  0.4771 -0.3662
 5169TIP3    H137142   2.081   3.515   0.332 -0.4355  0.5248 -0.0793
 5169TIP3    H237143   2.162   3.389   0.308  0.1155  0.7147  0.7337
 5170TIP3   OH237144   1.607   6.650   7.536  0.9389 -0.3519  0.3884
 5170TIP3    H137145   1.660   6.720   7.497  0.8480 -0.8868 -0.7184
 5170TIP3    H237146   1.632   6.651   7.629 -0.6704  2.6210  0.9355
 5171TIP3   OH237147   3.275   4.676   2.785  0.3359  0.2619 -0.4027
 5171TIP3    H137148   3.258   4.582   2.788  0.6373  0.1338 -2.0178
 5171TIP3    H237149   3.339   4.691   2.854  1.1650 -0.9221 -0.8843
 5172TIP3   OH237150   3.619   6.556   1.710  0.4280 -0.3978  0.3153
 5172TIP3    H137151   3.558   6.590   1.645  2.1115  0.2844 -1.0042
 5172TIP3    H237152   3.564   6.511   1.773 -1.2917 -1.6075 -1.8785
 5173TIP3   OH237153   6.666   2.842   3.136 -0.3588  0.1762  0.0471
 5173TIP3    H137154   6.649   2.929   3.172 -0.0732  0.0114  0.5833
 5173TIP3    H237155   6.594   2.828   3.074 -0.2663  0.8962 -0.2338
 5174TIP3   OH237156   3.416   6.402   0.297  0.4607 -0.0445 -0.9775
 5174TIP3    H137157   3.462   6.374   0.376 -0.0825  3.9747  0.9868
 5174TIP3    H237158   3.483   6.397   0.228  1.6341 -1.3664  0.1930
 5175TIP3   OH237159   3.114   0.038   0.439 -0.1154 -0.1365 -0.4998
 5175TIP3    H137160   3.043   0.093   0.406 -2.0360 -3.2259 -2.0195
 5175TIP3    H237161   3.158   0.006   0.360  2.7400  1.2821  0.4105
 5176TIP3   OH237162   0.615   2.021   8.889 -0.4285  0.2377 -0.1149
 5176TIP3    H137163   0.533   1.997   8.932  0.3429 -1.8596  0.2981
 5176TIP3    H237164   0.591   2.093   8.831 -3.1019 -1.7534 -1.7213
 5177TIP3   OH237165   2.914   5.194   2.490 -0.0114  0.0743  0.2689
 5177TIP3    H137166   3.001   5.164   2.463  0.0277  0.0926  0.3705
 5177TIP3    H237167   2.853   5.137   2.444  0.0228  0.8266 -0.7419
 5178TIP3   OH237168   0.630   3.138   2.470 -0.4115  0.3534 -0.5786
 5178TIP3    H137169   0.603   3.228   2.488  0.7538  0.6379 -0.1913
 5178TIP3    H237170   0.652   3.138   2.377 -1.5349  0.1526 -0.8682
 5179TIP3   OH237171   3.428   2.971   7.280  0.0925  0.6903 -0.4154
 5179TIP3    H137172   3.392   2.888   7.248  1.1735  0.4428 -1.0238
 5179TIP3    H237173   3.451   2.952   7.371 -3.0847  1.4303  0.6851
 5180TIP3   OH237174   2.291   1.989   7.398  0.9175 -0.0868 -0.1932
 5180TIP3    H137175   2.354   2.036   7.453 -0.2281  1.1618  0.1217
 5180TIP3    H237176   2.313   1.897   7.410  2.6118  0.3060 -0.0343
 5181TIP3   OH237177   4.777   4.957   1.458 -0.3566 -0.3665 -0.2597
 5181TIP3    H137178   4.828   4.940   1.379  1.3159  0.7246  0.5064
 5181TIP3    H237179   4.843   4.985   1.522 -2.1291  3.0273  0.2639
 5182TIP3   OH237180   5.900   4.086   0.187 -0.6136 -0.0607 -0.3057
 5182TIP3    H137181   5.906   4.179   0.168 -0.5422 -0.0346 -0.1570
 5182TIP3    H237182   5.807   4.067   0.182 -0.5168 -0.2795 -1.7333
 5183TIP3   OH237183   2.168   6.125   0.089 -0.6921  0.1377  0.2237
 5183TIP3    H137184   2.117   6.045   0.100 -2.9716  1.4027 -0.4232
 5183TIP3    H237185   2.114   6.194   0.129  0.1029  1.6991 -1.2492
 5184TIP3   OH237186   3.744   4.939   2.253 -0.5335  0.1073  0.1218
 5184TIP3    H137187   3.717   5.024   2.218 -2.9140 -1.1297 -1.3029
 5184TIP3    H237188   3.815   4.911   2.195 -1.3883  0.0823 -0.9443
 5185TIP3   OH237189   4.507   6.532   1.142  0.4132  0.1067 -0.0151
 5185TIP3    H137190   4.450   6.480   1.085  2.7714 -2.5949 -0.1747
 5185TIP3    H237191   4.518   6.615   1.096 -2.2386  0.2191 -0.5981
 5186TIP3   OH237192   0.868   1.791   8.481  0.3407 -0.4345  0.4714
 5186TIP3    H137193   0.863   1.871   8.430  0.1802 -0.7141  0.0475
 5186TIP3    H237194   0.820   1.811   8.561 -0.3153 -0.3382  0.0564
 5187TIP3   OH237195   5.023   4.357   0.920 -0.0038  0.4251 -0.4480
 5187TIP3    H137196   5.030   4.369   1.015 -1.0566  0.3807 -0.3517
 5187TIP3    H237197   4.943   4.307   0.908  1.4155 -1.8266 -1.2069
 5188TIP3   OH237198   3.431   5.339   1.543 -0.0779  0.3319  0.7688
 5188TIP3    H137199   3.397   5.381   1.464 -0.2203  0.0178  0.6633
 5188TIP3    H237200   3.416   5.246   1.529  1.5913  0.0910  0.3280
 5189TIP3   OH237201   5.318   0.067   2.290  0.1342 -0.2319  0.6790
 5189TIP3    H137202   5.294  -0.022   2.263  0.3525 -0.9296  2.5857
 5189TIP3    H237203   5.276   0.124   2.226  0.6444 -1.7261 -1.0621
 5190TIP3   OH237204   0.459   2.938   8.531  0.3247  0.1556 -0.5030
 5190TIP3    H137205   0.439   2.849   8.503 -0.1119  0.6483 -1.8217
 5190TIP3    H237206   0.406   2.951   8.610 -2.3859  0.3807 -2.2196
 5191TIP3   OH237207   2.858   5.210   1.457 -0.2073 -0.0360 -0.2629
 5191TIP3    H137208   2.851   5.131   1.403  0.6566 -0.4662  0.2272
 5191TIP3    H237209   2.805   5.191   1.534 -0.7120  0.2187 -0.5439
 5192TIP3   OH237210   2.517   0.519   8.757 -0.3691  0.5413  0.1832
 5192TIP3    H137211   2.591   0.546   8.703  0.8215  1.3906  2.1238
 5192TIP3    H237212   2.441   0.562   8.718  0.4788  1.2940 -0.6746
 5193TIP3   OH237213   2.140   5.537   8.713  0.6873 -0.5813 -0.1792
 5193TIP3    H137214   2.110   5.624   8.685 -0.6019 -0.2831  1.9111
 5193TIP3    H237215   2.235   5.545   8.716  0.5678  1.0216  0.6609
 5194TIP3   OH237216   0.136   3.320   3.218  0.1444 -0.2860  0.2473
 5194TIP3    H137217   0.172   3.234   3.237 -2.1634 -1.7088 -1.2478
 5194TIP3    H237218   0.211   3.372   3.190  1.5364 -1.9562  0.7115
 5195TIP3   OH237219   3.868   0.907   1.210  0.3576  0.1391 -0.5039
 5195TIP3    H137220   3.792   0.849   1.219  0.9102 -0.5979 -0.4103
 5195TIP3    H237221   3.907   0.881   1.126  0.1040  1.0198 -0.9115
 5196TIP3   OH237222   2.658   0.392   0.566 -0.2615  0.2282  0.0730
 5196TIP3    H137223   2.610   0.370   0.646 -0.6980 -1.5556 -0.6344
 5196TIP3    H237224   2.599   0.450   0.518 -0.6116  0.1289  0.3804
 5197TIP3   OH237225   2.189   0.866   2.523 -0.6588 -0.0569  0.2586
 5197TIP3    H137226   2.176   0.960   2.510 -0.9043 -0.1301 -0.0383
 5197TIP3    H237227   2.276   0.859   2.561 -0.3427  0.2484 -0.3898
 5198TIP3   OH237228   4.500   3.950   1.685  0.2979  0.2764 -0.4975
 5198TIP3    H137229   4.500   3.877   1.747 -0.4032  0.5063 -0.2044
 5198TIP3    H237230   4.481   3.910   1.600  0.7816  0.0165 -0.4830
 5199TIP3   OH237231   4.669   3.686   0.309  0.5082 -0.6161  0.0124
 5199TIP3    H137232   4.649   3.767   0.356 -0.0003 -0.1920 -0.9167
 5199TIP3    H237233   4.602   3.680   0.241  1.9581 -0.5513 -1.4807
 5200TIP3   OH237234   3.811   3.505   7.907 -0.2299  0.2700 -0.6128
 5200TIP3    H137235   3.826   3.414   7.881  0.2897  0.6037 -1.5304
 5200TIP3    H237236   3.745   3.500   7.976 -0.5554 -0.7707 -0.9862
 5201TIP3   OH237237   5.952   3.043   2.976  0.3440 -0.1884  0.6918
 5201TIP3    H137238   5.985   3.041   2.886 -0.0793 -0.4448  0.5406
 5201TIP3    H237239   5.858   3.057   2.967  0.1049 -1.4483  1.0441
 5202TIP3   OH237240   4.350   0.515   3.608 -0.1324  0.6238 -0.6375
 5202TIP3    H137241   4.319   0.480   3.692  1.6542  0.9616  0.2043
 5202TIP3    H237242   4.308   0.601   3.601  0.3327  0.9472  0.3348
 5203TIP3   OH237243   0.384   5.783   0.672 -0.0618  0.1488 -0.0956
 5203TIP3    H137244   0.433   5.852   0.626  0.3435 -0.4603 -0.5987
 5203TIP3    H237245   0.372   5.817   0.760  2.3414 -0.1633  0.4182
 5204TIP3   OH237246   2.275   2.587   1.387 -0.5118 -0.3433 -0.0032
 5204TIP3    H137247   2.221   2.665   1.392  0.0107  0.0017  0.4902
 5204TIP3    H237248   2.259   2.541   1.469  0.5511  0.1911  0.5328
 5205TIP3   OH237249   6.733   1.338   1.134 -0.4226  0.1403 -0.5611
 5205TIP3    H137250   6.753   1.282   1.209 -0.5076  0.5603 -0.2215
 5205TIP3    H237251   6.757   1.286   1.057  0.8132  0.1665 -0.2012
 5206TIP3   OH237252   5.269   3.762   0.074 -0.1573  0.6605  0.0822
 5206TIP3    H137253   5.336   3.828   0.055  0.2361  0.7855  1.7710
 5206TIP3    H237254   5.206   3.806   0.130 -2.2483  0.8271 -2.1953
 5207TIP3   OH237255   0.170   3.164   8.568 -0.4867 -0.0625  0.2593
 5207TIP3    H137256   0.098   3.188   8.510 -0.7822  0.3030  0.7688
 5207TIP3    H237257   0.168   3.068   8.570 -1.1971 -0.0501  0.5536
 5208TIP3   OH237258   3.737   3.089   2.173  0.0257 -0.3880  0.0651
 5208TIP3    H137259   3.831   3.074   2.189 -0.3780 -2.8795  0.4253
 5208TIP3    H237260   3.734   3.118   2.082  1.2219  1.1716  0.4560
 5209TIP3   OH237261   0.708   5.149   7.962 -0.1070  0.2700  0.2328
 5209TIP3    H137262   0.702   5.181   8.052  0.3013  2.2550 -0.3994
 5209TIP3    H237263   0.691   5.226   7.908  2.6433 -0.1534 -1.4121
 5210TIP3   OH237264   2.632   2.887   1.905 -0.0713  0.0470 -0.4114
 5210TIP3    H137265   2.665   2.955   1.965  0.4563 -1.4044  1.0209
 5210TIP3    H237266   2.651   2.921   1.818  0.9022  1.3852  0.2753
 5211TIP3   OH237267   6.594   5.097   2.124 -0.1371 -0.8639 -0.1911
 5211TIP3    H137268   6.562   5.078   2.212 -0.3149 -0.8329 -0.2481
 5211TIP3    H237269   6.516   5.127   2.076  0.2676  0.7129  0.0874
 5212TIP3   OH237270   5.974   5.796   2.638  0.6876 -0.3786 -0.1718
 5212TIP3    H137271   5.904   5.844   2.682 -0.6072 -2.9200  0.7424
 5212TIP3    H237272   5.929   5.729   2.586  2.3611 -0.0130 -2.2404
 5213TIP3   OH237273   5.866   1.639   1.400 -0.3386  0.1905  0.0716
 5213TIP3    H137274   5.877   1.552   1.438  4.0857  0.8329  0.7665
 5213TIP3    H237275   5.823   1.690   1.468  0.8583 -0.4745  1.3575
 5214TIP3   OH237276   0.925   1.238   0.697  0.2335  0.9659  0.5059
 5214TIP3    H137277   0.902   1.206   0.785 -1.1915 -2.1616 -0.8283
 5214TIP3    H237278   0.861   1.307   0.679  0.4451  1.5404  1.8163
 5215TIP3   OH237279   0.473   3.432   1.879  0.4697  0.0689  0.1372
 5215TIP3    H137280   0.471   3.501   1.945 -1.0824  0.2087 -0.0252
 5215TIP3    H237281   0.542   3.459   1.819  1.3525  0.3558  1.2357
 5216TIP3   OH237282   4.098   2.120   2.269  0.2440  0.1222  0.1955
 5216TIP3    H137283   4.031   2.099   2.204 -0.4730  1.1212  0.5948
 5216TIP3    H237284   4.181   2.109   2.222 -0.2098 -0.4148 -0.5113
 5217TIP3   OH237285   5.879   1.333   1.419 -0.2961  0.3987 -0.1702
 5217TIP3    H137286   5.968   1.339   1.454 -0.0146  1.3994 -0.9815
 5217TIP3    H237287   5.833   1.276   1.480  1.6578 -2.6179 -1.3193
 5218TIP3   OH237288   2.077   2.052   2.290  0.2990 -0.0993 -0.1505
 5218TIP3    H137289   1.989   2.045   2.254  1.1247  1.5980 -2.8105
 5218TIP3    H237290   2.064   2.079   2.381 -1.9159  0.6175 -0.6174
 5219TIP3   OH237291   1.567   2.285   8.612  0.1934 -0.6664 -0.5810
 5219TIP3    H137292   1.598   2.362   8.565 -1.1220  0.6942  0.6854
 5219TIP3    H237293   1.645   2.250   8.656  1.1446 -1.1259 -2.5290
 5220TIP3   OH237294   4.408   5.882   1.184 -0.3512  0.5045 -0.5907
 5220TIP3    H137295   4.455   5.938   1.246  0.4394 -0.1112 -0.6271
 5220TIP3    H237296   4.433   5.915   1.098  2.9765 -2.0341 -0.7745
 5221TIP3   OH237297   5.435   2.184   2.769  0.0722 -0.1574  0.8353
 5221TIP3    H137298   5.378   2.201   2.844 -0.9013 -0.0877  0.1043
 5221TIP3    H237299   5.491   2.111   2.797 -0.5646 -0.4122  1.4721
 5222TIP3   OH237300   3.225   6.419   3.352 -0.4934 -0.0386  0.1802
 5222TIP3    H137301   3.239   6.331   3.317 -2.5797 -0.3489 -0.0522
 5222TIP3    H237302   3.130   6.430   3.351 -0.3663  1.7155  1.4671
 5223TIP3   OH237303   2.049   6.571   0.365  0.4189  0.0721  0.1686
 5223TIP3    H137304   1.977   6.534   0.414  1.8346 -2.1884  0.6910
 5223TIP3    H237305   2.026   6.557   0.273 -0.5386  0.9422  0.2554
 5224TIP3   OH237306   2.759   3.289   8.797 -0.4263 -0.0520  0.4138
 5224TIP3    H137307   2.745   3.366   8.741 -1.7386  0.3024  1.1785
 5224TIP3    H237308   2.694   3.225   8.766 -0.9852  0.0525  1.3353
 5225TIP3   OH237309   2.432   2.437   7.945 -0.3521  0.2885 -0.2698
 5225TIP3    H137310   2.415   2.433   7.851  2.4148  2.2580 -0.9646
 5225TIP3    H237311   2.378   2.510   7.976  0.4006  1.0797 -0.7881
 5226TIP3   OH237312   3.086   3.078   8.103  0.0260 -0.0150 -0.3476
 5226TIP3    H137313   3.072   3.025   8.025 -1.2999 -1.3537  0.7155
 5226TIP3    H237314   3.007   3.132   8.110  1.3142  2.1246 -1.3578
 5227TIP3   OH237315   1.391   2.540   8.082  0.3898  0.2470  0.1228
 5227TIP3    H137316   1.304   2.544   8.121  0.4916 -0.3230  0.4141
 5227TIP3    H237317   1.376   2.517   7.991  0.3249 -1.9861  0.6362
 5228TIP3   OH237318   6.289   5.926   0.305  0.0510 -0.1083  0.0414
 5228TIP3    H137319   6.214   5.977   0.337 -0.0913 -0.9715  1.1423
 5228TIP3    H237320   6.249   5.858   0.250  0.0370 -0.4433  0.4618
 5229TIP3   OH237321   2.601   1.819   1.782 -0.0947  0.3471 -0.2962
 5229TIP3    H137322   2.525   1.768   1.809  0.3127 -0.8756 -1.3677
 5229TIP3    H237323   2.564   1.895   1.738 -0.7017  0.7293  0.8141
 5230TIP3   OH237324   4.837   3.330   0.198  0.5511 -0.7474 -0.1571
 5230TIP3    H137325   4.870   3.249   0.236  0.1759 -0.7795  0.1094
 5230TIP3    H237326   4.910   3.364   0.147  0.3969 -1.7682 -1.1036
 5231TIP3   OH237327   3.834   1.420   1.654  0.7465  0.4867  0.2806
 5231TIP3    H137328   3.809   1.508   1.628 -0.8403 -0.5289 -2.0394
 5231TIP3    H237329   3.882   1.386   1.578 -0.1277 -1.1697  0.4131
 5232TIP3   OH237330   3.129   1.069   3.688  0.6513 -0.2566 -0.1465
 5232TIP3    H137331   3.177   1.032   3.762 -0.3466 -1.4798 -0.0863
 5232TIP3    H237332   3.084   0.995   3.648 -2.2653  0.9740  0.6013
 5233TIP3   OH237333   3.092   4.824   1.328  0.1368  0.3652  0.2018
 5233TIP3    H137334   3.116   4.733   1.308 -1.5809 -0.0133 -0.2900
 5233TIP3    H237335   3.063   4.822   1.419  0.6732  0.5586  0.3822
 5234TIP3   OH237336   6.526   0.445   1.698 -0.1501 -0.3026  0.2167
 5234TIP3    H137337   6.609   0.399   1.707 -0.1093 -0.5780 -1.2873
 5234TIP3    H237338   6.518   0.497   1.778  0.8183 -1.2956  0.9830
 5235TIP3   OH237339   4.122   4.325   7.571  0.1143 -0.5292 -0.0425
 5235TIP3    H137340   4.098   4.274   7.494  1.7538  0.4985 -1.3157
 5235TIP3    H237341   4.039   4.343   7.615 -0.6601 -2.8385 -0.4367
 5236TIP3   OH237342   3.156   4.296   0.763  0.1226  0.7447 -0.5954
 5236TIP3    H137343   3.160   4.214   0.713 -0.7107  0.3949 -0.1012
 5236TIP3    H237344   3.247   4.311   0.789  0.1415 -0.6126  0.2293
 5237TIP3   OH237345   3.044   5.163   7.554 -0.2531 -0.5433 -0.4195
 5237TIP3    H137346   3.129   5.176   7.513  0.4569  0.8168  1.3553
 5237TIP3    H237347   2.986   5.227   7.512  0.7718  1.7277  1.3839
 5238TIP3   OH237348   2.779   2.896   7.247  0.0703  0.0123  0.1929
 5238TIP3    H137349   2.725   2.828   7.208  1.6494 -1.2899  0.1735
 5238TIP3    H237350   2.722   2.938   7.311 -1.4180 -0.2520 -0.9032
 5239TIP3   OH237351   5.302   5.853   0.684  0.1936  0.3428  0.3518
 5239TIP3    H137352   5.233   5.898   0.636  1.4688  1.0277 -0.9026
 5239TIP3    H237353   5.341   5.920   0.740 -0.5479 -0.1912  1.5460
 5240TIP3   OH237354   2.422   6.226   7.256 -0.1167 -0.2653  0.4217
 5240TIP3    H137355   2.452   6.315   7.277  0.1428 -0.3895  0.5877
 5240TIP3    H237356   2.362   6.237   7.183  0.2512  0.0002  0.1601
 5241TIP3   OH237357   6.647   5.753   7.979 -0.1733 -0.0547 -0.7570
 5241TIP3    H137358   6.699   5.782   7.905  0.4970 -2.7292 -1.4205
 5241TIP3    H237359   6.571   5.709   7.941 -1.2179  0.8567  0.1849
 5242TIP3   OH237360   1.286   3.116   8.367 -0.4991  0.3728  0.1543
 5242TIP3    H137361   1.360   3.154   8.320 -0.0410  0.6826  1.1245
 5242TIP3    H237362   1.232   3.077   8.298 -0.0098  1.1147 -0.6689
 5243TIP3   OH237363   3.604   1.158   0.643  0.1271  0.5249  0.0989
 5243TIP3    H137364   3.681   1.200   0.680 -0.8550  2.2936  0.2547
 5243TIP3    H237365   3.566   1.225   0.585 -1.4992 -0.1440  0.3366
 5244TIP3   OH237366   5.685   2.453   8.876  0.0659 -0.2409  0.0767
 5244TIP3    H137367   5.760   2.396   8.890 -2.0281 -2.7979  1.7883
 5244TIP3    H237368   5.617   2.395   8.841 -0.8400  2.2205 -2.7145
 5245TIP3   OH237369   0.828   2.439   1.110 -0.1295  0.5541 -0.0425
 5245TIP3    H137370   0.763   2.484   1.057  0.8194  1.1470 -0.7188
 5245TIP3    H237371   0.912   2.473   1.080  0.6064 -1.3690 -0.3057
 5246TIP3   OH237372   6.410   4.207   0.595 -0.2004 -0.2010 -0.1424
 5246TIP3    H137373   6.451   4.223   0.680  0.1997 -1.1528 -0.1441
 5246TIP3    H237374   6.321   4.179   0.617 -0.1095 -0.4089 -0.0358
 5247TIP3   OH237375   5.446   1.539   0.936  0.6285  0.3183  0.3049
 5247TIP3    H137376   5.455   1.455   0.892 -0.6259 -0.0906  0.8026
 5247TIP3    H237377   5.439   1.603   0.865  0.8792 -0.0745 -0.0753
 5248TIP3   OH237378   1.153   6.328   8.432  0.1194 -0.0203  0.0761
 5248TIP3    H137379   1.128   6.394   8.497  0.5748  0.3187 -0.0868
 5248TIP3    H237380   1.247   6.319   8.442  0.2259  0.1975 -0.6855
 5249TIP3   OH237381   2.912   6.134   0.385 -0.1104  0.3263  0.0402
 5249TIP3    H137382   2.960   6.210   0.418 -1.6973  2.2510 -1.7703
 5249TIP3    H237383   2.852   6.110   0.455  0.4611  0.6905  0.6598
 5250TIP3   OH237384   3.796   6.744   1.286 -0.4195  0.4884 -0.0043
 5250TIP3    H137385   3.806   6.661   1.333 -0.7169 -0.2692 -1.2452
 5250TIP3    H237386   3.707   6.742   1.251 -0.0350  0.7983 -1.0337
 5251TIP3   OH237387   5.389   5.750   8.725 -0.7296  0.5580  1.0691
 5251TIP3    H137388   5.407   5.831   8.676  1.6491 -0.3285  0.3489
 5251TIP3    H237389   5.386   5.778   8.816 -0.8213  1.5920  0.7669
 5252TIP3   OH237390   4.177   6.622   1.326  0.3765  0.4867  0.3917
 5252TIP3    H137391   4.234   6.692   1.293 -0.3433  0.3097 -1.2886
 5252TIP3    H237392   4.146   6.655   1.411 -0.7333  2.7080 -0.7851
 5253TIP3   OH237393   0.830   3.298   0.973  0.1685 -0.5134  0.5010
 5253TIP3    H137394   0.819   3.278   0.880 -1.1750  0.4120  0.4321
 5253TIP3    H237395   0.913   3.256   0.997 -0.3449 -2.3330 -0.6605
 5254TIP3   OH237396   6.705   2.340   0.301 -0.1211  0.0951 -0.6309
 5254TIP3    H137397   6.692   2.432   0.325  1.9703  0.4991 -0.8876
 5254TIP3    H237398   6.649   2.292   0.362 -0.0989  1.4653  0.5265
 5255TIP3   OH237399   5.601   2.861   1.323 -0.2421 -0.2559 -0.1784
 5255TIP3    H137400   5.612   2.775   1.363 -0.7443 -0.5883 -0.7214
 5255TIP3    H237401   5.616   2.923   1.394  0.6125 -0.7782  0.1063
 5256TIP3   OH237402   2.056   4.332   8.767 -0.3076  0.2203 -0.3249
 5256TIP3    H137403   2.035   4.287   8.849 -0.6275  2.0136  0.6304
 5256TIP3    H237404   2.099   4.265   8.714  0.7283 -0.7724  1.6376
 5257TIP3   OH237405   6.327   5.014   1.344 -0.6033 -0.0013  0.2342
 5257TIP3    H137406   6.395   5.009   1.277  1.5958  0.8530  2.2527
 5257TIP3    H237407   6.346   4.940   1.402 -1.1029  0.5212  1.0768
 5258TIP3   OH237408   5.438   2.785   7.237 -0.3218 -0.2470  0.3220
 5258TIP3    H137409   5.393   2.816   7.158  0.8284 -1.0887 -0.7085
 5258TIP3    H237410   5.482   2.705   7.209  1.9040  0.5914  1.2313
 5259TIP3   OH237411   6.714   4.832   1.879  1.2116 -0.1759 -0.1274
 5259TIP3    H137412   6.649   4.898   1.855  0.7492 -0.7896 -0.5924
 5259TIP3    H237413   6.694   4.810   1.970  0.0253 -1.1833 -0.6010
 5260TIP3   OH237414   4.801   6.364   1.288 -0.0643  0.3257  0.4587
 5260TIP3    H137415   4.807   6.458   1.307 -2.7631  0.1771  2.7652
 5260TIP3    H237416   4.709   6.342   1.305  0.4658 -2.7414 -0.0164
 5261TIP3   OH237417   5.425   5.811   8.286  0.0480 -1.1777  0.1825
 5261TIP3    H137418   5.480   5.749   8.239  0.2109 -1.0855  0.2513
 5261TIP3    H237419   5.375   5.855   8.218 -1.8317 -3.0269  0.2465
 5262TIP3   OH237420   4.851   1.750   2.540  0.1097 -0.3660 -0.4507
 5262TIP3    H137421   4.798   1.815   2.587  2.2254  0.6176  0.6961
 5262TIP3    H237422   4.860   1.786   2.452  0.3745  0.3600 -0.1322
 5263TIP3   OH237423   5.656   3.669   8.220 -0.4121 -0.4318  0.8583
 5263TIP3    H137424   5.661   3.590   8.166 -0.9168  0.1381 -0.0400
 5263TIP3    H237425   5.735   3.718   8.198 -1.2471  0.4183 -0.3830
 5264TIP3   OH237426   4.377   2.365   2.674  0.1025 -0.0132 -0.2298
 5264TIP3    H137427   4.416   2.363   2.761 -2.7184 -0.2900  1.1139
 5264TIP3    H237428   4.322   2.443   2.674 -0.5053 -0.4096 -1.5189
 5265TIP3   OH237429   0.686   3.543   2.391  0.0431 -0.2815 -0.8617
 5265TIP3    H137430   0.628   3.587   2.452  0.6871  0.9696 -1.1226
 5265TIP3    H237431   0.627   3.487   2.339 -0.5914 -0.8591  0.4213
 5266TIP3   OH237432   6.728   3.628   3.004  0.1910  0.4251  0.1430
 5266TIP3    H137433   6.749   3.713   3.043  0.5986 -0.6560  2.4751
 5266TIP3    H237434   6.721   3.568   3.079 -0.6647 -1.4965 -1.3658
 5267TIP3   OH237435   1.193   1.737   1.175 -0.7213  0.0687  0.5760
 5267TIP3    H137436   1.128   1.770   1.238  0.7608  1.0987  1.6335
 5267TIP3    H237437   1.195   1.804   1.106 -0.4671  0.2471  0.7588
 5268TIP3   OH237438   0.734   2.738   7.916  0.5494 -0.4463 -0.0835
 5268TIP3    H137439   0.639   2.733   7.917  0.5219 -0.2527  1.4241
 5268TIP3    H237440   0.763   2.652   7.947  0.9343 -1.0099 -1.9047
 5269TIP3   OH237441   1.896   1.902   0.355  0.3781 -0.5084 -0.5170
 5269TIP3    H137442   1.906   1.987   0.399  0.2995 -0.2582 -0.9818
 5269TIP3    H237443   1.985   1.869   0.348  0.3906 -0.5578 -0.1546
 5270TIP3   OH237444   1.485   5.057   0.962 -0.6066 -0.2499  0.2386
 5270TIP3    H137445   1.529   5.003   1.028  1.6775  1.4089  0.2076
 5270TIP3    H237446   1.512   5.019   0.879 -1.8551 -1.1327  0.2213
 5271TIP3   OH237447   4.855   3.004   8.088 -0.2002  0.1294  0.0914
 5271TIP3    H137448   4.880   3.036   8.001 -0.1742  1.8307  0.6886
 5271TIP3    H237449   4.874   3.077   8.147  1.2606 -1.5334  1.7791
 5272TIP3   OH237450   2.427   3.584   8.457  0.5842  0.1984 -0.1210
 5272TIP3    H137451   2.411   3.511   8.397  0.2455 -0.6375  0.9562
 5272TIP3    H237452   2.340   3.622   8.470  0.1227 -1.3978  2.0178
 5273TIP3   OH237453   6.282   4.696   8.121 -0.1104 -0.5006 -0.0472
 5273TIP3    H137454   6.338   4.657   8.054 -0.1020  1.5909 -1.3575
 5273TIP3    H237455   6.194   4.697   8.083 -0.0379  1.0703 -0.2437
 5274TIP3   OH237456   3.204   2.409   1.613 -0.1554 -0.0143 -0.1725
 5274TIP3    H137457   3.117   2.384   1.644 -0.4458  0.0486 -0.9277
 5274TIP3    H237458   3.247   2.444   1.691 -1.4181  1.6240 -0.1497
 5275TIP3   OH237459   2.373   3.573   2.721 -0.6180  0.1887 -0.2439
 5275TIP3    H137460   2.325   3.652   2.696  0.0428  0.3140 -1.1413
 5275TIP3    H237461   2.393   3.529   2.639  0.2898 -0.1558  0.1388
 5276TIP3   OH237462   2.617   3.237   8.333 -0.0937  0.0560  0.0913
 5276TIP3    H137463   2.535   3.260   8.290 -0.2869 -2.2847 -0.9107
 5276TIP3    H237464   2.608   3.144   8.354  2.7851 -0.6379 -1.2624
 5277TIP3   OH237465   5.303   6.152   8.459  0.4041  0.1658 -0.1352
 5277TIP3    H137466   5.370   6.218   8.476 -0.9396  1.3549  0.7336
 5277TIP3    H237467   5.304   6.139   8.365  2.9848 -1.0907 -0.0109
 5278TIP3   OH237468   3.197   0.105   2.469  0.2728  0.0695 -0.6078
 5278TIP3    H137469   3.215   0.140   2.382 -2.1203 -1.3285 -1.7803
 5278TIP3    H237470   3.220   0.012   2.462 -0.1106 -0.0946  0.1702
 5279TIP3   OH237471   4.278   2.530   0.049 -1.1842  0.4514 -0.2314
 5279TIP3    H137472   4.370   2.504   0.050 -0.2760  3.1145 -1.9897
 5279TIP3    H237473   4.230   2.449   0.033  0.7906 -1.0661  1.0758
 5280TIP3   OH237474   1.930   2.849   3.348 -0.2879  0.5206 -1.0068
 5280TIP3    H137475   1.918   2.934   3.389  0.2842 -0.2827  0.9225
 5280TIP3    H237476   2.020   2.850   3.315  0.0124  0.3567 -0.2019
 5281TIP3   OH237477   5.081   1.612   2.653  0.0699 -0.3082  0.8022
 5281TIP3    H137478   4.994   1.641   2.624  0.4189  1.0110  1.0136
 5281TIP3    H237479   5.063   1.545   2.719 -0.7909  0.0797  0.9762
 5282TIP3   OH237480   0.794   5.520   0.265 -0.2498  0.3155  0.4091
 5282TIP3    H137481   0.713   5.537   0.218  0.6942 -0.8904 -1.8198
 5282TIP3    H237482   0.801   5.425   0.267 -0.0541  0.3265  2.7644
 5283TIP3   OH237483   3.720   5.138   8.276 -0.5168 -0.7903 -0.7586
 5283TIP3    H137484   3.797   5.136   8.218 -1.1653 -1.5968 -1.6190
 5283TIP3    H237485   3.650   5.101   8.223 -2.3289  2.8065 -1.1569
 5284TIP3   OH237486   5.332   6.741   7.607  0.4421 -0.3314 -0.0971
 5284TIP3    H137487   5.371   6.825   7.583  0.9038 -0.6794 -0.5677
 5284TIP3    H237488   5.262   6.727   7.544  1.0660 -0.8116 -0.6910
 5285TIP3   OH237489   1.824   3.164   8.676 -0.2109  0.0448 -0.2989
 5285TIP3    H137490   1.814   3.173   8.581 -0.8046 -0.3875 -0.2816
 5285TIP3    H237491   1.828   3.069   8.690 -0.5630  0.0937  0.1506
 5286TIP3   OH237492   2.585   1.008   0.095  0.5271  0.3540  0.1282
 5286TIP3    H137493   2.581   1.041   0.005 -1.2105 -2.0705 -0.7781
 5286TIP3    H237494   2.494   0.999   0.121  0.9584 -1.1622  1.2520
 5287TIP3   OH237495   3.974   4.229   2.412 -0.4356 -0.4483  0.2020
 5287TIP3    H137496   3.887   4.265   2.430 -0.7740 -1.2695  0.2776
 5287TIP3    H237497   4.034   4.282   2.464 -1.1226 -1.2326  1.8492
 5288TIP3   OH237498   4.507   5.665   7.288  0.7666  0.0487 -0.4577
 5288TIP3    H137499   4.413   5.650   7.291  0.3331  2.2561 -0.9156
 5288TIP3    H237500   4.546   5.578   7.294 -1.1915 -0.7771  2.6633
 5289TIP3   OH237501   4.547   1.553   7.361  0.6009  0.0498 -0.3775
 5289TIP3    H137502   4.582   1.497   7.291 -1.0574  0.4745 -1.5889
 5289TIP3    H237503   4.459   1.519   7.378  0.3783  0.9589  0.3891
 5290TIP3   OH237504   5.681   6.596   0.046  0.5141 -0.6649 -0.6391
 5290TIP3    H137505   5.614   6.560  -0.012 -2.6696  1.1728  1.5568
 5290TIP3    H237506   5.661   6.557   0.132  0.7303  1.6627  0.5404
 5291TIP3   OH237507   1.823   3.242   0.101  0.1643  0.2992  0.0445
 5291TIP3    H137508   1.876   3.293   0.040 -0.5194  1.8703  0.7265
 5291TIP3    H237509   1.831   3.152   0.070 -0.0963  1.0325 -2.3211
 5292TIP3   OH237510   1.858   1.885   0.070 -0.3465 -0.4418 -0.2760
 5292TIP3    H137511   1.786   1.834   0.035  0.3497 -0.8196 -1.2000
 5292TIP3    H237512   1.846   1.882   0.165 -0.2962 -2.3934 -0.2841
 5293TIP3   OH237513   1.297   6.081   8.319  0.7252  0.2853 -0.7105
 5293TIP3    H137514   1.351   6.041   8.250  2.0829 -1.5231  1.2935
 5293TIP3    H237515   1.345   6.160   8.345  0.1538  1.0357 -1.8309
 5294TIP3   OH237516   2.836   0.414   2.007  0.2149  0.6224 -0.7483
 5294TIP3    H137517   2.893   0.366   2.067  0.5854  3.0565  0.9955
 5294TIP3    H237518   2.787   0.346   1.960  0.5472 -1.4281  1.6708
 5295TIP3   OH237519   1.635   5.241   7.802 -0.1052 -0.2163 -0.3590
 5295TIP3    H137520   1.562   5.225   7.742 -1.1754  0.7808  0.6372
 5295TIP3    H237521   1.608   5.316   7.854  0.4637 -1.4493  1.8575
 5296TIP3   OH237522   1.954   0.145   8.820  0.2342 -1.0466 -0.4965
 5296TIP3    H137523   1.898   0.173   8.892 -0.1085 -1.8876 -0.4288
 5296TIP3    H237524   1.945   0.213   8.754  0.7509 -0.1293  0.3505
 5297TIP3   OH237525   5.055   4.574   7.461  0.5859  0.1568 -0.3332
 5297TIP3    H137526   5.088   4.502   7.407  1.6006 -1.6015  2.4335
 5297TIP3    H237527   5.002   4.531   7.528  0.0596  2.1521  0.5965
 5298TIP3   OH237528   5.963   1.306   2.667 -0.1239 -0.6071  0.5539
 5298TIP3    H137529   6.005   1.248   2.730  2.0286  0.6496  0.3564
 5298TIP3    H237530   5.955   1.390   2.712  1.5741  0.3524 -0.8064
 5299TIP3   OH237531   6.078   5.191   1.875  0.0707  0.1200 -0.1752
 5299TIP3    H137532   6.127   5.256   1.824 -2.0222  1.7423 -0.2795
 5299TIP3    H237533   5.998   5.237   1.901  0.0176 -1.3613  2.6957
 5300TIP3   OH237534   4.957   0.549   7.686  0.2446  0.3501 -0.6139
 5300TIP3    H137535   4.875   0.501   7.674  0.2644  0.6032 -1.8916
 5300TIP3    H237536   4.957   0.615   7.616  0.5595  1.7375  0.6449
 5301TIP3   OH237537   0.936   2.049   0.248 -0.6616 -0.6235 -0.0672
 5301TIP3    H137538   0.997   2.111   0.288 -0.6193 -0.2385 -0.7134
 5301TIP3    H237539   0.955   1.966   0.291 -0.6429 -0.2219  0.7318
 5302TIP3   OH237540   2.374   4.725   7.642  0.0939 -0.0109 -0.1429
 5302TIP3    H137541   2.288   4.756   7.672  0.9398  1.3324  0.9932
 5302TIP3    H237542   2.360   4.633   7.620 -1.4919  0.0102  0.6439
 5303TIP3   OH237543   3.294   4.184   2.436  1.1159 -0.3278  0.3349
 5303TIP3    H137544   3.227   4.116   2.436  1.1825 -0.4201  1.8161
 5303TIP3    H237545   3.371   4.142   2.399  0.4345 -0.2481 -1.2958
 5304TIP3   OH237546   1.241   5.071   1.637 -0.4991 -0.4609  0.5424
 5304TIP3    H137547   1.157   5.026   1.650 -1.0259  0.4565  0.4595
 5304TIP3    H237548   1.290   5.054   1.717 -1.3772  0.2258  1.2551
 5305TIP3   OH237549   2.304   5.961   7.389 -0.4603  0.0782  0.4949
 5305TIP3    H137550   2.298   5.879   7.341 -1.8294  1.0773 -1.1659
 5305TIP3    H237551   2.217   6.000   7.381  0.1091  1.6299  1.3351
 5306TIP3   OH237552   3.365   1.571   1.642 -0.4217  0.2105 -0.1809
 5306TIP3    H137553   3.286   1.587   1.591  0.6768  2.4271 -1.3244
 5306TIP3    H237554   3.369   1.643   1.705  0.4537 -0.1236  0.1626
 5307TIP3   OH237555   6.203   5.889   2.508  0.1070  0.4629  0.4514
 5307TIP3    H137556   6.133   5.851   2.561  0.9846 -1.4852  0.2653
 5307TIP3    H237557   6.240   5.958   2.564  0.2362 -0.7435  1.9111
 5308TIP3   OH237558   0.275   3.634   8.384  0.1949  0.5668  0.0661
 5308TIP3    H137559   0.243   3.644   8.474  1.0396 -0.3807  0.5027
 5308TIP3    H237560   0.208   3.582   8.340 -0.8593  2.1361 -0.2510
 5309TIP3   OH237561   0.334   5.332   8.666 -0.2049 -0.2089  0.5453
 5309TIP3    H137562   0.270   5.265   8.690 -1.6716  0.3652 -1.5588
 5309TIP3    H237563   0.401   5.285   8.617 -0.9627 -0.2599 -0.4732
 5310TIP3   OH237564   4.730   3.662   8.365 -0.1085 -0.4213 -0.5140
 5310TIP3    H137565   4.664   3.593   8.372 -0.7366  0.0625 -1.4723
 5310TIP3    H237566   4.777   3.641   8.284  0.8335 -0.6863  0.0972
 5311TIP3   OH237567   2.480   0.301   2.744 -0.1873 -0.0404 -0.2048
 5311TIP3    H137568   2.418   0.342   2.685 -0.7210 -1.7015 -0.8590
 5311TIP3    H237569   2.566   0.319   2.706 -0.5393 -1.3575 -1.6939
 5312TIP3   OH237570   1.321   4.705   2.878 -0.2121  0.0382  0.0628
 5312TIP3    H137571   1.265   4.753   2.818  0.7405  1.0303 -0.0585
 5312TIP3    H237572   1.393   4.765   2.898 -0.3187 -0.3987  1.9230
 5313TIP3   OH237573   0.765   0.769   1.651 -0.2205 -0.0148 -0.1903
 5313TIP3    H137574   0.750   0.742   1.741 -1.3632 -2.3783 -1.0064
 5313TIP3    H237575   0.859   0.787   1.647 -0.6943  4.2006  2.3577
 5314TIP3   OH237576   6.291   6.147   7.742 -0.1887 -0.0209  0.0894
 5314TIP3    H137577   6.233   6.222   7.730 -0.2023 -0.2743 -1.7316
 5314TIP3    H237578   6.378   6.179   7.715 -0.3460 -0.8337 -1.5152
 5315TIP3   OH237579   6.342   3.289   0.824  0.1394 -0.0405 -0.5084
 5315TIP3    H137580   6.316   3.241   0.745 -0.7555  0.5222 -0.5681
 5315TIP3    H237581   6.358   3.378   0.793 -0.1154  0.1573 -0.0708
 5316TIP3   OH237582   5.235   0.239   1.005  0.2104  0.1420 -0.0872
 5316TIP3    H137583   5.215   0.146   0.997  2.0355 -0.5266  2.0286
 5316TIP3    H237584   5.224   0.258   1.099 -1.2292  2.3955 -0.6200
 5317TIP3   OH237585   0.846   4.319   8.669 -0.3209  0.0893 -0.1308
 5317TIP3    H137586   0.825   4.365   8.751  2.1370  1.1221  0.0101
 5317TIP3    H237587   0.857   4.228   8.695  0.9218  0.4870  0.8279
 5318TIP3   OH237588   1.909   4.343   3.312  0.0312  0.0686 -0.1029
 5318TIP3    H137589   1.960   4.272   3.351 -0.7791 -0.2725  0.3581
 5318TIP3    H237590   1.957   4.366   3.233  0.4051 -0.8658 -0.1638
 5319TIP3   OH237591   2.975   6.348   0.897 -0.0660 -0.4002 -0.5919
 5319TIP3    H137592   2.921   6.418   0.862 -0.3845 -1.5159 -2.4678
 5319TIP3    H237593   2.912   6.283   0.928  0.2226 -0.2716  0.2883
 5320TIP3   OH237594   5.937   0.958   8.817  0.1914 -0.0894 -0.4374
 5320TIP3    H137595   5.972   1.043   8.789 -1.3365  0.1755 -1.7000
 5320TIP3    H237596   6.010   0.915   8.861  0.9446  1.9612  0.4334
 5321TIP3   OH237597   2.181   5.100   7.159  0.8662 -0.1139 -0.4949
 5321TIP3    H137598   2.141   5.043   7.225 -0.3614  0.8291 -0.3991
 5321TIP3    H237599   2.177   5.188   7.197  2.3715  0.1318 -0.8104
 5322TIP3   OH237600   0.601   6.724   0.515 -0.7211  0.2048 -0.4664
 5322TIP3    H137601   0.607   6.743   0.421 -0.0326  2.2054 -0.0759
 5322TIP3    H237602   0.690   6.735   0.547 -0.7971 -1.2550  0.3236
 5323TIP3   OH237603   3.952   2.320   1.455  0.5095  0.2010  0.2665
 5323TIP3    H137604   3.899   2.240   1.445  0.5950  0.1951 -0.1568
 5323TIP3    H237605   3.991   2.333   1.369  0.7458  0.5270  0.4241
 5324TIP3   OH237606   5.167   3.826   1.951 -0.2815 -0.2478 -0.1827
 5324TIP3    H137607   5.078   3.793   1.935 -0.6124 -0.5780  2.0224
 5324TIP3    H237608   5.156   3.893   2.018  1.1530 -0.3938  0.2305
 5325TIP3   OH237609   2.559   0.667   2.244 -0.3512 -0.2208 -0.3924
 5325TIP3    H137610   2.619   0.740   2.229  2.0595 -2.0923 -0.4781
 5325TIP3    H237611   2.556   0.659   2.340  0.6240 -0.9111 -0.4019
 5326TIP3   OH237612   6.233   2.298   8.276 -0.0817 -0.7368 -0.0326
 5326TIP3    H137613   6.197   2.300   8.188 -0.0441 -0.0545 -0.0397
 5326TIP3    H237614   6.275   2.212   8.283  1.4204 -0.1621 -1.3025
 5327TIP3   OH237615   2.305   1.256   1.367 -0.4493  0.2617 -0.1717
 5327TIP3    H137616   2.382   1.308   1.344  0.3296 -0.1879  1.3280
 5327TIP3    H237617   2.336   1.166   1.365 -1.2686 -0.0228 -0.7249
 5328TIP3   OH237618   4.874   6.641   1.284 -0.3137  0.3650 -0.0302
 5328TIP3    H137619   4.966   6.648   1.261  0.5855 -3.5408  1.5328
 5328TIP3    H237620   4.869   6.676   1.373 -0.0750 -0.2979  0.2540
 5329TIP3   OH237621   4.817   2.435   1.847  1.0022 -0.5247  0.1337
 5329TIP3    H137622   4.821   2.402   1.937  2.3005 -2.6115 -0.6176
 5329TIP3    H237623   4.735   2.400   1.813  0.3612  0.5162  0.5620
 5330TIP3   OH237624   0.514   3.994   2.512  0.5537 -0.1035  0.0832
 5330TIP3    H137625   0.473   3.914   2.479 -1.0521  0.2111  1.1882
 5330TIP3    H237626   0.480   4.003   2.602 -0.1589  2.3418 -0.3460
 5331TIP3   OH237627   1.365   1.403   2.464 -0.4744  0.6241 -0.3601
 5331TIP3    H137628   1.440   1.415   2.406  0.7943 -0.6955  0.9380
 5331TIP3    H237629   1.326   1.320   2.435  1.2731 -1.0309  1.7478
 5332TIP3   OH237630   2.686   6.184   2.220 -0.4739 -0.2122  0.3592
 5332TIP3    H137631   2.592   6.200   2.215 -0.8193 -1.9108  0.5743
 5332TIP3    H237632   2.710   6.207   2.310 -0.5286  0.8763  0.1062
 5333TIP3   OH237633   3.313   2.782   2.047  0.3472  0.4236 -0.1400
 5333TIP3    H137634   3.391   2.808   2.095 -0.5316  0.9464  1.0417
 5333TIP3    H237635   3.296   2.854   1.986 -0.7055  1.5759  1.4565
 5334TIP3   OH237636   1.466   4.212   8.408 -0.0400 -0.1079 -0.0330
 5334TIP3    H137637   1.458   4.244   8.318 -1.0807  0.5802  0.2796
 5334TIP3    H237638   1.440   4.120   8.404  0.5253 -0.2488 -0.5332
 5335TIP3   OH237639   6.352   4.526   7.413  0.6259 -0.8186  0.2324
 5335TIP3    H137640   6.290   4.536   7.340  0.0592 -0.4936  0.7430
 5335TIP3    H237641   6.298   4.537   7.491  1.7035  2.1569  0.7082
 5336TIP3   OH237642   0.703   0.914   0.905  0.2834 -0.0543 -0.4667
 5336TIP3    H137643   0.640   0.962   0.960  0.8921 -0.2149  0.3982
 5336TIP3    H237644   0.683   0.942   0.816 -0.1917  0.8606 -0.0917
 5337TIP3   OH237645   1.373   6.326   2.499 -0.3769 -0.3613  0.2206
 5337TIP3    H137646   1.338   6.378   2.571 -0.1756 -0.3729  0.3270
 5337TIP3    H237647   1.364   6.382   2.422  0.5297  0.1371  0.4587
 5338TIP3   OH237648   2.946   2.101   2.438 -0.0292  0.6791 -0.1470
 5338TIP3    H137649   2.945   2.144   2.353 -1.2787 -0.1078 -0.5585
 5338TIP3    H237650   3.038   2.100   2.464  0.3154  1.2759 -1.3010
 5339TIP3   OH237651   2.184   5.378   8.459 -0.9236 -0.2043  0.1763
 5339TIP3    H137652   2.138   5.432   8.524 -0.8510  1.3283 -0.9948
 5339TIP3    H237653   2.125   5.375   8.384  1.0509  2.5539 -1.7288
 5340TIP3   OH237654   2.330   1.576   2.370 -0.2175  0.3484 -0.0943
 5340TIP3    H137655   2.250   1.620   2.397  0.4558 -0.8766  4.7483
 5340TIP3    H237656   2.319   1.486   2.400  2.6469 -0.0710 -0.0545
 5341TIP3   OH237657   0.794   5.749   0.901 -0.3987 -0.9676  0.3077
 5341TIP3    H137658   0.817   5.817   0.964  0.3070 -0.1355 -0.8064
 5341TIP3    H237659   0.831   5.668   0.938  0.9383 -0.3161  0.4649
 5342TIP3   OH237660   1.066   1.325   1.822 -0.7031 -0.2078  0.3192
 5342TIP3    H137661   1.067   1.231   1.801  0.6375 -0.0094 -0.6448
 5342TIP3    H237662   1.076   1.329   1.917  0.3929 -1.0477  0.2636
 5343TIP3   OH237663   0.007   1.748   8.141  0.3342 -0.1700  0.0701
 5343TIP3    H137664  -0.076   1.748   8.095  0.2284 -0.3282  0.2611
 5343TIP3    H237665   0.072   1.726   8.074  0.0100 -2.0474  0.3281
 5344TIP3   OH237666   0.873   3.195   0.047 -0.7251  0.0767  0.3517
 5344TIP3    H137667   0.795   3.141   0.038 -2.0716  1.7907  1.0536
 5344TIP3    H237668   0.863   3.264  -0.019 -0.3809  0.9454  1.1700
 5345TIP3   OH237669   2.890   2.168   0.448  0.0589  0.3482  0.3476
 5345TIP3    H137670   2.849   2.112   0.514  0.6651  0.6866  1.0258
 5345TIP3    H237671   2.818   2.196   0.392 -0.1616 -1.8924 -0.6350
 5346TIP3   OH237672   2.256   0.383   2.018  0.2669 -0.1771  0.2031
 5346TIP3    H137673   2.277   0.315   1.954 -0.8040  0.5149 -0.9360
 5346TIP3    H237674   2.177   0.352   2.061  0.1580  0.0389  0.1578
 5347TIP3   OH237675   2.872   1.063   8.760  0.3916  0.2083 -0.5265
 5347TIP3    H137676   2.900   1.143   8.804  2.1875 -0.6007 -0.0919
 5347TIP3    H237677   2.908   0.992   8.813 -1.5831 -0.9286 -0.6281
 5348TIP3   OH237678   4.778   1.334   0.534 -0.0024  0.4638  0.3720
 5348TIP3    H137679   4.871   1.311   0.532  0.0137  0.4490  1.2365
 5348TIP3    H237680   4.775   1.419   0.577 -0.4191  0.3285  0.6132
 5349TIP3   OH237681   0.862   3.848   3.064  0.8471  0.6234  0.0769
 5349TIP3    H137682   0.948   3.807   3.057  0.0621 -1.1035 -0.1390
 5349TIP3    H237683   0.801   3.775   3.057 -0.6890  1.9510 -1.1688
 5350TIP3   OH237684   0.773   3.057   0.811 -0.4461 -0.3364  0.1237
 5350TIP3    H137685   0.709   3.092   0.873  0.1827  1.4610 -0.1840
 5350TIP3    H237686   0.840   3.015   0.866 -0.9768 -0.6677  0.5265
 5351TIP3   OH237687   5.866   4.527   1.221  0.3711 -0.2111 -0.1248
 5351TIP3    H137688   5.810   4.557   1.292  2.9165 -0.2249  2.0174
 5351TIP3    H237689   5.911   4.450   1.255  0.5282 -1.1977 -2.3478
 5352TIP3   OH237690   6.270   2.830   0.627  0.6892 -0.0298  0.4361
 5352TIP3    H137691   6.276   2.854   0.535  0.5698 -0.7166  0.2390
 5352TIP3    H237692   6.322   2.749   0.633 -0.5434 -0.8240  0.6520
 5353TIP3   OH237693   4.263   1.882   1.840  0.0540  0.3567 -0.5240
 5353TIP3    H137694   4.226   1.957   1.792  0.9428  1.2755  0.1865
 5353TIP3    H237695   4.206   1.872   1.916  0.7927  1.2826  0.1681
 5354TIP3   OH237696   0.798   4.816   8.739 -0.2230 -0.2209 -0.6487
 5354TIP3    H137697   0.740   4.758   8.788  1.5017  0.2449  2.1707
 5354TIP3    H237698   0.749   4.898   8.729 -0.7702 -0.4733 -0.0796
 5355TIP3   OH237699   2.931   2.316   0.713 -0.4955  0.1384 -0.0582
 5355TIP3    H137700   2.918   2.280   0.626 -1.2393 -0.6784  0.3695
 5355TIP3    H237701   2.846   2.305   0.756 -0.7527  2.3622  0.1325
 5356TIP3   OH237702   1.065   0.533   0.422  0.7831 -0.2559  0.1539
 5356TIP3    H137703   1.064   0.491   0.336 -2.6249 -0.5670  0.2087
 5356TIP3    H237704   1.053   0.462   0.484 -0.7311  0.3086  0.5544
 5357TIP3   OH237705   3.098   3.203   0.557 -0.1896  0.8630  0.5454
 5357TIP3    H137706   3.141   3.152   0.627 -0.7372 -2.2672 -1.1911
 5357TIP3    H237707   3.150   3.283   0.551  3.0067 -0.9541  1.2101
 5358TIP3   OH237708   6.237   2.546   2.046  0.3574 -0.1252  0.9006
 5358TIP3    H137709   6.144   2.542   2.068  0.0257 -1.3908 -0.5057
 5358TIP3    H237710   6.255   2.639   2.033 -0.9599  0.0615  0.2759
 5359TIP3   OH237711   0.426   3.743   2.463 -0.0283  0.3321  0.1809
 5359TIP3    H137712   0.455   3.721   2.552 -1.4478  0.0078  0.6047
 5359TIP3    H237713   0.348   3.689   2.450 -2.1538  3.1590  0.2425
 5360TIP3   OH237714   2.426   6.658   1.828  0.8499 -0.2516  0.1919
 5360TIP3    H137715   2.349   6.610   1.797 -0.1064  1.8696 -0.9931
 5360TIP3    H237716   2.478   6.672   1.749  1.0405  0.7145  0.4760
 5361TIP3   OH237717   4.998   1.095   2.357 -0.6259  0.0828 -0.3018
 5361TIP3    H137718   5.058   1.026   2.383  0.1622  1.0481  0.5456
 5361TIP3    H237719   4.925   1.050   2.316  0.9561 -1.1217 -1.9781
 5362TIP3   OH237720   2.457   1.775   8.724  0.8349  0.4757 -0.1834
 5362TIP3    H137721   2.367   1.773   8.756  0.8873  0.4985 -0.0349
 5362TIP3    H237722   2.452   1.826   8.643  0.5384 -0.3973 -0.7249
 5363TIP3   OH237723   3.247   2.673   8.368  0.5589 -0.1231 -0.9230
 5363TIP3    H137724   3.279   2.598   8.317  2.5494  1.0516 -1.5220
 5363TIP3    H237725   3.282   2.658   8.456 -2.8797 -2.1530  0.2952
 5364TIP3   OH237726   2.209   1.611   2.763 -0.0861  0.2913  0.5907
 5364TIP3    H137727   2.134   1.604   2.703  0.3924 -1.7783  0.1442
 5364TIP3    H237728   2.278   1.651   2.711 -0.7349  1.8705  0.8951
 5365TIP3   OH237729   5.886   0.875   2.576 -0.2080 -0.6402 -0.0165
 5365TIP3    H137730   5.861   0.795   2.622  0.8146 -0.9342  0.0481
 5365TIP3    H237731   5.854   0.946   2.632 -0.8774 -0.9975  0.0637
 5366TIP3   OH237732   4.646   1.953   2.573 -0.1600  0.5356  0.1664
 5366TIP3    H137733   4.601   1.938   2.656 -0.2766 -0.9019 -0.1181
 5366TIP3    H237734   4.590   2.014   2.526 -0.1675  1.2498  1.0791
 5367TIP3   OH237735   3.230   2.857   0.762  0.0950  0.0550 -0.3396
 5367TIP3    H137736   3.249   2.945   0.797 -0.7755  0.3654 -0.6120
 5367TIP3    H237737   3.146   2.867   0.717  0.0905 -0.8772 -0.5579
 5368TIP3   OH237738   4.352   1.107   1.873 -0.4014 -0.1011 -0.6054
 5368TIP3    H137739   4.298   1.049   1.819 -0.9139 -1.4086  1.2136
 5368TIP3    H237740   4.435   1.115   1.825 -0.8934 -1.0682 -1.6507
 5369TIP3   OH237741   2.897   2.271   0.130  0.8004  0.6012  0.4868
 5369TIP3    H137742   2.954   2.240   0.059  0.0261 -0.3202  0.2449
 5369TIP3    H237743   2.950   2.335   0.176  2.0061 -0.1461  0.2010
 5370TIP3   OH237744   5.600   1.927   2.238 -0.2227 -0.2515 -0.1185
 5370TIP3    H137745   5.602   1.998   2.302  1.0256 -1.2355  0.9969
 5370TIP3    H237746   5.684   1.883   2.249  0.0040 -0.4873 -2.4385
 5371TIP3   OH237747   1.895   1.805   1.205 -0.3917  0.3676 -0.2527
 5371TIP3    H137748   1.841   1.729   1.181 -1.0948  0.7233  0.1838
 5371TIP3    H237749   1.945   1.825   1.125 -1.2469  0.3196 -0.8105
 5372TIP3   OH237750   3.400   0.149   1.121 -0.5498  0.1878 -0.1361
 5372TIP3    H137751   3.461   0.160   1.047 -1.1798 -0.2109 -0.7279
 5372TIP3    H237752   3.420   0.222   1.179  0.8921 -0.2430 -0.0326
 5373TIP3   OH237753   4.157   4.514   1.277  0.1030  0.6518 -0.0570
 5373TIP3    H137754   4.193   4.602   1.284 -1.3559  1.1695  2.1123
 5373TIP3    H237755   4.125   4.494   1.365 -2.2282 -0.8636 -1.1359
 5374TIP3   OH237756   1.198   0.143   1.532  0.4446 -0.8303 -0.2214
 5374TIP3    H137757   1.138   0.214   1.557  0.2002 -1.0979 -0.0472
 5374TIP3    H237758   1.181   0.074   1.595  1.1377 -0.8067  0.0051
 5375TIP3   OH237759   1.273   5.669   8.736  0.3569  0.0660 -0.3385
 5375TIP3    H137760   1.356   5.685   8.783  0.8610 -2.6421 -0.1413
 5375TIP3    H237761   1.209   5.657   8.806 -0.3662  2.4383 -0.4922
 5376TIP3   OH237762   4.407   4.697   1.440  0.7254  0.4563 -0.2056
 5376TIP3    H137763   4.463   4.626   1.408 -0.3270 -0.0035 -1.0879
 5376TIP3    H237764   4.436   4.774   1.392  0.9364  0.3339 -0.2778
 5377TIP3   OH237765   5.165   2.016   1.258  0.0484 -0.6404 -0.3142
 5377TIP3    H137766   5.247   1.977   1.288 -0.0748  0.8696  2.2193
 5377TIP3    H237767   5.104   2.002   1.330 -0.8963  1.3687 -0.6574
 5378TIP3   OH237768   3.089   0.057   8.379  0.4273  0.0525  0.0126
 5378TIP3    H137769   3.168   0.057   8.434 -0.7175  1.1659  1.7398
 5378TIP3    H237770   3.095  -0.026   8.330  3.6192  0.9674 -1.4441
 5379TIP3   OH237771   2.051   4.147   1.032 -0.1270  0.0778  0.5209
 5379TIP3    H137772   2.139   4.131   1.067 -0.3886 -0.6823  0.8508
 5379TIP3    H237773   2.004   4.188   1.105  0.3120  1.7080 -0.0688
 5380TIP3   OH237774   3.609   4.082   3.018 -0.1703 -0.4683  0.4718
 5380TIP3    H137775   3.615   4.074   3.113 -0.5707  0.1121  0.5529
 5380TIP3    H237776   3.560   4.164   3.004 -0.4577 -0.7523 -0.2273
 5381TIP3   OH237777   6.428   0.599   8.056  0.4654 -0.5125 -0.0050
 5381TIP3    H137778   6.402   0.689   8.036  0.8968 -0.2099  0.7485
 5381TIP3    H237779   6.357   0.545   8.022  1.0995 -0.0424 -2.2230
 5382TIP3   OH237780   3.203   1.394   2.744 -0.0300  0.1707  0.2074
 5382TIP3    H137781   3.165   1.337   2.677  3.2771  0.2104 -1.9160
 5382TIP3    H237782   3.258   1.336   2.797  0.0069  0.6954  0.7476
 5383TIP3   OH237783   4.356   3.996   7.470  0.0030 -0.3093 -0.3370
 5383TIP3    H137784   4.396   3.948   7.397 -0.2572  0.1283 -0.7742
 5383TIP3    H237785   4.262   3.977   7.463 -0.2545  1.0857 -1.1695
 5384TIP3   OH237786   1.533   0.802   0.994 -0.2042 -0.5935 -0.1337
 5384TIP3    H137787   1.472   0.820   1.066  0.3808 -0.3972  0.3246
 5384TIP3    H237788   1.619   0.812   1.033  0.1292  0.0587 -1.0035
 5385TIP3   OH237789   5.812   6.138   0.063 -0.0506  0.3244  0.4154
 5385TIP3    H137790   5.752   6.122   0.135  1.3627 -0.3801  1.4799
 5385TIP3    H237791   5.864   6.058   0.057 -0.7445 -0.0173 -2.0373
 5386TIP3   OH237792   6.030   0.956   2.297 -0.0756  0.1773  0.0179
 5386TIP3    H137793   6.107   0.962   2.240  0.6716 -0.7658  0.8855
 5386TIP3    H237794   6.065   0.932   2.383 -1.3150  0.0472  0.5132
 5387TIP3   OH237795   0.591   4.692   7.835 -0.1288  0.1970 -0.3065
 5387TIP3    H137796   0.677   4.662   7.866 -0.5792 -0.3872  0.4142
 5387TIP3    H237797   0.530   4.626   7.867 -1.3935  2.5736  2.7441
 5388TIP3   OH237798   1.286   3.339   8.523  0.1627 -0.5439 -0.3217
 5388TIP3    H137799   1.191   3.347   8.526  0.0082 -1.8945 -0.7929
 5388TIP3    H237800   1.301   3.253   8.485  1.5836 -0.2802 -0.4000
 5389TIP3   OH237801   5.939   3.705   0.641  0.0466 -0.4133  0.0715
 5389TIP3    H137802   5.868   3.696   0.579 -0.9010  1.0504  0.8804
 5389TIP3    H237803   6.018   3.709   0.588 -0.7897  1.4169 -1.0994
 5390TIP3   OH237804   0.909   3.095   2.214  0.1955  0.2599 -0.1376
 5390TIP3    H137805   0.918   3.015   2.162  0.4696  0.6097 -0.6391
 5390TIP3    H237806   0.887   3.065   2.302  0.9026 -0.3948 -0.1793
 5391TIP3   OH237807   3.205   3.624   1.251 -0.6755 -0.6425 -0.0904
 5391TIP3    H137808   3.211   3.583   1.337 -2.1379 -1.3104 -0.2698
 5391TIP3    H237809   3.265   3.573   1.196 -0.1008 -0.5194  0.4112
 5392TIP3   OH237810   5.219   2.024   7.460  0.5722  0.6563 -0.6183
 5392TIP3    H137811   5.284   2.039   7.392  1.2866 -2.0715 -0.6621
 5392TIP3    H237812   5.262   1.962   7.521 -2.0175 -1.5564 -0.8368
 5393TIP3   OH237813   2.425   4.251   1.401  0.2227  0.2773 -0.8264
 5393TIP3    H137814   2.355   4.208   1.351  1.1014 -0.7992 -1.1816
 5393TIP3    H237815   2.504   4.201   1.379  1.2350  1.8899 -0.9778
 5394TIP3   OH237816   1.719   6.772   0.424 -0.2572 -0.4359  0.0498
 5394TIP3    H137817   1.662   6.725   0.363 -1.9863  0.7197  0.7010
 5394TIP3    H237818   1.659   6.820   0.481  1.2798 -1.5567  2.7887
 5395TIP3   OH237819   0.825   4.926   1.176 -0.6718  0.4929 -0.2003
 5395TIP3    H137820   0.784   4.900   1.258 -0.3818 -0.0408 -0.2218
 5395TIP3    H237821   0.841   5.020   1.186  0.6143  0.1776  0.9138
 5396TIP3   OH237822   6.328   2.491   8.437  0.1035  0.1392 -0.4719
 5396TIP3    H137823   6.257   2.502   8.501  0.0792  1.5407 -0.6998
 5396TIP3    H237824   6.285   2.452   8.361  0.1901 -1.8269  0.4255
 5397TIP3   OH237825   3.249   0.895   2.580  0.5544  0.1088  0.6859
 5397TIP3    H137826   3.311   0.966   2.595  1.7610 -1.1063  1.6391
 5397TIP3    H237827   3.179   0.910   2.644  1.9349 -0.7756  2.4963
 5398TIP3   OH237828   1.266   3.947   0.415  0.2703  0.1160 -0.4099
 5398TIP3    H137829   1.226   3.882   0.357 -3.3228  0.5239  1.3700
 5398TIP3    H237830   1.242   4.032   0.377 -1.8864  0.3815  1.3747
 5399TIP3   OH237831   3.877   1.253   8.416 -0.1257 -0.0842  0.5078
 5399TIP3    H137832   3.884   1.348   8.423  0.0391 -0.0646  0.1237
 5399TIP3    H237833   3.782   1.236   8.414 -0.2089 -0.1052  2.6549
 5400TIP3   OH237834   4.018   3.839   0.847 -0.0424 -0.0045  0.3584
 5400TIP3    H137835   3.935   3.846   0.799  0.1605 -0.6440 -0.1045
 5400TIP3    H237836   3.999   3.876   0.933 -1.0727 -0.9449  0.5691
 5401TIP3   OH237837   3.397   2.059   8.732 -0.0558 -0.3350  0.1354
 5401TIP3    H137838   3.369   2.125   8.668 -1.0614  0.2350  1.1327
 5401TIP3    H237839   3.353   2.084   8.813  1.0537 -1.1558  1.0125
 5402TIP3   OH237840   2.427   1.648   0.361  0.5716 -0.2508 -0.3314
 5402TIP3    H137841   2.449   1.735   0.394 -1.0252 -0.1198  0.4313
 5402TIP3    H237842   2.364   1.613   0.423  0.8615 -1.7952 -0.8590
 5403TIP3   OH237843   2.006   0.313   2.078 -0.7012  0.4500  0.2203
 5403TIP3    H137844   1.952   0.352   2.146 -0.3320  1.3474  0.0221
 5403TIP3    H237845   1.975   0.354   1.997 -0.6051 -0.0084 -0.0492
 5404TIP3   OH237846   4.868   1.641   1.841  0.5076 -0.6436  0.3295
 5404TIP3    H137847   4.784   1.602   1.818 -0.4036  1.8552 -0.9699
 5404TIP3    H237848   4.857   1.670   1.932 -0.7150  1.1327 -0.3286
 5405TIP3   OH237849   1.199   2.969   2.699 -0.0922  0.1714  0.3884
 5405TIP3    H137850   1.246   2.976   2.616 -1.0497 -0.7394 -0.2486
 5405TIP3    H237851   1.217   3.052   2.743 -0.1544  0.9942 -1.0516
 5406TIP3   OH237852   5.602   3.473   1.926 -0.3436  0.5134 -0.5895
 5406TIP3    H137853   5.692   3.452   1.900 -0.2199  0.8249 -0.4152
 5406TIP3    H237854   5.599   3.569   1.928 -0.8525  0.5176 -1.1944
 5407TIP3   OH237855   4.335   4.101   2.327 -0.2948  0.3813 -0.3318
 5407TIP3    H137856   4.340   4.014   2.366 -0.7692  1.2324  1.7375
 5407TIP3    H237857   4.242   4.121   2.324 -0.1545  1.0850 -0.1405
 5408TIP3   OH237858   5.839   0.674   2.810  0.2053 -0.4361 -0.4875
 5408TIP3    H137859   5.791   0.697   2.890  1.8075  0.3551  0.2954
 5408TIP3    H237860   5.815   0.583   2.793 -0.7208 -0.3920  0.4848
 5409TIP3   OH237861   4.503   1.498   0.090  0.3944 -0.1165  0.4680
 5409TIP3    H137862   4.544   1.483   0.005 -0.8617  2.4374 -0.7063
 5409TIP3    H237863   4.461   1.415   0.112 -0.1766 -0.5301 -1.9636
 5410TIP3   OH237864   5.329   4.114   8.790  0.2803  0.1044 -0.1180
 5410TIP3    H137865   5.330   4.210   8.800  0.0531  0.0212  0.7826
 5410TIP3    H237866   5.313   4.100   8.697  1.0234  0.9459 -0.3835
 5411TIP3   OH237867   4.070   6.093   1.826 -0.7407 -0.2468  0.1934
 5411TIP3    H137868   4.162   6.092   1.802 -0.7114 -0.7943  0.3026
 5411TIP3    H237869   4.069   6.118   1.918 -0.6490 -0.8681  0.3692
 5412TIP3   OH237870   1.882   1.270   8.305  0.6387  0.2556 -0.7181
 5412TIP3    H137871   1.812   1.264   8.240  0.1042  2.3555 -0.3813
 5412TIP3    H237872   1.955   1.223   8.265 -0.5348 -0.8696 -1.6275
 5413TIP3   OH237873   0.284   0.440   0.745  0.2105 -0.4553  0.0127
 5413TIP3    H137874   0.282   0.535   0.744 -0.4083 -0.4636 -0.1842
 5413TIP3    H237875   0.192   0.414   0.751  0.4556 -1.0368  1.7715
 5414TIP3   OH237876   6.469   1.661   1.562 -0.1328 -0.3833  0.4326
 5414TIP3    H137877   6.477   1.574   1.521 -1.2673  0.4367 -1.6948
 5414TIP3    H237878   6.550   1.670   1.613  1.6338 -1.3727 -1.9671
 5415TIP3   OH237879   5.562   6.406   8.220 -0.8017  0.0988 -0.1306
 5415TIP3    H137880   5.467   6.389   8.220 -0.8255  0.2303  0.1994
 5415TIP3    H237881   5.573   6.480   8.280 -0.4108 -0.3667  0.3779
 5416TIP3   OH237882   0.981   6.163   3.182 -0.0862  0.4062  0.1183
 5416TIP3    H137883   0.951   6.161   3.273 -0.5482  0.9427 -0.0134
 5416TIP3    H237884   1.004   6.073   3.162 -0.2687  0.2335  0.6790
 5417TIP3   OH237885   2.330   1.351   0.973 -0.0550 -0.2701 -0.1904
 5417TIP3    H137886   2.313   1.411   1.047 -0.0820  1.7446 -1.7446
 5417TIP3    H237887   2.413   1.383   0.936  0.8827 -2.3601 -0.0342
 5418TIP3   OH237888   4.361   2.377   0.487 -0.2662  0.3187 -0.1242
 5418TIP3    H137889   4.370   2.460   0.535  0.9280  0.5374 -0.6776
 5418TIP3    H237890   4.449   2.339   0.490 -1.0785 -1.6169  1.2861
 5419TIP3   OH237891   5.011   3.909   1.396  0.5134  0.0973 -0.3102
 5419TIP3    H137892   4.957   3.832   1.382  1.4061 -0.6697  0.3166
 5419TIP3    H237893   5.095   3.887   1.355  0.5154  1.0809 -0.8670
 5420TIP3   OH237894   0.941   5.242   8.289  0.0531 -0.2622  0.0151
 5420TIP3    H137895   1.014   5.240   8.352  0.6094 -2.2599 -0.6377
 5420TIP3    H237896   0.984   5.250   8.204 -0.5659 -0.1945 -0.2931
 5421TIP3   OH237897   2.810   3.922   2.712 -0.9130  0.1316  0.3950
 5421TIP3    H137898   2.811   3.950   2.620 -1.8328  2.0354  0.9292
 5421TIP3    H237899   2.809   3.826   2.707  0.3048  0.1472 -1.5499
 5422TIP3   OH237900   6.143   4.747   7.518 -0.0450  0.1375 -0.3202
 5422TIP3    H137901   6.142   4.653   7.536 -0.3866  0.6424  2.8366
 5422TIP3    H237902   6.057   4.779   7.546  0.7133  1.6175  0.4804
 5423TIP3   OH237903   5.978   3.532   1.086  0.0115 -0.3939  0.0726
 5423TIP3    H137904   5.948   3.591   1.155 -0.5871 -0.8019  0.1733
 5423TIP3    H237905   5.897   3.506   1.041  0.4186  0.1165 -0.9850
 5424TIP3   OH237906   4.861   0.662   0.879  0.2228 -0.5524 -0.3461
 5424TIP3    H137907   4.904   0.688   0.797 -1.9396 -2.5491 -2.2765
 5424TIP3    H237908   4.790   0.725   0.889  2.2653  1.5806  1.8027
 5425TIP3   OH237909   0.964   4.128   7.630 -0.3248  0.5096 -0.0599
 5425TIP3    H137910   0.991   4.220   7.627  0.7871  0.2133  0.3324
 5425TIP3    H237911   0.982   4.095   7.542  1.0389  0.2136  0.3040
 5426TIP3   OH237912   1.568   3.236   1.791 -0.1598  0.3950  0.3664
 5426TIP3    H137913   1.520   3.164   1.833  0.6900 -0.5535 -0.2319
 5426TIP3    H237914   1.655   3.199   1.774 -0.3454  0.8527 -1.8583
 5427TIP3   OH237915   4.146   0.940   2.788 -0.1594 -0.0887  0.3165
 5427TIP3    H137916   4.139   0.858   2.837  4.8780 -1.4640 -0.7703
 5427TIP3    H237917   4.213   0.990   2.835 -0.6073  1.8720 -1.0173
 5428TIP3   OH237918   0.513   6.345   3.009 -0.0528  0.4943  0.2944
 5428TIP3    H137919   0.565   6.313   2.936  0.5503  2.4825 -0.2152
 5428TIP3    H237920   0.423   6.322   2.986  0.3165 -0.6283 -0.0989
 5429TIP3   OH237921   2.502   2.520   0.173 -0.1464 -0.3734  0.0375
 5429TIP3    H137922   2.558   2.444   0.188  0.3073  0.1287  0.9437
 5429TIP3    H237923   2.524   2.549   0.084  1.0963 -0.1415  0.3966
 5430TIP3   OH237924   3.845   4.330   0.504  0.0822  0.3933 -0.3689
 5430TIP3    H137925   3.926   4.279   0.503 -0.2824 -0.1864 -0.4604
 5430TIP3    H237926   3.817   4.333   0.413  0.2662  1.0259 -0.4077
 5431TIP3   OH237927   5.918   0.349   0.918  0.2257 -0.0934  0.9311
 5431TIP3    H137928   5.954   0.397   0.844 -1.3014 -3.2814 -2.1951
 5431TIP3    H237929   5.856   0.409   0.958 -0.6461  1.0788 -1.9288
 5432TIP3   OH237930   2.222   5.005   8.502 -0.0917 -0.1307 -0.1138
 5432TIP3    H137931   2.196   5.085   8.457  0.8445 -0.3610 -1.1104
 5432TIP3    H237932   2.145   4.948   8.496 -0.2604  0.1508 -0.7284
 5433TIP3   OH237933   1.699   4.119   0.777 -0.5043  0.3354 -0.0232
 5433TIP3    H137934   1.739   4.038   0.806 -1.8733 -0.8063 -1.1733
 5433TIP3    H237935   1.746   4.188   0.825  2.8658 -0.8396 -1.3129
 5434TIP3   OH237936   3.722   0.066   1.964  0.8048  0.4840 -0.4731
 5434TIP3    H137937   3.743   0.140   2.021  2.2395 -0.4218  0.2443
 5434TIP3    H237938   3.628   0.075   1.947  0.5603  1.4290  1.1139
 5435TIP3   OH237939   0.207   0.739   0.796  0.1147  0.3227  0.2393
 5435TIP3    H137940   0.266   0.714   0.867  1.8069 -2.0781 -1.8161
 5435TIP3    H237941   0.119   0.723   0.830  0.9231 -1.8161  1.4603
 5436TIP3   OH237942   1.391   1.580   0.052  0.5165 -0.0183 -0.4505
 5436TIP3    H137943   1.341   1.572  -0.029 -0.6260 -0.6852  0.3047
 5436TIP3    H237944   1.429   1.493   0.065  0.4045 -0.0117 -0.0763
 5437TIP3   OH237945   5.656   2.102   2.436  0.2730  0.3048 -0.0670
 5437TIP3    H137946   5.737   2.060   2.409  0.2571  1.8839 -2.9770
 5437TIP3    H237947   5.679   2.195   2.447 -0.8394  0.5309  0.5773
 5438TIP3   OH237948   5.559   0.985   0.027  0.2320  0.1613 -0.2253
 5438TIP3    H137949   5.554   0.916  -0.040  0.6029  0.8852 -1.0121
 5438TIP3    H237950   5.598   1.060  -0.018  1.2968  0.3968  1.0170
 5439TIP3   OH237951   3.685   0.040   0.334  0.4108 -0.2635  0.1856
 5439TIP3    H137952   3.749   0.098   0.292  2.2119 -1.9342  0.4740
 5439TIP3    H237953   3.657  -0.019   0.264  0.7055 -0.7922  0.5085
 5440TIP3   OH237954   6.530   4.695   2.531  0.1365  0.1341 -0.3377
 5440TIP3    H137955   6.608   4.706   2.585 -0.0118 -1.4207  0.2475
 5440TIP3    H237956   6.549   4.744   2.451  2.5610 -1.7609 -1.0564
 5441TIP3   OH237957   6.200   2.413   1.174 -0.1684  0.0488  0.0948
 5441TIP3    H137958   6.113   2.393   1.141 -0.7062  0.2060  1.3813
 5441TIP3    H237959   6.256   2.343   1.140 -0.7484  0.0605 -0.9037
 5442TIP3   OH237960   0.190   2.793   1.540  0.7198 -0.0475 -0.4877
 5442TIP3    H137961   0.244   2.753   1.608 -0.2169  0.8255  0.8210
 5442TIP3    H237962   0.178   2.724   1.475 -0.0775 -1.6388  1.2530
 5443TIP3   OH237963   1.798   0.092   3.365  0.0773 -0.7688 -0.0326
 5443TIP3    H137964   1.740   0.028   3.325  0.1286 -1.3700  0.8382
 5443TIP3    H237965   1.810   0.159   3.297 -1.8214 -0.4978 -0.1574
 5444TIP3   OH237966   6.333   3.535   2.948 -0.0842  0.2225  0.2150
 5444TIP3    H137967   6.271   3.607   2.963  0.3116  0.7821 -0.7335
 5444TIP3    H237968   6.345   3.533   2.853  0.2784 -0.7955  0.2719
 5445TIP3   OH237969   5.433   2.064   3.674  0.7209 -0.2133 -0.6926
 5445TIP3    H137970   5.489   1.987   3.665  0.3015 -0.5995 -0.0649
 5445TIP3    H237971   5.483   2.124   3.728  0.3693 -0.7296  0.2268
 5446TIP3   OH237972   2.267   4.774   3.012  0.0112 -0.5279 -0.0138
 5446TIP3    H137973   2.188   4.762   3.065  0.3175 -1.2668  0.2867
 5446TIP3    H237974   2.315   4.692   3.021  0.0524 -0.6942 -1.4830
 5447TIP3   OH237975   2.708   0.658   0.021  0.6254 -0.0423 -0.1476
 5447TIP3    H137976   2.637   0.716   0.044  0.7422 -0.3802  1.1535
 5447TIP3    H237977   2.667   0.587  -0.028 -0.0621 -0.5836  1.1737
 5448TIP3   OH237978   5.511   0.466   2.191 -0.3157  0.5089  0.1493
 5448TIP3    H137979   5.542   0.519   2.117 -1.3276  1.6630  0.5084
 5448TIP3    H237980   5.533   0.376   2.167  0.4416  0.9696 -1.0042
 5449TIP3   OH237981   0.187   4.389   1.932 -0.4629  0.4083  0.3568
 5449TIP3    H137982   0.108   4.414   1.883 -0.0084 -1.5905 -1.5284
 5449TIP3    H237983   0.259   4.433   1.886 -0.0264 -1.5170 -0.8702
 5450TIP3   OH237984   3.678   6.027   0.697  0.1801 -0.1238  0.0531
 5450TIP3    H137985   3.737   6.061   0.764  0.7962 -1.0136 -0.0251
 5450TIP3    H237986   3.616   5.971   0.744  1.3497 -1.7153 -0.2394
 5451TIP3   OH237987   3.206   2.195   0.783  0.1480  0.0025  0.5905
 5451TIP3    H137988   3.189   2.181   0.876 -0.8000  0.2779  0.4638
 5451TIP3    H237989   3.126   2.234   0.749  0.4394 -0.2077 -0.3730
 5452TIP3   OH237990   3.135   1.898   8.530  0.0229  0.6963 -0.0955
 5452TIP3    H137991   3.086   1.823   8.496 -0.8056  0.5720  1.3159
 5452TIP3    H237992   3.227   1.876   8.515 -0.2503 -0.2117 -0.4658
 5453TIP3   OH237993   0.314   6.327   0.211 -0.5808 -0.4459  0.0246
 5453TIP3    H137994   0.361   6.379   0.277 -0.8314  0.4200 -0.4546
 5453TIP3    H237995   0.277   6.254   0.260  4.0575 -3.2266 -0.0779
 5454TIP3   OH237996   3.959   2.108   8.516 -1.2223  0.3044  0.2569
 5454TIP3    H137997   3.958   2.185   8.572  0.8488 -0.2883  1.2314
 5454TIP3    H237998   4.052   2.089   8.503 -1.6573 -0.9409 -1.5159
 5455TIP3   OH237999   1.395   3.993   1.901  0.3910  0.0941 -0.3970
 5455TIP3    H138000   1.397   4.018   1.993  2.2773 -0.1959 -0.3331
 5455TIP3    H238001   1.316   3.939   1.893 -1.1647  2.1313  0.4566
 5456TIP3   OH238002   1.474   4.153   0.612 -0.3566 -0.4067  0.1124
 5456TIP3    H138003   1.402   4.216   0.608  0.5421  0.6023 -0.9310
 5456TIP3    H238004   1.534   4.190   0.677 -0.3959 -0.8218  0.3870
 5457TIP3   OH238005   6.048   1.997   4.031 -0.0083  0.0772 -0.7275
 5457TIP3    H138006   5.999   2.053   3.971 -2.8681 -0.2828  1.1208
 5457TIP3    H238007   6.093   2.057   4.090 -1.7589  0.4902  0.2340
 5458TIP3   OH238008   4.713   5.459   1.719  0.4927  0.5850 -0.0088
 5458TIP3    H138009   4.741   5.384   1.667  0.3329  1.0801 -0.8165
 5458TIP3    H238010   4.627   5.483   1.684 -0.3653 -0.0520  1.5312
 5459TIP3   OH238011   3.514   4.281   1.745  0.4316 -0.3624 -0.2077
 5459TIP3    H138012   3.576   4.276   1.817  0.6423  2.5456 -0.0532
 5459TIP3    H238013   3.568   4.272   1.666  0.6760 -0.4119 -0.0358
 5460TIP3   OH238014   6.729   1.289   2.272  0.3463 -0.1532  0.4566
 5460TIP3    H138015   6.744   1.377   2.305  0.5637  0.2175 -0.5871
 5460TIP3    H238016   6.637   1.272   2.291 -0.2374  1.0802 -1.0365
 5461TIP3   OH238017   1.847   0.160   0.807  0.6180 -0.4211 -0.2680
 5461TIP3    H138018   1.891   0.205   0.735 -1.1284 -0.1770 -1.2197
 5461TIP3    H238019   1.791   0.095   0.765  0.2044 -0.8600  0.9124
 5462TIP3   OH238020   1.246   0.128   1.872 -0.9752 -0.3619  0.1370
 5462TIP3    H138021   1.285   0.078   1.800 -0.2460  0.0293  0.2448
 5462TIP3    H238022   1.179   0.182   1.830 -1.2722 -0.8988 -0.0877
 5463TIP3   OH238023   5.684   4.552   8.858  0.2700  0.2056  0.2000
 5463TIP3    H138024   5.597   4.574   8.893  1.4136  1.5032  2.5073
 5463TIP3    H238025   5.712   4.632   8.814 -0.4007 -0.8349 -2.2906
 5464TIP3   OH238026   3.218   3.304   7.815  0.6653  0.3761 -0.4841
 5464TIP3    H138027   3.183   3.326   7.729 -0.1947  0.3746 -0.1468
 5464TIP3    H238028   3.260   3.219   7.802 -1.8754 -1.0232 -0.3508
 5465TIP3   OH238029   6.463   4.292   8.095  0.8376 -0.4389  0.1435
 5465TIP3    H138030   6.452   4.201   8.067  0.9708 -0.8719  1.4498
 5465TIP3    H238031   6.382   4.314   8.139  1.0958 -0.1629  0.4811
 5466TIP3   OH238032   4.645   0.685   3.028 -0.2468 -0.2187 -0.6097
 5466TIP3    H138033   4.604   0.771   3.019 -2.3837 -1.1720 -0.7200
 5466TIP3    H238034   4.658   0.654   2.939 -0.2663 -0.3492 -0.5684
 5467TIP3   OH238035   3.710   5.169   8.580 -0.2399 -0.7003  0.4041
 5467TIP3    H138036   3.746   5.197   8.496  0.6042  1.3637  1.3901
 5467TIP3    H238037   3.626   5.130   8.558 -0.8926  1.4376 -1.2771
 5468TIP3   OH238038   0.605   1.775   1.676 -0.3533  0.2135 -0.1420
 5468TIP3    H138039   0.579   1.845   1.616  0.7699  1.7920  1.1167
 5468TIP3    H238040   0.605   1.817   1.762 -2.4072 -2.0919  1.1153
 5469TIP3   OH238041   0.981   0.212   8.320 -0.0356  0.1707 -0.1838
 5469TIP3    H138042   0.994   0.252   8.234  1.7713 -2.6849 -1.3879
 5469TIP3    H238043   1.065   0.225   8.366 -0.7378  1.0389  0.9037
 5470TIP3   OH238044   0.055   0.177   8.327  0.2024  0.5918  0.0510
 5470TIP3    H138045   0.140   0.156   8.367 -0.5479  0.0847  1.4749
 5470TIP3    H238046   0.004   0.213   8.399 -0.3642  2.1996 -1.1064
 5471TIP3   OH238047   6.603   4.374   1.944  0.6211  0.1552  0.1757
 5471TIP3    H138048   6.556   4.318   2.005  0.7687  0.6062  0.7095
 5471TIP3    H238049   6.651   4.313   1.887  1.2186 -0.2541  1.1019
 5472TIP3   OH238050   4.635   6.227   1.548  0.0680 -0.1901  0.3444
 5472TIP3    H138051   4.694   6.283   1.599  0.6214 -0.8801  0.4769
 5472TIP3    H238052   4.557   6.281   1.535  1.5669  1.6401 -1.8202
 5473TIP3   OH238053   2.984   2.309   2.729 -0.2759  0.1824 -0.3623
 5473TIP3    H138054   2.961   2.303   2.637 -0.1061 -0.7476 -0.3531
 5473TIP3    H238055   2.974   2.220   2.763  1.7438  0.0312 -0.0038
 5474TIP3   OH238056   3.028   4.087   2.252  0.0236  0.4600 -0.0146
 5474TIP3    H138057   3.080   4.045   2.321  0.0825  0.4740 -0.0503
 5474TIP3    H238058   2.980   4.015   2.211  1.0933  0.2318 -0.9246
 5475TIP3   OH238059   1.940   0.308   8.394 -0.4434 -0.2158 -0.0942
 5475TIP3    H138060   1.954   0.339   8.304 -1.1426 -0.4789 -0.2963
 5475TIP3    H238061   2.010   0.350   8.444 -2.0471  2.7391 -0.1011
 5476TIP3   OH238062   5.593   6.161   0.238  0.1480 -0.3136  0.0708
 5476TIP3    H138063   5.540   6.115   0.302 -1.4013 -0.0516 -0.9603
 5476TIP3    H238064   5.600   6.250   0.272  0.3911 -0.4862  0.4759
 5477TIP3   OH238065   5.623   2.831   1.980  1.0341  0.1305 -0.2823
 5477TIP3    H138066   5.579   2.752   2.010  0.3168  0.0381 -1.4914
 5477TIP3    H238067   5.704   2.835   2.031 -0.1469  0.0549  1.6640
 5478TIP3   OH238068   3.256   2.537   7.794 -0.2724  0.4310  0.1709
 5478TIP3    H138069   3.226   2.624   7.821 -0.9729  0.0691  0.5958
 5478TIP3    H238070   3.341   2.552   7.754  1.6306  0.8487  3.9373
 5479TIP3   OH238071   0.886   0.621   2.543  0.2895 -0.7010  0.3128
 5479TIP3    H138072   0.918   0.705   2.578 -1.5325  0.6654 -1.0951
 5479TIP3    H238073   0.881   0.635   2.449  0.5686 -2.6710 -0.0368
 5480TIP3   OH238074   0.896   2.708   8.604 -0.0234 -0.4608  0.6683
 5480TIP3    H138075   0.943   2.693   8.522 -0.9882  1.3640 -0.2757
 5480TIP3    H238076   0.928   2.639   8.663  1.0749 -1.5001 -1.0559
 5481TIP3   OH238077   0.040   3.682   3.419 -0.0174 -0.7265 -0.1375
 5481TIP3    H138078   0.119   3.633   3.443 -0.5993 -0.9888  1.3702
 5481TIP3    H238079   0.072   3.770   3.399  0.4880 -0.1124  2.8703
 5482TIP3   OH238080   1.619   4.422   7.931 -0.2872 -0.1895 -0.5753
 5482TIP3    H138081   1.599   4.329   7.919  2.9487 -0.9210 -1.2346
 5482TIP3    H238082   1.602   4.461   7.845 -0.5549 -0.4201 -0.6276
 5483TIP3   OH238083   5.873   1.675   2.222 -0.4401 -0.2925  0.3341
 5483TIP3    H138084   5.806   1.625   2.176 -0.7586  0.8721 -0.5060
 5483TIP3    H238085   5.911   1.732   2.156  0.3976  0.0914  1.1125
 5484TIP3   OH238086   5.683   1.433   2.209 -0.0214  0.4347  0.3451
 5484TIP3    H138087   5.740   1.423   2.133 -0.6301 -0.6202  0.0129
 5484TIP3    H238088   5.743   1.427   2.284  0.3152 -0.8166  0.0033
 5485TIP3   OH238089   2.950   5.001   2.111 -0.1300 -0.4765  0.0248
 5485TIP3    H138090   2.970   5.078   2.165  0.0227 -0.4305 -0.0941
 5485TIP3    H238091   2.858   5.012   2.087  0.1672  0.2304 -0.8730
 5486TIP3   OH238092   0.586   1.959   1.895 -0.1174  0.2821 -0.5927
 5486TIP3    H138093   0.650   1.994   1.956 -0.1342 -0.7262  0.0319
 5486TIP3    H238094   0.501   1.973   1.938 -0.1155 -0.5935 -0.2878
 5487TIP3   OH238095   2.060   4.980   2.077 -0.3902  0.6833  0.4120
 5487TIP3    H138096   2.073   4.933   2.159 -0.5468  0.5551  0.3661
 5487TIP3    H238097   2.106   4.927   2.012  1.2893  1.7334  0.6868
 5488TIP3   OH238098   2.824   0.239   0.751 -0.1822  0.0252  0.9170
 5488TIP3    H138099   2.776   0.189   0.685  0.8382 -1.2648  1.1062
 5488TIP3    H238100   2.895   0.181   0.778  0.3444  1.1357  2.0271
 5489TIP3   OH238101   5.724   3.792   2.016  0.7832 -0.0652  0.2747
 5489TIP3    H138102   5.704   3.883   2.042  1.1468  0.0919 -0.0009
 5489TIP3    H238103   5.788   3.800   1.946  1.4827 -0.5630  0.8448
 5490TIP3   OH238104   1.686   3.005   1.348 -0.0073  0.2145  0.2609
 5490TIP3    H138105   1.781   3.008   1.337 -0.1405  1.2677 -0.7000
 5490TIP3    H238106   1.666   3.079   1.405 -0.1828 -0.4657  1.1025
 5491TIP3   OH238107   0.337   1.749   1.872 -0.3449  0.0819 -0.1982
 5491TIP3    H138108   0.306   1.836   1.898 -1.5383 -0.3278 -0.1654
 5491TIP3    H238109   0.265   1.690   1.896  0.7534 -1.0365  0.5351
 5492TIP3   OH238110   5.180   3.342   2.605 -1.1638  0.3166  0.6491
 5492TIP3    H138111   5.174   3.389   2.688  0.6375  0.1938  0.8857
 5492TIP3    H238112   5.216   3.256   2.629 -2.3269 -0.3835 -0.0518
 5493TIP3   OH238113   5.087   6.280   2.400 -0.1450 -0.4363  0.0300
 5493TIP3    H138114   5.156   6.256   2.462 -0.3822 -0.1154  0.4192
 5493TIP3    H238115   5.022   6.327   2.452 -0.3263 -0.1193 -0.4681
 5494TIP3   OH238116   2.555   4.715   2.179  0.1594  0.3073  0.8176
 5494TIP3    H138117   2.622   4.652   2.153  0.8171  1.1897  0.3409
 5494TIP3    H238118   2.514   4.675   2.256 -2.2614 -2.7041 -1.7417
 5495TIP3   OH238119   1.735   0.438   1.589 -0.0700  0.0560  0.0783
 5495TIP3    H138120   1.777   0.374   1.532  0.6718 -0.3938  1.1108
 5495TIP3    H238121   1.647   0.402   1.605 -0.0624 -0.1216 -0.2565
 5496TIP3   OH238122   2.710   2.423   8.008  0.5107  0.2296 -0.6371
 5496TIP3    H138123   2.614   2.415   8.002  0.6306 -1.1995 -1.0624
 5496TIP3    H238124   2.739   2.338   8.041  1.5510  1.0881  0.7533
 5497TIP3   OH238125   5.475   6.226   8.947  0.1760 -0.2365 -0.4999
 5497TIP3    H138126   5.532   6.160   8.907 -0.3786 -1.4983  0.6981
 5497TIP3    H238127   5.506   6.232   9.038 -1.8745 -1.3526  0.3391
 5498TIP3   OH238128   5.137   2.844   8.221 -0.1621 -0.3451 -0.0878
 5498TIP3    H138129   5.085   2.884   8.291  0.1682 -0.5265  0.2660
 5498TIP3    H238130   5.148   2.753   8.249  3.3904  0.4635  1.7312
 5499TIP3   OH238131   5.747   2.029   3.388  0.7849 -0.3615  0.2232
 5499TIP3    H138132   5.787   2.104   3.345 -0.5988 -1.4345 -3.3395
 5499TIP3    H238133   5.660   2.059   3.413  0.3826 -0.5752 -0.8351
 5500TIP3   OH238134   5.927   3.855   2.250  0.1746 -0.2777 -0.0647
 5500TIP3    H138135   5.888   3.855   2.162 -0.3386 -0.1253  0.1595
 5500TIP3    H238136   5.866   3.906   2.303 -0.3256 -1.6446  0.7292
 5501TIP3   OH238137   3.315   6.684   7.393 -0.1740  0.3341  0.3475
 5501TIP3    H138138   3.402   6.668   7.430  0.0930  0.8437 -0.0449
 5501TIP3    H238139   3.328   6.757   7.332 -0.1252 -1.9462 -2.5526
 5502TIP3   OH238140   3.285   1.362   1.792 -1.0452 -0.5211 -0.0766
 5502TIP3    H138141   3.328   1.432   1.743 -1.2628  0.0092  0.4810
 5502TIP3    H238142   3.192   1.380   1.784 -1.1957 -1.7503 -1.4020
 5503TIP3   OH238143   6.050   3.126   0.623 -0.1488  0.2552  0.2679
 5503TIP3    H138144   6.146   3.126   0.616 -0.2206  0.2454 -1.1744
 5503TIP3    H238145   6.022   3.192   0.559 -1.1114  0.0790  0.4997
 5504TIP3   OH238146   4.566   2.120   1.921 -0.0958 -0.3283  0.3336
 5504TIP3    H138147   4.576   2.209   1.888 -3.0690 -0.0887 -0.1659
 5504TIP3    H238148   4.634   2.070   1.875  2.0376  1.7164  1.0926
 5505TIP3   OH238149   5.321   6.339   3.003  0.0927  0.1081 -0.1946
 5505TIP3    H138150   5.316   6.258   2.953 -0.5077  0.4894 -0.7849
 5505TIP3    H238151   5.414   6.357   3.011  0.2178  0.6594 -2.2645
 5506TIP3   OH238152   3.485   1.636   2.050 -0.4112  0.1325  0.6374
 5506TIP3    H138153   3.440   1.554   2.066  0.2847 -0.5354 -0.7152
 5506TIP3    H238154   3.444   1.698   2.110 -1.7008 -0.9280  0.8821
 5507TIP3   OH238155   3.914   5.696   0.115 -0.0740  0.0974 -0.5616
 5507TIP3    H138156   3.965   5.649   0.182 -0.7454  0.5243  0.2703
 5507TIP3    H238157   3.826   5.659   0.123 -0.1010 -0.0295 -1.4044
 5508TIP3   OH238158   1.467   3.893   0.799 -0.1070  0.1554 -0.1777
 5508TIP3    H138159   1.417   3.859   0.725  0.1836 -0.6603 -0.0168
 5508TIP3    H238160   1.517   3.966   0.763 -1.5156  1.0925 -0.3007
 5509TIP3   OH238161   2.328   5.648   2.217 -0.1591  0.2648 -0.6113
 5509TIP3    H138162   2.282   5.568   2.192 -0.4679  0.1560  0.2951
 5509TIP3    H238163   2.415   5.638   2.177 -0.4648 -0.1363 -1.2032
 5510TIP3   OH238164   4.149   0.142   7.793 -0.4022 -0.1003  0.1246
 5510TIP3    H138165   4.148   0.137   7.888 -2.2346 -0.7809  0.1034
 5510TIP3    H238166   4.143   0.235   7.773 -2.1273 -0.0514  0.7145
 5511TIP3   OH238167   6.749   1.372   2.836 -0.2647 -0.2885  0.2632
 5511TIP3    H138168   6.706   1.456   2.822  0.4378 -0.1219 -1.0402
 5511TIP3    H238169   6.679   1.315   2.868 -1.5493 -0.0501 -1.8758
 5512TIP3   OH238170   2.361   3.909   7.843  0.0687 -0.0163  0.0310
 5512TIP3    H138171   2.445   3.912   7.797 -0.0320  0.4737 -0.1302
 5512TIP3    H238172   2.295   3.923   7.774 -0.0822  0.7107  0.3116
 5513TIP3   OH238173   2.460   4.147   8.290  0.2539  0.2014  0.0168
 5513TIP3    H138174   2.409   4.203   8.348 -0.4111 -0.7029  0.3281
 5513TIP3    H238175   2.395   4.102   8.236  0.7518 -0.3918 -0.1121
 5514TIP3   OH238176   5.879   1.133   8.456 -0.6413  0.6843 -0.4275
 5514TIP3    H138177   5.931   1.100   8.382 -0.2222 -1.5730  0.7840
 5514TIP3    H238178   5.944   1.164   8.519 -0.8038 -0.5349  0.3690
 5515TIP3   OH238179   1.557   0.192   2.398  0.0431 -0.0639 -0.2014
 5515TIP3    H138180   1.605   0.222   2.476  1.3534  0.1306 -1.0386
 5515TIP3    H238181   1.504   0.119   2.428 -1.8202  1.8723  1.5215
 5516TIP3   OH238182   6.728   1.064   8.362 -0.0308 -0.1119  0.4223
 5516TIP3    H138183   6.749   1.039   8.452  0.5637  2.6962  1.1431
 5516TIP3    H238184   6.813   1.079   8.321 -0.2928 -1.4037 -0.6697
 5517TIP3   OH238185   3.298   0.164   0.572  0.0899 -0.1264 -0.7658
 5517TIP3    H138186   3.219   0.155   0.518 -0.7614 -1.2120  0.6077
 5517TIP3    H238187   3.330   0.075   0.584 -0.2361 -0.0185  1.2062
 5518TIP3   OH238188   1.330   2.222   8.791  0.2646 -0.3800  0.0904
 5518TIP3    H138189   1.394   2.214   8.861 -0.7854  2.5832  1.5387
 5518TIP3    H238190   1.381   2.247   8.714  0.9833  0.8126  0.9370
 5519TIP3   OH238191   6.729   3.326   0.350 -0.3540 -0.2251 -0.2592
 5519TIP3    H138192   6.795   3.262   0.324  0.6910  0.6543  0.1632
 5519TIP3    H238193   6.764   3.410   0.321 -1.1837  0.2851  0.1814
 5520TIP3   OH238194   0.573   5.236   0.109 -0.6481  0.2573 -0.1553
 5520TIP3    H138195   0.515   5.172   0.066 -2.3028  1.5252  0.0923
 5520TIP3    H238196   0.559   5.221   0.203  0.4532 -0.3028 -0.0713
 5521TIP3   OH238197   6.486   2.772   8.943  0.4077  0.0873  0.9317
 5521TIP3    H138198   6.503   2.715   9.018 -2.3530 -0.8273  0.9533
 5521TIP3    H238199   6.487   2.714   8.867 -1.2338  0.1726  0.8143
 5522TIP3   OH238200   6.709   2.974   0.961  0.1439  0.6558  0.2149
 5522TIP3    H138201   6.724   3.061   0.923  1.1493  0.1078 -0.6909
 5522TIP3    H238202   6.628   2.943   0.919  1.1858  0.1008 -1.4726
 5523TIP3   OH238203   4.586   4.162   2.503  0.3980  0.1337  0.3759
 5523TIP3    H138204   4.547   4.075   2.510  0.8396 -0.1948 -1.0638
 5523TIP3    H238205   4.670   4.147   2.461  1.0869  1.1102  1.3569
 5524TIP3   OH238206   4.605   5.724   0.569  0.2931 -0.7162  0.1101
 5524TIP3    H138207   4.636   5.640   0.536  0.5980 -0.6411  0.2012
 5524TIP3    H238208   4.681   5.761   0.614 -0.0098 -0.6459  0.5596
 5525TIP3   OH238209   6.606   0.926   1.441  0.2833 -0.0079 -0.1778
 5525TIP3    H138210   6.587   0.869   1.516  1.6528 -2.0266 -1.2768
 5525TIP3    H238211   6.525   0.928   1.391  0.2799 -1.2368 -0.2424
 5526TIP3   OH238212   3.445   2.332   1.875 -0.0818  0.4372 -0.9153
 5526TIP3    H138213   3.361   2.286   1.875  0.4199 -0.6563  2.0871
 5526TIP3    H238214   3.509   2.266   1.850  0.3905 -0.0844  1.4386
 5527TIP3   OH238215   0.392   4.676   0.132  0.8099  0.1725  0.5902
 5527TIP3    H138216   0.331   4.725   0.187  1.7417  0.3323  1.5128
 5527TIP3    H238217   0.473   4.727   0.136  0.6466  0.7061 -1.7186
 5528TIP3   OH238218   0.219   0.530   3.268  0.6580  0.3564 -1.0952
 5528TIP3    H138219   0.212   0.626   3.270 -0.2164  0.3044 -0.9554
 5528TIP3    H238220   0.264   0.508   3.349  1.3662  0.6802 -1.3945
 5529TIP3   OH238221   1.024   4.753   0.027 -0.7981  0.2014  0.6585
 5529TIP3    H138222   0.948   4.744   0.084 -1.0773  0.1359  0.2803
 5529TIP3    H238223   1.094   4.705   0.072 -0.7039  1.1004  1.4999
 5530TIP3   OH238224   3.916   2.621   8.355 -0.6036  0.0021 -0.5594
 5530TIP3    H138225   3.831   2.664   8.350 -0.3552  0.7588  1.1660
 5530TIP3    H238226   3.943   2.629   8.447  0.7370 -1.3769 -0.7768
 5531TIP3   OH238227   1.644   1.134   0.958 -0.0290  0.2988 -0.1835
 5531TIP3    H138228   1.730   1.096   0.940 -0.4713 -0.7515 -0.1036
 5531TIP3    H238229   1.640   1.140   1.054  0.7957  2.3551 -0.2259
 5532TIP3   OH238230   2.793   3.263   7.849  0.8747  0.4620 -0.1054
 5532TIP3    H138231   2.822   3.348   7.815  1.3830 -0.1994 -1.3758
 5532TIP3    H238232   2.733   3.230   7.782  2.9450 -1.4801 -1.1376
 5533TIP3   OH238233   4.606   6.113   0.584  0.3773 -0.1171  0.1343
 5533TIP3    H138234   4.644   6.056   0.517 -0.2321  0.1392 -0.4506
 5533TIP3    H238235   4.524   6.069   0.608 -0.7140  1.0800 -1.2104
 5534TIP3   OH238236   3.744   2.897   0.680  0.0942  0.2913 -0.0986
 5534TIP3    H138237   3.711   2.965   0.621 -0.5431  0.2392  0.1838
 5534TIP3    H238238   3.667   2.871   0.731  0.7937  0.8917  1.3105
 5535TIP3   OH238239   4.521   4.676   8.536  0.3741 -0.1627 -0.2613
 5535TIP3    H138240   4.615   4.670   8.524  0.3906 -0.2485 -0.0845
 5535TIP3    H238241   4.510   4.699   8.628  0.3089  1.8834 -0.7322
 5536TIP3   OH238242   3.503   1.039   8.572 -0.7364  0.6212  0.0994
 5536TIP3    H138243   3.418   1.077   8.597 -1.2703  0.1055 -0.8659
 5536TIP3    H238244   3.568   1.098   8.611 -1.5357  2.2732 -0.9422
 5537TIP3   OH238245   3.536   2.655   3.115 -0.1632  0.4290  0.0398
 5537TIP3    H138246   3.557   2.716   3.044 -0.5535 -0.3670 -0.7690
 5537TIP3    H238247   3.620   2.637   3.157  0.6756 -1.6472 -2.2980
 5538TIP3   OH238248   2.310   5.323   0.184  0.0771  0.2927 -0.2874
 5538TIP3    H138249   2.260   5.395   0.220  0.3181  0.1216  0.4083
 5538TIP3    H238250   2.275   5.310   0.096  0.5395  1.7426 -0.7067
 5539TIP3   OH238251   3.263   6.255   0.661 -0.0051 -0.1791 -0.1257
 5539TIP3    H138252   3.235   6.166   0.643  0.5458 -0.1485 -1.2305
 5539TIP3    H238253   3.192   6.310   0.628  0.5899 -0.1559 -1.4236
 5540TIP3   OH238254   5.521   2.202   3.446  0.0999  0.1123  0.5475
 5540TIP3    H138255   5.566   2.285   3.459  0.7594  0.3350 -2.3860
 5540TIP3    H238256   5.509   2.167   3.534 -0.1972  3.2562  1.8979
 5541TIP3   OH238257   4.214   0.128   8.568 -0.0197 -0.6169  0.5966
 5541TIP3    H138258   4.204   0.222   8.553 -0.4560 -1.0766 -2.6860
 5541TIP3    H238259   4.125   0.095   8.574  0.1183 -0.9721  0.7092
 5542TIP3   OH238260   1.181   6.606   7.959  0.0073  0.4053  0.7923
 5542TIP3    H138261   1.194   6.516   7.986 -0.5050 -0.0831 -0.4950
 5542TIP3    H238262   1.261   6.629   7.912 -0.5706 -0.0114 -0.4448
 5543TIP3   OH238263   5.577   6.527   0.992  0.2365 -0.1126  0.6810
 5543TIP3    H138264   5.629   6.592   1.038  0.5938 -0.4207  0.7186
 5543TIP3    H238265   5.639   6.484   0.933 -0.2826  0.5159 -0.3534
 5544TIP3   OH238266   5.959   6.576   1.692  0.3032 -0.1497  0.4449
 5544TIP3    H138267   5.977   6.485   1.714  0.9044  0.2366  1.6135
 5544TIP3    H238268   6.039   6.607   1.649  0.5786  0.1797  1.1905
 5545TIP3   OH238269   1.836   2.483   8.313 -0.1994 -0.4355 -0.0953
 5545TIP3    H138270   1.911   2.506   8.367 -0.5462  2.5146 -0.6808
 5545TIP3    H238271   1.762   2.485   8.373 -0.0122 -2.1574  0.2418
 5546TIP3   OH238272   5.956   2.386   8.914  0.6511  0.6128  0.3413
 5546TIP3    H138273   6.019   2.324   8.877  0.8319  0.7589  0.4033
 5546TIP3    H238274   6.008   2.438   8.976  0.0987 -0.4722  1.7799
 5547TIP3   OH238275   2.837   3.666   8.507 -0.4519 -0.1460  0.4675
 5547TIP3    H138276   2.820   3.576   8.535  4.1133 -1.5450 -0.3237
 5547TIP3    H238277   2.889   3.704   8.577  1.5943  0.1435 -1.0883
 5548TIP3   OH238278   6.761   6.632   0.281 -0.9311 -0.4433 -0.0582
 5548TIP3    H138279   6.720   6.689   0.215 -1.5862 -0.4074  0.3732
 5548TIP3    H238280   6.754   6.544   0.245 -2.1087 -0.5319  0.3651
 5549TIP3   OH238281   5.228   1.621   8.921 -0.0108  0.3747  0.0763
 5549TIP3    H138282   5.306   1.673   8.900  0.9224 -0.4792  1.2468
 5549TIP3    H238283   5.159   1.658   8.866  1.1528  1.3285 -0.8129
 5550TIP3   OH238284   1.458   5.854   7.729  0.2979  0.3793 -0.0784
 5550TIP3    H138285   1.463   5.919   7.659  1.4988  0.2555 -0.1370
 5550TIP3    H238286   1.458   5.770   7.685  0.4231  0.3127  0.0459
 5551TIP3   OH238287   1.077   1.382   3.053 -0.2270  0.4980  0.1268
 5551TIP3    H138288   1.014   1.360   2.985 -1.2146  2.0631  0.4898
 5551TIP3    H238289   1.115   1.297   3.079  0.8241 -0.0898 -2.9019
 5552TIP3   OH238290   6.318   5.122   8.854  0.0956 -0.6913 -0.3726
 5552TIP3    H138291   6.288   5.194   8.799  2.3197  0.4410 -0.2018
 5552TIP3    H238292   6.387   5.160   8.908  0.0039 -2.4966  1.1185
 5553TIP3   OH238293   5.155   6.220   8.698  0.0480  0.5908 -0.2533
 5553TIP3    H138294   5.112   6.293   8.654  0.0957  0.7810  0.0079
 5553TIP3    H238295   5.211   6.181   8.631 -0.6877  0.2027 -0.6596
 5554TIP3   OH238296   5.484   1.969   0.978  0.4858  0.0778 -0.1321
 5554TIP3    H138297   5.441   1.938   1.058  0.8154  0.3374  0.1453
 5554TIP3    H238298   5.433   1.929   0.908 -0.9963  1.3791  0.1579
 5555TIP3   OH238299   0.128   5.379   8.133  0.3028  0.0408 -0.4738
 5555TIP3    H138300   0.155   5.287   8.136  0.2532  0.0568  1.0631
 5555TIP3    H238301   0.209   5.429   8.145  0.1313  0.1649  0.1866
 5556TIP3   OH238302   3.383   2.666   2.841  0.1939 -0.0052  0.2550
 5556TIP3    H138303   3.419   2.623   2.763 -2.3581  1.6794 -2.0447
 5556TIP3    H238304   3.341   2.595   2.890 -0.6487 -0.7563 -1.4474
 5557TIP3   OH238305   3.215   2.967   1.841  0.2343 -0.0478  0.7569
 5557TIP3    H138306   3.145   2.912   1.807  0.8005 -1.7287  2.1264
 5557TIP3    H238307   3.200   3.053   1.803 -1.0025 -1.0180 -1.0636
 5558TIP3   OH238308   3.519   5.340   8.297  0.2720 -0.0922  0.0116
 5558TIP3    H138309   3.570   5.421   8.291  1.4451 -0.8706 -1.0201
 5558TIP3    H238310   3.583   5.272   8.316 -0.5544 -0.9245 -0.0894
 5559TIP3   OH238311   1.245   4.317   2.234  0.1504  0.3326 -0.1613
 5559TIP3    H138312   1.294   4.397   2.213  0.5609 -0.0209 -0.5649
 5559TIP3    H238313   1.223   4.327   2.327  3.2470 -0.6453  0.8014
 5560TIP3   OH238314   0.555   4.217   1.519 -0.2152 -0.1855 -0.3181
 5560TIP3    H138315   0.546   4.178   1.432  0.1410 -1.0945  0.0383
 5560TIP3    H238316   0.641   4.188   1.550  0.2600  1.2430 -0.1936
 5561TIP3   OH238317   0.325   1.070   1.321  0.2674  0.3273  0.2071
 5561TIP3    H138318   0.397   1.052   1.382 -1.4953 -3.8932  1.4186
 5561TIP3    H238319   0.249   1.083   1.377 -0.5781  1.1326 -1.0879
 5562TIP3   OH238320   0.460   2.281   3.160  0.3660 -1.3956 -0.3036
 5562TIP3    H138321   0.551   2.286   3.188  0.0502 -1.5124  0.8215
 5562TIP3    H238322   0.445   2.360   3.108  0.4371 -0.0526  1.6194
 5563TIP3   OH238323   1.134   0.522   2.021  0.1403 -0.1826 -0.4873
 5563TIP3    H138324   1.220   0.546   2.056  1.0341 -1.0987 -1.8977
 5563TIP3    H238325   1.086   0.605   2.015  1.6127  0.6528 -1.3782
 5564TIP3   OH238326   4.108   6.725   0.631 -0.4717  0.3090  0.3477
 5564TIP3    H138327   4.121   6.636   0.599  0.9175  1.5574 -3.1651
 5564TIP3    H238328   4.013   6.739   0.625 -0.7985 -1.0732  1.6392
 5565TIP3   OH238329   4.743   2.072   7.854  0.6757 -0.6165 -0.5869
 5565TIP3    H138330   4.656   2.085   7.892  0.5993 -0.7593 -0.7126
 5565TIP3    H238331   4.741   2.123   7.773  0.3663 -1.4139 -1.0948
 5566TIP3   OH238332   2.618   1.292   0.235 -0.0815 -0.0961  0.4453
 5566TIP3    H138333   2.634   1.217   0.292 -0.1289  0.6040  1.3961
 5566TIP3    H238334   2.539   1.269   0.186  1.5667 -1.9886 -1.5654
 5567TIP3   OH238335   0.273   6.620   0.285  0.5994  0.2571  0.4740
 5567TIP3    H138336   0.195   6.605   0.338  1.5410  1.7786  2.4517
 5567TIP3    H238337   0.240   6.632   0.196 -1.3103 -0.0398  1.1026
 5568TIP3   OH238338   3.011   1.455   1.810  0.1894  0.0703  0.3204
 5568TIP3    H138339   2.966   1.382   1.768  0.5311 -1.6528  2.7349
 5568TIP3    H238340   2.945   1.524   1.815 -0.4410 -0.3828 -1.1561
 5569TIP3   OH238341   1.732   6.627   1.172 -0.1450  0.6132 -0.6423
 5569TIP3    H138342   1.676   6.550   1.179  2.2893 -1.2643 -0.4296
 5569TIP3    H238343   1.782   6.613   1.092 -0.8681  2.9317 -1.5889
 5570TIP3   OH238344   2.381   6.018   8.172 -0.9680 -0.8860 -0.2206
 5570TIP3    H138345   2.357   6.051   8.259  1.2395  2.6460 -0.7316
 5570TIP3    H238346   2.341   6.080   8.111 -1.1138 -2.3410 -1.6810
 5571TIP3   OH238347   4.560   0.614   1.795 -0.0146 -0.4320  0.5715
 5571TIP3    H138348   4.491   0.654   1.849  0.6623 -1.8221  2.5691
 5571TIP3    H238349   4.549   0.654   1.709 -3.1637 -0.4044  0.8681
 5572TIP3   OH238350   3.045   3.755   0.365  0.0506  0.1806  0.6659
 5572TIP3    H138351   3.100   3.764   0.443  0.8224  0.3936  0.1084
 5572TIP3    H238352   2.960   3.790   0.392 -0.2686 -1.4833  1.9819
 5573TIP3   OH238353   5.775   2.824   3.101  0.6434 -0.1609  0.3425
 5573TIP3    H138354   5.855   2.801   3.054  0.5399 -1.8906  0.9280
 5573TIP3    H238355   5.764   2.918   3.086  2.3399 -0.0456 -0.4038
 5574TIP3   OH238356   2.731   6.517   0.463 -0.0106 -0.0572  0.0999
 5574TIP3    H138357   2.706   6.465   0.387 -0.4387 -0.4691  0.5185
 5574TIP3    H238358   2.826   6.528   0.455 -0.1372  0.4255 -0.8103
 5575TIP3   OH238359   5.840   2.835   0.497  0.0908 -0.0858  0.3090
 5575TIP3    H138360   5.885   2.900   0.550 -0.2941 -2.0791  3.3286
 5575TIP3    H238361   5.820   2.764   0.558 -2.5712 -1.5434 -2.0158
 5576TIP3   OH238362   0.242   3.077   1.506  0.3988 -0.3713  0.0432
 5576TIP3    H138363   0.312   3.099   1.446  3.1053 -1.0521  2.6884
 5576TIP3    H238364   0.220   2.986   1.485 -0.7234  0.2627 -1.6737
 5577TIP3   OH238365   0.844   5.166   1.791 -0.3847  0.4642  0.6592
 5577TIP3    H138366   0.853   5.119   1.708 -2.7748 -0.4797  0.8521
 5577TIP3    H238367   0.903   5.241   1.783  3.5599 -2.3565  0.2620
 5578TIP3   OH238368   4.522   5.556   1.541 -0.1765 -0.1883  0.0937
 5578TIP3    H138369   4.441   5.579   1.586 -0.5966 -1.3280 -0.0599
 5578TIP3    H238370   4.521   5.607   1.460 -1.5213 -1.3890 -0.6733
 5579TIP3   OH238371   3.227   0.568   2.504  0.1347 -0.3841 -0.1320
 5579TIP3    H138372   3.251   0.660   2.514 -1.2456 -0.0658  0.3980
 5579TIP3    H238373   3.269   0.524   2.578  1.8133 -0.4272 -1.0443
 5580TIP3   OH238374   2.998   2.932   0.616 -0.2306  0.5068  0.0072
 5580TIP3    H138375   2.911   2.900   0.595  0.2154 -0.5123 -0.3389
 5580TIP3    H238376   2.997   3.024   0.590 -1.2696  0.5671  0.2243
 5581TIP3   OH238377   1.304   1.564   8.768 -0.1513 -0.4204  0.0557
 5581TIP3    H138378   1.277   1.651   8.739 -2.4150 -1.0914 -0.0235
 5581TIP3    H238379   1.256   1.504   8.712  2.0533 -1.7781 -0.4861
 5582TIP3   OH238380   5.803   6.213   1.549  0.0683  0.1674  0.2043
 5582TIP3    H138381   5.874   6.204   1.612  0.5659  2.9946  0.1560
 5582TIP3    H238382   5.744   6.140   1.570  0.9721  0.0871  2.8993
 5583TIP3   OH238383   4.456   5.359   0.926 -0.4696 -0.4740  0.0924
 5583TIP3    H138384   4.427   5.447   0.949 -0.8919 -0.8453  1.0075
 5583TIP3    H238385   4.378   5.317   0.890 -0.1854 -0.3791 -0.6550
 5584TIP3   OH238386   1.558   1.491   2.949 -0.6287 -0.1081 -0.2101
 5584TIP3    H138387   1.482   1.549   2.944 -0.6883 -0.1362  0.3171
 5584TIP3    H238388   1.558   1.445   2.865 -0.3755  0.9077 -0.7879
 5585TIP3   OH238389   5.137   5.508   2.031 -0.5927 -0.0340 -0.3760
 5585TIP3    H138390   5.065   5.470   2.082 -1.4285  0.5787 -1.0595
 5585TIP3    H238391   5.099   5.526   1.945  0.5140 -0.1115 -0.9031
 5586TIP3   OH238392   0.035   1.205   1.689  0.0861  0.2638 -0.1325
 5586TIP3    H138393   0.092   1.281   1.704 -1.1292  1.1192  0.2987
 5586TIP3    H238394   0.075   1.136   1.742  1.6209  0.3540 -1.0937
 5587TIP3   OH238395   5.491   5.639   0.753  0.2930 -0.3693 -0.3271
 5587TIP3    H138396   5.450   5.635   0.667  0.6357 -3.2193 -0.4596
 5587TIP3    H238397   5.509   5.732   0.767 -0.5544  0.2665 -2.9293
 5588TIP3   OH238398   0.119   4.608   3.254  0.0609  0.2795  0.3379
 5588TIP3    H138399   0.029   4.575   3.257  0.1207  0.1737  1.2398
 5588TIP3    H238400   0.168   4.540   3.208 -0.2577  0.1798  0.1419
 5589TIP3   OH238401   4.915   2.462   0.019 -0.3742 -0.3461  0.0039
 5589TIP3    H138402   4.867   2.541   0.041 -0.8093 -0.5102 -0.3322
 5589TIP3    H238403   5.007   2.486   0.027 -0.5090  0.0862  0.2624
 5590TIP3   OH238404   3.600   6.711   7.624 -0.2038  0.2550 -0.0316
 5590TIP3    H138405   3.522   6.657   7.640  1.1532 -1.9227 -0.5296
 5590TIP3    H238406   3.572   6.774   7.558 -1.8499  0.2414  0.6046
 5591TIP3   OH238407   1.085   3.479   0.398 -0.3711 -0.2119 -0.4103
 5591TIP3    H138408   1.053   3.404   0.348 -0.5703 -0.2531 -0.2228
 5591TIP3    H238409   1.013   3.503   0.456  0.2446 -0.9144  0.7066
 5592TIP3   OH238410   1.768   3.575   8.733 -0.1252 -0.0145  0.4157
 5592TIP3    H138411   1.730   3.648   8.780  0.8789 -0.3054  1.7259
 5592TIP3    H238412   1.692   3.522   8.706 -0.7223 -0.5184  2.8378
 5593TIP3   OH238413   5.171   6.073   0.268  0.6327 -0.4861  0.5575
 5593TIP3    H138414   5.097   6.039   0.217  0.7959 -3.2091  1.9465
 5593TIP3    H238415   5.183   6.162   0.236 -2.3186 -0.4273 -0.7267
 5594TIP3   OH238416   3.949   1.081   2.334 -0.0207  0.0244  0.4068
 5594TIP3    H138417   3.898   1.117   2.260  0.9141  1.0219  0.2298
 5594TIP3    H238418   3.941   0.986   2.324 -2.1995  0.1246  0.6355
 5595TIP3   OH238419   0.563   3.082   0.983 -0.9063 -0.6789  0.1479
 5595TIP3    H138420   0.502   3.009   0.976 -1.2080 -0.4721  0.5682
 5595TIP3    H238421   0.519   3.155   0.940 -1.2082 -0.3802  0.9411
 5596TIP3   OH238422   4.930   0.232   8.254  0.0006  0.2518  0.1626
 5596TIP3    H138423   4.903   0.317   8.289 -0.0954  0.3206 -0.0796
 5596TIP3    H238424   4.983   0.193   8.325  1.2353  1.1184 -0.2540
 5597TIP3   OH238425   6.765   4.078   1.469  0.5810 -0.0016  0.1711
 5597TIP3    H138426   6.798   3.989   1.478  2.6420  0.4525 -2.0819
 5597TIP3    H238427   6.838   4.134   1.496 -0.5966  1.0579  1.3254
 5598TIP3   OH238428   3.092   0.415   1.015 -0.3286  0.1717 -0.0498
 5598TIP3    H138429   3.182   0.415   0.983 -0.4084 -1.0769 -0.2879
 5598TIP3    H238430   3.073   0.508   1.030  1.1240  0.4340  0.3755
 5599TIP3   OH238431   2.381   2.808   3.508  0.1539  0.1015  0.4641
 5599TIP3    H138432   2.416   2.748   3.442 -1.4986 -0.4716  0.0617
 5599TIP3    H238433   2.457   2.858   3.537  0.9530  0.3834 -1.8758
 5600TIP3   OH238434   5.247   3.000   1.513  0.3528  0.0572  0.3433
 5600TIP3    H138435   5.321   3.054   1.541  0.1357  0.0687  0.8983
 5600TIP3    H238436   5.173   3.030   1.566 -0.3648  0.9320 -1.1004
 5601TIP3   OH238437   4.610   0.364   2.067 -0.3592 -0.0856  0.7975
 5601TIP3    H138438   4.679   0.305   2.037 -0.5624  1.3736 -3.1600
 5601TIP3    H238439   4.655   0.427   2.123  1.6684  0.7202 -1.5194
 5602TIP3   OH238440   2.410   4.781   8.641 -0.1400 -0.2347  1.2766
 5602TIP3    H138441   2.406   4.860   8.587 -0.9945 -1.5327 -0.6771
 5602TIP3    H238442   2.350   4.798   8.714 -1.0327  0.5838  0.3743
 5603TIP3   OH238443   0.778   5.222   2.242  0.2849  0.4008 -0.6084
 5603TIP3    H138444   0.739   5.197   2.158  0.0040  0.2577 -0.4365
 5603TIP3    H238445   0.771   5.143   2.296 -0.6555  0.8495 -0.0437
 5604TIP3   OH238446   6.314   6.247   0.248 -0.5140  0.7060 -0.0801
 5604TIP3    H138447   6.245   6.305   0.215  0.2361  0.2864 -2.6653
 5604TIP3    H238448   6.294   6.162   0.209  0.5889  0.2016  0.4216
 5605TIP3   OH238449   4.420   5.912   0.687  0.7721  0.0889 -0.4723
 5605TIP3    H138450   4.460   5.864   0.615  3.2387  0.3599  0.6172
 5605TIP3    H238451   4.331   5.878   0.693  1.0076 -1.0328 -2.6162
 5606TIP3   OH238452   3.915   1.495   2.948  0.1779 -0.2693  0.1011
 5606TIP3    H138453   3.993   1.450   2.983  0.9507 -0.1165 -1.3509
 5606TIP3    H238454   3.886   1.439   2.876 -2.1269 -1.2225  1.6678
 5607TIP3   OH238455   0.314   3.910   1.049 -0.6033  0.0703  0.0012
 5607TIP3    H138456   0.339   3.859   0.972  0.7581 -0.5461  0.8012
 5607TIP3    H238457   0.372   3.878   1.119 -1.6511  0.7472  1.2345
 5608TIP3   OH238458   0.133   4.289   1.544 -0.0247  0.6446 -0.1498
 5608TIP3    H138459   0.125   4.379   1.577  1.4483  0.2818  1.3158
 5608TIP3    H238460   0.216   4.258   1.580 -0.2090 -1.1043 -1.1507
 5609TIP3   OH238461   2.598   2.534   2.636  0.5385  0.3250  0.0365
 5609TIP3    H138462   2.683   2.536   2.681  0.4243 -1.4968  0.4081
 5609TIP3    H238463   2.598   2.450   2.590 -1.2178  0.1177  0.3544
 5610TIP3   OH238464   0.322   5.167   8.092 -0.0607 -0.5921  0.6399
 5610TIP3    H138465   0.331   5.166   7.996  0.0414  0.6656  0.6079
 5610TIP3    H238466   0.388   5.230   8.121 -2.4064  1.7974  1.2148
 5611TIP3   OH238467   4.432   6.398   8.802  0.4546  0.8333 -0.4133
 5611TIP3    H138468   4.432   6.494   8.804  0.4294  0.8847 -1.9060
 5611TIP3    H238469   4.379   6.376   8.725  3.0904 -0.3112 -2.0322
 5612TIP3   OH238470   1.594   0.825   8.571  0.2557 -0.0004 -0.2832
 5612TIP3    H138471   1.590   0.776   8.653 -2.5588  2.3912  1.1665
 5612TIP3    H238472   1.666   0.887   8.583  0.0045  0.1823  0.2969
 5613TIP3   OH238473   2.586   5.026   2.434  0.0002  0.2517  0.0980
 5613TIP3    H138474   2.606   5.105   2.484  1.1347 -0.2202  0.4035
 5613TIP3    H238475   2.491   5.016   2.443 -0.5870  2.8474 -1.8294
 5614TIP3   OH238476   5.045   3.188   1.805 -0.3412  0.0619 -0.8147
 5614TIP3    H138477   5.122   3.184   1.861 -0.6057 -0.0982 -0.4577
 5614TIP3    H238478   5.018   3.097   1.796 -3.1692  0.3259  2.8203
 5615TIP3   OH238479   5.451   1.207   2.597 -0.0461  0.2349  0.4657
 5615TIP3    H138480   5.473   1.120   2.563 -0.1100  1.3411 -2.8046
 5615TIP3    H238481   5.425   1.192   2.688  1.3239 -2.9265  0.4564
 5616TIP3   OH238482   0.538   4.366   2.651 -0.1234 -0.7142 -0.1682
 5616TIP3    H138483   0.538   4.422   2.573  0.9009 -0.2344  0.1600
 5616TIP3    H238484   0.615   4.310   2.639  0.9808  0.4208  1.2179
 5617TIP3   OH238485   3.474   2.391   1.287 -0.1978  0.5524 -0.0201
 5617TIP3    H138486   3.460   2.481   1.318  1.7962  0.3275  1.7277
 5617TIP3    H238487   3.490   2.340   1.366 -1.0129 -1.3463 -1.0013
 5618TIP3   OH238488   6.436   6.514   0.516  0.4701 -0.0033 -0.2003
 5618TIP3    H138489   6.450   6.491   0.425 -0.8680  0.6489 -0.6012
 5618TIP3    H238490   6.432   6.429   0.562 -1.5990 -0.5109 -1.2029
 5619TIP3   OH238491   5.581   3.559   8.576 -0.1249  1.5846  0.5021
 5619TIP3    H138492   5.533   3.580   8.496  1.7251 -1.1043 -1.4872
 5619TIP3    H238493   5.530   3.490   8.618  1.6023 -1.0696 -1.4643
 5620TIP3   OH238494   3.897   6.012   8.118  0.3303  0.1706 -0.4717
 5620TIP3    H138495   3.944   6.094   8.126 -0.0412  0.4607 -1.1460
 5620TIP3    H238496   3.920   5.962   8.197  0.4248  0.9802  0.0178
 5621TIP3   OH238497   2.660   5.909   2.130 -0.2196 -0.0392 -0.4928
 5621TIP3    H138498   2.747   5.876   2.108  0.3764  0.1344  1.4427
 5621TIP3    H238499   2.675   5.972   2.201 -2.0103 -0.9292  0.7537
 5622TIP3   OH238500   1.732   3.433   2.464  0.0229  0.1101 -0.3808
 5622TIP3    H138501   1.694   3.471   2.544  0.7403 -0.2999  0.1642
 5622TIP3    H238502   1.703   3.342   2.465  0.6758 -0.1003 -0.1725
 5623TIP3   OH238503   6.206   5.799   8.626 -0.3803 -0.1186 -0.2810
 5623TIP3    H138504   6.146   5.793   8.701  0.2372 -1.2099  0.1428
 5623TIP3    H238505   6.201   5.890   8.599 -0.3804  0.3801  1.2907
 5624TIP3   OH238506   5.677   2.518   1.435 -0.2166  0.1991  0.2683
 5624TIP3    H138507   5.683   2.570   1.355  1.5529  2.1090  1.5056
 5624TIP3    H238508   5.749   2.456   1.428 -0.2775  0.1364  0.2057
 5625TIP3   OH238509   2.983   1.683   8.456  0.5069 -0.2480 -0.0942
 5625TIP3    H138510   2.918   1.640   8.512  0.3226 -1.1335 -0.9674
 5625TIP3    H238511   2.943   1.682   8.369  1.3800 -0.1177 -0.5005
 5626TIP3   OH238512   4.590   6.058   2.335 -0.4074  0.1010 -0.0603
 5626TIP3    H138513   4.556   5.996   2.400 -2.0653  0.1097 -0.8588
 5626TIP3    H238514   4.669   6.016   2.301  0.2200 -0.1258  1.5903
 5627TIP3   OH238515   4.201   0.535   2.111 -0.1042 -0.4376 -0.3656
 5627TIP3    H138516   4.183   0.474   2.040  0.6626 -1.9926  0.7257
 5627TIP3    H238517   4.247   0.483   2.177 -1.8363  0.6252  1.8225
 5628TIP3   OH238518   5.244   6.202   7.209 -0.5961 -0.1100 -0.1986
 5628TIP3    H138519   5.249   6.140   7.136  1.2424 -0.6740  0.3671
 5628TIP3    H238520   5.318   6.179   7.266 -0.2964  2.1288  0.4065
 5629TIP3   OH238521   1.426   4.560   7.305 -0.8172 -0.2405 -0.3483
 5629TIP3    H138522   1.466   4.633   7.257  1.4213 -1.0081  0.2334
 5629TIP3    H238523   1.482   4.486   7.286 -1.6731 -1.2707  1.0211
 5630TIP3   OH238524   2.957   6.588   1.582 -0.3080  0.0867  0.0760
 5630TIP3    H138525   2.920   6.538   1.655  0.3986 -1.2491 -0.4475
 5630TIP3    H238526   2.886   6.596   1.519 -0.2533 -0.9021 -0.1374
 5631TIP3   OH238527   2.759   3.185   1.183  0.0559 -0.6308 -0.5802
 5631TIP3    H138528   2.695   3.117   1.203 -1.3782  0.3353 -1.6668
 5631TIP3    H238529   2.761   3.187   1.088  0.9192  0.0869 -0.5476
 5632TIP3   OH238530   1.875   3.109   3.476  0.7466 -0.3224  0.0319
 5632TIP3    H138531   1.924   3.109   3.558  0.8301  1.3076  0.0022
 5632TIP3    H238532   1.789   3.075   3.499  1.4587 -2.0748  0.3117
 5633TIP3   OH238533   5.895   2.806   8.582  0.3861 -0.0439  0.4805
 5633TIP3    H138534   5.888   2.720   8.540  1.7181  0.4000 -0.7502
 5633TIP3    H238535   5.988   2.827   8.579 -0.0028  1.8248 -0.0736
 5634TIP3   OH238536   5.332   3.425   8.683  0.1750  0.0123 -0.3767
 5634TIP3    H138537   5.270   3.497   8.690  0.4917  0.2044  0.6800
 5634TIP3    H238538   5.277   3.346   8.683 -0.1349  0.2241 -0.9090
 5635TIP3   OH238539   2.127   6.430   8.334  0.1352 -0.3217  0.0985
 5635TIP3    H138540   2.136   6.409   8.241 -0.0033  0.6655 -0.1440
 5635TIP3    H238541   2.200   6.488   8.353 -1.9021  2.6310 -0.3675
 5636TIP3   OH238542   0.621   1.990   0.945 -0.2338  0.0730 -0.2227
 5636TIP3    H138543   0.707   2.027   0.930 -0.3212  0.3727  0.0013
 5636TIP3    H238544   0.625   1.957   1.035 -0.8270  1.4373  0.3254
 5637TIP3   OH238545   0.995   0.205   2.515  0.1166 -0.7979 -0.1008
 5637TIP3    H138546   1.036   0.256   2.445  1.6021 -0.3779  1.0278
 5637TIP3    H238547   1.065   0.150   2.549 -0.3738 -0.4807  1.5071
 5638TIP3   OH238548   3.882   4.039   3.126 -0.0858 -0.0676 -0.0979
 5638TIP3    H138549   3.804   4.072   3.081  0.0195 -0.6424 -0.7277
 5638TIP3    H238550   3.934   3.999   3.056  0.3165 -0.5411  0.4650
 5639TIP3   OH238551   6.759   4.879   0.216 -0.7254  0.0644  0.1315
 5639TIP3    H138552   6.805   4.920   0.290  0.0449 -0.0665 -0.2722
 5639TIP3    H238553   6.828   4.857   0.154 -0.6754 -4.4500  1.4786
 5640TIP3   OH238554   2.632   4.029   2.885 -0.4075  0.4704 -0.1439
 5640TIP3    H138555   2.686   3.977   2.825  0.4602 -1.9352  2.5184
 5640TIP3    H238556   2.548   3.983   2.888  0.7826 -1.9264  3.2425
 5641TIP3   OH238557   2.946   0.573   2.502  0.5509 -0.3678 -0.3250
 5641TIP3    H138558   2.899   0.496   2.472  3.0554 -0.7088 -4.1048
 5641TIP3    H238559   3.038   0.547   2.500  1.3443  2.0987  0.3614
 5642TIP3   OH238560   0.410   2.109   8.354  0.0713  0.3437  0.3486
 5642TIP3    H138561   0.412   2.017   8.382  1.5133  0.6369  1.3148
 5642TIP3    H238562   0.348   2.110   8.281 -1.4168 -1.0422  1.5113
 5643TIP3   OH238563   4.123   4.972   2.625  0.3339  0.7326  0.8614
 5643TIP3    H138564   4.110   5.066   2.638  0.6548  0.7466  1.1172
 5643TIP3    H238565   4.178   4.946   2.699 -0.0634  0.2712  0.9952
 5644TIP3   OH238566   1.244   3.020   1.728 -0.8619 -0.5458 -0.0476
 5644TIP3    H138567   1.170   2.967   1.698 -2.3584  1.8173 -0.8390
 5644TIP3    H238568   1.273   3.067   1.650  0.8983 -0.7313  0.4601
 5645TIP3   OH238569   5.668   2.774   2.746 -0.6560  0.0448 -0.1183
 5645TIP3    H138570   5.656   2.868   2.761  0.1062  0.3536 -1.3184
 5645TIP3    H238571   5.640   2.760   2.656  0.3496 -0.6516 -0.3442
 5646TIP3   OH238572   5.573   5.149   7.635  0.0576  0.4218 -0.5874
 5646TIP3    H138573   5.478   5.151   7.622 -0.0071 -0.6269 -0.3179
 5646TIP3    H238574   5.594   5.057   7.642  0.6066  0.6904  2.8537
 5647TIP3   OH238575   3.606   5.963   0.164 -0.3257 -0.5212 -0.3478
 5647TIP3    H138576   3.631   5.973   0.256  2.0917  0.1639 -1.0201
 5647TIP3    H238577   3.523   6.010   0.157  0.3826  1.0397  1.1086
 5648TIP3   OH238578   4.785   0.752   8.841 -0.3546  0.2577  0.2324
 5648TIP3    H138579   4.817   0.790   8.923 -2.1296 -0.5853  1.3941
 5648TIP3    H238580   4.816   0.662   8.842  0.5268  0.5357 -0.5843
 5649TIP3   OH238581   2.571   0.254   7.554 -0.0251  0.0349 -0.2780
 5649TIP3    H138582   2.571   0.179   7.614  1.3716  0.1901 -0.0461
 5649TIP3    H238583   2.596   0.328   7.609 -1.4642  0.7081 -0.4897
 5650TIP3   OH238584   2.240   1.063   8.692 -0.3434  0.0719 -0.3201
 5650TIP3    H138585   2.166   1.016   8.654 -0.6071 -0.0605  0.3545
 5650TIP3    H238586   2.235   1.150   8.652 -0.7892  0.0235 -0.3758
 5651TIP3   OH238587   1.576   3.904   8.473 -0.3432  0.0650  0.3616
 5651TIP3    H138588   1.539   3.836   8.529  0.3044 -0.9622 -0.4384
 5651TIP3    H238589   1.502   3.937   8.422 -0.1755 -2.2225 -1.4895
 5652TIP3   OH238590   2.463   2.208   0.683 -0.2223 -0.2618 -0.1191
 5652TIP3    H138591   2.384   2.250   0.717  1.2282  2.4572  0.1485
 5652TIP3    H238592   2.518   2.195   0.760  1.0367  1.2980 -0.6914
 5653TIP3   OH238593   6.507   0.875   3.246  0.1018  0.0060 -0.1194
 5653TIP3    H138594   6.599   0.860   3.225  0.0621  2.2636 -2.4141
 5653TIP3    H238595   6.462   0.874   3.162 -1.5873  1.1871  0.7025
 5654TIP3   OH238596   0.931   5.707   2.321 -0.1606  0.2867  0.5211
 5654TIP3    H138597   0.838   5.691   2.307 -0.1514 -0.0456  0.8035
 5654TIP3    H238598   0.934   5.779   2.385 -0.2094  1.0163 -0.2841
 5655TIP3   OH238599   4.843   2.639   1.348  0.0826 -0.6660 -0.3369
 5655TIP3    H138600   4.873   2.596   1.428 -0.3189  1.8994  1.3246
 5655TIP3    H238601   4.887   2.724   1.349 -1.9088  0.4467 -1.4564
 5656TIP3   OH238602   5.467   1.595   7.883  0.0263 -0.5385  0.4196
 5656TIP3    H138603   5.542   1.611   7.939 -0.7780  0.4707  1.2657
 5656TIP3    H238604   5.477   1.505   7.853  1.5674 -0.4098  0.4876
 5657TIP3   OH238605   1.814   6.044   0.424  0.4513 -0.3631 -0.0038
 5657TIP3    H138606   1.864   6.040   0.343  2.0820 -0.0635  0.9367
 5657TIP3    H238607   1.879   6.064   0.492 -1.0248  0.5986  1.2201
 5658TIP3   OH238608   5.299   5.509   1.607 -0.7095  0.3995 -0.0353
 5658TIP3    H138609   5.216   5.544   1.638 -0.9869 -0.3895  0.1511
 5658TIP3    H238610   5.314   5.432   1.662  0.2504  0.6463  0.0709
 5659TIP3   OH238611   3.711   4.658   2.008  0.1785 -0.0589  0.1848
 5659TIP3    H138612   3.684   4.643   2.099  1.5672 -2.5744  0.2703
 5659TIP3    H238613   3.638   4.705   1.969 -0.9358  0.1099  2.3277
 5660TIP3   OH238614   6.660   0.390   8.963  0.2879 -0.5935 -0.0232
 5660TIP3    H138615   6.624   0.461   8.909  1.1435  0.1576  0.3775
 5660TIP3    H238616   6.594   0.321   8.958 -0.8607  0.4615  0.0828
 5661TIP3   OH238617   3.288   5.164   3.006  0.1384 -0.1202  0.2424
 5661TIP3    H138618   3.237   5.175   3.087  0.9142  1.1772  0.5808
 5661TIP3    H238619   3.373   5.204   3.026 -0.3664  2.2511 -1.9246
 5662TIP3   OH238620   4.374   6.745   0.510  0.3910  0.2874 -0.1104
 5662TIP3    H138621   4.439   6.770   0.576  0.1595  0.1760  0.1611
 5662TIP3    H238622   4.306   6.698   0.559  0.7688 -0.7980 -0.5977
 5663TIP3   OH238623   3.854   6.078   8.488 -0.3670  0.6280 -0.0755
 5663TIP3    H138624   3.881   6.075   8.580 -1.1030 -0.9122  0.1188
 5663TIP3    H238625   3.916   6.021   8.443  0.9348  2.5519 -0.8405
 5664TIP3   OH238626   4.183   0.603   2.445  0.7308  0.6328  0.3314
 5664TIP3    H138627   4.151   0.514   2.429 -3.9471  1.8424  1.3626
 5664TIP3    H238628   4.184   0.612   2.540  0.2228  1.9037  0.2388
 5665TIP3   OH238629   3.650   2.132   8.095 -0.2340 -0.1263 -0.1720
 5665TIP3    H138630   3.702   2.153   8.018 -2.1088  1.9015 -0.9585
 5665TIP3    H238631   3.581   2.075   8.063 -0.5177  0.0091  0.1905
 5666TIP3   OH238632   6.475   5.320   0.815 -0.5621  0.7404 -0.8712
 5666TIP3    H138633   6.547   5.281   0.765  2.0495  2.7904  0.9442
 5666TIP3    H238634   6.492   5.293   0.905 -1.3519  2.2354 -0.2463
 5667TIP3   OH238635   2.393   6.422   8.841 -0.2553  0.3137 -0.2534
 5667TIP3    H138636   2.376   6.455   8.930  0.2341  2.0933 -0.7799
 5667TIP3    H238637   2.314   6.373   8.818 -0.8790  0.8302  0.7204
 5668TIP3   OH238638   4.767   5.595   0.906 -0.4038  0.5371  0.1005
 5668TIP3    H138639   4.674   5.600   0.885 -0.4656  0.6716  0.4030
 5668TIP3    H238640   4.811   5.588   0.821 -0.6097  1.6904 -0.1271
 5669TIP3   OH238641   5.157   3.962   0.657  0.2198 -0.6625 -0.4985
 5669TIP3    H138642   5.200   3.941   0.574  3.1631 -0.7827  0.9342
 5669TIP3    H238643   5.133   3.877   0.694  2.6715 -0.9691  0.5641
 5670TIP3   OH238644   2.170   0.720   7.557  0.7410 -0.4786  0.5209
 5670TIP3    H138645   2.141   0.683   7.641  0.8125 -1.3594  0.1685
 5670TIP3    H238646   2.229   0.653   7.521 -0.5080 -0.8302 -0.9602
 5671TIP3   OH238647   5.033   4.289   8.277  0.5422 -0.4521 -0.0093
 5671TIP3    H138648   5.057   4.334   8.196  0.9451  0.0518  0.3835
 5671TIP3    H238649   4.939   4.303   8.287  0.8297  1.2377  0.6596
 5672TIP3   OH238650   5.164   0.647   1.766  0.1886  0.0308 -0.1876
 5672TIP3    H138651   5.178   0.613   1.678  0.4673 -0.7320  0.1416
 5672TIP3    H238652   5.230   0.602   1.820 -0.3478  0.0591  0.5072
 5673TIP3   OH238653   0.174   4.591   2.182 -0.3895 -0.1638 -0.0999
 5673TIP3    H138654   0.249   4.598   2.122 -1.0875 -0.0232 -0.9816
 5673TIP3    H238655   0.108   4.648   2.144 -1.3001 -1.0395  0.1149
 5674TIP3   OH238656   6.750   3.483   0.686 -0.3170  0.8671 -0.0836
 5674TIP3    H138657   6.819   3.484   0.753 -0.3918 -0.1331  0.0276
 5674TIP3    H238658   6.766   3.561   0.634  0.5249  0.9855  0.3308
 5675TIP3   OH238659   4.849   3.266   0.556 -0.2888  0.1908 -0.2390
 5675TIP3    H138660   4.872   3.232   0.470  0.6658 -0.0790  0.1098
 5675TIP3    H238661   4.758   3.241   0.568  0.1461 -1.5500 -0.3234
 5676TIP3   OH238662   1.421   2.719   0.971 -0.7647  0.1100  0.0256
 5676TIP3    H138663   1.464   2.803   0.988  0.0248 -0.1877 -0.4233
 5676TIP3    H238664   1.328   2.737   0.979 -0.5504  0.4774  2.4650
 5677TIP3   OH238665   0.520   3.211   8.054  0.0101 -0.8255  0.2876
 5677TIP3    H138666   0.560   3.125   8.062 -1.9604 -1.7966  0.4407
 5677TIP3    H238667   0.535   3.236   7.963  2.6815 -0.1721  0.8281
 5678TIP3   OH238668   5.548   5.582   2.100  0.1775  0.4900 -0.0468
 5678TIP3    H138669   5.491   5.518   2.058  0.8093 -1.3763  1.7743
 5678TIP3    H238670   5.489   5.634   2.155 -0.0456 -0.1284  0.3077
 5679TIP3   OH238671   4.597   6.580   7.505 -0.1460  0.1095  0.4953
 5679TIP3    H138672   4.592   6.507   7.444 -0.3198  0.0069  0.6315
 5679TIP3    H238673   4.659   6.551   7.572 -0.9724 -0.3217  1.0938
 5680TIP3   OH238674   4.938   1.121   2.725  0.0028  0.0803  0.6217
 5680TIP3    H138675   4.891   1.162   2.653  1.5511 -0.4490 -0.7359
 5680TIP3    H238676   5.001   1.063   2.683 -0.7993 -2.2797  2.4283
 5681TIP3   OH238677   5.204   5.101   0.663 -0.4946 -0.4489 -0.2852
 5681TIP3    H138678   5.231   5.060   0.745  0.6798 -0.3484 -0.6062
 5681TIP3    H238679   5.257   5.181   0.658 -0.6864 -0.3660 -1.0522
 5682TIP3   OH238680   1.916   0.019   1.635 -0.2428  0.5372  0.1571
 5682TIP3    H138681   1.906  -0.009   1.544  3.5472 -0.3720 -0.1567
 5682TIP3    H238682   1.967   0.099   1.630  2.2033 -0.8168  1.4228
 5683TIP3   OH238683   3.060   3.984   8.345  0.0490 -1.0228  0.3107
 5683TIP3    H138684   3.058   3.890   8.323 -0.6680 -0.8832 -0.2424
 5683TIP3    H238685   3.152   4.001   8.368 -0.1101 -2.2409  2.1154
 5684TIP3   OH238686   6.732   2.741   2.842 -0.3899 -0.1390 -0.0086
 5684TIP3    H138687   6.680   2.667   2.876 -1.2884  0.3046 -0.3882
 5684TIP3    H238688   6.695   2.757   2.755 -0.6870  1.2120  0.3491
 5685TIP3   OH238689   5.195   0.579   1.504  0.1576 -0.0740  0.2653
 5685TIP3    H138690   5.278   0.561   1.460  0.4905  0.5355  0.6268
 5685TIP3    H238691   5.134   0.598   1.433  0.5038  0.1485  0.0235
 5686TIP3   OH238692   6.431   5.229   8.573 -0.1210  0.4022 -0.2816
 5686TIP3    H138693   6.437   5.323   8.556 -0.4049  0.2374 -1.3737
 5686TIP3    H238694   6.513   5.207   8.617  0.8058  0.8373 -1.7103
 5687TIP3   OH238695   5.882   0.143   8.325  0.1884 -0.0165  0.2889
 5687TIP3    H138696   5.936   0.076   8.284 -0.5216 -0.1990 -0.3717
 5687TIP3    H238697   5.935   0.223   8.321  0.2791 -0.1107 -0.6593
 5688TIP3   OH238698   0.193   1.684   0.425 -0.3359  0.0049 -0.2344
 5688TIP3    H138699   0.211   1.699   0.333  0.5360  1.0156  0.0853
 5688TIP3    H238700   0.252   1.613   0.451  1.2228  1.3722  0.1132
 5689TIP3   OH238701   2.627   2.109   2.263 -0.0615 -0.1261  0.0592
 5689TIP3    H138702   2.576   2.039   2.304  0.3555  1.2986  3.3165
 5689TIP3    H238703   2.716   2.075   2.261 -0.1665 -0.3944 -0.1360
 5690TIP3   OH238704   4.945   3.440   1.292 -0.4974  0.2444  0.5460
 5690TIP3    H138705   4.870   3.391   1.326 -1.3988  0.0886 -1.5165
 5690TIP3    H238706   4.910   3.526   1.270 -0.2375 -0.0280 -1.0095
 5691TIP3   OH238707   0.093   2.030   8.514 -0.4976 -0.4791 -0.3648
 5691TIP3    H138708   0.135   1.966   8.457  1.8415  0.3006  0.3886
 5691TIP3    H238709   0.041   1.977   8.575  1.3400 -1.7108  0.2072
 5692TIP3   OH238710   5.020   5.603   1.544  0.3061  0.0616 -0.2433
 5692TIP3    H138711   5.038   5.545   1.470  0.7986 -0.7586  0.5067
 5692TIP3    H238712   4.988   5.684   1.503  1.9140  0.1498 -1.4421
 5693TIP3   OH238713   3.000   6.727   1.180 -0.2806 -0.7685  0.0595
 5693TIP3    H138714   3.038   6.799   1.129 -3.4258  2.1859  1.4812
 5693TIP3    H238715   3.057   6.720   1.257  0.3730 -0.1292 -0.3525
 5694TIP3   OH238716   5.467   6.758   2.046  0.3792 -0.3502  0.1469
 5694TIP3    H138717   5.503   6.759   1.957 -0.3823  1.3399 -0.1849
 5694TIP3    H238718   5.544   6.753   2.103  1.0025  0.5414 -0.5844
 5695TIP3   OH238719   0.326   1.052   0.145  0.3401 -0.3067  0.0862
 5695TIP3    H138720   0.315   0.986   0.077 -0.4713 -0.3760  0.2787
 5695TIP3    H238721   0.280   1.129   0.112  1.3462  0.2048 -0.1721
 5696TIP3   OH238722   5.145   0.505   8.210  0.3867 -0.4569 -0.4753
 5696TIP3    H138723   5.126   0.595   8.237 -1.1245 -1.3937  1.8941
 5696TIP3    H238724   5.091   0.492   8.132  0.4349  0.5786 -0.7065
 5697TIP3   OH238725   2.923   4.759   2.226  0.1716 -0.1926 -0.0883
 5697TIP3    H138726   2.933   4.853   2.212  0.0117 -0.3281 -1.1200
 5697TIP3    H238727   2.952   4.718   2.144 -1.4864 -0.9621 -0.3341
 5698TIP3   OH238728   2.155   0.143   7.998  0.2061 -0.2844  0.4151
 5698TIP3    H138729   2.205   0.217   8.032  1.6018 -1.5984  1.3497
 5698TIP3    H238730   2.214   0.068   8.005 -0.7817 -1.3366 -1.4655
 5699TIP3   OH238731   1.965   5.458   2.668  0.0970  0.2621  0.1283
 5699TIP3    H138732   2.049   5.424   2.636  0.3876  0.8272  0.2746
 5699TIP3    H238733   1.965   5.436   2.761 -0.5016 -0.8909 -0.1345
 5700TIP3   OH238734   5.600   0.402   8.416  0.0123 -0.9445 -0.3270
 5700TIP3    H138735   5.620   0.481   8.365  0.0018 -0.9442 -0.3306
 5700TIP3    H238736   5.507   0.387   8.401 -0.2803 -0.2403  0.6511
 5701TIP3   OH238737   4.866   4.189   0.141  0.0124 -0.4715 -0.3644
 5701TIP3    H138738   4.855   4.094   0.135  0.6445 -0.6420  0.9282
 5701TIP3    H238739   4.947   4.202   0.191 -0.1723  0.7402 -0.3332
 5702TIP3   OH238740   1.841   2.175   0.457  0.5204  0.1441  0.0901
 5702TIP3    H138741   1.892   2.255   0.470  0.1793  0.4144 -0.2182
 5702TIP3    H238742   1.839   2.134   0.544  1.1211  0.2119  0.1411
 5703TIP3   OH238743   3.721   6.685   2.186 -0.1695 -0.4671  0.0349
 5703TIP3    H138744   3.743   6.714   2.098  0.8526 -1.2939  0.0038
 5703TIP3    H238745   3.803   6.652   2.222 -0.9028 -1.6193  0.7154
 5704TIP3   OH238746   0.909   3.524   2.248 -0.0864  0.6933 -0.3935
 5704TIP3    H138747   0.828   3.508   2.297  0.2425  1.7447  0.5084
 5704TIP3    H238748   0.955   3.440   2.251 -0.2051  0.6568  0.8545
 5705TIP3   OH238749   4.051   4.584   8.829  0.2500  0.0106  0.4932
 5705TIP3    H138750   4.094   4.627   8.755 -1.8902 -0.2585 -0.9901
 5705TIP3    H238751   4.110   4.514   8.854  0.9315 -0.0205 -1.1137
 5706TIP3   OH238752   4.141   4.295   2.158  0.1309  0.7548  0.6315
 5706TIP3    H138753   4.211   4.280   2.094 -0.5255 -1.2427  0.3238
 5706TIP3    H238754   4.085   4.218   2.151 -1.3061  1.6279  1.9186
 5707TIP3   OH238755   2.804   1.809   1.357 -0.0780 -0.4723 -0.0891
 5707TIP3    H138756   2.886   1.853   1.334 -0.9597  0.7629 -1.0412
 5707TIP3    H238757   2.798   1.816   1.452  0.8266 -0.4150 -0.0307
 5708TIP3   OH238758   2.023   4.165   7.399  0.1315 -0.0023  0.8509
 5708TIP3    H138759   2.065   4.219   7.466  1.7491  0.5156 -0.5148
 5708TIP3    H238760   2.096   4.131   7.346 -0.9929 -1.7575  0.3491
 5709TIP3   OH238761   4.090   3.991   8.768 -0.3664 -0.7079  0.2337
 5709TIP3    H138762   4.160   3.938   8.805 -0.9626 -1.7433 -0.0808
 5709TIP3    H238763   4.115   4.082   8.787  0.7789 -1.0892  0.5807
 5710TIP3   OH238764   5.297   0.521   0.698  0.4211 -0.1072  0.3198
 5710TIP3    H138765   5.299   0.492   0.607  0.5044  0.5521  0.1069
 5710TIP3    H238766   5.231   0.465   0.739  1.0029 -1.0038  0.0701
 5711TIP3   OH238767   2.718   1.161   0.436 -0.0917  0.5259  0.1059
 5711TIP3    H138768   2.731   1.223   0.508  1.2051  1.7299 -1.0839
 5711TIP3    H238769   2.804   1.121   0.424 -0.8212 -1.2588  0.5945
 5712TIP3   OH238770   2.305   0.077   7.749  0.0980 -0.5007 -0.3890
 5712TIP3    H138771   2.316   0.024   7.828 -0.4885 -0.3822 -0.2203
 5712TIP3    H238772   2.358   0.155   7.765  0.5755 -0.8166 -0.4302
 5713TIP3   OH238773   4.430   6.329   0.528 -0.4810  0.4458  0.2923
 5713TIP3    H138774   4.479   6.349   0.448 -1.6896  2.9923  0.0973
 5713TIP3    H238775   4.484   6.264   0.573 -0.3705 -2.1278 -3.1245
 5714TIP3   OH238776   1.995   3.867   7.925  0.3951 -0.1644 -0.7166
 5714TIP3    H138777   2.054   3.792   7.936  0.3876  0.0636  1.1714
 5714TIP3    H238778   1.914   3.828   7.892  0.8221 -0.8123 -1.0244
 5715TIP3   OH238779   3.705   3.290   1.907  0.1366 -0.3892 -0.3534
 5715TIP3    H138780   3.724   3.341   1.828  1.5384 -0.1935  0.0938
 5715TIP3    H238781   3.651   3.349   1.961  0.5176  0.0756 -0.4753
 5716TIP3   OH238782   4.131   4.628   0.506  0.4271 -0.0659  0.2203
 5716TIP3    H138783   4.087   4.706   0.473  0.2514 -0.4386 -0.4507
 5716TIP3    H238784   4.206   4.616   0.448 -0.6716 -1.5367 -0.9926
 5717TIP3   OH238785   3.632   1.948   1.907 -0.4324 -0.0551 -0.1935
 5717TIP3    H138786   3.569   1.973   1.840 -2.9017 -0.8092  1.7047
 5717TIP3    H238787   3.667   2.031   1.939 -1.7987  0.5174 -0.1059
 5718TIP3   OH238788   5.025   4.065   8.464 -0.2098  0.0316  0.3669
 5718TIP3    H138789   5.042   4.113   8.383  1.1505 -0.6980  0.1940
 5718TIP3    H238790   5.080   3.987   8.458 -1.8022 -1.1928  0.9729
 5719TIP3   OH238791   1.105   2.008   2.597  0.1400  0.3569 -0.5965
 5719TIP3    H138792   1.082   1.915   2.602 -1.4089  0.7090 -0.7117
 5719TIP3    H238793   1.200   2.008   2.587  0.1696 -1.2164 -0.6292
 5720TIP3   OH238794   5.099   3.069   3.146  0.1778  0.5135  0.3811
 5720TIP3    H138795   5.149   3.110   3.076 -1.6859  1.2436 -0.5978
 5720TIP3    H238796   5.035   3.135   3.172 -2.6525 -1.4773 -0.9292
 5721TIP3   OH238797   1.062   5.030   8.036 -0.0433  0.1159  0.1805
 5721TIP3    H138798   0.988   5.032   7.975  0.7629 -1.3035 -0.8787
 5721TIP3    H238799   1.085   5.123   8.048 -0.0126  0.4268 -1.9476
 5722TIP3   OH238800   5.533   0.367   3.135  0.1197  0.0978 -0.3945
 5722TIP3    H138801   5.490   0.334   3.056  0.5177  1.3697 -1.1691
 5722TIP3    H238802   5.627   0.356   3.118  0.1855 -1.9288  0.9594
 5723TIP3   OH238803   5.008   0.665   3.593  0.1304 -0.1076  0.3639
 5723TIP3    H138804   5.077   0.699   3.650  0.0624  0.6169  0.0282
 5723TIP3    H238805   4.939   0.731   3.597 -1.3778 -1.6716  2.1579
 5724TIP3   OH238806   0.852   2.625   1.695  0.4110  0.1527 -0.2814
 5724TIP3    H138807   0.797   2.697   1.663  1.6816  1.2545 -0.0670
 5724TIP3    H238808   0.824   2.612   1.786  0.0058  0.1990 -0.3977
 5725TIP3   OH238809   4.145   6.236   2.550  0.1558  0.2395  0.0623
 5725TIP3    H138810   4.069   6.281   2.586 -0.0212 -0.6048  0.7881
 5725TIP3    H238811   4.203   6.224   2.625  0.9117  0.6718 -0.4394
 5726TIP3   OH238812   4.930   1.222   3.441 -0.1590 -0.0755 -0.4189
 5726TIP3    H138813   4.872   1.226   3.518 -2.3203  1.1411 -1.9727
 5726TIP3    H238814   5.010   1.265   3.470 -0.2456 -1.1791  1.6400
 5727TIP3   OH238815   4.301   4.926   2.819 -0.1991 -1.0605 -0.4954
 5727TIP3    H138816   4.358   5.002   2.826 -2.1660  0.3963  1.4829
 5727TIP3    H238817   4.324   4.873   2.895 -2.1132  0.1315  1.0202
 5728TIP3   OH238818   3.511   5.077   1.576 -0.0428  0.3868  0.0395
 5728TIP3    H138819   3.539   4.986   1.566  0.2649  0.6668 -1.8854
 5728TIP3    H238820   3.423   5.071   1.614  0.2714 -0.6789  0.6450
 5729TIP3   OH238821   1.310   4.975   8.386 -0.3522 -0.1707 -0.0476
 5729TIP3    H138822   1.325   4.892   8.340  1.5788  0.8721 -1.4628
 5729TIP3    H238823   1.384   4.983   8.446 -0.9221  0.1848  0.6128
 5730TIP3   OH238824   3.467   5.474   7.730  0.2584 -0.1370  0.0077
 5730TIP3    H138825   3.383   5.462   7.684 -0.3572  0.3619  0.9498
 5730TIP3    H238826   3.503   5.554   7.691 -1.4691  1.7611  2.0190
 5731TIP3   OH238827   1.213   3.701   8.372  0.1005 -0.3574  0.7940
 5731TIP3    H138828   1.283   3.640   8.350  0.1179 -0.7479  1.8712
 5731TIP3    H238829   1.134   3.659   8.339  0.5742  1.7020 -3.7863
 5732TIP3   OH238830   0.986   3.163   0.678  0.6683 -0.7079 -0.7080
 5732TIP3    H138831   1.054   3.096   0.686  0.5040 -0.8388 -0.3394
 5732TIP3    H238832   0.909   3.122   0.719  0.8815  0.1535  0.6009
 5733TIP3   OH238833   4.447   3.212   0.846  0.7634  0.3540 -0.2932
 5733TIP3    H138834   4.385   3.155   0.892  0.8614 -0.3949 -1.0441
 5733TIP3    H238835   4.415   3.214   0.756  2.0788 -0.4571 -0.8207
 5734TIP3   OH238836   5.448   0.195   2.501 -0.2393 -0.5158  0.8546
 5734TIP3    H138837   5.400   0.169   2.423  0.2999  0.3245  0.2350
 5734TIP3    H238838   5.403   0.151   2.573 -2.3006  0.6729  0.3643
 5735TIP3   OH238839   0.542   3.074   2.170  0.5008  0.4373 -0.2538
 5735TIP3    H138840   0.454   3.111   2.168 -0.7368 -2.2719  0.4034
 5735TIP3    H238841   0.560   3.049   2.080 -0.2056 -0.7291 -0.0797
 5736TIP3   OH238842   4.933   5.257   1.827 -0.0217  0.3858  0.3698
 5736TIP3    H138843   5.000   5.207   1.874  1.3841  2.4626  0.7545
 5736TIP3    H238844   4.963   5.348   1.835 -2.5002  1.3089 -0.1502
 5737TIP3   OH238845   2.949   1.291   8.877 -0.1984 -0.0297  0.2445
 5737TIP3    H138846   2.959   1.320   8.968 -0.2633  0.9513 -0.0496
 5737TIP3    H238847   3.019   1.336   8.830 -0.1775 -0.5173 -0.2023
 5738TIP3   OH238848   1.095   0.366   2.271  0.1596  0.1544  0.1876
 5738TIP3    H138849   1.165   0.426   2.247 -0.2240 -0.1344 -1.8287
 5738TIP3    H238850   1.015   0.410   2.243 -0.1440 -1.1392 -1.0975
 5739TIP3   OH238851   5.723   3.592   2.208 -0.0160 -0.0051 -0.1868
 5739TIP3    H138852   5.631   3.604   2.233  0.3563  0.7911  0.8812
 5739TIP3    H238853   5.737   3.655   2.137 -0.0357  0.6082  0.3440
 5740TIP3   OH238854   5.417   0.562   1.844 -0.2475  0.2027  0.2195
 5740TIP3    H138855   5.428   0.639   1.787 -0.8949  0.8892  1.0039
 5740TIP3    H238856   5.497   0.510   1.829 -0.5897  0.1343 -1.6430
 5741TIP3   OH238857   6.524   5.086   0.299  0.6985 -0.4068  0.0684
 5741TIP3    H138858   6.496   5.013   0.243  0.5566 -1.1737  1.1146
 5741TIP3    H238859   6.619   5.078   0.302  0.7914  0.2069 -0.8063
 5742TIP3   OH238860   6.543   0.083   3.162  0.7284  0.4085  0.3841
 5742TIP3    H138861   6.636   0.059   3.166  0.1290 -2.0953  1.6562
 5742TIP3    H238862   6.522   0.113   3.251  0.1592  0.1921  0.3292
 5743TIP3   OH238863   5.690   5.432   8.520  0.1938 -0.5423  0.7949
 5743TIP3    H138864   5.645   5.455   8.601 -1.7864 -1.4440  0.0132
 5743TIP3    H238865   5.718   5.341   8.533  1.6337 -0.0657  1.1815
 5744TIP3   OH238866   3.633   4.399   0.123 -0.3562 -0.2519 -0.3951
 5744TIP3    H138867   3.652   4.305   0.132 -0.7039 -0.3417 -0.6246
 5744TIP3    H238868   3.625   4.430   0.214 -1.0264 -0.6017 -0.3304
 5745TIP3   OH238869   1.223   4.784   0.844 -0.0062 -0.2357  0.1539
 5745TIP3    H138870   1.229   4.875   0.815 -0.4052 -0.1572  0.3109
 5745TIP3    H238871   1.223   4.789   0.939  0.9124 -0.4673  0.1768
 5746TIP3   OH238872   3.445   4.518   8.408 -0.4695 -0.8932 -0.3104
 5746TIP3    H138873   3.455   4.539   8.316 -1.5404  0.3234 -0.1816
 5746TIP3    H238874   3.516   4.565   8.452 -0.9277 -0.1385 -0.3606
 5747TIP3   OH238875   5.940   3.005   8.953 -0.0013  0.5698  0.4928
 5747TIP3    H138876   5.877   2.943   8.917 -0.4803 -0.2034  2.5150
 5747TIP3    H238877   5.947   3.073   8.887 -3.5382  1.0749  0.4271
 5748TIP3   OH238878   6.320   6.002   0.824  0.1894 -0.2875 -0.1755
 5748TIP3    H138879   6.340   5.940   0.894  1.9665  0.0233 -0.3805
 5748TIP3    H238880   6.294   5.946   0.750 -3.3783 -0.5969  1.0941
 5749TIP3   OH238881   1.052   3.218   1.189 -0.6402  0.4323 -0.1121
 5749TIP3    H138882   1.144   3.243   1.189 -0.5433  0.1254 -1.3437
 5749TIP3    H238883   1.043   3.161   1.265  0.6243 -0.9996 -0.9827
 5750TIP3   OH238884   3.484   0.681   0.197  0.3372  0.3384 -0.2768
 5750TIP3    H138885   3.397   0.707   0.166  1.0718  1.5900 -1.3742
 5750TIP3    H238886   3.512   0.752   0.255 -0.0459 -0.8790  1.4767
 5751TIP3   OH238887   0.717   0.089   3.368  0.1232 -0.0635 -0.3946
 5751TIP3    H138888   0.723   0.181   3.393 -0.1126 -0.5218  1.5530
 5751TIP3    H238889   0.660   0.089   3.291  1.6428  1.5586 -1.5840
 5752TIP3   OH238890   4.680   5.525   1.964  0.4075  0.0052  0.2584
 5752TIP3    H138891   4.669   5.620   1.963 -1.3966 -0.1029  2.2311
 5752TIP3    H238892   4.705   5.503   1.874  3.0730  2.4970  0.2505
 5753TIP3   OH238893   4.536   6.359   2.932 -0.2062 -0.5346 -0.1600
 5753TIP3    H138894   4.569   6.346   3.021 -2.6928 -2.9898  0.5572
 5753TIP3    H238895   4.610   6.337   2.875  1.1031  0.0031  1.2766
 5754TIP3   OH238896   2.881   4.931   8.353  0.1833 -0.5894  0.4691
 5754TIP3    H138897   2.807   4.967   8.304  0.6704  0.1758  0.2712
 5754TIP3    H238898   2.919   5.007   8.398  0.3573 -1.1159  1.2215
 5755TIP3   OH238899   6.733   0.852   0.899  0.2541 -0.2997  0.2084
 5755TIP3    H138900   6.770   0.853   0.987  0.7511  0.4470  0.0024
 5755TIP3    H238901   6.711   0.943   0.880 -2.0566 -0.7521  0.4417
 5756TIP3   OH238902   1.104   6.778   3.095 -0.5649 -0.2326 -0.0516
 5756TIP3    H138903   1.128   6.688   3.072 -1.0697  0.0115 -1.7356
 5756TIP3    H238904   1.187   6.824   3.101 -0.3765 -0.3087 -1.6342
 5757TIP3   OH238905   6.584   2.154   2.192  0.5658  0.3895 -0.0907
 5757TIP3    H138906   6.553   2.064   2.200  0.3712  0.4142 -0.4973
 5757TIP3    H238907   6.679   2.148   2.194  0.6492  0.5273  3.5879
 5758TIP3   OH238908   1.446   0.364   0.370  0.3700 -0.0411  0.0776
 5758TIP3    H138909   1.503   0.308   0.317 -0.2366  0.5940 -1.2880
 5758TIP3    H238910   1.358   0.346   0.338  0.0992  1.2207  0.0580
 5759TIP3   OH238911   1.519   0.141   8.163  0.4405 -0.3507  0.3314
 5759TIP3    H138912   1.455   0.201   8.126 -0.9901 -0.5362  2.3182
 5759TIP3    H238913   1.466   0.071   8.202  1.9553 -1.5548  0.3051
 5760TIP3   OH238914   0.773   3.675   1.169 -0.0287 -0.2924 -0.4579
 5760TIP3    H138915   0.840   3.743   1.176 -1.2282  0.7794  1.1418
 5760TIP3    H238916   0.806   3.604   1.226 -0.5371  0.5149  0.8894
 5761TIP3   OH238917   6.667   5.035   1.512 -0.1326  0.1185  0.1824
 5761TIP3    H138918   6.657   4.950   1.469  0.9015  0.6312 -1.1441
 5761TIP3    H238919   6.636   5.021   1.601  1.6277 -2.1273  0.5196
 5762TIP3   OH238920   1.666   1.431   0.944  0.4957 -0.6735  0.8761
 5762TIP3    H138921   1.753   1.411   0.909  0.1660 -1.3098  0.4075
 5762TIP3    H238922   1.615   1.351   0.931 -0.4478  0.0010  0.2384
 5763TIP3   OH238923   4.996   2.859   1.296 -0.9280 -0.4521 -0.2585
 5763TIP3    H138924   5.012   2.889   1.207 -0.1604 -0.7835 -0.2448
 5763TIP3    H238925   5.084   2.846   1.333 -1.1278 -3.6437 -0.6085
 5764TIP3   OH238926   3.609   6.411   7.895 -0.0158  0.8945  0.0852
 5764TIP3    H138927   3.641   6.485   7.946  1.1759  1.2762 -1.1727
 5764TIP3    H238928   3.632   6.334   7.948  0.5689  1.3110  0.4423
 5765TIP3   OH238929   3.349   5.466   0.636 -0.4892  0.1994 -0.7517
 5765TIP3    H138930   3.290   5.486   0.708  0.4630  2.1696 -0.4400
 5765TIP3    H238931   3.381   5.378   0.655 -0.0419  0.7704  1.4341
 5766TIP3   OH238932   2.408   2.225   0.058 -0.0943 -0.2013 -0.0375
 5766TIP3    H138933   2.501   2.228   0.034  0.3734 -0.3522  1.6089
 5766TIP3    H238934   2.380   2.137   0.035 -0.0226  0.0576 -1.1640
 5767TIP3   OH238935   3.022   2.740   7.755  0.6035 -0.1232 -0.5463
 5767TIP3    H138936   3.037   2.818   7.808  1.0416 -0.3063 -0.4007
 5767TIP3    H238937   2.995   2.673   7.817 -1.3910  0.3288 -0.8522
 5768TIP3   OH238938   0.317   0.138   0.249 -0.2141  0.4068  0.2757
 5768TIP3    H138939   0.325   0.044   0.231  0.2088  0.3077  0.9458
 5768TIP3    H238940   0.394   0.177   0.209  0.1264  0.3348  0.8502
 5769TIP3   OH238941   1.577   5.556   0.140  0.0446  0.3225 -0.2696
 5769TIP3    H138942   1.592   5.649   0.123 -0.4483  0.0361 -2.6927
 5769TIP3    H238943   1.484   5.543   0.122 -0.2315 -0.3975  1.5074
 5770TIP3   OH238944   1.703   5.089   2.920 -0.4934  0.2431 -0.1271
 5770TIP3    H138945   1.790   5.129   2.924 -0.0640 -0.7085  0.3891
 5770TIP3    H238946   1.719   4.995   2.932 -1.4083 -0.1937 -1.9741
 5771TIP3   OH238947   3.503   3.698   2.648 -0.4362  0.2554  0.0772
 5771TIP3    H138948   3.530   3.752   2.722  1.6491  2.1859 -1.9246
 5771TIP3    H238949   3.584   3.682   2.599 -1.7870 -0.5639 -2.0342
 5772TIP3   OH238950   0.254   6.742   1.573  0.4556 -0.7901 -0.5137
 5772TIP3    H138951   0.247   6.651   1.604  6.4380 -0.8639  2.0083
 5772TIP3    H238952   0.248   6.795   1.652  1.3733  0.5348 -1.2836
 5773TIP3   OH238953   0.612   6.098   8.629 -0.3639 -0.4369  0.2173
 5773TIP3    H138954   0.523   6.128   8.610  0.1433 -0.3384 -2.3643
 5773TIP3    H238955   0.619   6.014   8.584  0.9937 -0.1985 -0.0631
 5774TIP3   OH238956   5.859   6.137   0.691 -0.0861 -0.3305 -0.2115
 5774TIP3    H138957   5.951   6.161   0.693 -0.5203  1.4630  0.1730
 5774TIP3    H238958   5.858   6.043   0.707  1.5640 -0.0490  2.0451
 5775TIP3   OH238959   6.228   3.833   1.095  0.5493  0.2342 -0.5409
 5775TIP3    H138960   6.300   3.886   1.062 -0.1643  1.0653 -0.8071
 5775TIP3    H238961   6.231   3.753   1.043  1.4236  0.1558 -0.3779
 5776TIP3   OH238962   4.655   4.261   1.068  0.2269  0.7834  0.3745
 5776TIP3    H138963   4.726   4.290   1.125 -1.0988  0.1324  2.4232
 5776TIP3    H238964   4.583   4.320   1.087 -0.2113  0.6694 -0.8124
 5777TIP3   OH238965   4.813   4.187   8.616 -0.0956  0.4906 -1.0401
 5777TIP3    H138966   4.886   4.175   8.555 -2.2752 -0.2487 -3.7030
 5777TIP3    H238967   4.764   4.104   8.612 -0.1833  0.2500  2.0955
 5778TIP3   OH238968   1.670   5.301   0.217 -0.4791 -0.4023  0.5612
 5778TIP3    H138969   1.703   5.264   0.135  0.3153  0.4235  0.4969
 5778TIP3    H238970   1.655   5.394   0.198 -2.6902 -0.6684  0.6425
 5779TIP3   OH238971   6.254   5.569   1.538 -0.1136  0.0642 -0.0120
 5779TIP3    H138972   6.166   5.607   1.532 -1.4116 -2.6686  0.0823
 5779TIP3    H238973   6.290   5.577   1.450 -1.6846 -1.3860 -0.8298
 5780TIP3   OH238974   1.314   0.822   1.186  0.3954  0.0828  0.3781
 5780TIP3    H138975   1.294   0.877   1.262  0.1175 -2.2048  2.0782
 5780TIP3    H238976   1.359   0.746   1.223  0.1660 -1.1583 -1.7520
 5781TIP3   OH238977   5.345   3.186   8.469 -0.4725 -0.1517 -0.3520
 5781TIP3    H138978   5.427   3.211   8.512  0.4076  1.4149 -2.7139
 5781TIP3    H238979   5.277   3.207   8.533  0.8904 -0.3908  1.2313
 5782TIP3   OH238980   2.110   3.248   0.778 -0.1198 -0.0126  0.0170
 5782TIP3    H138981   2.076   3.184   0.715 -0.7933  1.4639 -1.2062
 5782TIP3    H238982   2.086   3.213   0.863 -0.4251 -1.3928 -0.5956
 5783TIP3   OH238983   1.737   6.498   0.219  0.6713 -0.1576 -0.7781
 5783TIP3    H138984   1.777   6.474   0.303  2.7075  0.7362 -1.4232
 5783TIP3    H238985   1.670   6.562   0.243 -0.2941 -1.5121  0.3285
 5784TIP3   OH238986   0.437   0.828   7.863 -0.1453  0.2276  0.6494
 5784TIP3    H138987   0.363   0.880   7.894 -0.5856 -0.4477  0.7348
 5784TIP3    H238988   0.510   0.856   7.918 -0.6096  0.0345  1.3772
 5785TIP3   OH238989   0.020   6.310   3.371 -0.1029 -0.0903 -0.0949
 5785TIP3    H138990   0.022   6.331   3.277  1.5247  0.4082  0.0216
 5785TIP3    H238991  -0.052   6.363   3.405 -0.4147  0.0805 -0.9729
 5786TIP3   OH238992   3.010   3.683   8.306  0.5136 -0.1172 -1.3281
 5786TIP3    H138993   2.946   3.689   8.236  0.2321 -0.9430 -1.1510
 5786TIP3    H238994   2.960   3.697   8.386  0.9755  1.7269 -1.3038
 5787TIP3   OH238995   6.220   1.116   8.345 -0.8860  0.0289 -0.9195
 5787TIP3    H138996   6.299   1.137   8.396  0.2306 -1.0775 -2.1067
 5787TIP3    H238997   6.182   1.041   8.391 -0.4301 -0.3463 -1.1420
 5788TIP3   OH238998   2.810   3.149   8.100 -0.1490 -0.0562 -0.6133
 5788TIP3    H138999   2.782   3.194   8.180 -2.1621  0.0966 -1.3348
 5788TIP3    H239000   2.769   3.200   8.029 -0.3833 -1.5424 -1.5886
 5789TIP3   OH239001   0.563   5.655   0.258  0.4068 -0.7717 -0.0901
 5789TIP3    H139002   0.606   5.739   0.271 -0.1199  0.2096 -3.6817
 5789TIP3    H239003   0.541   5.625   0.346  0.3367  2.9734  1.3146
 5790TIP3   OH239004   0.012   1.137   1.979  0.8091  0.1814  0.0426
 5790TIP3    H139005  -0.083   1.140   1.973  0.8857  2.4489 -2.1594
 5790TIP3    H239006   0.039   1.229   1.977  3.0241 -0.2915  2.6569
 5791TIP3   OH239007   3.001   2.873   2.283 -0.1748  0.0604 -0.4871
 5791TIP3    H139008   3.085   2.830   2.297 -1.2109 -1.6144  0.9246
 5791TIP3    H239009   2.941   2.830   2.344 -2.2295  0.7497 -1.9195
 5792TIP3   OH239010   2.481   4.050   8.914  0.2523  0.2447  0.0981
 5792TIP3    H139011   2.566   4.033   8.874  0.7108  3.1158 -0.3690
 5792TIP3    H239012   2.500   4.114   8.983 -1.4831  0.6916  0.1965
 5793TIP3   OH239013   5.991   4.970   0.041  0.2302  0.0805  0.2020
 5793TIP3    H139014   6.052   4.967   0.115  0.4675 -0.7407 -0.0178
 5793TIP3    H239015   6.044   4.943  -0.034 -0.2140  0.1080 -0.1226
 5794TIP3   OH239016   0.373   6.198   8.511 -0.2508 -0.7435  0.1784
 5794TIP3    H139017   0.279   6.183   8.499 -0.4430  1.4999 -2.1014
 5794TIP3    H239018   0.408   6.201   8.423  1.8444 -0.6876  0.9618
 5795TIP3   OH239019   5.942   3.785   8.927  0.3441 -0.4211  0.4348
 5795TIP3    H139020   5.982   3.813   9.009 -2.6820  2.1225  1.2128
 5795TIP3    H239021   5.979   3.843   8.861  1.0474 -0.9390  0.3568
 5796TIP3   OH239022   2.970   3.064   2.539  0.0425 -0.0068  0.7995
 5796TIP3    H139023   3.054   3.103   2.518 -0.6026  2.3524  2.2449
 5796TIP3    H239024   2.969   2.981   2.491  2.0830  1.0890 -1.2935
 5797TIP3   OH239025   4.477   1.482   2.151 -0.3589 -0.0432 -0.3627
 5797TIP3    H139026   4.382   1.493   2.140 -0.5316  0.1762  1.2061
 5797TIP3    H239027   4.508   1.566   2.184  0.1816 -0.5211  0.3743
 5798TIP3   OH239028   5.592   4.285   0.382 -0.5135  0.0489  0.3660
 5798TIP3    H139029   5.685   4.264   0.374  0.2608  2.6351  1.5054
 5798TIP3    H239030   5.556   4.266   0.295  1.0193 -1.1825 -0.0494
 5799TIP3   OH239031   0.575   2.881   3.116 -0.4864 -0.0806 -0.2868
 5799TIP3    H139032   0.487   2.870   3.152 -1.6602  0.3965 -2.8238
 5799TIP3    H239033   0.572   2.838   3.031  0.9377  2.0412 -1.5046
 5800TIP3   OH239034   6.039   4.575   8.027  0.2654  0.3360  0.5653
 5800TIP3    H139035   6.001   4.492   7.999  1.7101  0.4759 -2.0486
 5800TIP3    H239036   5.969   4.617   8.078 -1.2683 -1.5157  0.1100
 5801TIP3   OH239037   1.489   4.937   8.824  0.0453  0.2610 -0.1898
 5801TIP3    H139038   1.494   4.942   8.728 -0.1556 -0.1395 -0.2219
 5801TIP3    H239039   1.455   5.022   8.850 -2.5315 -0.5463 -0.6740
 5802TIP3   OH239040   3.964   5.175   2.341  0.0306 -0.2455  0.0957
 5802TIP3    H139041   4.057   5.197   2.344 -0.2584  0.9320  1.2103
 5802TIP3    H239042   3.922   5.236   2.402 -1.5945 -0.1708 -1.0082
 5803TIP3   OH239043   0.527   3.484   0.763  0.5022  0.3477  0.1918
 5803TIP3    H139044   0.556   3.487   0.854 -1.0458  1.4038  0.6785
 5803TIP3    H239045   0.505   3.392   0.748 -0.6612  0.4094  1.3728
 5804TIP3   OH239046   3.069   3.442   3.195  0.1571 -0.7162  0.0704
 5804TIP3    H139047   3.157   3.468   3.168  0.6147 -2.7143 -0.5452
 5804TIP3    H239048   3.021   3.525   3.202  1.5523  0.3093 -1.4759
 5805TIP3   OH239049   6.406   4.433   2.795 -0.1469 -0.1378 -0.3099
 5805TIP3    H139050   6.486   4.435   2.743  0.0841 -0.9193 -0.0027
 5805TIP3    H239051   6.362   4.515   2.774 -0.2111 -0.5642 -1.9593
 5806TIP3   OH239052   5.487   3.227   2.061 -0.1846 -0.0258 -0.0590
 5806TIP3    H139053   5.511   3.319   2.072 -0.6560  0.2470 -1.1495
 5806TIP3    H239054   5.561   3.188   2.013 -0.3320 -0.0306 -0.2828
 5807TIP3   OH239055   2.174   4.119   8.635  0.5949  0.8372  0.3143
 5807TIP3    H139056   2.129   4.051   8.686 -0.4233  1.0092 -0.3063
 5807TIP3    H239057   2.250   4.075   8.598  0.5988  0.3537  0.8894
 5808TIP3   OH239058   2.343   2.712   0.687 -0.0973 -0.2698  0.3971
 5808TIP3    H139059   2.339   2.629   0.639  0.2703 -0.0123 -0.0923
 5808TIP3    H239060   2.319   2.690   0.776  0.5607 -1.0042  0.3947
 5809TIP3   OH239061   3.167   6.179   8.416  0.2598 -0.6235 -0.0343
 5809TIP3    H139062   3.095   6.118   8.430 -0.6333  0.4835  0.4310
 5809TIP3    H239063   3.201   6.158   8.330 -0.0440 -1.7485  0.1103
 5810TIP3   OH239064   5.990   1.717   8.179 -0.1089 -0.4213  0.2371
 5810TIP3    H139065   6.010   1.675   8.095 -0.0851 -1.2619  0.6451
 5810TIP3    H239066   5.894   1.718   8.182 -0.1190 -1.2931  0.6157
 5811TIP3   OH239067   3.954   5.687   1.300  0.2243 -0.0390 -0.1951
 5811TIP3    H139068   4.037   5.721   1.268  1.3136 -3.1695 -1.1062
 5811TIP3    H239069   3.975   5.648   1.385 -0.7916  0.8927  0.5092
 5812TIP3   OH239070   6.759   6.493   8.812 -0.0106 -0.3104 -0.2354
 5812TIP3    H139071   6.845   6.460   8.789  0.0210 -0.1387 -0.3679
 5812TIP3    H239072   6.736   6.554   8.741 -0.2153 -0.3122 -0.1732
 5813TIP3   OH239073   1.772   5.123   8.968 -0.0466 -0.3194  0.4245
 5813TIP3    H139074   1.844   5.062   8.980 -0.0388 -0.0769  1.6482
 5813TIP3    H239075   1.742   5.107   8.878  1.2964 -0.6513  0.0140
 5814TIP3   OH239076   2.680   3.402   1.951  0.0844 -0.0066 -0.0589
 5814TIP3    H139077   2.608   3.360   1.905  1.0742  1.8410 -3.6341
 5814TIP3    H239078   2.750   3.336   1.950 -0.0657 -0.1619 -0.8129
 5815TIP3   OH239079   3.903   0.895   0.933  0.7307  0.3747 -1.0418
 5815TIP3    H139080   3.848   0.944   0.872  1.1708  1.4495 -0.5994
 5815TIP3    H239081   3.993   0.915   0.907  0.9792  2.5210  1.1631
 5816TIP3   OH239082   4.445   3.415   2.036 -0.2096  0.0103 -0.0251
 5816TIP3    H139083   4.533   3.449   2.019 -0.3195  0.0739 -0.4618
 5816TIP3    H239084   4.390   3.455   1.970 -0.2657 -1.3344 -0.8244
 5817TIP3   OH239085   3.804   1.992   7.794  0.0808 -0.5925  0.2094
 5817TIP3    H139086   3.899   1.981   7.799  0.0967 -0.2901  0.6748
 5817TIP3    H239087   3.789   2.080   7.827 -0.3527 -0.6018  0.0315
 5818TIP3   OH239088   6.183   6.726   3.124  0.3257  0.2685 -0.0954
 5818TIP3    H139089   6.188   6.750   3.216  1.1944 -0.1254 -0.0266
 5818TIP3    H239090   6.100   6.762   3.094  0.0440  0.4207  0.8338
 5819TIP3   OH239091   4.963   0.683   8.050  0.3261 -0.0786 -0.0919
 5819TIP3    H139092   4.983   0.720   7.964 -2.5486 -1.5162 -1.5211
 5819TIP3    H239093   4.956   0.589   8.034 -0.4489 -0.3716  1.7083
 5820TIP3   OH239094   1.325   5.655   0.081 -0.5289  0.7963  0.0320
 5820TIP3    H139095   1.241   5.680   0.042 -0.6315  2.1165  1.0092
 5820TIP3    H239096   1.303   5.626   0.170 -0.0536  0.1502 -0.0520
 5821TIP3   OH239097   5.973   5.752   1.860  0.0185  0.2400  0.0208
 5821TIP3    H139098   5.914   5.702   1.916  0.4529  0.3413  0.5860
 5821TIP3    H239099   5.935   5.841   1.860 -0.3374  0.0913 -0.3745
 5822TIP3   OH239100   6.175   6.228   2.223  0.1508 -0.0011 -0.5778
 5822TIP3    H139101   6.225   6.233   2.304  1.5998  0.7057 -1.4740
 5822TIP3    H239102   6.184   6.314   2.183 -0.7802 -0.2436 -1.3498
 5823TIP3   OH239103   1.245   0.920   1.764 -0.1086 -0.0689 -0.1718
 5823TIP3    H139104   1.185   0.966   1.822  0.0176 -0.2001  0.0669
 5823TIP3    H239105   1.332   0.935   1.803  0.0423  0.3513 -0.6661
 5824TIP3   OH239106   0.673   6.042   0.762 -0.8287 -0.2156 -0.2402
 5824TIP3    H139107   0.666   6.085   0.847 -2.0950 -3.1842  1.3100
 5824TIP3    H239108   0.764   6.055   0.736  0.1256 -0.7628  2.4829
 5825TIP3   OH239109   4.895   1.924   2.298  0.3161  0.1760 -0.2357
 5825TIP3    H139110   4.854   2.002   2.335  2.8281  1.1420  0.7080
 5825TIP3    H239111   4.980   1.954   2.265  1.8343 -2.2695  1.0871
 5826TIP3   OH239112   4.874   5.510   2.157  0.2458 -0.1561 -0.6879
 5826TIP3    H139113   4.800   5.511   2.096  1.5812  0.5613 -2.3922
 5826TIP3    H239114   4.867   5.593   2.205 -0.5795 -0.5391 -0.1048
 5827TIP3   OH239115   2.050   4.423   7.851 -0.2815 -0.0633 -0.1384
 5827TIP3    H139116   2.105   4.464   7.784  0.0889 -0.1462  0.1109
 5827TIP3    H239117   2.012   4.496   7.900  1.8887  0.0538  1.5506
 5828TIP3   OH239118   6.544   6.114   8.490 -0.0780 -0.0036 -0.1061
 5828TIP3    H139119   6.460   6.122   8.446 -0.6720  0.8357  1.1282
 5828TIP3    H239120   6.590   6.195   8.471 -0.2372  0.2578  0.5919
 5829TIP3   OH239121   5.753   2.540   1.966  0.1472  0.1933 -0.4505
 5829TIP3    H139122   5.798   2.542   1.882 -0.2094 -1.1772 -0.7002
 5829TIP3    H239123   5.666   2.576   1.947  0.2184  0.3070 -0.5636
 5830TIP3   OH239124   5.128   3.587   8.192 -0.2434  0.1236  0.0380
 5830TIP3    H139125   5.046   3.557   8.153 -0.9406 -1.4127  2.4259
 5830TIP3    H239126   5.167   3.507   8.228  1.8382  0.9893 -0.2167
 5831TIP3   OH239127   4.685   5.280   8.064 -0.0279 -0.1253 -0.8109
 5831TIP3    H139128   4.612   5.317   8.114  0.1839  0.8398 -1.2087
 5831TIP3    H239129   4.764   5.314   8.107  0.2274 -1.6304 -0.0153
 5832TIP3   OH239130   0.344   2.679   1.721  0.1912  0.0852 -0.5661
 5832TIP3    H139131   0.386   2.741   1.781  1.1888 -0.8378 -0.2827
 5832TIP3    H239132   0.305   2.613   1.779 -1.0562  0.5463 -0.8544
 5833TIP3   OH239133   2.200   1.304   1.770  0.8943 -0.1552 -0.6770
 5833TIP3    H139134   2.255   1.367   1.724 -2.4538  3.1642 -0.5939
 5833TIP3    H239135   2.179   1.238   1.703  0.1677  1.8368 -2.5289
 5834TIP3   OH239136   3.270   6.186   0.105  0.0988 -0.2592  0.0018
 5834TIP3    H139137   3.207   6.115   0.089 -2.0258  1.6388 -0.5446
 5834TIP3    H239138   3.231   6.262   0.063  2.4042  1.2152  0.3981
 5835TIP3   OH239139   5.036   3.409   0.946 -0.8987 -0.5724 -0.6072
 5835TIP3    H139140   5.109   3.362   0.987 -0.1591  1.1997  0.2788
 5835TIP3    H239141   5.029   3.372   0.859  2.2532  0.2792 -1.3733
 5836TIP3   OH239142   5.157   6.425   7.574  0.5580  0.1777 -0.3318
 5836TIP3    H139143   5.090   6.405   7.509 -1.2101  1.8146  0.8678
 5836TIP3    H239144   5.108   6.446   7.653  2.5639  0.1373  1.0046
 5837TIP3   OH239145   4.269   2.321   1.558 -0.8010 -0.2810 -0.6352
 5837TIP3    H139146   4.244   2.362   1.475  0.1079  0.1930 -0.6907
 5837TIP3    H239147   4.271   2.394   1.620  0.3644 -0.3090 -0.6263
 5838TIP3   OH239148   4.271   6.636   0.951 -0.6105 -0.0578  0.0525
 5838TIP3    H139149   4.329   6.618   0.877 -0.8619 -1.8196  0.2565
 5838TIP3    H239150   4.316   6.705   1.000 -0.0032  0.4976 -1.2348
 5839TIP3   OH239151   3.369   5.580   8.905 -0.4683  0.1250 -0.1766
 5839TIP3    H139152   3.464   5.568   8.911 -0.2029  1.5865 -1.0714
 5839TIP3    H239153   3.337   5.552   8.991  1.0148  1.5650  0.9363
 5840TIP3   OH239154   0.044   5.628   8.332 -0.0377  0.2242 -0.1500
 5840TIP3    H139155  -0.007   5.698   8.372 -0.4515  0.8452 -1.6718
 5840TIP3    H239156  -0.018   5.586   8.272  0.5707 -0.6201 -0.2013
 5841TIP3   OH239157   3.060   1.418   8.148 -0.2745 -0.1060  0.2033
 5841TIP3    H139158   2.991   1.355   8.168  0.0264 -0.5860 -0.2591
 5841TIP3    H239159   3.034   1.456   8.064  0.7811 -1.3984 -0.7589
 5842TIP3   OH239160   2.634   2.859   2.582  0.4106  0.0444 -0.3264
 5842TIP3    H139161   2.727   2.874   2.564  0.7350  0.0865  1.2399
 5842TIP3    H239162   2.621   2.766   2.567  1.3760 -0.5332  1.9451
 5843TIP3   OH239163   1.678   0.719   1.996 -0.2914  0.1884  0.4884
 5843TIP3    H139164   1.684   0.735   1.902 -0.7300 -0.4372  0.3505
 5843TIP3    H239165   1.725   0.793   2.036  4.5518 -2.0242 -0.3526
 5844TIP3   OH239166   0.760   4.353   1.304 -0.3506 -0.5561 -0.2333
 5844TIP3    H139167   0.669   4.326   1.301 -0.2962 -0.7768  0.0215
 5844TIP3    H239168   0.809   4.271   1.297 -0.1753 -0.4687 -0.0247
 5845TIP3   OH239169   0.775   4.601   8.928  1.2072 -0.1219  0.0378
 5845TIP3    H139170   0.864   4.567   8.927  1.4273  0.4390 -0.8058
 5845TIP3    H239171   0.720   4.523   8.937  1.7689 -0.5285 -0.0096
 5846TIP3   OH239172   5.262   2.782   3.086 -0.1574 -0.7694 -0.3988
 5846TIP3    H139173   5.332   2.811   3.027 -1.3236 -1.6079 -2.3367
 5846TIP3    H239174   5.252   2.688   3.066 -1.3889 -0.8094  0.2835
 5847TIP3   OH239175   5.196   4.350   8.510  0.5657 -0.4381  0.0807
 5847TIP3    H139176   5.138   4.336   8.435  0.8288  2.0709 -0.6598
 5847TIP3    H239177   5.153   4.418   8.562  1.5139 -0.5085  0.9919
 5848TIP3   OH239178   4.536   2.379   1.746 -0.7543 -0.6061 -0.1022
 5848TIP3    H139179   4.558   2.386   1.653 -0.5457  0.5606  0.0093
 5848TIP3    H239180   4.443   2.403   1.751 -0.3818  0.8708  0.1453
 5849TIP3   OH239181   1.052   6.123   2.379 -0.6416 -0.2750  0.0885
 5849TIP3    H139182   1.032   6.211   2.412 -3.0764 -0.5470 -0.4666
 5849TIP3    H239183   1.107   6.138   2.303 -0.8137  0.7544  0.1508
 5850TIP3   OH239184   1.346   0.317   1.269  0.4292  0.3766 -0.5299
 5850TIP3    H139185   1.362   0.241   1.325 -1.2414 -1.1363 -2.0011
 5850TIP3    H239186   1.252   0.333   1.277  0.8104  2.6674  0.1294
 5851TIP3   OH239187   1.529   6.043   0.466  0.1944 -0.5146  0.0066
 5851TIP3    H139188   1.610   6.066   0.420  1.0188 -0.2793  1.5311
 5851TIP3    H239189   1.557   6.004   0.548 -1.2287 -0.1497  0.7098
 5852TIP3   OH239190   4.146   0.740   8.126 -0.0303  0.4868  0.0570
 5852TIP3    H139191   4.166   0.654   8.163  0.5488  0.2624 -0.7521
 5852TIP3    H239192   4.150   0.727   8.031 -0.2194  1.3401 -0.0793
 5853TIP3   OH239193   3.213   5.414   0.149  0.1657 -0.1921  0.4391
 5853TIP3    H139194   3.257   5.442   0.230 -0.9224  0.5539  0.8020
 5853TIP3    H239195   3.183   5.325   0.167 -0.9018  0.3072  1.2311
 5854TIP3   OH239196   1.284   4.904   1.420  0.1381  0.1653  0.6172
 5854TIP3    H139197   1.268   4.935   1.509  1.1386  1.3994  0.4001
 5854TIP3    H239198   1.277   4.809   1.425  0.2274  0.2186  2.0161
 5855TIP3   OH239199   1.520   2.513   2.061 -0.0863  0.4313 -0.0881
 5855TIP3    H139200   1.486   2.568   2.132 -0.0311  0.2446  0.0848
 5855TIP3    H239201   1.473   2.542   1.983  0.4461  1.2021 -0.1318
 5856TIP3   OH239202   5.862   4.168   8.553  0.2932  0.0390  0.5073
 5856TIP3    H139203   5.872   4.106   8.481 -0.9987  1.0949 -0.6576
 5856TIP3    H239204   5.775   4.151   8.587 -1.0036  2.4894 -1.2341
 5857TIP3   OH239205   2.288   3.602   7.688  0.2487 -0.2594  0.1364
 5857TIP3    H139206   2.374   3.605   7.644  0.2494 -0.2843  0.1359
 5857TIP3    H239207   2.230   3.650   7.629  0.4855  0.6908  0.6576
 5858TIP3   OH239208   0.015   0.775   8.754  0.2231  0.4642 -0.0960
 5858TIP3    H139209  -0.001   0.737   8.667 -1.5252 -0.9117  0.7445
 5858TIP3    H239210   0.048   0.701   8.805  0.2010  0.9925  0.6826
 5859TIP3   OH239211   4.018   0.130   1.293 -0.0865  0.4634 -0.3435
 5859TIP3    H139212   4.045   0.143   1.202 -0.2575 -0.3066 -0.5045
 5859TIP3    H239213   3.942   0.072   1.288 -1.5123  2.1990  0.1344
 5860TIP3   OH239214   2.136   0.043   0.376  0.5085  0.2219 -0.0120
 5860TIP3    H139215   2.098   0.035   0.288  0.1153  1.3860  0.0407
 5860TIP3    H239216   2.132  -0.046   0.412 -0.4768 -0.0250 -0.6997
 5861TIP3   OH239217   0.049   5.041   2.188 -0.1240 -0.9006  0.0878
 5861TIP3    H139218  -0.043   5.046   2.160  0.1250 -0.1180 -0.6152
 5861TIP3    H239219   0.052   5.088   2.271 -0.1396  0.0951 -0.4685
 5862TIP3   OH239220   2.630   1.021   2.870  0.1911  0.0918 -0.2056
 5862TIP3    H139221   2.600   0.931   2.859  0.6780  0.0168 -0.9343
 5862TIP3    H239222   2.639   1.056   2.781 -0.2371  0.9449  0.0697
 5863TIP3   OH239223   5.174   0.887   2.331 -0.2338 -0.0869  0.1209
 5863TIP3    H139224   5.171   0.859   2.239 -2.7486  3.0502 -0.9232
 5863TIP3    H239225   5.262   0.920   2.343  0.2119 -0.7600 -1.0705
 5864TIP3   OH239226   2.903   0.462   2.911 -0.1559 -0.0093  0.0349
 5864TIP3    H139227   2.827   0.457   2.969  0.8389 -0.8520  1.3261
 5864TIP3    H239228   2.936   0.551   2.923 -3.1002  1.8125 -3.5147
 5865TIP3   OH239229   2.119   4.848   7.999 -0.3108  0.4748  0.4856
 5865TIP3    H139230   2.197   4.904   7.990 -0.0375  0.1683  0.9167
 5865TIP3    H239231   2.126   4.811   8.087 -2.0470  2.0954  1.3764
 5866TIP3   OH239232   2.805   3.981   2.444  0.0845  0.1375 -0.7349
 5866TIP3    H139233   2.839   4.070   2.452 -0.5407  0.3283 -0.1815
 5866TIP3    H239234   2.729   3.989   2.386  0.1559 -0.0755 -0.8621
 5867TIP3   OH239235   2.636   0.852   3.263 -0.5265  0.1759  0.0115
 5867TIP3    H139236   2.592   0.826   3.344 -0.9174 -2.4078 -0.9174
 5867TIP3    H239237   2.729   0.838   3.280 -0.3176  2.2904  0.8479
 5868TIP3   OH239238   5.986   6.055   2.359 -0.0294  0.0300  0.3251
 5868TIP3    H139239   6.038   6.121   2.313  2.0530 -1.2750  0.6985
 5868TIP3    H239240   6.007   6.068   2.452 -0.6713 -0.2940  0.5262
 5869TIP3   OH239241   3.683   3.629   0.120  0.0115 -0.6992 -0.5545
 5869TIP3    H139242   3.750   3.650   0.186 -2.0378  0.7573  1.2174
 5869TIP3    H239243   3.725   3.648   0.037  1.8442  0.0121  0.4609
 5870TIP3   OH239244   0.313   3.705   8.661  0.2618  0.7453 -0.2222
 5870TIP3    H139245   0.370   3.715   8.737  3.9331 -1.9917 -2.3046
 5870TIP3    H239246   0.311   3.611   8.644 -1.6834  1.1070 -2.6331
 5871TIP3   OH239247   2.313   4.653   1.640 -0.0002  0.2240  0.3348
 5871TIP3    H139248   2.267   4.671   1.722 -0.7279  0.6806 -0.1582
 5871TIP3    H239249   2.245   4.618   1.582  0.2782  0.8344 -0.3762
 5872TIP3   OH239250   0.285   4.547   8.861 -0.0131  0.4430 -0.1169
 5872TIP3    H139251   0.301   4.460   8.897  1.8607  0.4025 -0.9178
 5872TIP3    H239252   0.315   4.606   8.930 -2.1922  0.5348  0.8326
 5873TIP3   OH239253   5.440   3.562   2.208 -0.1753 -0.4287 -0.9204
 5873TIP3    H139254   5.364   3.506   2.196 -0.6528 -0.2979  1.1010
 5873TIP3    H239255   5.414   3.625   2.276  2.2498 -1.5385  1.2405
 5874TIP3   OH239256   2.185   3.807   0.489  0.8091  0.1520 -0.0405
 5874TIP3    H139257   2.129   3.882   0.511  1.2858  0.4273  0.2389
 5874TIP3    H239258   2.129   3.751   0.434  0.6376  0.9907 -0.7349
 5875TIP3   OH239259   0.970   5.800   3.930 -0.0887  0.3049  0.0801
 5875TIP3    H139260   1.002   5.804   3.840 -0.1624 -0.5978  0.0048
 5875TIP3    H239261   0.962   5.707   3.948 -0.5462  0.4891  0.8584
 5876TIP3   OH239262   1.585   3.419   8.623  0.4584  0.0534 -0.0730
 5876TIP3    H139263   1.553   3.341   8.668 -0.1887  0.8645  0.9197
 5876TIP3    H239264   1.508   3.456   8.582  0.3554  1.2501  1.1420
 5877TIP3   OH239265   0.342   4.902   1.284 -0.3821 -0.2908 -0.0195
 5877TIP3    H139266   0.402   4.836   1.318  0.8199  0.8797  0.2025
 5877TIP3    H239267   0.280   4.852   1.230 -0.3275 -1.7456  1.2154
 5878TIP3   OH239268   1.258   5.879   0.586 -0.0095 -0.1433 -0.5930
 5878TIP3    H139269   1.352   5.887   0.601  0.1568 -0.9918 -1.1158
 5878TIP3    H239270   1.239   5.785   0.597 -0.8722  0.0736 -0.0833
 5879TIP3   OH239271   2.262   2.188   7.231  0.4384  0.5665 -0.2763
 5879TIP3    H139272   2.252   2.112   7.288 -1.3664 -0.2799 -1.6120
 5879TIP3    H239273   2.348   2.176   7.191  1.1914  0.5216  1.3050
 5880TIP3   OH239274   6.295   2.640   1.051  0.2124  0.6272  0.0844
 5880TIP3    H139275   6.361   2.597   0.998  1.1341  1.0790  0.8277
 5880TIP3    H239276   6.251   2.569   1.098 -1.7933  0.0229 -2.4529
 5881TIP3   OH239277   4.895   1.362   3.198  0.3203  0.8101  0.7252
 5881TIP3    H139278   4.933   1.296   3.140 -0.8261 -1.1057  2.0254
 5881TIP3    H239279   4.930   1.341   3.284  0.2097  2.1652  1.1169
 5882TIP3   OH239280   4.829   6.511   1.014  0.2133 -0.6055  0.3309
 5882TIP3    H139281   4.790   6.577   1.071  1.8690  1.7076 -1.0610
 5882TIP3    H239282   4.920   6.504   1.043  0.5636 -0.8218 -0.7522
 5883TIP3   OH239283   1.247   3.542   8.736  0.1643 -0.3902  0.5703
 5883TIP3    H139284   1.176   3.535   8.799 -2.7335  1.1598 -2.2460
 5883TIP3    H239285   1.230   3.472   8.673 -1.0774  2.0448 -2.0033
 5884TIP3   OH239286   3.701   5.189   7.842 -0.1007 -0.6090 -0.2885
 5884TIP3    H139287   3.776   5.130   7.842  1.7532  1.5134  1.4624
 5884TIP3    H239288   3.654   5.168   7.922 -0.6332 -1.0922 -0.7297
 5885TIP3   OH239289   6.467   5.477   8.434  0.5148 -0.2992  0.1984
 5885TIP3    H139290   6.396   5.535   8.408  0.9796  0.6481  0.9786
 5885TIP3    H239291   6.533   5.487   8.366  0.5212 -0.0359  0.2432
 5886TIP3   OH239292   5.720   1.714   8.632  0.1289  0.2495  0.1549
 5886TIP3    H139293   5.796   1.766   8.658 -0.3228  0.8395  0.3189
 5886TIP3    H239294   5.649   1.778   8.624 -0.8982 -0.5599  2.1860
 5887TIP3   OH239295   6.757   5.362   8.606  0.4019 -0.5754  0.1845
 5887TIP3    H139296   6.744   5.371   8.511  3.4410 -0.0065 -0.2648
 5887TIP3    H239297   6.836   5.412   8.624  1.0617 -2.3591  2.7080
 5888TIP3   OH239298   2.252   6.000   8.782 -0.0081  0.0283  0.0712
 5888TIP3    H139299   2.275   6.047   8.862 -1.3959  1.4108 -0.2795
 5888TIP3    H239300   2.170   5.956   8.803  0.4418 -0.9262 -0.1209
 5889TIP3   OH239301   3.353   5.335   8.527 -0.5166 -0.2547 -0.5579
 5889TIP3    H139302   3.372   5.248   8.561  1.5175 -0.4483 -2.0127
 5889TIP3    H239303   3.390   5.335   8.439  1.0030  2.5833 -0.0227
 5890TIP3   OH239304   0.888   3.649   7.837 -0.1399 -0.0023 -0.0217
 5890TIP3    H139305   0.828   3.699   7.782 -1.5933 -0.7788  0.8115
 5890TIP3    H239306   0.856   3.560   7.833  0.4698 -0.2932  1.1085
 5891TIP3   OH239307   6.301   5.476   8.821  0.2195  0.0161 -0.2185
 5891TIP3    H139308   6.244   5.468   8.745  0.6022 -0.1567 -0.4928
 5891TIP3    H239309   6.390   5.468   8.785  0.3779 -1.3461  0.3988
 5892TIP3   OH239310   3.348   3.235   2.897  0.2619  0.5089  0.3360
 5892TIP3    H139311   3.345   3.322   2.859  2.8440  0.1532 -0.9095
 5892TIP3    H239312   3.405   3.244   2.974 -0.9464  0.2361  1.3009
 5893TIP3   OH239313   6.399   4.337   3.101 -0.0604  0.3166  0.0551
 5893TIP3    H139314   6.468   4.320   3.037 -0.6472  0.7915 -0.7237
 5893TIP3    H239315   6.395   4.258   3.154 -0.9222 -0.9341 -1.7734
 5894TIP3   OH239316   2.861   3.690   0.717  0.0087 -0.0463 -0.1249
 5894TIP3    H139317   2.843   3.773   0.760 -3.4051 -0.2900 -0.7601
 5894TIP3    H239318   2.809   3.626   0.765  2.3315 -1.8344  0.1664
 5895TIP3   OH239319   3.542   3.221   0.703 -0.1622 -0.3562 -0.0809
 5895TIP3    H139320   3.447   3.226   0.694 -0.2716  1.2801  1.4095
 5895TIP3    H239321   3.575   3.292   0.649  0.0866  0.2173  0.8130
 5896TIP3   OH239322   6.508   2.231   1.934 -0.5809  0.2064  0.0161
 5896TIP3    H139323   6.574   2.172   1.897 -2.4978 -2.0616 -0.0240
 5896TIP3    H239324   6.505   2.210   2.027  0.6804  2.3468  0.6217
 5897TIP3   OH239325   4.286   0.951   8.238 -0.6400 -0.6978  0.0511
 5897TIP3    H139326   4.231   0.947   8.316 -1.0772 -1.2387 -0.2803
 5897TIP3    H239327   4.253   0.881   8.182 -0.9601  0.2948 -1.0391
 5898TIP3   OH239328   2.097   4.739   0.549  0.6186 -0.3608 -0.3094
 5898TIP3    H139329   2.138   4.733   0.463 -0.7507  1.7967 -1.1851
 5898TIP3    H239330   2.039   4.663   0.553  2.2804 -1.6918 -0.3331
 5899TIP3   OH239331   2.731   1.985   8.899 -0.2750 -1.3612  0.0085
 5899TIP3    H139332   2.712   1.891   8.906  1.3104 -1.9819 -2.6299
 5899TIP3    H239333   2.731   2.002   8.805  1.4888  0.8431  0.3434
 5900TIP3   OH239334   3.798   0.694   0.568 -0.0672  0.5682 -0.8673
 5900TIP3    H139335   3.884   0.712   0.530 -0.4201  3.8635 -0.4066
 5900TIP3    H239336   3.816   0.652   0.652  1.0948  1.3408 -0.7167
 5901TIP3   OH239337   0.591   1.253   2.693  0.5548 -0.2065  0.0702
 5901TIP3    H139338   0.574   1.347   2.682  1.4537  0.0759  1.0202
 5901TIP3    H239339   0.541   1.228   2.770 -0.3787 -0.7239 -0.6731
 5902TIP3   OH239340   0.741   5.822   1.784 -0.3532  0.5312  0.0145
 5902TIP3    H139341   0.741   5.788   1.694 -1.3036  0.1799  0.1288
 5902TIP3    H239342   0.800   5.897   1.781 -0.9312  0.9714 -1.0854
 5903TIP3   OH239343   0.374   5.966   1.477 -0.3156 -0.1760  0.2340
 5903TIP3    H139344   0.427   5.982   1.556  0.8136  1.7392 -0.8390
 5903TIP3    H239345   0.309   6.036   1.478 -2.0292 -1.7075  0.8072
 5904TIP3   OH239346   1.658   4.200   2.870  0.3119 -0.7211  0.3557
 5904TIP3    H139347   1.668   4.114   2.830  2.4567 -0.7297  0.8042
 5904TIP3    H239348   1.677   4.185   2.963 -0.1523  0.0925  0.5923
 5905TIP3   OH239349   6.626   6.364   8.450  0.0931  0.3588 -0.0597
 5905TIP3    H139350   6.706   6.367   8.398  0.2517 -0.9456  0.0799
 5905TIP3    H239351   6.562   6.411   8.397  0.6241  0.2936 -0.7793
 5906TIP3   OH239352   3.210   0.394   0.445  0.1629 -0.7061 -0.1601
 5906TIP3    H139353   3.238   0.482   0.472  0.6011 -0.5286 -1.1339
 5906TIP3    H239354   3.277   0.336   0.481  1.2424 -0.3852 -1.5826
 5907TIP3   OH239355   3.297   6.197   8.675  0.0716 -0.3041 -0.7191
 5907TIP3    H139356   3.244   6.197   8.596  1.5691  2.0662 -1.8315
 5907TIP3    H239357   3.235   6.212   8.746 -1.4227 -3.3356 -1.2141
 5908TIP3   OH239358   2.417   0.247   0.140  0.4299  0.5803  0.0581
 5908TIP3    H139359   2.442   0.155   0.145  0.3084  0.4903 -0.7873
 5908TIP3    H239360   2.401   0.262   0.047  0.1182  1.3686  0.2321
 5909TIP3   OH239361   6.483   3.628   1.174 -0.0821  0.5978  0.5855
 5909TIP3    H139362   6.472   3.553   1.232 -0.2810  1.5486  1.7903
 5909TIP3    H239363   6.429   3.607   1.098  0.9289 -1.0951  0.2664
 5910TIP3   OH239364   2.749   6.593   0.054  0.9006 -0.3296  0.0488
 5910TIP3    H139365   2.803   6.628   0.125 -0.7527  0.9162  0.7787
 5910TIP3    H239366   2.755   6.498   0.064  1.0870 -0.1817  1.5914
 5911TIP3   OH239367   6.263   3.284   1.696 -0.4971 -0.1540 -0.0575
 5911TIP3    H139368   6.218   3.365   1.721 -0.0371 -0.4633  1.9484
 5911TIP3    H239369   6.349   3.313   1.667 -0.7171  0.1509 -0.4221
 5912TIP3   OH239370   4.346   5.254   7.951  0.2493 -0.6516  0.9026
 5912TIP3    H139371   4.337   5.298   7.866 -0.6486 -0.1466  1.2514
 5912TIP3    H239372   4.366   5.324   8.013 -0.6756 -0.7826  1.3697
 5913TIP3   OH239373   1.923   2.964   2.887  0.1966  0.5025 -0.2090
 5913TIP3    H139374   1.834   2.939   2.863  0.2047  0.2455  0.0139
 5913TIP3    H239375   1.923   3.059   2.884  0.1147  0.4797 -0.9050
 5914TIP3   OH239376   0.608   3.761   3.716  0.6013  0.4535  0.0034
 5914TIP3    H139377   0.558   3.757   3.634  0.0697 -2.7465  0.3702
 5914TIP3    H239378   0.673   3.691   3.709  0.3943 -0.0717  2.3728
 5915TIP3   OH239379   0.437   1.366   3.278  0.2790 -0.1490  0.3081
 5915TIP3    H139380   0.503   1.436   3.276 -0.8818  0.9733  0.3975
 5915TIP3    H239381   0.484   1.289   3.244  1.4230  0.8012 -0.3569
 5916TIP3   OH239382   5.217   3.597   0.771  0.5011 -0.1442  0.7168
 5916TIP3    H139383   5.173   3.629   0.850  1.0660  2.8777 -0.0478
 5916TIP3    H239384   5.155   3.614   0.700  1.1188 -0.1175  0.1725
 5917TIP3   OH239385   3.048   6.395   1.245 -0.0618  0.2441 -0.8326
 5917TIP3    H139386   2.959   6.417   1.216  0.0972  0.3732 -1.2339
 5917TIP3    H239387   3.038   6.315   1.295 -0.3867  0.1738 -1.0080
 5918TIP3   OH239388   3.078   5.780   2.410  0.4626  0.2681  0.0079
 5918TIP3    H139389   3.153   5.745   2.458 -0.4090  0.2394  1.4048
 5918TIP3    H239390   3.073   5.872   2.437  0.3168  0.4159 -0.5089
 5919TIP3   OH239391   1.160   4.019   1.430 -0.4057  0.0321 -0.0032
 5919TIP3    H139392   1.253   3.994   1.437  0.1014  2.0492  1.2763
 5919TIP3    H239393   1.135   4.043   1.519 -2.2904 -0.8043 -0.2735
 5920TIP3   OH239394   0.503   5.624   7.943 -0.4466  0.2784 -0.1659
 5920TIP3    H139395   0.416   5.658   7.924 -0.4760  0.5405  0.4223
 5920TIP3    H239396   0.563   5.684   7.899 -0.5133  0.8562  0.5285
 5921TIP3   OH239397   5.998   2.668   1.352 -0.2659 -0.4527  0.2002
 5921TIP3    H139398   5.910   2.694   1.327  0.0187 -0.4387 -0.8069
 5921TIP3    H239399   6.001   2.574   1.338 -0.0679 -0.4268  0.0630
 5922TIP3   OH239400   5.656   6.408   1.427 -0.0887  0.2720 -0.3334
 5922TIP3    H139401   5.687   6.424   1.337 -0.2153 -0.0548 -0.4360
 5922TIP3    H239402   5.717   6.344   1.462  1.7482  2.5235  0.8286
 5923TIP3   OH239403   0.441   0.098   1.966 -0.7150 -0.5528  0.2006
 5923TIP3    H139404   0.415   0.085   2.057 -0.7277  0.2966  0.3312
 5923TIP3    H239405   0.436   0.193   1.954  0.0969 -0.5838 -0.4419
 5924TIP3   OH239406   0.163   1.479   1.099  0.0649 -0.4993  0.0171
 5924TIP3    H139407   0.089   1.438   1.144 -0.7282  1.2293  0.3830
 5924TIP3    H239408   0.123   1.537   1.034  1.0979  0.1888 -0.0369
 5925TIP3   OH239409   2.829   0.327   1.616  0.1465 -0.2569  0.0397
 5925TIP3    H139410   2.856   0.241   1.648  1.9997  0.7689  1.4253
 5925TIP3    H239411   2.734   0.329   1.629  0.3988 -1.0768  2.7229
 5926TIP3   OH239412   0.874   6.268   8.806 -0.4974 -0.5983  0.2067
 5926TIP3    H139413   0.807   6.237   8.867  0.1798  0.4650  1.5504
 5926TIP3    H239414   0.949   6.210   8.821 -1.0944 -1.8266 -1.3385
 5927TIP3   OH239415   5.758   0.881   0.349 -0.1067  0.2869  0.2326
 5927TIP3    H139416   5.684   0.941   0.349 -1.5714 -1.4301 -0.9252
 5927TIP3    H239417   5.807   0.903   0.270 -1.4305 -0.9018 -0.9627
 5928TIP3   OH239418   1.833   0.266   1.418 -0.3619 -0.1220 -0.0497
 5928TIP3    H139419   1.779   0.192   1.446 -0.0407 -0.3854 -0.1099
 5928TIP3    H239420   1.870   0.239   1.334  0.9965 -0.5612  0.6434
 5929TIP3   OH239421   3.727   4.845   8.024 -0.3179 -0.2179  0.2102
 5929TIP3    H139422   3.773   4.921   7.989  1.6380 -0.6076  1.7475
 5929TIP3    H239423   3.692   4.800   7.947 -1.5061  2.1473 -0.7424
 5930TIP3   OH239424   6.729   0.239   7.832  0.5064  0.3317 -0.2266
 5930TIP3    H139425   6.821   0.265   7.834  0.3640  1.1140 -1.8975
 5930TIP3    H239426   6.708   0.219   7.923  1.9331  1.5473  0.4270
 5931TIP3   OH239427   1.856   3.684   1.953 -0.2849 -0.0039 -0.6823
 5931TIP3    H139428   1.914   3.739   1.900  0.3391  0.6009  0.5853
 5931TIP3    H239429   1.813   3.746   2.012  0.3842 -0.8405  0.7353
 5932TIP3   OH239430   5.510   4.567   0.259 -0.0944 -0.0884 -0.1635
 5932TIP3    H139431   5.496   4.487   0.309 -2.4700  1.0678  1.1525
 5932TIP3    H239432   5.596   4.599   0.288 -0.7353 -0.2633  2.0378
 5933TIP3   OH239433   3.726   2.313   0.351  0.7385 -0.3466  0.0365
 5933TIP3    H139434   3.788   2.386   0.353 -1.7141  1.9288 -0.9818
 5933TIP3    H239435   3.655   2.340   0.409 -0.3689 -1.8267 -0.5702
 5934TIP3   OH239436   5.384   3.118   1.024  0.3443 -0.4697  0.5424
 5934TIP3    H139437   5.376   3.148   1.114  1.6592 -0.7642  0.7729
 5934TIP3    H239438   5.419   3.029   1.031 -1.3869 -1.2678 -0.2078
 5935TIP3   OH239439   0.170   1.867   8.327 -0.1039  0.0676 -0.4399
 5935TIP3    H139440   0.253   1.855   8.282 -0.1774 -0.5209 -0.4166
 5935TIP3    H239441   0.104   1.843   8.262 -0.3069  1.4123 -0.7700
 5936TIP3   OH239442   3.769   1.208   2.191  0.2871 -0.1282  0.2661
 5936TIP3    H139443   3.780   1.266   2.116  1.7830 -0.5229  0.1388
 5936TIP3    H239444   3.699   1.248   2.243  0.7027  1.3156 -0.2461
 5937TIP3   OH239445   5.416   4.448   8.358 -0.3340 -0.0416  0.1242
 5937TIP3    H139446   5.397   4.541   8.348 -0.1005  0.2017  1.6693
 5937TIP3    H239447   5.333   4.409   8.387 -0.1609 -0.1186  0.5231
 5938TIP3   OH239448   6.751   5.240   1.852 -0.2728  0.2691 -0.2697
 5938TIP3    H139449   6.784   5.324   1.884 -1.1787 -0.2704  2.2896
 5938TIP3    H239450   6.796   5.174   1.906 -1.4050 -0.7459 -0.5221
 5939TIP3   OH239451   6.169   3.830   1.974  0.1949 -0.2142  0.0560
 5939TIP3    H139452   6.091   3.792   1.933 -0.1556  0.0913  0.4291
 5939TIP3    H239453   6.160   3.924   1.959 -0.0563 -0.0736  1.0195
 5940TIP3   OH239454   3.273   3.716   8.767 -0.2186  0.1999 -0.1166
 5940TIP3    H139455   3.337   3.748   8.704 -0.1172 -1.6621 -1.0166
 5940TIP3    H239456   3.320   3.712   8.850  0.0941  1.1819 -0.2340
 5941TIP3   OH239457   4.803   1.630   0.698 -0.5086 -0.0292 -0.1735
 5941TIP3    H139458   4.714   1.641   0.731 -0.1127 -1.3495  1.4557
 5941TIP3    H239459   4.858   1.680   0.757 -0.0579 -0.1252 -0.5053
 5942TIP3   OH239460   5.080   4.264   1.398 -0.3831  0.3381 -0.3108
 5942TIP3    H139461   5.082   4.180   1.445  0.8190  0.5343  0.0139
 5942TIP3    H239462   5.170   4.276   1.367 -0.6566  1.2839 -0.7633
 5943TIP3   OH239463   0.188   4.737   8.082 -0.0776  0.3534  0.3614
 5943TIP3    H139464   0.106   4.690   8.066 -0.4047  1.1328 -0.3075
 5943TIP3    H239465   0.243   4.674   8.129 -0.8094 -0.4069  0.2217
 5944TIP3   OH239466   0.130   4.538   8.631 -0.4979 -0.4601  0.0483
 5944TIP3    H139467   0.147   4.570   8.720  2.7061 -0.8815 -0.2935
 5944TIP3    H239468   0.137   4.443   8.639 -0.9973 -0.5442 -0.5022
 5945TIP3   OH239469   6.777   3.156   2.017  0.6253 -0.1624 -0.1066
 5945TIP3    H139470   6.719   3.164   1.941 -0.6290  0.2286  0.8485
 5945TIP3    H239471   6.816   3.069   2.009  0.7011 -0.0240 -1.3254
 5946TIP3   OH239472   0.286   0.696   1.052  0.0705  0.5516 -0.0914
 5946TIP3    H139473   0.382   0.696   1.043  0.2628  0.6050  1.5408
 5946TIP3    H239474   0.265   0.606   1.078 -0.1888  0.7906  0.5571
 5947TIP3   OH239475   5.506   4.875   0.572  0.7493 -0.0384 -0.1159
 5947TIP3    H139476   5.597   4.903   0.572  0.1567  2.5014  3.4682
 5947TIP3    H239477   5.458   4.947   0.532  0.1153 -0.7373 -0.6664
 5948TIP3   OH239478   2.700   3.516   0.837  0.8450  0.4815 -0.1832
 5948TIP3    H139479   2.735   3.428   0.825 -0.6347 -0.0567 -0.8257
 5948TIP3    H239480   2.652   3.512   0.920  0.0596  0.4244 -0.6318
 5949TIP3   OH239481   1.321   0.201   0.569 -0.2699 -0.1129 -0.2325
 5949TIP3    H139482   1.407   0.195   0.612 -0.0256 -0.1490 -0.7131
 5949TIP3    H239483   1.311   0.295   0.549  0.8561 -0.4049 -2.5175
 5950TIP3   OH239484   1.496   1.959   0.218 -0.3249 -0.5883  0.2085
 5950TIP3    H139485   1.429   1.895   0.242  0.8711 -1.2413  2.0303
 5950TIP3    H239486   1.559   1.911   0.165 -0.4008 -0.4327 -0.0234
 5951TIP3   OH239487   5.058   4.783   0.120  0.3438  0.4069  0.3763
 5951TIP3    H139488   5.110   4.862   0.109 -0.6759  1.1286  0.6155
 5951TIP3    H239489   5.006   4.777   0.040  0.4880 -0.0739  0.3174
 5952TIP3   OH239490   1.415   1.345   3.339  0.2846  0.0116 -0.1115
 5952TIP3    H139491   1.468   1.334   3.261  1.2799 -0.1077  0.5674
 5952TIP3    H239492   1.349   1.410   3.315  1.6996  1.3387 -0.4950
 5953TIP3   OH239493   5.760   5.641   2.517 -0.3263 -0.2528  0.4529
 5953TIP3    H139494   5.695   5.639   2.587 -0.9345 -0.4976 -0.1095
 5953TIP3    H239495   5.743   5.721   2.468 -0.6493 -0.6490 -0.1009
 5954TIP3   OH239496   6.389   2.384   1.466  0.1163  0.3094  0.6615
 5954TIP3    H139497   6.320   2.385   1.532 -0.5393  0.2839  0.0024
 5954TIP3    H239498   6.400   2.476   1.441  0.0020  0.2713  0.4609
 5955TIP3   OH239499   3.462   1.196   1.133 -0.3701  0.5432 -0.1378
 5955TIP3    H139500   3.474   1.289   1.114  0.6350  0.0834 -2.0361
 5955TIP3    H239501   3.546   1.156   1.108 -0.7149 -0.8522  0.8433
 5956TIP3   OH239502   5.151   1.853   8.770  0.3355  0.0921  0.3773
 5956TIP3    H139503   5.088   1.821   8.706  0.7891  1.8181 -1.0032
 5956TIP3    H239504   5.198   1.923   8.726  0.2012  1.8740  2.8399
 5957TIP3   OH239505   3.830   5.625   0.582 -0.3433 -0.0336  0.2643
 5957TIP3    H139506   3.770   5.676   0.637 -0.4385  1.4807 -1.1614
 5957TIP3    H239507   3.903   5.604   0.639 -1.4256 -0.4395  1.5645
 5958TIP3   OH239508   4.046   0.243   8.316 -0.9990 -0.3178  0.4253
 5958TIP3    H139509   4.100   0.278   8.387  1.4071 -0.1648 -1.3540
 5958TIP3    H239510   3.983   0.185   8.360 -0.2016  0.4448  2.7249
 5959TIP3   OH239511   4.786   0.873   2.723  0.4411  0.3006  0.0862
 5959TIP3    H139512   4.835   0.949   2.754  0.2952  0.4769 -0.1111
 5959TIP3    H239513   4.849   0.801   2.725  0.1109  0.0301  1.9580
 5960TIP3   OH239514   0.204   1.280   8.718  0.4210  0.2074  0.1797
 5960TIP3    H139515   0.279   1.339   8.713 -0.9817  1.9953 -3.0689
 5960TIP3    H239516   0.221   1.213   8.651 -0.8511  0.7014 -0.6806
 5961TIP3   OH239517   1.501   5.562   1.445 -0.2026  0.0823  0.2457
 5961TIP3    H139518   1.539   5.475   1.429 -1.2827 -0.0229 -2.0487
 5961TIP3    H239519   1.478   5.560   1.538  0.2825 -1.8893  0.3791
 5962TIP3   OH239520   4.714   1.814   1.629 -0.8104  0.5088  0.5344
 5962TIP3    H139521   4.647   1.882   1.623  0.0768  1.4266  0.7061
 5962TIP3    H239522   4.740   1.814   1.721 -0.6516  0.0844  0.4903
 5963TIP3   OH239523   3.827   3.708   0.355 -0.2304 -0.5507 -0.1041
 5963TIP3    H139524   3.794   3.795   0.376  2.3598  0.0966  1.8263
 5963TIP3    H239525   3.860   3.674   0.438  0.1580 -2.7923 -1.0962
 5964TIP3   OH239526   2.779   3.029   1.419  0.0670 -0.0740 -0.1404
 5964TIP3    H139527   2.816   3.090   1.356  1.3841 -0.9536 -0.2653
 5964TIP3    H239528   2.686   3.025   1.397  0.3760  0.1758 -1.5775
 5965TIP3   OH239529   1.056   1.219   3.542 -0.4389 -0.1559  0.5766
 5965TIP3    H139530   1.024   1.309   3.539  1.2312  0.4735  0.5800
 5965TIP3    H239531   1.135   1.223   3.597  0.0644 -1.4793 -0.0055
 5966TIP3   OH239532   5.714   5.828   8.386 -0.0246  0.3390  0.0442
 5966TIP3    H139533   5.629   5.868   8.369  1.7052  3.7525 -1.4310
 5966TIP3    H239534   5.762   5.893   8.436  2.2636 -0.7823 -0.5447
 5967TIP3   OH239535   1.382   5.334   1.792  0.3553  0.7224  0.2938
 5967TIP3    H139536   1.461   5.294   1.828 -0.1307  0.1094  0.6992
 5967TIP3    H239537   1.383   5.311   1.699 -0.3323 -0.9616  0.6679
 5968TIP3   OH239538   3.114   1.513   2.231 -0.0800 -0.2634 -0.0240
 5968TIP3    H139539   3.040   1.478   2.182 -0.4908 -0.4451  0.7223
 5968TIP3    H239540   3.086   1.600   2.259  0.6167  0.3449 -1.1351
 5969TIP3   OH239541   1.183   4.782   1.945  0.2045  0.8153 -0.1107
 5969TIP3    H139542   1.246   4.810   1.879 -2.1390  1.6009 -2.1631
 5969TIP3    H239543   1.136   4.709   1.905 -1.9786  1.9806  0.1724
 5970TIP3   OH239544   4.239   5.244   0.832 -0.3131  0.7877  0.6704
 5970TIP3    H139545   4.147   5.241   0.856 -0.1845 -0.6182  1.0752
 5970TIP3    H239546   4.249   5.176   0.766  0.5764  0.3475  1.2270
 5971TIP3   OH239547   1.476   0.735   3.089  0.3321  0.3183 -0.2408
 5971TIP3    H139548   1.501   0.724   3.181 -2.4288 -1.1746  0.4720
 5971TIP3    H239549   1.512   0.820   3.064  1.1609  0.7881  2.2299
 5972TIP3   OH239550   4.462   3.554   2.912 -0.7440  0.8616 -0.2141
 5972TIP3    H139551   4.463   3.468   2.868 -0.5624  1.6423 -1.8076
 5972TIP3    H239552   4.530   3.548   2.979 -1.2565 -0.4912  0.2258
 5973TIP3   OH239553   2.760   0.355   8.654 -0.5183 -0.5507 -0.1411
 5973TIP3    H139554   2.840   0.400   8.680 -0.3626 -0.1926 -1.1955
 5973TIP3    H239555   2.789   0.284   8.597 -0.9910  0.1116 -1.2418
 5974TIP3   OH239556   5.600   6.550   7.484  0.5526  0.2726  0.2863
 5974TIP3    H139557   5.522   6.508   7.446  1.8448 -2.1251  0.0293
 5974TIP3    H239558   5.632   6.608   7.415 -0.7551  0.9741  0.2463
 5975TIP3   OH239559   5.449   0.038   8.900 -0.0045 -0.1411 -0.2377
 5975TIP3    H139560   5.409  -0.047   8.886 -1.3614  0.5380 -0.6899
 5975TIP3    H239561   5.425   0.089   8.823  1.1138  0.5344 -0.1536
 5976TIP3   OH239562   0.679   1.568   2.637 -0.3203  0.4413 -0.2567
 5976TIP3    H139563   0.599   1.586   2.685 -2.0122 -1.4977 -2.1324
 5976TIP3    H239564   0.667   1.611   2.552  0.6749  0.1976 -0.5428
 5977TIP3   OH239565   6.581   2.727   1.305 -0.3580 -0.5269  0.4856
 5977TIP3    H139566   6.625   2.692   1.382  0.1715  0.8214  0.8083
 5977TIP3    H239567   6.488   2.708   1.319 -0.2054 -0.7409  1.2052
 5978TIP3   OH239568   1.800   4.639   1.564  0.5039  0.0585  0.3274
 5978TIP3    H139569   1.784   4.730   1.539 -0.1769 -0.0698  0.2688
 5978TIP3    H239570   1.809   4.642   1.659 -2.0281 -0.1195  0.6441
 5979TIP3   OH239571   6.414   6.541   8.598 -0.2781 -0.2141 -0.0767
 5979TIP3    H139572   6.377   6.596   8.529  0.1493 -2.0529 -1.8737
 5979TIP3    H239573   6.504   6.571   8.607 -0.7422  0.9792  0.7374
 5980TIP3   OH239574   0.746   3.888   2.794 -0.2128 -0.0147  0.0574
 5980TIP3    H139575   0.754   3.793   2.796  0.1282 -0.0890 -2.2464
 5980TIP3    H239576   0.756   3.915   2.885 -2.0136 -2.2796  1.0237
 5981TIP3   OH239577   5.858   4.068   1.853  0.4329 -0.1748 -0.1052
 5981TIP3    H139578   5.940   4.116   1.866  1.0151 -0.8746 -1.0832
 5981TIP3    H239579   5.882   3.992   1.800 -1.0200  0.1241 -1.2732
 5982TIP3   OH239580   4.742   2.724   1.831 -0.3119 -0.2755  0.0542
 5982TIP3    H139581   4.668   2.737   1.890 -0.3758  1.6088 -0.3513
 5982TIP3    H239582   4.765   2.632   1.840 -1.0872 -0.3149  2.0862
 5983TIP3   OH239583   4.500   4.299   7.867  0.5027 -0.1977  0.3798
 5983TIP3    H139584   4.443   4.272   7.794 -2.7745  1.5225  2.0668
 5983TIP3    H239585   4.569   4.351   7.827  1.6195 -3.1361 -1.8914
 5984TIP3   OH239586   6.506   3.656   7.976 -0.1942 -0.8655  0.2408
 5984TIP3    H139587   6.528   3.712   7.901 -2.7382 -1.4677 -1.0733
 5984TIP3    H239588   6.466   3.579   7.937 -0.2636 -1.8731  2.2022
 5985TIP3   OH239589   1.229   0.921   0.917  0.3588  0.1919  0.1417
 5985TIP3    H139590   1.143   0.960   0.928 -0.0440  0.0352 -1.9729
 5985TIP3    H239591   1.255   0.893   1.005 -1.7275  0.2656  0.8252
 5986TIP3   OH239592   5.587   1.972   8.428 -0.3442 -0.3102  0.0496
 5986TIP3    H139593   5.587   2.047   8.368 -0.6335 -0.6789 -0.4181
 5986TIP3    H239594   5.497   1.939   8.424 -0.4599 -0.1270  0.9568
 5987TIP3   OH239595   6.074   2.721   8.292 -0.0255  0.4221  0.0681
 5987TIP3    H139596   6.044   2.634   8.319  1.2007  0.4660  1.7113
 5987TIP3    H239597   5.996   2.763   8.257 -1.8142  0.2530  3.4487
 5988TIP3   OH239598   4.945   3.899   8.678  0.7216  0.7083  0.2268
 5988TIP3    H139599   4.968   3.954   8.604 -0.0545 -1.7189 -1.9872
 5988TIP3    H239600   5.020   3.904   8.737  0.1517  5.0383  0.9032
 5989TIP3   OH239601   4.857   6.296   0.066 -0.2701 -0.1231 -0.1705
 5989TIP3    H139602   4.931   6.349   0.095  1.2776 -1.8704 -0.7258
 5989TIP3    H239603   4.874   6.280  -0.027 -0.4255 -1.9029  0.0729
 5990TIP3   OH239604   5.244   3.176   1.992  0.5030  1.0024 -0.1116
 5990TIP3    H139605   5.335   3.196   2.016  0.4542 -0.8522  1.8708
 5990TIP3    H239606   5.245   3.084   1.968 -1.2861  0.1005  2.8087
 5991TIP3   OH239607   1.953   0.594   1.487  0.4520 -0.0556  0.8378
 5991TIP3    H139608   1.901   0.519   1.516  1.3111 -1.4304 -0.9853
 5991TIP3    H239609   1.902   0.632   1.415  0.4998  0.5040  1.0957
 5992TIP3   OH239610   1.247   1.950   0.752  0.4390  0.0389 -0.7503
 5992TIP3    H139611   1.297   2.030   0.734  0.7799  0.0788  0.3015
 5992TIP3    H239612   1.196   1.935   0.673 -1.6055  2.7295 -0.0677
 5993TIP3   OH239613   2.418   1.233   0.026  0.0487 -0.4493 -0.1635
 5993TIP3    H139614   2.436   1.214  -0.066 -0.2339 -0.8297 -0.1435
 5993TIP3    H239615   2.405   1.328   0.029  1.9199 -0.1419 -0.1976
 5994TIP3   OH239616   3.816   6.303   3.066 -0.1836  0.1351  0.0602
 5994TIP3    H139617   3.835   6.324   2.975 -1.0737  2.2598  0.3049
 5994TIP3    H239618   3.821   6.387   3.112 -1.2690 -0.6317  1.6916
 5995TIP3   OH239619   4.770   5.681   8.135  0.0052  0.3714 -0.5858
 5995TIP3    H139620   4.862   5.693   8.158 -0.5701  0.1871  2.2519
 5995TIP3    H239621   4.734   5.770   8.133 -0.4500  0.3211  2.0456
 5996TIP3   OH239622   0.915   1.974   1.071  0.3848 -0.3512 -0.3572
 5996TIP3    H139623   0.903   2.030   0.994 -0.9995  0.5748  0.4903
 5996TIP3    H239624   0.876   2.023   1.143  4.2947  0.2133  1.6239
 5997TIP3   OH239625   3.768   3.673   2.601 -0.9538  0.0784  0.4359
 5997TIP3    H139626   3.832   3.738   2.629 -0.3187  0.3805 -1.5801
 5997TIP3    H239627   3.819   3.595   2.582 -1.5862 -0.6944  1.7526
 5998TIP3   OH239628   6.710   0.579   3.406 -0.2016 -0.2099  0.6228
 5998TIP3    H139629   6.691   0.632   3.484  0.1556 -0.1541  0.6721
 5998TIP3    H239630   6.724   0.643   3.337  2.9735 -0.0637  1.2475
 5999TIP3   OH239631   2.811   1.704   8.255 -0.4448  0.0552  0.0389
 5999TIP3    H139632   2.872   1.690   8.181  0.6837  0.9116  0.7757
 5999TIP3    H239633   2.767   1.786   8.234 -1.9894 -0.9543 -0.8841
 6000TIP3   OH239634   5.726   5.321   1.041  0.4251  0.6088 -0.1365
 6000TIP3    H139635   5.730   5.253   0.974 -0.6883  0.4769 -0.0951
 6000TIP3    H239636   5.710   5.402   0.992  1.8295  0.8788 -0.1931
 6001TIP3   OH239637   6.056   3.612   8.319  0.1061 -0.1185  0.1028
 6001TIP3    H139638   6.009   3.583   8.397 -0.9041 -0.7411 -0.7061
 6001TIP3    H239639   6.037   3.545   8.253  1.4257  0.0822 -0.5161
 6002TIP3   OH239640   5.914   6.680   2.076 -0.3820  0.1713 -0.4738
 6002TIP3    H139641   5.877   6.764   2.049 -1.1709 -0.4917 -1.5383
 6002TIP3    H239642   5.857   6.650   2.148 -1.1399 -0.2189 -1.2158
 6003TIP3   OH239643   5.701   0.963   1.309  0.1153  0.0934  1.0152
 6003TIP3    H139644   5.696   0.928   1.398 -0.0279 -0.8553  0.6453
 6003TIP3    H239645   5.770   0.911   1.267 -0.5136 -0.1503  0.2729
 6004TIP3   OH239646   0.649   4.095   0.959  0.1271 -0.2520  0.0231
 6004TIP3    H139647   0.658   4.145   0.878  0.3719  1.0703  0.8427
 6004TIP3    H239648   0.584   4.144   1.010  1.5240  0.1385  1.5018
 6005TIP3   OH239649   2.395   2.118   1.364  0.3522 -0.2893  0.3261
 6005TIP3    H139650   2.332   2.068   1.415 -1.1719  0.2478 -0.9589
 6005TIP3    H239651   2.446   2.052   1.318 -0.8752 -0.7163 -0.4633
 6006TIP3   OH239652   0.600   5.126   1.443  0.2195  0.8799 -0.2387
 6006TIP3    H139653   0.644   5.175   1.374  0.5266  1.6605  0.5010
 6006TIP3    H239654   0.632   5.036   1.432 -0.9254  0.6526 -2.0705
 6007TIP3   OH239655   2.785   5.476   1.462  0.7624  0.5601 -0.0406
 6007TIP3    H139656   2.824   5.391   1.445 -1.7920 -0.3510 -1.8134
 6007TIP3    H239657   2.707   5.458   1.514  0.8352  1.9707  0.6246
 6008TIP3   OH239658   5.380   2.664   1.070  0.1054  0.2065 -0.0691
 6008TIP3    H139659   5.352   2.706   1.151  0.8829  1.4158 -0.4051
 6008TIP3    H239660   5.450   2.720   1.036 -0.1472 -0.3075 -1.5343
 6009TIP3   OH239661   3.779   1.958   8.758  0.0682 -0.3120 -0.2597
 6009TIP3    H139662   3.782   1.965   8.854 -0.9621  1.1922 -0.3079
 6009TIP3    H239663   3.816   2.040   8.727 -4.6737  1.8792 -1.0169
 6010TIP3   OH239664   4.788   3.102   1.686 -0.0798  0.0518  0.5658
 6010TIP3    H139665   4.843   3.026   1.705  1.3990  1.1855  0.9890
 6010TIP3    H239666   4.763   3.092   1.595  2.2779  0.3341 -0.1730
 6011TIP3   OH239667   3.375   4.646   1.851 -0.1589 -0.6863  0.2899
 6011TIP3    H139668   3.433   4.714   1.885  0.3887 -0.9951 -0.0366
 6011TIP3    H239669   3.389   4.571   1.909  0.5925 -1.1318 -0.4667
 6012TIP3   OH239670   6.089   6.571   0.936  0.0857 -0.4986  0.1531
 6012TIP3    H139671   6.104   6.651   0.886 -0.4544  1.0351  2.2894
 6012TIP3    H239672   6.148   6.507   0.897  1.8509  1.4327 -0.5146
 6013TIP3   OH239673   0.443   0.533   2.844  0.7942 -0.2385 -0.8602
 6013TIP3    H139674   0.403   0.606   2.797 -0.7458 -0.8419 -0.5547
 6013TIP3    H239675   0.421   0.549   2.936  0.8161 -0.8631 -0.7422
 6014TIP3   OH239676   6.657   2.461   8.948 -0.6674 -0.0074  0.0274
 6014TIP3    H139677   6.645   2.509   8.866 -1.9995 -1.0795 -0.4468
 6014TIP3    H239678   6.743   2.489   8.980 -0.1633  0.5084 -1.6692
 6015TIP3   OH239679   3.725   4.662   2.841  0.0576  0.5460 -0.0307
 6015TIP3    H139680   3.801   4.674   2.785  1.2018 -1.5528  0.9390
 6015TIP3    H239681   3.761   4.656   2.930 -1.4206  1.1923  0.6502
 6016TIP3   OH239682   4.369   1.740   8.518 -0.5364 -0.1205  0.3041
 6016TIP3    H139683   4.318   1.680   8.462 -0.8435  0.4201 -0.0055
 6016TIP3    H239684   4.391   1.687   8.595  0.7742 -1.2049 -0.7661
 6017TIP3   OH239685   6.515   5.600   0.156 -0.6035 -0.4703 -0.2834
 6017TIP3    H139686   6.486   5.509   0.170 -0.3562 -0.5294 -0.1623
 6017TIP3    H239687   6.434   5.651   0.162 -0.8169 -0.7332 -0.8198
 6018TIP3   OH239688   3.404   3.331   8.088  0.0849 -0.1401  0.1215
 6018TIP3    H139689   3.346   3.287   8.026  2.5551 -0.5995 -2.0655
 6018TIP3    H239690   3.382   3.423   8.081 -1.3837 -0.4295  0.5429
 6019TIP3   OH239691   0.185   1.105   2.418  0.0637 -0.1374  0.0019
 6019TIP3    H139692   0.153   1.161   2.489 -0.3506 -0.0678 -0.2363
 6019TIP3    H239693   0.262   1.062   2.454  0.2270  0.3834  0.2766
 6020TIP3   OH239694   6.487   3.772   2.832  0.6881  0.1698  0.0634
 6020TIP3    H139695   6.422   3.815   2.888 -1.0087 -1.8914 -0.2248
 6020TIP3    H239696   6.553   3.740   2.893  0.7091  1.0427  0.5114
 6021TIP3   OH239697   0.815   6.337   0.538 -0.0615  0.1641  0.1462
 6021TIP3    H139698   0.769   6.359   0.457  0.6732  1.8119  0.1428
 6021TIP3    H239699   0.783   6.401   0.602 -1.1783 -1.5658  1.4056
 6022TIP3   OH239700   4.647   5.916   8.034 -0.4015  0.4000  0.3299
 6022TIP3    H139701   4.597   5.885   7.958  0.1127  0.9889 -0.2655
 6022TIP3    H239702   4.702   5.986   7.999  2.5853 -1.7212  0.3967
 6023TIP3   OH239703   6.258   5.742   0.004  0.2882 -0.5814 -0.1624
 6023TIP3    H139704   6.220   5.692   0.076 -2.8393  0.1548 -1.1417
 6023TIP3    H239705   6.283   5.676  -0.060 -1.9033 -1.0633 -0.5922
 6024TIP3   OH239706   6.069   0.145   2.741 -0.6501  0.2146  0.1240
 6024TIP3    H139707   6.050   0.238   2.730 -1.7870  0.0156  0.3144
 6024TIP3    H239708   6.164   0.139   2.728 -0.6482  1.2956 -0.5424
 6025TIP3   OH239709   1.449   0.475   3.364 -0.5485 -0.3190 -0.0911
 6025TIP3    H139710   1.484   0.411   3.426 -0.3692  1.1823  1.4521
 6025TIP3    H239711   1.441   0.556   3.415 -0.6937  0.9209 -1.9633
 6026TIP3   OH239712   6.512   4.060   1.893 -0.4039 -0.2046  0.1145
 6026TIP3    H139713   6.556   3.975   1.902  0.2480  0.0614 -0.4570
 6026TIP3    H239714   6.577   4.116   1.852  0.2313  1.4358  3.1021
 6027TIP3   OH239715   3.455   3.340   2.525  0.5415  0.2118 -0.5486
 6027TIP3    H139716   3.476   3.318   2.615  1.1697  2.1515 -0.1673
 6027TIP3    H239717   3.531   3.311   2.474 -0.0844 -1.4547 -0.5774
 6028TIP3   OH239718   6.131   4.896   1.211  0.3562 -0.6333  0.4382
 6028TIP3    H139719   6.141   4.970   1.271  1.1554 -2.5684  2.8674
 6028TIP3    H239720   6.218   4.883   1.173 -0.0054  0.2071 -0.7312
 6029TIP3   OH239721   4.061   6.535   1.096  0.1687  0.2047 -0.2336
 6029TIP3    H139722   4.098   6.577   1.019  0.3073 -1.8360 -1.3722
 6029TIP3    H239723   4.096   6.584   1.171  1.3183  1.2460 -1.4121
 6030TIP3   OH239724   1.600   4.481   1.478 -0.1448  0.1429 -0.3606
 6030TIP3    H139725   1.681   4.525   1.502 -0.5200  1.5433 -1.4941
 6030TIP3    H239726   1.624   4.389   1.467  0.6781 -0.0077  2.0293
 6031TIP3   OH239727   6.515   1.977   2.806  0.3153  0.7750  0.2029
 6031TIP3    H139728   6.583   1.934   2.755 -0.1245  1.4663 -0.9874
 6031TIP3    H239729   6.551   2.063   2.827 -0.0553  1.0219 -0.1565
 6032TIP3   OH239730   6.370   4.188   2.165 -0.1493  0.3681  0.1777
 6032TIP3    H139731   6.399   4.122   2.103  0.8909  1.2401 -0.2973
 6032TIP3    H239732   6.449   4.213   2.213 -0.1273  2.4652 -0.8296
 6033TIP3   OH239733   6.658   1.447   8.047  0.2525 -0.1265  0.0882
 6033TIP3    H139734   6.672   1.540   8.027  0.9598 -0.5042 -1.2898
 6033TIP3    H239735   6.742   1.417   8.082  0.4698 -0.5420 -0.7515
 6034TIP3   OH239736   4.204   3.173   1.907  0.5721 -0.0892 -0.1922
 6034TIP3    H139737   4.291   3.155   1.943  0.9010 -0.0589 -0.9661
 6034TIP3    H239738   4.203   3.267   1.892  1.2113 -0.3542 -2.1989
 6035TIP3   OH239739   2.661   1.370   1.578  0.2642  0.0112  0.2217
 6035TIP3    H139740   2.722   1.437   1.610  2.5860 -1.7126 -0.3729
 6035TIP3    H239741   2.706   1.330   1.504 -1.2018 -1.9805  0.3329
 6036TIP3   OH239742   3.475   1.024   2.635  0.1391  0.0360 -0.0825
 6036TIP3    H139743   3.527   1.031   2.555  0.5179  1.8446  0.2794
 6036TIP3    H239744   3.430   1.108   2.642 -0.5655 -0.4109  1.1606
 6037TIP3   OH239745   6.097   3.876   1.507  0.3518 -0.0305 -0.9619
 6037TIP3    H139746   6.026   3.938   1.487  0.3736  0.3786  0.1521
 6037TIP3    H239747   6.064   3.826   1.581  0.4539 -1.1930 -1.6695
 6038TIP3   OH239748   4.698   4.138   1.530  0.4923 -0.2015  0.1080
 6038TIP3    H139749   4.773   4.123   1.587  1.9204 -1.3057 -1.9351
 6038TIP3    H239750   4.629   4.082   1.565  0.8780  0.1656  1.5111
 6039TIP3   OH239751   1.849   5.572   1.464  0.1237  0.3253  0.1124
 6039TIP3    H139752   1.754   5.566   1.455  0.0308 -0.1479  1.2209
 6039TIP3    H239753   1.865   5.561   1.557  1.3221 -0.3352 -0.1483
 6040TIP3   OH239754   0.232   0.695   1.339  0.4925  0.0523  0.1656
 6040TIP3    H139755   0.307   0.706   1.280  0.4072  2.1552  0.3987
 6040TIP3    H239756   0.244   0.761   1.407 -0.8330 -0.5371  1.0258
 6041TIP3   OH239757   2.971   6.650   2.564 -0.0228 -0.0578 -0.1994
 6041TIP3    H139758   2.893   6.658   2.510 -0.5156 -0.0691  0.4932
 6041TIP3    H239759   3.005   6.739   2.571 -1.3278  0.3577  1.4411
 6042TIP3   OH239760   2.669   2.764   1.309  0.1379  0.1995  0.4264
 6042TIP3    H139761   2.727   2.815   1.252 -0.1157 -0.3536 -0.3568
 6042TIP3    H239762   2.604   2.726   1.249 -0.6328  0.2572  1.1958
 6043TIP3   OH239763   1.912   2.011   8.015  0.3480 -0.0156  0.2265
 6043TIP3    H139764   1.930   1.945   7.948  0.9258  0.0953  0.2674
 6043TIP3    H239765   1.868   2.081   7.968  0.2958 -0.1568  0.0621
 6044TIP3   OH239766   5.106   4.467   0.517  0.0532 -0.0853  0.1426
 6044TIP3    H139767   5.071   4.386   0.555 -0.6596  0.3701  0.4862
 6044TIP3    H239768   5.057   4.478   0.435 -0.7341  0.6200  0.6855
 6045TIP3   OH239769   1.416   3.672   2.049  0.3096 -0.5811  0.2724
 6045TIP3    H139770   1.368   3.742   2.092  0.6083 -0.3060  0.1613
 6045TIP3    H239771   1.439   3.611   2.119  2.0011  0.5419  0.7537
 6046TIP3   OH239772   6.043   0.400   0.625 -0.1744 -0.1361 -0.3765
 6046TIP3    H139773   6.059   0.396   0.531 -0.7021 -0.4163 -0.4604
 6046TIP3    H239774   5.952   0.373   0.635  0.5067 -2.3585  0.4096
 6047TIP3   OH239775   0.072   1.279   0.552 -0.1489 -0.9081 -0.7626
 6047TIP3    H139776   0.088   1.259   0.644 -1.7632 -0.0918 -0.2698
 6047TIP3    H239777   0.109   1.204   0.504  0.9645 -1.2067  0.5046
 6048TIP3   OH239778   1.067   1.712   2.553  0.2998 -0.2780  0.4818
 6048TIP3    H139779   1.157   1.719   2.520 -0.2349  0.2463 -0.9512
 6048TIP3    H239780   1.015   1.692   2.476 -0.9059  0.0917  1.1754
 6049TIP3   OH239781   6.400   2.684   3.497  0.4491  0.4216 -0.0398
 6049TIP3    H139782   6.413   2.592   3.477  1.3029  0.9388 -2.0334
 6049TIP3    H239783   6.305   2.692   3.511  0.2780 -0.6364 -0.4734
 6050TIP3   OH239784   3.744   2.808   2.954  0.7465  0.0855  0.1256
 6050TIP3    H139785   3.796   2.731   2.976  1.5839  0.2758 -1.0817
 6050TIP3    H239786   3.798   2.882   2.983  0.0413  0.2347  1.0912
 6051TIP3   OH239787   6.166   4.479   0.858 -0.5515  0.2770  0.2261
 6051TIP3    H139788   6.144   4.570   0.879  3.5913  1.3688  0.6261
 6051TIP3    H239789   6.100   4.427   0.904 -2.0954  2.9907  1.3212
 6052TIP3   OH239790   6.173   4.938   0.338  0.3134 -0.4702  0.1819
 6052TIP3    H139791   6.155   5.031   0.330 -0.3590 -0.7108 -1.3730
 6052TIP3    H239792   6.214   4.929   0.424  1.7277  1.4581 -0.2215
 6053TIP3   OH239793   2.885   0.129   8.941 -0.3259  0.4958  0.5099
 6053TIP3    H139794   2.916   0.164   9.025  0.0702  1.4566 -0.0182
 6053TIP3    H239795   2.947   0.164   8.877 -0.2054 -0.7995 -0.1073
 6054TIP3   OH239796   2.501   3.405   2.249  0.5127  0.7457 -0.2687
 6054TIP3    H139797   2.407   3.408   2.234  0.5496 -1.6307 -1.3265
 6054TIP3    H239798   2.540   3.444   2.171  0.4307 -2.7211 -2.2486
 6055TIP3   OH239799   5.819   4.593   1.499  0.0566  0.0684  0.4212
 6055TIP3    H139800   5.841   4.575   1.590  0.6588  2.8877  0.8953
 6055TIP3    H239801   5.780   4.680   1.500  0.2476  0.2539 -2.0509
 6056TIP3   OH239802   2.661   2.729   8.514  0.5268  0.3310  0.0760
 6056TIP3    H139803   2.735   2.673   8.489  0.7494  1.2097 -1.3462
 6056TIP3    H239804   2.676   2.749   8.606  2.1345  0.5653 -0.2032
 6057TIP3   OH239805   5.410   0.986   1.413  0.2714  0.4696  0.0123
 6057TIP3    H139806   5.321   0.981   1.448  1.1525 -1.0300  2.3176
 6057TIP3    H239807   5.446   1.065   1.452  0.7644 -0.3849  1.3670
 6058TIP3   OH239808   0.724   2.176   2.393  0.3761 -0.4455 -0.7943
 6058TIP3    H139809   0.680   2.097   2.426  0.1901 -1.1002 -2.5283
 6058TIP3    H239810   0.806   2.144   2.356  0.3643  0.2000 -1.3814
 6059TIP3   OH239811   3.145   1.655   7.940 -0.1614 -0.5885  0.6048
 6059TIP3    H139812   3.231   1.696   7.937 -1.0265  1.2508 -1.3303
 6059TIP3    H239813   3.154   1.574   7.890  0.3833 -0.2773  0.1999
 6060TIP3   OH239814   5.865   0.827   8.303 -0.5453 -0.0104 -0.8317
 6060TIP3    H139815   5.844   0.911   8.263  1.2636 -0.1346 -2.1876
 6060TIP3    H239816   5.821   0.762   8.248 -1.6612  0.0004  0.0153
 6061TIP3   OH239817   3.427   1.540   0.003  0.2827  0.2132  0.3019
 6061TIP3    H139818   3.449   1.631  -0.016  0.1300  0.5398  1.6180
 6061TIP3    H239819   3.336   1.531  -0.026  0.6651  0.1327 -0.9205
 6062TIP3   OH239820   3.099   0.242   8.768  0.3342 -0.1313  0.0191
 6062TIP3    H139821   3.169   0.264   8.706 -0.7493  0.3076 -1.0884
 6062TIP3    H239822   3.047   0.175   8.722 -1.4089  1.3374 -0.2736
 6063TIP3   OH239823   0.020   0.707   2.157 -0.5463  0.1010  0.0886
 6063TIP3    H139824  -0.052   0.650   2.129 -0.7697  1.1746 -1.7396
 6063TIP3    H239825   0.094   0.648   2.173 -1.0799 -0.7929 -0.6772
 6064TIP3   OH239826   0.486   4.212   0.482 -0.8445 -0.2957  0.4127
 6064TIP3    H139827   0.551   4.170   0.424 -1.2247 -1.0606  0.5348
 6064TIP3    H239828   0.539   4.268   0.540 -0.3811 -0.1885 -0.0995
 6065TIP3   OH239829   2.175   2.402   0.716  0.2857 -0.0382 -0.0988
 6065TIP3    H139830   2.263   2.407   0.678  0.0503 -1.3667 -0.8662
 6065TIP3    H239831   2.187   2.356   0.799  0.4056  0.4686  0.1739
 6066TIP3   OH239832   3.996   5.366   7.932 -0.8252  0.5609  0.0509
 6066TIP3    H139833   4.061   5.337   7.868 -0.1637 -0.7349  1.2504
 6066TIP3    H239834   4.047   5.395   8.007 -1.6072 -1.0080  1.2413
 6067TIP3   OH239835   2.109   5.946   0.813 -0.0257  0.0900  0.3922
 6067TIP3    H139836   2.123   5.856   0.841 -1.0671  0.2558  1.5254
 6067TIP3    H239837   2.023   5.969   0.848  0.0745  1.4129 -0.1697
 6068TIP3   OH239838   1.822   4.487   8.119  0.4118  0.2118 -0.1901
 6068TIP3    H139839   1.741   4.472   8.069 -0.2751  0.2566  0.8674
 6068TIP3    H239840   1.873   4.547   8.065  0.6987 -1.4621 -1.8780
 6069TIP3   OH239841   0.503   2.696   2.929 -0.1941 -0.3037 -0.5090
 6069TIP3    H139842   0.453   2.654   2.859 -1.0039 -0.3271  0.0592
 6069TIP3    H239843   0.467   2.658   3.009  1.4107 -1.0267 -0.0997
 6070TIP3   OH239844   6.006   2.312   0.741 -0.1566  0.4404  0.7972
 6070TIP3    H139845   6.054   2.368   0.680  0.4412  0.1590  0.9994
 6070TIP3    H239846   6.022   2.223   0.709  0.6172  0.2513  1.6651
 6071TIP3   OH239847   2.969   1.132   1.417  0.3214 -0.6533 -0.4839
 6071TIP3    H139848   3.001   1.101   1.332  0.3276  0.9577 -1.1075
 6071TIP3    H239849   2.946   1.223   1.402  0.1036 -0.3942  1.2106
 6072TIP3   OH239850   4.628   3.754   2.377  0.2272 -0.3588 -0.0743
 6072TIP3    H139851   4.578   3.684   2.335 -1.7252  1.7673 -1.5248
 6072TIP3    H239852   4.715   3.748   2.338 -0.7456 -0.1931 -2.4193
 6073TIP3   OH239853   3.634   2.978   8.444  0.8255  0.4040  0.4367
 6073TIP3    H139854   3.564   3.033   8.409 -0.1318 -1.6430 -1.0702
 6073TIP3    H239855   3.608   2.959   8.534 -0.2317  0.2236  0.0989
 6074TIP3   OH239856   0.465   3.822   8.344 -0.2782  0.1977 -0.0039
 6074TIP3    H139857   0.392   3.766   8.372 -1.0154  1.4486  0.7161
 6074TIP3    H239858   0.512   3.770   8.279 -0.7761 -1.3354  0.7967
 6075TIP3   OH239859   4.182   1.424   2.619 -0.1977 -0.0922 -0.3755
 6075TIP3    H139860   4.216   1.404   2.706  0.6308  1.3866 -0.3199
 6075TIP3    H239861   4.152   1.340   2.584 -1.8481 -0.5305  1.8563
 6076TIP3   OH239862   5.463   5.375   1.155  0.1052  0.6007 -0.2329
 6076TIP3    H139863   5.537   5.331   1.114 -0.4916  1.6350 -2.5527
 6076TIP3    H239864   5.478   5.469   1.140 -1.7614  0.8311 -1.0033
 6077TIP3   OH239865   6.751   3.726   7.782  0.7111 -0.1028  0.2836
 6077TIP3    H139866   6.771   3.651   7.724 -0.6073  0.0565 -0.4025
 6077TIP3    H239867   6.659   3.746   7.765  0.4010  0.2292  2.1504
 6078TIP3   OH239868   6.213   4.925   8.294 -0.1279 -0.6237  0.2367
 6078TIP3    H139869   6.237   4.868   8.222 -1.1380  0.3036 -0.8661
 6078TIP3    H239870   6.119   4.937   8.286 -0.0363  0.6726  0.8231
 6079TIP3   OH239871   5.223   3.451   1.264  0.0186 -0.3082  0.2991
 6079TIP3    H139872   5.262   3.401   1.336  0.9700 -0.5999 -0.4011
 6079TIP3    H239873   5.129   3.430   1.268  0.1727 -0.9091  0.9843
 6080TIP3   OH239874   5.413   2.990   8.275 -0.3552 -0.1568  0.5025
 6080TIP3    H139875   5.382   3.062   8.330 -0.2013  0.8452 -0.6610
 6080TIP3    H239876   5.370   2.912   8.309 -1.3943  0.6638  1.1110
 6081TIP3   OH239877   5.388   1.725   8.575 -0.2246  0.4210 -0.2189
 6081TIP3    H139878   5.295   1.738   8.557 -0.2252  0.2243 -0.3651
 6081TIP3    H239879   5.397   1.630   8.586  0.0214  0.4011 -0.5690
 6082TIP3   OH239880   0.709   5.804   8.597 -0.3017 -0.7124  0.3608
 6082TIP3    H139881   0.621   5.777   8.574  0.6299 -2.8720 -0.9235
 6082TIP3    H239882   0.720   5.776   8.688 -0.5165 -1.6212  0.1161
 6083TIP3   OH239883   4.792   2.792   0.363 -0.0795  0.2758  0.0140
 6083TIP3    H139884   4.819   2.800   0.454  0.6089  0.5389 -0.2106
 6083TIP3    H239885   4.702   2.759   0.368  0.8669 -2.5478  0.7561
 6084TIP3   OH239886   6.765   0.474   0.244  0.3487  0.2669 -0.2646
 6084TIP3    H139887   6.722   0.481   0.159 -0.0794  1.2994  0.0266
 6084TIP3    H239888   6.766   0.380   0.263 -1.2433  0.1774 -0.5452
 6085TIP3   OH239889   5.468   5.852   7.731 -0.6207  0.3284 -0.1456
 6085TIP3    H139890   5.488   5.904   7.653 -0.7674  0.7981  0.1284
 6085TIP3    H239891   5.482   5.911   7.804 -0.0830 -0.2390  0.2157
 6086TIP3   OH239892   3.552   6.083   2.469 -0.0581  0.0145 -0.2452
 6086TIP3    H139893   3.506   6.056   2.390  0.0146  0.8904 -0.5959
 6086TIP3    H239894   3.629   6.026   2.473  0.5743  0.7540 -1.4580
 6087TIP3   OH239895   4.933   5.206   1.188 -0.1476 -0.4721 -0.3622
 6087TIP3    H139896   4.979   5.250   1.260 -0.8316 -0.7257  0.2477
 6087TIP3    H239897   4.993   5.212   1.114  1.0273 -1.1029  0.4946
 6088TIP3   OH239898   3.971   3.861   2.714 -0.1064  0.6801 -0.4815
 6088TIP3    H139899   4.003   3.894   2.798 -0.5333 -0.4670  0.1385
 6088TIP3    H239900   4.050   3.853   2.660  0.3210  0.2728  0.2026
 6089TIP3   OH239901   1.192   5.313   0.099 -0.6545 -0.2496 -0.0847
 6089TIP3    H139902   1.113   5.354   0.133  0.5118  3.0950 -0.9916
 6089TIP3    H239903   1.257   5.326   0.168 -0.2545 -0.5742 -0.3970
 6090TIP3   OH239904   5.264   4.725   1.913 -0.6567 -0.2297 -0.5515
 6090TIP3    H139905   5.312   4.770   1.843  0.3642 -1.8079 -0.9138
 6090TIP3    H239906   5.172   4.736   1.890 -0.3314 -1.1527 -2.4553
 6091TIP3   OH239907   3.319   0.532   0.894  0.1124 -0.2329  0.2247
 6091TIP3    H139908   3.259   0.548   0.822 -2.9246 -1.3588  2.2919
 6091TIP3    H239909   3.405   0.521   0.853 -0.9667  1.7308 -2.8869
 6092TIP3   OH239910   6.159   1.910   2.662  0.1993  0.2782 -0.2948
 6092TIP3    H139911   6.208   1.836   2.627 -2.3439 -1.0385 -1.3146
 6092TIP3    H239912   6.085   1.920   2.603 -2.5001  0.0987  2.7792
 6093TIP3   OH239913   2.613   1.098   2.085 -0.2816 -0.5042 -0.2888
 6093TIP3    H139914   2.591   1.132   1.998 -2.5994 -1.1651 -0.0059
 6093TIP3    H239915   2.532   1.059   2.118  0.8948 -1.5261  1.6134
 6094TIP3   OH239916   4.705   2.505   0.545 -0.8024  0.2869 -0.2758
 6094TIP3    H139917   4.691   2.411   0.530 -3.4195  0.8299 -1.8936
 6094TIP3    H239918   4.679   2.518   0.636 -1.8653 -0.3357 -0.4739
 6095TIP3   OH239919   2.457   5.814   1.807  0.2686 -0.2418 -0.1327
 6095TIP3    H139920   2.521   5.838   1.740 -0.5306 -0.6315 -1.0642
 6095TIP3    H239921   2.402   5.891   1.817  0.4017 -0.1753  0.1008
 6096TIP3   OH239922   0.018   5.187   7.895  0.4436 -0.5584 -0.7507
 6096TIP3    H139923   0.052   5.276   7.902  0.8442 -0.7580 -0.0513
 6096TIP3    H239924   0.074   5.135   7.954 -1.4628 -0.7804  0.9651
 6097TIP3   OH239925   6.640   2.576   0.448  0.1098  0.0480  0.4613
 6097TIP3    H139926   6.559   2.571   0.499 -0.6836 -0.9922 -0.8444
 6097TIP3    H239927   6.699   2.626   0.504 -0.8883 -0.5582  2.1646
 6098TIP3   OH239928   4.556   1.324   8.121 -0.0924  0.2042  0.5089
 6098TIP3    H139929   4.490   1.375   8.167  0.7427  2.2105 -0.3740
 6098TIP3    H239930   4.566   1.244   8.172 -2.3100  0.3941  1.3111
 6099TIP3   OH239931   4.734   5.412   2.669  0.1218 -0.9191 -0.2311
 6099TIP3    H139932   4.737   5.469   2.746  1.5696 -0.4247 -0.6145
 6099TIP3    H239933   4.703   5.328   2.703 -0.9081 -0.2410  0.5573
 6100TIP3   OH239934   2.494   1.548   1.333 -0.5340  0.2296 -0.4434
 6100TIP3    H139935   2.586   1.547   1.307 -0.3832 -0.9269  0.0682
 6100TIP3    H239936   2.494   1.592   1.419 -0.2427 -1.0243  0.2229
 6101TIP3   OH239937   6.706   3.494   3.230 -0.0070 -0.0737 -0.1518
 6101TIP3    H139938   6.732   3.558   3.297 -0.7527 -0.8766  0.9379
 6101TIP3    H239939   6.778   3.430   3.229  0.4712  0.4529 -0.8442
 6102TIP3   OH239940   1.001   0.052   3.351  0.5679 -0.0278  0.7589
 6102TIP3    H139941   1.041   0.016   3.272  0.9919  0.7337  0.6154
 6102TIP3    H239942   0.908   0.059   3.329  0.8292  1.1566 -0.0696
 6103TIP3   OH239943   4.063   5.971   8.710 -0.1590 -0.2750  0.3459
 6103TIP3    H139944   4.132   5.963   8.776 -0.1909 -1.1354  0.2853
 6103TIP3    H239945   4.003   5.898   8.728 -1.5197  0.9299  0.9100
 6104TIP3   OH239946   2.812   3.891   0.503  0.3510 -0.5178 -0.4759
 6104TIP3    H139947   2.811   3.861   0.594  0.6606 -1.1295 -0.6657
 6104TIP3    H239948   2.754   3.829   0.457  0.2289 -0.2390 -0.7011
 6105TIP3   OH239949   1.788   1.548   2.120  0.7670  0.2824  0.3071
 6105TIP3    H139950   1.879   1.537   2.094  0.6353 -0.5687  0.1892
 6105TIP3    H239951   1.745   1.467   2.094  0.2073  0.2216  1.3493
 6106TIP3   OH239952   5.572   0.491   7.714  0.0449 -0.4553 -0.3501
 6106TIP3    H139953   5.495   0.487   7.657  0.0913  0.7040 -0.5264
 6106TIP3    H239954   5.644   0.462   7.659 -0.4009 -2.6660  0.1456
 6107TIP3   OH239955   2.265   1.682   8.208  0.2223  0.6155 -0.1951
 6107TIP3    H139956   2.207   1.608   8.226 -1.0685  1.2569 -1.4367
 6107TIP3    H239957   2.231   1.752   8.263 -0.0327  0.9213 -0.7333
 6108TIP3   OH239958   0.760   2.636   2.200  0.3308  0.1009  0.6399
 6108TIP3    H139959   0.755   2.554   2.248 -2.5806 -0.3012 -0.1188
 6108TIP3    H239960   0.704   2.696   2.250  2.4010  1.6916  1.1820
 6109TIP3   OH239961   0.389   3.704   1.679  0.4681 -0.5518  0.3135
 6109TIP3    H139962   0.375   3.734   1.589 -0.7581  0.3048  0.7592
 6109TIP3    H239963   0.456   3.763   1.713  0.9141 -0.8596 -0.0318
 6110TIP3   OH239964   6.089   1.598   8.472  0.1372  0.2465 -0.5034
 6110TIP3    H139965   6.064   1.603   8.564  0.7689 -1.9397 -0.1744
 6110TIP3    H239966   6.007   1.583   8.425 -0.0154 -0.0830 -0.1357
 6111TIP3   OH239967   2.103   1.433   1.445 -0.5010 -0.0960  0.4779
 6111TIP3    H139968   2.050   1.436   1.365  0.5064  2.2212 -0.1933
 6111TIP3    H239969   2.156   1.354   1.436  0.5905  0.8153 -1.8607
 6112TIP3   OH239970   3.723   0.900   8.811  0.1288  0.1010  0.1520
 6112TIP3    H139971   3.762   0.829   8.760  0.9305 -0.1071  1.0269
 6112TIP3    H239972   3.701   0.967   8.746  1.1044 -0.1602 -0.4661
 6113TIP3   OH239973   6.275   6.354   1.199  0.2123  0.1433  0.9029
 6113TIP3    H139974   6.223   6.367   1.278  2.3239 -1.6168  2.6876
 6113TIP3    H239975   6.285   6.443   1.163 -1.6609  0.8500  1.9626
 6114TIP3   OH239976   6.591   6.402   2.418  0.7656  0.6921  0.0276
 6114TIP3    H139977   6.672   6.452   2.407  0.3606  1.5963  1.0517
 6114TIP3    H239978   6.558   6.391   2.329  1.9011  0.4865 -0.3845
 6115TIP3   OH239979   5.109   3.377   0.073  0.1572 -0.1488  0.2970
 6115TIP3    H139980   5.123   3.292   0.031  0.6097 -0.5351  1.1969
 6115TIP3    H239981   5.065   3.430   0.006  0.4713 -0.8736 -0.5067
 6116TIP3   OH239982   6.422   2.926   1.111  0.2748 -0.4960 -0.0450
 6116TIP3    H139983   6.411   2.948   1.019  1.1781 -2.2543 -0.6069
 6116TIP3    H239984   6.396   2.834   1.117  1.8542 -0.9053  1.1133
 6117TIP3   OH239985   1.858   5.188   7.606 -0.1375  0.1255  0.1765
 6117TIP3    H139986   1.825   5.110   7.560  1.4180 -0.1738 -0.5141
 6117TIP3    H239987   1.781   5.225   7.649 -1.1339 -1.1418 -0.4358
 6118TIP3   OH239988   2.215   5.371   2.534 -0.2815  0.2321 -0.1036
 6118TIP3    H139989   2.220   5.283   2.569  1.6329  0.6950  0.9350
 6118TIP3    H239990   2.253   5.364   2.446  1.8887  0.3133  0.7496
 6119TIP3   OH239991   3.152   3.707   2.979  0.1916  0.0106  0.8413
 6119TIP3    H139992   3.070   3.694   3.028  0.5854 -1.0046  1.2535
 6119TIP3    H239993   3.220   3.670   3.035  0.7293 -0.6541 -0.2274
 6120TIP3   OH239994   2.414   3.510   0.727  0.0443 -0.4026 -0.2969
 6120TIP3    H139995   2.411   3.547   0.638 -0.5287  1.0339  0.2803
 6120TIP3    H239996   2.506   3.515   0.752  0.0945 -0.1120 -0.5346
 6121TIP3   OH239997   2.529   3.481   1.046  0.2629  0.0366  0.2302
 6121TIP3    H139998   2.462   3.446   0.987  0.8728 -0.8595  0.0528
 6121TIP3    H239999   2.518   3.431   1.127  1.8175 -1.3533 -0.3688
 6122TIP3   OH240000   5.651   2.386   0.518  0.3117 -0.4014 -0.4622
 6122TIP3    H140001   5.684   2.305   0.558  1.0098  0.1593  0.1428
 6122TIP3    H240002   5.686   2.384   0.429 -0.7277 -1.3586 -0.8788
 6123TIP3   OH240003   4.577   6.251   1.164 -0.0034 -0.5474  0.1198
 6123TIP3    H140004   4.488   6.268   1.135  0.1996  0.7314  0.1721
 6123TIP3    H240005   4.631   6.262   1.085  0.3764  1.3750  0.6033
 6124TIP3   OH240006   4.802   0.800   0.429 -0.0305 -0.0361 -0.4051
 6124TIP3    H140007   4.751   0.754   0.362 -1.2078  2.1596 -1.1104
 6124TIP3    H240008   4.857   0.860   0.379 -1.4356  2.1375  0.5448
 6125TIP3   OH240009   4.194   2.913   8.494  0.4251 -0.0631 -0.3123
 6125TIP3    H140010   4.118   2.960   8.527  0.6506 -0.5012  0.9137
 6125TIP3    H240011   4.251   2.903   8.571  0.2681 -2.5301 -0.4227
 6126TIP3   OH240012   3.755   1.228   2.517 -0.1933  0.8096 -0.0782
 6126TIP3    H140013   3.821   1.222   2.448  0.5587 -1.5508  0.7472
 6126TIP3    H240014   3.794   1.184   2.593 -3.3794 -2.7901 -0.1758
 6127TIP3   OH240015   4.483   3.914   2.545 -0.0986  0.4004 -0.2435
 6127TIP3    H140016   4.511   3.860   2.472 -1.2126 -0.2477 -0.2039
 6127TIP3    H240017   4.471   3.853   2.618  2.7574  1.2305  1.0861
 6128TIP3   OH240018   3.036   1.464   0.445 -0.6374  0.0027 -0.7749
 6128TIP3    H140019   3.085   1.531   0.492 -0.4326 -2.2622  2.5326
 6128TIP3    H240020   2.948   1.468   0.482 -0.5617 -1.6578 -0.3509
 6129TIP3   OH240021   3.980   2.769   0.952 -0.1402 -0.1072  0.0429
 6129TIP3    H140022   3.967   2.839   1.017 -0.1872  0.2306 -0.3249
 6129TIP3    H240023   3.902   2.774   0.896 -0.3908 -0.7966  0.3248
 6130TIP3   OH240024   2.915   3.057   3.418 -0.0762  0.5658  0.1498
 6130TIP3    H140025   2.964   2.977   3.402 -1.5292 -0.3423  0.0466
 6130TIP3    H240026   2.981   3.126   3.417  0.9533 -0.3356 -2.0847
 6131TIP3   OH240027   5.782   5.965   1.743  0.3042  0.2775 -0.1747
 6131TIP3    H140028   5.717   5.949   1.812  1.0211  0.4444  0.5591
 6131TIP3    H240029   5.741   5.932   1.663  0.1153 -1.4897  0.6079
 6132TIP3   OH240030   4.975   0.524   8.916 -0.1913 -0.9180 -0.0497
 6132TIP3    H140031   4.895   0.473   8.923 -0.0518 -1.0462  0.8027
 6132TIP3    H240032   5.039   0.465   8.876 -0.0163 -1.4531  0.9729
 6133TIP3   OH240033   3.262   4.790   8.246 -0.1037 -0.1854 -0.1152
 6133TIP3    H140034   3.273   4.882   8.271  0.6046  0.0741 -1.3242
 6133TIP3    H240035   3.198   4.756   8.309 -0.7664  1.2664  0.0366
 6134TIP3   OH240036   4.601   5.010   2.037  0.9046  0.1651  0.4154
 6134TIP3    H140037   4.517   5.055   2.050  0.1666 -1.2026  0.5460
 6134TIP3    H240038   4.629   5.037   1.950 -0.5984 -0.7554 -0.3957
 6135TIP3   OH240039   3.070   0.579   7.861 -0.2481 -0.1000  0.1321
 6135TIP3    H140040   3.000   0.528   7.822 -1.6172 -0.4963  2.9126
 6135TIP3    H240041   3.029   0.626   7.934  1.2617  3.8189 -1.2302
 6136TIP3   OH240042   2.862   0.761   0.910  0.1350  0.1920 -0.1715
 6136TIP3    H140043   2.874   0.679   0.862 -0.7423 -0.3962  0.5776
 6136TIP3    H240044   2.904   0.746   0.994 -1.3734 -0.0711  0.5592
 6137TIP3   OH240045   5.310   3.570   0.403 -0.4617  0.5805 -0.8580
 6137TIP3    H140046   5.307   3.525   0.319  2.0035  0.6103 -1.0547
 6137TIP3    H240047   5.318   3.500   0.467 -0.5780  0.6097 -0.8122
 6138TIP3   OH240048   2.420   6.686   7.543  0.2907  0.0967 -0.0703
 6138TIP3    H140049   2.492   6.664   7.603 -0.4457  1.6460  1.4624
 6138TIP3    H240050   2.358   6.734   7.597 -0.5612  1.3101 -2.0288
 6139TIP3   OH240051   3.944   5.608   1.980 -0.0804  0.5974  1.1902
 6139TIP3    H140052   3.999   5.531   1.980 -0.7861  0.0788  1.7861
 6139TIP3    H240053   3.981   5.664   1.911  0.3848 -0.3019  0.6878
 6140TIP3   OH240054   1.982   2.713   1.788  0.4681  0.0231  0.2261
 6140TIP3    H140055   1.938   2.724   1.872 -0.6618 -0.1408 -0.3238
 6140TIP3    H240056   1.986   2.618   1.775  1.6622  0.0006  0.5959
 6141TIP3   OH240057   6.249   1.453   2.654  0.2721 -0.3399  0.1703
 6141TIP3    H140058   6.264   1.360   2.667  2.3556  0.0235  0.7027
 6141TIP3    H240059   6.221   1.485   2.739  0.4550 -0.3187  0.2220
 6142TIP3   OH240060   5.390   1.375   8.966  0.9565  0.0392  0.2387
 6142TIP3    H140061   5.324   1.308   8.948  2.0042 -1.2213  0.8544
 6142TIP3    H240062   5.354   1.456   8.931 -0.7483 -0.6802  0.2634
 6143TIP3   OH240063   0.132   3.113   0.315 -1.0611  0.4081  0.1723
 6143TIP3    H140064   0.136   3.033   0.369 -1.1204  0.3601  0.1065
 6143TIP3    H240065   0.217   3.118   0.273 -0.2368  1.5758  1.8780
 6144TIP3   OH240066   0.240   3.712   2.880  0.3375 -0.1056 -0.7488
 6144TIP3    H140067   0.326   3.671   2.888  0.3476  0.1881  1.0441
 6144TIP3    H240068   0.191   3.679   2.956 -0.4302  1.3692 -0.5715
 6145TIP3   OH240069   1.786   1.914   8.702 -0.1265  0.1687 -0.5833
 6145TIP3    H140070   1.731   1.948   8.631 -0.7153  0.2669 -0.0926
 6145TIP3    H240071   1.808   1.992   8.754 -1.6170 -0.1753  0.6431
 6146TIP3   OH240072   0.270   2.302   2.912 -0.2279  0.0354  0.1390
 6146TIP3    H140073   0.306   2.279   2.827  0.1327  0.5477  0.1497
 6146TIP3    H240074   0.219   2.382   2.896 -0.3460  0.0058  0.3587
 6147TIP3   OH240075   4.819   2.993   0.587  0.3629  0.4168  0.7031
 6147TIP3    H140076   4.859   3.055   0.647  1.1035  0.9462 -0.3051
 6147TIP3    H240077   4.731   2.978   0.622 -0.8373  4.0222 -0.3771
 6148TIP3   OH240078   4.746   6.408   1.774  0.6952  0.0747 -0.3335
 6148TIP3    H140079   4.735   6.480   1.836 -1.0754 -0.7654  0.4139
 6148TIP3    H240080   4.749   6.329   1.829 -0.7898 -0.6733 -1.2379
 6149TIP3   OH240081   1.768   4.553   7.360 -0.2060  0.8033 -0.1851
 6149TIP3    H140082   1.741   4.624   7.417  0.0964  1.3872 -0.7536
 6149TIP3    H240083   1.787   4.595   7.276 -0.7101 -0.0433 -0.7437
 6150TIP3   OH240084   1.718   6.680   8.290  0.0178 -0.1830 -0.2897
 6150TIP3    H140085   1.789   6.727   8.333 -0.9828  1.0097  0.1354
 6150TIP3    H240086   1.675   6.632   8.361 -0.8845  0.8042 -0.1491
 6151TIP3   OH240087   2.763   1.298   1.321  0.7898  0.2286  0.1495
 6151TIP3    H140088   2.737   1.269   1.234  2.0050  1.3762 -0.6434
 6151TIP3    H240089   2.790   1.389   1.309  0.1750  0.6932  1.9029
 6152TIP3   OH240090   1.427   5.657   2.472 -0.1342  0.0387  0.0709
 6152TIP3    H140091   1.415   5.610   2.390 -1.5635 -1.2064  0.9356
 6152TIP3    H240092   1.378   5.738   2.462 -0.2501 -0.0827 -0.3378
 6153TIP3   OH240093   2.723   4.973   7.356 -0.0582  0.2879 -0.1889
 6153TIP3    H140094   2.718   4.994   7.263 -1.3139  2.5633  0.3056
 6153TIP3    H240095   2.711   5.057   7.400 -2.6200 -1.0699  2.0678
 6154TIP3   OH240096   2.265   5.104   2.656 -0.2609  0.1091 -0.1436
 6154TIP3    H140097   2.279   5.010   2.671 -2.1865 -0.1055  0.6134
 6154TIP3    H240098   2.253   5.140   2.744  0.4751  1.0867 -0.4274
 6155TIP3   OH240099   1.046   1.702   3.311  0.2138 -0.3851  0.5319
 6155TIP3    H140100   0.951   1.701   3.302  0.3193  0.9126 -1.4748
 6155TIP3    H240101   1.066   1.788   3.346  0.6184 -0.9927  1.8314
 6156TIP3   OH240102   4.852   5.817   1.396  0.3119  0.3878  0.2192
 6156TIP3    H140103   4.917   5.819   1.326  1.7106  0.1096  1.4568
 6156TIP3    H240104   4.856   5.905   1.434 -0.6726  0.6393 -0.2279
 6157TIP3   OH240105   5.888   3.837   8.226  0.4968 -0.5255  0.3129
 6157TIP3    H140106   5.977   3.803   8.230  0.7789  0.1989  0.5107
 6157TIP3    H240107   5.871   3.869   8.315 -0.6051 -2.1854  0.7391
 6158TIP3   OH240108   6.053   1.357   3.258 -0.2614  0.0151 -0.1439
 6158TIP3    H140109   5.981   1.372   3.319  0.5451  0.6050  0.6762
 6158TIP3    H240110   6.019   1.389   3.174 -1.4285 -0.9382 -0.0762
 6159TIP3   OH240111   2.054   6.379   2.255  0.5836  0.5422  0.3150
 6159TIP3    H140112   2.013   6.294   2.271 -0.1593  0.9301  0.5514
 6159TIP3    H240113   1.985   6.442   2.275  1.2718  1.2172  0.5748
 6160TIP3   OH240114   0.409   3.218   0.792  0.1309  0.3414  0.2769
 6160TIP3    H140115   0.411   3.138   0.740  3.3728 -0.5712  1.5208
 6160TIP3    H240116   0.327   3.214   0.840 -1.3603 -0.4606 -2.1842
 6161TIP3   OH240117   2.291   5.577   0.612  0.5446  0.4636  0.0961
 6161TIP3    H140118   2.378   5.551   0.583 -0.6201 -2.2683 -1.2820
 6161TIP3    H240119   2.231   5.523   0.561 -2.0832  3.2560 -0.0947
 6162TIP3   OH240120   4.491   4.330   1.424 -0.3163  0.0804 -0.1096
 6162TIP3    H140121   4.535   4.412   1.402 -0.2221  0.8519  2.6294
 6162TIP3    H240122   4.555   4.282   1.477 -1.3809 -0.4859  0.6973
 6163TIP3   OH240123   4.838   1.196   8.490  0.1220 -0.5953  0.3842
 6163TIP3    H140124   4.748   1.223   8.512 -0.6739 -2.6188 -0.1602
 6163TIP3    H240125   4.862   1.252   8.416  0.5666  2.1277  2.4261
 6164TIP3   OH240126   4.336   5.671   8.154 -0.5422 -0.0293  0.0430
 6164TIP3    H140127   4.378   5.693   8.070 -2.1272  0.1346 -0.7480
 6164TIP3    H240128   4.248   5.708   8.146 -0.8840 -0.4686  1.5946
 6165TIP3   OH240129   2.385   2.383   8.264  0.2676  0.3692 -0.1428
 6165TIP3    H140130   2.326   2.355   8.194 -2.0746 -0.6931  2.1225
 6165TIP3    H240131   2.414   2.302   8.305  2.4808  0.9275 -0.4666
 6166TIP3   OH240132   5.411   4.778   2.349 -0.8468 -0.2942  0.1623
 6166TIP3    H140133   5.331   4.727   2.363 -1.3549  0.8868  1.8594
 6166TIP3    H240134   5.398   4.819   2.263 -1.2596 -1.4806 -0.3661
 6167TIP3   OH240135   5.235   5.803   0.028  0.0521 -0.4922  0.0422
 6167TIP3    H140136   5.249   5.881  -0.026  0.8317  0.1553  1.1391
 6167TIP3    H240137   5.152   5.819   0.073  0.7197  0.1972  1.0570
 6168TIP3   OH240138   4.700   3.492   2.022 -0.4901  0.3018  0.0388
 6168TIP3    H140139   4.678   3.531   1.938 -0.9620 -0.2478 -0.1028
 6168TIP3    H240140   4.796   3.493   2.026 -0.4650  0.2338 -0.5516
 6169TIP3   OH240141   6.756   3.511   2.550  0.8017 -0.2106  0.0370
 6169TIP3    H140142   6.709   3.476   2.474 -0.2266  0.3717  0.3760
 6169TIP3    H240143   6.839   3.542   2.514  1.0390 -1.4474 -0.5453
 6170TIP3   OH240144   4.874   1.624   8.151  0.1827 -0.0977  0.2209
 6170TIP3    H140145   4.918   1.662   8.075  0.1678  0.7640  0.6338
 6170TIP3    H240146   4.789   1.594   8.117  0.3304 -0.0709 -0.1756
 6171TIP3   OH240147   0.216   4.612   1.354  0.2571 -0.3653 -0.9878
 6171TIP3    H140148   0.141   4.554   1.368 -0.9650  1.5044  0.8668
 6171TIP3    H240149   0.179   4.688   1.309  0.9539  0.6990  0.1841
 6172TIP3   OH240150   0.118   5.444   2.449  0.5140  0.1366 -0.5451
 6172TIP3    H140151   0.117   5.452   2.545  0.9802 -0.0335 -0.5239
 6172TIP3    H240152   0.052   5.507   2.419  1.3855  1.2570 -0.1909
 6173TIP3   OH240153   4.804   0.509   1.822 -0.6096 -0.1663  0.3690
 6173TIP3    H140154   4.850   0.574   1.875  0.9359 -0.9077 -0.0188
 6173TIP3    H240155   4.715   0.544   1.814  0.0416  1.6446  0.5811
 6174TIP3   OH240156   4.044   5.145   8.501  0.3414 -0.0185 -0.1394
 6174TIP3    H140157   4.057   5.208   8.430 -0.5019  0.2178 -0.0930
 6174TIP3    H240158   3.984   5.189   8.562 -0.8515 -1.1301 -0.4641
 6175TIP3   OH240159   4.401   4.827   2.602  0.2441  0.1683  0.0770
 6175TIP3    H140160   4.495   4.832   2.585  0.3424  2.6188  1.0447
 6175TIP3    H240161   4.388   4.881   2.680 -2.1443  0.9778 -0.8234
 6176TIP3   OH240162   3.524   6.019   1.167 -0.5432  0.3198  0.0938
 6176TIP3    H140163   3.583   6.090   1.145 -0.8306  0.5812  0.1599
 6176TIP3    H240164   3.439   6.061   1.179 -0.5477  0.0814  0.9583
 6177TIP3   OH240165   2.769   2.507   8.954 -0.0826  0.3163 -0.1135
 6177TIP3    H140166   2.748   2.425   8.998 -1.8327  1.2637  0.9065
 6177TIP3    H240167   2.839   2.484   8.893  1.3645 -1.3516  2.0577
 6178TIP3   OH240168   3.287   3.055   1.520 -0.4336  0.2872 -0.1624
 6178TIP3    H140169   3.219   2.997   1.485 -0.4771 -0.6157  1.3106
 6178TIP3    H240170   3.242   3.107   1.587 -0.0517  0.9297 -0.3980
 6179TIP3   OH240171   3.357   3.480   1.063  0.3416 -0.8701  0.0570
 6179TIP3    H140172   3.309   3.399   1.081 -1.0633 -0.4554 -1.5422
 6179TIP3    H240173   3.446   3.452   1.042 -0.4357 -2.1558 -1.7159
 6180TIP3   OH240174   1.251   4.322   7.624 -0.2874  1.0130 -0.2582
 6180TIP3    H140175   1.278   4.233   7.604  0.0279  0.2206  3.0079
 6180TIP3    H240176   1.171   4.336   7.573 -1.5401 -1.9665  0.7014
 6181TIP3   OH240177   4.873   1.565   7.288 -0.2955  0.1626  0.7037
 6181TIP3    H140178   4.831   1.521   7.214  0.0786  1.6192 -0.4339
 6181TIP3    H240179   4.852   1.511   7.363 -0.6593 -1.3994 -0.4682
 6182TIP3   OH240180   2.037   3.293   1.540 -0.5889 -0.7116  0.0083
 6182TIP3    H140181   1.972   3.342   1.590  1.2285  1.3315  0.5095
 6182TIP3    H240182   2.116   3.296   1.594  0.6285 -0.9677 -1.6816
 6183TIP3   OH240183   5.603   4.943   7.959 -0.5217  0.4620 -0.2058
 6183TIP3    H140184   5.611   5.032   7.994  1.3819  0.3361 -0.2283
 6183TIP3    H240185   5.536   4.950   7.891 -2.5331  1.2295  1.7044
 6184TIP3   OH240186   2.100   6.697   8.807  0.3313  0.3768 -0.4960
 6184TIP3    H140187   2.043   6.773   8.816 -0.9632 -0.4113 -1.6045
 6184TIP3    H240188   2.122   6.695   8.714  0.2953 -0.6256 -0.4947
 6185TIP3   OH240189   6.177   1.231   0.177 -0.3845  0.4628 -0.2557
 6185TIP3    H140190   6.246   1.247   0.241  0.9575  1.5861 -1.8840
 6185TIP3    H240191   6.187   1.138   0.153  0.7924  0.6915 -0.6965
 6186TIP3   OH240192   2.278   5.696   7.803  0.0780 -0.4324  0.4021
 6186TIP3    H140193   2.342   5.635   7.767  0.1578 -1.1554  1.7141
 6186TIP3    H240194   2.268   5.670   7.894  1.1472  2.3579  1.4306
 6187TIP3   OH240195   4.145   4.971   0.713  0.3789  0.3014 -0.0458
 6187TIP3    H140196   4.072   4.931   0.666 -0.0801  0.5482  0.4551
 6187TIP3    H240197   4.114   4.982   0.803  1.0537  0.3433  0.1934
 6188TIP3   OH240198   4.464   5.913   8.694 -0.4943  0.0805 -0.6603
 6188TIP3    H140199   4.402   5.896   8.765 -1.8998  0.4473 -1.7569
 6188TIP3    H240200   4.461   6.008   8.683  1.0782  0.2326 -0.0519
 6189TIP3   OH240201   1.879   6.683   0.016 -0.3907  0.1547 -0.0764
 6189TIP3    H140202   1.883   6.654  -0.075 -1.7805  2.9010 -1.1280
 6189TIP3    H240203   1.791   6.659   0.045 -0.2228 -0.0272  0.2958
 6190TIP3   OH240204   5.748   1.984   0.960 -0.1044  0.0019 -0.8561
 6190TIP3    H140205   5.773   1.902   0.918  0.1577 -1.3499  1.7041
 6190TIP3    H240206   5.655   1.973   0.981  0.1689 -0.1134  0.3838
 6191TIP3   OH240207   5.225   2.221   1.599 -0.1126  0.1589  0.6606
 6191TIP3    H140208   5.293   2.266   1.548 -2.2312  0.2408 -2.3336
 6191TIP3    H240209   5.188   2.289   1.655  2.4804 -0.0024  2.7865
 6192TIP3   OH240210   4.064   1.113   8.083 -0.3853 -0.2662  0.5185
 6192TIP3    H140211   4.094   1.157   8.163 -2.8633  1.2538  0.7343
 6192TIP3    H240212   4.105   1.163   8.012 -1.0904  0.7915  0.8221
 6193TIP3   OH240213   4.161   4.849   1.407  0.6236 -0.0626  0.3676
 6193TIP3    H140214   4.195   4.850   1.317  2.5487  0.6263  1.0620
 6193TIP3    H240215   4.161   4.941   1.433  1.7382 -0.3933  1.6478
 6194TIP3   OH240216   1.069   5.308   0.942  0.3137  0.2832  0.1607
 6194TIP3    H140217   1.085   5.400   0.921  2.3281  0.5091  2.2895
 6194TIP3    H240218   1.042   5.308   1.033 -1.1846 -1.1703 -0.2264
 6195TIP3   OH240219   4.351   6.129   0.165  0.1672  0.0027 -0.1395
 6195TIP3    H140220   4.376   6.220   0.151 -0.5937  0.2843  0.2796
 6195TIP3    H240221   4.271   6.118   0.114  0.5027 -0.5668 -0.5561
 6196TIP3   OH240222   0.500   4.957   7.950  0.5891 -0.9471  0.0574
 6196TIP3    H140223   0.549   4.887   7.906  2.2449  0.2106 -0.0341
 6196TIP3    H240224   0.558   5.033   7.946 -1.4772  0.6948 -0.6025
 6197TIP3   OH240225   4.378   2.600   0.658  0.4992 -0.1010  0.2766
 6197TIP3    H140226   4.356   2.622   0.748  2.3865 -0.4237  0.8672
 6197TIP3    H240227   4.432   2.673   0.628  0.1151 -0.1282 -0.5072
 6198TIP3   OH240228   5.739   5.459   7.566  0.6367  0.0512 -0.2984
 6198TIP3    H140229   5.692   5.409   7.499 -0.3522 -2.3025  1.9379
 6198TIP3    H240230   5.669   5.503   7.615  1.1017 -0.1639  0.5726
 6199TIP3   OH240231   1.339   2.615   1.344 -0.2632  0.3879 -0.2352
 6199TIP3    H140232   1.414   2.669   1.369 -1.4305  1.6479  0.6574
 6199TIP3    H240233   1.263   2.666   1.370 -1.4327 -1.3496 -0.1054
 6200TIP3   OH240234   1.628   5.990   7.927 -0.4084 -0.4756 -0.4029
 6200TIP3    H140235   1.703   5.932   7.943  0.0636  0.1582 -0.2778
 6200TIP3    H240236   1.586   5.954   7.849 -0.7374 -1.6020  0.2687
 6201TIP3   OH240237   2.232   2.991   8.796 -0.1247 -0.1413  0.3487
 6201TIP3    H140238   2.282   2.925   8.748  0.1907 -0.4759  1.1222
 6201TIP3    H240239   2.153   2.946   8.825 -0.1310 -0.0520  0.4739
 6202TIP3   OH240240   0.325   4.728   2.377  0.3193  0.2971 -0.1081
 6202TIP3    H140241   0.282   4.776   2.449  0.1228  0.0827 -0.0814
 6202TIP3    H240242   0.252   4.700   2.321  0.5190  1.1727 -0.8365
 6203TIP3   OH240243   6.468   1.557   0.873  0.2350 -0.3524  0.2123
 6203TIP3    H140244   6.373   1.558   0.877  0.0581 -0.3670 -2.5287
 6203TIP3    H240245   6.492   1.639   0.829  1.6477  0.3411  2.0710
 6204TIP3   OH240246   1.461   2.716   8.502 -0.3016  0.2957  0.3802
 6204TIP3    H140247   1.485   2.800   8.542  1.9866  1.0561 -2.2763
 6204TIP3    H240248   1.386   2.737   8.446 -1.1085  0.0316  1.3218
 6205TIP3   OH240249   2.456   4.420   0.991 -0.7678  0.2512 -0.1779
 6205TIP3    H140250   2.398   4.488   0.956 -0.9560 -0.1182 -0.5950
 6205TIP3    H240251   2.446   4.347   0.930 -1.5240 -0.6180  0.9674
 6206TIP3   OH240252   3.416   4.455   7.505  0.1123 -0.3843  0.0343
 6206TIP3    H140253   3.381   4.453   7.594  0.2528  0.1323  0.1050
 6206TIP3    H240254   3.438   4.364   7.485  0.3725 -0.4582  0.6464
 6207TIP3   OH240255   1.266   4.432   2.891  0.3605  0.4497 -0.7006
 6207TIP3    H140256   1.174   4.423   2.867 -0.0884  0.5802  0.8652
 6207TIP3    H240257   1.282   4.527   2.888  0.7124  0.3661 -1.8546
 6208TIP3   OH240258   0.906   0.347   3.176  0.3196  0.6087 -0.3289
 6208TIP3    H140259   0.956   0.419   3.215  1.7047 -0.9857  0.9834
 6208TIP3    H240260   0.841   0.324   3.243  1.6756 -1.1099  0.4601
 6209TIP3   OH240261   2.253   5.233   1.569 -0.0888 -0.1137 -0.2713
 6209TIP3    H140262   2.168   5.263   1.538  0.6522  2.0281 -0.3683
 6209TIP3    H240263   2.234   5.191   1.653 -1.3382 -0.5231 -0.7286
 6210TIP3   OH240264   6.084   6.202   8.929 -0.6151  0.1782 -0.1560
 6210TIP3    H140265   6.170   6.187   8.890  0.2040  1.3201  1.1075
 6210TIP3    H240266   6.054   6.115   8.956  1.3232  0.0145  1.7111
 6211TIP3   OH240267   5.975   4.941   8.137  0.2456  0.1078 -0.4835
 6211TIP3    H140268   5.959   5.011   8.075 -0.2925  0.8328  0.4448
 6211TIP3    H240269   5.958   4.860   8.088 -0.8272  0.6833 -1.0830
 6212TIP3   OH240270   6.309   4.216   0.880  0.2124 -0.2523  0.1671
 6212TIP3    H140271   6.247   4.252   0.942 -0.2734  0.1823 -0.5686
 6212TIP3    H240272   6.274   4.237   0.794  2.1777  1.4666 -0.3125
 6213TIP3   OH240273   2.538   3.768   8.682 -0.4287 -0.2360  0.1635
 6213TIP3    H140274   2.525   3.709   8.608 -0.0272 -0.4598  0.2639
 6213TIP3    H240275   2.488   3.846   8.661 -1.2541 -0.7498  0.1844
 6214TIP3   OH240276   6.645   1.233   8.924  0.0627 -0.1811  0.0485
 6214TIP3    H140277   6.712   1.212   8.989 -1.3409  0.6372  1.8390
 6214TIP3    H240278   6.605   1.149   8.903  1.2322 -0.6012 -0.6299
 6215TIP3   OH240279   3.150   2.970   8.939  0.1928  0.2267 -0.2168
 6215TIP3    H140280   3.081   3.035   8.949  0.2146  0.0422  1.3880
 6215TIP3    H240281   3.231   3.021   8.933  0.0266  0.4040 -1.0385
 6216TIP3   OH240282   6.153   6.100   7.521 -0.3690  0.1337  0.2099
 6216TIP3    H140283   6.219   6.091   7.590  0.3373  4.3443  0.3544
 6216TIP3    H240284   6.195   6.155   7.455 -2.9456  0.9562 -0.8495
 6217TIP3   OH240285   2.869   5.231   0.454  0.1153 -0.6434  0.0950
 6217TIP3    H140286   2.959   5.199   0.452  0.2681 -0.3667  1.6644
 6217TIP3    H240287   2.875   5.319   0.491 -0.9122 -1.0809  1.3626
 6218TIP3   OH240288   3.435   3.167   0.395 -0.0084  0.1615  0.0815
 6218TIP3    H140289   3.344   3.198   0.399  0.0573  0.2669  1.5085
 6218TIP3    H240290   3.428   3.072   0.389 -0.2013  0.2828 -2.2316
 6219TIP3   OH240291   1.353   2.577   7.800  0.2266 -0.5158  0.0705
 6219TIP3    H140292   1.266   2.543   7.821 -0.2023  1.2978  1.4625
 6219TIP3    H240293   1.338   2.643   7.732  0.3412  0.5816  1.0858
 6220TIP3   OH240294   5.339   5.179   1.403  0.4217  0.2172 -0.1468
 6220TIP3    H140295   5.372   5.242   1.467 -0.7487  1.3007 -0.5561
 6220TIP3    H240296   5.416   5.128   1.378  0.7862 -0.7754  2.6538
 6221TIP3   OH240297   1.056   0.579   1.745  0.2111  0.1029  0.0755
 6221TIP3    H140298   1.045   0.638   1.819  1.1208 -0.9557  1.0774
 6221TIP3    H240299   0.974   0.588   1.696 -0.4947  0.6785  1.3093
 6222TIP3   OH240300   0.984   1.736   1.780  0.7159  0.0065 -0.1515
 6222TIP3    H140301   0.895   1.762   1.802  0.0309 -2.1875 -0.0549
 6222TIP3    H240302   1.039   1.784   1.841 -0.5011  0.4635  0.6257
 6223TIP3   OH240303   3.634   1.838   8.325 -0.1991  0.3015  0.0948
 6223TIP3    H140304   3.579   1.793   8.389  0.4576 -2.1998 -0.9781
 6223TIP3    H240305   3.582   1.838   8.244  0.0427  1.0014 -0.0685
 6224TIP3   OH240306   5.234   2.282   2.320 -0.0721  0.0985  0.5982
 6224TIP3    H140307   5.218   2.359   2.376 -1.3852 -1.3377  2.3336
 6224TIP3    H240308   5.286   2.223   2.375  0.5517 -0.4586 -0.5533
 6225TIP3   OH240309   4.284   2.149   2.055  0.3226 -0.3464  0.0560
 6225TIP3    H140310   4.247   2.235   2.035 -0.5655 -0.7889 -0.2349
 6225TIP3    H240311   4.369   2.149   2.011 -0.6971 -0.5183 -2.0415
 6226TIP3   OH240312   6.159   2.582   2.771 -0.4254 -0.1970  0.3000
 6226TIP3    H140313   6.200   2.610   2.853 -0.1856 -0.1888  0.1773
 6226TIP3    H240314   6.101   2.510   2.796  0.2792 -0.7495  0.3469
 6227TIP3   OH240315   6.655   5.851   8.419 -0.2897  0.4967 -0.3691
 6227TIP3    H140316   6.575   5.801   8.404 -0.6721  1.4341 -1.5485
 6227TIP3    H240317   6.627   5.942   8.423  0.9136  1.0445 -2.7741
 6228TIP3   OH240318   6.156   6.459   0.012 -0.0478 -0.2398  0.3375
 6228TIP3    H140319   6.133   6.367   0.009 -0.4062 -0.2235  1.9791
 6228TIP3    H240320   6.078   6.505  -0.019 -0.5272 -0.4060  1.2886
 6229TIP3   OH240321   4.337   5.359   0.433  0.2728  0.6339 -0.2208
 6229TIP3    H140322   4.401   5.430   0.421  0.3802  0.8471  1.3409
 6229TIP3    H240323   4.387   5.289   0.476 -0.4701  0.7194  0.8290
 6230TIP3   OH240324   0.215   3.216   8.870  0.8355 -0.2973 -0.1917
 6230TIP3    H140325   0.127   3.211   8.906  0.7105 -0.7933 -0.5566
 6230TIP3    H240326   0.202   3.215   8.775  1.3138 -2.2434 -0.2783
 6231TIP3   OH240327   2.986   0.189   2.645  1.0161 -0.2903 -0.4202
 6231TIP3    H140328   3.024   0.153   2.726  1.2649 -1.5955 -1.0948
 6231TIP3    H240329   3.051   0.168   2.578  0.3349 -0.1258 -1.1319
 6232TIP3   OH240330   1.146   4.626   2.669  0.4214  0.1736  0.2685
 6232TIP3    H140331   1.134   4.721   2.676  1.5544  0.3689 -0.2109
 6232TIP3    H240332   1.071   4.589   2.715 -0.0405  1.3010  0.4592
 6233TIP3   OH240333   5.626   0.250   8.913 -0.3884  0.1529  0.2334
 6233TIP3    H140334   5.579   0.168   8.900  0.8633 -0.8271  1.5718
 6233TIP3    H240335   5.701   0.226   8.967  2.2568  1.4138 -2.5897
 6234TIP3   OH240336   5.326   0.490   2.761  0.3582 -0.5528 -0.2433
 6234TIP3    H140337   5.335   0.547   2.685  2.3047 -0.0948  0.2676
 6234TIP3    H240338   5.338   0.548   2.836 -0.2666 -1.2098  0.3740
 6235TIP3   OH240339   2.802   3.941   0.804  0.5282 -0.2396 -0.0126
 6235TIP3    H140340   2.777   3.935   0.896  0.4417  0.2720  0.0035
 6235TIP3    H240341   2.739   4.003   0.767  0.3454 -0.7087 -0.4962
 6236TIP3   OH240342   0.065   6.408   0.112 -0.1763  0.7316  0.0574
 6236TIP3    H140343   0.151   6.385   0.148  0.2238  1.4732 -0.3865
 6236TIP3    H240344   0.046   6.339   0.048 -0.6165 -0.2607  1.2231
 6237TIP3   OH240345   5.466   0.642   0.296 -0.5246  0.1799  0.2497
 6237TIP3    H140346   5.469   0.608   0.207  0.2667 -0.5048  0.5243
 6237TIP3    H240347   5.439   0.733   0.286  0.5676  0.4182 -0.7952
 6238TIP3   OH240348   3.291   1.122   8.705 -0.0588  0.1821  0.5691
 6238TIP3    H140349   3.222   1.097   8.643  0.7052 -0.0776 -0.2049
 6238TIP3    H240350   3.282   1.060   8.778 -0.6219  0.1345  0.4591
 6239TIP3   OH240351   3.893   4.934   1.243  0.3405  0.2255  0.1471
 6239TIP3    H140352   3.817   4.979   1.207 -0.1135 -0.8144 -0.2244
 6239TIP3    H240353   3.957   5.003   1.256 -0.9174  1.2491  1.1818
 6240TIP3   OH240354   3.603   0.565   0.812  0.1815 -0.4002  0.1896
 6240TIP3    H140355   3.694   0.591   0.822  0.4810 -2.1329  3.2718
 6240TIP3    H240356   3.607   0.487   0.756  0.7231 -0.9192  0.9259
 6241TIP3   OH240357   5.423   6.257   0.495 -0.2936  0.2494 -0.0687
 6241TIP3    H140358   5.516   6.277   0.485 -0.1726 -0.7715 -1.2358
 6241TIP3    H240359   5.419   6.202   0.574  0.3940 -1.3086 -1.0570
 6242TIP3   OH240360   6.324   1.295   3.322 -0.2291 -0.0751  0.3152
 6242TIP3    H140361   6.233   1.318   3.303 -0.2840  0.2872  0.9760
 6242TIP3    H240362   6.344   1.343   3.402  0.7792  0.4566 -0.2356
 6243TIP3   OH240363   5.199   4.313   2.395 -0.8553  0.2842 -0.1357
 6243TIP3    H140364   5.277   4.340   2.443 -0.0927 -0.3574 -0.9906
 6243TIP3    H240365   5.142   4.273   2.461 -0.1410  0.0837  0.3608
 6244TIP3   OH240366   4.927   5.739   2.306 -0.1395 -0.2777 -0.7208
 6244TIP3    H140367   5.005   5.793   2.313 -0.3204 -0.1523  0.5380
 6244TIP3    H240368   4.868   5.772   2.373 -1.7717  0.3970 -2.4057
 6245TIP3   OH240369   1.160   5.589   0.906  0.2494 -0.0019 -0.1406
 6245TIP3    H140370   1.188   5.653   0.972 -0.5465  0.2055  0.0059
 6245TIP3    H240371   1.165   5.636   0.823 -1.9683  0.8564  0.1287
 6246TIP3   OH240372   3.765   2.613   0.594 -0.1381  0.1162 -0.2142
 6246TIP3    H140373   3.784   2.707   0.600  1.5953 -0.2800  1.5358
 6246TIP3    H240374   3.797   2.588   0.507 -0.2306  1.0594 -0.5313
 6247TIP3   OH240375   5.244   1.261   2.440 -0.3466 -0.0037  0.4115
 6247TIP3    H140376   5.320   1.259   2.498 -0.6001 -0.3253  0.7400
 6247TIP3    H240377   5.197   1.180   2.459  1.0056 -1.5346 -2.2244
 6248TIP3   OH240378   1.014   5.975   0.717 -0.6723  0.4167 -0.0751
 6248TIP3    H140379   0.961   5.986   0.639 -0.3608  1.6556 -0.1334
 6248TIP3    H240380   1.096   5.938   0.686 -0.9374 -0.0820 -0.1867
 6249TIP3   OH240381   0.701   1.079   2.216 -0.3052 -0.1766  0.2205
 6249TIP3    H140382   0.656   1.001   2.247 -0.6245 -0.0391  0.1062
 6249TIP3    H240383   0.647   1.152   2.246 -1.3093 -0.0719 -1.6861
 6250TIP3   OH240384   1.737   2.445   0.241  0.4803 -0.2012 -0.0501
 6250TIP3    H140385   1.691   2.366   0.268 -0.5018 -0.2251 -1.6367
 6250TIP3    H240386   1.829   2.419   0.238  0.2206 -1.1655 -0.0858
 6251TIP3   OH240387   5.223   5.867   8.015  0.0664  0.2564  0.2040
 6251TIP3    H140388   5.235   5.940   7.954 -0.2899 -1.6654 -2.3842
 6251TIP3    H240389   5.266   5.793   7.971  1.3448 -0.9235  3.1946
 6252TIP3   OH240390   4.803   6.459   2.207  0.4513 -0.3115 -0.5736
 6252TIP3    H140391   4.824   6.389   2.145 -0.4597 -2.0510  0.9813
 6252TIP3    H240392   4.733   6.423   2.262  0.9150  1.3067  1.1964
 6253TIP3   OH240393   0.359   1.402   1.283 -0.4541  0.7164  0.1345
 6253TIP3    H140394   0.312   1.433   1.205 -1.8338  1.2214  1.1438
 6253TIP3    H240395   0.341   1.308   1.286  0.2699  0.5344 -0.5714
 6254TIP3   OH240396   2.927   3.441   2.771  0.3762  0.4704 -0.2923
 6254TIP3    H140397   2.928   3.412   2.862  0.6252  0.8889 -0.1594
 6254TIP3    H240398   3.011   3.412   2.735  0.1809  0.1019 -0.4553
 6255TIP3   OH240399   5.805   4.507   3.234 -0.1058 -0.0034  0.0546
 6255TIP3    H140400   5.871   4.458   3.185 -0.6515  0.8385 -1.5885
 6255TIP3    H240401   5.855   4.576   3.278  0.3259 -0.4879  0.3531
 6256TIP3   OH240402   5.987   2.303   1.035 -0.3387  0.2917 -0.9818
 6256TIP3    H140403   5.901   2.267   1.013  0.2546 -0.8611 -1.4639
 6256TIP3    H240404   6.010   2.356   0.958 -0.2308 -0.1092 -1.2266
 6257TIP3   OH240405   1.441   0.043   1.425  0.0369  0.5899 -0.1918
 6257TIP3    H140406   1.423  -0.024   1.359 -0.9925  1.9116 -1.3204
 6257TIP3    H240407   1.364   0.043   1.481  0.9137 -0.5354  1.0708
 6258TIP3   OH240408   0.709   3.506   1.748 -0.1031 -0.0090  0.1393
 6258TIP3    H140409   0.742   3.503   1.837  1.3331  0.6136 -0.3477
 6258TIP3    H240410   0.748   3.584   1.710  1.3867 -1.5874 -1.8095
 6259TIP3   OH240411   4.078   6.522   0.229 -0.9135 -0.0096  0.0533
 6259TIP3    H140412   4.061   6.459   0.299 -0.8712 -1.3502 -1.1008
 6259TIP3    H240413   4.000   6.519   0.174 -0.7651  0.7148 -0.2125
 6260TIP3   OH240414   2.538   0.405   0.831 -0.3155  0.0517  0.5463
 6260TIP3    H140415   2.482   0.428   0.757 -0.0222 -0.7889  0.0509
 6260TIP3    H240416   2.492   0.334   0.876 -0.4595  0.5105  1.1408
 6261TIP3   OH240417   3.327   4.159   0.175  0.2100 -0.0632 -0.6998
 6261TIP3    H140418   3.408   4.139   0.128 -0.9050  0.3880 -2.9614
 6261TIP3    H240419   3.266   4.188   0.107 -1.4579  0.9079  1.0886
 6262TIP3   OH240420   3.989   2.374   3.267 -0.0190  0.3646  0.0250
 6262TIP3    H140421   3.901   2.363   3.232  0.0998  0.2589 -0.2546
 6262TIP3    H240422   4.043   2.394   3.190  1.0035 -3.8765 -0.6504
 6263TIP3   OH240423   4.193   0.940   0.912  0.6279 -0.2130 -0.7136
 6263TIP3    H140424   4.235   1.026   0.918  0.1433 -0.0308  0.2355
 6263TIP3    H240425   4.258   0.885   0.868  0.7566  0.7422 -1.7892
 6264TIP3   OH240426   5.615   1.285   8.502  0.9826 -0.6553  0.6422
 6264TIP3    H140427   5.680   1.225   8.466 -0.0321 -0.7038 -1.1920
 6264TIP3    H240428   5.598   1.347   8.431 -1.0382 -0.6943  1.0507
 6265TIP3   OH240429   4.554   0.821   2.259  0.1610  0.3521 -0.1779
 6265TIP3    H140430   4.531   0.782   2.344  1.0894  0.4747  0.1429
 6265TIP3    H240431   4.470   0.838   2.217 -0.3250  0.6683  0.8927
 6266TIP3   OH240432   6.527   6.433   8.972 -0.2417 -0.2734  0.2662
 6266TIP3    H140433   6.499   6.517   8.936 -0.3811  0.8273  2.7587
 6266TIP3    H240434   6.617   6.422   8.943  0.1208  1.2647  0.7316
 6267TIP3   OH240435   2.855   1.589   0.794 -0.2808 -0.3404  0.2692
 6267TIP3    H140436   2.890   1.662   0.742 -0.7924 -0.0962  0.2674
 6267TIP3    H240437   2.771   1.620   0.826  0.1101 -0.3983  1.4267
 6268TIP3   OH240438   4.074   4.384   2.930  0.0744  0.8103  0.4997
 6268TIP3    H140439   4.138   4.316   2.911  0.1519  0.4680  1.8675
 6268TIP3    H240440   4.049   4.369   3.021 -1.8923  0.9721  0.0536
 6269TIP3   OH240441   4.830   0.246   1.995  0.1299 -0.6095  0.5246
 6269TIP3    H140442   4.894   0.316   1.979 -1.0235  0.2608 -0.4699
 6269TIP3    H240443   4.873   0.167   1.963  0.6001  0.0147 -0.4363
 6270TIP3   OH240444   1.447   0.695   0.547  0.1099  0.3112  0.2475
 6270TIP3    H140445   1.450   0.645   0.628 -0.8829 -0.4204 -0.1519
 6270TIP3    H240446   1.374   0.755   0.558 -2.2381 -2.0484 -1.3231
 6271TIP3   OH240447   1.020   2.421   2.406 -0.2345 -0.2223  0.8931
 6271TIP3    H140448   1.024   2.473   2.326 -0.2831  1.1816  1.7666
 6271TIP3    H240449   0.931   2.385   2.407 -0.7172  0.9247  1.0030
 6272TIP3   OH240450   0.752   0.334   0.333 -0.0169 -0.5250 -0.2700
 6272TIP3    H140451   0.758   0.319   0.427 -0.4034 -1.8702 -0.4409
 6272TIP3    H240452   0.672   0.386   0.322 -0.1671 -0.6714  0.1047
 6273TIP3   OH240453   3.637   4.554   1.728 -0.1381  0.4545 -0.2575
 6273TIP3    H140454   3.586   4.477   1.705  2.2618 -1.0537 -0.9001
 6273TIP3    H240455   3.676   4.533   1.813 -1.5858  2.1442  0.8894
 6274TIP3   OH240456   0.732   3.831   7.474 -0.4938 -0.1379  0.1221
 6274TIP3    H140457   0.825   3.815   7.453 -0.2457 -0.3098  1.2909
 6274TIP3    H240458   0.711   3.912   7.428 -0.1389 -0.7692 -1.2118
 6275TIP3   OH240459   6.034   5.301   0.902 -0.2287  0.5711 -0.8222
 6275TIP3    H140460   6.069   5.285   0.990  1.5928  1.2793 -1.3742
 6275TIP3    H240461   5.959   5.242   0.895  1.9269 -2.4402 -0.2453
 6276TIP3   OH240462   5.994   5.718   8.808 -0.0802  0.1001 -0.2454
 6276TIP3    H140463   6.014   5.636   8.853 -1.7610 -0.6972 -0.8566
 6276TIP3    H240464   5.933   5.692   8.738  0.8325  1.6024 -1.6645
 6277TIP3   OH240465   4.683   5.689   7.848 -0.2332 -0.1080 -0.5058
 6277TIP3    H140466   4.720   5.690   7.937  1.7553 -1.1737 -1.2655
 6277TIP3    H240467   4.646   5.601   7.838 -3.6546  1.0537  0.3947
 6278TIP3   OH240468   6.742   2.509   8.455 -0.5316 -1.2887 -0.3044
 6278TIP3    H140469   6.786   2.433   8.416  1.4331 -0.6558  0.5364
 6278TIP3    H240470   6.722   2.566   8.381  1.9932 -0.6788 -0.6288
 6279TIP3   OH240471   3.174   1.536   8.846 -0.3849  0.2802 -0.2666
 6279TIP3    H140472   3.112   1.608   8.857  0.7015  1.2478 -0.2987
 6279TIP3    H240473   3.203   1.543   8.755 -1.2253 -1.0116 -0.6664
 6280TIP3   OH240474   1.995   2.843   8.476 -0.0137 -0.2630  0.4368
 6280TIP3    H140475   2.058   2.796   8.531  1.4134  0.4490 -0.5339
 6280TIP3    H240476   1.987   2.929   8.517  0.9537  0.2249 -0.3689
 6281TIP3   OH240477   4.977   5.691   1.086 -0.0578 -0.2332 -0.1562
 6281TIP3    H140478   4.910   5.654   1.029 -1.4237  1.9681 -0.0777
 6281TIP3    H240479   4.999   5.775   1.046  0.2506  0.5598  1.5943
 6282TIP3   OH240480   4.070   4.391   7.895 -0.0982 -0.1349 -0.0111
 6282TIP3    H140481   4.049   4.301   7.867  0.0204 -0.7390  1.7224
 6282TIP3    H240482   4.007   4.446   7.850 -0.9024 -1.2141 -0.2338
 6283TIP3   OH240483   0.638   3.166   1.252 -0.1491 -0.1571 -0.1440
 6283TIP3    H140484   0.636   3.149   1.158 -1.4640 -0.5646 -0.0566
 6283TIP3    H240485   0.564   3.116   1.288  0.3526 -0.0427  1.1117
 6284TIP3   OH240486   2.933   0.334   3.398 -0.1985 -0.3961 -0.1797
 6284TIP3    H140487   2.907   0.248   3.364  1.2808 -1.2675  0.7786
 6284TIP3    H240488   2.981   0.375   3.326 -0.6006 -0.5120 -0.5165
 6285TIP3   OH240489   6.768   3.797   8.250  0.2956 -0.1565  0.4153
 6285TIP3    H140490   6.822   3.739   8.197  2.4395  1.5227  0.6208
 6285TIP3    H240491   6.772   3.881   8.204  2.2782  1.3907  3.1019
 6286TIP3   OH240492   6.032   4.807   1.689  0.2885  0.0525 -0.4299
 6286TIP3    H140493   6.066   4.857   1.762  0.8063  0.5453 -0.9993
 6286TIP3    H240494   6.110   4.778   1.641 -0.0540  0.4675 -1.2676
 6287TIP3   OH240495   6.246   0.396   1.779 -0.4873 -0.7468 -0.3186
 6287TIP3    H140496   6.334   0.372   1.751 -1.2037 -1.3664 -2.1692
 6287TIP3    H240497   6.253   0.402   1.875  1.7335  0.0248 -0.4681
 6288TIP3   OH240498   0.357   5.428   1.129  0.2215 -0.2824  0.1284
 6288TIP3    H140499   0.316   5.388   1.052 -0.6071  1.4947 -0.3929
 6288TIP3    H240500   0.338   5.521   1.121  1.4853  0.1537  1.6750
 6289TIP3   OH240501   2.528   3.688   1.509  0.1756 -0.5427  0.2074
 6289TIP3    H140502   2.616   3.687   1.470  1.0836 -0.1960  2.1338
 6289TIP3    H240503   2.527   3.611   1.567 -0.8189 -0.5631  0.1737
 6290TIP3   OH240504   4.815   1.734   2.110  0.9692 -0.1684 -0.1827
 6290TIP3    H140505   4.827   1.811   2.165  1.0105  1.4188 -2.2737
 6290TIP3    H240506   4.900   1.689   2.113  1.7694  1.2281 -0.8104
 6291TIP3   OH240507   5.493   1.021   2.813 -0.8250 -0.3565  0.2388
 6291TIP3    H140508   5.530   1.013   2.900 -0.5698 -0.0208  0.1645
 6291TIP3    H240509   5.568   1.019   2.754 -0.9452  0.0388  0.0679
 6292TIP3   OH240510   5.160   2.529   1.400 -0.5878  0.0041 -0.5171
 6292TIP3    H140511   5.244   2.483   1.405 -1.1874 -1.0502  0.2599
 6292TIP3    H240512   5.127   2.511   1.312 -0.2940 -0.0797 -0.6115
 6293TIP3   OH240513   3.858   5.438   7.129  0.3601 -0.5048  0.4508
 6293TIP3    H140514   3.858   5.528   7.161  2.1976 -0.0234 -0.7831
 6293TIP3    H240515   3.843   5.385   7.208  1.7803  0.7745  1.6259
 6294TIP3   OH240516   0.883   6.586   3.228 -0.1568 -0.2778 -0.0415
 6294TIP3    H140517   0.794   6.559   3.204 -0.0250 -0.2986 -0.5054
 6294TIP3    H240518   0.897   6.667   3.180 -0.2892  0.2621  0.8011
 6295TIP3   OH240519   3.401   6.246   1.265 -0.5465  0.3527 -0.5803
 6295TIP3    H140520   3.362   6.298   1.196 -0.8426 -0.6113 -1.1522
 6295TIP3    H240521   3.495   6.267   1.261 -0.5651  0.3042 -1.2637
 6296TIP3   OH240522   5.094   2.107   2.181  0.2713  0.1816 -0.6993
 6296TIP3    H140523   5.123   2.164   2.253 -0.5006 -0.5318  0.2122
 6296TIP3    H240524   5.173   2.090   2.130  0.8919  0.5217  0.1263
 6297TIP3   OH240525   3.960   4.154   7.809 -0.1334 -0.5000 -0.1691
 6297TIP3    H140526   3.881   4.124   7.765 -0.8231  0.9673 -0.0073
 6297TIP3    H240527   4.016   4.077   7.815 -1.7460 -1.6730  0.1585
 6298TIP3   OH240528   2.209   0.205   0.586 -0.6730 -0.0137  0.5579
 6298TIP3    H140529   2.119   0.215   0.618 -1.1159  1.1903 -0.9595
 6298TIP3    H240530   2.203   0.143   0.514 -0.3865  0.5031  0.0818
 6299TIP3   OH240531   3.043   4.425   1.783 -0.1566  0.4724 -0.0111
 6299TIP3    H140532   3.064   4.511   1.746  0.4967  1.4706  2.5131
 6299TIP3    H240533   3.119   4.370   1.762  0.3661  1.1107  0.2043
 6300TIP3   OH240534   0.404   6.648   4.062 -0.5382  0.1072  0.4256
 6300TIP3    H140535   0.349   6.725   4.048  0.9240  1.2151  0.6019
 6300TIP3    H240536   0.449   6.666   4.144 -0.4501 -1.1262  0.6658
 6301TIP3   OH240537   0.286   2.747   8.875 -0.2639  0.1625  0.0800
 6301TIP3    H140538   0.213   2.692   8.903  1.2436 -1.3672  1.2042
 6301TIP3    H240539   0.327   2.699   8.804 -0.1160  0.8378 -0.2990
 6302TIP3   OH240540   1.518   2.341   7.663  0.0537 -0.1739 -0.0381
 6302TIP3    H140541   1.511   2.307   7.574  0.6809 -1.3730  0.3460
 6302TIP3    H240542   1.453   2.411   7.668  0.2714  0.1495 -1.5445
 6303TIP3   OH240543   1.384   5.090   2.317  0.0214  0.2789  0.1986
 6303TIP3    H140544   1.430   5.168   2.284  0.6107  0.1688  0.7354
 6303TIP3    H240545   1.372   5.035   2.240  0.6950  0.3687  0.0183
 6304TIP3   OH240546   0.382   1.556   1.676  0.2404  0.2196 -0.1820
 6304TIP3    H140547   0.334   1.602   1.607 -0.3218  0.1022  0.1258
 6304TIP3    H240548   0.398   1.623   1.742 -0.9851 -0.1016  0.4792
 6305TIP3   OH240549   0.525   2.287   1.193 -0.1954 -0.3066  0.5097
 6305TIP3    H140550   0.557   2.376   1.182 -1.4706  0.4387  2.4797
 6305TIP3    H240551   0.512   2.255   1.103 -3.1597  2.7685 -0.3448
 6306TIP3   OH240552   5.057   3.358   2.366  0.0183 -0.0295 -0.1762
 6306TIP3    H140553   4.975   3.341   2.412 -0.6569  0.6574 -1.1119
 6306TIP3    H240554   5.124   3.348   2.434 -0.9381  0.8953  0.9535
 6307TIP3   OH240555   5.576   4.672   2.853 -0.1750  0.2183 -0.3666
 6307TIP3    H140556   5.579   4.643   2.944 -0.1593  2.2720  0.3161
 6307TIP3    H240557   5.667   4.683   2.828 -0.2060  0.3746 -0.4079
 6308TIP3   OH240558   2.616   3.603   8.882  0.0417 -0.1696 -0.2028
 6308TIP3    H140559   2.583   3.641   8.801 -1.2976 -2.1515 -0.6660
 6308TIP3    H240560   2.541   3.606   8.942  1.0129  1.2588  0.9933
 6309TIP3   OH240561   1.075   2.740   0.097  0.4018 -0.2446 -0.2276
 6309TIP3    H140562   1.092   2.834   0.095  0.7464 -0.2478  1.4015
 6309TIP3    H240563   1.159   2.700   0.071  0.7189 -0.1240  0.5983
 6310TIP3   OH240564   0.388   5.309   0.352 -0.0150  0.7215 -0.4641
 6310TIP3    H140565   0.415   5.384   0.404 -1.5337  0.2900  1.0246
 6310TIP3    H240566   0.295   5.323   0.336 -0.1971 -0.5692 -0.6176
 6311TIP3   OH240567   3.101   2.224   8.913 -0.1335 -0.4802  0.4314
 6311TIP3    H140568   3.195   2.236   8.929  0.0477 -0.4212 -0.6438
 6311TIP3    H240569   3.095   2.150   8.853 -0.8252 -0.9350  1.0394
 6312TIP3   OH240570   5.679   3.931   2.949 -0.2463 -0.3890 -0.1590
 6312TIP3    H140571   5.726   4.006   2.984 -0.9445  0.3305 -0.7352
 6312TIP3    H240572   5.631   3.895   3.024 -2.0014  1.3372 -0.4019
 6313TIP3   OH240573   6.723   2.880   1.497  0.4091 -0.1784  0.2222
 6313TIP3    H140574   6.715   2.938   1.421 -0.1919 -1.0732 -0.4198
 6313TIP3    H240575   6.817   2.865   1.506  0.5928  0.9910  0.4895
 6314TIP3   OH240576   5.924   6.611   0.248  0.2751 -0.3003  0.5028
 6314TIP3    H140577   5.942   6.665   0.171  0.2667  1.1426  1.4862
 6314TIP3    H240578   5.899   6.673   0.316 -1.3635 -1.6663  1.2297
 6315TIP3   OH240579   0.411   0.732   0.406  0.1877 -0.3988 -0.2575
 6315TIP3    H140580   0.327   0.749   0.448 -1.0690 -2.2285 -1.8295
 6315TIP3    H240581   0.456   0.672   0.465 -0.0795 -0.2645  0.0843
 6316TIP3   OH240582   1.599   2.870   0.650  0.8656 -0.7760  0.1378
 6316TIP3    H140583   1.613   2.955   0.693 -0.8460 -0.8709  0.9899
 6316TIP3    H240584   1.654   2.873   0.572  0.7906  1.1518  0.1081
 6317TIP3   OH240585   1.793   3.225   7.686 -0.0540  0.0951 -0.2841
 6317TIP3    H140586   1.775   3.133   7.666 -0.0129 -0.2164  1.0068
 6317TIP3    H240587   1.775   3.272   7.604  1.4248 -1.2314 -1.4090
 6318TIP3   OH240588   0.845   2.848   2.075 -0.3509 -0.2696 -0.5947
 6318TIP3    H140589   0.927   2.809   2.045  0.2425  0.3740  0.1524
 6318TIP3    H240590   0.810   2.786   2.139  2.2649  1.7487  3.1626
 6319TIP3   OH240591   5.186   5.437   8.168  0.1677  0.0667  0.3804
 6319TIP3    H140592   5.227   5.367   8.118 -1.6294 -0.7314 -0.0391
 6319TIP3    H240593   5.104   5.400   8.200 -0.2732  1.6043  1.1562
 6320TIP3   OH240594   2.822   1.792   0.335 -0.0953 -0.4814  0.6045
 6320TIP3    H140595   2.781   1.810   0.419 -3.8148  0.2665 -1.1731
 6320TIP3    H240596   2.774   1.717   0.300  0.4793  0.0036 -1.3545
 6321TIP3   OH240597   5.203   2.240   0.138  0.3687 -0.0166  0.5771
 6321TIP3    H140598   5.241   2.322   0.107 -1.5291  0.7220  0.0801
 6321TIP3    H240599   5.135   2.220   0.074  0.9782 -2.1588  0.5174
 6322TIP3   OH240600   0.296   0.642   8.516 -0.1601 -0.8490 -0.3417
 6322TIP3    H140601   0.244   0.643   8.436  0.4019  0.4819 -0.7159
 6322TIP3    H240602   0.303   0.550   8.540  0.8262 -1.4106 -2.6062
 6323TIP3   OH240603   0.503   6.056   1.065 -0.2053 -0.3377  0.1798
 6323TIP3    H140604   0.585   6.103   1.054 -0.5712  0.6835  1.5251
 6323TIP3    H240605   0.435   6.122   1.054 -0.9993 -1.4720 -2.6371
 6324TIP3   OH240606   4.090   1.089   8.430 -0.1622  0.0777  0.5230
 6324TIP3    H140607   4.015   1.135   8.393 -0.4288 -1.2600 -0.6583
 6324TIP3    H240608   4.058   1.000   8.447  1.0133 -0.3825  0.4207
 6325TIP3   OH240609   4.697   0.112   1.259  0.0909  0.3149  0.0341
 6325TIP3    H140610   4.713   0.138   1.168  0.4074 -0.5686 -0.1733
 6325TIP3    H240611   4.733   0.024   1.265  1.1479  0.8028  1.3377
 6326TIP3   OH240612   0.081   0.013   8.732  0.3576  0.1519  0.1081
 6326TIP3    H140613   0.130   0.088   8.766 -0.3613  1.2256 -1.1374
 6326TIP3    H240614   0.147  -0.048   8.702  0.9419  0.9384 -0.2198
 6327TIP3   OH240615   5.376   4.730   8.363 -0.0183 -0.2076  0.0435
 6327TIP3    H140616   5.298   4.786   8.366  0.1103 -0.0816  2.3562
 6327TIP3    H240617   5.448   4.790   8.344 -0.4362 -0.3452 -2.2648
 6328TIP3   OH240618   1.648   3.187   2.371 -0.4092 -0.0881 -0.0509
 6328TIP3    H140619   1.679   3.112   2.321  0.6989 -1.9890  3.1532
 6328TIP3    H240620   1.590   3.149   2.437 -2.2814  2.3262 -0.1664
 6329TIP3   OH240621   0.415   6.658   8.897 -0.1892  0.6171  0.0466
 6329TIP3    H140622   0.328   6.661   8.936 -0.2445  1.6936 -0.1070
 6329TIP3    H240623   0.412   6.725   8.828  0.5638  0.2278 -0.3734
 6330TIP3   OH240624   2.974   1.416   0.175  0.5638 -0.9411  0.7271
 6330TIP3    H140625   3.040   1.430   0.244 -0.4517 -0.4689  1.6298
 6330TIP3    H240626   2.899   1.468   0.203  0.8988  1.1725 -1.9401
 6331TIP3   OH240627   2.110   3.118   8.578  0.0193 -0.7188  0.7001
 6331TIP3    H140628   2.140   3.203   8.546  1.1627 -1.4943 -0.3971
 6331TIP3    H240629   2.139   3.115   8.669 -0.7982  0.3932  1.0216
 6332TIP3   OH240630   2.261   5.108   1.812 -0.3957 -0.3543  0.8272
 6332TIP3    H140631   2.316   5.034   1.839 -1.0299 -2.0001 -1.9015
 6332TIP3    H240632   2.177   5.068   1.789  0.3946  0.3098 -4.5610
 6333TIP3   OH240633   3.407   6.261   2.687 -0.8377  0.4701 -0.2234
 6333TIP3    H140634   3.471   6.197   2.657  0.0588  1.4703 -0.4883
 6333TIP3    H240635   3.446   6.300   2.765 -2.8293 -1.6064  1.9953
 6334TIP3   OH240636   2.668   6.362   8.792 -0.0027  0.0692 -0.7269
 6334TIP3    H140637   2.678   6.391   8.701 -2.7880  0.8910 -0.8356
 6334TIP3    H240638   2.580   6.389   8.817  0.9659  0.6386  2.5452
 6335TIP3   OH240639   5.425   5.069   8.464  0.1714  0.0137 -0.1122
 6335TIP3    H140640   5.487   5.110   8.405 -0.3291  0.9520 -0.0149
 6335TIP3    H240641   5.439   4.975   8.453  2.6889  0.1762  1.0749
 6336TIP3   OH240642   2.033   1.994   0.688  0.5977 -0.1958  0.5397
 6336TIP3    H140643   2.027   1.905   0.653  1.8157 -0.9325  2.0879
 6336TIP3    H240644   1.946   2.013   0.722  0.4019 -0.9034  0.4489
 6337TIP3   OH240645   0.608   4.928   1.890 -0.3379  0.3177 -0.0459
 6337TIP3    H140646   0.639   5.018   1.887  0.0649  0.1696 -0.8689
 6337TIP3    H240647   0.515   4.934   1.871 -0.4000  0.5950  0.3399
 6338TIP3   OH240648   2.312   1.349   2.508 -0.0565 -0.3873  0.4314
 6338TIP3    H140649   2.248   1.285   2.539  0.2773 -2.1733 -2.2418
 6338TIP3    H240650   2.390   1.332   2.561 -0.5852 -0.8459  1.0853
 6339TIP3   OH240651   2.002   1.311   2.171  0.0815 -0.0679  0.1281
 6339TIP3    H140652   2.028   1.222   2.150 -1.3039 -0.4329 -0.1306
 6339TIP3    H240653   2.006   1.359   2.088 -0.1032 -0.1335  0.0810
 6340TIP3   OH240654   4.126   5.937   0.012 -0.7740  0.1578 -0.2491
 6340TIP3    H140655   4.060   6.001   0.038 -0.9546  0.1061 -0.5712
 6340TIP3    H240656   4.083   5.853   0.020 -0.7091  0.1152 -0.3416
 6341TIP3   OH240657   6.159   1.911   7.740 -0.6306 -0.3556  0.1337
 6341TIP3    H140658   6.169   1.965   7.819  1.6053 -0.2979 -0.1309
 6341TIP3    H240659   6.064   1.911   7.723 -1.0547  0.4866  2.1992
 6342TIP3   OH240660   6.625   4.259   2.950  0.3295 -0.3181 -0.0170
 6342TIP3    H140661   6.686   4.328   2.920  1.0551 -0.1555  1.7130
 6342TIP3    H240662   6.682   4.184   2.967 -0.1133 -0.5363  0.5067
 6343TIP3   OH240663   5.412   2.506   0.832 -0.5519 -0.4008 -0.8388
 6343TIP3    H140664   5.425   2.412   0.828  2.0242 -0.0977 -1.1961
 6343TIP3    H240665   5.403   2.525   0.926 -2.1521 -1.0821 -0.8309
 6344TIP3   OH240666   1.197   4.691   0.555 -0.0592 -0.3705  0.1637
 6344TIP3    H140667   1.206   4.677   0.649  2.5820 -1.0583 -0.0905
 6344TIP3    H240668   1.259   4.762   0.535 -1.1471  0.3146 -0.9777
 6345TIP3   OH240669   1.382   1.513   1.926 -0.1702 -0.2336 -0.1057
 6345TIP3    H140670   1.354   1.603   1.943  0.7507  0.2169 -0.8729
 6345TIP3    H240671   1.331   1.487   1.849  0.7479  0.2304 -0.8889
 6346TIP3   OH240672   3.129   0.307   2.935 -0.3171  0.1199  0.1630
 6346TIP3    H140673   3.045   0.343   2.906 -0.4925 -0.2431  0.2220
 6346TIP3    H240674   3.122   0.213   2.921  0.5197  0.1905 -0.9569
 6347TIP3   OH240675   5.350   5.960   1.955 -0.3134 -0.1607  0.0567
 6347TIP3    H140676   5.345   6.044   1.908 -0.7293 -0.0919  0.2130
 6347TIP3    H240677   5.371   5.984   2.045  3.4737 -0.4606 -0.5997
 6348TIP3   OH240678   4.389   3.706   1.908 -0.0388  0.3445  0.1453
 6348TIP3    H140679   4.441   3.757   1.969  0.9841  1.8773 -1.8795
 6348TIP3    H240680   4.453   3.653   1.860 -0.7537 -0.4407  0.0342
 6349TIP3   OH240681   1.075   3.684   0.684  0.2292  0.2101 -0.1604
 6349TIP3    H140682   1.070   3.774   0.715  3.3765 -0.0323  1.4042
 6349TIP3    H240683   1.015   3.636   0.741  1.3328  0.7824  1.5530
 6350TIP3   OH240684   2.923   6.690   0.232 -0.1454 -0.0839 -0.0978
 6350TIP3    H140685   2.950   6.608   0.274  2.8780  1.3569  1.0472
 6350TIP3    H240686   2.979   6.698   0.156 -1.1772  0.4363 -0.8309
 6351TIP3   OH240687   3.787   2.386   8.955  0.5293 -0.3588 -0.1164
 6351TIP3    H140688   3.740   2.342   8.884 -1.2318 -0.1767  0.8853
 6351TIP3    H240689   3.729   2.457   8.982  3.4468  3.0226 -1.9601
 6352TIP3   OH240690   6.536   6.402   0.282 -0.4861  0.3325  0.8572
 6352TIP3    H140691   6.476   6.330   0.265  1.4028 -2.0629  3.4461
 6352TIP3    H240692   6.563   6.433   0.195 -2.5301 -0.9900 -0.3141
 6353TIP3   OH240693   4.958   1.126   7.866 -0.1251 -0.0846 -0.5266
 6353TIP3    H140694   4.989   1.042   7.833  0.7825  0.3636 -0.8757
 6353TIP3    H240695   4.875   1.142   7.821 -0.6004 -1.0554 -0.0155
 6354TIP3   OH240696   5.081   5.985   1.311 -0.0859 -0.1941  0.1460
 6354TIP3    H140697   5.074   6.074   1.278 -0.6927  0.1211  1.0917
 6354TIP3    H240698   5.041   5.988   1.398 -2.0373 -1.8252 -0.6285
 6355TIP3   OH240699   1.736   1.044   8.655  0.1600  0.3072 -0.5109
 6355TIP3    H140700   1.787   1.107   8.604  1.6070 -0.0760  0.4199
 6355TIP3    H240701   1.794   1.017   8.726 -1.1733 -0.5275  0.3065
 6356TIP3   OH240702   3.592   6.320   2.326 -0.0563  0.7163  0.0420
 6356TIP3    H140703   3.639   6.369   2.394  1.9940  0.7928 -1.3619
 6356TIP3    H240704   3.554   6.245   2.373  0.2284  1.4370  1.4797
 6357TIP3   OH240705   5.715   2.610   2.326  0.5751  0.0035  0.3349
 6357TIP3    H140706   5.753   2.698   2.320 -0.6076  0.7306  2.3112
 6357TIP3    H240707   5.622   2.624   2.307  0.7681 -1.2834 -1.8030
 6358TIP3   OH240708   0.431   2.049   3.022 -0.1522 -0.6102 -0.8147
 6358TIP3    H140709   0.417   2.048   2.927  3.7917  0.5660 -1.6051
 6358TIP3    H240710   0.402   2.136   3.050 -0.9884 -0.8316 -0.9482
 6359TIP3   OH240711   5.475   6.027   2.212  0.7964  0.2575  0.1050
 6359TIP3    H140712   5.548   6.089   2.211 -0.6329  2.0006 -0.0198
 6359TIP3    H240713   5.446   6.026   2.304  1.3526 -0.9382  0.2906
 6360TIP3   OH240714   0.471   1.243   2.923  0.2048 -0.1897 -0.2350
 6360TIP3    H140715   0.380   1.265   2.941  0.3109  0.4328 -0.4202
 6360TIP3    H240716   0.518   1.325   2.936  0.8810 -0.7295  0.8100
 6361TIP3   OH240717   0.174   3.927   0.486  0.2693 -0.1557 -0.3651
 6361TIP3    H140718   0.267   3.928   0.509  0.1359 -0.8557  0.2310
 6361TIP3    H240719   0.170   3.972   0.401  0.8534  1.8693  0.6310
 6362TIP3   OH240720   4.883   6.080   1.488  0.2037  0.4839 -0.1170
 6362TIP3    H140721   4.812   6.134   1.453 -1.1181 -1.0059  0.1548
 6362TIP3    H240722   4.924   6.135   1.555 -1.5646  0.8855  0.6771
 6363TIP3   OH240723   0.172   0.530   3.840  0.0582 -0.4589  0.4115
 6363TIP3    H140724   0.123   0.448   3.833 -1.3839  0.4826 -1.3153
 6363TIP3    H240725   0.254   0.513   3.794 -1.1282 -0.3538 -1.8617
 6364TIP3   OH240726   0.203   4.630   7.449 -0.3772  0.2297  0.0573
 6364TIP3    H140727   0.294   4.599   7.453 -0.3853  0.3402  1.3619
 6364TIP3    H240728   0.154   4.555   7.415  0.0206 -0.2361  0.5031
 6365TIP3   OH240729   4.241   2.610   0.340 -0.3067 -0.3504 -0.1214
 6365TIP3    H140730   4.243   2.599   0.245  0.4492 -0.6169 -0.0813
 6365TIP3    H240731   4.320   2.566   0.371 -0.6631 -0.4641  0.6541
 6366TIP3   OH240732   2.825   6.304   2.699  0.0956  0.1510 -0.4010
 6366TIP3    H140733   2.900   6.264   2.742 -0.5842 -2.5567 -1.5051
 6366TIP3    H240734   2.763   6.321   2.770  0.5648 -0.4798  0.1721
 6367TIP3   OH240735   0.176   4.835   8.681  0.3392  0.7409 -0.1780
 6367TIP3    H140736   0.148   4.844   8.589  0.3039 -0.7168 -0.3497
 6367TIP3    H240737   0.221   4.750   8.683 -0.4411  0.3257  1.3317
 6368TIP3   OH240738   0.087   0.098   1.154 -0.1550  0.2733  0.3170
 6368TIP3    H140739   0.119   0.131   1.238 -1.3981  0.0048  0.9152
 6368TIP3    H240740   0.129   0.154   1.089 -1.0750  2.1351  1.2456
 6369TIP3   OH240741   1.874   3.421   1.936 -0.1186 -0.8186  0.8986
 6369TIP3    H140742   1.872   3.507   1.979  2.5005 -0.1347 -0.1716
 6369TIP3    H240743   1.805   3.426   1.870  1.1278  1.1760 -0.3420
 6370TIP3   OH240744   2.863   5.455   0.637 -0.3177 -0.4959 -0.1350
 6370TIP3    H140745   2.870   5.456   0.733  2.0184 -1.2554 -0.2405
 6370TIP3    H240746   2.829   5.542   0.616  0.1723  0.0998  1.3414
 6371TIP3   OH240747   5.027   4.636   2.304 -0.3055  0.4452 -0.2695
 6371TIP3    H140748   4.970   4.611   2.231  0.6339 -0.0674 -0.8488
 6371TIP3    H240749   5.114   4.610   2.276  0.0425 -0.0594  1.1874
 6372TIP3   OH240750   2.811   3.717   1.106 -0.2322  0.5339 -0.2622
 6372TIP3    H140751   2.898   3.683   1.087 -0.0962  0.3782  0.5778
 6372TIP3    H240752   2.777   3.745   1.022  0.0250 -0.8084 -0.8286
 6373TIP3   OH240753   2.236   0.378   7.672  0.1636  0.1163 -0.8854
 6373TIP3    H140754   2.168   0.444   7.660  1.9313  1.8511 -2.2063
 6373TIP3    H240755   2.282   0.404   7.752 -1.4116 -1.7977  0.7454
 6374TIP3   OH240756   5.940   4.396   8.656 -0.6873  0.2685  0.3191
 6374TIP3    H140757   5.922   4.306   8.628  0.7428 -0.0951  0.5046
 6374TIP3    H240758   5.857   4.426   8.694 -0.5724 -1.8302  2.4838
 6375TIP3   OH240759   5.670   4.335   2.041  0.0255  0.3992  0.3641
 6375TIP3    H140760   5.586   4.290   2.033 -0.0880  1.0103 -3.2443
 6375TIP3    H240761   5.646   4.427   2.052  0.1568  0.6990 -1.6285
 6376TIP3   OH240762   0.066   0.372   0.862  0.2438  0.5689 -0.3070
 6376TIP3    H140763   0.033   0.435   0.926  1.0358 -0.3592  1.0307
 6376TIP3    H240764  -0.011   0.320   0.838  0.4249 -0.9188  2.0391
 6377TIP3   OH240765   6.244   0.798   1.769  0.4515  0.6343 -0.4348
 6377TIP3    H140766   6.257   0.749   1.850  0.1992  0.9725 -0.1848
 6377TIP3    H240767   6.190   0.741   1.715 -0.4329  0.9047  0.1253
 6378TIP3   OH240768   5.742   1.531   1.024 -0.0700 -0.4090  0.1162
 6378TIP3    H140769   5.663   1.483   0.999 -0.8925  0.2657  1.3153
 6378TIP3    H240770   5.812   1.466   1.020 -0.8843 -1.3153  0.1760
 6379TIP3   OH240771   3.492   3.131   1.679 -0.0952  0.5290  0.5479
 6379TIP3    H140772   3.428   3.124   1.608 -1.7126 -0.0775  1.9930
 6379TIP3    H240773   3.547   3.205   1.655  0.7099 -0.8473 -2.3051
 6380TIP3   OH240774   3.387   2.607   1.833 -0.2342 -0.0781  0.0176
 6380TIP3    H140775   3.412   2.521   1.865  2.1046  0.2227 -0.7802
 6380TIP3    H240776   3.355   2.653   1.910  1.6332 -0.6206  1.1884
 6381TIP3   OH240777   1.225   0.429   8.387 -0.4503  0.0743  0.0463
 6381TIP3    H140778   1.263   0.345   8.362 -1.2973  0.0183 -1.1369
 6381TIP3    H240779   1.197   0.416   8.478 -0.3134 -0.8355 -0.0282
 6382TIP3   OH240780   4.581   4.053   8.928 -0.3608  0.2573 -0.3822
 6382TIP3    H140781   4.518   4.069   8.999 -0.5635 -0.8325 -0.3076
 6382TIP3    H240782   4.662   4.030   8.973  0.3688  2.4004 -0.4516
 6383TIP3   OH240783   6.711   0.223   1.733 -0.0973 -0.3020 -0.4592
 6383TIP3    H140784   6.669   0.189   1.654  0.3546  0.2658 -0.9536
 6383TIP3    H240785   6.797   0.181   1.735  0.1949  0.2816 -0.6965
 6384TIP3   OH240786   5.940   3.949   7.668  0.2983 -0.0947 -0.3988
 6384TIP3    H140787   5.909   3.885   7.604  1.7740 -1.3603  0.0850
 6384TIP3    H240788   5.931   3.906   7.753  2.2210 -0.0806 -0.1467
 6385TIP3   OH240789   1.612   1.742   0.678  0.8230  0.1751 -0.3758
 6385TIP3    H140790   1.683   1.679   0.663 -0.3160 -1.8822  2.0756
 6385TIP3    H240791   1.532   1.691   0.663 -0.1559  1.4200  0.4177
 6386TIP3   OH240792   4.136   4.375   0.656 -0.4989 -0.0285 -0.3492
 6386TIP3    H140793   4.155   4.319   0.581 -1.4204  0.4370 -0.9549
 6386TIP3    H240794   4.109   4.458   0.617 -1.9781 -0.0914  0.4730
 6387TIP3   OH240795   4.945   5.087   8.891  0.3849 -0.1417 -0.0349
 6387TIP3    H140796   4.990   5.107   8.973  0.1785  0.1610  0.0057
 6387TIP3    H240797   4.967   5.161   8.833  1.7432 -1.0612 -0.7545
 6388TIP3   OH240798   1.945   0.982   0.328  0.2778 -0.8462  0.0796
 6388TIP3    H140799   2.034   1.018   0.321  0.9393 -2.1186  1.2611
 6388TIP3    H240800   1.924   0.990   0.421 -0.8284 -0.6374 -0.1824
 6389TIP3   OH240801   3.079   6.324   1.959 -0.2910 -0.1654 -0.7079
 6389TIP3    H140802   3.035   6.285   2.035  0.7099 -0.1352 -0.1001
 6389TIP3    H240803   3.020   6.394   1.931 -1.1409 -0.8130 -0.5728
 6390TIP3   OH240804   1.393   0.757   1.580  0.1672 -0.1982 -0.0329
 6390TIP3    H140805   1.357   0.669   1.583  0.0874 -0.1803 -0.4205
 6390TIP3    H240806   1.355   0.801   1.656  2.2744 -1.2664  1.7509
 6391TIP3   OH240807   0.303   0.034   0.928  0.0248  0.5264  1.1033
 6391TIP3    H140808   0.348   0.091   0.991  0.1464  2.0455 -0.2838
 6391TIP3    H240809   0.336   0.063   0.843 -2.6348  0.8619  0.1065
 6392TIP3   OH240810   0.371   3.972   2.768 -0.0606  0.1295  0.5178
 6392TIP3    H140811   0.336   3.916   2.838  0.6304 -0.5469  0.3349
 6392TIP3    H240812   0.411   4.046   2.814  0.7816 -0.5324  0.8733
 6393TIP3   OH240813   3.824   1.457   1.230  0.3018  0.1468  0.3983
 6393TIP3    H140814   3.740   1.458   1.184 -0.2137 -1.1934  1.2666
 6393TIP3    H240815   3.879   1.397   1.180  0.0496 -0.5746  0.9629
 6394TIP3   OH240816   2.252   5.609   0.887 -0.5977 -0.0193 -0.1046
 6394TIP3    H140817   2.243   5.605   0.792 -1.0233 -0.2844 -0.0533
 6394TIP3    H240818   2.294   5.527   0.911 -0.8239 -0.1091 -0.0220
 6395TIP3   OH240819   5.448   2.467   2.736 -0.1524 -0.0143  0.5967
 6395TIP3    H140820   5.524   2.520   2.759 -0.4026  0.6960 -0.1736
 6395TIP3    H240821   5.484   2.380   2.720  0.6711  0.5301 -0.7061
 6396TIP3   OH240822   5.632   3.637   3.117  0.5882  0.3044 -0.7208
 6396TIP3    H140823   5.608   3.577   3.046 -0.1926  0.8494 -0.9366
 6396TIP3    H240824   5.550   3.653   3.162  1.1171 -0.1977  0.4510
 6397TIP3   OH240825   6.692   5.583   2.342  0.2102 -0.3464 -0.6246
 6397TIP3    H140826   6.610   5.569   2.389  1.1793  0.9269  1.5727
 6397TIP3    H240827   6.683   5.530   2.263 -1.4953 -2.6674  0.9909
 6398TIP3   OH240828   1.450   2.045   8.067 -0.1273 -0.9736  0.0735
 6398TIP3    H140829   1.514   2.072   8.001  0.8084 -0.1820  1.2619
 6398TIP3    H240830   1.380   2.110   8.061  0.7688  0.1183  0.9864
 6399TIP3   OH240831   1.970   6.126   2.369 -0.5506  0.1631  0.2255
 6399TIP3    H140832   1.921   6.069   2.428  0.9236  0.2455  1.5722
 6399TIP3    H240833   2.053   6.081   2.355 -1.2881 -0.5007 -2.8665
 6400TIP3   OH240834   5.637   6.222   7.778  0.0237 -1.0358 -0.5862
 6400TIP3    H140835   5.547   6.255   7.782  0.2384 -0.4676 -0.4486
 6400TIP3    H240836   5.629   6.130   7.804 -0.4326 -0.8348  0.0080
 6401TIP3   OH240837   6.689   4.016   8.389 -0.1538 -0.7918  0.1223
 6401TIP3    H140838   6.738   4.064   8.321 -0.0364 -1.9589 -0.6340
 6401TIP3    H240839   6.677   3.928   8.353 -0.7890 -1.2033  1.2913
 6402TIP3   OH240840   0.825   5.214   8.599  0.1557 -0.3617 -0.1715
 6402TIP3    H140841   0.844   5.197   8.506 -0.9844  1.5914 -0.8137
 6402TIP3    H240842   0.892   5.276   8.627 -0.5602  0.4619 -0.2339
 6403TIP3   OH240843   0.628   4.366   3.084 -0.2024  0.1746 -0.2147
 6403TIP3    H140844   0.626   4.304   3.157 -0.8061  0.0341 -0.3475
 6403TIP3    H240845   0.626   4.452   3.125 -0.4800  0.0952 -0.0639
 6404TIP3   OH240846   5.107   5.142   1.991  0.6627 -0.1683 -0.2119
 6404TIP3    H140847   5.079   5.095   2.069  1.1818  1.6238  1.1196
 6404TIP3    H240848   5.199   5.118   1.979  0.8727  0.3361  0.3511
 6405TIP3   OH240849   2.896   1.216   1.695  0.2837  0.2903 -0.5857
 6405TIP3    H140850   2.899   1.171   1.611 -1.1671  1.6417 -1.4221
 6405TIP3    H240851   2.918   1.149   1.760  0.8622 -0.9114 -1.9877
 6406TIP3   OH240852   3.384   3.119   8.875  0.0560 -0.7810 -0.2068
 6406TIP3    H140853   3.352   3.184   8.812 -1.2346 -1.1347  0.0464
 6406TIP3    H240854   3.398   3.168   8.956  0.4532 -0.5675 -0.4020
 6407TIP3   OH240855   0.475   3.411   7.541  0.2744 -0.2143  0.0554
 6407TIP3    H140856   0.492   3.505   7.533  2.4021 -0.6105 -0.6198
 6407TIP3    H240857   0.496   3.390   7.632  0.3825 -0.1469  0.0457
 6408TIP3   OH240858   2.995   5.715   1.128  0.6098 -0.2277 -0.3341
 6408TIP3    H140859   2.951   5.791   1.088  1.2960  0.7258  0.6502
 6408TIP3    H240860   3.088   5.738   1.126  1.1303 -2.1859 -2.3319
 6409TIP3   OH240861   1.321   3.778   2.618  0.0809 -0.4839 -0.1023
 6409TIP3    H140862   1.354   3.795   2.706 -1.1471  1.1145  0.0925
 6409TIP3    H240863   1.394   3.800   2.560  1.0276 -1.8971  0.4795
 6410TIP3   OH240864   2.502   6.007   1.146 -0.3681  0.6772 -0.4219
 6410TIP3    H140865   2.592   6.024   1.173 -0.1963  1.9578 -1.6388
 6410TIP3    H240866   2.482   5.921   1.181  1.7173 -0.1210 -1.0169
 6411TIP3   OH240867   1.705   2.836   2.743 -0.0807 -0.4280 -0.1752
 6411TIP3    H140868   1.633   2.896   2.725 -0.2777 -0.3336  0.8909
 6411TIP3    H240869   1.717   2.788   2.661 -0.2350  0.7196 -0.8921
 6412TIP3   OH240870   2.315   3.568   1.421 -0.4738 -0.2031 -0.5791
 6412TIP3    H140871   2.377   3.605   1.483 -2.0382  2.9113 -0.6796
 6412TIP3    H240872   2.236   3.550   1.472 -0.8624 -0.1998 -1.1608
 6413TIP3   OH240873   3.013   5.533   2.221 -0.1398  0.3812 -0.5081
 6413TIP3    H140874   2.999   5.612   2.274  1.7886  0.7586 -0.4630
 6413TIP3    H240875   3.069   5.563   2.149  1.9578 -1.1977  0.3620
 6414TIP3   OH240876   2.519   3.770   1.022  0.0343 -0.2866  0.2856
 6414TIP3    H140877   2.473   3.686   1.026 -1.8583  0.6443 -0.5108
 6414TIP3    H240878   2.580   3.767   1.095  0.5488 -2.6329 -0.1472
 6415TIP3   OH240879   0.897   3.007   1.051  0.2824 -0.7141 -0.6027
 6415TIP3    H140880   0.819   2.975   1.095 -2.5492  3.5386 -1.8341
 6415TIP3    H240881   0.926   3.081   1.105  2.6998 -1.3637 -0.9117
 6416TIP3   OH240882   3.271   2.661   8.638 -0.1372 -0.2944 -0.2463
 6416TIP3    H140883   3.331   2.590   8.658 -0.7521 -0.8188 -0.2480
 6416TIP3    H240884   3.224   2.678   8.720 -3.0053 -2.7692 -1.1860
 6417TIP3   OH240885   3.494   2.302   1.030  0.3403 -0.6043 -0.1065
 6417TIP3    H140886   3.509   2.342   1.116 -0.6081  2.4537 -1.2227
 6417TIP3    H240887   3.405   2.268   1.034  1.4635 -3.7161  1.1579
 6418TIP3   OH240888   4.474   0.741   8.824  0.5010 -0.2239 -0.0447
 6418TIP3    H140889   4.423   0.818   8.799 -0.0420 -0.9637 -1.3452
 6418TIP3    H240890   4.565   0.768   8.816  0.3141  0.1447 -0.9713
 6419TIP3   OH240891   3.467   2.057   0.542 -0.0268 -0.0338  0.1455
 6419TIP3    H140892   3.457   2.136   0.488 -0.3020  0.7782  1.3339
 6419TIP3    H240893   3.555   2.025   0.522  0.7843  1.5894  0.9359
 6420TIP3   OH240894   6.337   5.398   2.902  0.2158 -0.0096 -0.1579
 6420TIP3    H140895   6.333   5.484   2.859 -0.1658 -0.7933 -1.8128
 6420TIP3    H240896   6.429   5.385   2.923  0.0930  1.3680  1.3885
 6421TIP3   OH240897   5.203   6.733   0.936  0.1139  0.1524 -0.0542
 6421TIP3    H140898   5.171   6.693   1.017 -0.1391 -0.5807 -0.5058
 6421TIP3    H240899   5.282   6.684   0.915  0.9273  1.2274  0.4586
 6422TIP3   OH240900   4.042   1.782   1.632 -0.0777  0.0394 -0.0640
 6422TIP3    H140901   3.966   1.736   1.596 -0.6734  0.9855 -0.0607
 6422TIP3    H240902   4.007   1.829   1.708  1.1485 -1.8796  1.7777
 6423TIP3   OH240903   2.930   3.158   0.007  0.1172  0.5241 -0.5811
 6423TIP3    H140904   2.929   3.194   0.095 -1.2516 -1.2722  0.2074
 6423TIP3    H240905   2.875   3.217  -0.044 -1.0311  0.3108  0.3629
 6424TIP3   OH240906   0.830   0.122   0.640 -0.2958 -0.4165 -0.2275
 6424TIP3    H140907   0.828   0.087   0.728 -0.1404 -0.3540 -0.1993
 6424TIP3    H240908   0.798   0.212   0.649  0.0539 -0.2976 -0.1836
 6425TIP3   OH240909   1.581   0.243   1.119 -0.0800 -0.2074 -0.1589
 6425TIP3    H140910   1.551   0.175   1.058 -0.7619  0.0485 -0.1141
 6425TIP3    H240911   1.503   0.267   1.169  0.3544 -0.0256  0.4474
 6426TIP3   OH240912   2.409   0.535   8.390  0.0151 -0.1965  0.3636
 6426TIP3    H140913   2.488   0.577   8.356 -0.9533  1.7628  0.4305
 6426TIP3    H240914   2.405   0.561   8.482 -0.6631 -0.3324  0.3820
 6427TIP3   OH240915   0.392   4.523   7.847 -0.7263  0.0173  0.1739
 6427TIP3    H140916   0.380   4.432   7.818  1.0188  0.4019 -1.9861
 6427TIP3    H240917   0.303   4.554   7.865 -1.6057 -1.3822 -1.4782
 6428TIP3   OH240918   4.224   1.974   8.482 -0.3942  0.0790 -0.9190
 6428TIP3    H140919   4.296   2.035   8.469  0.4815 -0.9616 -1.1431
 6428TIP3    H240920   4.267   1.889   8.492 -1.4552 -0.2638  1.2192
 6429TIP3   OH240921   1.457   4.254   0.905 -0.3989 -0.8394  0.0756
 6429TIP3    H140922   1.440   4.270   0.998  0.6902 -0.4670  0.2268
 6429TIP3    H240923   1.552   4.240   0.900 -0.2244  0.5549 -1.1731
 6430TIP3   OH240924   5.884   1.368   2.410 -0.5265  0.3885 -0.2395
 6430TIP3    H140925   5.979   1.357   2.409 -0.3310  1.6132  0.9102
 6430TIP3    H240926   5.862   1.373   2.503 -1.3862  2.4171 -0.4943
 6431TIP3   OH240927   5.272   4.958   7.519  0.2888  0.5625  0.4043
 6431TIP3    H140928   5.194   4.903   7.514 -0.0354  1.0789 -0.4325
 6431TIP3    H240929   5.239   5.047   7.527  0.6943  1.0424 -2.2919
 6432TIP3   OH240930   6.131   0.618   8.125  0.1023  0.1629 -0.3379
 6432TIP3    H140931   6.037   0.621   8.110 -0.0659  1.5612  0.7763
 6432TIP3    H240932   6.154   0.525   8.122 -1.6093 -0.3523  1.0534
 6433TIP3   OH240933   4.415   5.710   7.895 -0.6865 -0.0911 -0.7137
 6433TIP3    H140934   4.392   5.787   7.843  0.8804  0.9008 -0.0265
 6433TIP3    H240935   4.503   5.687   7.866 -0.2745 -0.2784  0.6023
 6434TIP3   OH240936   4.935   1.845   0.792 -0.3560 -0.1835  0.1564
 6434TIP3    H140937   4.949   1.910   0.861 -0.8329 -0.3982  0.4677
 6434TIP3    H240938   4.980   1.880   0.716  1.2440 -0.5104  0.9023
 6435TIP3   OH240939   4.160   0.139   8.094  0.2307  0.9304  0.2581
 6435TIP3    H140940   4.244   0.132   8.139 -0.4747  0.5440  1.5689
 6435TIP3    H240941   4.099   0.168   8.162 -0.9865 -0.2222 -0.2991
 6436TIP3   OH240942   2.226   4.568   0.993 -0.1396  0.5904  0.2349
 6436TIP3    H140943   2.153   4.630   0.987 -0.8953 -0.2995 -0.1412
 6436TIP3    H240944   2.185   4.486   1.022  0.4447 -0.3521 -1.4490
 6437TIP3   OH240945   0.870   6.652   1.662 -0.2207 -0.0259 -0.3070
 6437TIP3    H140946   0.961   6.681   1.661 -0.2546  0.1133  0.2132
 6437TIP3    H240947   0.843   6.661   1.753 -0.9211  0.4593 -0.5507
 6438TIP3   OH240948   1.698   3.107   0.791 -0.1412 -0.1009 -0.0509
 6438TIP3    H140949   1.753   3.184   0.807 -1.5239  0.6768  1.2219
 6438TIP3    H240950   1.728   3.043   0.856  1.8995 -1.1971 -1.9591
 6439TIP3   OH240951   1.468   0.026   1.015  0.0908  0.6157 -0.3169
 6439TIP3    H140952   1.374   0.022   0.998  0.2515  1.3073 -1.4579
 6439TIP3    H240953   1.479  -0.020   1.098 -1.4747  1.9285  0.6817
 6440TIP3   OH240954   0.112   3.153   0.664 -0.9454 -0.5846 -0.1070
 6440TIP3    H140955   0.137   3.234   0.619 -1.8462 -0.7170 -0.8773
 6440TIP3    H240956   0.109   3.177   0.757 -1.3126  0.2976 -0.3367
 6441TIP3   OH240957   0.505   2.696   1.477 -0.0578  0.0429 -0.4262
 6441TIP3    H140958   0.456   2.676   1.557 -1.2643 -1.6171 -1.5124
 6441TIP3    H240959   0.440   2.696   1.408  1.0998  0.4849 -1.5647
 6442TIP3   OH240960   1.862   0.933   8.368  0.6242  0.2504 -0.2887
 6442TIP3    H140961   1.910   0.988   8.307 -0.4803  0.2028 -1.2332
 6442TIP3    H240962   1.789   0.897   8.317  0.1521 -0.4672  0.8316
 6443TIP3   OH240963   0.110   3.139   2.675 -0.0665  0.0491 -0.0587
 6443TIP3    H140964   0.046   3.188   2.623  0.6986  1.3629  0.1992
 6443TIP3    H240965   0.057   3.097   2.743 -0.8195 -0.0077 -0.6555
 6444TIP3   OH240966   6.512   0.532   8.512  0.0915  0.1984  0.4420
 6444TIP3    H140967   6.419   0.515   8.518  0.3669 -1.1007  1.3288
 6444TIP3    H240968   6.527   0.553   8.419 -1.3201  2.1947  0.5943
 6445TIP3   OH240969   3.004   5.218   0.796  0.0784 -0.0419 -0.2498
 6445TIP3    H140970   3.036   5.307   0.781 -1.8348  1.4064  3.1638
 6445TIP3    H240971   2.929   5.209   0.737  1.1029  0.0001 -1.6110
 6446TIP3   OH240972   6.506   0.149   3.464 -0.3740 -0.0089  0.5724
 6446TIP3    H140973   6.559   0.228   3.453  0.2208 -0.5169 -0.3168
 6446TIP3    H240974   6.567   0.083   3.497 -0.1549 -0.8969 -1.4749
 6447TIP3   OH240975   5.621   3.347   8.821  0.0697  0.2410 -0.3865
 6447TIP3    H140976   5.711   3.367   8.796  0.2565  1.2127  0.9099
 6447TIP3    H240977   5.595   3.422   8.875 -1.0820 -0.6264  0.2950
 6448TIP3   OH240978   4.983   1.640   1.268  0.3593  0.2939  0.3964
 6448TIP3    H140979   4.991   1.667   1.176  0.3810  1.2241  0.6601
 6448TIP3    H240980   4.891   1.657   1.289 -0.1822 -1.8612 -0.0287
 6449TIP3   OH240981   1.306   1.382   2.141  0.0259  0.3184  0.1209
 6449TIP3    H140982   1.338   1.440   2.072  0.3137  0.0250  0.0075
 6449TIP3    H240983   1.283   1.301   2.096 -0.0550  0.2232  0.3298
 6450TIP3   OH240984   2.527   5.672   2.038  0.1523 -0.5829  0.4269
 6450TIP3    H140985   2.487   5.714   1.962 -1.0570 -0.8301  0.8913
 6450TIP3    H240986   2.577   5.741   2.081 -0.0295 -0.1723 -0.0226
 6451TIP3   OH240987   4.711   4.811   1.697  0.5873  0.1828 -0.0410
 6451TIP3    H140988   4.731   4.891   1.745  1.6134  0.7067 -1.2757
 6451TIP3    H240989   4.731   4.832   1.606  1.9042 -1.7864 -0.2808
 6452TIP3   OH240990   1.576   4.784   2.616 -0.5127 -0.2689  0.2002
 6452TIP3    H140991   1.501   4.728   2.597 -0.0046 -1.1487  0.7271
 6452TIP3    H240992   1.644   4.724   2.645  0.6327  0.4297 -0.9396
 6453TIP3   OH240993   1.626   1.779   8.087 -0.2457 -0.2515 -0.1821
 6453TIP3    H140994   1.715   1.762   8.118 -0.9097 -0.6734  1.5920
 6453TIP3    H240995   1.602   1.862   8.128 -0.8627 -0.4155 -0.2039
 6454TIP3   OH240996   1.726   4.031   1.456 -0.0738 -0.1634 -0.3552
 6454TIP3    H140997   1.778   3.977   1.396 -1.3369 -1.4893 -0.3186
 6454TIP3    H240998   1.680   3.968   1.511 -0.9484  0.9830  0.2641
 6455TIP3   OH240999   1.915   1.628   8.407  0.0888 -0.1154  0.1150
 6455TIP3    H141000   1.836   1.676   8.433  0.9739  0.4764  1.9435
 6455TIP3    H241001   1.967   1.623   8.488  1.5822 -1.1503 -0.8560
 6456TIP3   OH241002   0.453   6.309   0.485  0.0052  0.3366  0.3267
 6456TIP3    H141003   0.365   6.342   0.503 -0.3413  0.2467 -1.0459
 6456TIP3    H241004   0.507   6.344   0.555 -1.1661  0.1899  1.3298
 6457TIP3   OH241005   1.377   4.947   0.177 -0.1813  0.4849  0.2521
 6457TIP3    H141006   1.355   4.866   0.223 -0.4133 -0.0726 -0.8204
 6457TIP3    H241007   1.345   5.017   0.235 -0.3356 -0.1843  0.9958
 6458TIP3   OH241008   2.598   5.930   0.462  0.1699  0.1760 -0.0877
 6458TIP3    H141009   2.530   5.908   0.526 -0.8215  0.4232 -1.0064
 6458TIP3    H241010   2.634   6.013   0.493  1.0680 -0.6396  1.1693
 6459TIP3   OH241011   2.466   3.387   1.294 -0.8863  0.2727  0.5950
 6459TIP3    H141012   2.494   3.343   1.374 -1.7429 -0.4691  0.4919
 6459TIP3    H241013   2.391   3.441   1.321  0.5202  2.2264  0.8619
 6460TIP3   OH241014   6.671   1.732   2.373 -0.8971  0.1738  0.1719
 6460TIP3    H141015   6.620   1.774   2.304 -1.7618 -2.2982 -0.8163
 6460TIP3    H241016   6.607   1.703   2.437 -0.4185 -0.1957  0.4961
 6461TIP3   OH241017   4.094   1.095   7.680  0.0914 -0.0154  0.0714
 6461TIP3    H141018   4.023   1.079   7.742  0.1578 -1.0330 -0.0948
 6461TIP3    H241019   4.131   1.008   7.663  0.6008  0.3493 -0.7604
 6462TIP3   OH241020   3.477   2.142   2.470 -0.1157 -0.1536  0.5641
 6462TIP3    H141021   3.519   2.196   2.403 -1.6798  0.9379  0.4310
 6462TIP3    H241022   3.494   2.052   2.442  1.2551  0.2550 -0.0112
 6463TIP3   OH241023   3.867   4.971   2.484 -0.1466  0.3824 -0.3745
 6463TIP3    H141024   3.832   4.925   2.407 -0.0939  2.5313 -1.7841
 6463TIP3    H241025   3.915   5.046   2.447 -1.2771  2.2992  1.7592
 6464TIP3   OH241026   1.772   0.304   3.203 -0.1259  0.3655 -0.1618
 6464TIP3    H141027   1.864   0.282   3.185  0.3495  1.4597  0.8033
 6464TIP3    H241028   1.762   0.393   3.170 -0.6143  0.5492  0.4743
 6465TIP3   OH241029   3.144   2.482   8.038 -0.1676  0.2606  0.6057
 6465TIP3    H141030   3.178   2.488   7.949 -0.6887  0.2918  0.4105
 6465TIP3    H241031   3.050   2.493   8.030 -0.3263 -0.6247  1.0595
 6466TIP3   OH241032   0.381   2.229   8.054  0.0426 -0.2807 -0.3625
 6466TIP3    H141033   0.402   2.321   8.034 -0.5054  0.3456  1.6933
 6466TIP3    H241034   0.287   2.230   8.073  0.4370 -0.8252  1.8328
 6467TIP3   OH241035   1.946   1.331   2.680 -0.0419 -0.0103  0.4130
 6467TIP3    H141036   1.950   1.340   2.775 -0.8918  0.3248  0.4235
 6467TIP3    H241037   1.967   1.418   2.646 -0.0185 -0.0572  0.3065
 6468TIP3   OH241038   6.020   6.468   0.499  0.3021 -0.7957  0.5360
 6468TIP3    H141039   5.973   6.485   0.581  0.2738  1.5902  0.0972
 6468TIP3    H241040   5.972   6.396   0.459 -1.7359  0.1625  1.1122
 6469TIP3   OH241041   0.168   2.853   8.630 -0.4419 -0.1184  0.0961
 6469TIP3    H141042   0.189   2.761   8.645 -2.0092 -0.4689  0.2598
 6469TIP3    H241043   0.082   2.865   8.670  0.7862  2.0673  2.4503
 6470TIP3   OH241044   4.777   2.517   8.614 -0.5368 -0.0101  0.3602
 6470TIP3    H141045   4.733   2.442   8.573 -0.2892 -0.2907  0.5961
 6470TIP3    H241046   4.722   2.538   8.689 -2.1405  1.8294 -1.2225
 6471TIP3   OH241047   0.338   1.085   1.591  0.0647 -0.2139  0.5542
 6471TIP3    H141048   0.384   1.066   1.672 -1.5900  0.3824  1.6959
 6471TIP3    H241049   0.363   1.175   1.569  1.0717 -0.6168 -0.0283
 6472TIP3   OH241050   4.093   6.087   3.067  0.1204 -0.2780  0.1331
 6472TIP3    H141051   4.112   6.181   3.068 -0.5459 -0.0545 -2.1825
 6472TIP3    H241052   4.029   6.075   3.137 -0.2316  1.1026  0.0789
 6473TIP3   OH241053   1.440   3.777   1.054  0.2009 -0.0600 -0.4978
 6473TIP3    H141054   1.444   3.805   0.962 -0.1446 -1.3525 -0.9364
 6473TIP3    H241055   1.407   3.853   1.101 -1.9708 -0.0898 -1.8329
 6474TIP3   OH241056   6.553   3.705   1.478  0.6445  0.2257  0.0106
 6474TIP3    H141057   6.497   3.764   1.529 -0.0482 -1.0553  0.7811
 6474TIP3    H241058   6.537   3.729   1.387 -0.6943  0.3097  0.2478
 6475TIP3   OH241059   0.580   0.071   3.104 -0.4067 -0.4835 -0.3735
 6475TIP3    H141060   0.597   0.025   3.021 -0.1737  0.4990 -0.8928
 6475TIP3    H241061   0.487   0.058   3.120 -0.3646 -1.0598 -0.5468
 6476TIP3   OH241062   0.750   2.782   8.866 -0.8103  0.6134  0.1665
 6476TIP3    H141063   0.821   2.773   8.802 -1.4552 -2.5967 -0.2709
 6476TIP3    H241064   0.671   2.758   8.817 -1.7765  1.1807  1.4110
 6477TIP3   OH241065   4.516   5.759   2.639 -0.0040 -0.2043 -0.7165
 6477TIP3    H141066   4.480   5.671   2.632 -2.4994  0.7781 -1.5485
 6477TIP3    H241067   4.458   5.804   2.700  0.7545  1.0597 -0.8958
 6478TIP3   OH241068   2.015   6.765   7.496 -0.1638 -0.2657 -0.1993
 6478TIP3    H141069   1.927   6.754   7.532 -0.6491 -1.3455 -1.6560
 6478TIP3    H241070   2.040   6.678   7.465  0.8512  0.3200 -1.1035
 6479TIP3   OH241071   5.442   2.582   0.277  0.3666  0.4311 -0.1359
 6479TIP3    H141072   5.528   2.563   0.240 -0.3546  0.1905 -1.7478
 6479TIP3    H241073   5.405   2.649   0.221 -1.4316 -1.1127 -0.9294
 6480TIP3   OH241074   1.208   2.644   2.404  0.2784 -0.0891 -0.0588
 6480TIP3    H141075   1.138   2.679   2.460  0.8178  0.4097  0.3183
 6480TIP3    H241076   1.194   2.549   2.404 -2.3249  0.1526 -2.5571
 6481TIP3   OH241077   4.823   6.255   0.944  0.2775  0.4052 -0.1912
 6481TIP3    H141078   4.815   6.349   0.959  0.4177  0.3176  0.4359
 6481TIP3    H241079   4.895   6.227   1.000 -0.2226 -0.1961  0.1723
 6482TIP3   OH241080   3.284   2.338   2.712 -0.5097  0.2905 -0.1506
 6482TIP3    H141081   3.297   2.355   2.805 -0.0928 -2.0144  0.2657
 6482TIP3    H241082   3.194   2.308   2.705 -0.1604 -0.7411 -0.2893
 6483TIP3   OH241083   0.308   5.207   3.417 -0.3085  0.2350  0.5247
 6483TIP3    H141084   0.366   5.188   3.343  0.4814  0.6082  1.0409
 6483TIP3    H241085   0.220   5.194   3.382  0.0218  1.1679 -0.7130
 6484TIP3   OH241086   1.006   5.012   2.050 -0.3357 -0.2490  0.2891
 6484TIP3    H141087   0.915   5.001   2.076 -0.2243  1.2414  1.4463
 6484TIP3    H241088   1.037   4.923   2.032 -1.6172 -0.9231  1.2263
 6485TIP3   OH241089   6.628   6.699   0.643 -0.0775 -0.0357 -0.0079
 6485TIP3    H141090   6.595   6.755   0.713 -1.3805  0.1429 -0.7220
 6485TIP3    H241091   6.550   6.672   0.595  0.6592 -1.2938 -0.5598
 6486TIP3   OH241092   4.803   0.922   1.514 -0.0896 -0.7704  0.3606
 6486TIP3    H141093   4.852   0.871   1.578 -0.6798 -4.1459 -1.6074
 6486TIP3    H241094   4.714   0.926   1.550  0.7180  2.7022  2.4607
 6487TIP3   OH241095   6.191   0.883   2.554 -0.4640 -0.1178  0.4077
 6487TIP3    H141096   6.171   0.808   2.610 -3.7178  0.2370 -0.0670
 6487TIP3    H241097   6.132   0.952   2.586 -2.5478  0.0950 -3.3226
 6488TIP3   OH241098   2.355   5.248   2.340  0.3243 -0.5490  0.1365
 6488TIP3    H141099   2.335   5.155   2.343  1.6415 -0.8741 -0.4105
 6488TIP3    H241100   2.449   5.253   2.355 -0.0091  0.8592  2.1641
 6489TIP3   OH241101   1.056   2.740   2.765  0.1367  0.2319  0.3747
 6489TIP3    H141102   0.966   2.768   2.779 -0.0792 -0.2780  0.0403
 6489TIP3    H241103   1.100   2.818   2.729 -0.2059  0.4331  0.3880
 6490TIP3   OH241104   0.134   6.114   0.636 -0.0194  0.2402  0.4377
 6490TIP3    H141105   0.109   6.084   0.549 -1.8268  2.1773  0.2204
 6490TIP3    H241106   0.230   6.113   0.636  0.0090 -1.7642 -0.8063
 6491TIP3   OH241107   6.280   1.658   1.181  0.2935  0.2747 -0.0884
 6491TIP3    H141108   6.246   1.569   1.172 -1.0632  0.8387 -0.7783
 6491TIP3    H241109   6.375   1.649   1.170  0.2875 -1.2061  0.8489
 6492TIP3   OH241110   1.578   4.591   2.967  0.3655 -0.2039  0.2922
 6492TIP3    H141111   1.585   4.515   3.025 -0.5735  0.2967  1.0858
 6492TIP3    H241112   1.486   4.615   2.971  0.8968  1.8808  1.2170
 6493TIP3   OH241113   3.128   5.600   7.756  0.3766  0.0774 -0.0778
 6493TIP3    H141114   3.149   5.559   7.672 -0.9181  0.8623 -0.8247
 6493TIP3    H241115   3.041   5.566   7.778 -0.8776  2.5264 -0.8640
 6494TIP3   OH241116   0.654   2.981   8.053  0.0170  0.5940 -0.2416
 6494TIP3    H141117   0.684   3.028   7.974 -1.2193  0.2173 -0.9626
 6494TIP3    H241118   0.679   2.890   8.038 -0.8758  0.3867 -0.5670
 6495TIP3   OH241119   1.867   4.002   1.854  0.1010  0.4952 -0.3642
 6495TIP3    H141120   1.951   3.964   1.877 -0.2634 -0.1188 -0.0081
 6495TIP3    H241121   1.888   4.074   1.795  0.9879  1.4020  0.9987
 6496TIP3   OH241122   3.326   3.584   8.008  0.3682  0.3057  0.3963
 6496TIP3    H141123   3.339   3.557   7.917  1.2262  1.8231  0.0302
 6496TIP3    H241124   3.341   3.679   8.007 -2.5469  0.8993  1.5680
 6497TIP3   OH241125   3.731   0.247   7.746 -0.3081 -0.4661 -0.1800
 6497TIP3    H141126   3.771   0.331   7.769 -1.0560 -0.3125  0.6306
 6497TIP3    H241127   3.663   0.269   7.683  0.9479 -0.7487 -1.7017
 6498TIP3   OH241128   1.326   1.853   2.508 -0.3400  0.5821  0.0716
 6498TIP3    H141129   1.407   1.904   2.499  1.2146 -1.8359 -0.4170
 6498TIP3    H241130   1.311   1.817   2.421 -1.2045 -0.0915  0.4937
 6499TIP3   OH241131   4.935   3.002   8.612 -0.0490  0.3154  0.0531
 6499TIP3    H141132   4.941   2.967   8.701  0.9069  1.5901  0.5128
 6499TIP3    H241133   5.017   2.974   8.571 -0.9211 -1.1401 -0.7914
 6500TIP3   OH241134   5.483   5.281   8.912  0.5211  0.1576 -0.4630
 6500TIP3    H141135   5.532   5.360   8.935  1.8365 -0.7865  0.0841
 6500TIP3    H241136   5.446   5.301   8.826 -0.6718  2.0239  0.4329
 6501TIP3   OH241137   1.698   5.149   8.702 -0.0384  0.9068 -0.3515
 6501TIP3    H141138   1.757   5.184   8.635 -0.6083  0.3306 -1.1712
 6501TIP3    H241139   1.679   5.060   8.673  0.1219  0.4667  0.8654
 6502TIP3   OH241140   0.364   0.225   1.126  0.1827  0.0622  0.5858
 6502TIP3    H141141   0.319   0.310   1.124  0.3193  0.1277  0.3355
 6502TIP3    H241142   0.392   0.216   1.217 -0.9659 -0.3077  0.9149
 6503TIP3   OH241143   0.854   3.040   0.455  0.4324 -0.0662 -0.7372
 6503TIP3    H141144   0.913   2.965   0.448  0.7848  0.1857 -0.5209
 6503TIP3    H241145   0.876   3.080   0.540  0.8745  0.8104 -1.2508
 6504TIP3   OH241146   4.472   1.734   2.250  0.5252  0.0712 -0.3063
 6504TIP3    H141147   4.377   1.722   2.250  0.4601  0.3886  1.1942
 6504TIP3    H241148   4.483   1.828   2.236  0.4618  0.5639  2.4333
 6505TIP3   OH241149   2.488   1.897   8.193 -0.0708  1.1174 -0.3209
 6505TIP3    H141150   2.576   1.905   8.156  0.0842  0.2822 -0.1350
 6505TIP3    H241151   2.461   1.808   8.173 -1.0289  1.4743 -0.6943
 6506TIP3   OH241152   1.963   0.314   0.543  0.0942 -0.1148  0.0557
 6506TIP3    H141153   1.972   0.399   0.587 -2.0301  0.8033 -1.1174
 6506TIP3    H241154   1.942   0.336   0.452  1.9666 -1.9558 -0.9007
 6507TIP3   OH241155   1.997   3.711   0.280 -0.0695 -0.3562 -0.3480
 6507TIP3    H141156   1.974   3.690   0.190 -0.0948  2.3315 -1.0760
 6507TIP3    H241157   1.912   3.717   0.325 -0.0712 -1.4583 -0.1902
 6508TIP3   OH241158   3.976   3.455   1.832  0.1023 -0.1594  0.0886
 6508TIP3    H141159   3.903   3.511   1.807  0.7805  1.0197  0.6762
 6508TIP3    H241160   4.009   3.420   1.750 -1.1793 -0.8034 -0.1771
 6509TIP3   OH241161   2.098   5.560   1.662 -0.0584  0.3914 -0.2045
 6509TIP3    H141162   2.099   5.564   1.566  0.1609  1.1733 -0.1711
 6509TIP3    H241163   2.008   5.537   1.684  0.0228 -0.3696 -0.6113
 6510TIP3   OH241164   0.127   3.558   0.887  0.6858 -0.5005  0.5474
 6510TIP3    H141165   0.177   3.632   0.853 -0.0292  0.3601  1.3109
 6510TIP3    H241166   0.087   3.591   0.968 -0.3724 -1.4318  0.4331
 6511TIP3   OH241167   5.602   4.675   0.737 -0.2542 -0.0441 -0.4410
 6511TIP3    H141168   5.549   4.742   0.693 -0.7602  0.8983  1.4699
 6511TIP3    H241169   5.539   4.615   0.775 -0.0247  0.9867  1.7020
 6512TIP3   OH241170   5.485   5.279   2.326 -0.1190  0.2617  0.2879
 6512TIP3    H141171   5.464   5.360   2.281 -0.2737  1.4823  2.4493
 6512TIP3    H241172   5.400   5.237   2.341  0.0028 -0.7760 -1.5076
 6513TIP3   OH241173   0.500   5.599   8.687  0.3036  0.1310  0.3497
 6513TIP3    H141174   0.491   5.597   8.782 -0.7172 -0.9669  0.2687
 6513TIP3    H241175   0.455   5.519   8.658  0.9519  0.2434 -1.0215
 6514TIP3   OH241176   5.238   0.632   0.945  0.7324 -0.0705  0.1456
 6514TIP3    H141177   5.288   0.591   0.875  0.0236 -1.4826  0.4341
 6514TIP3    H241178   5.188   0.702   0.901 -0.0515 -1.2218 -0.8586
 6515TIP3   OH241179   2.357   5.030   0.283  0.1249  0.1401  0.0587
 6515TIP3    H141180   2.308   4.965   0.233 -0.3218  0.4848  0.0389
 6515TIP3    H241181   2.366   5.104   0.222  0.0943  0.3318  0.2857
 6516TIP3   OH241182   4.757   5.476   1.158 -0.0882 -0.0473  0.2595
 6516TIP3    H141183   4.770   5.513   1.071  2.5890  0.7969  0.9324
 6516TIP3    H241184   4.727   5.550   1.211  0.6264  0.0244  0.5690
 6517TIP3   OH241185   1.854   5.591   8.374 -0.3961 -0.0288  0.1559
 6517TIP3    H141186   1.830   5.633   8.456 -1.0497  0.5399 -0.3173
 6517TIP3    H241187   1.793   5.626   8.309  1.7751  1.6377 -1.1479
 6518TIP3   OH241188   4.819   1.031   8.218 -0.4064  0.3550  0.7986
 6518TIP3    H141189   4.911   1.018   8.240 -0.3967  0.9571  1.1516
 6518TIP3    H241190   4.811   1.126   8.208 -0.4027  0.1274 -1.8953
 6519TIP3   OH241191   5.718   5.165   8.540  0.2437  0.0187 -0.4546
 6519TIP3    H141192   5.777   5.136   8.609  0.3986  0.1356 -0.5386
 6519TIP3    H241193   5.671   5.085   8.515  0.1158 -0.0050 -0.1483
 6520TIP3   OH241194   6.106   0.918   8.482 -0.5571 -0.1416  0.4424
 6520TIP3    H141195   6.147   0.863   8.415 -0.7351  1.3679 -0.9582
 6520TIP3    H241196   6.012   0.915   8.462 -0.4475  1.7540 -0.5536
 6521TIP3   OH241197   2.985   3.158   0.315  0.2468  0.0038  0.3189
 6521TIP3    H141198   2.976   3.063   0.311  1.1366 -0.0652 -0.4793
 6521TIP3    H241199   3.006   3.177   0.406 -0.2999 -0.5183  0.5626
 6522TIP3   OH241200   5.333   5.001   8.136 -0.4375 -0.1855 -0.0124
 6522TIP3    H141201   5.239   5.010   8.154 -0.3241 -0.4686  0.7446
 6522TIP3    H241202   5.342   4.913   8.102 -0.3722 -0.3603  0.4484
 6523TIP3   OH241203   2.255   0.317   1.092  0.0459 -0.8501  0.1028
 6523TIP3    H141204   2.324   0.272   1.043  0.3005 -0.4483  0.0926
 6523TIP3    H241205   2.264   0.409   1.067  0.6688 -0.5143  1.4820
 6524TIP3   OH241206   4.663   0.617   3.295 -0.2881 -0.5722  0.3205
 6524TIP3    H141207   4.642   0.642   3.205 -2.4267 -0.9709  0.6420
 6524TIP3    H241208   4.720   0.686   3.327 -1.4932  0.8971 -0.5733
 6525TIP3   OH241209   6.270   3.196   8.849  0.8247 -0.3001 -0.3766
 6525TIP3    H141210   6.295   3.284   8.878 -0.4716  0.1284 -0.4473
 6525TIP3    H241211   6.261   3.204   8.754 -2.9143  0.5888 -0.1064
 6526TIP3   OH241212   0.324   0.200   2.234 -0.0215  0.4845 -0.1882
 6526TIP3    H141213   0.236   0.235   2.218 -0.5320 -0.6185  0.0513
 6526TIP3    H241214   0.331   0.198   2.330 -0.2767 -0.6529 -0.1773
 6527TIP3   OH241215   6.226   0.934   0.945 -0.5138  0.4286  0.3595
 6527TIP3    H141216   6.293   0.875   0.910 -0.2081  0.8570  0.2235
 6527TIP3    H241217   6.275   1.002   0.990 -0.8560  0.8051  0.1670
 6528TIP3   OH241218   4.299   3.215   0.578 -0.2764  0.4830 -0.3882
 6528TIP3    H141219   4.210   3.206   0.612 -0.3589 -0.0398 -0.7217
 6528TIP3    H241220   4.321   3.307   0.590  0.0262  0.1595  1.8811
 6529TIP3   OH241221   0.506   5.339   3.170 -0.0955  0.0183 -0.3018
 6529TIP3    H141222   0.493   5.245   3.183  1.3130 -0.3767 -1.5576
 6529TIP3    H241223   0.422   5.370   3.136 -0.4731 -0.8408 -0.1801
 6530TIP3   OH241224   1.182   3.429   0.676  0.5910  0.2266  0.1120
 6530TIP3    H141225   1.107   3.371   0.666  1.0574 -0.3147 -0.3657
 6530TIP3    H241226   1.150   3.515   0.649  0.0248  0.0892  0.3484
 6531TIP3   OH241227   2.410   6.273   7.547  0.3426  0.3269  0.4215
 6531TIP3    H141228   2.382   6.263   7.638  2.2927  1.2584  1.1947
 6531TIP3    H241229   2.421   6.367   7.536  1.8449  0.1022 -0.2037
 6532TIP3   OH241230   3.826   0.085   8.875 -0.4629  0.1169 -0.5843
 6532TIP3    H141231   3.813  -0.009   8.891 -0.8874  0.2934  0.1433
 6532TIP3    H241232   3.798   0.097   8.784  1.0381 -0.7280 -1.2023
 6533TIP3   OH241233   5.654   4.274   3.343 -0.2910  0.6287 -0.1732
 6533TIP3    H141234   5.731   4.219   3.332  0.4643  1.0727  2.3150
 6533TIP3    H241235   5.684   4.363   3.323 -0.6167  0.5955 -0.8429
 6534TIP3   OH241236   3.101   1.159   8.507 -0.1889  0.1699  0.6079
 6534TIP3    H141237   3.067   1.243   8.479 -1.1998 -0.0675  1.0973
 6534TIP3    H241238   3.025   1.110   8.538  0.3192 -1.0639 -0.0007
 6535TIP3   OH241239   0.339   0.626   1.750  0.4740  0.0049 -0.0955
 6535TIP3    H141240   0.388   0.612   1.669 -0.2704 -3.1824 -0.1044
 6535TIP3    H241241   0.383   0.571   1.814 -0.3470  0.7029  1.0999
 6536TIP3   OH241242   3.818   3.472   2.275 -0.4346 -0.0970  0.1622
 6536TIP3    H141243   3.772   3.409   2.331 -1.6019  1.4077  0.9823
 6536TIP3    H241244   3.769   3.553   2.286  1.4687  1.1680 -0.2635
 6537TIP3   OH241245   6.607   3.216   1.763  0.1784 -0.6063  0.2238
 6537TIP3    H141246   6.662   3.221   1.684  0.7803 -1.4722  0.5760
 6537TIP3    H241247   6.584   3.307   1.781  2.0735 -0.1303  0.4504
 6538TIP3   OH241248   3.824   0.909   8.430  0.0297 -0.1947  0.0979
 6538TIP3    H141249   3.787   0.997   8.431 -0.5544 -0.4367 -0.0390
 6538TIP3    H241250   3.849   0.894   8.338 -1.4240 -0.8037 -0.2271
 6539TIP3   OH241251   5.133   0.847   0.807  0.3134 -0.0201 -0.2647
 6539TIP3    H141252   5.075   0.823   0.735  0.5323 -0.9678 -0.1367
 6539TIP3    H241253   5.103   0.933   0.834 -0.6654 -0.2572 -0.5672
 6540TIP3   OH241254   4.358   5.789   8.929  0.0416  0.6029  0.1403
 6540TIP3    H141255   4.286   5.848   8.951 -1.0988 -1.0489  1.0547
 6540TIP3    H241256   4.322   5.701   8.941  1.7386 -0.3016 -0.9581
 6541TIP3   OH241257   1.893   0.918   8.829  0.2095  0.2330 -0.2033
 6541TIP3    H141258   1.962   0.894   8.767  0.0804  0.2921 -0.3704
 6541TIP3    H241259   1.824   0.855   8.814 -0.3158  0.9696 -0.9579
 6542TIP3   OH241260   1.778   5.491   8.070 -0.1163  0.3831 -0.4959
 6542TIP3    H141261   1.697   5.503   8.020 -0.0788 -0.9842 -0.9207
 6542TIP3    H241262   1.825   5.574   8.060 -0.5430  0.4692 -1.9322
 6543TIP3   OH241263   2.605   4.301   1.670  0.0195  0.3395  0.3553
 6543TIP3    H141264   2.534   4.297   1.607 -0.5451 -1.4409  1.0261
 6543TIP3    H241265   2.660   4.226   1.648  0.6399  0.5848  1.0290
 6544TIP3   OH241266   3.667   0.079   1.646  0.3171 -0.5861 -0.2773
 6544TIP3    H141267   3.638   0.169   1.627  0.6233  0.0576  2.0094
 6544TIP3    H241268   3.666   0.074   1.741  0.0896 -3.1191 -0.3646
 6545TIP3   OH241269   5.348   2.008   8.652 -0.2923  0.1299  0.3121
 6545TIP3    H141270   5.313   1.993   8.564 -0.1163 -0.1710  0.2925
 6545TIP3    H241271   5.336   2.102   8.667  1.1181  0.4975 -0.6672
 6546TIP3   OH241272   2.357   0.893   0.250 -0.3420  0.0238 -0.2068
 6546TIP3    H141273   2.379   0.834   0.322 -1.4363 -1.7180 -1.2217
 6546TIP3    H241274   2.342   0.835   0.175  0.0456  1.7209 -1.6698
 6547TIP3   OH241275   1.691   6.743   3.621 -0.4429  0.3228  0.3522
 6547TIP3    H141276   1.723   6.760   3.533  2.8014  1.3083  1.5687
 6547TIP3    H241277   1.715   6.652   3.638 -1.2791  0.0614  0.1438
 6548TIP3   OH241278   3.715   3.061   0.454  0.1114  0.1397 -0.7921
 6548TIP3    H141279   3.747   3.058   0.364  0.9363  1.5989 -0.5770
 6548TIP3    H241280   3.649   3.130   0.454  0.7735  0.7994 -0.1059
 6549TIP3   OH241281   4.780   1.778   7.006 -0.6934  0.0790 -0.3250
 6549TIP3    H141282   4.811   1.812   7.090  0.7373 -0.8940 -0.4214
 6549TIP3    H241283   4.803   1.846   6.943  0.3321 -0.1726 -0.2380
 6550TIP3   OH241284   5.917   3.425   0.179  0.4216  0.1564  0.2581
 6550TIP3    H141285   5.869   3.342   0.173 -0.0722  0.4983 -0.7983
 6550TIP3    H241286   5.969   3.428   0.099  2.0302 -0.0683  1.2633
 6551TIP3   OH241287   4.287   6.161   8.791  0.1921 -0.5387  0.3474
 6551TIP3    H141288   4.365   6.208   8.820  0.5040 -0.1449 -1.0588
 6551TIP3    H241289   4.214   6.214   8.821  0.5160  2.3504 -3.2844
 6552TIP3   OH241290   5.708   2.642   0.623  0.5782  0.0055 -0.0852
 6552TIP3    H141291   5.626   2.676   0.586 -0.4436 -1.5312  0.6225
 6552TIP3    H241292   5.703   2.547   0.608  1.8038 -0.2237  0.7940
 6553TIP3   OH241293   0.895   1.529   8.451 -0.2375  0.2650  0.0513
 6553TIP3    H141294   0.913   1.622   8.463  1.0473  0.0061  0.2731
 6553TIP3    H241295   0.802   1.520   8.468 -0.5273  1.6237 -0.6926
 6554TIP3   OH241296   6.763   1.635   1.434  0.2212 -0.3315 -0.0998
 6554TIP3    H141297   6.668   1.635   1.447  0.0658 -0.9211 -1.1295
 6554TIP3    H241298   6.790   1.546   1.457  0.4383 -0.3293 -0.3426
 6555TIP3   OH241299   0.205   0.912   2.204 -0.1515 -0.1593 -0.5703
 6555TIP3    H141300   0.295   0.878   2.205 -0.6575 -1.5998  1.0367
 6555TIP3    H241301   0.155   0.845   2.158 -0.9425 -1.0504  1.4941
 6556TIP3   OH241302   6.566   2.354   0.722 -0.5174  0.1744  0.0723
 6556TIP3    H141303   6.583   2.295   0.649  2.4550  0.7817  0.1779
 6556TIP3    H241304   6.538   2.297   0.794  2.5758 -1.2574  0.2702
 6557TIP3   OH241305   3.084   5.376   1.548 -0.0981  0.0779 -0.7591
 6557TIP3    H141306   3.001   5.330   1.537  0.5448 -0.8898 -1.7102
 6557TIP3    H241307   3.089   5.435   1.472 -0.8130  1.6125  0.3324
 6558TIP3   OH241308   0.804   2.516   0.583  0.0986 -0.4778  0.1199
 6558TIP3    H141309   0.880   2.532   0.639  0.6563 -0.8751 -0.5118
 6558TIP3    H241310   0.774   2.603   0.557  0.6465 -0.3334 -0.0356
 6559TIP3   OH241311   1.090   4.897   8.553 -0.5579 -0.2490 -0.0635
 6559TIP3    H141312   1.104   4.823   8.495 -2.5024  0.6674 -1.8173
 6559TIP3    H241313   1.153   4.963   8.524 -1.4827  0.1846 -1.1558
 6560TIP3   OH241314   4.292   6.178   8.034  0.4013  0.1320  0.1509
 6560TIP3    H141315   4.299   6.120   8.110  0.3375 -0.1940 -0.0916
 6560TIP3    H241316   4.198   6.195   8.025  0.1446 -1.6956 -1.2396
 6561TIP3   OH241317   1.494   1.654   3.324 -0.0738 -0.5577 -0.2544
 6561TIP3    H141318   1.482   1.736   3.372 -0.5759 -0.8167  0.0659
 6561TIP3    H241319   1.411   1.640   3.279  1.1776  1.0674 -3.4346
 6562TIP3   OH241320   4.195   6.424   8.323 -0.1864  0.3840  0.4860
 6562TIP3    H141321   4.181   6.421   8.228 -3.0686 -0.8374  0.8343
 6562TIP3    H241322   4.128   6.485   8.355 -0.0185 -0.1116  1.8364
 6563TIP3   OH241323   6.596   3.896   1.131 -0.4031 -0.2113  0.3168
 6563TIP3    H141324   6.560   3.820   1.177 -0.9457  0.0820  0.3885
 6563TIP3    H241325   6.558   3.892   1.043 -0.8449  0.2607  0.4825
 6564TIP3   OH241326   3.512   5.880   0.916  0.6628  0.3374  0.2024
 6564TIP3    H141327   3.424   5.902   0.887  0.8980  0.4976 -0.3892
 6564TIP3    H241328   3.521   5.925   1.000  0.0731  0.0637  0.4197
 6565TIP3   OH241329   6.191   3.767   7.929 -0.0997 -0.0245 -0.5006
 6565TIP3    H141330   6.218   3.729   8.012  0.2144  0.1002 -0.5428
 6565TIP3    H241331   6.256   3.735   7.866 -0.4833 -0.3211 -0.7421
 6566TIP3   OH241332   6.538   4.714   1.143 -0.7693 -0.1466 -0.2748
 6566TIP3    H141333   6.580   4.767   1.075  0.6070  1.2931  1.5986
 6566TIP3    H241334   6.534   4.626   1.106  1.1593  0.3044 -1.7112
 6567TIP3   OH241335   6.300   0.116   8.460  0.5597 -0.0777  0.1030
 6567TIP3    H141336   6.233   0.085   8.522  0.9933  0.5997  0.9335
 6567TIP3    H241337   6.325   0.038   8.410 -1.0834 -0.2843 -0.4647
 6568TIP3   OH241338   4.586   1.330   1.951 -0.1577 -0.2502 -0.0473
 6568TIP3    H141339   4.533   1.253   1.968  0.5960 -0.9144 -0.6310
 6568TIP3    H241340   4.558   1.393   2.017 -0.8443 -0.9842  0.3834
 6569TIP3   OH241341   3.621   3.243   6.937  1.0567  0.1857  0.0313
 6569TIP3    H141342   3.581   3.326   6.961 -0.3812  0.3443 -2.5918
 6569TIP3    H241343   3.638   3.200   7.021 -1.9543  1.3784  1.3855
 6570TIP3   OH241344   0.010   1.776   2.858  0.1138 -0.7686 -0.1519
 6570TIP3    H141345  -0.026   1.734   2.936 -0.1472 -1.5591 -0.6887
 6570TIP3    H241346  -0.011   1.869   2.868 -0.8904 -1.0293  0.1911
 6571TIP3   OH241347   5.443   3.607   8.360 -0.2072  0.7219  0.4841
 6571TIP3    H141348   5.396   3.531   8.326 -0.5054  0.5080  1.3623
 6571TIP3    H241349   5.517   3.618   8.300 -0.0962 -0.3259  0.4126
 6572TIP3   OH241350   1.812   0.743   2.395  0.0873 -0.2226  0.1853
 6572TIP3    H141351   1.737   0.689   2.418 -0.8133  0.1614 -1.6357
 6572TIP3    H241352   1.885   0.682   2.388 -0.7921 -1.1913 -1.3066
 6573TIP3   OH241353   6.570   6.476   8.200  0.5766 -0.1780 -0.2335
 6573TIP3    H141354   6.490   6.470   8.148  1.1140  1.6886 -1.3471
 6573TIP3    H241355   6.633   6.421   8.154  0.8579  0.9465 -1.2338
 6574TIP3   OH241356   6.573   2.679   3.749  0.2305 -0.2968  0.1526
 6574TIP3    H141357   6.535   2.766   3.762  1.5951  0.3915 -0.2632
 6574TIP3    H241358   6.500   2.625   3.718 -0.4171  0.9464 -0.5414
 6575TIP3   OH241359   6.343   4.125   3.261  0.3904  0.1775  0.2157
 6575TIP3    H141360   6.368   4.104   3.351 -0.3346 -0.6314  0.2419
 6575TIP3    H241361   6.278   4.058   3.238 -0.4589  1.1853 -0.4333
 6576TIP3   OH241362   2.576   5.373   1.605  0.6101  0.0813  0.3614
 6576TIP3    H141363   2.541   5.427   1.675 -0.6669 -1.4922  0.9917
 6576TIP3    H241364   2.518   5.297   1.602  1.2762 -0.4088 -1.6833
 6577TIP3   OH241365   2.203   3.518   0.897  0.6483  0.2162 -0.1017
 6577TIP3    H141366   2.140   3.450   0.873  0.1737  0.3471  0.7467
 6577TIP3    H241367   2.264   3.521   0.823 -0.2804  0.0299 -0.8899
 6578TIP3   OH241368   3.097   3.694   3.556 -0.1797 -0.0817 -0.3254
 6578TIP3    H141369   3.015   3.660   3.521 -0.1315 -0.7752  0.2320
 6578TIP3    H241370   3.158   3.621   3.551  0.0412  0.0394  0.4847
 6579TIP3   OH241371   0.466   3.304   8.964 -0.1537 -0.2622 -0.3831
 6579TIP3    H141372   0.383   3.268   8.934 -0.6636  0.8780 -0.3866
 6579TIP3    H241373   0.443   3.382   9.013  0.8815 -0.3000  0.2034
 6580TIP3   OH241374   5.109   0.952   8.160  0.2899 -0.1662 -0.2416
 6580TIP3    H141375   5.055   0.893   8.108 -0.1807  1.8944 -2.2614
 6580TIP3    H241376   5.164   0.997   8.096  0.9629  1.2351  1.2538
 6581TIP3   OH241377   2.243   1.570   0.536 -0.3703  0.2463  0.3356
 6581TIP3    H141378   2.202   1.483   0.543  1.3673 -0.5199  2.3985
 6581TIP3    H241379   2.237   1.606   0.625 -0.2956  1.9018 -0.2912
 6582TIP3   OH241380   2.042   5.916   8.367  0.4386 -0.1470  0.3066
 6582TIP3    H141381   1.974   5.963   8.318  0.1472 -0.0237  0.8191
 6582TIP3    H241382   2.068   5.844   8.311  0.8514  0.5915 -0.4789
 6583TIP3   OH241383   0.180   0.821   2.499 -0.3033  0.3246 -0.6518
 6583TIP3    H141384   0.170   0.846   2.407  0.8926  1.1257 -0.5976
 6583TIP3    H241385   0.122   0.881   2.547  1.0103  1.7146 -0.6995
 6584TIP3   OH241386   3.859   0.194   0.135  0.8315 -1.1457 -0.0760
 6584TIP3    H141387   3.811   0.277   0.132  1.1137 -0.9982 -1.0539
 6584TIP3    H241388   3.841   0.153   0.050  0.0339 -2.4805  0.7008
 6585TIP3   OH241389   0.527   3.937   1.717  0.1981 -0.1973 -0.4545
 6585TIP3    H141390   0.507   4.020   1.760 -0.0528 -0.0321 -0.8725
 6585TIP3    H241391   0.525   3.959   1.623 -0.4530 -0.8013 -0.5844
 6586TIP3   OH241392   0.128   4.346   7.950  0.0201  0.0309  0.2933
 6586TIP3    H141393   0.076   4.388   7.881 -0.4629 -1.3155 -0.1919
 6586TIP3    H241394   0.210   4.323   7.907  0.5958  1.1063  0.7594
 6587TIP3   OH241395   0.914   0.372   1.928  0.1473 -0.5271 -0.4521
 6587TIP3    H141396   0.972   0.393   1.855  1.5990 -1.5663  0.3354
 6587TIP3    H241397   0.948   0.422   2.002  0.4434 -1.5873  0.1619
 6588TIP3   OH241398   5.579   1.688   2.539  0.3147 -0.2641 -0.2135
 6588TIP3    H141399   5.505   1.749   2.544  1.7794  2.0646 -3.3928
 6588TIP3    H241400   5.539   1.602   2.551 -2.6138  1.0021  0.0254
 6589TIP3   OH241401   6.321   4.925   7.409 -0.5861 -0.3312  0.2409
 6589TIP3    H141402   6.298   4.886   7.325 -3.5628  1.2281  0.1808
 6589TIP3    H241403   6.281   4.868   7.474 -0.8102  0.0110  0.4090
 6590TIP3   OH241404   1.934   4.661   7.950 -0.2435  0.0910 -0.1644
 6590TIP3    H141405   1.864   4.700   7.896 -0.4087  0.4807  0.3268
 6590TIP3    H241406   1.987   4.735   7.978 -0.5651 -0.0238  0.7885
 6591TIP3   OH241407   5.786   0.568   3.630 -0.2961  0.1541  0.3435
 6591TIP3    H141408   5.840   0.529   3.562  0.1426  1.7526 -0.2649
 6591TIP3    H241409   5.842   0.633   3.672 -1.1691  0.5432  0.9467
 6592TIP3   OH241410   5.144   2.702   2.341 -0.0572 -0.0436 -0.0618
 6592TIP3    H141411   5.176   2.789   2.363 -0.2285 -0.2043  0.8724
 6592TIP3    H241412   5.128   2.660   2.426  0.7516 -1.2528 -0.4802
 6593TIP3   OH241413   1.910   4.534   2.953 -0.4382 -0.3429  0.5877
 6593TIP3    H141414   1.996   4.517   2.992 -1.1198  2.4334  3.6798
 6593TIP3    H241415   1.856   4.461   2.981  0.0897 -0.3880  1.5267
 6594TIP3   OH241416   1.022   2.807   0.708  0.5645 -0.0892  0.1969
 6594TIP3    H141417   1.103   2.854   0.729  1.1530 -0.6606 -0.7263
 6594TIP3    H241418   1.051   2.721   0.677 -0.4832 -0.9265  1.4384
 6595TIP3   OH241419   5.958   3.048   2.678 -0.5443 -0.0288 -0.4099
 6595TIP3    H141420   6.027   3.114   2.676  0.0675 -0.5386  1.5110
 6595TIP3    H241421   6.005   2.965   2.665 -0.9717 -0.2753 -0.3761
 6596TIP3   OH241422   3.661   5.950   7.427 -0.2254  0.3916  0.4316
 6596TIP3    H141423   3.652   5.983   7.516 -0.1629 -0.1735  0.6515
 6596TIP3    H241424   3.593   5.883   7.419  2.1546 -2.3141  1.3685
 6597TIP3   OH241425   1.310   5.026   0.669  0.2935 -0.2370 -0.3194
 6597TIP3    H141426   1.404   5.005   0.665  0.6817  1.4028 -0.7285
 6597TIP3    H241427   1.306   5.106   0.721 -0.9577 -0.6238  0.1988
 6598TIP3   OH241428   5.246   2.275   8.698  0.5057  0.0070  0.1593
 6598TIP3    H141429   5.187   2.343   8.664  1.1766  0.2753 -0.4985
 6598TIP3    H241430   5.240   2.284   8.793  1.2271  1.5791  0.0890
 6599TIP3   OH241431   3.568   3.730   1.595 -0.2185  0.3682  0.3631
 6599TIP3    H141432   3.565   3.803   1.657 -0.8873  0.5282  0.1488
 6599TIP3    H241433   3.608   3.767   1.516  0.5774  0.1800  0.6736
 6600TIP3   OH241434   3.347   3.590   8.290 -0.1252 -0.2296  0.0057
 6600TIP3    H141435   3.304   3.675   8.296 -0.6647 -0.5578  1.2693
 6600TIP3    H241436   3.348   3.569   8.197 -1.4701  0.4132 -0.1728
 6601TIP3   OH241437   0.466   1.136   0.653 -0.2690  0.1979  0.0590
 6601TIP3    H141438   0.408   1.157   0.580 -0.2589  3.3219  0.7987
 6601TIP3    H241439   0.408   1.114   0.725 -0.5064  1.5776  0.3104
 6602TIP3   OH241440   2.337   4.269   2.348 -0.7267  0.7156  0.1850
 6602TIP3    H141441   2.370   4.199   2.404 -0.6722  0.1568 -0.5311
 6602TIP3    H241442   2.272   4.315   2.402 -0.5067  0.3375  0.7786
 6603TIP3   OH241443   2.580   5.659   7.392  0.7246 -0.2650 -0.0603
 6603TIP3    H141444   2.626   5.580   7.364  0.1570 -0.7959  0.4788
 6603TIP3    H241445   2.631   5.691   7.467  1.4173  0.3498 -0.7714
 6604TIP3   OH241446   2.172   6.745   8.544  0.3453  0.4347 -0.0332
 6604TIP3    H141447   2.236   6.729   8.475 -1.4754 -0.1557 -1.6613
 6604TIP3    H241448   2.088   6.746   8.500 -1.0548 -1.3195  2.3604
 6605TIP3   OH241449   1.980   1.652   0.910  0.3815 -0.5713  0.5112
 6605TIP3    H141450   1.888   1.675   0.923  0.6185 -0.1057  1.4325
 6605TIP3    H241451   1.989   1.645   0.815 -0.6295 -0.7327  0.4170
 6606TIP3   OH241452   6.428   3.513   3.464 -1.1369  0.0912  0.1826
 6606TIP3    H141453   6.415   3.582   3.400 -2.6497  0.1578  0.5254
 6606TIP3    H241454   6.468   3.441   3.415  2.2136  1.7737  0.1853
 6607TIP3   OH241455   6.153   1.974   0.193 -0.7143 -0.1670 -0.1337
 6607TIP3    H141456   6.088   1.911   0.162  0.3181 -1.0264 -0.6391
 6607TIP3    H241457   6.102   2.045   0.230 -1.9487 -0.5637 -1.0010
 6608TIP3   OH241458   1.366   3.557   2.483 -0.0321 -0.5327 -0.0497
 6608TIP3    H141459   1.350   3.625   2.549 -1.4615 -1.5497  0.7042
 6608TIP3    H241460   1.400   3.483   2.533  0.4206 -0.7758 -0.7082
 6609TIP3   OH241461   1.065   2.165   1.515  0.1000 -0.1105  0.3196
 6609TIP3    H141462   1.038   2.090   1.462  0.6124  1.3080 -2.0985
 6609TIP3    H241463   0.990   2.223   1.515  0.3378  0.2036  0.5856
 6610TIP3   OH241464   0.913   5.918   2.504  0.2027 -0.0346  0.2904
 6610TIP3    H141465   0.961   5.970   2.440  0.7697 -0.0178  0.7130
 6610TIP3    H241466   0.928   5.963   2.587  0.7188 -0.8775  0.6648
 6611TIP3   OH241467   6.355   1.304   0.368 -0.1103  0.1979 -0.2387
 6611TIP3    H141468   6.389   1.342   0.449 -1.5798  2.2599 -0.4864
 6611TIP3    H241469   6.413   1.337   0.299 -0.2622  0.4318 -0.2564
 6612TIP3   OH241470   0.477   6.426   8.583  0.0225  0.4964  0.0445
 6612TIP3    H141471   0.571   6.407   8.578  0.1513  0.7875  1.1658
 6612TIP3    H241472   0.435   6.342   8.563  0.5026  0.3951 -0.5896
 6613TIP3   OH241473   1.070   2.679   1.403 -0.2229 -0.2506  0.4675
 6613TIP3    H141474   1.072   2.753   1.464  0.3915  1.2942 -1.3382
 6613TIP3    H241475   0.981   2.677   1.370 -0.1657 -0.1379  0.3060
 6614TIP3   OH241476   4.502   1.653   7.049  0.6527  0.7461  0.0739
 6614TIP3    H141477   4.569   1.719   7.029  1.9236 -0.8803 -1.2663
 6614TIP3    H241478   4.551   1.573   7.065 -0.8568  0.0939  1.7956
 6615TIP3   OH241479   0.736   6.148   2.173  0.4578 -0.3031 -0.6946
 6615TIP3    H141480   0.654   6.171   2.129 -0.5020 -1.2317  0.5312
 6615TIP3    H241481   0.757   6.061   2.139  1.0649  0.0102 -1.1486
 6616TIP3   OH241482   5.570   1.614   0.028 -0.4569 -0.3559 -0.3221
 6616TIP3    H141483   5.544   1.552  -0.040 -1.4439  1.1788 -1.4044
 6616TIP3    H241484   5.666   1.613   0.027 -0.4570 -1.9013 -0.2506
 6617TIP3   OH241485   2.903   2.738   2.488  0.3757  0.5844  0.4344
 6617TIP3    H141486   2.825   2.684   2.477  0.7505  0.4363 -2.3389
 6617TIP3    H241487   2.961   2.686   2.544  0.3404 -1.5792 -1.3584
 6618TIP3   OH241488   0.342   0.016   0.631  0.4099  0.3846  0.6712
 6618TIP3    H141489   0.255  -0.020   0.611 -1.4502  3.1509  2.9878
 6618TIP3    H241490   0.395  -0.006   0.555 -2.2405 -1.6082 -0.7823
 6619TIP3   OH241491   5.344   6.419   0.899 -0.4377  0.1219  0.3400
 6619TIP3    H141492   5.421   6.440   0.951  0.4803  2.4761 -1.7556
 6619TIP3    H241493   5.358   6.329   0.870  0.5232 -0.1481  1.5517
 6620TIP3   OH241494   4.109   5.153   1.833  0.2279 -0.2898 -0.8748
 6620TIP3    H141495   4.098   5.084   1.897 -0.7790  0.0145 -0.7078
 6620TIP3    H241496   4.100   5.234   1.883 -0.2308 -0.0496 -1.3432
 6621TIP3   OH241497   4.420   4.778   0.632  0.7620  0.5099  0.1864
 6621TIP3    H141498   4.409   4.862   0.586 -0.7598  1.4564  2.1395
 6621TIP3    H241499   4.347   4.725   0.602 -1.4906  1.8540  2.8089
 6622TIP3   OH241500   5.008   4.630   0.811  0.6230  0.1978 -0.5202
 6622TIP3    H141501   5.009   4.535   0.807  2.6498  0.1592 -0.0388
 6622TIP3    H241502   5.007   4.658   0.719  1.3989 -0.3085 -0.6893
 6623TIP3   OH241503   2.868   1.850   2.574 -0.3143  0.2132  0.1466
 6623TIP3    H141504   2.875   1.761   2.541  1.5289  0.3492  0.1020
 6623TIP3    H241505   2.917   1.903   2.512  0.7765  0.8835  1.5093
 6624TIP3   OH241506   3.971   5.135   8.082 -0.7108 -0.1966  0.1984
 6624TIP3    H141507   3.968   5.222   8.043  0.9932  0.3064  1.1257
 6624TIP3    H241508   4.059   5.126   8.116 -1.6989 -1.1244  2.7752
 6625TIP3   OH241509   4.256   6.086   1.424 -0.2430  0.5098  0.4405
 6625TIP3    H141510   4.248   6.176   1.391  1.5135  0.7710  0.6696
 6625TIP3    H241511   4.173   6.071   1.471 -0.2445  2.3116  1.1121
 6626TIP3   OH241512   6.598   3.605   8.960 -0.1306 -0.3494 -0.3617
 6626TIP3    H141513   6.549   3.663   8.903 -2.0449 -1.6283 -0.1321
 6626TIP3    H241514   6.684   3.596   8.919  0.0251  2.0842 -0.7081
 6627TIP3   OH241515   0.057   0.294   2.267  0.6793  0.8571  0.4749
 6627TIP3    H141516  -0.025   0.342   2.280  0.2826 -0.2701  2.6964
 6627TIP3    H241517   0.048   0.217   2.322  2.4933 -0.2753 -0.7246
 6628TIP3   OH241518   3.437   5.202   2.302 -0.6954 -0.5828  0.2777
 6628TIP3    H141519   3.524   5.202   2.261 -0.7292  0.5253  0.1651
 6628TIP3    H241520   3.391   5.130   2.260 -0.3865 -0.1105 -0.9150
 6629TIP3   OH241521   0.350   6.061   2.387 -0.5024 -0.5370  1.1645
 6629TIP3    H141522   0.316   6.036   2.301 -0.4854  1.4334  0.5224
 6629TIP3    H241523   0.387   5.981   2.423 -2.9405 -2.0704  0.5319
 6630TIP3   OH241524   1.188   6.391   3.772  0.3481 -0.1512  0.5124
 6630TIP3    H141525   1.122   6.340   3.725 -0.6796  1.3195  0.3105
 6630TIP3    H241526   1.196   6.348   3.857 -0.9198 -0.3024  0.5638
 6631TIP3   OH241527   5.295   5.565   0.941  0.1150 -0.1714  0.7501
 6631TIP3    H141528   5.374   5.581   0.889 -0.1065 -2.2886 -0.3610
 6631TIP3    H241529   5.286   5.642   0.996  2.1400  0.7661 -0.1399
 6632TIP3   OH241530   4.828   2.103   8.748  0.2218  0.0937  0.5763
 6632TIP3    H141531   4.733   2.091   8.748  0.1368  0.6714  1.2104
 6632TIP3    H241532   4.853   2.105   8.656  0.2783 -4.7432  0.2137
 6633TIP3   OH241533   5.950   6.220   0.967 -1.0213  0.3461  0.0242
 6633TIP3    H141534   5.967   6.225   0.873 -1.4816  1.7054 -0.0061
 6633TIP3    H241535   6.030   6.182   1.004 -1.1272 -0.9254 -0.9794
 6634TIP3   OH241536   2.360   6.569   0.182 -0.2620  0.3162  0.5361
 6634TIP3    H141537   2.282   6.572   0.127  0.0650 -0.2491  0.0403
 6634TIP3    H241538   2.325   6.567   0.272 -0.8977 -1.8062  0.2940
 6635TIP3   OH241539   4.100   6.704   8.399  0.5164  0.4662 -0.4968
 6635TIP3    H141540   4.068   6.700   8.489 -0.6310  2.1181 -0.7959
 6635TIP3    H241541   4.195   6.711   8.408  0.6070 -1.3695  0.4893
 6636TIP3   OH241542   1.968   4.922   8.677  0.1480  0.4374  0.9314
 6636TIP3    H141543   2.019   4.846   8.704 -1.3012 -0.9972 -0.1494
 6636TIP3    H241544   2.029   4.995   8.683  2.0834 -1.0478  0.4449
 6637TIP3   OH241545   5.989   5.538   8.421  0.4298  0.2770  0.6524
 6637TIP3    H141546   6.016   5.498   8.503  0.9398  2.1816  1.4789
 6637TIP3    H241547   5.929   5.608   8.447  1.0536  1.2876 -0.5140
 6638TIP3   OH241548   2.481   4.890   7.845 -0.6587 -0.3815  0.5939
 6638TIP3    H141549   2.432   4.827   7.793  0.1399  0.2090 -0.9263
 6638TIP3    H241550   2.416   4.952   7.876 -1.2022 -0.9939  0.6949
 6639TIP3   OH241551   3.823   0.174   0.778  0.1290  0.0020  0.0979
 6639TIP3    H141552   3.814   0.092   0.729  0.3339 -0.2418  0.4545
 6639TIP3    H241553   3.834   0.242   0.712 -2.1425  0.0426 -0.3076
 6640TIP3   OH241554   4.276   4.488   8.068  0.2090 -0.0036  0.0728
 6640TIP3    H141555   4.197   4.467   8.017  0.1431 -0.0500  0.1922
 6640TIP3    H241556   4.320   4.557   8.019 -0.4625  0.7889  0.5533
 6641TIP3   OH241557   3.822   2.063   0.339 -0.2203  0.0687 -0.1813
 6641TIP3    H141558   3.792   2.154   0.333 -1.0270 -0.2549 -1.3774
 6641TIP3    H241559   3.792   2.034   0.425  1.4284  1.3799  0.9126
 6642TIP3   OH241560   6.731   3.133   3.102 -0.3134  0.7000  0.4988
 6642TIP3    H141561   6.653   3.160   3.152 -0.0325 -1.0221  1.9677
 6642TIP3    H241562   6.805   3.165   3.154 -0.0056  1.7322 -0.5396
 6643TIP3   OH241563   1.238   2.926   1.257 -0.0435 -0.1446  0.4637
 6643TIP3    H141564   1.188   2.882   1.188 -2.4063  0.7102  1.5251
 6643TIP3    H241565   1.328   2.895   1.244 -0.7434 -1.5613 -1.7253
 6644TIP3   OH241566   1.387   4.705   8.523  0.3619 -0.4664 -0.1331
 6644TIP3    H141567   1.475   4.706   8.560  0.9176 -0.1563 -1.4352
 6644TIP3    H241568   1.393   4.647   8.447 -0.4393 -0.0774 -0.5085
 6645TIP3   OH241569   0.972   0.986   0.960 -0.2503 -0.1798 -0.1502
 6645TIP3    H141570   0.893   0.932   0.952 -0.9718  0.4220  2.1499
 6645TIP3    H241571   0.939   1.072   0.987  1.1021  0.5605 -0.7876
 6646TIP3   OH241572   4.081   5.179   8.969 -0.0350 -0.0162 -0.1085
 6646TIP3    H141573   3.993   5.166   8.934 -0.2152  1.3998 -0.2790
 6646TIP3    H241574   4.129   5.099   8.947 -0.5897  0.1766 -2.2106
 6647TIP3   OH241575   1.193   1.029   0.299 -0.1662 -0.6049 -0.0355
 6647TIP3    H141576   1.215   0.954   0.353 -1.7152 -0.1983  1.2355
 6647TIP3    H241577   1.126   1.076   0.348 -0.7434  0.4813 -1.7417
 6648TIP3   OH241578   2.408   4.165   2.595 -0.1619 -0.5157 -0.1280
 6648TIP3    H141579   2.336   4.127   2.645 -1.2133  1.0935 -0.3269
 6648TIP3    H241580   2.440   4.236   2.650 -0.6477  0.6125 -1.2554
 6649TIP3   OH241581   2.385   5.877   0.627 -0.2916  0.2053  0.2354
 6649TIP3    H141582   2.359   5.785   0.616 -0.1205  0.0259  1.2164
 6649TIP3    H241583   2.401   5.886   0.721  1.8502  0.6565 -0.1272
 6650TIP3   OH241584   3.797   0.808   7.805  0.0921 -0.0650 -0.6343
 6650TIP3    H141585   3.812   0.901   7.820 -0.8726  0.0375 -0.1820
 6650TIP3    H241586   3.702   0.797   7.819  0.0576 -0.9563 -1.5006
 6651TIP3   OH241587   5.882   1.456   1.960  0.5799 -0.2548  0.1788
 6651TIP3    H141588   5.856   1.475   1.870  1.2437 -1.7638 -0.3672
 6651TIP3    H241589   5.969   1.495   1.968  1.1691 -1.4292 -0.3461
 6652TIP3   OH241590   4.296   2.205   8.871 -0.0308  0.2145  0.0123
 6652TIP3    H141591   4.300   2.195   8.966 -1.0258  1.3424  0.2050
 6652TIP3    H241592   4.202   2.205   8.852  0.1756 -1.0331 -1.1096
 6653TIP3   OH241593   5.621   5.548   8.756 -0.2487  0.4067  0.1173
 6653TIP3    H141594   5.530   5.563   8.731 -0.8227 -1.5316  0.8457
 6653TIP3    H241595   5.626   5.581   8.846 -0.7093 -0.9218  0.6588
 6654TIP3   OH241596   0.529   3.362   8.697 -0.0713  0.7001  0.1305
 6654TIP3    H141597   0.605   3.316   8.663 -0.6530 -0.4290  0.3010
 6654TIP3    H241598   0.526   3.338   8.790 -0.4104  1.0472  0.2150
 6655TIP3   OH241599   6.100   1.657   1.962  0.6520 -0.0220  0.0262
 6655TIP3    H141600   6.136   1.629   1.878  1.8737  1.2265  0.0848
 6655TIP3    H241601   6.171   1.708   2.002 -0.4731  0.7453  1.1130
 6656TIP3   OH241602   6.184   1.757   8.887  0.1001  0.0209 -0.1477
 6656TIP3    H141603   6.115   1.797   8.940  0.1495 -0.3718  0.2183
 6656TIP3    H241604   6.232   1.701   8.948 -0.3829 -1.1108 -0.7664
 6657TIP3   OH241605   2.352   4.242   0.778 -0.4778 -0.0332  0.0529
 6657TIP3    H141606   2.262   4.261   0.752 -0.5883 -1.3473 -0.5999
 6657TIP3    H241607   2.347   4.158   0.824  0.2122  0.6422  1.4196
 6658TIP3   OH241608   6.348   1.746   7.852  0.3467 -0.2392  0.2825
 6658TIP3    H141609   6.286   1.787   7.792  0.5726 -0.7256 -0.2943
 6658TIP3    H241610   6.380   1.669   7.805 -0.2373 -1.2148  1.4241
 6659TIP3   OH241611   0.117   2.264   8.659 -0.7037  0.1110 -0.2921
 6659TIP3    H141612   0.026   2.254   8.689 -0.8059 -1.4771 -0.9793
 6659TIP3    H241613   0.139   2.178   8.623  0.6012  0.8861 -1.4522
 6660TIP3   OH241614   1.288   2.310   2.693  0.7348  0.0066 -0.1283
 6660TIP3    H141615   1.243   2.272   2.769  1.1053  0.8741  0.5434
 6660TIP3    H241616   1.374   2.336   2.726  0.7281  0.8270 -0.7213
 6661TIP3   OH241617   1.683   1.346   1.947  0.0058 -0.4941 -0.7798
 6661TIP3    H141618   1.589   1.333   1.942  0.0199 -0.4660 -1.1355
 6661TIP3    H241619   1.715   1.330   1.858  0.1516  0.9486 -1.0261
 6662TIP3   OH241620   5.044   0.819   7.845 -0.2438  0.1219  0.2631
 6662TIP3    H141621   5.127   0.809   7.797 -0.4342  0.4784 -0.1448
 6662TIP3    H241622   4.981   0.844   7.778  0.1455  3.9796  1.1037
 6663TIP3   OH241623   4.308   1.967   2.463  0.5898  0.4290 -0.0821
 6663TIP3    H141624   4.305   1.874   2.484  1.4344  0.5115  0.4432
 6663TIP3    H241625   4.310   2.011   2.547 -0.1890  0.9483 -0.3265
 6664TIP3   OH241626   1.873   4.590   1.273 -0.2528 -0.3198 -0.4535
 6664TIP3    H141627   1.838   4.678   1.257  1.6319  0.5903  0.1014
 6664TIP3    H241628   1.845   4.570   1.363 -0.6661 -0.2785 -0.5717
 6665TIP3   OH241629   4.524   3.458   8.188  0.2996  0.4369  0.2445
 6665TIP3    H141630   4.539   3.433   8.279 -1.5932 -2.4302 -0.0852
 6665TIP3    H241631   4.580   3.399   8.137 -2.0481 -1.3253 -0.4943
 6666TIP3   OH241632   3.478   2.048   0.154  0.5918  0.1763  0.7861
 6666TIP3    H141633   3.455   2.107   0.225 -0.1985 -0.2530  0.9020
 6666TIP3    H241634   3.414   2.069   0.085 -0.7567 -1.6059  1.4206
 6667TIP3   OH241635   3.247   5.068   8.362 -0.1135 -0.0152  0.1129
 6667TIP3    H141636   3.262   5.121   8.283  0.8294  0.6841  0.7417
 6667TIP3    H241637   3.163   5.097   8.396 -0.5896 -0.4117 -0.6994
 6668TIP3   OH241638   2.002   6.749   1.894 -0.2344  0.0530  0.4698
 6668TIP3    H141639   2.052   6.671   1.871  1.7606  0.9953  1.4226
 6668TIP3    H241640   1.972   6.784   1.810 -0.1194 -1.0518 -0.0454
 6669TIP3   OH241641   1.216   5.838   1.301 -0.2332 -0.2183 -0.0094
 6669TIP3    H141642   1.124   5.862   1.310 -0.2310 -0.2944  0.2204
 6669TIP3    H241643   1.237   5.792   1.382  0.5712  1.6225  0.8939
 6670TIP3   OH241644   6.478   4.751   7.547  0.3796 -0.8447  0.3568
 6670TIP3    H141645   6.486   4.778   7.455  2.0859 -1.6611  0.2305
 6670TIP3    H241646   6.414   4.680   7.545 -1.7131  0.9237  0.2443
 6671TIP3   OH241647   3.429   1.402   0.870 -0.0621 -0.0266 -0.4115
 6671TIP3    H141648   3.420   1.317   0.826 -3.1334  0.5243 -1.0463
 6671TIP3    H241649   3.349   1.450   0.847 -0.0747  1.7356  2.7548
 6672TIP3   OH241650   0.752   0.179   1.626 -0.5680 -0.1455  0.0893
 6672TIP3    H141651   0.676   0.230   1.597 -0.0128 -0.9805 -3.2095
 6672TIP3    H241652   0.717   0.092   1.642 -0.6767  0.0516  1.0033
 6673TIP3   OH241653   5.021   4.120   1.920 -0.5947 -0.1570  0.1060
 6673TIP3    H141654   5.113   4.100   1.902 -0.5107  0.1588  0.1676
 6673TIP3    H241655   5.023   4.210   1.954 -1.1375  0.7639 -2.0732
 6674TIP3   OH241656   6.072   0.617   1.160  0.1130 -0.7893 -0.2437
 6674TIP3    H141657   5.985   0.577   1.160  0.2088 -0.9996 -0.0408
 6674TIP3    H241658   6.125   0.558   1.106  0.0619 -0.5130 -0.5959
 6675TIP3   OH241659   2.310   2.716   7.433 -0.1583  0.0613 -0.8682
 6675TIP3    H141660   2.332   2.797   7.387 -0.2125  0.5657 -0.0198
 6675TIP3    H241661   2.386   2.659   7.419  0.8971  1.0918  0.4238
 6676TIP3   OH241662   3.962   3.434   2.558  0.0115  0.2203 -0.1819
 6676TIP3    H141663   4.022   3.378   2.510  0.9023  0.1094  1.0012
 6676TIP3    H241664   3.915   3.375   2.617 -0.2509  0.4927 -0.1104
 6677TIP3   OH241665   3.834   6.262   2.256  0.2388  0.0839  0.3565
 6677TIP3    H141666   3.828   6.199   2.328 -1.6252 -1.0750 -0.7519
 6677TIP3    H241667   3.745   6.295   2.245  0.3409 -0.2428 -1.8064
 6678TIP3   OH241668   3.773   0.533   2.406  0.4054 -0.1711 -0.0524
 6678TIP3    H141669   3.795   0.450   2.448 -0.3440 -1.2383 -1.6589
 6678TIP3    H241670   3.828   0.536   2.327  0.3682  0.8351 -0.0593
 6679TIP3   OH241671   0.661   5.555   8.182  0.3117 -0.6589  0.6916
 6679TIP3    H141672   0.686   5.641   8.214  0.2653  0.0130 -0.9881
 6679TIP3    H241673   0.618   5.571   8.099  1.7989 -2.3993 -0.5054
 6680TIP3   OH241674   1.046   5.330   1.212  0.1626  0.0193  0.0777
 6680TIP3    H141675   1.107   5.399   1.239 -0.7365  0.8338  0.0680
 6680TIP3    H241676   1.080   5.251   1.255  0.7437  0.6208  0.7673
 6681TIP3   OH241677   5.596   5.959   7.966 -0.9063  0.0512  0.0464
 6681TIP3    H141678   5.669   5.899   7.986 -0.3051  0.2377 -1.4255
 6681TIP3    H241679   5.607   6.032   8.026 -0.0545 -0.0825  0.0666
 6682TIP3   OH241680   4.369   6.329   1.589 -0.0094  0.0972 -0.1221
 6682TIP3    H141681   4.332   6.250   1.628  0.2678  0.2646  0.4929
 6682TIP3    H241682   4.316   6.401   1.624  0.3557  0.2642  0.0963
 6683TIP3   OH241683   6.747   3.181   8.357 -0.0573 -0.3483 -0.0747
 6683TIP3    H141684   6.717   3.270   8.341 -1.0595 -0.7607 -0.5994
 6683TIP3    H241685   6.767   3.147   8.270  0.8668 -0.4606  0.1701
 6684TIP3   OH241686   3.021   2.599   2.959 -0.0094  0.0872 -0.2488
 6684TIP3    H141687   3.030   2.615   3.053  0.5396  0.8842 -0.4321
 6684TIP3    H241688   3.073   2.520   2.944 -1.1608 -0.8213  0.3252
 6685TIP3   OH241689   1.760   1.366   8.812 -0.0902  0.3046 -0.2457
 6685TIP3    H141690   1.734   1.455   8.786  1.5987  1.7365  2.5004
 6685TIP3    H241691   1.822   1.339   8.743 -0.1890  1.4986 -0.8302
 6686TIP3   OH241692   6.558   2.654   1.958 -0.0926  0.0911  0.2412
 6686TIP3    H141693   6.596   2.666   1.871 -0.8556  0.0805 -0.1010
 6686TIP3    H241694   6.535   2.561   1.961 -1.1317  0.3271  0.0032
 6687TIP3   OH241695   6.450   2.896   1.558 -0.5193  0.5334 -0.5765
 6687TIP3    H141696   6.544   2.879   1.555  0.5641  4.8183  1.5760
 6687TIP3    H241697   6.432   2.950   1.481 -0.4983  2.0781  0.4503
 6688TIP3   OH241698   5.787   5.691   8.126  0.2354 -0.0544  0.6950
 6688TIP3    H141699   5.773   5.751   8.199 -1.5200  0.9419 -0.3796
 6688TIP3    H241700   5.817   5.747   8.054  0.3533 -0.7420  0.2001
 6689TIP3   OH241701   1.385   5.212   7.726  0.4739 -0.2625  0.2163
 6689TIP3    H141702   1.338   5.163   7.658  2.0454  0.1314 -1.2329
 6689TIP3    H241703   1.317   5.260   7.773 -1.0088 -2.9356  0.9999
 6690TIP3   OH241704   6.240   0.473   0.991 -0.0442 -0.1157  0.2151
 6690TIP3    H141705   6.330   0.445   1.005  0.0134 -0.0003  0.0661
 6690TIP3    H241706   6.231   0.480   0.896  0.0633  0.7975  0.2684
 6691TIP3   OH241707   0.205   1.714   2.684  0.4695 -0.1642  0.4235
 6691TIP3    H141708   0.140   1.760   2.736  1.1980  1.3596  0.0466
 6691TIP3    H241709   0.249   1.656   2.746 -0.2016 -0.0787  0.9946
 6692TIP3   OH241710   5.570   4.912   8.283  0.1830  0.2668  0.6164
 6692TIP3    H141711   5.518   4.975   8.234  0.6997 -0.8053 -1.4494
 6692TIP3    H241712   5.660   4.926   8.251  0.4615 -0.7845  0.9042
 6693TIP3   OH241713   6.009   5.616   0.484  0.4569 -0.1317 -0.4740
 6693TIP3    H141714   5.922   5.626   0.446  0.0854 -1.4865 -0.0250
 6693TIP3    H241715   6.003   5.658   0.570 -0.0473 -1.0578 -0.0470
 6694TIP3   OH241716   1.030   4.864   0.297  0.0074  0.3232 -0.0993
 6694TIP3    H141717   1.101   4.900   0.350 -0.2267  0.1756  0.3237
 6694TIP3    H241718   1.056   4.773   0.282  0.0930  0.3766 -0.2666
 6695TIP3   OH241719   2.308   1.475   8.914 -0.1758 -0.4282  0.1637
 6695TIP3    H141720   2.235   1.531   8.888 -0.9404 -1.1304  0.7316
 6695TIP3    H241721   2.351   1.451   8.832  0.0105  0.7696 -0.1037
 6696TIP3   OH241722   2.713   5.005   7.102 -0.5226  0.2110 -0.0189
 6696TIP3    H141723   2.625   5.000   7.063 -0.7220  2.0901  0.1047
 6696TIP3    H241724   2.745   5.091   7.077  0.4339  0.4058  1.7459
 6697TIP3   OH241725   1.331   2.537   3.674  0.3758  0.2923  0.4197
 6697TIP3    H141726   1.422   2.531   3.647  0.2971 -0.2851  0.2608
 6697TIP3    H241727   1.318   2.461   3.731  0.2763  0.9479  1.2938
 6698TIP3   OH241728   3.652   6.426   7.360 -0.2621  0.4215  0.5966
 6698TIP3    H141729   3.658   6.517   7.332 -0.8194  0.2229 -0.1955
 6698TIP3    H241730   3.603   6.429   7.443  1.4048  1.0085  1.5962
 6699TIP3   OH241731   2.722   5.250   0.058  0.1351  0.4161  0.2206
 6699TIP3    H141732   2.780   5.209  -0.006  1.2269  1.4023  0.5380
 6699TIP3    H241733   2.692   5.330   0.016  2.0117  1.8224  1.3999
 6700TIP3   OH241734   5.889   0.706   0.034  0.1915  0.2798  0.5551
 6700TIP3    H141735   5.838   0.784   0.015  0.8268  0.5366 -0.1320
 6700TIP3    H241736   5.836   0.633   0.001  0.6122  0.6065 -0.8709
 6701TIP3   OH241737   4.064   0.421   1.609  0.4652 -0.2798 -0.1992
 6701TIP3    H141738   4.002   0.350   1.624 -0.2173  0.5085  0.8094
 6701TIP3    H241739   4.028   0.470   1.536 -0.7567  0.8523  1.1129
 6702TIP3   OH241740   6.120   4.916   1.937 -0.0891 -0.0634  0.0488
 6702TIP3    H141741   6.118   5.009   1.917 -0.7190 -0.3728 -1.4545
 6702TIP3    H241742   6.135   4.912   2.031 -0.9777  1.5693  0.2951
 6703TIP3   OH241743   2.540   3.230   2.679 -0.3603  0.0639  0.6324
 6703TIP3    H141744   2.492   3.171   2.621  2.2350 -0.1167 -1.5466
 6703TIP3    H241745   2.611   3.265   2.624  1.4307  1.0000  3.3297
 6704TIP3   OH241746   4.830   1.243   2.513  0.3391  0.2427 -0.3537
 6704TIP3    H141747   4.884   1.207   2.443  0.0023  0.2969 -0.6508
 6704TIP3    H241748   4.806   1.331   2.482  0.2997  0.3197 -0.1098
 6705TIP3   OH241749   6.434   1.999   1.227  0.0986 -0.3866 -0.2046
 6705TIP3    H141750   6.523   1.977   1.254  0.2138  0.7480  0.4247
 6705TIP3    H241751   6.406   1.925   1.173  1.9302 -0.1676 -1.5858
 6706TIP3   OH241752   5.610   1.457   8.736  0.1784 -0.0204  0.1253
 6706TIP3    H141753   5.637   1.548   8.721 -1.9069  0.5750 -0.2571
 6706TIP3    H241754   5.532   1.445   8.682 -0.7829 -1.4134  1.7092
 6707TIP3   OH241755   5.850   2.714   0.215  0.3401  0.7200 -0.3608
 6707TIP3    H141756   5.853   2.681   0.305 -1.1193  2.0446  0.2102
 6707TIP3    H241757   5.794   2.651   0.169  0.7034  0.2994 -0.2411
 6708TIP3   OH241758   5.559   2.638   3.036  0.3154 -0.8743  0.0423
 6708TIP3    H141759   5.584   2.545   3.037  1.5277 -0.5680 -0.7198
 6708TIP3    H241760   5.632   2.683   3.078 -0.1286 -0.2159  0.1274
 6709TIP3   OH241761   1.652   6.762   0.757  0.1333 -0.4148 -0.0124
 6709TIP3    H141762   1.644   6.668   0.743 -0.0450 -0.2321 -1.2463
 6709TIP3    H241763   1.595   6.780   0.832  4.2484 -2.0707  4.0197
 6710TIP3   OH241764   5.284   0.391   3.252 -0.0203 -0.2477 -0.3541
 6710TIP3    H141765   5.288   0.385   3.347  0.2065 -0.2461 -0.3621
 6710TIP3    H241766   5.376   0.385   3.224 -0.0876 -0.2595 -0.5721
 6711TIP3   OH241767   5.399   5.793   1.649  0.3490  0.7051  0.2393
 6711TIP3    H141768   5.342   5.731   1.603 -0.7851  1.4951  0.5240
 6711TIP3    H241769   5.456   5.738   1.703  0.5670 -0.1534 -0.8347
 6712TIP3   OH241770   1.407   4.599   8.020 -0.0835 -0.8816  0.4982
 6712TIP3    H141771   1.476   4.539   8.047  0.8223  0.1146  0.4476
 6712TIP3    H241772   1.331   4.543   8.004  0.7572 -2.0076  0.3798
 6713TIP3   OH241773   2.445   5.672   0.076  0.4021 -0.8405  0.1031
 6713TIP3    H141774   2.447   5.717  -0.008  0.7047  1.2991  1.1946
 6713TIP3    H241775   2.487   5.587   0.058 -2.0827 -1.6911 -2.4951
 6714TIP3   OH241776   6.464   1.217   2.310  0.0241 -0.2402  0.3940
 6714TIP3    H141777   6.435   1.159   2.380 -1.0415  0.2142  0.3412
 6714TIP3    H241778   6.428   1.179   2.230  0.5019 -0.2689  0.1842
 6715TIP3   OH241779   1.951   4.230   7.105 -0.0556 -0.7096 -0.1104
 6715TIP3    H141780   2.020   4.197   7.162 -0.2691  0.1813  0.6898
 6715TIP3    H241781   1.943   4.323   7.127 -2.3266 -1.0205  0.6867
 6716TIP3   OH241782   5.556   5.577   2.692  0.1322 -0.0743  0.4276
 6716TIP3    H141783   5.556   5.559   2.786 -2.7298  1.6401  0.8545
 6716TIP3    H241784   5.520   5.665   2.684  1.0710  0.1523 -2.2729
 6717TIP3   OH241785   5.920   2.570   1.725  0.1974 -0.4447  0.3186
 6717TIP3    H141786   6.006   2.601   1.695 -0.3110  1.5609  0.7668
 6717TIP3    H241787   5.876   2.543   1.644  1.0799 -1.1018  0.0357
 6718TIP3   OH241788   5.724   0.105   2.479  0.3357 -0.8312 -0.2442
 6718TIP3    H141789   5.631   0.124   2.489 -0.0824 -2.7279 -0.1150
 6718TIP3    H241790   5.755   0.085   2.567  1.1604  0.8397 -0.1139
 6719TIP3   OH241791   5.841   1.378   0.586  0.1709  0.5283  0.2582
 6719TIP3    H141792   5.869   1.319   0.656 -1.6189  0.2193  0.7576
 6719TIP3    H241793   5.861   1.330   0.506  1.9328  0.7424  0.5133
 6720TIP3   OH241794   3.975   4.523   0.302 -0.8638  0.0617  0.2125
 6720TIP3    H141795   4.065   4.554   0.291 -0.7432 -0.1896  0.4862
 6720TIP3    H241796   3.949   4.552   0.389 -1.1254  0.3220  0.0495
 6721TIP3   OH241797   6.752   1.431   8.749 -0.2858  0.4152 -0.1256
 6721TIP3    H141798   6.768   1.354   8.804  0.0799  0.3572 -0.3120
 6721TIP3    H241799   6.835   1.447   8.705 -0.6730  0.2350 -0.9534
 6722TIP3   OH241800   6.626   0.609   0.667 -0.2624  0.2351 -0.3151
 6722TIP3    H141801   6.702   0.567   0.626 -0.7706 -1.1391  0.1120
 6722TIP3    H241802   6.631   0.700   0.637 -0.5252 -0.6205 -3.3628
 6723TIP3   OH241803   1.506   2.148   1.798  0.6980 -0.9313  1.1569
 6723TIP3    H141804   1.543   2.063   1.775  0.0762 -0.7852 -0.5002
 6723TIP3    H241805   1.428   2.156   1.743  0.5568  0.5635  1.5272
 6724TIP3   OH241806   4.024   2.574   1.791  0.4093 -0.1436  0.1464
 6724TIP3    H141807   4.004   2.488   1.828 -0.4690 -0.7497 -1.6536
 6724TIP3    H241808   4.090   2.556   1.724  0.7601  0.6977  0.2628
 6725TIP3   OH241809   2.190   6.786   1.422 -0.0217  0.3597 -0.0781
 6725TIP3    H141810   2.142   6.842   1.361  0.5096 -0.6954 -1.5186
 6725TIP3    H241811   2.145   6.701   1.417 -0.2601  0.3788  1.3863
 6726TIP3   OH241812   0.130   4.016   8.781 -0.3840 -0.3679  0.3149
 6726TIP3    H141813   0.154   4.024   8.688  0.8731  0.8786  0.7078
 6726TIP3    H241814   0.070   4.088   8.797 -1.5561 -1.3042  0.2043
 6727TIP3   OH241815   1.447   1.858   1.553 -0.3725 -0.1060 -0.1045
 6727TIP3    H141816   1.361   1.820   1.569  0.3558 -2.1050 -0.6328
 6727TIP3    H241817   1.460   1.848   1.459 -0.8547  3.1655 -0.6289
 6728TIP3   OH241818   4.624   6.315   7.643  0.5822  0.4130 -0.3065
 6728TIP3    H141819   4.548   6.348   7.596  0.1380  1.9766  1.4289
 6728TIP3    H241820   4.592   6.295   7.731  2.1791  1.2245  0.5081
 6729TIP3   OH241821   5.246   3.049   7.842 -0.0986  0.0598  0.3130
 6729TIP3    H141822   5.242   3.114   7.771 -0.4976 -2.1625 -1.8487
 6729TIP3    H241823   5.155   3.036   7.867 -0.2065 -0.8257 -0.4624
 6730TIP3   OH241824   2.911   1.682   3.889  0.3014  0.2906 -0.4188
 6730TIP3    H141825   2.996   1.638   3.891 -0.5184 -1.3902  1.3169
 6730TIP3    H241826   2.914   1.737   3.811  2.7515 -0.1388 -0.7194
 6731TIP3   OH241827   5.271   2.974   2.254  0.5499  0.0390  0.1672
 6731TIP3    H141828   5.204   3.011   2.312 -0.5464  0.1763 -1.1616
 6731TIP3    H241829   5.354   3.005   2.292 -0.1479  0.3584  1.4968
 6732TIP3   OH241830   4.561   2.067   8.734 -0.0303  0.2363  0.2298
 6732TIP3    H141831   4.484   2.043   8.785  0.4709 -0.0832  0.8367
 6732TIP3    H241832   4.526   2.091   8.648 -0.8425  0.4840  0.6254
 6733TIP3   OH241833   3.567   5.683   0.669  0.1864  0.4788  0.1082
 6733TIP3    H141834   3.482   5.643   0.652  0.4574 -0.2485  0.4320
 6733TIP3    H241835   3.568   5.698   0.764  0.2132  0.9765  0.0341
 6734TIP3   OH241836   2.062   2.455   8.470  0.0437 -0.3478 -0.0246
 6734TIP3    H141837   2.099   2.495   8.549  0.5399 -0.2388 -0.3070
 6734TIP3    H241838   2.105   2.369   8.464  0.4731 -0.1086 -0.5071
 6735TIP3   OH241839   1.504   4.720   0.684 -0.0394 -0.1926 -0.3211
 6735TIP3    H141840   1.568   4.786   0.708 -0.6192  0.4245 -0.4452
 6735TIP3    H241841   1.485   4.674   0.766  0.0408  0.0779 -0.1501
 6736TIP3   OH241842   3.041   0.043   2.866 -0.3253 -0.2129  0.0375
 6736TIP3    H141843   2.967   0.085   2.910  0.0500 -0.5527  1.0058
 6736TIP3    H241844   3.022  -0.050   2.870 -0.3508 -0.2415 -0.6474
 6737TIP3   OH241845   0.837   4.578   0.891  0.2920  0.1876 -0.4088
 6737TIP3    H141846   0.751   4.556   0.926 -0.2035  0.5816 -1.3399
 6737TIP3    H241847   0.837   4.674   0.886  0.2742  0.1412 -1.6032
 6738TIP3   OH241848   5.008   3.009   2.071  0.1361 -0.2582  0.1451
 6738TIP3    H141849   5.090   3.031   2.115  0.4629 -0.6059 -0.2790
 6738TIP3    H241850   5.017   2.917   2.048 -0.2324 -0.2103 -0.2126
 6739TIP3   OH241851   1.782   6.479   3.574  0.6021  0.0789  0.6521
 6739TIP3    H141852   1.868   6.438   3.586 -0.6186 -2.6192  0.8935
 6739TIP3    H241853   1.748   6.440   3.494 -0.9175  0.1018  1.2565
 6740TIP3   OH241854   2.894   6.356   3.043  0.4046  0.0179 -0.2700
 6740TIP3    H141855   2.812   6.336   2.999 -0.5447  2.7610  0.0013
 6740TIP3    H241856   2.889   6.311   3.127 -1.2187  0.7289  0.0467
 6741TIP3   OH241857   4.708   0.426   8.885  0.0246  0.4229  0.0100
 6741TIP3    H141858   4.675   0.415   8.796 -1.9891  0.6721  0.6855
 6741TIP3    H241859   4.635   0.464   8.933  0.8122 -0.4245  1.9647
 6742TIP3   OH241860   4.209   1.814   2.783 -0.0026  0.4098  0.2171
 6742TIP3    H141861   4.261   1.753   2.836 -0.8102 -1.5851 -1.1978
 6742TIP3    H241862   4.237   1.798   2.693  1.3271  3.7231 -0.1296
 6743TIP3   OH241863   4.468   5.368   8.215 -0.0803 -0.1118 -0.6101
 6743TIP3    H141864   4.474   5.309   8.290 -1.9934  0.3246 -0.0655
 6743TIP3    H241865   4.477   5.456   8.253  0.4299  0.0620 -1.1125
 6744TIP3   OH241866   1.422   2.472   2.918  0.3609 -0.0430 -0.0147
 6744TIP3    H141867   1.384   2.474   3.006  0.1725 -0.3493 -0.0880
 6744TIP3    H241868   1.467   2.388   2.913 -0.9097 -0.6932 -0.7454
 6745TIP3   OH241869   4.296   4.568   7.209 -0.3823 -0.1963  0.0278
 6745TIP3    H141870   4.372   4.625   7.204  1.0128 -2.0522 -1.5270
 6745TIP3    H241871   4.329   4.488   7.250 -1.6715 -0.7778 -0.0163
 6746TIP3   OH241872   1.513   6.089   2.480 -0.3786  0.8489 -0.0510
 6746TIP3    H141873   1.493   6.182   2.488 -0.9652  0.8557 -1.2567
 6746TIP3    H241874   1.430   6.049   2.454 -0.9912 -0.5384  3.4585
 6747TIP3   OH241875   4.212   5.383   7.737  0.5307 -0.4158 -0.2109
 6747TIP3    H141876   4.244   5.444   7.671  1.7144 -2.0125 -1.2019
 6747TIP3    H241877   4.158   5.321   7.687  1.6042 -1.7640  0.2432
 6748TIP3   OH241878   0.308   6.644   2.903  0.0054  0.3074  0.0714
 6748TIP3    H141879   0.284   6.597   2.982  0.4145  1.4914  0.9243
 6748TIP3    H241880   0.229   6.695   2.880  0.1069  0.4778  0.0989
 6749TIP3   OH241881   0.768   3.745   0.628  1.0270 -0.5361  0.5491
 6749TIP3    H141882   0.735   3.708   0.710  0.8291 -1.3856  0.0928
 6749TIP3    H241883   0.738   3.836   0.629  3.3024  0.3317  2.6922
 6750TIP3   OH241884   0.990   4.100   8.785  0.0990 -0.2628 -1.0078
 6750TIP3    H141885   0.995   4.019   8.734  1.7173 -0.2711 -0.8894
 6750TIP3    H241886   1.080   4.113   8.817 -1.0514 -1.1860  3.2631
 6751TIP3   OH241887   1.001   0.288   1.650  0.0378 -0.2046 -0.0424
 6751TIP3    H141888   0.918   0.241   1.662  0.1667 -0.5439 -0.4619
 6751TIP3    H241889   0.977   0.366   1.599 -0.5593  1.3870  2.5110
 6752TIP3   OH241890   1.343   2.689   2.783  0.4980  0.4865 -0.0785
 6752TIP3    H141891   1.248   2.676   2.775  0.5822  0.2711 -0.7561
 6752TIP3    H241892   1.372   2.620   2.843  0.1950  0.7100  0.3350
 6753TIP3   OH241893   1.774   3.224   8.080  0.0573 -0.7350 -0.2298
 6753TIP3    H141894   1.847   3.201   8.137 -0.7053  0.2074  1.1812
 6753TIP3    H241895   1.770   3.320   8.083 -2.4075 -0.7964  1.3251
 6754TIP3   OH241896   2.972   3.482   0.494  0.1847 -0.0791  0.2401
 6754TIP3    H141897   2.981   3.540   0.418 -0.8884  1.0310  0.9250
 6754TIP3    H241898   3.047   3.504   0.549 -1.0448  1.8793  1.2418
 6755TIP3   OH241899   3.439   6.111   0.291  0.2682  0.0975  0.2751
 6755TIP3    H141900   3.368   6.149   0.240 -0.6924 -0.9003  0.8211
 6755TIP3    H241901   3.429   6.147   0.379  1.1264  0.8098  0.0903
 6756TIP3   OH241902   1.448   1.058   8.617 -0.2607 -0.0675 -0.9098
 6756TIP3    H141903   1.454   0.969   8.582 -0.9862  0.1851 -1.7031
 6756TIP3    H241904   1.532   1.072   8.661 -0.6849 -1.6707  0.5248
 6757TIP3   OH241905   0.662   1.344   0.719  0.3006 -0.2899  0.0666
 6757TIP3    H141906   0.592   1.288   0.684 -0.9312  1.3502 -0.2114
 6757TIP3    H241907   0.629   1.373   0.804  0.7971  0.2233  0.0875
 6758TIP3   OH241908   6.406   3.792   8.773 -0.4066 -0.0431  0.0029
 6758TIP3    H141909   6.359   3.747   8.702  1.6665 -1.6163 -0.4929
 6758TIP3    H241910   6.370   3.754   8.853  0.4101 -1.7730 -0.3857
 6759TIP3   OH241911   5.034   6.201   1.847  0.3862 -0.0013  0.2958
 6759TIP3    H141912   5.015   6.282   1.895  0.7522  0.4601 -0.3188
 6759TIP3    H241913   5.127   6.207   1.827  0.0440  0.3081 -1.3325
 6760TIP3   OH241914   6.589   1.594   2.953  0.0195  0.0133 -0.5765
 6760TIP3    H141915   6.508   1.544   2.962  0.2539 -0.0933  1.3649
 6760TIP3    H241916   6.586   1.658   3.025  2.3548 -1.0340  0.5573
 6761TIP3   OH241917   3.713   2.651   2.468 -0.4934 -0.4553  0.3124
 6761TIP3    H141918   3.756   2.620   2.389  0.1498  0.3076  0.3497
 6761TIP3    H241919   3.780   2.700   2.514 -1.0012 -0.4862  1.0972
 6762TIP3   OH241920   2.597   2.366   3.419  0.4276 -0.0075 -0.4596
 6762TIP3    H141921   2.655   2.301   3.379  1.1111  1.3043 -1.6868
 6762TIP3    H241922   2.519   2.317   3.443  1.7210 -1.6804  0.5460
 6763TIP3   OH241923   3.459   5.831   2.307 -0.1160  0.1673 -0.3620
 6763TIP3    H141924   3.430   5.879   2.230 -1.1299  0.3004  0.0912
 6763TIP3    H241925   3.387   5.770   2.326  1.6004 -2.4361 -1.6489
 6764TIP3   OH241926   1.881   0.385   8.139  0.0105  0.2386 -0.1917
 6764TIP3    H141927   1.798   0.374   8.093  0.1481 -0.7832 -0.2170
 6764TIP3    H241928   1.947   0.351   8.078  0.1602 -1.4261  0.8240
 6765TIP3   OH241929   3.314   2.423   8.239  0.5698 -0.4197  0.1926
 6765TIP3    H141930   3.245   2.430   8.173  0.0665 -0.7181  0.6858
 6765TIP3    H241931   3.395   2.429   8.188  0.1928  0.3312 -0.3477
 6766TIP3   OH241932   3.011   3.687   2.503  0.5221 -0.2957  0.1495
 6766TIP3    H141933   2.988   3.596   2.519  0.0982 -0.1817  0.1969
 6766TIP3    H241934   3.052   3.717   2.584 -0.9561  0.0693  0.7895
 6767TIP3   OH241935   6.093   2.766   1.603  0.2302  0.9935  0.2993
 6767TIP3    H141936   6.063   2.753   1.513 -0.9230 -2.6113  1.0536
 6767TIP3    H241937   6.022   2.817   1.644 -1.1060 -0.5306  0.0064
 6768TIP3   OH241938   0.105   2.108   2.245 -0.1789  0.0415  0.0488
 6768TIP3    H141939   0.105   2.033   2.305  1.3643  0.9180  1.2252
 6768TIP3    H241940   0.158   2.079   2.171  0.4325 -0.0533  0.5077
 6769TIP3   OH241941   3.799   2.015   1.086 -0.7956 -0.1169  0.1049
 6769TIP3    H141942   3.791   2.106   1.058 -2.1734 -0.0542  0.6062
 6769TIP3    H241943   3.815   2.021   1.180 -1.0486 -0.3955  0.1649
 6770TIP3   OH241944   2.060   4.942   1.694 -0.1852 -0.4955 -0.5194
 6770TIP3    H141945   2.097   4.858   1.724 -1.5336 -0.4584  1.3967
 6770TIP3    H241946   1.986   4.958   1.753 -1.7739  0.6182 -2.6934
 6771TIP3   OH241947   1.713   0.582   8.472 -0.3978 -0.1173  0.3804
 6771TIP3    H141948   1.660   0.529   8.412  1.9110 -1.1970 -0.8306
 6771TIP3    H241949   1.666   0.665   8.478 -0.8229  0.0229 -2.9282
 6772TIP3   OH241950   6.107   1.814   0.954  0.7468  0.6019 -0.2003
 6772TIP3    H141951   6.027   1.790   0.907  0.3603  0.7396  0.3761
 6772TIP3    H241952   6.085   1.802   1.046  1.0733  1.5859  0.0220
 6773TIP3   OH241953   4.404   4.550   2.132  0.0936  0.0364  0.1464
 6773TIP3    H141954   4.414   4.480   2.197  1.8130  0.1387  0.0280
 6773TIP3    H241955   4.455   4.520   2.056 -3.4594 -1.0387 -2.0629
 6774TIP3   OH241956   0.412   2.696   8.459 -0.9524  0.4525  0.3262
 6774TIP3    H141957   0.458   2.681   8.376 -0.3332  3.7408 -0.0440
 6774TIP3    H241958   0.357   2.618   8.470  1.7772 -1.9031 -1.1486
 6775TIP3   OH241959   4.020   3.239   8.653 -0.5475 -0.1872  0.2113
 6775TIP3    H141960   3.970   3.158   8.650  1.0756 -1.1870 -1.9983
 6775TIP3    H241961   4.079   3.235   8.577  0.9956  2.1387  1.1570
 6776TIP3   OH241962   4.714   1.459   8.567 -0.2115 -0.0010  0.1216
 6776TIP3    H141963   4.627   1.456   8.527 -0.7517 -2.7626  1.2834
 6776TIP3    H241964   4.770   1.498   8.500 -2.1013  0.7619 -1.0952
 6777TIP3   OH241965   2.367   5.360   1.921 -0.2449  0.8055  0.3722
 6777TIP3    H141966   2.357   5.428   1.854 -1.8389  0.8648  0.6242
 6777TIP3    H241967   2.350   5.278   1.874 -0.1348  0.7385  0.4491
 6778TIP3   OH241968   6.536   0.974   8.896  0.2835  0.7772  0.5831
 6778TIP3    H141969   6.443   0.959   8.880 -0.4915  1.2068  3.9787
 6778TIP3    H241970   6.549   0.954   8.989  3.2933  2.1270  0.5914
 6779TIP3   OH241971   3.705   1.576   3.125 -0.3769  0.2527  0.2268
 6779TIP3    H141972   3.767   1.556   3.054 -0.7343  1.6381 -0.5133
 6779TIP3    H241973   3.733   1.662   3.157 -0.9557  0.1722  0.9709
 6780TIP3   OH241974   3.316   5.643   2.477  0.1484 -0.6055 -0.1611
 6780TIP3    H141975   3.373   5.609   2.545 -0.1199 -0.3909  0.1733
 6780TIP3    H241976   3.287   5.565   2.429  0.3862 -0.7497 -0.0753
 6781TIP3   OH241977   2.742   6.756   8.135  0.2247 -0.3033  0.1138
 6781TIP3    H141978   2.706   6.732   8.049  0.7032  0.1979 -0.2341
 6781TIP3    H241979   2.822   6.705   8.143  0.4371  0.0132  0.0423
 6782TIP3   OH241980   0.134   1.206   0.781  0.0637 -0.3331 -0.2939
 6782TIP3    H141981   0.203   1.159   0.827  1.0104  0.5252 -0.7961
 6782TIP3    H241982   0.054   1.184   0.828  0.4034 -2.7122 -0.7164
 6783TIP3   OH241983   3.348   5.517   1.295  0.1318 -0.0807 -0.0371
 6783TIP3    H141984   3.255   5.499   1.305 -0.6182  1.5742 -2.9867
 6783TIP3    H241985   3.359   5.607   1.324  0.0231  0.9329 -2.8069
 6784TIP3   OH241986   2.584   1.595   0.638 -0.4048 -0.2162  0.2295
 6784TIP3    H141987   2.533   1.638   0.569  0.6032  1.2096  0.3298
 6784TIP3    H241988   2.530   1.603   0.716 -1.3878 -1.5073 -0.2885
 6785TIP3   OH241989   2.326   4.952   2.370 -0.0262 -0.2560  0.1919
 6785TIP3    H141990   2.246   4.941   2.319  0.4965 -1.8138 -0.3540
 6785TIP3    H241991   2.358   4.863   2.385  1.0941  0.2767  1.2417
 6786TIP3   OH241992   3.154   6.400   8.933  0.1995 -0.3782  0.0368
 6786TIP3    H141993   3.091   6.405   8.861 -0.9776 -1.3179  0.9822
 6786TIP3    H241994   3.135   6.478   8.986 -1.0169 -1.2914  0.9805
 6787TIP3   OH241995   0.907   6.207   2.674  0.1420  0.1062 -0.4086
 6787TIP3    H141996   0.922   6.245   2.588  0.2321 -1.0045 -0.9008
 6787TIP3    H241997   0.969   6.252   2.731  0.6344  0.2997 -1.0821
 6788TIP3   OH241998   5.264   3.201   7.592 -0.0195 -0.0985 -0.1972
 6788TIP3    H141999   5.306   3.210   7.506  1.5726 -0.3230  0.5182
 6788TIP3    H242000   5.205   3.276   7.598 -0.7469 -0.5025 -1.7897
 6789TIP3   OH242001   4.929   2.124   0.459  0.0754 -0.7408 -0.1633
 6789TIP3    H142002   5.004   2.181   0.448 -3.1062  3.8618 -0.6787
 6789TIP3    H242003   4.912   2.089   0.371  0.5195 -0.2930 -0.4287
 6790TIP3   OH242004   5.319   1.570   2.819  0.3351  0.2209  0.3569
 6790TIP3    H142005   5.282   1.615   2.743 -0.5852 -0.6812  0.2478
 6790TIP3    H242006   5.283   1.615   2.895  0.2263  0.3025  0.2565
 6791TIP3   OH242007   1.346   3.753   0.604  0.0126 -0.2931  0.0519
 6791TIP3    H142008   1.297   3.823   0.561  0.2224 -1.7616 -2.8640
 6791TIP3    H242009   1.279   3.695   0.640 -0.5451 -1.5763 -2.7358
 6792TIP3   OH242010   3.508   0.753   0.494  1.0568 -0.6485  0.6206
 6792TIP3    H142011   3.529   0.840   0.460  0.7691 -0.4505  0.9407
 6792TIP3    H242012   3.592   0.718   0.522  1.0073  0.0716  1.7398
 6793TIP3   OH242013   4.373   0.990   1.360  0.5655 -0.5981  0.3890
 6793TIP3    H142014   4.312   0.965   1.291  1.2877 -1.4055  0.0120
 6793TIP3    H242015   4.455   1.010   1.314  0.2810  1.6814  0.7635
 6794TIP3   OH242016   0.486   0.970   1.056  0.2730 -0.4750  0.1012
 6794TIP3    H142017   0.473   0.881   1.088 -1.3308 -0.8504 -1.4352
 6794TIP3    H242018   0.462   1.026   1.129 -0.8687 -1.3050  0.3824
 6795TIP3   OH242019   0.409   0.752   0.109  0.5903 -0.2943 -0.6010
 6795TIP3    H142020   0.431   0.740   0.202  0.6747  1.1569 -0.4148
 6795TIP3    H242021   0.404   0.663   0.074 -1.2564 -0.9858  1.2173
 6796TIP3   OH242022   4.760   2.718   3.276 -0.5353 -0.1623  0.0175
 6796TIP3    H142023   4.759   2.623   3.260  0.5442 -0.0038 -1.0774
 6796TIP3    H242024   4.702   2.754   3.209 -0.1136  0.0398 -0.2431
 6797TIP3   OH242025   4.745   0.383   8.484  0.1456  0.0405 -0.1052
 6797TIP3    H142026   4.835   0.387   8.517 -0.0849 -0.4944  0.6219
 6797TIP3    H242027   4.691   0.407   8.560 -0.3291  0.3102 -0.5238
 6798TIP3   OH242028   5.704   6.295   0.827  0.1800 -0.1454 -0.1250
 6798TIP3    H142029   5.758   6.244   0.768  1.3589  0.6408  0.2270
 6798TIP3    H242030   5.632   6.237   0.851 -0.5570 -0.3604 -2.6004
 6799TIP3   OH242031   2.412   2.933   7.293  0.6575  0.8878  0.3387
 6799TIP3    H142032   2.451   2.995   7.354 -1.1284  2.2307  0.2001
 6799TIP3    H242033   2.385   2.986   7.219  0.2537 -0.2700 -0.3693
 6800TIP3   OH242034   0.745   3.880   7.755 -0.5825  0.6958 -0.2837
 6800TIP3    H142035   0.756   3.971   7.783 -0.5596  0.7872 -0.5909
 6800TIP3    H242036   0.735   3.885   7.660 -0.8116  0.3965 -0.2760
 6801TIP3   OH242037   3.281   6.132   1.948 -0.5370  0.1249  0.2160
 6801TIP3    H142038   3.215   6.201   1.954 -0.6242  0.1529 -0.9274
 6801TIP3    H242039   3.332   6.154   1.870  0.5774 -0.1204  0.8506
 6802TIP3   OH242040   3.237   3.256   8.666 -0.4102  0.4800  0.5154
 6802TIP3    H142041   3.202   3.191   8.605 -0.0883  1.8301 -1.1874
 6802TIP3    H242042   3.171   3.326   8.667  0.5133  1.3888  0.1174
 6803TIP3   OH242043   4.588   4.576   0.716 -0.5977 -0.4521 -0.0891
 6803TIP3    H142044   4.556   4.662   0.688 -0.3420 -0.5836 -0.8137
 6803TIP3    H242045   4.681   4.577   0.696 -0.3366 -0.4386  1.0798
 6804TIP3   OH242046   2.286   0.606   8.637 -0.9149  0.4868  0.5550
 6804TIP3    H142047   2.205   0.566   8.606 -0.8641 -1.0541  2.2588
 6804TIP3    H242048   2.260   0.693   8.668 -1.6929  0.4482  0.0311
 6805TIP3   OH242049   1.888   6.440   1.627 -0.2869  0.5419  0.8813
 6805TIP3    H142050   1.939   6.456   1.548  0.7960  0.8579  1.6212
 6805TIP3    H242051   1.798   6.463   1.603  0.4273  3.3656  0.5116
 6806TIP3   OH242052   4.620   4.004   1.120  0.0289 -0.1294  0.0458
 6806TIP3    H142053   4.711   4.006   1.149  0.2075  0.7344 -0.5360
 6806TIP3    H242054   4.600   4.095   1.096 -1.6446  0.1296  2.1288
 6807TIP3   OH242055   6.761   4.558   1.834  0.3154 -0.3004 -0.0291
 6807TIP3    H142056   6.688   4.512   1.874 -0.2742  0.5002 -0.1437
 6807TIP3    H242057   6.738   4.651   1.841  0.9571 -0.0678 -0.7572
 6808TIP3   OH242058   3.059   1.105   0.172 -0.8769 -0.3902  0.5618
 6808TIP3    H142059   2.983   1.161   0.155  0.5737  1.4639 -0.2567
 6808TIP3    H242060   3.049   1.077   0.263 -1.1538  2.1310  1.3744
 6809TIP3   OH242061   6.777   2.525   2.322  0.0901 -0.2324  0.0604
 6809TIP3    H142062   6.703   2.465   2.317 -0.3262  0.3551 -1.2173
 6809TIP3    H242063   6.743   2.608   2.289  0.9192  0.4489  0.8660
 6810TIP3   OH242064   0.850   5.809   1.177 -0.2124  0.0290 -0.1012
 6810TIP3    H142065   0.922   5.853   1.221 -0.5484  0.5342 -0.0451
 6810TIP3    H242066   0.772   5.835   1.227 -0.2023 -2.3718  1.2922
 6811TIP3   OH242067   6.106   2.782   0.224 -0.1442  0.3416 -0.0200
 6811TIP3    H142068   6.133   2.844   0.156  0.3002 -0.7918 -0.9190
 6811TIP3    H242069   6.016   2.760   0.201 -0.0802  0.1556 -0.0934
 6812TIP3   OH242070   5.642   6.255   2.772  0.3565  0.3698 -0.2600
 6812TIP3    H142071   5.612   6.320   2.835  1.3011 -0.1958  0.8279
 6812TIP3    H242072   5.643   6.173   2.821  0.9439 -0.1241 -1.0667
 6813TIP3   OH242073   2.173   3.764   8.958  0.3978 -0.7848 -0.0100
 6813TIP3    H142074   2.159   3.756   8.864 -0.0008  2.3708 -0.3020
 6813TIP3    H242075   2.185   3.673   8.988 -1.7328 -2.0956 -2.7018
 6814TIP3   OH242076   6.391   4.840   8.563  0.0819  0.1942  0.1118
 6814TIP3    H142077   6.483   4.834   8.589 -0.1400 -1.5170  0.6322
 6814TIP3    H242078   6.381   4.772   8.497 -0.9854 -0.1580  0.6181
 6815TIP3   OH242079   2.091   2.159   2.562  0.2200  0.1488  0.7151
 6815TIP3    H142080   2.144   2.192   2.635 -0.7172  0.6439  1.1942
 6815TIP3    H242081   2.008   2.133   2.602 -0.9095  1.8679 -0.3482
 6816TIP3   OH242082   5.271   3.369   8.286 -0.6381  0.2430 -0.2396
 6816TIP3    H142083   5.300   3.317   8.361  4.1468  3.1412  0.3708
 6816TIP3    H242084   5.248   3.305   8.219  2.7839 -2.7345  1.1260
 6817TIP3   OH242085   6.627   3.324   8.705  0.3677  0.3623 -0.0590
 6817TIP3    H142086   6.696   3.359   8.762  2.4458  0.0752 -2.2150
 6817TIP3    H242087   6.624   3.384   8.631 -1.1971 -0.0557 -0.3591
 6818TIP3   OH242088   3.523   2.419   8.062 -0.0920 -0.4588 -0.0231
 6818TIP3    H142089   3.573   2.338   8.048 -1.5999 -1.2184 -1.3411
 6818TIP3    H242090   3.555   2.478   7.993 -0.2936 -0.5814 -0.2215
 6819TIP3   OH242091   6.217   3.960   7.129  0.0909 -0.0428  0.0333
 6819TIP3    H142092   6.168   4.029   7.084 -0.1219 -0.2263 -0.0142
 6819TIP3    H242093   6.158   3.928   7.197 -0.7461 -1.8037 -1.4259
 6820TIP3   OH242094   2.579   1.937   1.272 -0.4139 -0.2080 -0.1071
 6820TIP3    H142095   2.536   1.862   1.230 -0.2052 -1.1615  1.3265
 6820TIP3    H242096   2.652   1.899   1.321  0.0652  1.0162  0.1655
 6821TIP3   OH242097   4.981   4.248   2.237 -0.1586 -0.4217 -0.1537
 6821TIP3    H142098   5.059   4.293   2.269 -0.4112  0.9673 -1.3660
 6821TIP3    H242099   4.917   4.318   2.223 -1.1622 -1.3772 -0.4629
 6822TIP3   OH242100   5.734   5.733   7.821  0.1037 -0.6247  0.0536
 6822TIP3    H142101   5.641   5.750   7.805  0.1136  1.1007  1.4873
 6822TIP3    H242102   5.779   5.772   7.746 -0.1777  2.0837  1.1444
 6823TIP3   OH242103   1.654   0.317   8.647 -0.7318 -0.1201 -0.2496
 6823TIP3    H142104   1.669   0.297   8.554 -0.3416  2.3159 -0.7768
 6823TIP3    H242105   1.635   0.232   8.686  0.1243 -1.3775 -2.3458
 6824TIP3   OH242106   5.920   4.325   3.062  0.2050 -0.5418  0.1669
 6824TIP3    H142107   5.878   4.290   2.984  0.1878  0.9834 -0.5366
 6824TIP3    H242108   6.011   4.340   3.036  0.0593  0.5331  0.2290
 6825TIP3   OH242109   2.998   6.403   8.698  1.0610 -0.1393 -0.4864
 6825TIP3    H142110   3.052   6.401   8.619  0.2415  0.0575 -1.0656
 6825TIP3    H242111   2.916   6.443   8.670  0.8359  0.1373  0.5227
 6826TIP3   OH242112   1.295   2.763   7.623 -0.1044  0.3590 -0.4047
 6826TIP3    H142113   1.322   2.715   7.545  1.1571  0.3839 -0.0098
 6826TIP3    H242114   1.211   2.802   7.599 -0.3905 -0.7323 -1.2751
 6827TIP3   OH242115   3.601   4.749   0.380 -0.2734  0.0054 -0.1725
 6827TIP3    H142116   3.570   4.812   0.445  1.7596  1.1790 -0.2566
 6827TIP3    H242117   3.628   4.673   0.433  0.1292  0.4250  0.2365
 6828TIP3   OH242118   3.640   5.619   8.883 -0.1632 -0.3396  0.2931
 6828TIP3    H142119   3.652   5.695   8.825 -0.3436  1.3019  2.2740
 6828TIP3    H242120   3.645   5.543   8.825 -0.8266  1.2065 -1.9216
 6829TIP3   OH242121   1.379   5.529   2.223 -0.1248  0.2484 -0.3555
 6829TIP3    H142122   1.284   5.526   2.214  0.0036 -1.3668 -1.5408
 6829TIP3    H242123   1.409   5.445   2.187  1.6827  0.3424  0.8284
 6830TIP3   OH242124   3.692   2.749   8.287 -0.0585  0.4599 -0.3567
 6830TIP3    H142125   3.662   2.815   8.349  2.1159  0.8556  0.3347
 6830TIP3    H242126   3.759   2.794   8.235  0.2421 -0.7297 -1.0233
 6831TIP3   OH242127   5.889   0.080   7.374  0.4216  0.2773 -0.0148
 6831TIP3    H142128   5.862   0.127   7.453  0.9264  0.9827 -0.2552
 6831TIP3    H242129   5.984   0.085   7.375  0.4395  0.0375 -0.5165
 6832TIP3   OH242130   1.628   0.528   2.182 -0.2142  0.6152  0.6009
 6832TIP3    H142131   1.539   0.539   2.214 -0.0383 -1.7440  2.1498
 6832TIP3    H242132   1.642   0.602   2.122 -4.1566 -0.4176 -1.9482
 6833TIP3   OH242133   4.666   1.059   0.500  0.1042 -0.1102 -0.6964
 6833TIP3    H142134   4.693   1.005   0.425  1.7367 -0.0603 -0.1925
 6833TIP3    H242135   4.720   1.138   0.494  0.1493 -0.0333  0.4238
 6834TIP3   OH242136   4.427   3.462   0.582 -0.8692 -0.3466  0.2302
 6834TIP3    H142137   4.496   3.398   0.563 -1.6652 -1.4490  0.9420
 6834TIP3    H242138   4.443   3.488   0.672 -0.3388  0.7675 -0.1615
 6835TIP3   OH242139   0.400   2.428   8.408  0.1317 -0.2570  0.2400
 6835TIP3    H142140   0.398   2.340   8.369 -0.9013 -0.1975  0.1308
 6835TIP3    H242141   0.492   2.454   8.403  0.2874 -0.9127 -0.6856
 6836TIP3   OH242142   6.450   5.649   2.638  0.0013  0.5104 -0.0233
 6836TIP3    H142143   6.440   5.699   2.719 -0.5048 -0.0195  0.2495
 6836TIP3    H242144   6.363   5.650   2.599  0.1077  0.2783 -0.2669
 6837TIP3   OH242145   5.416   3.159   1.291  0.2048 -0.2621 -0.4352
 6837TIP3    H142146   5.342   3.176   1.350  0.4358  0.8704 -0.4541
 6837TIP3    H242147   5.493   3.179   1.344  0.4004  1.4803 -1.3102
 6838TIP3   OH242148   2.221   4.278   1.650  0.2487  0.5063  0.1933
 6838TIP3    H142149   2.255   4.365   1.630  0.1714  0.5079  0.0678
 6838TIP3    H242150   2.268   4.251   1.728 -0.3662  1.0315  0.7544
 6839TIP3   OH242151   0.338   2.072   3.308  0.2284 -0.2423  0.0277
 6839TIP3    H142152   0.385   2.143   3.266 -0.4024  1.1683  1.5894
 6839TIP3    H242153   0.394   2.047   3.382 -0.5433  0.1360  0.7583
 6840TIP3   OH242154   2.332   1.698   7.533 -0.3683  0.4281  0.0157
 6840TIP3    H142155   2.422   1.706   7.567  0.0283 -1.6264 -0.4593
 6840TIP3    H242156   2.283   1.660   7.605 -1.0957  2.2402  0.5439
 6841TIP3   OH242157   3.124   5.198   1.171 -0.3079 -0.1480 -0.0448
 6841TIP3    H142158   3.043   5.161   1.137  0.0929 -1.3422  0.2407
 6841TIP3    H242159   3.167   5.125   1.217 -0.1822  1.0299  1.8461
 6842TIP3   OH242160   4.696   1.663   0.190 -0.3903 -0.2239 -0.2466
 6842TIP3    H142161   4.630   1.722   0.153  0.3694  0.7772 -0.0532
 6842TIP3    H242162   4.670   1.576   0.159 -2.8150 -0.1466  1.2379
 6843TIP3   OH242163   1.309   1.589   2.975  0.3790  0.4902  0.3562
 6843TIP3    H142164   1.302   1.568   3.068 -0.2431  0.5434  0.3259
 6843TIP3    H242165   1.229   1.554   2.936 -0.0738  1.7568  0.0963
 6844TIP3   OH242166   0.146   2.234   0.405 -0.2501 -0.0106 -0.3670
 6844TIP3    H142167   0.061   2.258   0.368 -0.4066 -1.6273 -1.1323
 6844TIP3    H242168   0.176   2.161   0.351  1.8521  0.8028 -0.4157
 6845TIP3   OH242169   2.818   3.018   1.718  0.4100 -0.0960  0.1741
 6845TIP3    H142170   2.804   3.100   1.764  2.4433 -0.1794  1.0533
 6845TIP3    H242171   2.816   3.041   1.625 -1.6754  0.4276  0.2857
 6846TIP3   OH242172   4.487   4.926   7.741 -0.6191 -0.4247 -0.2119
 6846TIP3    H142173   4.416   4.971   7.694 -0.4048 -1.1369 -1.2475
 6846TIP3    H242174   4.566   4.975   7.717 -0.8502  1.2294  2.0209
 6847TIP3   OH242175   5.326   3.324   1.518 -0.0991 -0.0340  0.5457
 6847TIP3    H142176   5.370   3.278   1.589  0.9324  0.6065  0.3466
 6847TIP3    H242177   5.259   3.378   1.561  0.6783  0.5325  1.0688
 6848TIP3   OH242178   2.500   6.477   7.377 -0.3862  0.2381  0.2258
 6848TIP3    H142179   2.582   6.462   7.423 -0.7558 -0.9400  0.5380
 6848TIP3    H242180   2.465   6.558   7.414  0.6218  0.7425  0.0945
 6849TIP3   OH242181   0.831   6.693   8.848 -0.0920  0.2239  0.7101
 6849TIP3    H142182   0.915   6.648   8.834 -1.3681 -2.3995  1.0130
 6849TIP3    H242183   0.803   6.665   8.935 -0.9152  1.7436  0.9584
 6850TIP3   OH242184   1.536   4.821   0.401  0.1074  0.0600 -0.2293
 6850TIP3    H142185   1.615   4.876   0.404  1.0027 -1.1789 -0.5674
 6850TIP3    H242186   1.511   4.812   0.493 -0.3406  1.4086 -0.1932
 6851TIP3   OH242187   5.276   0.109   1.819  0.7304 -0.0267  0.4538
 6851TIP3    H142188   5.316   0.091   1.904  0.0972 -1.0382  0.5595
 6851TIP3    H242189   5.305   0.197   1.797  0.8576  0.2828  1.7504
 6852TIP3   OH242190   2.223   2.888   3.286  0.4054 -0.3757  0.0926
 6852TIP3    H142191   2.251   2.802   3.253  3.8627  0.7768 -0.3353
 6852TIP3    H242192   2.252   2.890   3.377 -0.1777  0.1621  0.2779
 6853TIP3   OH242193   0.605   2.283   0.743  0.3460 -0.0436 -0.2564
 6853TIP3    H142194   0.663   2.320   0.677 -1.6535  1.3501 -1.3066
 6853TIP3    H242195   0.555   2.216   0.696  0.5743 -0.7571  0.4790
 6854TIP3   OH242196   2.797   5.934   2.655  0.6224  0.2000 -0.0119
 6854TIP3    H142197   2.716   5.942   2.604  1.3322  2.2778 -0.9492
 6854TIP3    H242198   2.788   5.999   2.725  1.7042  0.9220 -0.5084
 6855TIP3   OH242199   0.067   0.934   2.727  0.2334 -0.1283 -0.2698
 6855TIP3    H142200   0.093   0.845   2.750  1.2441  0.7729  2.4875
 6855TIP3    H242201   0.111   0.990   2.792 -2.4348  2.1749 -0.2505
 6856TIP3   OH242202   6.597   2.194   0.509 -0.1463  0.0819 -0.1542
 6856TIP3    H142203   6.661   2.128   0.534 -0.5891  0.2829  1.6532
 6856TIP3    H242204   6.513   2.147   0.508 -0.2946  0.3406 -0.0374
 6857TIP3   OH242205   0.167   2.562   2.900 -0.1350 -0.4942  0.1770
 6857TIP3    H142206   0.116   2.600   2.828  0.8378  0.9271  0.1852
 6857TIP3    H242207   0.129   2.601   2.979  0.0521 -0.5241  0.2810
 6858TIP3   OH242208   3.307   0.402   0.189 -0.7116  0.6484 -0.1093
 6858TIP3    H142209   3.271   0.389   0.277 -0.4845  1.7870  0.1656
 6858TIP3    H242210   3.289   0.494   0.169  0.4509  0.7648 -0.6915
 6859TIP3   OH242211   1.273   5.493   1.265  0.1657  0.3205 -0.0718
 6859TIP3    H142212   1.320   5.493   1.348 -0.5748 -0.1070  0.3597
 6859TIP3    H242213   1.198   5.551   1.279 -0.4890 -0.4816 -0.1103
 6860TIP3   OH242214   2.033   5.755   8.600  0.1722 -0.0726 -0.3318
 6860TIP3    H142215   2.040   5.805   8.518 -0.9601  0.8859  0.1433
 6860TIP3    H242216   1.986   5.812   8.660  0.0801 -1.1696  0.6817
 6861TIP3   OH242217   4.062   3.671   8.762  0.0378 -0.1479 -0.0538
 6861TIP3    H142218   4.108   3.754   8.770  0.1272 -0.2912  1.0632
 6861TIP3    H242219   4.071   3.648   8.669  0.0770  1.0349 -0.3645
 6862TIP3   OH242220   1.398   3.493   3.627 -0.4510 -0.3176  0.3729
 6862TIP3    H142221   1.439   3.486   3.713 -0.9205 -0.4904  0.5841
 6862TIP3    H242222   1.343   3.571   3.634  0.3146  0.2784 -0.1109
 6863TIP3   OH242223   1.668   1.334   2.688 -0.6393  0.2074 -0.0066
 6863TIP3    H142224   1.602   1.403   2.676 -0.1031  0.9980  1.3769
 6863TIP3    H242225   1.739   1.359   2.629 -0.5723  0.6929  0.2715
 6864TIP3   OH242226   2.588   0.584   1.638 -0.0036 -0.2915  0.1224
 6864TIP3    H142227   2.523   0.570   1.569  1.3422  1.5449 -1.6182
 6864TIP3    H242228   2.564   0.520   1.706 -3.0064 -0.3366 -0.8208
 6865TIP3   OH242229   3.778   5.437   0.864  0.1556 -0.1683 -0.5069
 6865TIP3    H142230   3.792   5.520   0.908  1.0327 -0.5222 -0.0938
 6865TIP3    H242231   3.686   5.416   0.881 -0.4297  1.2922 -1.6504
 6866TIP3   OH242232   0.403   2.983   2.793  0.2988  0.2428  0.4268
 6866TIP3    H142233   0.400   3.030   2.876 -2.0238 -1.1258  1.2374
 6866TIP3    H242234   0.488   2.939   2.793  0.3324  0.2281  2.1239
 6867TIP3   OH242235   1.815   2.491   8.833  0.0284  0.4579  0.2509
 6867TIP3    H142236   1.909   2.512   8.829  0.7152 -2.2626  0.3662
 6867TIP3    H242237   1.796   2.482   8.926  0.9301 -3.6361  0.2122
 6868TIP3   OH242238   0.168   3.244   1.201  0.6501  0.1312  0.3122
 6868TIP3    H142239   0.082   3.274   1.228  0.3936 -0.5797  0.3020
 6868TIP3    H242240   0.214   3.323   1.173 -0.4357  0.3604 -0.9241
 6869TIP3   OH242241   1.354   2.771   0.605  0.0448  0.5825  0.1497
 6869TIP3    H142242   1.436   2.819   0.592  0.5656 -0.3272  0.0045
 6869TIP3    H242243   1.373   2.682   0.574 -0.4893 -0.0757  1.6242
 6870TIP3   OH242244   6.319   1.807   0.665  0.1094 -0.4796  0.3841
 6870TIP3    H142245   6.268   1.730   0.688  0.2885 -1.1341 -1.2927
 6870TIP3    H242246   6.410   1.778   0.669  0.2350 -0.0420  0.8248
 6871TIP3   OH242247   4.609   6.332   2.343  0.3567  0.1642 -0.5009
 6871TIP3    H142248   4.603   6.237   2.337 -0.1261  0.2534 -1.6458
 6871TIP3    H242249   4.533   6.358   2.395  0.1310 -0.0208 -0.7408
 6872TIP3   OH242250   5.448   3.178   1.719  0.2116 -0.2818  0.4390
 6872TIP3    H142251   5.401   3.205   1.798 -0.8346  1.5566 -0.7414
 6872TIP3    H242252   5.534   3.151   1.750 -0.3795 -0.1997  2.2705
 6873TIP3   OH242253   6.719   1.940   0.531 -0.0503  0.9100  0.0484
 6873TIP3    H142254   6.812   1.942   0.554  0.0870  3.8673 -0.3874
 6873TIP3    H242255   6.719   1.924   0.437 -0.1691 -1.5752  0.4108
 6874TIP3   OH242256   3.930   5.693   8.773 -0.1480  0.4017  0.0444
 6874TIP3    H142257   3.877   5.730   8.844 -0.7122  0.3507 -0.3449
 6874TIP3    H242258   3.946   5.603   8.800 -1.2239  0.0696 -0.3510
 6875TIP3   OH242259   0.010   6.594   1.574 -0.4810  0.6048  0.4015
 6875TIP3    H142260  -0.056   6.632   1.632 -0.8538 -1.3398  1.3203
 6875TIP3    H242261   0.065   6.541   1.632  1.2664  1.3164 -0.5172
 6876TIP3   OH242262   1.819   3.537   8.185  0.6187 -0.2966  0.0267
 6876TIP3    H142263   1.827   3.497   8.272 -1.8062 -2.2790 -0.5621
 6876TIP3    H242264   1.800   3.629   8.203 -1.7792 -1.0331  1.7436
 6877TIP3   OH242265   1.113   4.253   8.127  0.1396 -0.9666 -0.3515
 6877TIP3    H142266   1.065   4.313   8.069 -0.0775 -1.2175 -0.4313
 6877TIP3    H242267   1.048   4.226   8.192  0.6908  0.3109  0.7946
 6878TIP3   OH242268   0.462   2.128   8.660  0.0026 -0.0827 -0.1602
 6878TIP3    H142269   0.458   2.037   8.687  0.4208 -0.0413  0.0481
 6878TIP3    H242270   0.414   2.131   8.577 -0.8102 -0.3142  0.2924
 6879TIP3   OH242271   4.125   4.714   8.257  0.4938  0.2871 -0.3690
 6879TIP3    H142272   4.160   4.626   8.245  0.7815  0.5387 -1.4235
 6879TIP3    H242273   4.103   4.744   8.169  1.1550  1.5741 -0.1205
 6880TIP3   OH242274   5.029   6.192   2.828  0.3243 -0.6032  0.4037
 6880TIP3    H142275   4.995   6.105   2.806  2.3867 -1.2626 -0.3632
 6880TIP3    H242276   5.004   6.205   2.920 -1.3706 -1.2905  0.0796
 6881TIP3   OH242277   4.189   1.536   2.066 -0.0081  0.4178  0.3234
 6881TIP3    H142278   4.143   1.504   2.143 -1.6835 -1.1253 -1.2302
 6881TIP3    H242279   4.139   1.613   2.038  0.5620  0.9399  0.7007
 6882TIP3   OH242280   2.508   4.400   8.826  0.2539  0.0604  0.2478
 6882TIP3    H142281   2.570   4.335   8.861  0.4817 -0.5065 -1.1436
 6882TIP3    H242282   2.491   4.459   8.900 -1.5194 -2.6797  2.2779
 6883TIP3   OH242283   4.917   1.031   1.286  0.1897 -0.9342 -0.2219
 6883TIP3    H142284   4.844   1.008   1.227  0.0512  1.4006 -1.0634
 6883TIP3    H242285   4.907   0.971   1.360 -0.9017 -2.5425 -1.5776
 6884TIP3   OH242286   0.500   6.438   1.306 -0.3397 -0.5251 -0.8401
 6884TIP3    H142287   0.425   6.491   1.334 -0.8929 -0.8820 -1.5856
 6884TIP3    H242288   0.486   6.353   1.347 -0.0289 -0.4153 -0.5081
 6885TIP3   OH242289   3.854   0.153   7.526 -0.0736 -0.1491  0.5026
 6885TIP3    H142290   3.842   0.201   7.608 -1.1095 -0.4173  0.5154
 6885TIP3    H242291   3.949   0.142   7.519  0.1056  0.8851  1.0811
 6886TIP3   OH242292   0.089   0.730   1.674 -0.6636  0.0106 -0.3950
 6886TIP3    H142293   0.174   0.696   1.702 -1.6971 -3.4223 -0.9545
 6886TIP3    H242294   0.064   0.792   1.743  1.5530 -0.1438  0.6222
 6887TIP3   OH242295   5.293   4.925   0.877  0.7348  0.5448  0.7247
 6887TIP3    H142296   5.380   4.947   0.911 -0.0179  2.1332  1.7202
 6887TIP3    H242297   5.251   4.877   0.948  1.3708 -1.9008 -0.4212
 6888TIP3   OH242298   5.373   1.811   0.489  0.1821  0.0143 -0.3563
 6888TIP3    H142299   5.399   1.774   0.405  1.1486 -1.0524  0.3846
 6888TIP3    H242300   5.317   1.744   0.529 -0.6619  0.7119 -0.3362
 6889TIP3   OH242301   0.413   3.227   3.103 -0.0312 -0.4490 -0.2296
 6889TIP3    H142302   0.354   3.165   3.145 -2.0394 -0.1423 -2.4391
 6889TIP3    H242303   0.363   3.264   3.030  1.6498  2.5209 -0.0643
 6890TIP3   OH242304   3.396   2.584   2.327 -0.3860  0.3363  0.1989
 6890TIP3    H142305   3.349   2.654   2.281 -0.8850 -0.9935 -1.4273
 6890TIP3    H242306   3.459   2.551   2.263 -1.7977 -2.2677 -0.0352
 6891TIP3   OH242307   5.329   0.507   7.580  0.3512  0.4785  0.3904
 6891TIP3    H142308   5.267   0.551   7.637 -2.4682 -0.6743 -1.5897
 6891TIP3    H242309   5.340   0.566   7.505  0.6186  0.0901  0.1164
 6892TIP3   OH242310   5.926   1.216   2.114 -0.1558  0.3111 -0.3149
 6892TIP3    H142311   6.009   1.249   2.148 -1.4136  2.0593  1.2887
 6892TIP3    H242312   5.894   1.286   2.056 -0.3843 -0.4610 -1.1367
 6893TIP3   OH242313   1.946   1.010   1.356  0.4095 -0.0347 -0.6748
 6893TIP3    H142314   1.902   1.067   1.420  1.5172  0.1088 -0.0300
 6893TIP3    H242315   1.973   1.070   1.286  1.9036  0.3332  0.1755
 6894TIP3   OH242316   6.667   5.408   2.146 -0.4435 -0.1485 -0.0966
 6894TIP3    H142317   6.683   5.465   2.071 -2.4318 -0.0572 -0.5142
 6894TIP3    H242318   6.589   5.358   2.121 -1.4409  0.2319  2.1141
 6895TIP3   OH242319   3.960   4.858   8.482  0.1231 -0.5115  0.3155
 6895TIP3    H142320   3.981   4.801   8.408 -0.5530  0.4715 -0.6617
 6895TIP3    H242321   3.997   4.943   8.459  1.3832 -0.5823  1.8912
 6896TIP3   OH242322   1.252   0.271   0.198 -0.0516  0.2137  0.3025
 6896TIP3    H142323   1.170   0.317   0.215 -1.2079 -1.1169 -1.3028
 6896TIP3    H242324   1.280   0.303   0.112  0.1368 -0.6644  0.0240
 6897TIP3   OH242325   2.065   3.571   1.171  0.0856 -0.1483 -0.0584
 6897TIP3    H142326   2.152   3.533   1.183 -0.5106 -1.5123  0.0802
 6897TIP3    H242327   2.065   3.600   1.080 -0.0240 -2.0855 -0.7147
 6898TIP3   OH242328   2.834   0.817   1.884  0.3120 -0.1379  0.0440
 6898TIP3    H142329   2.837   0.764   1.804  0.6839  0.1005 -0.1079
 6898TIP3    H242330   2.867   0.760   1.953  0.2905 -0.2454 -0.0354
 6899TIP3   OH242331   1.175   2.405   2.135  0.6168  0.6820  0.2273
 6899TIP3    H142332   1.084   2.375   2.132  0.3853  0.4271  4.3348
 6899TIP3    H242333   1.223   2.339   2.084 -1.2890  0.2142 -1.1095
 6900TIP3   OH242334   2.293   1.924   0.767 -0.1507  0.0957  0.5220
 6900TIP3    H142335   2.360   1.991   0.776  0.4552 -0.5245  0.7409
 6900TIP3    H242336   2.228   1.962   0.708  2.1216 -0.6233 -2.6642
 6901TIP3   OH242337   3.455   2.502   0.844 -0.4875 -0.1835 -0.8373
 6901TIP3    H142338   3.361   2.519   0.851 -0.0852  2.1013 -0.1736
 6901TIP3    H242339   3.470   2.427   0.901 -1.8025 -0.1129 -0.3634
 6902TIP3   OH242340   5.581   5.896   0.687 -0.3674 -0.0619  0.2450
 6902TIP3    H142341   5.573   5.978   0.735  3.3438  1.0008 -0.5744
 6902TIP3    H242342   5.665   5.860   0.715  0.0811 -1.3984 -2.4690
 6903TIP3   OH242343   4.231   4.636   0.242 -0.2102  0.3446 -0.0663
 6903TIP3    H142344   4.202   4.688   0.167 -0.6194  0.1995 -0.0136
 6903TIP3    H242345   4.322   4.661   0.255  0.0640 -0.0966 -1.0150
 6904TIP3   OH242346   4.679   4.635   2.595 -0.1161 -0.2031  0.5936
 6904TIP3    H142347   4.773   4.629   2.575 -0.0493  1.0316  0.4751
 6904TIP3    H242348   4.671   4.597   2.682  0.3274 -1.2813  0.1783
 6905TIP3   OH242349   1.894   1.062   0.979 -0.3650 -0.6244 -0.7518
 6905TIP3    H142350   1.962   1.112   0.934 -2.2796  1.5087 -1.4660
 6905TIP3    H242351   1.904   1.083   1.072 -0.9909  0.9757 -1.0224
 6906TIP3   OH242352   5.925   1.595   0.452  0.3379 -0.3247 -0.8380
 6906TIP3    H142353   5.884   1.539   0.518  1.1837  1.5013  1.3800
 6906TIP3    H242354   6.018   1.592   0.473  0.6428  0.1618 -2.0754
 6907TIP3   OH242355   1.381   2.411   0.173 -0.0171 -0.3304 -0.5185
 6907TIP3    H142356   1.323   2.353   0.123 -1.1381 -1.8570  2.2966
 6907TIP3    H242357   1.465   2.367   0.174  0.2613  0.1320 -1.6675
 6908TIP3   OH242358   0.467   0.840   2.210  0.0891  0.3542 -0.2907
 6908TIP3    H142359   0.513   0.831   2.294 -0.3047 -0.5800 -0.1641
 6908TIP3    H242360   0.524   0.797   2.147  0.1056  0.5413 -0.4051
 6909TIP3   OH242361   6.348   0.438   7.437 -0.4545  0.2964 -0.0467
 6909TIP3    H142362   6.320   0.350   7.462 -1.9284  0.9023  0.5755
 6909TIP3    H242363   6.385   0.475   7.517  0.1908  0.2319 -0.3144
 6910TIP3   OH242364   3.347   3.877   8.297 -0.9341  0.8423  0.3363
 6910TIP3    H142365   3.441   3.863   8.286 -1.2442 -1.3018 -0.0424
 6910TIP3    H242366   3.340   3.933   8.374  0.6462  0.8269  0.5243
 6911TIP3   OH242367   2.541   0.026   1.198  0.5673 -0.7829  0.0451
 6911TIP3    H142368   2.489  -0.031   1.140  0.0397 -0.9077  0.6318
 6911TIP3    H242369   2.611   0.058   1.142  0.0794 -0.9187 -0.6670
 6912TIP3   OH242370   3.630   2.317   2.309  0.5001  0.0224 -0.8084
 6912TIP3    H142371   3.640   2.293   2.217  2.3940  0.9906 -0.9086
 6912TIP3    H242372   3.720   2.320   2.342 -0.0856  0.7508  0.7858
 6913TIP3   OH242373   3.204   1.658   1.134  0.6104  0.0618 -0.3148
 6913TIP3    H142374   3.135   1.612   1.087 -0.8688 -0.2093  1.9948
 6913TIP3    H242375   3.238   1.594   1.196 -0.1884  1.4832  1.6640
 6914TIP3   OH242376   4.774   0.058   8.099 -0.2654  0.0118  0.3500
 6914TIP3    H142377   4.756   0.113   8.023  0.7879 -2.5019 -1.9016
 6914TIP3    H242378   4.824   0.114   8.158 -0.1157  1.7540 -1.3147
 6915TIP3   OH242379   0.244   2.278   8.925  0.0053  0.0776  0.3947
 6915TIP3    H142380   0.240   2.323   9.010  2.1450  1.5498 -0.1942
 6915TIP3    H242381   0.219   2.345   8.861  0.1864 -0.4924 -0.2783
 6916TIP3   OH242382   4.621   3.524   3.347 -0.3219 -0.1006 -0.0425
 6916TIP3    H142383   4.637   3.455   3.282 -0.8059  0.3760 -0.6761
 6916TIP3    H242384   4.709   3.549   3.377 -0.1545 -1.2955  0.5303
 6917TIP3   OH242385   5.336   6.425   2.540  0.7810 -0.0423 -0.0606
 6917TIP3    H142386   5.348   6.333   2.564  2.8188  0.4594  1.1182
 6917TIP3    H242387   5.273   6.459   2.603  1.3217 -0.2503  0.6064
 6918TIP3   OH242388   1.101   6.383   0.615  0.4194 -0.4731  0.7278
 6918TIP3    H142389   1.056   6.321   0.557 -1.4433  0.1204  1.4723
 6918TIP3    H242390   1.160   6.430   0.556 -0.6528 -0.6010 -0.5122
 6919TIP3   OH242391   6.333   0.969   0.172 -0.7145  0.1260  0.8395
 6919TIP3    H142392   6.405   0.914   0.203 -1.2612 -1.7904 -1.0706
 6919TIP3    H242393   6.264   0.907   0.149 -1.3378  1.5873 -1.5057
 6920TIP3   OH242394   2.294   0.022   2.648 -0.1210  0.4797 -0.3206
 6920TIP3    H142395   2.306   0.027   2.742  0.3451  1.5575 -0.4238
 6920TIP3    H242396   2.200   0.037   2.635 -0.6778 -2.1914  0.1051
 6921TIP3   OH242397   0.557   1.673   0.635 -0.0890 -0.0938 -0.5258
 6921TIP3    H142398   0.562   1.579   0.652 -1.1560 -0.1614 -0.5415
 6921TIP3    H242399   0.529   1.680   0.544  0.6060  0.2524 -0.7216
 6922TIP3   OH242400   5.190   5.723   7.651 -0.1679 -0.1418 -0.5108
 6922TIP3    H142401   5.255   5.785   7.684 -1.0090  0.5097 -0.0390
 6922TIP3    H242402   5.242   5.652   7.613  0.8102  0.8247 -1.0291
 6923TIP3   OH242403   1.380   1.227   2.734  1.0962 -0.0208  0.2091
 6923TIP3    H142404   1.453   1.273   2.692  2.1236 -0.2229  1.6934
 6923TIP3    H242405   1.405   1.134   2.730 -0.5120 -0.4503 -1.9048
 6924TIP3   OH242406   6.606   4.416   0.828  0.4572 -0.5271  0.4678
 6924TIP3    H142407   6.659   4.353   0.779 -0.9258 -0.5170 -1.1201
 6924TIP3    H242408   6.546   4.362   0.879  0.4091 -0.5054  0.4339
 6925TIP3   OH242409   6.078   0.405   0.366 -0.1796 -0.6019 -0.5317
 6925TIP3    H142410   6.004   0.406   0.306 -1.0380 -0.3665  0.5232
 6925TIP3    H242411   6.152   0.433   0.312 -0.6897 -1.5607 -1.7832
 6926TIP3   OH242412   4.028   4.395   3.614 -0.3436  0.5329 -0.0017
 6926TIP3    H142413   4.123   4.399   3.628 -0.4972  0.9839  1.0121
 6926TIP3    H242414   4.017   4.413   3.521  0.4978  1.4965  0.0674
 6927TIP3   OH242415   0.762   6.369   8.573 -0.2598 -0.3885  0.3565
 6927TIP3    H142416   0.802   6.456   8.574 -0.7616 -0.1293  2.2954
 6927TIP3    H242417   0.802   6.324   8.647 -1.2811 -1.2102  0.4214
 6928TIP3   OH242418   4.127   5.812   8.052 -0.4232  0.1597 -0.0271
 6928TIP3    H142419   4.141   5.890   8.105 -0.6811  0.5047 -0.4652
 6928TIP3    H242420   4.125   5.844   7.961 -0.8253 -0.3118 -0.1901
 6929TIP3   OH242421   1.578   4.590   8.755  0.2300 -0.7628 -0.5271
 6929TIP3    H142422   1.513   4.560   8.819  0.1942 -1.1495 -0.7454
 6929TIP3    H242423   1.580   4.685   8.767 -1.7471 -0.5161 -1.8077
 6930TIP3   OH242424   3.994   6.674   2.714 -0.0797 -0.2552 -0.5225
 6930TIP3    H142425   4.074   6.701   2.760  1.6669 -0.2720 -3.3364
 6930TIP3    H242426   3.994   6.578   2.722  0.3915 -0.2834 -0.8300
 6931TIP3   OH242427   3.336   4.481   0.478 -0.1377  0.5028 -0.3931
 6931TIP3    H142428   3.251   4.438   0.478  0.7204 -1.3163 -1.6037
 6931TIP3    H242429   3.351   4.504   0.570 -1.7797  0.5856 -0.1191
 6932TIP3   OH242430   2.208   1.877   0.389 -0.3600  0.1564 -0.1817
 6932TIP3    H142431   2.260   1.806   0.352 -0.6296  0.5201 -1.3264
 6932TIP3    H242432   2.263   1.955   0.377 -0.6280  0.3448 -0.2050
 6933TIP3   OH242433   6.748   3.411   3.510 -0.3034 -0.2592  0.2950
 6933TIP3    H142434   6.781   3.499   3.529  1.5610 -0.8278 -0.1112
 6933TIP3    H242435   6.676   3.425   3.449 -1.0911  1.0681  1.4686
 6934TIP3   OH242436   2.347   3.637   2.077  0.0878  0.3093  0.3696
 6934TIP3    H142437   2.304   3.552   2.069  0.2051  0.3066 -0.3782
 6934TIP3    H242438   2.286   3.690   2.128  0.1218 -0.2890  1.0465
 6935TIP3   OH242439   3.851   1.549   2.679  0.2260 -0.3096  0.2935
 6935TIP3    H142440   3.915   1.555   2.607 -0.2901 -0.9358 -0.2272
 6935TIP3    H242441   3.884   1.610   2.744 -0.8068  2.4753 -1.6168
 6936TIP3   OH242442   0.737   4.300   1.888  0.0683  0.7931  0.5268
 6936TIP3    H142443   0.789   4.282   1.967 -0.0429 -0.3211  0.3618
 6936TIP3    H242444   0.678   4.225   1.881 -0.6334  1.3903 -0.0508
 6937TIP3   OH242445   2.683   2.102   1.868  0.2180  0.4531  0.4816
 6937TIP3    H142446   2.647   2.163   1.932  0.3321 -0.0177  1.0084
 6937TIP3    H242447   2.642   2.018   1.889 -0.2984  0.4415 -0.5390
 6938TIP3   OH242448   5.441   1.226   1.603 -0.3331  0.2222  0.0094
 6938TIP3    H142449   5.510   1.178   1.650  0.0397 -0.4120 -1.1377
 6938TIP3    H242450   5.396   1.276   1.671  0.9777  0.3063  0.8598
 6939TIP3   OH242451   2.299   5.890   2.350 -0.1274  0.1769 -0.3375
 6939TIP3    H142452   2.303   5.796   2.330 -1.1682 -0.2485  1.2221
 6939TIP3    H242453   2.282   5.932   2.267  1.2923 -0.9179 -1.2399
 6940TIP3   OH242454   4.127   1.591   8.890 -0.7759 -0.4902  0.4488
 6940TIP3    H142455   4.053   1.564   8.835 -0.9620 -1.0813  0.9713
 6940TIP3    H242456   4.152   1.676   8.856 -1.5890 -0.3598  0.1385
 6941TIP3   OH242457   1.181   3.022   0.502  0.2954  0.1699  0.3337
 6941TIP3    H142458   1.177   3.087   0.433  1.8998  0.5084  0.5195
 6941TIP3    H242459   1.273   2.998   0.508  0.1686 -0.0342  2.1834
 6942TIP3   OH242460   5.805   4.080   2.355  0.2963  0.3245 -0.2568
 6942TIP3    H142461   5.775   4.125   2.434 -0.8955  1.8608 -1.5383
 6942TIP3    H242462   5.899   4.096   2.353  0.4702 -0.3269  1.1824
 6943TIP3   OH242463   0.265   5.445   8.971 -0.3509  0.2545  0.5997
 6943TIP3    H142464   0.297   5.440   8.881  0.4854  2.8497  0.6781
 6943TIP3    H242465   0.180   5.488   8.964  0.2298  1.5398  1.0985
 6944TIP3   OH242466   2.643   4.275   1.153 -0.7921 -0.3938 -0.6863
 6944TIP3    H142467   2.563   4.315   1.118 -1.2875  1.1423  1.8831
 6944TIP3    H242468   2.681   4.342   1.209  0.8489 -2.0253  0.2838
 6945TIP3   OH242469   3.303   0.626   2.952 -0.4375  0.5105 -0.0426
 6945TIP3    H142470   3.387   0.622   2.998  0.1921  1.5899 -1.0674
 6945TIP3    H242471   3.313   0.565   2.879 -0.8755 -0.0183  0.3286
 6946TIP3   OH242472   0.289   2.403   0.176  0.8174  0.7815 -0.2625
 6946TIP3    H142473   0.379   2.433   0.179  1.8467 -1.9887 -0.4532
 6946TIP3    H242474   0.278   2.351   0.256 -0.3556  0.4757 -0.5950
 6947TIP3   OH242475   1.987   1.624   7.915 -0.1277  0.0349  0.0987
 6947TIP3    H142476   1.980   1.705   7.865 -0.7920  0.2633  0.5507
 6947TIP3    H242477   1.996   1.555   7.848  0.0076  0.4333 -0.2980
 6948TIP3   OH242478   0.270   1.532   0.817 -0.2747 -0.2221 -0.0641
 6948TIP3    H142479   0.304   1.613   0.857 -0.1834 -0.5507  0.5361
 6948TIP3    H242480   0.258   1.472   0.891 -1.3221 -0.4138 -0.3792
 6949TIP3   OH242481   2.960   4.119   7.909  0.1912 -0.4894  0.1870
 6949TIP3    H142482   2.888   4.098   7.970 -1.1441 -1.2755 -1.5787
 6949TIP3    H242483   2.916   4.152   7.830  1.9040  1.1711 -0.1632
 6950TIP3   OH242484   3.727   6.384   0.823 -0.8328 -0.0071 -0.8512
 6950TIP3    H142485   3.649   6.411   0.872 -0.3200  0.9151 -0.5042
 6950TIP3    H242486   3.794   6.375   0.891  1.0628  5.3133 -1.4939
 6951TIP3   OH242487   3.164   4.982   0.883 -0.2793 -0.5069  0.6109
 6951TIP3    H142488   3.086   5.034   0.902  0.8509  2.0647 -1.1928
 6951TIP3    H242489   3.135   4.918   0.818 -0.9293  0.3843 -0.0041
 6952TIP3   OH242490   0.315   0.006   2.616  0.1219  0.0257 -0.0003
 6952TIP3    H142491   0.269  -0.071   2.647  0.6498 -0.1615  0.3350
 6952TIP3    H242492   0.372  -0.027   2.546  1.9844 -0.3273  1.5902
 6953TIP3   OH242493   6.490   1.280   8.710  0.6622 -0.2082  0.0903
 6953TIP3    H142494   6.552   1.302   8.641  0.5053  1.5834  0.4767
 6953TIP3    H242495   6.543   1.270   8.789  0.8366 -2.2135 -0.2169
 6954TIP3   OH242496   3.336   6.434   7.911 -0.0482  0.2678 -0.4502
 6954TIP3    H142497   3.428   6.410   7.904 -0.1521  0.0877 -1.3367
 6954TIP3    H242498   3.289   6.351   7.909 -0.3643  0.4337 -2.7174
 6955TIP3   OH242499   4.542   4.497   3.006 -0.3099 -0.2201  0.5402
 6955TIP3    H142500   4.620   4.479   2.953 -1.8540  0.1847 -2.0928
 6955TIP3    H242501   4.535   4.422   3.064  0.6341 -1.5567 -0.9768
 6956TIP3   OH242502   1.544   6.519   2.807  0.0890  0.0445 -0.4155
 6956TIP3    H142503   1.554   6.492   2.898  0.9135 -0.5673 -0.6809
 6956TIP3    H242504   1.455   6.492   2.784 -0.4513  0.9867  0.4529
 6957TIP3   OH242505   2.625   1.112   8.366  0.1852  0.3426  0.0761
 6957TIP3    H142506   2.698   1.075   8.416 -0.7916 -1.1900  0.4267
 6957TIP3    H242507   2.634   1.075   8.278 -0.0432  0.3322  0.0569
 6958TIP3   OH242508   0.058   2.654   3.142  0.2839  0.5984 -0.1648
 6958TIP3    H142509   0.009   2.735   3.127 -1.0789 -0.3008 -0.7040
 6958TIP3    H242510   0.007   2.607   3.208 -0.0613 -0.7258 -1.3383
 6959TIP3   OH242511   1.965   0.498   1.848  0.5971 -0.4030  0.2247
 6959TIP3    H142512   1.877   0.500   1.809  0.4934  0.4384  0.4816
 6959TIP3    H242513   2.024   0.517   1.775  0.5439 -0.6541  0.1148
 6960TIP3   OH242514   4.249   3.043   0.945 -0.0772 -0.7179  0.1827
 6960TIP3    H142515   4.164   3.033   0.989 -0.7870 -0.4778 -1.1016
 6960TIP3    H242516   4.238   3.001   0.860  0.6695  0.4759 -0.5378
 6961TIP3   OH242517   6.776   2.803   2.117 -0.0307  0.0292  0.0264
 6961TIP3    H142518   6.719   2.786   2.041 -0.3972 -3.1139  0.8824
 6961TIP3    H242519   6.726   2.865   2.170 -1.4993 -0.6312 -0.5140
 6962TIP3   OH242520   6.539   4.021   7.928  0.2618 -0.1612 -0.3283
 6962TIP3    H142521   6.511   3.971   8.005  3.5045  0.1731  1.2503
 6962TIP3    H242522   6.526   3.961   7.854  1.9325 -2.6265  1.2082
 6963TIP3   OH242523   6.473   5.735   3.229 -0.3954  0.0748 -0.5397
 6963TIP3    H142524   6.527   5.785   3.169 -0.3187 -1.4970 -1.8615
 6963TIP3    H242525   6.390   5.724   3.183  0.1703 -2.4371 -1.1068
 6964TIP3   OH242526   3.898   6.340   8.427  0.6478  0.1297  0.5915
 6964TIP3    H142527   3.814   6.385   8.436  1.4134  2.0684 -1.1382
 6964TIP3    H242528   3.882   6.252   8.460 -2.2949  0.1837 -0.4299
 6965TIP3   OH242529   4.232   3.442   1.875 -0.3144 -0.3728  0.0250
 6965TIP3    H142530   4.138   3.464   1.874 -0.3643 -0.3405  2.0018
 6965TIP3    H242531   4.262   3.462   1.786 -1.8888  0.9337 -0.2603
 6966TIP3   OH242532   3.890   4.680   1.292 -0.0701 -0.4321 -0.2154
 6966TIP3    H142533   3.880   4.774   1.277  2.3939 -0.1386 -0.5162
 6966TIP3    H242534   3.903   4.672   1.387 -0.8159 -0.5428 -0.1193
 6967TIP3   OH242535   0.945   2.081   0.634  0.1694  0.4952 -0.2699
 6967TIP3    H142536   1.003   2.008   0.610 -0.1611  0.2244 -0.2594
 6967TIP3    H242537   0.862   2.060   0.590  0.4777  1.5899 -1.4502
 6968TIP3   OH242538   5.355   1.242   0.299 -0.0326  0.1872 -0.1461
 6968TIP3    H142539   5.269   1.234   0.341  0.0221  0.0157 -0.0687
 6968TIP3    H242540   5.360   1.335   0.275 -0.1562  0.2405  0.0269
 6969TIP3   OH242541   2.409   1.235   8.046  0.1243  0.3930 -0.6422
 6969TIP3    H142542   2.474   1.304   8.059 -0.8701  1.2006  0.1723
 6969TIP3    H242543   2.375   1.217   8.134 -1.0872  0.3307 -1.1091
 6970TIP3   OH242544   5.680   2.943   0.772 -0.5256  0.3026 -0.3572
 6970TIP3    H142545   5.661   2.850   0.755 -1.4886  0.8280 -2.4680
 6970TIP3    H242546   5.595   2.987   0.763 -0.0023  1.4581  0.1591
 6971TIP3   OH242547   5.914   2.739   2.894 -0.0290  0.0488  0.3243
 6971TIP3    H142548   5.983   2.706   2.836  0.2385 -0.3991  0.8911
 6971TIP3    H242549   5.836   2.741   2.839  0.2771 -0.1396 -0.1226
 6972TIP3   OH242550   1.431   5.431   1.033 -0.2031 -0.0513  0.1798
 6972TIP3    H142551   1.450   5.521   1.059 -2.5887  1.3695 -2.4633
 6972TIP3    H242552   1.339   5.418   1.056 -0.7558 -0.6837 -2.1460
 6973TIP3   OH242553   4.513   4.058   0.678  0.6586 -0.0817 -0.3938
 6973TIP3    H142554   4.452   4.024   0.745 -1.7203  1.8483 -1.4147
 6973TIP3    H242555   4.538   4.144   0.710  2.3689 -0.5637 -0.3494
 6974TIP3   OH242556   2.704   2.549   3.084  0.0797  0.4517 -0.0321
 6974TIP3    H142557   2.640   2.586   3.024 -0.1944  0.8523  0.4936
 6974TIP3    H242558   2.764   2.621   3.103  1.7959 -0.3851 -1.9303
 6975TIP3   OH242559   2.110   6.522   1.446 -0.4108 -0.4469 -0.1020
 6975TIP3    H142560   2.076   6.456   1.385  1.0375 -0.4551 -0.9402
 6975TIP3    H242561   2.202   6.499   1.457 -0.6099 -0.4427  2.1184
 6976TIP3   OH242562   4.504   0.218   1.555  0.0390 -0.3566 -0.2195
 6976TIP3    H142563   4.415   0.190   1.533 -0.2698  1.6985 -1.9653
 6976TIP3    H242564   4.495   0.260   1.640 -1.2835  1.9723 -1.3775
 6977TIP3   OH242565   0.492   3.599   2.716 -0.0179  0.0920  0.2327
 6977TIP3    H142566   0.487   3.606   2.811  1.2963  1.0723  0.2657
 6977TIP3    H242567   0.486   3.505   2.698  2.8186 -0.4592  1.5638
 6978TIP3   OH242568   4.297   4.400   2.374 -0.2907  0.3096  0.4107
 6978TIP3    H142569   4.219   4.370   2.329  0.4012  2.4493 -2.4614
 6978TIP3    H242570   4.271   4.482   2.416  0.7504  2.0711 -2.1821
 6979TIP3   OH242571   3.546   0.715   8.883  0.3908  0.4826 -0.5162
 6979TIP3    H142572   3.558   0.678   8.971 -0.5546  1.4286  0.0371
 6979TIP3    H242573   3.580   0.804   8.890  0.2394  0.5864 -1.0786
 6980TIP3   OH242574   3.272   1.747   1.857 -0.7069  0.1882 -0.6680
 6980TIP3    H142575   3.222   1.693   1.919  0.3043  0.3695  0.3529
 6980TIP3    H242576   3.301   1.821   1.909  0.9902 -0.1408 -1.0893
 6981TIP3   OH242577   1.820   4.974   0.878 -0.1551  0.1907 -0.4830
 6981TIP3    H142578   1.860   5.058   0.900  1.9829 -1.0392  0.6873
 6981TIP3    H242579   1.809   4.929   0.962 -2.1052 -0.4103 -0.9839
 6982TIP3   OH242580   0.877   3.571   0.853 -0.3387  0.0823 -0.0823
 6982TIP3    H142581   0.851   3.497   0.908 -1.4395  0.8978  0.5233
 6982TIP3    H242582   0.808   3.636   0.866 -0.5752  0.3797 -2.2889
 6983TIP3   OH242583   5.128   6.661   7.796  0.3730 -0.2772  0.6078
 6983TIP3    H142584   5.200   6.649   7.734 -0.3620 -0.6064 -0.2120
 6983TIP3    H242585   5.146   6.744   7.839  1.6194 -0.7033  0.9412
 6984TIP3   OH242586   1.222   1.936   1.760  0.1755 -0.6926 -0.6423
 6984TIP3    H142587   1.161   2.003   1.791  0.3633 -0.4500 -0.7970
 6984TIP3    H242588   1.285   1.983   1.706  0.5084 -0.9402 -0.4748
 6985TIP3   OH242589   4.491   6.391   8.028 -0.1014 -0.3941 -0.0080
 6985TIP3    H142590   4.529   6.363   8.111 -0.3590  0.5279  0.4390
 6985TIP3    H242591   4.405   6.350   8.026  0.0763 -0.7656 -0.0185
 6986TIP3   OH242592   2.049   3.981   2.258 -1.2405  0.0062  0.7199
 6986TIP3    H142593   1.972   4.037   2.263 -0.6446  0.9131  0.1226
 6986TIP3    H242594   2.105   4.023   2.192 -0.3248 -0.7403  0.9960
 6987TIP3   OH242595   1.855   3.795   2.624 -0.4445 -0.6782  0.0169
 6987TIP3    H142596   1.930   3.768   2.678  0.1194  0.4963 -0.1291
 6987TIP3    H242597   1.793   3.723   2.631  1.5015 -2.6342 -1.4487
 6988TIP3   OH242598   5.726   3.801   3.345  0.5609 -0.2819 -0.6528
 6988TIP3    H142599   5.767   3.750   3.415 -0.5942 -0.3733 -0.0251
 6988TIP3    H242600   5.726   3.743   3.270  0.9583 -0.5265 -0.4669
 6989TIP3   OH242601   5.051   5.487   1.284 -0.6505  0.2823 -0.0785
 6989TIP3    H142602   5.031   5.550   1.214 -3.2653 -0.6336 -0.2640
 6989TIP3    H242603   5.140   5.458   1.266 -0.0027  2.6098 -0.9923
 6990TIP3   OH242604   0.460   4.838   8.521  0.2659 -0.0449 -0.0576
 6990TIP3    H142605   0.453   4.883   8.606 -2.6372 -1.0122  0.3390
 6990TIP3    H242606   0.447   4.908   8.457 -0.7342  0.2562  0.4427
 6991TIP3   OH242607   1.535   5.459   7.926 -0.3855  0.3171 -0.3235
 6991TIP3    H142608   1.450   5.421   7.949 -0.1644  1.3127  2.3896
 6991TIP3    H242609   1.520   5.553   7.928 -0.0748  0.5656 -3.6277
 6992TIP3   OH242610   4.399   5.738   0.379  0.7473  0.0060 -0.0844
 6992TIP3    H142611   4.417   5.668   0.316  2.1328 -0.7671  1.1187
 6992TIP3    H242612   4.453   5.717   0.455 -0.8234  0.9603  1.3600
 6993TIP3   OH242613   4.398   5.518   2.677 -0.4489  0.4314 -0.9826
 6993TIP3    H142614   4.426   5.431   2.650 -0.5902  0.1173 -0.1213
 6993TIP3    H242615   4.311   5.505   2.714  0.5744  0.4771  1.6251
 6994TIP3   OH242616   3.808   3.697   8.867  0.2178 -0.5575  0.5317
 6994TIP3    H142617   3.787   3.783   8.832  0.7048 -0.6102  0.0936
 6994TIP3    H242618   3.890   3.672   8.822  0.4263 -0.9653  1.1277
 6995TIP3   OH242619   6.317   1.849   2.051 -0.1243  0.1661 -0.0482
 6995TIP3    H142620   6.272   1.923   2.011 -1.0389 -0.6124 -0.5185
 6995TIP3    H242621   6.381   1.822   1.986 -0.6233 -0.1971 -0.4017
 6996TIP3   OH242622   5.256   6.670   0.355 -0.2814 -0.1628 -0.1540
 6996TIP3    H142623   5.244   6.755   0.312 -0.7713 -0.7252 -1.1651
 6996TIP3    H242624   5.239   6.687   0.447  0.0409  0.9247 -0.2799
 6997TIP3   OH242625   5.359   1.879   2.741 -0.4745  0.8382 -0.6915
 6997TIP3    H142626   5.303   1.890   2.818  0.2081 -0.8233  0.0811
 6997TIP3    H242627   5.446   1.905   2.771 -0.1347 -0.1716 -0.7753
 6998TIP3   OH242628   6.385   3.887   1.550  0.2681 -0.0104 -0.0085
 6998TIP3    H142629   6.296   3.899   1.583  0.6587 -1.9175  1.9942
 6998TIP3    H242630   6.413   3.975   1.523 -2.2001  0.6237 -0.7812
 6999TIP3   OH242631   3.812   3.964   8.814  0.1622 -0.0684 -0.5491
 6999TIP3    H142632   3.777   4.041   8.768 -0.1296  0.0200 -0.1792
 6999TIP3    H242633   3.894   3.995   8.852 -0.7977  0.5751  1.0864
 7000TIP3   OH242634   5.270   6.387   1.262  0.1642  0.1430  0.4033
 7000TIP3    H142635   5.319   6.311   1.230  0.5040  0.4221  0.2574
 7000TIP3    H242636   5.256   6.369   1.356  1.5245  0.5782  0.7020
 7001TIP3   OH242637   1.841   3.808   8.850  0.5016 -0.5752  0.0059
 7001TIP3    H142638   1.851   3.812   8.755 -2.5956 -2.2152 -0.5308
 7001TIP3    H242639   1.884   3.727   8.876  0.1796 -0.8158 -0.2118
 7002TIP3   OH242640   1.626   6.592   2.436  0.2997 -0.9807 -0.5644
 7002TIP3    H142641   1.596   6.643   2.511 -0.2350 -1.1702 -0.6460
 7002TIP3    H242642   1.548   6.581   2.382  0.4461 -1.7658 -0.6226
 7003TIP3   OH242643   6.673   3.062   1.295 -0.1256  0.1468  0.5710
 7003TIP3    H142644   6.602   3.007   1.263  0.0256  0.6419 -0.7013
 7003TIP3    H242645   6.686   3.127   1.225  1.1389  0.4570  1.0599
 7004TIP3   OH242646   3.058   3.127   8.472  0.1043  0.3771  0.0758
 7004TIP3    H142647   2.981   3.070   8.482  0.7128 -0.1106  2.6892
 7004TIP3    H242648   3.022   3.209   8.439 -1.4846  0.0271  0.8198
 7005TIP3   OH242649   5.929   5.365   1.497  0.2963  0.4577  0.0315
 7005TIP3    H142650   5.890   5.412   1.424  0.8149  2.2294  0.8426
 7005TIP3    H242651   6.001   5.315   1.458  0.7663  1.6250 -0.6390
 7006TIP3   OH242652   4.060   0.856   2.102  0.6861 -0.2911  0.1048
 7006TIP3    H142653   4.063   0.845   2.007 -1.3589 -0.1265 -0.0254
 7006TIP3    H242654   4.061   0.951   2.115 -2.9442 -0.1146 -0.0532
 7007TIP3   OH242655   4.400   1.614   8.151 -0.0748 -0.9302  0.0950
 7007TIP3    H142656   4.471   1.606   8.215  0.5684 -0.5842 -0.5597
 7007TIP3    H242657   4.427   1.685   8.093 -1.0306 -0.6866 -0.0831
 7008TIP3   OH242658   1.977   6.300   0.184 -0.0279 -0.2512 -0.2105
 7008TIP3    H142659   2.032   6.368   0.145  1.3300 -1.0023  0.3405
 7008TIP3    H242660   1.919   6.273   0.113  1.0666 -0.2083 -1.1521
 7009TIP3   OH242661   6.223   6.109   1.825  0.2630 -0.1892  0.1066
 7009TIP3    H142662   6.263   6.069   1.748 -0.7438 -1.1706  0.0806
 7009TIP3    H242663   6.229   6.042   1.893  0.3397  0.3491  0.6454
 7010TIP3   OH242664   0.755   6.195   1.008  0.0477 -0.4147  0.1233
 7010TIP3    H142665   0.846   6.203   1.039  0.0278 -0.7855  0.2777
 7010TIP3    H242666   0.719   6.283   1.018 -0.0320 -0.5656  1.4044
 7011TIP3   OH242667   0.156   1.242   0.024  0.4068  0.2314  0.1347
 7011TIP3    H142668   0.153   1.338   0.033 -1.5312  0.0940  1.6146
 7011TIP3    H242669   0.166   1.227  -0.070  0.8210  1.8923 -0.1136
 7012TIP3   OH242670   3.477   4.389   2.591 -0.6003 -0.4176 -0.7232
 7012TIP3    H142671   3.508   4.429   2.672 -0.5846 -0.0155 -0.9270
 7012TIP3    H242672   3.498   4.296   2.601 -1.4896 -0.5331  0.1491
 7013TIP3   OH242673   0.403   4.623   2.000  0.2506  0.3271  0.4135
 7013TIP3    H142674   0.494   4.611   1.971  0.5129 -1.0303  1.6704
 7013TIP3    H242675   0.378   4.708   1.966  1.6748  0.3060 -0.7923
 7014TIP3   OH242676   5.622   3.406   0.947 -0.4379  0.0375 -0.0797
 7014TIP3    H142677   5.629   3.496   0.916  1.8886  0.8230  2.3914
 7014TIP3    H242678   5.548   3.406   1.008 -0.1647  0.4015  0.2531
 7015TIP3   OH242679   4.030   3.009   1.374  0.0607 -0.1724 -0.2091
 7015TIP3    H142680   3.938   3.020   1.397 -0.2683 -3.2691  0.4225
 7015TIP3    H242681   4.078   3.057   1.441 -1.0834 -1.1167  1.3498
 7016TIP3   OH242682   2.387   0.998   1.391  0.2610 -0.6122 -0.6959
 7016TIP3    H142683   2.470   1.034   1.421  0.4813 -1.4791 -0.2370
 7016TIP3    H242684   2.410   0.938   1.322  0.1181 -1.5826  0.0775
 7017TIP3   OH242685   0.148   5.348   2.203  0.2758 -0.4291  0.5642
 7017TIP3    H142686   0.139   5.380   2.292 -0.7846 -1.8502  1.0009
 7017TIP3    H242687   0.062   5.364   2.163  0.9657  0.9070 -0.4802
 7018TIP3   OH242688   4.349   1.121   8.479 -0.0766 -0.5055  0.5293
 7018TIP3    H142689   4.381   1.072   8.403  0.3187 -1.5398  1.3390
 7018TIP3    H242690   4.255   1.126   8.466  0.0342 -0.2765 -0.2540
 7019TIP3   OH242691   4.964   1.957   1.775 -0.1590 -0.0937  0.0255
 7019TIP3    H142692   5.008   1.931   1.856  2.6527  1.0322 -1.0207
 7019TIP3    H242693   4.920   2.040   1.798 -1.2307 -0.8616  0.8896
 7020TIP3   OH242694   0.659   6.313   0.287  0.0534  0.2425 -0.1703
 7020TIP3    H142695   0.571   6.301   0.323  0.5220 -0.8772  0.7019
 7020TIP3    H242696   0.682   6.227   0.253  1.0341  0.3566  0.1735
 7021TIP3   OH242697   2.461   0.350   1.712  0.2948  0.3329 -0.2159
 7021TIP3    H142698   2.465   0.304   1.628 -1.5430  1.9194 -1.2382
 7021TIP3    H242699   2.415   0.289   1.770 -2.5237  0.9052 -1.6671
 7022TIP3   OH242700   3.355   1.061   1.776  0.4760  0.0361 -0.5862
 7022TIP3    H142701   3.336   1.154   1.788 -1.8710 -0.6250  2.1310
 7022TIP3    H242702   3.397   1.034   1.858  0.9929 -1.3201 -1.2671
 7023TIP3   OH242703   0.651   3.094   8.962 -0.2839 -0.1508 -0.3183
 7023TIP3    H142704   0.659   3.067   8.871 -0.3385 -0.4193 -0.2436
 7023TIP3    H242705   0.578   3.156   8.962 -0.1083  0.0566 -0.5021
 7024TIP3   OH242706   1.134   3.708   0.271  0.1144  0.2137 -0.0041
 7024TIP3    H142707   1.130   3.640   0.338 -0.6557 -0.0388 -0.2977
 7024TIP3    H242708   1.208   3.682   0.216  0.2602 -0.0018  0.2857
 7025TIP3   OH242709   6.630   4.233   7.776  0.2024 -0.7357 -0.2273
 7025TIP3    H142710   6.606   4.148   7.812  0.3493 -0.1079  1.4016
 7025TIP3    H242711   6.726   4.234   7.781  0.1947  1.4297  4.6254
 7026TIP3   OH242712   4.037   1.941   1.417  0.2473 -0.3980 -0.4260
 7026TIP3    H142713   4.024   1.875   1.485  1.4081 -1.1208 -0.8822
 7026TIP3    H242714   3.948   1.970   1.394 -0.1789 -0.5572  0.9788
 7027TIP3   OH242715   5.848   0.118   1.938 -0.2481  0.4093  0.6528
 7027TIP3    H142716   5.765   0.157   1.966 -0.7155 -0.5054  0.5848
 7027TIP3    H242717   5.855   0.142   1.845 -1.4082 -1.1002  0.1358
 7028TIP3   OH242718   2.510   2.890   8.156 -0.1349 -0.1214 -0.5727
 7028TIP3    H142719   2.596   2.855   8.133  0.2476  0.9097 -0.7519
 7028TIP3    H242720   2.520   2.921   8.246  0.1583  1.3918 -1.0886
 7029TIP3   OH242721   3.932   4.763   0.858 -0.4348 -0.7204 -0.2889
 7029TIP3    H142722   3.986   4.816   0.917 -0.8141  0.6561 -1.1351
 7029TIP3    H242723   3.844   4.799   0.867 -0.8699 -1.7243 -0.3199
 7030TIP3   OH242724   4.261   5.581   7.551  0.2180  0.0242 -0.0610
 7030TIP3    H142725   4.262   5.675   7.569  0.9823  0.2957 -1.4293
 7030TIP3    H242726   4.255   5.574   7.456  0.3225 -1.3177  0.0080
 7031TIP3   OH242727   3.785   5.276   7.330  0.4894 -0.2167  0.0104
 7031TIP3    H142728   3.703   5.233   7.355 -0.6054  0.7753 -1.7382
 7031TIP3    H242729   3.847   5.203   7.317 -0.4602 -1.0579  0.0964
 7032TIP3   OH242730   1.125   0.561   2.959  0.7387  0.2963 -0.0925
 7032TIP3    H142731   1.180   0.639   2.949  1.0996  0.1424  0.6239
 7032TIP3    H242732   1.151   0.524   3.043 -0.6397  0.3472  0.3863
 7033TIP3   OH242733   4.768   6.189   7.980 -0.2236 -0.2295 -0.0149
 7033TIP3    H142734   4.675   6.194   7.957 -0.6006 -0.3071  1.3815
 7033TIP3    H242735   4.795   6.280   7.991  0.0809 -0.1658 -1.1280
 7034TIP3   OH242736   2.011   1.607   3.831  0.2195 -0.4433 -0.2205
 7034TIP3    H142737   1.990   1.694   3.797  0.4588 -0.5215 -0.5828
 7034TIP3    H242738   1.997   1.548   3.756  1.1249 -0.5679 -0.3058
 7035TIP3   OH242739   2.038   4.711   3.136 -0.6358  0.0580 -0.8644
 7035TIP3    H142740   1.967   4.651   3.112 -0.1603 -0.5652 -0.7460
 7035TIP3    H242741   1.997   4.775   3.194 -1.1936 -0.0474 -1.1397
 7036TIP3   OH242742   5.820   1.513   2.760  0.1652 -0.3007 -0.0704
 7036TIP3    H142743   5.743   1.456   2.753 -0.7686  0.4978  2.5780
 7036TIP3    H242744   5.784   1.600   2.779  1.6814  0.4732 -0.5777
 7037TIP3   OH242745   5.846   4.169   2.845  0.3692 -0.2913  0.5338
 7037TIP3    H142746   5.899   4.099   2.883  0.0380 -1.3028 -0.7970
 7037TIP3    H242747   5.878   4.178   2.755 -1.5483 -0.7920 -0.2352
 7038TIP3   OH242748   5.479   3.826   7.984  0.0964 -0.7711  0.3382
 7038TIP3    H142749   5.441   3.818   8.072 -0.0057 -0.4690  0.3235
 7038TIP3    H242750   5.406   3.851   7.928  0.6606  2.0118  0.6814
 7039TIP3   OH242751   3.463   2.801   1.639  0.1300 -0.2942  0.0284
 7039TIP3    H142752   3.428   2.742   1.706 -0.0316 -0.2240  0.0044
 7039TIP3    H242753   3.404   2.877   1.640 -1.6580 -1.5487 -2.2600
 7040TIP3   OH242754   2.756   6.089   1.234  0.3945  0.0134 -0.2061
 7040TIP3    H142755   2.752   6.173   1.187  0.0468  0.2648  0.2637
 7040TIP3    H242756   2.836   6.047   1.202  0.7635  0.6839 -0.1826
 7041TIP3   OH242757   3.915   3.552   0.575  0.0928  0.5626 -0.6724
 7041TIP3    H142758   3.947   3.540   0.665  0.6371 -2.1132 -1.1351
 7041TIP3    H242759   3.983   3.511   0.521 -0.5854  1.4911 -2.2529
 7042TIP3   OH242760   1.053   5.880   8.648  0.3318  0.0063 -0.3786
 7042TIP3    H142761   1.075   5.787   8.658 -0.6441 -0.1462  0.7037
 7042TIP3    H242762   1.043   5.911   8.738 -0.7209  0.7955 -0.7450
 7043TIP3   OH242763   1.143   2.224   2.901  0.3435 -0.5723  0.4204
 7043TIP3    H142764   1.065   2.180   2.869  0.4884 -0.1909 -0.4828
 7043TIP3    H242765   1.118   2.316   2.910 -0.1523 -0.8887  2.9396
 7044TIP3   OH242766   5.663   5.227   1.356 -0.0792 -0.2994 -0.0687
 7044TIP3    H142767   5.612   5.308   1.355 -1.8816 -1.3668 -0.9935
 7044TIP3    H242768   5.725   5.236   1.284 -1.7292 -0.5502 -1.5868
 7045TIP3   OH242769   6.742   0.117   2.903 -0.5733  0.4134  0.1742
 7045TIP3    H142770   6.743   0.046   2.967  0.0451 -0.3060 -0.6297
 7045TIP3    H242771   6.745   0.074   2.818 -0.0164  1.3999 -0.3232
 7046TIP3   OH242772   4.082   4.194   0.451  0.8335 -1.0997 -0.2289
 7046TIP3    H142773   4.172   4.163   0.453  1.0615 -0.4661 -0.4355
 7046TIP3    H242774   4.042   4.147   0.377  1.4992 -0.0624 -1.2932
 7047TIP3   OH242775   4.170   2.962   7.923  0.2470  0.0815 -0.2673
 7047TIP3    H142776   4.241   2.902   7.901  0.9190  0.7297  0.1301
 7047TIP3    H242777   4.155   2.950   8.016  0.3403  0.4937 -0.1989
 7048TIP3   OH242778   5.190   4.244   0.702  0.1007  0.2129  0.1579
 7048TIP3    H142779   5.102   4.251   0.741 -0.5381 -1.8179 -0.7621
 7048TIP3    H242780   5.190   4.158   0.660  1.4554  1.4087 -2.5244
 7049TIP3   OH242781   1.010   6.577   8.545  0.0296  0.3010  0.1920
 7049TIP3    H142782   0.980   6.664   8.517  2.3278  0.9383 -0.5047
 7049TIP3    H242783   1.101   6.591   8.573 -0.8469 -0.9952  4.5336
 7050TIP3   OH242784   4.841   1.932   8.964 -0.0557 -0.0205  0.0128
 7050TIP3    H142785   4.820   2.009   8.912 -3.0889 -0.3805  0.5055
 7050TIP3    H242786   4.829   1.858   8.905 -1.1192 -0.2795  0.5065
 7051TIP3   OH242787   5.432   5.942   8.549  0.3345  1.0295  0.2002
 7051TIP3    H142788   5.444   5.894   8.468 -0.2595  0.6958  0.3059
 7051TIP3    H242789   5.360   6.003   8.530 -1.0517 -0.2859  0.9956
 7052TIP3   OH242790   4.056   2.374   1.161  0.0557 -0.4200  0.5618
 7052TIP3    H142791   4.096   2.319   1.093 -0.4884  1.3032 -1.2666
 7052TIP3    H242792   3.991   2.426   1.114  0.1148  1.3286  2.2989
 7053TIP3   OH242793   1.279   4.357   0.624 -0.1377 -0.3798  0.1393
 7053TIP3    H142794   1.205   4.297   0.634  0.6855 -1.4328  0.1218
 7053TIP3    H242795   1.263   4.426   0.688 -0.9640 -0.7646  0.3662
 7054TIP3   OH242796   5.316   0.936   3.082 -0.0526  0.5339 -0.1264
 7054TIP3    H142797   5.376   1.002   3.117  0.0799  0.1026  0.4708
 7054TIP3    H242798   5.293   0.881   3.157 -1.9016  1.2173 -0.1341
 7055TIP3   OH242799   6.330   1.277   7.722  0.1071 -0.6418  0.4314
 7055TIP3    H142800   6.408   1.277   7.667  0.5113  0.7709  0.9486
 7055TIP3    H242801   6.339   1.198   7.776  0.0953 -1.6240 -0.9405
 7056TIP3   OH242802   4.556   1.087   8.260 -0.2092  0.3477 -0.0599
 7056TIP3    H142803   4.480   1.035   8.233  0.0297  0.0561 -0.1773
 7056TIP3    H242804   4.629   1.024   8.262  0.4066  0.9503 -1.6916
 7057TIP3   OH242805   4.467   3.104   1.988  0.5918  0.1432 -0.6862
 7057TIP3    H142806   4.468   3.186   2.037  0.0809 -0.5605  0.5538
 7057TIP3    H242807   4.559   3.088   1.965  0.6705  1.1282 -1.0588
 7058TIP3   OH242808   4.173   0.919   1.180 -0.1621 -0.7004  0.1662
 7058TIP3    H142809   4.179   0.921   1.085 -2.5455 -1.1741 -0.0633
 7058TIP3    H242810   4.125   0.998   1.204  0.0622 -0.7835  0.9383
 7059TIP3   OH242811   5.822   2.753   8.179  0.5113 -0.4756  0.3475
 7059TIP3    H142812   5.821   2.842   8.144  0.5579 -0.3238  0.7338
 7059TIP3    H242813   5.730   2.731   8.191  0.5101 -0.3532  0.5694
 7060TIP3   OH242814   4.207   3.240   8.462 -0.1639 -0.0514 -0.1375
 7060TIP3    H142815   4.217   3.335   8.458 -0.5385  0.0328  0.6973
 7060TIP3    H242816   4.287   3.209   8.504  0.2595 -0.1788 -1.0172
 7061TIP3   OH242817   0.497   3.639   2.996 -0.1238  0.2625  0.2948
 7061TIP3    H142818   0.581   3.600   3.021 -0.1206 -0.3573 -0.6295
 7061TIP3    H242819   0.447   3.641   3.078 -0.0597 -1.5558  0.4123
 7062TIP3   OH242820   2.028   1.421   1.915  0.0053 -0.1167 -0.3395
 7062TIP3    H142821   2.112   1.400   1.874 -1.1317 -1.4465 -2.1410
 7062TIP3    H242822   1.973   1.450   1.843 -1.1750  0.5031  0.7726
 7063TIP3   OH242823   1.005   4.376   2.789  0.0456  0.4625  0.0050
 7063TIP3    H142824   0.995   4.285   2.818 -0.7563 -0.1782 -2.0930
 7063TIP3    H242825   0.929   4.421   2.825 -0.7925 -0.2552 -0.7989
 7064TIP3   OH242826   0.244   3.362   0.496  0.5692 -0.2122  0.0766
 7064TIP3    H142827   0.301   3.288   0.475  0.3135 -1.1148  2.2401
 7064TIP3    H242828   0.302   3.426   0.537  0.4121 -0.2421  0.3548
 7065TIP3   OH242829   5.444   4.672   0.022 -0.1081 -0.5925 -0.0642
 7065TIP3    H142830   5.423   4.627   0.105 -0.1027  0.0318  0.2787
 7065TIP3    H242831   5.480   4.756   0.049  0.9574 -0.8291 -0.6907
 7066TIP3   OH242832   1.382   2.650   3.403 -0.3795  0.0656 -0.6136
 7066TIP3    H142833   1.408   2.603   3.483 -2.4680 -1.1670 -0.5722
 7066TIP3    H242834   1.432   2.731   3.405  0.1807 -0.2758  1.5774
 7067TIP3   OH242835   1.695   2.325   1.913 -0.2718 -0.1604  0.1049
 7067TIP3    H142836   1.652   2.400   1.954  1.7287  0.5620  0.9619
 7067TIP3    H242837   1.628   2.288   1.855 -1.3586  2.1925 -0.2359
 7068TIP3   OH242838   1.276   5.904   2.387  0.2933 -0.1754  0.0064
 7068TIP3    H142839   1.284   5.935   2.297  1.5168  0.8336  0.4339
 7068TIP3    H242840   1.182   5.907   2.406  0.2318  2.0124 -0.4267
 7069TIP3   OH242841   4.994   4.758   1.874 -0.6082 -0.9194  0.4920
 7069TIP3    H142842   4.944   4.712   1.806 -0.2665  1.2197 -1.3115
 7069TIP3    H242843   4.928   4.780   1.940 -1.7949  0.3148 -1.0132
 7070TIP3   OH242844   2.032   2.753   0.380 -0.2129  0.1644  0.0022
 7070TIP3    H142845   1.999   2.732   0.468 -0.0233  1.2538  0.3425
 7070TIP3    H242846   2.082   2.834   0.391 -1.9142  1.5031 -1.4703
 7071TIP3   OH242847   1.614   5.228   1.876 -0.6697 -0.0262  0.6670
 7071TIP3    H142848   1.662   5.148   1.896  0.6691  0.1136 -1.6733
 7071TIP3    H242849   1.673   5.299   1.901 -1.5286  0.2721  1.9727
 7072TIP3   OH242850   3.032   1.451   1.309 -0.2015 -0.0816  0.0739
 7072TIP3    H142851   3.010   1.429   1.218 -1.6019  0.1655  0.3312
 7072TIP3    H242852   3.120   1.413   1.322 -0.0250 -0.2231 -1.3315
 7073TIP3   OH242853   3.351   4.915   0.551 -0.0145 -0.1052  0.2415
 7073TIP3    H142854   3.318   4.890   0.465 -0.5080 -0.0859  0.4203
 7073TIP3    H242855   3.356   4.832   0.599  1.4958 -0.3115 -0.1988
 7074TIP3   OH242856   0.601   3.641   8.174  0.5725 -0.6796 -0.1434
 7074TIP3    H142857   0.632   3.578   8.239  0.2582 -2.0604 -1.2823
 7074TIP3    H242858   0.556   3.588   8.108 -2.0172  0.9788  0.1466
 7075TIP3   OH242859   0.956   3.265   0.306 -0.2106 -0.3322 -0.2390
 7075TIP3    H142860   0.921   3.238   0.222 -0.7612  0.5705 -0.3167
 7075TIP3    H242861   0.909   3.212   0.370 -2.0734  1.0986 -0.3165
 7076TIP3   OH242862   3.360   2.304   0.002  0.5745  0.4130 -0.1387
 7076TIP3    H142863   3.363   2.337   0.092 -0.1115  0.7833 -0.2455
 7076TIP3    H242864   3.419   2.361  -0.047  1.2617 -0.0384  0.1499
 7077TIP3   OH242865   5.470   4.551   2.055  0.0174 -0.1229 -0.2868
 7077TIP3    H142866   5.556   4.592   2.044 -0.5860  1.1824 -0.3228
 7077TIP3    H242867   5.423   4.571   1.974 -0.0672 -1.5152 -0.6046
 7078TIP3   OH242868   3.545   4.717   0.129  0.2220  0.5200  0.7537
 7078TIP3    H142869   3.571   4.730   0.221 -0.3511  0.4375  0.9310
 7078TIP3    H242870   3.500   4.799   0.106  1.2955  0.9764  0.2101
 7079TIP3   OH242871   2.279   1.682   7.912 -0.4977  0.1535 -0.2430
 7079TIP3    H142872   2.258   1.676   8.006 -0.0107 -1.7473 -0.2171
 7079TIP3    H242873   2.214   1.625   7.870  0.9619 -1.1934 -0.7518
 7080TIP3   OH242874   3.307   4.500   2.406 -0.1371 -0.3100 -0.1754
 7080TIP3    H142875   3.283   4.408   2.395  0.2107 -0.6403  1.4899
 7080TIP3    H242876   3.356   4.502   2.488 -1.0781  1.5154  0.4066
 7081TIP3   OH242877   1.867   0.867   2.163  0.1973  0.2098  0.4063
 7081TIP3    H142878   1.910   0.795   2.118 -1.0836  0.1107 -0.7581
 7081TIP3    H242879   1.852   0.835   2.252  2.9582  0.4749  1.0485
 7082TIP3   OH242880   0.614   5.635   3.004  0.2113 -0.5153  0.1437
 7082TIP3    H142881   0.696   5.615   3.048  1.2822 -0.6770 -1.8441
 7082TIP3    H242882   0.624   5.726   2.976 -1.1765  0.1696  1.6776
 7083TIP3   OH242883   3.331   5.062   1.900  0.2939 -0.0337  0.0320
 7083TIP3    H142884   3.305   5.071   1.992  0.1502 -0.0970 -0.0029
 7083TIP3    H242885   3.249   5.055   1.852  0.3435  0.7957 -0.1884
 7084TIP3   OH242886   2.164   0.481   8.005  0.0210 -0.0658  0.7590
 7084TIP3    H142887   2.119   0.550   8.054 -1.0121 -0.3773  0.2788
 7084TIP3    H242888   2.145   0.501   7.913 -0.1134 -0.8561  0.6075
 7085TIP3   OH242889   0.009   5.545   8.925  0.1973  0.5632  0.8185
 7085TIP3    H142890  -0.015   5.510   9.011  0.4079 -0.5734  0.4276
 7085TIP3    H242891  -0.074   5.567   8.884 -0.0840 -1.2062  0.3694
 7086TIP3   OH242892   3.071   5.485   1.301 -0.3553 -0.0690  0.3101
 7086TIP3    H142893   3.012   5.560   1.293 -0.5698 -0.3547 -1.1157
 7086TIP3    H242894   3.039   5.423   1.236  0.8293 -0.7068  0.3131
 7087TIP3   OH242895   3.214   0.855   0.740  0.6041 -0.6802  0.0932
 7087TIP3    H142896   3.252   0.923   0.684 -0.8990  0.3313  0.2258
 7087TIP3    H242897   3.139   0.898   0.781  1.2035 -1.6126  2.3259
 7088TIP3   OH242898   0.728   1.140   1.898 -0.0314 -0.1644  0.1785
 7088TIP3    H142899   0.740   1.231   1.926  0.7806  0.0790 -0.8907
 7088TIP3    H242900   0.710   1.092   1.978  0.4191  0.8059  0.8764
 7089TIP3   OH242901   3.856   4.934   1.677  0.1687 -0.1428  0.5147
 7089TIP3    H142902   3.760   4.927   1.678  0.1873 -0.8065 -0.4181
 7089TIP3    H242903   3.873   5.012   1.624  0.1357  0.7078  1.7298
 7090TIP3   OH242904   0.549   2.354   8.808 -0.2913  0.0111 -0.0011
 7090TIP3    H142905   0.538   2.365   8.903  1.7610  0.6912  0.2147
 7090TIP3    H242906   0.481   2.292   8.783 -1.0608  0.0212  1.8652
 7091TIP3   OH242907   2.853   6.506   1.825  0.1419  0.0865 -0.6263
 7091TIP3    H142908   2.796   6.441   1.784  1.2847  0.0867 -2.2798
 7091TIP3    H242909   2.802   6.538   1.900 -0.1438 -3.2628  0.7890
 7092TIP3   OH242910   5.466   0.270   1.699 -0.2248 -0.3802  0.0164
 7092TIP3    H142911   5.492   0.357   1.668  0.2767 -0.2667  0.7221
 7092TIP3    H242912   5.469   0.215   1.621  2.2666 -0.3868  0.0371
 7093TIP3   OH242913   1.716   1.769   0.955 -0.2682  0.0468  0.1690
 7093TIP3    H142914   1.659   1.711   1.005  0.8981 -0.6845  0.6811
 7093TIP3    H242915   1.677   1.771   0.867 -0.4244 -1.3779  0.1887
 7094TIP3   OH242916   5.023   2.312   8.279 -0.2896 -0.3528  0.2427
 7094TIP3    H142917   5.114   2.339   8.273 -0.2968  0.0498  1.5735
 7094TIP3    H242918   4.992   2.312   8.189  1.5617 -2.4506 -0.4779
 7095TIP3   OH242919   4.576   5.381   7.273 -0.2587 -0.1821  0.0670
 7095TIP3    H142920   4.644   5.368   7.207 -0.8111  1.3292 -0.8297
 7095TIP3    H242921   4.569   5.296   7.316  1.0347 -0.8314 -0.9297
 7096TIP3   OH242922   5.756   3.767   7.608  0.0022  0.5814  0.0073
 7096TIP3    H142923   5.730   3.701   7.543  1.3247  0.0524 -0.0224
 7096TIP3    H242924   5.763   3.717   7.690 -0.4141  0.9971  0.3040
 7097TIP3   OH242925   2.647   2.879   0.330  0.4309  0.4106  0.0242
 7097TIP3    H142926   2.683   2.956   0.286  0.4918 -0.0197 -0.6855
 7097TIP3    H242927   2.710   2.809   0.313  1.6752  0.7371  2.7337
 7098TIP3   OH242928   0.917   4.107   1.285 -0.0563  0.0336  0.3144
 7098TIP3    H142929   0.891   4.021   1.320 -0.1773  0.5568  1.5559
 7098TIP3    H242930   1.007   4.118   1.314  0.2874 -0.0753 -0.6701
 7099TIP3   OH242931   2.033   4.879   2.341  0.1570 -0.1061 -0.1712
 7099TIP3    H142932   2.032   4.848   2.432  0.6686  0.5770  0.0699
 7099TIP3    H242933   1.966   4.947   2.338 -1.3599 -1.5439 -0.8376
 7100TIP3   OH242934   3.520   6.357   7.635 -0.0040 -0.2347  0.1691
 7100TIP3    H142935   3.558   6.270   7.624 -0.9609 -0.8993  1.8270
 7100TIP3    H242936   3.553   6.388   7.719 -1.3910  0.0519  0.6404
 7101TIP3   OH242937   3.376   0.717   1.370  0.0745 -0.0446 -0.2867
 7101TIP3    H142938   3.370   0.736   1.277 -0.5311  0.3130 -0.1757
 7101TIP3    H242939   3.394   0.802   1.411  1.2910 -0.3376 -0.1563
 7102TIP3   OH242940   1.228   2.150   0.128 -0.4286 -0.4339 -0.1220
 7102TIP3    H142941   1.187   2.146   0.215 -1.0252 -0.2726 -0.3951
 7102TIP3    H242942   1.287   2.075   0.127  1.7127  1.0947  1.4718
 7103TIP3   OH242943   0.066   0.382   3.538 -0.2044  0.5385 -0.0617
 7103TIP3    H142944   0.149   0.429   3.528  0.1083  0.4282  1.6928
 7103TIP3    H242945   0.003   0.434   3.490  0.6849  1.2001 -0.5392
 7104TIP3   OH242946   6.230   0.809   8.270  0.0991 -0.3841  0.1147
 7104TIP3    H142947   6.309   0.839   8.225  0.8006  0.2084  1.6706
 7104TIP3    H242948   6.186   0.753   8.206 -0.6381  2.8754 -2.4984
 7105TIP3   OH242949   5.537   0.686   8.583  0.3816 -0.1364  0.2611
 7105TIP3    H142950   5.589   0.766   8.574 -1.6248  1.2552  0.2851
 7105TIP3    H242951   5.497   0.674   8.497  1.9617 -2.1216 -0.2444
 7106TIP3   OH242952   5.750   5.381   0.196  0.3160 -0.4457  0.0178
 7106TIP3    H142953   5.745   5.380   0.292  0.7927  0.8271  0.0786
 7106TIP3    H242954   5.689   5.313   0.168 -1.9279  0.9663  1.1628
 7107TIP3   OH242955   6.638   4.233   2.265 -0.4257 -0.0188  0.3056
 7107TIP3    H142956   6.713   4.271   2.219 -0.8042  0.2274 -0.1149
 7107TIP3    H242957   6.674   4.158   2.312 -0.2153 -0.9346 -1.2691
 7108TIP3   OH242958   0.799   4.053   0.073  0.1009 -0.1149  0.1567
 7108TIP3    H142959   0.851   3.978   0.100 -1.4223 -1.7962 -1.3587
 7108TIP3    H242960   0.861   4.127   0.075  2.4153 -1.8816 -1.0537
 7109TIP3   OH242961   0.448   3.400   2.315  0.6113 -0.0704 -0.2715
 7109TIP3    H142962   0.419   3.329   2.372 -0.5178  1.8997  1.7908
 7109TIP3    H242963   0.417   3.376   2.228  0.6875 -2.2829  0.2528
 7110TIP3   OH242964   3.234   0.911   8.926 -0.2245 -0.2188 -0.3230
 7110TIP3    H142965   3.151   0.945   8.961 -0.3073  0.6579 -1.3222
 7110TIP3    H242966   3.299   0.935   8.992 -0.4607  0.9528 -0.4881
 7111TIP3   OH242967   4.828   0.833   3.310  0.2351 -0.1670  0.1168
 7111TIP3    H142968   4.757   0.896   3.325  0.0413 -0.3411 -0.0531
 7111TIP3    H242969   4.904   0.887   3.291 -0.0997  0.0092 -0.7586
 7112TIP3   OH242970   3.111   5.168   0.221 -0.0894  0.5733 -0.2833
 7112TIP3    H142971   3.097   5.131   0.308  0.5895  0.5711 -0.1686
 7112TIP3    H242972   3.093   5.095   0.161  2.2933 -0.3335 -0.0197
 7113TIP3   OH242973   6.637   4.263   1.679  0.1074  0.3129 -0.6789
 7113TIP3    H142974   6.562   4.235   1.626  0.0281 -0.0831 -0.3582
 7113TIP3    H242975   6.713   4.230   1.631  0.1513  1.6375 -1.5786
 7114TIP3   OH242976   6.174   4.881   8.829  0.1251  0.4862  0.4781
 7114TIP3    H142977   6.247   4.942   8.835  0.2612  0.4912 -0.9691
 7114TIP3    H242978   6.164   4.864   8.736 -0.9400 -0.4692  0.7406
 7115TIP3   OH242979   3.928   3.703   3.004 -0.0076  0.0540 -0.0948
 7115TIP3    H142980   3.933   3.791   2.967  1.0835  0.2498  0.4706
 7115TIP3    H242981   3.989   3.652   2.952  0.5748  0.0300  0.5903
 7116TIP3   OH242982   0.805   0.402   0.642  0.0984 -0.0268  0.0455
 7116TIP3    H142983   0.893   0.440   0.642  0.9437 -1.8803 -0.3234
 7116TIP3    H242984   0.769   0.423   0.728  1.3775 -0.2530  0.6619
 7117TIP3   OH242985   1.771   2.242   8.200 -0.2217 -0.5813 -0.3600
 7117TIP3    H142986   1.799   2.327   8.234 -3.3557  0.3733  0.2046
 7117TIP3    H242987   1.809   2.236   8.113  0.8727  0.9294 -0.0210
 7118TIP3   OH242988   4.752   2.135   1.676  1.0683  0.0927  0.0364
 7118TIP3    H142989   4.681   2.148   1.613  1.6662 -0.0276 -0.6844
 7118TIP3    H242990   4.820   2.091   1.625  1.5589 -0.0227  0.7817
 7119TIP3   OH242991   4.588   4.010   7.836  0.6702  0.3305  0.5741
 7119TIP3    H142992   4.537   4.088   7.859  0.8367  0.8702 -0.7902
 7119TIP3    H242993   4.664   4.044   7.788  2.8986 -0.3761  3.3574
 7120TIP3   OH242994   3.931   5.657   8.160 -0.1686 -0.4500  0.5752
 7120TIP3    H142995   3.983   5.736   8.144  1.1355 -1.2166  0.8878
 7120TIP3    H242996   3.994   5.585   8.159 -1.0472 -1.3075  2.0420
 7121TIP3   OH242997   0.815   6.697   2.948 -0.0940 -0.2880  0.6760
 7121TIP3    H142998   0.727   6.673   2.917 -0.1244 -0.5645  0.9716
 7121TIP3    H242999   0.874   6.664   2.880 -0.0244 -2.4723  1.6939
 7122TIP3   OH243000   4.865   3.723   1.288 -0.1838  1.1256  0.2808
 7122TIP3    H143001   4.861   3.705   1.194 -1.6961 -2.0099  0.8161
 7122TIP3    H243002   4.775   3.744   1.313 -0.1865  0.1141  1.2526
 7123TIP3   OH243003   5.887   0.377   2.774  0.1007 -0.2271  0.3183
 7123TIP3    H143004   5.825   0.368   2.702  2.2359 -3.3384 -1.3871
 7123TIP3    H243005   5.949   0.444   2.744 -0.1146 -0.1229  0.1037
 7124TIP3   OH243006   0.345   6.427   1.957 -0.0029  0.0696 -0.0147
 7124TIP3    H143007   0.399   6.432   2.036  0.0156  1.0423 -0.0744
 7124TIP3    H243008   0.261   6.395   1.988 -0.0088  0.4877  0.4139
 7125TIP3   OH243009   1.232   6.563   0.453  0.0176 -0.3609 -0.2917
 7125TIP3    H143010   1.239   6.618   0.531  2.8627 -1.4780  0.3410
 7125TIP3    H243011   1.177   6.614   0.393 -0.9348  1.2314  1.8070
 7126TIP3   OH243012   1.668   6.271   8.672 -0.2511  0.0945  0.0385
 7126TIP3    H143013   1.707   6.196   8.718  3.3393  1.6731 -0.1612
 7126TIP3    H243014   1.677   6.249   8.579 -0.2984  0.2640 -0.0048
 7127TIP3   OH243015   1.991   5.698   0.559  0.6948  0.3816  0.0086
 7127TIP3    H143016   2.015   5.609   0.533 -1.2222  0.3953 -2.0782
 7127TIP3    H243017   1.920   5.687   0.622  0.1447  0.4279 -0.5986
 7128TIP3   OH243018   2.863   0.526   0.798 -0.2824  0.3387  0.0328
 7128TIP3    H143019   2.784   0.482   0.765 -0.9829 -0.2901  2.3566
 7128TIP3    H243020   2.921   0.454   0.822  1.9947  0.7457 -3.4893
 7129TIP3   OH243021   1.801   3.963   1.125 -0.2724  0.0480  0.3689
 7129TIP3    H143022   1.818   3.975   1.032 -0.1554  2.0970  0.6039
 7129TIP3    H243023   1.734   3.895   1.129 -1.6362  1.1992 -1.3538
 7130TIP3   OH243024   4.210   0.591   2.736  0.6603 -0.1660  0.0533
 7130TIP3    H143025   4.300   0.623   2.749  1.1699 -1.0745 -1.0075
 7130TIP3    H243026   4.162   0.621   2.813  1.4355  1.8861 -0.2147
 7131TIP3   OH243027   6.463   5.935   8.953  0.0640  0.6505  0.0872
 7131TIP3    H143028   6.387   5.880   8.973  0.3034  0.6138  0.9211
 7131TIP3    H243029   6.425   6.018   8.925 -0.2965  0.1585 -0.9494
 7132TIP3   OH243030   2.249   5.051   8.202  0.2759 -0.5291 -0.1699
 7132TIP3    H143031   2.299   5.089   8.274 -3.2435  0.7220  1.8793
 7132TIP3    H243032   2.239   4.959   8.225 -0.0949 -0.3255  0.5044
 7133TIP3   OH243033   4.144   5.456   8.130  0.2712  0.0219  0.4290
 7133TIP3    H143034   4.230   5.495   8.117 -0.0088  1.2478  2.0388
 7133TIP3    H243035   4.151   5.407   8.212 -0.0404 -1.5090 -0.4088
 7134TIP3   OH243036   1.047   1.355   1.428  0.3274  0.5198  0.0346
 7134TIP3    H143037   1.022   1.264   1.445  0.6200  0.7548  2.0815
 7134TIP3    H243038   0.992   1.406   1.487  0.1325  1.6976 -1.1302
 7135TIP3   OH243039   5.169   4.020   3.398  0.1004 -0.2165 -0.1308
 7135TIP3    H143040   5.115   4.052   3.326 -1.9897  0.9207  1.8077
 7135TIP3    H243041   5.230   4.092   3.416 -0.4284  0.1517  0.2192
 7136TIP3   OH243042   1.945   3.358   8.840  0.0000  0.8645 -0.2361
 7136TIP3    H143043   1.918   3.278   8.794  1.1885  1.8061 -2.7789
 7136TIP3    H243044   1.920   3.429   8.781  1.2966  2.2001  0.7375
 7137TIP3   OH243045   4.290   0.540   1.464 -0.0789 -0.7096  0.1361
 7137TIP3    H143046   4.236   0.572   1.392 -1.0760  0.0642  1.2102
 7137TIP3    H243047   4.238   0.472   1.506  0.2524 -0.7433  0.5015
 7138TIP3   OH243048   4.030   1.469   2.275 -0.4891  0.4161 -0.1043
 7138TIP3    H143049   3.988   1.534   2.331 -0.3836  1.1576 -0.8594
 7138TIP3    H243050   3.965   1.449   2.208 -0.0507  0.7359 -0.6324
 7139TIP3   OH243051   2.814   3.665   1.667  0.0107  0.2487 -0.2166
 7139TIP3    H143052   2.837   3.668   1.574  1.9269 -3.1211 -0.0239
 7139TIP3    H243053   2.880   3.721   1.710  2.2647 -1.9392 -0.5715
 7140TIP3   OH243054   2.905   2.248   1.302  0.9966 -0.3967  0.0560
 7140TIP3    H143055   2.853   2.247   1.383 -0.1960  2.4142 -0.5402
 7140TIP3    H243056   2.964   2.323   1.313  0.0334  0.7376 -2.0639
 7141TIP3   OH243057   5.792   2.861   7.369  0.1916 -0.5342  0.3155
 7141TIP3    H143058   5.887   2.870   7.384  0.5110 -0.4839 -1.4865
 7141TIP3    H243059   5.786   2.824   7.281 -1.4897 -0.0223  0.1956
 7142TIP3   OH243060   6.266   3.305   8.591  0.2917  0.2910  0.0217
 7142TIP3    H143061   6.274   3.313   8.496  0.3180  1.0536  0.0806
 7142TIP3    H243062   6.282   3.393   8.624 -2.1199  0.5913  0.5863
 7143TIP3   OH243063   5.963   1.214   0.366  0.3302  0.5194 -0.1067
 7143TIP3    H143064   5.958   1.119   0.358 -0.4175  0.5792 -0.4089
 7143TIP3    H243065   6.032   1.239   0.304 -1.9009  0.4729 -2.8213
 7144TIP3   OH243066   0.048   6.780   0.514 -0.4462  0.1235 -0.0680
 7144TIP3    H143067  -0.035   6.762   0.558 -1.2952 -1.1296 -2.0668
 7144TIP3    H243068   0.042   6.733   0.432  1.9889  0.5958 -0.5727
 7145TIP3   OH243069   0.899   2.387   2.070 -0.2334  0.4742  0.1394
 7145TIP3    H143070   0.849   2.468   2.054 -0.9587  0.4020  1.8397
 7145TIP3    H243071   0.843   2.317   2.036 -0.1624  0.5838 -0.2083
 7146TIP3   OH243072   2.842   4.248   7.704  0.4195  0.4559 -0.1226
 7146TIP3    H143073   2.830   4.336   7.740  1.4637  0.4844  0.1689
 7146TIP3    H243074   2.812   4.255   7.613 -1.9792  0.4574  0.5801
 7147TIP3   OH243075   2.137   5.673   8.279  0.5412  0.0085 -0.4496
 7147TIP3    H143076   2.047   5.645   8.298  0.6805 -1.1447 -1.2970
 7147TIP3    H243077   2.141   5.672   8.183  1.7860 -1.1586 -0.4181
 7148TIP3   OH243078   3.830   2.781   7.925 -0.1028 -0.3461 -0.1488
 7148TIP3    H143079   3.776   2.705   7.951 -1.0061  0.2084 -0.3678
 7148TIP3    H243080   3.787   2.816   7.848  0.8398 -0.1460 -0.5932
 7149TIP3   OH243081   2.733   0.864   2.184  0.5457  0.4462  0.3346
 7149TIP3    H143082   2.792   0.821   2.122 -0.1488  1.4260 -1.0522
 7149TIP3    H243083   2.705   0.944   2.139 -0.3148  0.9696  1.7503
 7150TIP3   OH243084   5.361   2.440   7.860 -0.4379 -0.1930 -0.3792
 7150TIP3    H143085   5.424   2.512   7.867  0.0440 -0.6706  0.3889
 7150TIP3    H243086   5.316   2.454   7.777  1.0947 -0.1625 -1.2272
 7151TIP3   OH243087   6.200   1.039   1.884  0.3699  0.0469 -0.7119
 7151TIP3    H143088   6.139   1.093   1.834 -0.1004  0.7463  0.5746
 7151TIP3    H243089   6.174   0.949   1.865  0.1757  0.3017 -1.6773
 7152TIP3   OH243090   3.452   3.075   3.239  0.6274  0.3283 -0.5678
 7152TIP3    H143091   3.543   3.056   3.259  1.0506  1.2709 -1.5246
 7152TIP3    H243092   3.455   3.143   3.172 -0.7948  1.7229  0.6823
 7153TIP3   OH243093   3.041   3.584   1.037 -0.3662 -0.7420 -0.1497
 7153TIP3    H143094   3.084   3.583   1.122  3.8337  1.0688 -1.9816
 7153TIP3    H243095   3.045   3.493   1.007  0.3930 -0.9598  0.5823
 7154TIP3   OH243096   6.638   4.528   1.487  0.4074  0.2231  0.2178
 7154TIP3    H143097   6.682   4.515   1.404 -2.3750 -2.6092 -0.9867
 7154TIP3    H243098   6.579   4.454   1.496 -0.4359  1.1120  4.1115
 7155TIP3   OH243099   0.212   2.320   1.602 -0.5058 -0.7805  0.1663
 7155TIP3    H143100   0.160   2.256   1.651  0.2681 -0.7631  1.0290
 7155TIP3    H243101   0.293   2.328   1.651 -1.0831  1.8709  0.8635
 7156TIP3   OH243102   5.393   1.522   0.254 -0.3468  0.0630  0.2107
 7156TIP3    H143103   5.373   1.616   0.252  2.8673  0.8771  0.4406
 7156TIP3    H243104   5.413   1.500   0.163  0.8564  0.1503  0.4359
 7157TIP3   OH243105   4.852   0.854   7.671  0.1501  0.2628  0.5857
 7157TIP3    H143106   4.785   0.791   7.697 -1.1718  1.7037  0.8835
 7157TIP3    H243107   4.836   0.869   7.578  1.7468 -1.2834  0.0289
 7158TIP3   OH243108   5.927   2.171   1.812 -0.1034 -0.6351 -0.6215
 7158TIP3    H143109   5.834   2.189   1.829  0.2818  1.1523 -0.1993
 7158TIP3    H243110   5.972   2.206   1.888  1.0830  0.4839 -1.8019
 7159TIP3   OH243111   3.696   3.181   8.718 -0.4446  0.1381  0.5119
 7159TIP3    H143112   3.616   3.225   8.746 -0.4291 -0.0332  0.8182
 7159TIP3    H243113   3.750   3.252   8.681 -0.2029  0.4711  1.4817
 7160TIP3   OH243114   0.747   5.073   2.487 -0.0437 -0.0475  0.7246
 7160TIP3    H143115   0.677   5.045   2.546  0.4024  0.4747  1.5307
 7160TIP3    H243116   0.818   5.100   2.546 -0.0593  1.7494 -0.0029
 7161TIP3   OH243117   1.781   4.010   0.558 -0.4079 -0.4042 -0.2651
 7161TIP3    H143118   1.711   3.980   0.500 -0.3734 -0.0799 -0.4792
 7161TIP3    H243119   1.735   4.049   0.632 -0.4526 -1.1686  0.1142
 7162TIP3   OH243120   5.545   0.773   8.845  0.1684  0.0140 -0.0491
 7162TIP3    H143121   5.554   0.772   8.750  0.3156  0.3631 -0.0398
 7162TIP3    H243122   5.573   0.686   8.873 -1.0831 -0.5164 -0.4295
 7163TIP3   OH243123   1.192   5.650   1.544 -0.3533  0.0073  0.0325
 7163TIP3    H143124   1.273   5.650   1.596 -0.5271 -0.0750  0.3055
 7163TIP3    H243125   1.148   5.731   1.569 -0.0665  0.3596 -0.5763
 7164TIP3   OH243126   6.715   4.728   2.932 -0.4209 -0.2144 -0.2083
 7164TIP3    H143127   6.735   4.638   2.961  0.3533  0.1276  0.3571
 7164TIP3    H243128   6.622   4.739   2.950 -0.2783 -0.5228  0.8002
 7165LIG      O43129   6.158   2.511   7.273 -0.3631 -0.1226  0.1120
 7165LIG      N43130   6.038   2.936   7.467 -0.1443 -0.2254  0.1922
 7165LIG     C143131   6.245   2.718   7.154 -0.3958  0.6332 -0.9283
 7165LIG     C243132   6.217   2.639   7.293  0.1065 -0.0255  0.3368
 7165LIG     C343133   6.360   2.643   7.081 -0.6485 -0.4214  0.1421
 7165LIG     C443134   6.116   2.729   7.069 -0.0502 -0.9244  0.0238
 7165LIG     C543135   6.115   2.718   7.374  0.1822 -0.1017  0.1621
 7165LIG     C643136   6.382   2.699   6.933  0.4856 -0.1717  0.7727
 7165LIG     C743137   6.145   2.788   6.923 -0.3540  0.1444  0.6291
 7165LIG     C843138   6.248   2.705   6.851 -0.8727  0.7632  0.9283
 7165LIG     C943139   6.148   2.873   7.393  0.9496 -0.0614 -0.0913
 7165LIG    C1043140   6.356   2.632   7.383 -0.4233  0.3742  0.0407
 7165LIG    C1143141   6.029   2.897   7.607  0.6468 -0.0011 -0.1052
 7165LIG    C1243142   6.024   3.087   7.450  0.1123  0.2851 -0.4729
 7165LIG    C1343143   6.136   2.959   7.698 -0.7295  0.3049 -0.1462
 7165LIG    C1443144   6.142   3.140   7.532  0.6300 -0.0195 -0.2331
 7165LIG    C1543145   6.136   3.112   7.679 -0.5400  0.8729  0.3867
 7165LIG    C1643146   6.445   2.743   7.397 -0.0796 -0.2048 -0.3790
 7165LIG    C1743147   6.381   2.519   7.465 -0.9201 -1.0532  0.1571
 7165LIG    C1843148   6.562   2.740   7.469 -0.3638 -0.2914 -0.4901
 7165LIG    C1943149   6.502   2.515   7.537 -0.4448  0.1037 -0.5084
 7165LIG    C2043150   6.586   2.627   7.545 -0.1152 -1.2375  0.0731
 7165LIG     H143151   6.284   2.817   7.184  1.1826 -0.5137  1.1780
 7165LIG     H243152   6.337   2.535   7.081  0.4304 -0.6672  0.3519
 7165LIG     H343153   6.454   2.661   7.137 -0.7700 -1.7149  0.7998
 7165LIG     H443154   6.036   2.793   7.112  0.3158  0.8516 -1.7649
 7165LIG     H543155   6.060   2.633   7.076 -0.9706 -0.3465  0.9648
 7165LIG     H643156   6.101   2.670   7.474 -2.1568  1.0686  0.4652
 7165LIG     H743157   6.011   2.712   7.335 -0.2703  0.1961  1.2645
 7165LIG     H843158   6.454   2.631   6.883 -0.2896  0.0198 -0.6278
 7165LIG     H943159   6.422   2.802   6.937 -1.1324  0.5337 -0.4534
 7165LIG    H1043160   6.184   2.892   6.929 -2.2479  1.0168 -0.8553
 7165LIG    H1143161   6.053   2.798   6.861 -0.3639 -0.4175  0.5437
 7165LIG    H1243162   6.208   2.601   6.842  0.4356  0.4221 -2.5172
 7165LIG    H1343163   6.268   2.732   6.745  1.3220 -1.2700  0.7394
 7165LIG    H1443164   6.240   2.899   7.449 -1.0684  2.8686  2.1273
 7165LIG    H1543165   6.153   2.916   7.290  1.2601 -1.7402 -0.8173
 7165LIG    H1643166   6.045   2.787   7.607  0.2229 -0.0907 -1.8357
 7165LIG    H1743167   5.928   2.906   7.654 -0.1897 -0.1546 -1.8106
 7165LIG    H1843168   5.928   3.123   7.493  0.2883 -0.5461  0.6545
 7165LIG    H1943169   6.035   3.115   7.343 -0.6396 -1.2626 -0.9950
 7165LIG    H2043170   6.120   2.496   7.360 -0.4920  1.4257  0.3548
 7165LIG    H2143171   6.238   2.920   7.677 -0.2472  1.5974 -0.3062
 7165LIG    H2243172   6.102   2.927   7.798 -1.1660  0.2291 -0.3131
 7165LIG    H2343173   6.131   3.251   7.525 -0.7089 -0.2013 -1.8626
 7165LIG    H2443174   6.239   3.106   7.490  0.7597  0.9562 -0.7712
 7165LIG    H2543175   6.221   3.151   7.739 -1.4008  2.3413  0.7028
 7165LIG    H2643176   6.047   3.159   7.725 -0.6063  1.2330 -0.0978
 7165LIG    H2743177   6.422   2.822   7.328  0.9968 -0.5251 -1.1253
 7165LIG    H2843178   6.305   2.443   7.473 -2.2378  0.3142  1.1412
 7165LIG    H2943179   6.618   2.832   7.478  2.0746 -1.4731 -2.4713
 7165LIG    H3043180   6.527   2.431   7.600 -0.3605  1.4451  1.3269
 7165LIG    H3143181   6.673   2.633   7.608  0.8367 -0.8464 -1.2214
   6.78721   6.78721   8.97383
